<event>
 6    1  0.1280499E-001  0.3000000E+03  0.7818608E-02  0.1093470E+00
         21   -1    0    0  501  502  0.00000000000E+00  0.00000000000E+00  0.18265966267E+01  0.18265966267E+01  0.00000000000E+00 0. -1.
         13   -1    0    0    0    0 -0.00000000000E+00 -0.00000000000E+00 -0.10000000000E+04  0.10000000000E+04  0.00000000000E+00 0.  1.
    9000005    2    1    2  501    0 -0.16012775505E+02  0.39004397693E+02 -0.56604113138E+03  0.56764224348E+03  0.61157297998E+01 0.  0.
         13    1    3    3    0    0 -0.90485310115E+01  0.20713176775E+02 -0.34303296637E+03  0.34377685731E+03  0.00000000000E+00 0.  1.
          3    1    3    3  501    0 -0.69642444934E+01  0.18291220918E+02 -0.22300816501E+03  0.22386538617E+03  0.00000000000E+00 0.  1.
         -3    1    1    2    0  502  0.16012775505E+02 -0.39004397693E+02 -0.43213227199E+03  0.43418435314E+03  0.00000000000E+00 0. -1.
<mgrwt>
<rscale>  1 0.30000000E+03</rscale>
<asrwt>0</asrwt>
<pdfrwt beam="1">  1       21 0.66421836E-02 0.30000000E+03</pdfrwt>
<pdfrwt beam="2">0</pdfrwt>
<totfact> 0.17674846E+04</totfact>
</mgrwt>
</event>
<event>
 6    1  0.1280499E-001  0.3000000E+03  0.7818608E-02  0.1093470E+00
         21   -1    0    0  501  502  0.00000000000E+00  0.00000000000E+00  0.35546434062E+01  0.35546434062E+01  0.00000000000E+00 0. -1.
         13   -1    0    0    0    0 -0.00000000000E+00 -0.00000000000E+00 -0.10000000000E+04  0.10000000000E+04  0.00000000000E+00 0.  1.
    9000005    2    1    2  501    0 -0.22294132572E+02  0.51482968939E+02 -0.66725461841E+03  0.66961742394E+03  0.33532399863E+01 0.  0.
         13    1    3    3    0    0 -0.11808705343E+02  0.23741854742E+02 -0.30409477732E+03  0.30524867695E+03  0.00000000000E+00 0.  1.
          1    1    3    3  501    0 -0.10485427229E+02  0.27741114197E+02 -0.36315984109E+03  0.36436874699E+03  0.00000000000E+00 0.  1.
         -3    1    1    2    0  502  0.22294132572E+02 -0.51482968939E+02 -0.32919073819E+03  0.33393721947E+03  0.00000000000E+00 0. -1.
<mgrwt>
<rscale>  1 0.30000000E+03</rscale>
<asrwt>0</asrwt>
<pdfrwt beam="1">  1       21 0.12926003E-01 0.30000000E+03</pdfrwt>
<pdfrwt beam="2">0</pdfrwt>
<totfact> 0.54126424E+03</totfact>
</mgrwt>
</event>
<event>
 6    1  0.1280499E-001  0.3000000E+03  0.7818608E-02  0.1093470E+00
         21   -1    0    0  501  502  0.00000000000E+00  0.00000000000E+00  0.10966662214E+01  0.10966662214E+01  0.00000000000E+00 0. -1.
         13   -1    0    0    0    0 -0.00000000000E+00 -0.00000000000E+00 -0.10000000000E+04  0.10000000000E+04  0.00000000000E+00 0.  1.
    9000005    2    1    2  501    0 -0.18754362521E+02 -0.25692634586E+02 -0.63610590034E+03  0.63690740870E+03  0.29143133200E+01 0.  0.
         13    1    3    3    0    0 -0.11101266842E+02 -0.14245947767E+02 -0.33415463812E+03  0.33464235735E+03  0.00000000000E+00 0.  1.
          3    1    3    3  501    0 -0.76530956787E+01 -0.11446686819E+02 -0.30195126222E+03  0.30226505135E+03  0.00000000000E+00 0.  1.
         -1    1    1    2    0  502  0.18754362521E+02  0.25692634586E+02 -0.36279743344E+03  0.36418925752E+03  0.00000000000E+00 0. -1.
<mgrwt>
<rscale>  1 0.30000000E+03</rscale>
<asrwt>0</asrwt>
<pdfrwt beam="1">  1       21 0.39878856E-02 0.30000000E+03</pdfrwt>
<pdfrwt beam="2">0</pdfrwt>
<totfact> 0.42262634E+04</totfact>
</mgrwt>
</event>
<event>
 6    1  0.1280499E-001  0.3000000E+03  0.7818608E-02  0.1093470E+00
         21   -1    0    0  501  502  0.00000000000E+00  0.00000000000E+00  0.19813674010E+01  0.19813674010E+01  0.00000000000E+00 0. -1.
         13   -1    0    0    0    0 -0.00000000000E+00 -0.00000000000E+00 -0.10000000000E+04  0.10000000000E+04  0.00000000000E+00 0.  1.
    9000005    2    1    2  501    0  0.44150017983E+02 -0.36030383552E+01 -0.53704449443E+03  0.53888379449E+03  0.40925536813E+01 0.  0.
         13    1    3    3    0    0  0.93261676401E+00 -0.30852493413E+00 -0.67688618550E+01  0.68397699140E+01  0.00000000000E+00 0.  1.
          1    1    3    3  501    0  0.43217401219E+02 -0.32945134211E+01 -0.53027563257E+03  0.53204402457E+03  0.00000000000E+00 0.  1.
         -3    1    1    2    0  502 -0.44150017983E+02  0.36030383552E+01 -0.46097413817E+03  0.46309757291E+03  0.00000000000E+00 0. -1.
<mgrwt>
<rscale>  1 0.30000000E+03</rscale>
<asrwt>0</asrwt>
<pdfrwt beam="1">  1       21 0.72049876E-02 0.30000000E+03</pdfrwt>
<pdfrwt beam="2">0</pdfrwt>
<totfact> 0.15343866E+04</totfact>
</mgrwt>
</event>
<event>
 6    1  0.1280499E-001  0.3000000E+03  0.7818608E-02  0.1093470E+00
         21   -1    0    0  501  502  0.00000000000E+00  0.00000000000E+00  0.12276929202E+01  0.12276929202E+01  0.00000000000E+00 0. -1.
         13   -1    0    0    0    0 -0.00000000000E+00 -0.00000000000E+00 -0.10000000000E+04  0.10000000000E+04  0.00000000000E+00 0.  1.
    9000005    2    1    2  501    0 -0.31387980572E+02  0.14140996494E+02 -0.58768174271E+03  0.58869814825E+03  0.32412868073E+01 0.  0.
         13    1    3    3    0    0 -0.12513625135E+02  0.39446636945E+01 -0.21794230633E+03  0.21833689581E+03  0.00000000000E+00 0.  1.
          1    1    3    3  501    0 -0.18874355437E+02  0.10196332800E+02 -0.36973943638E+03  0.37036125244E+03  0.00000000000E+00 0.  1.
         -1    1    1    2    0  502  0.31387980572E+02 -0.14140996494E+02 -0.41109056437E+03  0.41252954467E+03  0.00000000000E+00 0. -1.
<mgrwt>
<rscale>  1 0.30000000E+03</rscale>
<asrwt>0</asrwt>
<pdfrwt beam="1">  1       21 0.44643473E-02 0.30000000E+03</pdfrwt>
<pdfrwt beam="2">0</pdfrwt>
<totfact> 0.34926302E+04</totfact>
</mgrwt>
</event>
<event>
 6    1  0.1280499E-001  0.3000000E+03  0.7818608E-02  0.1093470E+00
         21   -1    0    0  501  502  0.00000000000E+00  0.00000000000E+00  0.12639867202E+01  0.12639867202E+01  0.00000000000E+00 0. -1.
         13   -1    0    0    0    0 -0.00000000000E+00 -0.00000000000E+00 -0.10000000000E+04  0.10000000000E+04  0.00000000000E+00 0.  1.
    9000005    2    1    2  501    0  0.33113458383E+02  0.22394990120E+01 -0.67400971773E+03  0.67484602842E+03  0.51522803208E+01 0.  0.
         13    1    3    3    0    0  0.29376272909E+02  0.10541389878E+01 -0.61842025513E+03  0.61911847700E+03  0.00000000000E+00 0.  1.
          1    1    3    3  501    0  0.37371854742E+01  0.11853600242E+01 -0.55589462606E+02  0.55727551413E+02  0.00000000000E+00 0.  1.
         -1    1    1    2    0  502 -0.33113458383E+02 -0.22394990120E+01 -0.32472629555E+03  0.32641795830E+03  0.00000000000E+00 0. -1.
<mgrwt>
<rscale>  1 0.30000000E+03</rscale>
<asrwt>0</asrwt>
<pdfrwt beam="1">  1       21 0.45963250E-02 0.30000000E+03</pdfrwt>
<pdfrwt beam="2">0</pdfrwt>
<totfact> 0.33240889E+04</totfact>
</mgrwt>
</event>
<event>
 6    1  0.1280499E-001  0.3000000E+03  0.7818608E-02  0.1093470E+00
         21   -1    0    0  501  502  0.00000000000E+00  0.00000000000E+00  0.39624725468E+01  0.39624725468E+01  0.00000000000E+00 0. -1.
         13   -1    0    0    0    0 -0.00000000000E+00 -0.00000000000E+00 -0.10000000000E+04  0.10000000000E+04  0.00000000000E+00 0.  1.
    9000005    2    1    2  501    0  0.25816291274E+02  0.55965206037E+02 -0.59703853676E+03  0.60023139899E+03  0.49125119950E+01 0.  0.
         13    1    3    3    0    0  0.72469068352E+01  0.18862381773E+02 -0.17762439647E+03  0.17877005713E+03  0.00000000000E+00 0.  1.
          3    1    3    3  501    0  0.18569384439E+02  0.37102824264E+02 -0.41941414029E+03  0.42146134186E+03  0.00000000000E+00 0.  1.
         -1    1    1    2    0  502 -0.25816291274E+02 -0.55965206037E+02 -0.39899899069E+03  0.40373107356E+03  0.00000000000E+00 0. -1.
<mgrwt>
<rscale>  1 0.30000000E+03</rscale>
<asrwt>0</asrwt>
<pdfrwt beam="1">  1       21 0.14409021E-01 0.30000000E+03</pdfrwt>
<pdfrwt beam="2">0</pdfrwt>
<totfact> 0.44353358E+03</totfact>
</mgrwt>
</event>
<event>
 6    1  0.1280499E-001  0.3000000E+03  0.7818608E-02  0.1093470E+00
         21   -1    0    0  501  502  0.00000000000E+00  0.00000000000E+00  0.20254118706E+01  0.20254118706E+01  0.00000000000E+00 0. -1.
         13   -1    0    0    0    0 -0.00000000000E+00 -0.00000000000E+00 -0.10000000000E+04  0.10000000000E+04  0.00000000000E+00 0.  1.
    9000005    2    1    2  501    0 -0.28903705592E+02  0.20914290471E+02 -0.80390537066E+03  0.80470411826E+03  0.34700469823E+01 0.  0.
         13    1    3    3    0    0 -0.23060483929E+02  0.17659796547E+02 -0.62715392220E+03  0.62782616739E+03  0.00000000000E+00 0.  1.
          3    1    3    3  501    0 -0.58432216624E+01  0.32544939246E+01 -0.17675144847E+03  0.17687795087E+03  0.00000000000E+00 0.  1.
         -3    1    1    2    0  502  0.28903705592E+02 -0.20914290471E+02 -0.19406921746E+03  0.19732129361E+03  0.00000000000E+00 0. -1.
<mgrwt>
<rscale>  1 0.30000000E+03</rscale>
<asrwt>0</asrwt>
<pdfrwt beam="1">  1       21 0.73651496E-02 0.30000000E+03</pdfrwt>
<pdfrwt beam="2">0</pdfrwt>
<totfact> 0.14765877E+04</totfact>
</mgrwt>
</event>
<event>
 6    1  0.1280499E-001  0.3000000E+03  0.7818608E-02  0.1093470E+00
         21   -1    0    0  501  502  0.00000000000E+00  0.00000000000E+00  0.77050321318E+01  0.77050321318E+01  0.00000000000E+00 0. -1.
         13   -1    0    0    0    0 -0.00000000000E+00 -0.00000000000E+00 -0.10000000000E+04  0.10000000000E+04  0.00000000000E+00 0.  1.
    9000005    2    1    2  501    0 -0.18427278461E+02  0.29179231626E+02 -0.95940921499E+03  0.96003465462E+03  0.30828743920E+01 0.  0.
         13    1    3    3    0    0 -0.13571085344E+02  0.20924975353E+02 -0.72896948603E+03  0.72939601076E+03  0.00000000000E+00 0.  1.
          1    1    3    3  501    0 -0.48561931170E+01  0.82542562726E+01 -0.23043972896E+03  0.23063864386E+03  0.00000000000E+00 0.  1.
         -3    1    1    2    0  502  0.18427278461E+02 -0.29179231626E+02 -0.32885752879E+02  0.47670377513E+02  0.00000000000E+00 0. -1.
<mgrwt>
<rscale>  1 0.30000000E+03</rscale>
<asrwt>0</asrwt>
<pdfrwt beam="1">  1       21 0.28018358E-01 0.30000000E+03</pdfrwt>
<pdfrwt beam="2">0</pdfrwt>
<totfact> 0.12457793E+03</totfact>
</mgrwt>
</event>
<event>
 6    1  0.1280499E-001  0.3000000E+03  0.7818608E-02  0.1093470E+00
         21   -1    0    0  501  502  0.00000000000E+00  0.00000000000E+00  0.94538524900E+00  0.94538524900E+00  0.00000000000E+00 0. -1.
         13   -1    0    0    0    0 -0.00000000000E+00 -0.00000000000E+00 -0.10000000000E+04  0.10000000000E+04  0.00000000000E+00 0.  1.
    9000005    2    1    2  501    0 -0.30134866079E+02  0.50301289716E+01 -0.54415052500E+03  0.54501650568E+03  0.31281395220E+01 0.  0.
         13    1    3    3    0    0 -0.33557801874E+01  0.11574983014E+01 -0.50099263643E+02  0.50224867153E+02  0.00000000000E+00 0.  1.
          1    1    3    3  501    0 -0.26779085892E+02  0.38726306702E+01 -0.49405126135E+03  0.49479163853E+03  0.00000000000E+00 0.  1.
         -3    1    1    2    0  502  0.30134866079E+02 -0.50301289716E+01 -0.45490408975E+03  0.45592887957E+03  0.00000000000E+00 0. -1.
<mgrwt>
<rscale>  1 0.30000000E+03</rscale>
<asrwt>0</asrwt>
<pdfrwt beam="1">  1       21 0.34377718E-02 0.30000000E+03</pdfrwt>
<pdfrwt beam="2">0</pdfrwt>
<totfact> 0.54220300E+04</totfact>
</mgrwt>
</event>
<event>
 6    1  0.1280499E-001  0.3000000E+03  0.7818608E-02  0.1093470E+00
         21   -1    0    0  501  502  0.00000000000E+00  0.00000000000E+00  0.36522631437E+01  0.36522631437E+01  0.00000000000E+00 0. -1.
         13   -1    0    0    0    0 -0.00000000000E+00 -0.00000000000E+00 -0.10000000000E+04  0.10000000000E+04  0.00000000000E+00 0.  1.
    9000005    2    1    2  501    0  0.34346390611E+02 -0.12625781564E+02 -0.89743201694E+03  0.89818471101E+03  0.35306007046E+01 0.  0.
         13    1    3    3    0    0  0.21809964532E+02 -0.74046769096E+01 -0.52437777580E+03  0.52488337328E+03  0.00000000000E+00 0.  1.
          1    1    3    3  501    0  0.12536426079E+02 -0.52211046547E+01 -0.37305424114E+03  0.37330133772E+03  0.00000000000E+00 0.  1.
         -3    1    1    2    0  502 -0.34346390611E+02  0.12625781564E+02 -0.98915719913E+02  0.10546755214E+03  0.00000000000E+00 0. -1.
<mgrwt>
<rscale>  1 0.30000000E+03</rscale>
<asrwt>0</asrwt>
<pdfrwt beam="1">  1       21 0.13280985E-01 0.30000000E+03</pdfrwt>
<pdfrwt beam="2">0</pdfrwt>
<totfact> 0.51512241E+03</totfact>
</mgrwt>
</event>
<event>
 6    1  0.1280499E-001  0.3000000E+03  0.7818608E-02  0.1093470E+00
         21   -1    0    0  501  502  0.00000000000E+00  0.00000000000E+00  0.59955242786E+01  0.59955242786E+01  0.00000000000E+00 0. -1.
         13   -1    0    0    0    0 -0.00000000000E+00 -0.00000000000E+00 -0.10000000000E+04  0.10000000000E+04  0.00000000000E+00 0.  1.
    9000005    2    1    2  501    0 -0.41140464751E+02 -0.25311730540E+01 -0.92271522001E+03  0.92364807346E+03  0.48416613000E+01 0.  0.
         13    1    3    3    0    0 -0.12395435557E+02  0.14350166805E+01 -0.27029023561E+03  0.27057811730E+03  0.00000000000E+00 0.  1.
          3    1    3    3  501    0 -0.28745029194E+02 -0.39661897346E+01 -0.65242498441E+03  0.65306995616E+03  0.00000000000E+00 0.  1.
         -3    1    1    2    0  502  0.41140464751E+02  0.25311730540E+01 -0.71289255707E+02  0.82347450818E+02  0.00000000000E+00 0. -1.
<mgrwt>
<rscale>  1 0.30000000E+03</rscale>
<asrwt>0</asrwt>
<pdfrwt beam="1">  1       21 0.21801952E-01 0.30000000E+03</pdfrwt>
<pdfrwt beam="2">0</pdfrwt>
<totfact> 0.20336793E+03</totfact>
</mgrwt>
</event>
<event>
 6    1  0.1280499E-001  0.3000000E+03  0.7818608E-02  0.1093470E+00
         21   -1    0    0  501  502  0.00000000000E+00  0.00000000000E+00  0.42009771594E+01  0.42009771594E+01  0.00000000000E+00 0. -1.
         13   -1    0    0    0    0 -0.00000000000E+00 -0.00000000000E+00 -0.10000000000E+04  0.10000000000E+04  0.00000000000E+00 0.  1.
    9000005    2    1    2  501    0 -0.23583077555E+02 -0.57490615490E+02 -0.35673058365E+03  0.36211858183E+03  0.34388344297E+01 0.  0.
         13    1    3    3    0    0 -0.54785481908E+01 -0.16623770901E+02 -0.95096673349E+02  0.96694061510E+02  0.00000000000E+00 0.  1.
          1    1    3    3  501    0 -0.18104529364E+02 -0.40866844589E+02 -0.26163391030E+03  0.26542452032E+03  0.00000000000E+00 0.  1.
         -3    1    1    2    0  502  0.23583077555E+02  0.57490615490E+02 -0.63906843919E+03  0.64208239533E+03  0.00000000000E+00 0. -1.
<mgrwt>
<rscale>  1 0.30000000E+03</rscale>
<asrwt>0</asrwt>
<pdfrwt beam="1">  1       21 0.15276313E-01 0.30000000E+03</pdfrwt>
<pdfrwt beam="2">0</pdfrwt>
<totfact> 0.39810830E+03</totfact>
</mgrwt>
</event>
<event>
 6    1  0.1280499E-001  0.3000000E+03  0.7818608E-02  0.1093470E+00
         21   -1    0    0  501  502  0.00000000000E+00  0.00000000000E+00  0.50536809843E+01  0.50536809843E+01  0.00000000000E+00 0. -1.
         13   -1    0    0    0    0 -0.00000000000E+00 -0.00000000000E+00 -0.10000000000E+04  0.10000000000E+04  0.00000000000E+00 0.  1.
    9000005    2    1    2  501    0  0.19679932232E+02 -0.44874981051E+02 -0.86143558926E+03  0.86283491072E+03  0.34271048466E+01 0.  0.
         13    1    3    3    0    0  0.17519258673E+02 -0.40713905131E+02 -0.76055914716E+03  0.76184956706E+03  0.00000000000E+00 0.  1.
          3    1    3    3  501    0  0.21606735586E+01 -0.41610759204E+01 -0.10087644210E+03  0.10098534366E+03  0.00000000000E+00 0.  1.
         -3    1    1    2    0  502 -0.19679932232E+02  0.44874981051E+02 -0.13351072975E+03  0.14221877027E+03  0.00000000000E+00 0. -1.
<mgrwt>
<rscale>  1 0.30000000E+03</rscale>
<asrwt>0</asrwt>
<pdfrwt beam="1">  1       21 0.18377061E-01 0.30000000E+03</pdfrwt>
<pdfrwt beam="2">0</pdfrwt>
<totfact> 0.28172447E+03</totfact>
</mgrwt>
</event>
<event>
 6    1  0.1280499E-001  0.3000000E+03  0.7818608E-02  0.1093470E+00
         21   -1    0    0  501  502  0.00000000000E+00  0.00000000000E+00  0.15020526361E+01  0.15020526361E+01  0.00000000000E+00 0. -1.
         13   -1    0    0    0    0 -0.00000000000E+00 -0.00000000000E+00 -0.10000000000E+04  0.10000000000E+04  0.00000000000E+00 0.  1.
    9000005    2    1    2  501    0  0.62965865495E+01 -0.30310897014E+02 -0.79992399512E+03  0.80052938785E+03  0.32411986636E+01 0.  0.
         13    1    3    3    0    0  0.34438252986E+01 -0.21733238376E+02 -0.53951676892E+03  0.53996531141E+03  0.00000000000E+00 0.  1.
          1    1    3    3  501    0  0.28527612509E+01 -0.85776586380E+01 -0.26040722619E+03  0.26056407643E+03  0.00000000000E+00 0.  1.
         -1    1    1    2    0  502 -0.62965865495E+01  0.30310897014E+02 -0.19857395225E+03  0.20097266479E+03  0.00000000000E+00 0. -1.
<mgrwt>
<rscale>  1 0.30000000E+03</rscale>
<asrwt>0</asrwt>
<pdfrwt beam="1">  1       21 0.54620211E-02 0.30000000E+03</pdfrwt>
<pdfrwt beam="2">0</pdfrwt>
<totfact> 0.24766594E+04</totfact>
</mgrwt>
</event>
<event>
 6    1  0.1280499E-001  0.3000000E+03  0.7818608E-02  0.1093470E+00
         21   -1    0    0  501  502  0.00000000000E+00  0.00000000000E+00  0.20011325931E+01  0.20011325931E+01  0.00000000000E+00 0. -1.
         13   -1    0    0    0    0 -0.00000000000E+00 -0.00000000000E+00 -0.10000000000E+04  0.10000000000E+04  0.00000000000E+00 0.  1.
    9000005    2    1    2  501    0 -0.66810708910E+01 -0.33279911219E+02 -0.82513034837E+03  0.82583157202E+03  0.23461335382E+01 0.  0.
         13    1    3    3    0    0 -0.46640919046E+01 -0.22640591213E+02 -0.53480234484E+03  0.53530168893E+03  0.00000000000E+00 0.  1.
          1    1    3    3  501    0 -0.20169789863E+01 -0.10639320006E+02 -0.29032800353E+03  0.29052988309E+03  0.00000000000E+00 0.  1.
         -3    1    1    2    0  502  0.66810708910E+01  0.33279911219E+02 -0.17286851904E+03  0.17616956057E+03  0.00000000000E+00 0. -1.
<mgrwt>
<rscale>  1 0.30000000E+03</rscale>
<asrwt>0</asrwt>
<pdfrwt beam="1">  1       21 0.72768611E-02 0.30000000E+03</pdfrwt>
<pdfrwt beam="2">0</pdfrwt>
<totfact> 0.15080317E+04</totfact>
</mgrwt>
</event>
<event>
 6    1  0.1280499E-001  0.3000000E+03  0.7818608E-02  0.1093470E+00
         21   -1    0    0  501  502  0.00000000000E+00  0.00000000000E+00  0.75040779731E+01  0.75040779731E+01  0.00000000000E+00 0. -1.
         13   -1    0    0    0    0 -0.00000000000E+00 -0.00000000000E+00 -0.10000000000E+04  0.10000000000E+04  0.00000000000E+00 0.  1.
    9000005    2    1    2  501    0 -0.13489483448E+02 -0.31649042586E+02 -0.95855028025E+03  0.95917257007E+03  0.31227153033E+01 0.  0.
         13    1    3    3    0    0 -0.33119315639E+01 -0.90819954541E+01 -0.30696170289E+03  0.30711388535E+03  0.00000000000E+00 0.  1.
          1    1    3    3  501    0 -0.10177551884E+02 -0.22567047132E+02 -0.65158857736E+03  0.65205868472E+03  0.00000000000E+00 0.  1.
         -3    1    1    2    0  502  0.13489483448E+02  0.31649042586E+02 -0.33945641775E+02  0.48331507899E+02  0.00000000000E+00 0. -1.
<mgrwt>
<rscale>  1 0.30000000E+03</rscale>
<asrwt>0</asrwt>
<pdfrwt beam="1">  1       21 0.27287614E-01 0.30000000E+03</pdfrwt>
<pdfrwt beam="2">0</pdfrwt>
<totfact> 0.13127012E+03</totfact>
</mgrwt>
</event>
<event>
 6    1  0.1280499E-001  0.3000000E+03  0.7818608E-02  0.1093470E+00
         21   -1    0    0  501  502  0.00000000000E+00  0.00000000000E+00  0.23987779075E+01  0.23987779075E+01  0.00000000000E+00 0. -1.
         13   -1    0    0    0    0 -0.00000000000E+00 -0.00000000000E+00 -0.10000000000E+04  0.10000000000E+04  0.00000000000E+00 0.  1.
    9000005    2    1    2  501    0  0.47052317635E+02  0.79771883418E+00 -0.63590764583E+03  0.63765667716E+03  0.35981867578E+01 0.  0.
         13    1    3    3    0    0  0.47896998243E+01 -0.44079822966E+00 -0.53116592290E+02  0.53333928263E+02  0.00000000000E+00 0.  1.
          1    1    3    3  501    0  0.42262617811E+02  0.12385170638E+01 -0.58279105354E+03  0.58432274890E+03  0.00000000000E+00 0.  1.
         -1    1    1    2    0  502 -0.47052317635E+02 -0.79771883418E+00 -0.36169357626E+03  0.36474210075E+03  0.00000000000E+00 0. -1.
<mgrwt>
<rscale>  1 0.30000000E+03</rscale>
<asrwt>0</asrwt>
<pdfrwt beam="1">  1       21 0.87228471E-02 0.30000000E+03</pdfrwt>
<pdfrwt beam="2">0</pdfrwt>
<totfact> 0.10968596E+04</totfact>
</mgrwt>
</event>
<event>
 6    1  0.1280499E-001  0.3000000E+03  0.7818608E-02  0.1093470E+00
         21   -1    0    0  501  502  0.00000000000E+00  0.00000000000E+00  0.58941162411E+01  0.58941162411E+01  0.00000000000E+00 0. -1.
         13   -1    0    0    0    0 -0.00000000000E+00 -0.00000000000E+00 -0.10000000000E+04  0.10000000000E+04  0.00000000000E+00 0.  1.
    9000005    2    1    2  501    0 -0.75947308115E+02  0.47992059088E+01 -0.43275201447E+03  0.43940564102E+03  0.34619863111E+01 0.  0.
         13    1    3    3    0    0 -0.23056153859E+02  0.22405009498E+01 -0.13983722914E+03  0.14174292480E+03  0.00000000000E+00 0.  1.
          1    1    3    3  501    0 -0.52891154257E+02  0.25587049590E+01 -0.29291478532E+03  0.29766271622E+03  0.00000000000E+00 0.  1.
         -1    1    1    2    0  502  0.75947308115E+02 -0.47992059088E+01 -0.56135386929E+03  0.56648847522E+03  0.00000000000E+00 0. -1.
<mgrwt>
<rscale>  1 0.30000000E+03</rscale>
<asrwt>0</asrwt>
<pdfrwt beam="1">  1       21 0.21433195E-01 0.30000000E+03</pdfrwt>
<pdfrwt beam="2">0</pdfrwt>
<totfact> 0.21014626E+03</totfact>
</mgrwt>
</event>
<event>
 6    1  0.1280499E-001  0.3000000E+03  0.7818608E-02  0.1093470E+00
         21   -1    0    0  501  502  0.00000000000E+00  0.00000000000E+00  0.26922189140E+01  0.26922189140E+01  0.00000000000E+00 0. -1.
         13   -1    0    0    0    0 -0.00000000000E+00 -0.00000000000E+00 -0.10000000000E+04  0.10000000000E+04  0.00000000000E+00 0.  1.
    9000005    2    1    2  501    0 -0.22261317760E+02 -0.26245946755E+02 -0.12439114006E+03  0.12909741686E+03  0.29276826866E+01 0.  0.
         13    1    3    3    0    0 -0.31717373242E+01 -0.24510999218E+01 -0.12931194214E+02  0.13538227073E+02  0.00000000000E+00 0.  1.
          1    1    3    3  501    0 -0.19089580436E+02 -0.23794846833E+02 -0.11145994584E+03  0.11555918979E+03  0.00000000000E+00 0.  1.
         -3    1    1    2    0  502  0.22261317760E+02  0.26245946755E+02 -0.87291664103E+03  0.87359480205E+03  0.00000000000E+00 0. -1.
<mgrwt>
<rscale>  1 0.30000000E+03</rscale>
<asrwt>0</asrwt>
<pdfrwt beam="1">  1       21 0.97899076E-02 0.30000000E+03</pdfrwt>
<pdfrwt beam="2">0</pdfrwt>
<totfact> 0.89356660E+03</totfact>
</mgrwt>
</event>
<event>
 6    1  0.1280499E-001  0.3000000E+03  0.7818608E-02  0.1093470E+00
         21   -1    0    0  501  502  0.00000000000E+00  0.00000000000E+00  0.10681020635E+01  0.10681020635E+01  0.00000000000E+00 0. -1.
         13   -1    0    0    0    0 -0.00000000000E+00 -0.00000000000E+00 -0.10000000000E+04  0.10000000000E+04  0.00000000000E+00 0.  1.
    9000005    2    1    2  501    0  0.20469970433E+02  0.22408612823E+02 -0.68295155715E+03  0.68363347670E+03  0.32764963966E+01 0.  0.
         13    1    3    3    0    0  0.39756280698E+01  0.48396960698E+01 -0.17189787834E+03  0.17201194393E+03  0.00000000000E+00 0.  1.
          1    1    3    3  501    0  0.16494342363E+02  0.17568916753E+02 -0.51105367881E+03  0.51162153277E+03  0.00000000000E+00 0.  1.
         -1    1    1    2    0  502 -0.20469970433E+02 -0.22408612823E+02 -0.31598034078E+03  0.31743462536E+03  0.00000000000E+00 0. -1.
<mgrwt>
<rscale>  1 0.30000000E+03</rscale>
<asrwt>0</asrwt>
<pdfrwt beam="1">  1       21 0.38840157E-02 0.30000000E+03</pdfrwt>
<pdfrwt beam="2">0</pdfrwt>
<totfact> 0.44181791E+04</totfact>
</mgrwt>
</event>
<event>
 6    1  0.1280499E-001  0.3000000E+03  0.7818608E-02  0.1093470E+00
         21   -1    0    0  501  502  0.00000000000E+00  0.00000000000E+00  0.15668043763E+01  0.15668043763E+01  0.00000000000E+00 0. -1.
         13   -1    0    0    0    0 -0.00000000000E+00 -0.00000000000E+00 -0.10000000000E+04  0.10000000000E+04  0.00000000000E+00 0.  1.
    9000005    2    1    2  501    0 -0.21384142240E+02  0.27439325370E+02 -0.73732497445E+03  0.73815135062E+03  0.30166786614E+01 0.  0.
         13    1    3    3    0    0 -0.12015627917E+02  0.17793797424E+02 -0.45029661577E+03  0.45080820391E+03  0.00000000000E+00 0.  1.
          3    1    3    3  501    0 -0.93685143228E+01  0.96455279460E+01 -0.28702835868E+03  0.28734314671E+03  0.00000000000E+00 0.  1.
         -3    1    1    2    0  502  0.21384142240E+02 -0.27439325370E+02 -0.26110822117E+03  0.26341545376E+03  0.00000000000E+00 0. -1.
<mgrwt>
<rscale>  1 0.30000000E+03</rscale>
<asrwt>0</asrwt>
<pdfrwt beam="1">  1       21 0.56974825E-02 0.30000000E+03</pdfrwt>
<pdfrwt beam="2">0</pdfrwt>
<totfact> 0.23035752E+04</totfact>
</mgrwt>
</event>
<event>
 6    1  0.1280499E-001  0.3000000E+03  0.7818608E-02  0.1093470E+00
         21   -1    0    0  501  502  0.00000000000E+00  0.00000000000E+00  0.78959968942E+01  0.78959968942E+01  0.00000000000E+00 0. -1.
         13   -1    0    0    0    0 -0.00000000000E+00 -0.00000000000E+00 -0.10000000000E+04  0.10000000000E+04  0.00000000000E+00 0.  1.
    9000005    2    1    2  501    0 -0.15704348597E+02 -0.29796320609E+02 -0.96234427653E+03  0.96295060099E+03  0.57363841190E+01 0.  0.
         13    1    3    3    0    0 -0.29165573585E+01 -0.23243358519E+01 -0.81572673391E+02  0.81657883197E+02  0.00000000000E+00 0.  1.
          3    1    3    3  501    0 -0.12787791238E+02 -0.27471984757E+02 -0.88077160313E+03  0.88129271780E+03  0.00000000000E+00 0.  1.
         -3    1    1    2    0  502  0.15704348597E+02  0.29796320609E+02 -0.29759726580E+02  0.44945395902E+02  0.00000000000E+00 0. -1.
<mgrwt>
<rscale>  1 0.30000000E+03</rscale>
<asrwt>0</asrwt>
<pdfrwt beam="1">  1       21 0.28712777E-01 0.30000000E+03</pdfrwt>
<pdfrwt beam="2">0</pdfrwt>
<totfact> 0.11866628E+03</totfact>
</mgrwt>
</event>
<event>
 6    1  0.1280499E-001  0.3000000E+03  0.7818608E-02  0.1093470E+00
         21   -1    0    0  501  502  0.00000000000E+00  0.00000000000E+00  0.42129825463E+01  0.42129825463E+01  0.00000000000E+00 0. -1.
         13   -1    0    0    0    0 -0.00000000000E+00 -0.00000000000E+00 -0.10000000000E+04  0.10000000000E+04  0.00000000000E+00 0.  1.
    9000005    2    1    2  501    0 -0.16136554203E+02 -0.56972772354E+02 -0.29320945067E+03  0.29914453018E+03  0.30631363974E+01 0.  0.
         13    1    3    3    0    0 -0.21275565833E+01 -0.44617569622E+01 -0.23704300757E+02  0.24214203406E+02  0.00000000000E+00 0.  1.
          3    1    3    3  501    0 -0.14008997620E+02 -0.52511015392E+02 -0.26950514991E+03  0.27493032677E+03  0.00000000000E+00 0.  1.
         -1    1    1    2    0  502  0.16136554203E+02  0.56972772354E+02 -0.70257756679E+03  0.70506845237E+03  0.00000000000E+00 0. -1.
<mgrwt>
<rscale>  1 0.30000000E+03</rscale>
<asrwt>0</asrwt>
<pdfrwt beam="1">  1       21 0.15319969E-01 0.30000000E+03</pdfrwt>
<pdfrwt beam="2">0</pdfrwt>
<totfact> 0.39600599E+03</totfact>
</mgrwt>
</event>
<event>
 6    1  0.1280499E-001  0.3000000E+03  0.7818608E-02  0.1093470E+00
         21   -1    0    0  501  502  0.00000000000E+00  0.00000000000E+00  0.47389826121E+01  0.47389826121E+01  0.00000000000E+00 0. -1.
         13   -1    0    0    0    0 -0.00000000000E+00 -0.00000000000E+00 -0.10000000000E+04  0.10000000000E+04  0.00000000000E+00 0.  1.
    9000005    2    1    2  501    0 -0.43537158667E+02 -0.51195838954E+02 -0.60538045505E+03  0.60910866148E+03  0.33716496061E+01 0.  0.
         13    1    3    3    0    0 -0.14438018820E+02 -0.14905107224E+02 -0.19396408119E+03  0.19507097016E+03  0.00000000000E+00 0.  1.
          1    1    3    3  501    0 -0.29099139847E+02 -0.36290731731E+02 -0.41141637386E+03  0.41403769132E+03  0.00000000000E+00 0.  1.
         -3    1    1    2    0  502  0.43537158667E+02  0.51195838954E+02 -0.38988056234E+03  0.39563032113E+03  0.00000000000E+00 0. -1.
<mgrwt>
<rscale>  1 0.30000000E+03</rscale>
<asrwt>0</asrwt>
<pdfrwt beam="1">  1       21 0.17232700E-01 0.30000000E+03</pdfrwt>
<pdfrwt beam="2">0</pdfrwt>
<totfact> 0.31794701E+03</totfact>
</mgrwt>
</event>
<event>
 6    1  0.1280499E-001  0.3000000E+03  0.7818608E-02  0.1093470E+00
         21   -1    0    0  501  502  0.00000000000E+00  0.00000000000E+00  0.13148962251E+01  0.13148962251E+01  0.00000000000E+00 0. -1.
         13   -1    0    0    0    0 -0.00000000000E+00 -0.00000000000E+00 -0.10000000000E+04  0.10000000000E+04  0.00000000000E+00 0.  1.
    9000005    2    1    2  501    0  0.32563774472E+02  0.58057282933E+01 -0.69813284466E+03  0.69894795632E+03  0.66836338110E+01 0.  0.
         13    1    3    3    0    0  0.90630509818E+01 -0.90878046927E+00 -0.15787064467E+03  0.15813318824E+03  0.00000000000E+00 0.  1.
          3    1    3    3  501    0  0.23500723491E+02  0.67145087626E+01 -0.54026219999E+03  0.54081476807E+03  0.00000000000E+00 0.  1.
         -1    1    1    2    0  502 -0.32563774472E+02 -0.58057282933E+01 -0.30055225911E+03  0.30236693991E+03  0.00000000000E+00 0. -1.
<mgrwt>
<rscale>  1 0.30000000E+03</rscale>
<asrwt>0</asrwt>
<pdfrwt beam="1">  1       21 0.47814509E-02 0.30000000E+03</pdfrwt>
<pdfrwt beam="2">0</pdfrwt>
<totfact> 0.31082638E+04</totfact>
</mgrwt>
</event>
<event>
 6    1  0.1280499E-001  0.3000000E+03  0.7818608E-02  0.1093470E+00
         21   -1    0    0  501  502  0.00000000000E+00  0.00000000000E+00  0.64125434458E+01  0.64125434458E+01  0.00000000000E+00 0. -1.
         13   -1    0    0    0    0 -0.00000000000E+00 -0.00000000000E+00 -0.10000000000E+04  0.10000000000E+04  0.00000000000E+00 0.  1.
    9000005    2    1    2  501    0  0.50917161304E+02 -0.18147918479E+02 -0.86797946630E+03  0.86966726391E+03  0.33002625597E+01 0.  0.
         13    1    3    3    0    0  0.38829823131E+02 -0.15310856680E+02 -0.66957975651E+03  0.67087944358E+03  0.00000000000E+00 0.  1.
          1    1    3    3  501    0  0.12087338173E+02 -0.28370617988E+01 -0.19839970980E+03  0.19878782033E+03  0.00000000000E+00 0.  1.
         -3    1    1    2    0  502 -0.50917161304E+02  0.18147918479E+02 -0.12560799025E+03  0.13674527953E+03  0.00000000000E+00 0. -1.
<mgrwt>
<rscale>  1 0.30000000E+03</rscale>
<asrwt>0</asrwt>
<pdfrwt beam="1">  1       21 0.23318389E-01 0.30000000E+03</pdfrwt>
<pdfrwt beam="2">0</pdfrwt>
<totfact> 0.17860874E+03</totfact>
</mgrwt>
</event>
<event>
 6    1  0.1280499E-001  0.3000000E+03  0.7818608E-02  0.1093470E+00
         21   -1    0    0  501  502  0.00000000000E+00  0.00000000000E+00  0.11612161631E+01  0.11612161631E+01  0.00000000000E+00 0. -1.
         13   -1    0    0    0    0 -0.00000000000E+00 -0.00000000000E+00 -0.10000000000E+04  0.10000000000E+04  0.00000000000E+00 0.  1.
    9000005    2    1    2  501    0 -0.23500120923E+02 -0.24158446709E+02 -0.56502450256E+03  0.56603971949E+03  0.35198454067E+01 0.  0.
         13    1    3    3    0    0 -0.44517561656E+01 -0.66729426157E+01 -0.13895638367E+03  0.13918772524E+03  0.00000000000E+00 0.  1.
          1    1    3    3  501    0 -0.19048364758E+02 -0.17485504094E+02 -0.42606811890E+03  0.42685199425E+03  0.00000000000E+00 0.  1.
         -3    1    1    2    0  502  0.23500120923E+02  0.24158446709E+02 -0.43381428127E+03  0.43512149667E+03  0.00000000000E+00 0. -1.
<mgrwt>
<rscale>  1 0.30000000E+03</rscale>
<asrwt>0</asrwt>
<pdfrwt beam="1">  1       21 0.42226131E-02 0.30000000E+03</pdfrwt>
<pdfrwt beam="2">0</pdfrwt>
<totfact> 0.38376840E+04</totfact>
</mgrwt>
</event>
<event>
 6    1  0.1280499E-001  0.3000000E+03  0.7818608E-02  0.1093470E+00
         21   -1    0    0  501  502  0.00000000000E+00  0.00000000000E+00  0.16206321279E+01  0.16206321279E+01  0.00000000000E+00 0. -1.
         13   -1    0    0    0    0 -0.00000000000E+00 -0.00000000000E+00 -0.10000000000E+04  0.10000000000E+04  0.00000000000E+00 0.  1.
    9000005    2    1    2  501    0 -0.39598393219E+02  0.47542968509E+01 -0.43989544861E+03  0.44171445771E+03  0.36083725472E+01 0.  0.
         13    1    3    3    0    0 -0.13166934291E+02  0.96384453210E+00 -0.12859053931E+03  0.12926648427E+03  0.00000000000E+00 0.  1.
          3    1    3    3  501    0 -0.26431458928E+02  0.37904523188E+01 -0.31130490930E+03  0.31244797343E+03  0.00000000000E+00 0.  1.
         -3    1    1    2    0  502  0.39598393219E+02 -0.47542968509E+01 -0.55848391926E+03  0.55990617442E+03  0.00000000000E+00 0. -1.
<mgrwt>
<rscale>  1 0.30000000E+03</rscale>
<asrwt>0</asrwt>
<pdfrwt beam="1">  1       21 0.58932202E-02 0.30000000E+03</pdfrwt>
<pdfrwt beam="2">0</pdfrwt>
<totfact> 0.21734217E+04</totfact>
</mgrwt>
</event>
<event>
 6    1  0.1280499E-001  0.3000000E+03  0.7818608E-02  0.1093470E+00
         21   -1    0    0  501  502  0.00000000000E+00  0.00000000000E+00  0.21768553665E+01  0.21768553665E+01  0.00000000000E+00 0. -1.
         13   -1    0    0    0    0 -0.00000000000E+00 -0.00000000000E+00 -0.10000000000E+04  0.10000000000E+04  0.00000000000E+00 0.  1.
    9000005    2    1    2  501    0  0.39524775791E+02  0.11321227986E+02 -0.73460943284E+03  0.73577145718E+03  0.42708646965E+01 0.  0.
         13    1    3    3    0    0  0.39360185106E+01  0.23381419037E+01 -0.70542875969E+02  0.70691275977E+02  0.00000000000E+00 0.  1.
          3    1    3    3  501    0  0.35588757280E+02  0.89830860826E+01 -0.66406655687E+03  0.66508018121E+03  0.00000000000E+00 0.  1.
         -3    1    1    2    0  502 -0.39524775791E+02 -0.11321227986E+02 -0.26321371179E+03  0.26640539818E+03  0.00000000000E+00 0. -1.
<mgrwt>
<rscale>  1 0.30000000E+03</rscale>
<asrwt>0</asrwt>
<pdfrwt beam="1">  1       21 0.79158544E-02 0.30000000E+03</pdfrwt>
<pdfrwt beam="2">0</pdfrwt>
<totfact> 0.13013258E+04</totfact>
</mgrwt>
</event>
<event>
 6    1  0.1280499E-001  0.3000000E+03  0.7818608E-02  0.1093470E+00
         21   -1    0    0  501  502  0.00000000000E+00  0.00000000000E+00  0.26476628276E+01  0.26476628276E+01  0.00000000000E+00 0. -1.
         13   -1    0    0    0    0 -0.00000000000E+00 -0.00000000000E+00 -0.10000000000E+04  0.10000000000E+04  0.00000000000E+00 0.  1.
    9000005    2    1    2  501    0  0.39712139444E+02  0.61944177601E+01 -0.81126281101E+03  0.81226715811E+03  0.38939413601E+01 0.  0.
         13    1    3    3    0    0  0.22157382281E+02  0.50290582132E+01 -0.48011243030E+03  0.48064975475E+03  0.00000000000E+00 0.  1.
          3    1    3    3  501    0  0.17554757163E+02  0.11653595468E+01 -0.33115038071E+03  0.33161740336E+03  0.00000000000E+00 0.  1.
         -3    1    1    2    0  502 -0.39712139444E+02 -0.61944177601E+01 -0.18608952616E+03  0.19038050472E+03  0.00000000000E+00 0. -1.
<mgrwt>
<rscale>  1 0.30000000E+03</rscale>
<asrwt>0</asrwt>
<pdfrwt beam="1">  1       21 0.96278851E-02 0.30000000E+03</pdfrwt>
<pdfrwt beam="2">0</pdfrwt>
<totfact> 0.92056811E+03</totfact>
</mgrwt>
</event>
<event>
 6    1  0.1280499E-001  0.3000000E+03  0.7818608E-02  0.1093470E+00
         21   -1    0    0  501  502  0.00000000000E+00  0.00000000000E+00  0.29077088619E+01  0.29077088619E+01  0.00000000000E+00 0. -1.
         13   -1    0    0    0    0 -0.00000000000E+00 -0.00000000000E+00 -0.10000000000E+04  0.10000000000E+04  0.00000000000E+00 0.  1.
    9000005    2    1    2  501    0 -0.40866138106E+02 -0.11287318047E+01 -0.82527531385E+03  0.82629403736E+03  0.33432374635E+01 0.  0.
         13    1    3    3    0    0 -0.25670363587E+02 -0.18757830638E+01 -0.54086303943E+03  0.54147512736E+03  0.00000000000E+00 0.  1.
          1    1    3    3  501    0 -0.15195774519E+02  0.74705125911E+00 -0.28441227443E+03  0.28481891000E+03  0.00000000000E+00 0.  1.
         -3    1    1    2    0  502  0.40866138106E+02  0.11287318047E+01 -0.17181697728E+03  0.17661367150E+03  0.00000000000E+00 0. -1.
<mgrwt>
<rscale>  1 0.30000000E+03</rscale>
<asrwt>0</asrwt>
<pdfrwt beam="1">  1       21 0.10573509E-01 0.30000000E+03</pdfrwt>
<pdfrwt beam="2">0</pdfrwt>
<totfact> 0.77858643E+03</totfact>
</mgrwt>
</event>
<event>
 6    1  0.1280499E-001  0.3000000E+03  0.7818608E-02  0.1093470E+00
         21   -1    0    0  501  502  0.00000000000E+00  0.00000000000E+00  0.21057263922E+01  0.21057263922E+01  0.00000000000E+00 0. -1.
         13   -1    0    0    0    0 -0.00000000000E+00 -0.00000000000E+00 -0.10000000000E+04  0.10000000000E+04  0.00000000000E+00 0.  1.
    9000005    2    1    2  501    0  0.30007359430E+02 -0.21832835955E+02 -0.79325125308E+03  0.79412524606E+03  0.32002470813E+01 0.  0.
         13    1    3    3    0    0  0.27023924776E+02 -0.18449849346E+02 -0.70431993102E+03  0.70507960875E+03  0.00000000000E+00 0.  1.
          1    1    3    3  501    0  0.29834346542E+01 -0.33829866092E+01 -0.88931322060E+02  0.89045637310E+02  0.00000000000E+00 0.  1.
         -3    1    1    2    0  502 -0.30007359430E+02  0.21832835955E+02 -0.20464302053E+03  0.20798048033E+03  0.00000000000E+00 0. -1.
<mgrwt>
<rscale>  1 0.30000000E+03</rscale>
<asrwt>0</asrwt>
<pdfrwt beam="1">  1       21 0.76572030E-02 0.30000000E+03</pdfrwt>
<pdfrwt beam="2">0</pdfrwt>
<totfact> 0.13794024E+04</totfact>
</mgrwt>
</event>
<event>
 6    1  0.1280499E-001  0.3000000E+03  0.7818608E-02  0.1093470E+00
         21   -1    0    0  501  502  0.00000000000E+00  0.00000000000E+00  0.15890156648E+01  0.15890156648E+01  0.00000000000E+00 0. -1.
         13   -1    0    0    0    0 -0.00000000000E+00 -0.00000000000E+00 -0.10000000000E+04  0.10000000000E+04  0.00000000000E+00 0.  1.
    9000005    2    1    2  501    0  0.45834858035E+01  0.34045498498E+02 -0.74353653172E+03  0.74440991289E+03  0.10928865041E+02 0.  0.
         13    1    3    3    0    0  0.78642204308E+01  0.19725333420E+02 -0.46921225851E+03  0.46969253590E+03  0.00000000000E+00 0.  1.
          1    1    3    3  501    0 -0.32807346274E+01  0.14320165078E+02 -0.27432427321E+03  0.27471737699E+03  0.00000000000E+00 0.  1.
         -1    1    1    2    0  502 -0.45834858035E+01 -0.34045498498E+02 -0.25487445261E+03  0.25717910278E+03  0.00000000000E+00 0. -1.
<mgrwt>
<rscale>  1 0.30000000E+03</rscale>
<asrwt>0</asrwt>
<pdfrwt beam="1">  1       21 0.57782510E-02 0.30000000E+03</pdfrwt>
<pdfrwt beam="2">0</pdfrwt>
<totfact> 0.22484552E+04</totfact>
</mgrwt>
</event>
<event>
 6    1  0.1280499E-001  0.3000000E+03  0.7818608E-02  0.1093470E+00
         21   -1    0    0  501  502  0.00000000000E+00  0.00000000000E+00  0.10276328778E+01  0.10276328778E+01  0.00000000000E+00 0. -1.
         13   -1    0    0    0    0 -0.00000000000E+00 -0.00000000000E+00 -0.10000000000E+04  0.10000000000E+04  0.00000000000E+00 0.  1.
    9000005    2    1    2  501    0  0.19943912641E+02  0.24398731388E+02 -0.58215036787E+03  0.58301610576E+03  0.39586635182E+01 0.  0.
         13    1    3    3    0    0  0.16588891693E+02  0.17776067945E+02 -0.43651157687E+03  0.43718821652E+03  0.00000000000E+00 0.  1.
          1    1    3    3  501    0  0.33550209487E+01  0.66226634422E+01 -0.14563879100E+03  0.14582788924E+03  0.00000000000E+00 0.  1.
         -3    1    1    2    0  502 -0.19943912641E+02 -0.24398731388E+02 -0.41682199925E+03  0.41801152712E+03  0.00000000000E+00 0. -1.
<mgrwt>
<rscale>  1 0.30000000E+03</rscale>
<asrwt>0</asrwt>
<pdfrwt beam="1">  1       21 0.37368547E-02 0.30000000E+03</pdfrwt>
<pdfrwt beam="2">0</pdfrwt>
<totfact> 0.47144444E+04</totfact>
</mgrwt>
</event>
<event>
 6    1  0.1280499E-001  0.3000000E+03  0.7818608E-02  0.1093470E+00
         21   -1    0    0  501  502  0.00000000000E+00  0.00000000000E+00  0.37745045381E+01  0.37745045381E+01  0.00000000000E+00 0. -1.
         13   -1    0    0    0    0 -0.00000000000E+00 -0.00000000000E+00 -0.10000000000E+04  0.10000000000E+04  0.00000000000E+00 0.  1.
    9000005    2    1    2  501    0  0.23915493490E+02  0.22965625195E+02 -0.92055874896E+03  0.92116199159E+03  0.34108200168E+01 0.  0.
         13    1    3    3    0    0  0.22085776208E+02  0.19732512479E+02 -0.81803761571E+03  0.81857357291E+03  0.00000000000E+00 0.  1.
          3    1    3    3  501    0  0.18297172825E+01  0.32331127164E+01 -0.10252113325E+03  0.10258841868E+03  0.00000000000E+00 0.  1.
         -3    1    1    2    0  502 -0.23915493490E+02 -0.22965625195E+02 -0.75666746502E+02  0.82612512949E+02  0.00000000000E+00 0. -1.
<mgrwt>
<rscale>  1 0.30000000E+03</rscale>
<asrwt>0</asrwt>
<pdfrwt beam="1">  1       21 0.13725500E-01 0.30000000E+03</pdfrwt>
<pdfrwt beam="2">0</pdfrwt>
<totfact> 0.48498005E+03</totfact>
</mgrwt>
</event>
<event>
 6    1  0.1280499E-001  0.3000000E+03  0.7818608E-02  0.1093470E+00
         21   -1    0    0  501  502  0.00000000000E+00  0.00000000000E+00  0.72623845264E+01  0.72623845264E+01  0.00000000000E+00 0. -1.
         13   -1    0    0    0    0 -0.00000000000E+00 -0.00000000000E+00 -0.10000000000E+04  0.10000000000E+04  0.00000000000E+00 0.  1.
    9000005    2    1    2  501    0  0.12559618653E+02  0.46795309770E+02 -0.91059910029E+03  0.91189844630E+03  0.45287837287E+01 0.  0.
         13    1    3    3    0    0  0.82362711284E+01  0.25171061673E+02 -0.46398584037E+03  0.46474108767E+03  0.00000000000E+00 0.  1.
          3    1    3    3  501    0  0.43233475246E+01  0.21624248097E+02 -0.44661325992E+03  0.44715735863E+03  0.00000000000E+00 0.  1.
         -1    1    1    2    0  502 -0.12559618653E+02 -0.46795309770E+02 -0.82138515188E+02  0.95363938229E+02  0.00000000000E+00 0. -1.
<mgrwt>
<rscale>  1 0.30000000E+03</rscale>
<asrwt>0</asrwt>
<pdfrwt beam="1">  1       21 0.26408727E-01 0.30000000E+03</pdfrwt>
<pdfrwt beam="2">0</pdfrwt>
<totfact> 0.14003332E+03</totfact>
</mgrwt>
</event>
<event>
 6    1  0.1280499E-001  0.3000000E+03  0.7818608E-02  0.1093470E+00
         21   -1    0    0  501  502  0.00000000000E+00  0.00000000000E+00  0.19140908082E+01  0.19140908082E+01  0.00000000000E+00 0. -1.
         13   -1    0    0    0    0 -0.00000000000E+00 -0.00000000000E+00 -0.10000000000E+04  0.10000000000E+04  0.00000000000E+00 0.  1.
    9000005    2    1    2  501    0 -0.30561514473E+02 -0.16265621885E+02 -0.19460639169E+03  0.19768905286E+03  0.32767836184E+01 0.  0.
         13    1    3    3    0    0 -0.14392164634E+02 -0.82154411315E+01 -0.10202718666E+03  0.10336428152E+03  0.00000000000E+00 0.  1.
          3    1    3    3  501    0 -0.16169349839E+02 -0.80501807532E+01 -0.92579205030E+02  0.94324771340E+02  0.00000000000E+00 0.  1.
         -1    1    1    2    0  502  0.30561514473E+02  0.16265621885E+02 -0.80347951750E+03  0.80422503795E+03  0.00000000000E+00 0. -1.
<mgrwt>
<rscale>  1 0.30000000E+03</rscale>
<asrwt>0</asrwt>
<pdfrwt beam="1">  1       21 0.69603449E-02 0.30000000E+03</pdfrwt>
<pdfrwt beam="2">0</pdfrwt>
<totfact> 0.16295571E+04</totfact>
</mgrwt>
</event>
<event>
 6    1  0.1280499E-001  0.3000000E+03  0.7818608E-02  0.1093470E+00
         21   -1    0    0  501  502  0.00000000000E+00  0.00000000000E+00  0.10304160872E+02  0.10304160872E+02  0.00000000000E+00 0. -1.
         13   -1    0    0    0    0 -0.00000000000E+00 -0.00000000000E+00 -0.10000000000E+04  0.10000000000E+04  0.00000000000E+00 0.  1.
    9000005    2    1    2  501    0  0.21689515220E+02 -0.47811763057E+02 -0.92716589329E+03  0.92865617324E+03  0.30487155668E+01 0.  0.
         13    1    3    3    0    0  0.20688302494E+02 -0.45940741862E+02 -0.89874196068E+03  0.90015313670E+03  0.00000000000E+00 0.  1.
          3    1    3    3  501    0  0.10012127260E+01 -0.18710211950E+01 -0.28423932606E+02  0.28503036540E+02  0.00000000000E+00 0.  1.
         -3    1    1    2    0  502 -0.21689515220E+02  0.47811763057E+02 -0.62529945840E+02  0.81647987629E+02  0.00000000000E+00 0. -1.
<mgrwt>
<rscale>  1 0.30000000E+03</rscale>
<asrwt>0</asrwt>
<pdfrwt beam="1">  1       21 0.37469755E-01 0.30000000E+03</pdfrwt>
<pdfrwt beam="2">0</pdfrwt>
<totfact> 0.69176397E+02</totfact>
</mgrwt>
</event>
<event>
 6    1  0.1280499E-001  0.3000000E+03  0.7818608E-02  0.1093470E+00
         21   -1    0    0  501  502  0.00000000000E+00  0.00000000000E+00  0.25543895736E+01  0.25543895736E+01  0.00000000000E+00 0. -1.
         13   -1    0    0    0    0 -0.00000000000E+00 -0.00000000000E+00 -0.10000000000E+04  0.10000000000E+04  0.00000000000E+00 0.  1.
    9000005    2    1    2  501    0  0.40027214285E+02 -0.27720976571E+02 -0.36700192907E+03  0.37023337475E+03  0.34213173149E+01 0.  0.
         13    1    3    3    0    0  0.11445200276E+02 -0.71334981485E+01 -0.91427004972E+02  0.92416322386E+02  0.00000000000E+00 0.  1.
          1    1    3    3  501    0  0.28582014009E+02 -0.20587478423E+02 -0.27557492410E+03  0.27781705236E+03  0.00000000000E+00 0.  1.
         -1    1    1    2    0  502 -0.40027214285E+02  0.27720976571E+02 -0.63044368136E+03  0.63232101482E+03  0.00000000000E+00 0. -1.
<mgrwt>
<rscale>  1 0.30000000E+03</rscale>
<asrwt>0</asrwt>
<pdfrwt beam="1">  1       21 0.92887089E-02 0.30000000E+03</pdfrwt>
<pdfrwt beam="2">0</pdfrwt>
<totfact> 0.98126535E+03</totfact>
</mgrwt>
</event>
<event>
 6    1  0.1280499E-001  0.3000000E+03  0.7818608E-02  0.1093470E+00
         21   -1    0    0  501  502  0.00000000000E+00  0.00000000000E+00  0.24531080293E+01  0.24531080293E+01  0.00000000000E+00 0. -1.
         13   -1    0    0    0    0 -0.00000000000E+00 -0.00000000000E+00 -0.10000000000E+04  0.10000000000E+04  0.00000000000E+00 0.  1.
    9000005    2    1    2  501    0  0.47705254752E+02  0.57181281324E+01 -0.38058669697E+03  0.38362488426E+03  0.36509712801E+01 0.  0.
         13    1    3    3    0    0  0.24999146292E+02  0.40336884868E+01 -0.18838454156E+03  0.19007883485E+03  0.00000000000E+00 0.  1.
          3    1    3    3  501    0  0.22706108461E+02  0.16844396457E+01 -0.19220215541E+03  0.19354604941E+03  0.00000000000E+00 0.  1.
         -3    1    1    2    0  502 -0.47705254752E+02 -0.57181281324E+01 -0.61696019500E+03  0.61882822377E+03  0.00000000000E+00 0. -1.
<mgrwt>
<rscale>  1 0.30000000E+03</rscale>
<asrwt>0</asrwt>
<pdfrwt beam="1">  1       21 0.89204116E-02 0.30000000E+03</pdfrwt>
<pdfrwt beam="2">0</pdfrwt>
<totfact> 0.10542632E+04</totfact>
</mgrwt>
</event>
<event>
 6    1  0.1280499E-001  0.3000000E+03  0.7818608E-02  0.1093470E+00
         21   -1    0    0  501  502  0.00000000000E+00  0.00000000000E+00  0.12467655694E+01  0.12467655694E+01  0.00000000000E+00 0. -1.
         13   -1    0    0    0    0 -0.00000000000E+00 -0.00000000000E+00 -0.10000000000E+04  0.10000000000E+04  0.00000000000E+00 0.  1.
    9000005    2    1    2  501    0 -0.34008661637E+01 -0.35084359830E+02 -0.50114515380E+03  0.50239179656E+03  0.29281187433E+01 0.  0.
         13    1    3    3    0    0 -0.10724910633E+01 -0.18263484409E+02 -0.27814385357E+03  0.27874488046E+03  0.00000000000E+00 0.  1.
          1    1    3    3  501    0 -0.23283751004E+01 -0.16820875421E+02 -0.22300130023E+03  0.22364691611E+03  0.00000000000E+00 0.  1.
         -1    1    1    2    0  502  0.34008661637E+01  0.35084359830E+02 -0.49760808063E+03  0.49885496901E+03  0.00000000000E+00 0. -1.
<mgrwt>
<rscale>  1 0.30000000E+03</rscale>
<asrwt>0</asrwt>
<pdfrwt beam="1">  1       21 0.45337025E-02 0.30000000E+03</pdfrwt>
<pdfrwt beam="2">0</pdfrwt>
<totfact> 0.34024516E+04</totfact>
</mgrwt>
</event>
<event>
 6    1  0.1280499E-001  0.3000000E+03  0.7818608E-02  0.1093470E+00
         21   -1    0    0  501  502  0.00000000000E+00  0.00000000000E+00  0.18970565046E+01  0.18970565046E+01  0.00000000000E+00 0. -1.
         13   -1    0    0    0    0 -0.00000000000E+00 -0.00000000000E+00 -0.10000000000E+04  0.10000000000E+04  0.00000000000E+00 0.  1.
    9000005    2    1    2  501    0  0.39782919850E+02  0.62608467773E+01 -0.31859809170E+03  0.32119982386E+03  0.65348220937E+01 0.  0.
         13    1    3    3    0    0  0.27883072436E+02  0.13203629720E+01 -0.21739799691E+03  0.21918279620E+03  0.00000000000E+00 0.  1.
          1    1    3    3  501    0  0.11899847414E+02  0.49404838053E+01 -0.10120009479E+03  0.10201702766E+03  0.00000000000E+00 0.  1.
         -1    1    1    2    0  502 -0.39782919850E+02 -0.62608467773E+01 -0.67950485179E+03  0.68069723264E+03  0.00000000000E+00 0. -1.
<mgrwt>
<rscale>  1 0.30000000E+03</rscale>
<asrwt>0</asrwt>
<pdfrwt beam="1">  1       21 0.68984018E-02 0.30000000E+03</pdfrwt>
<pdfrwt beam="2">0</pdfrwt>
<totfact> 0.16550862E+04</totfact>
</mgrwt>
</event>
<event>
 6    1  0.1280499E-001  0.3000000E+03  0.7818608E-02  0.1093470E+00
         21   -1    0    0  501  502  0.00000000000E+00  0.00000000000E+00  0.12951985668E+01  0.12951985668E+01  0.00000000000E+00 0. -1.
         13   -1    0    0    0    0 -0.00000000000E+00 -0.00000000000E+00 -0.10000000000E+04  0.10000000000E+04  0.00000000000E+00 0.  1.
    9000005    2    1    2  501    0 -0.27698219618E+02  0.12041930691E+02 -0.76872709539E+03  0.76934273632E+03  0.58906093976E+01 0.  0.
         13    1    3    3    0    0 -0.98863869977E+01  0.71146983640E+01 -0.33785040798E+03  0.33806990069E+03  0.00000000000E+00 0.  1.
          1    1    3    3  501    0 -0.17811832620E+02  0.49272323270E+01 -0.43087668741E+03  0.43127283563E+03  0.00000000000E+00 0.  1.
         -3    1    1    2    0  502  0.27698219618E+02 -0.12041930691E+02 -0.22997770605E+03  0.23195246225E+03  0.00000000000E+00 0. -1.
<mgrwt>
<rscale>  1 0.30000000E+03</rscale>
<asrwt>0</asrwt>
<pdfrwt beam="1">  1       21 0.47098229E-02 0.30000000E+03</pdfrwt>
<pdfrwt beam="2">0</pdfrwt>
<totfact> 0.31890923E+04</totfact>
</mgrwt>
</event>
<event>
 6    1  0.1280499E-001  0.3000000E+03  0.7818608E-02  0.1093470E+00
         21   -1    0    0  501  502  0.00000000000E+00  0.00000000000E+00  0.19944474819E+01  0.19944474819E+01  0.00000000000E+00 0. -1.
         13   -1    0    0    0    0 -0.00000000000E+00 -0.00000000000E+00 -0.10000000000E+04  0.10000000000E+04  0.00000000000E+00 0.  1.
    9000005    2    1    2  501    0  0.18493788446E+02  0.37276306294E+02 -0.67962580945E+03  0.68090691422E+03  0.33825635195E+01 0.  0.
         13    1    3    3    0    0  0.10437380337E+02  0.17304498176E+02 -0.32373674346E+03  0.32436686580E+03  0.00000000000E+00 0.  1.
          3    1    3    3  501    0  0.80564081089E+01  0.19971808119E+02 -0.35588906600E+03  0.35654004842E+03  0.00000000000E+00 0.  1.
         -1    1    1    2    0  502 -0.18493788446E+02 -0.37276306294E+02 -0.31837974306E+03  0.32108753326E+03  0.00000000000E+00 0. -1.
<mgrwt>
<rscale>  1 0.30000000E+03</rscale>
<asrwt>0</asrwt>
<pdfrwt beam="1">  1       21 0.72525516E-02 0.30000000E+03</pdfrwt>
<pdfrwt beam="2">0</pdfrwt>
<totfact> 0.15168681E+04</totfact>
</mgrwt>
</event>
<event>
 6    1  0.1280499E-001  0.3000000E+03  0.7818608E-02  0.1093470E+00
         21   -1    0    0  501  502  0.00000000000E+00  0.00000000000E+00  0.32121768823E+01  0.32121768823E+01  0.00000000000E+00 0. -1.
         13   -1    0    0    0    0 -0.00000000000E+00 -0.00000000000E+00 -0.10000000000E+04  0.10000000000E+04  0.00000000000E+00 0.  1.
    9000005    2    1    2  501    0 -0.15785703112E+01 -0.36665319581E+02 -0.88052096310E+03  0.88129080763E+03  0.30795444458E+01 0.  0.
         13    1    3    3    0    0 -0.20283493233E+01 -0.30074697797E+02 -0.69879892778E+03  0.69944874230E+03  0.00000000000E+00 0.  1.
          1    1    3    3  501    0  0.44977901209E+00 -0.65906217842E+01 -0.18172203533E+03  0.18184206532E+03  0.00000000000E+00 0.  1.
         -3    1    1    2    0  502  0.15785703112E+01  0.36665319581E+02 -0.11626686001E+03  0.12192136926E+03  0.00000000000E+00 0. -1.
<mgrwt>
<rscale>  1 0.30000000E+03</rscale>
<asrwt>0</asrwt>
<pdfrwt beam="1">  1       21 0.11680668E-01 0.30000000E+03</pdfrwt>
<pdfrwt beam="2">0</pdfrwt>
<totfact> 0.65075389E+03</totfact>
</mgrwt>
</event>
<event>
 6    1  0.1280499E-001  0.3000000E+03  0.7818608E-02  0.1093470E+00
         21   -1    0    0  501  502  0.00000000000E+00  0.00000000000E+00  0.13248406115E+01  0.13248406115E+01  0.00000000000E+00 0. -1.
         13   -1    0    0    0    0 -0.00000000000E+00 -0.00000000000E+00 -0.10000000000E+04  0.10000000000E+04  0.00000000000E+00 0.  1.
    9000005    2    1    2  501    0  0.25075023225E+02 -0.20784880086E+02 -0.72168684222E+03  0.72242827219E+03  0.31531246069E+01 0.  0.
         13    1    3    3    0    0  0.20632705995E+02 -0.16064596806E+02 -0.55565785457E+03  0.55627280284E+03  0.00000000000E+00 0.  1.
          3    1    3    3  501    0  0.44423172300E+01 -0.47202832802E+01 -0.16602898765E+03  0.16615546936E+03  0.00000000000E+00 0.  1.
         -1    1    1    2    0  502 -0.25075023225E+02  0.20784880086E+02 -0.27698831716E+03  0.27889656842E+03  0.00000000000E+00 0. -1.
<mgrwt>
<rscale>  1 0.30000000E+03</rscale>
<asrwt>0</asrwt>
<pdfrwt beam="1">  1       21 0.48176124E-02 0.30000000E+03</pdfrwt>
<pdfrwt beam="2">0</pdfrwt>
<totfact> 0.30686685E+04</totfact>
</mgrwt>
</event>
<event>
 6    1  0.1280499E-001  0.3000000E+03  0.7818608E-02  0.1093470E+00
         21   -1    0    0  501  502  0.00000000000E+00  0.00000000000E+00  0.45589622030E+01  0.45589622030E+01  0.00000000000E+00 0. -1.
         13   -1    0    0    0    0 -0.00000000000E+00 -0.00000000000E+00 -0.10000000000E+04  0.10000000000E+04  0.00000000000E+00 0.  1.
    9000005    2    1    2  501    0  0.18193760648E+02 -0.54873371164E+02 -0.75699864669E+03  0.75920845035E+03  0.29017587001E+01 0.  0.
         13    1    3    3    0    0  0.16774197434E+02 -0.50588807176E+02 -0.70733576306E+03  0.70934087914E+03  0.00000000000E+00 0.  1.
          3    1    3    3  501    0  0.14195632141E+01 -0.42845639884E+01 -0.49662883628E+02  0.49867571212E+02  0.00000000000E+00 0.  1.
         -3    1    1    2    0  502 -0.18193760648E+02  0.54873371164E+02 -0.23844239111E+03  0.24535051185E+03  0.00000000000E+00 0. -1.
<mgrwt>
<rscale>  1 0.30000000E+03</rscale>
<asrwt>0</asrwt>
<pdfrwt beam="1">  1       21 0.16578079E-01 0.30000000E+03</pdfrwt>
<pdfrwt beam="2">0</pdfrwt>
<totfact> 0.34185414E+03</totfact>
</mgrwt>
</event>
<event>
 6    1  0.1280499E-001  0.3000000E+03  0.7818608E-02  0.1093470E+00
         21   -1    0    0  501  502  0.00000000000E+00  0.00000000000E+00  0.21563212452E+01  0.21563212452E+01  0.00000000000E+00 0. -1.
         13   -1    0    0    0    0 -0.00000000000E+00 -0.00000000000E+00 -0.10000000000E+04  0.10000000000E+04  0.00000000000E+00 0.  1.
    9000005    2    1    2  501    0  0.62304123118E+00  0.45845696553E+02 -0.42379417987E+03  0.42627869254E+03  0.31306148615E+01 0.  0.
         13    1    3    3    0    0  0.12020684086E+01  0.42587168534E+02 -0.38812788114E+03  0.39045917073E+03  0.00000000000E+00 0.  1.
          1    1    3    3  501    0 -0.57902717740E+00  0.32585280185E+01 -0.35666298735E+02  0.35819521811E+02  0.00000000000E+00 0.  1.
         -3    1    1    2    0  502 -0.62304123118E+00 -0.45845696553E+02 -0.57404949888E+03  0.57587762870E+03  0.00000000000E+00 0. -1.
<mgrwt>
<rscale>  1 0.30000000E+03</rscale>
<asrwt>0</asrwt>
<pdfrwt beam="1">  1       21 0.78411847E-02 0.30000000E+03</pdfrwt>
<pdfrwt beam="2">0</pdfrwt>
<totfact> 0.13231521E+04</totfact>
</mgrwt>
</event>
<event>
 6    1  0.1280499E-001  0.3000000E+03  0.7818608E-02  0.1093470E+00
         21   -1    0    0  501  502  0.00000000000E+00  0.00000000000E+00  0.11683453945E+01  0.11683453945E+01  0.00000000000E+00 0. -1.
         13   -1    0    0    0    0 -0.00000000000E+00 -0.00000000000E+00 -0.10000000000E+04  0.10000000000E+04  0.00000000000E+00 0.  1.
    9000005    2    1    2  501    0 -0.32050896680E+02  0.68343417612E+01 -0.63911158374E+03  0.63995857589E+03  0.30649915606E+01 0.  0.
         13    1    3    3    0    0 -0.14704619714E+02  0.22469806627E+01 -0.26547901431E+03  0.26589543397E+03  0.00000000000E+00 0.  1.
          1    1    3    3  501    0 -0.17346276966E+02  0.45873610985E+01 -0.37363256943E+03  0.37406314192E+03  0.00000000000E+00 0.  1.
         -1    1    1    2    0  502  0.32050896680E+02 -0.68343417612E+01 -0.35972007086E+03  0.36120976951E+03  0.00000000000E+00 0. -1.
<mgrwt>
<rscale>  1 0.30000000E+03</rscale>
<asrwt>0</asrwt>
<pdfrwt beam="1">  1       21 0.42485377E-02 0.30000000E+03</pdfrwt>
<pdfrwt beam="2">0</pdfrwt>
<totfact> 0.37982027E+04</totfact>
</mgrwt>
</event>
<event>
 6    1  0.1280499E-001  0.3000000E+03  0.7818608E-02  0.1093470E+00
         21   -1    0    0  501  502  0.00000000000E+00  0.00000000000E+00  0.60047608600E+01  0.60047608600E+01  0.00000000000E+00 0. -1.
         13   -1    0    0    0    0 -0.00000000000E+00 -0.00000000000E+00 -0.10000000000E+04  0.10000000000E+04  0.00000000000E+00 0.  1.
    9000005    2    1    2  501    0  0.35678489056E+02 -0.24648195540E+02 -0.91377292822E+03  0.91481206766E+03  0.44347100210E+01 0.  0.
         13    1    3    3    0    0  0.21494616866E+02 -0.16458387809E+02 -0.53307297863E+03  0.53375996256E+03  0.00000000000E+00 0.  1.
          1    1    3    3  501    0  0.14183872190E+02 -0.81898077313E+01 -0.38069994959E+03  0.38105210510E+03  0.00000000000E+00 0.  1.
         -3    1    1    2    0  502 -0.35678489056E+02  0.24648195540E+02 -0.80222310916E+02  0.91192693202E+02  0.00000000000E+00 0. -1.
<mgrwt>
<rscale>  1 0.30000000E+03</rscale>
<asrwt>0</asrwt>
<pdfrwt beam="1">  1       21 0.21835540E-01 0.30000000E+03</pdfrwt>
<pdfrwt beam="2">0</pdfrwt>
<totfact> 0.20276656E+03</totfact>
</mgrwt>
</event>
<event>
 6    1  0.1280499E-001  0.3000000E+03  0.7818608E-02  0.1093470E+00
         21   -1    0    0  501  502  0.00000000000E+00  0.00000000000E+00  0.21438000795E+01  0.21438000795E+01  0.00000000000E+00 0. -1.
         13   -1    0    0    0    0 -0.00000000000E+00 -0.00000000000E+00 -0.10000000000E+04  0.10000000000E+04  0.00000000000E+00 0.  1.
    9000005    2    1    2  501    0 -0.27367173375E+02 -0.20256289675E+02 -0.83823383570E+03  0.83893050831E+03  0.30257256780E+01 0.  0.
         13    1    3    3    0    0 -0.10357454924E+02 -0.93426092439E+01 -0.35784196784E+03  0.35811371820E+03  0.00000000000E+00 0.  1.
          1    1    3    3  501    0 -0.17009718451E+02 -0.10913680431E+02 -0.48039186786E+03  0.48081679010E+03  0.00000000000E+00 0.  1.
         -1    1    1    2    0  502  0.27367173375E+02  0.20256289675E+02 -0.15962236422E+03  0.16321329177E+03  0.00000000000E+00 0. -1.
<mgrwt>
<rscale>  1 0.30000000E+03</rscale>
<asrwt>0</asrwt>
<pdfrwt beam="1">  1       21 0.77956531E-02 0.30000000E+03</pdfrwt>
<pdfrwt beam="2">0</pdfrwt>
<totfact> 0.13367391E+04</totfact>
</mgrwt>
</event>
<event>
 6    1  0.1280499E-001  0.3000000E+03  0.7818608E-02  0.1093470E+00
         21   -1    0    0  501  502  0.00000000000E+00  0.00000000000E+00  0.12045833155E+01  0.12045833155E+01  0.00000000000E+00 0. -1.
         13   -1    0    0    0    0 -0.00000000000E+00 -0.00000000000E+00 -0.10000000000E+04  0.10000000000E+04  0.00000000000E+00 0.  1.
    9000005    2    1    2  501    0  0.28381986764E+02  0.10676876985E+02 -0.74145913941E+03  0.74208782879E+03  0.36273058130E+01 0.  0.
         13    1    3    3    0    0  0.27936010831E+02  0.98922385221E+01 -0.72083830345E+03  0.72144725158E+03  0.00000000000E+00 0.  1.
          1    1    3    3  501    0  0.44597593240E+00  0.78463846286E+00 -0.20620835959E+02  0.20640577213E+02  0.00000000000E+00 0.  1.
         -3    1    1    2    0  502 -0.28381986764E+02 -0.10676876985E+02 -0.25733627727E+03  0.25911675452E+03  0.00000000000E+00 0. -1.
<mgrwt>
<rscale>  1 0.30000000E+03</rscale>
<asrwt>0</asrwt>
<pdfrwt beam="1">  1       21 0.43803122E-02 0.30000000E+03</pdfrwt>
<pdfrwt beam="2">0</pdfrwt>
<totfact> 0.36069328E+04</totfact>
</mgrwt>
</event>
<event>
 6    1  0.1280499E-001  0.3000000E+03  0.7818608E-02  0.1093470E+00
         21   -1    0    0  501  502  0.00000000000E+00  0.00000000000E+00  0.12414846546E+01  0.12414846546E+01  0.00000000000E+00 0. -1.
         13   -1    0    0    0    0 -0.00000000000E+00 -0.00000000000E+00 -0.10000000000E+04  0.10000000000E+04  0.00000000000E+00 0.  1.
    9000005    2    1    2  501    0  0.29493479962E+02 -0.89956406723E+01 -0.74013037748E+03  0.74078169773E+03  0.37095963727E+01 0.  0.
         13    1    3    3    0    0  0.96981034558E+01 -0.37980813344E+01 -0.28818352593E+03  0.28837167553E+03  0.00000000000E+00 0.  1.
          1    1    3    3  501    0  0.19795376506E+02 -0.51975593379E+01 -0.45194685155E+03  0.45241002220E+03  0.00000000000E+00 0.  1.
         -1    1    1    2    0  502 -0.29493479962E+02  0.89956406723E+01 -0.25862813786E+03  0.26045978693E+03  0.00000000000E+00 0. -1.
<mgrwt>
<rscale>  1 0.30000000E+03</rscale>
<asrwt>0</asrwt>
<pdfrwt beam="1">  1       21 0.45144992E-02 0.30000000E+03</pdfrwt>
<pdfrwt beam="2">0</pdfrwt>
<totfact> 0.34270580E+04</totfact>
</mgrwt>
</event>
<event>
 6    1  0.1280499E-001  0.3000000E+03  0.7818608E-02  0.1093470E+00
         21   -1    0    0  501  502  0.00000000000E+00  0.00000000000E+00  0.94875143148E+00  0.94875143148E+00  0.00000000000E+00 0. -1.
         13   -1    0    0    0    0 -0.00000000000E+00 -0.00000000000E+00 -0.10000000000E+04  0.10000000000E+04  0.00000000000E+00 0.  1.
    9000005    2    1    2  501    0  0.30329991873E+02  0.37704623835E+01 -0.54411426058E+03  0.54498626631E+03  0.39467849917E+01 0.  0.
         13    1    3    3    0    0  0.11117719848E+01 -0.41488232056E+00 -0.32106496509E+02  0.32128418610E+02  0.00000000000E+00 0.  1.
          1    1    3    3  501    0  0.29218219888E+02  0.41853447040E+01 -0.51200776407E+03  0.51285784770E+03  0.00000000000E+00 0.  1.
         -3    1    1    2    0  502 -0.30329991873E+02 -0.37704623835E+01 -0.45493698799E+03  0.45596248512E+03  0.00000000000E+00 0. -1.
<mgrwt>
<rscale>  1 0.30000000E+03</rscale>
<asrwt>0</asrwt>
<pdfrwt beam="1">  1       21 0.34500125E-02 0.30000000E+03</pdfrwt>
<pdfrwt beam="2">0</pdfrwt>
<totfact> 0.53898929E+04</totfact>
</mgrwt>
</event>
<event>
 6    1  0.1280499E-001  0.3000000E+03  0.7818608E-02  0.1093470E+00
         21   -1    0    0  501  502  0.00000000000E+00  0.00000000000E+00  0.24190017754E+01  0.24190017754E+01  0.00000000000E+00 0. -1.
         13   -1    0    0    0    0 -0.00000000000E+00 -0.00000000000E+00 -0.10000000000E+04  0.10000000000E+04  0.00000000000E+00 0.  1.
    9000005    2    1    2  501    0 -0.35990322499E+02 -0.11087056546E+02 -0.82088056237E+03  0.82175004991E+03  0.31655514752E+01 0.  0.
         13    1    3    3    0    0 -0.29454176331E+02 -0.89207916116E+01 -0.69547142711E+03  0.69615202000E+03  0.00000000000E+00 0.  1.
          1    1    3    3  501    0 -0.65361461682E+01 -0.21662649347E+01 -0.12540913525E+03  0.12559802990E+03  0.00000000000E+00 0.  1.
         -3    1    1    2    0  502  0.35990322499E+02  0.11087056546E+02 -0.17670043586E+03  0.18066895187E+03  0.00000000000E+00 0. -1.
<mgrwt>
<rscale>  1 0.30000000E+03</rscale>
<asrwt>0</asrwt>
<pdfrwt beam="1">  1       21 0.87963886E-02 0.30000000E+03</pdfrwt>
<pdfrwt beam="2">0</pdfrwt>
<totfact> 0.10807033E+04</totfact>
</mgrwt>
</event>
<event>
 6    1  0.1280499E-001  0.3000000E+03  0.7818608E-02  0.1093470E+00
         21   -1    0    0  501  502  0.00000000000E+00  0.00000000000E+00  0.12310010338E+02  0.12310010338E+02  0.00000000000E+00 0. -1.
         13   -1    0    0    0    0 -0.00000000000E+00 -0.00000000000E+00 -0.10000000000E+04  0.10000000000E+04  0.00000000000E+00 0.  1.
    9000005    2    1    2  501    0 -0.54625204333E+02 -0.60318205486E+02 -0.83784405925E+03  0.84179314395E+03  0.32910062842E+01 0.  0.
         13    1    3    3    0    0 -0.15280955940E+02 -0.18990658537E+02 -0.25599292202E+03  0.25715079010E+03  0.00000000000E+00 0.  1.
          1    1    3    3  501    0 -0.39344248393E+02 -0.41327546949E+02 -0.58185113723E+03  0.58464235385E+03  0.00000000000E+00 0.  1.
         -1    1    1    2    0  502  0.54625204333E+02  0.60318205486E+02 -0.14984593041E+03  0.17051686639E+03  0.00000000000E+00 0. -1.
<mgrwt>
<rscale>  1 0.30000000E+03</rscale>
<asrwt>0</asrwt>
<pdfrwt beam="1">  1       21 0.44763768E-01 0.30000000E+03</pdfrwt>
<pdfrwt beam="2">0</pdfrwt>
<totfact> 0.47639805E+02</totfact>
</mgrwt>
</event>
<event>
 6    1  0.1280499E-001  0.3000000E+03  0.7818608E-02  0.1093470E+00
         21   -1    0    0  501  502  0.00000000000E+00  0.00000000000E+00  0.51932760936E+01  0.51932760936E+01  0.00000000000E+00 0. -1.
         13   -1    0    0    0    0 -0.00000000000E+00 -0.00000000000E+00 -0.10000000000E+04  0.10000000000E+04  0.00000000000E+00 0.  1.
    9000005    2    1    2  501    0 -0.19505262083E+02  0.35250030333E+02 -0.91401123104E+03  0.91491076641E+03  0.47074553644E+01 0.  0.
         13    1    3    3    0    0 -0.17222618192E+02  0.33518303936E+02 -0.84362538246E+03  0.84446662528E+03  0.00000000000E+00 0.  1.
          1    1    3    3  501    0 -0.22826438914E+01  0.17317263964E+01 -0.70385848585E+02  0.70444141136E+02  0.00000000000E+00 0.  1.
         -3    1    1    2    0  502  0.19505262083E+02 -0.35250030333E+02 -0.80795492863E+02  0.90282509682E+02  0.00000000000E+00 0. -1.
<mgrwt>
<rscale>  1 0.30000000E+03</rscale>
<asrwt>0</asrwt>
<pdfrwt beam="1">  1       21 0.18884680E-01 0.30000000E+03</pdfrwt>
<pdfrwt beam="2">0</pdfrwt>
<totfact> 0.26757756E+03</totfact>
</mgrwt>
</event>
<event>
 6    1  0.1280499E-001  0.3000000E+03  0.7818608E-02  0.1093470E+00
         21   -1    0    0  501  502  0.00000000000E+00  0.00000000000E+00  0.25627964241E+01  0.25627964241E+01  0.00000000000E+00 0. -1.
         13   -1    0    0    0    0 -0.00000000000E+00 -0.00000000000E+00 -0.10000000000E+04  0.10000000000E+04  0.00000000000E+00 0.  1.
    9000005    2    1    2  501    0 -0.16505303010E+02 -0.40356568774E+02 -0.75288163651E+03  0.75415083404E+03  0.34123634902E+01 0.  0.
         13    1    3    3    0    0 -0.14376706465E+02 -0.35732252193E+02 -0.68189141096E+03  0.68297831581E+03  0.00000000000E+00 0.  1.
          1    1    3    3  501    0 -0.21285965446E+01 -0.46243165812E+01 -0.70990225552E+02  0.71172518229E+02  0.00000000000E+00 0.  1.
         -3    1    1    2    0  502  0.16505303010E+02  0.40356568774E+02 -0.24455556707E+03  0.24841196238E+03  0.00000000000E+00 0. -1.
<mgrwt>
<rscale>  1 0.30000000E+03</rscale>
<asrwt>0</asrwt>
<pdfrwt beam="1">  1       21 0.93192794E-02 0.30000000E+03</pdfrwt>
<pdfrwt beam="2">0</pdfrwt>
<totfact> 0.97555145E+03</totfact>
</mgrwt>
</event>
<event>
 6    1  0.1280499E-001  0.3000000E+03  0.7818608E-02  0.1093470E+00
         21   -1    0    0  501  502  0.00000000000E+00  0.00000000000E+00  0.36230472108E+01  0.36230472108E+01  0.00000000000E+00 0. -1.
         13   -1    0    0    0    0 -0.00000000000E+00 -0.00000000000E+00 -0.10000000000E+04  0.10000000000E+04  0.00000000000E+00 0.  1.
    9000005    2    1    2  501    0 -0.30066306956E+02 -0.27073450122E+02 -0.86942531261E+03  0.87038013573E+03  0.49246271577E+01 0.  0.
         13    1    3    3    0    0 -0.28199092421E+02 -0.25652394108E+02 -0.78872599516E+03  0.78964671188E+03  0.00000000000E+00 0.  1.
          3    1    3    3  501    0 -0.18672145350E+01 -0.14210560146E+01 -0.80699317450E+02  0.80733423854E+02  0.00000000000E+00 0.  1.
         -3    1    1    2    0  502  0.30066306956E+02  0.27073450122E+02 -0.12695164018E+03  0.13324291148E+03  0.00000000000E+00 0. -1.
<mgrwt>
<rscale>  1 0.30000000E+03</rscale>
<asrwt>0</asrwt>
<pdfrwt beam="1">  1       21 0.13174745E-01 0.30000000E+03</pdfrwt>
<pdfrwt beam="2">0</pdfrwt>
<totfact> 0.52274317E+03</totfact>
</mgrwt>
</event>
<event>
 6    1  0.1280499E-001  0.3000000E+03  0.7818608E-02  0.1093470E+00
         21   -1    0    0  501  502  0.00000000000E+00  0.00000000000E+00  0.32326761275E+01  0.32326761275E+01  0.00000000000E+00 0. -1.
         13   -1    0    0    0    0 -0.00000000000E+00 -0.00000000000E+00 -0.10000000000E+04  0.10000000000E+04  0.00000000000E+00 0.  1.
    9000005    2    1    2  501    0 -0.36585800156E+02  0.33638280670E+02 -0.74018630680E+03  0.74188257947E+03  0.66285934683E+01 0.  0.
         13    1    3    3    0    0 -0.96168843436E+00  0.20626426222E+01 -0.21117313163E+02  0.21239591673E+02  0.00000000000E+00 0.  1.
          3    1    3    3  501    0 -0.35624111722E+02  0.31575638047E+02 -0.71906899364E+03  0.72064298780E+03  0.00000000000E+00 0.  1.
         -1    1    1    2    0  502  0.36585800156E+02 -0.33638280670E+02 -0.25658101707E+03  0.26135009666E+03  0.00000000000E+00 0. -1.
<mgrwt>
<rscale>  1 0.30000000E+03</rscale>
<asrwt>0</asrwt>
<pdfrwt beam="1">  1       21 0.11755211E-01 0.30000000E+03</pdfrwt>
<pdfrwt beam="2">0</pdfrwt>
<totfact> 0.64330351E+03</totfact>
</mgrwt>
</event>
<event>
 6    1  0.1280499E-001  0.3000000E+03  0.7818608E-02  0.1093470E+00
         21   -1    0    0  501  502  0.00000000000E+00  0.00000000000E+00  0.19544748289E+01  0.19544748289E+01  0.00000000000E+00 0. -1.
         13   -1    0    0    0    0 -0.00000000000E+00 -0.00000000000E+00 -0.10000000000E+04  0.10000000000E+04  0.00000000000E+00 0.  1.
    9000005    2    1    2  501    0  0.64977987634E+01 -0.35474114621E+02 -0.78787478578E+03  0.78871195117E+03  0.43851642602E+01 0.  0.
         13    1    3    3    0    0  0.56936198128E+01 -0.23286617503E+02 -0.48782035359E+03  0.48840903067E+03  0.00000000000E+00 0.  1.
          3    1    3    3  501    0  0.80417895058E+00 -0.12187497119E+02 -0.30005443219E+03  0.30030292051E+03  0.00000000000E+00 0.  1.
         -3    1    1    2    0  502 -0.64977987634E+01  0.35474114621E+02 -0.21017073940E+03  0.21324252366E+03  0.00000000000E+00 0. -1.
<mgrwt>
<rscale>  1 0.30000000E+03</rscale>
<asrwt>0</asrwt>
<pdfrwt beam="1">  1       21 0.71071962E-02 0.30000000E+03</pdfrwt>
<pdfrwt beam="2">0</pdfrwt>
<totfact> 0.15713858E+04</totfact>
</mgrwt>
</event>
<event>
 6    1  0.1280499E-001  0.3000000E+03  0.7818608E-02  0.1093470E+00
         21   -1    0    0  501  502  0.00000000000E+00  0.00000000000E+00  0.17709418506E+01  0.17709418506E+01  0.00000000000E+00 0. -1.
         13   -1    0    0    0    0 -0.00000000000E+00 -0.00000000000E+00 -0.10000000000E+04  0.10000000000E+04  0.00000000000E+00 0.  1.
    9000005    2    1    2  501    0  0.79222666486E+01 -0.37687786717E+02 -0.69974473321E+03  0.70081243340E+03  0.34990814851E+01 0.  0.
         13    1    3    3    0    0  0.14113851124E+01 -0.99879339400E+01 -0.20932373304E+03  0.20956663867E+03  0.00000000000E+00 0.  1.
          3    1    3    3  501    0  0.65108815362E+01 -0.27699852777E+02 -0.49042100018E+03  0.49124579473E+03  0.00000000000E+00 0.  1.
         -1    1    1    2    0  502 -0.79222666486E+01  0.37687786717E+02 -0.29848432494E+03  0.30095850845E+03  0.00000000000E+00 0. -1.
<mgrwt>
<rscale>  1 0.30000000E+03</rscale>
<asrwt>0</asrwt>
<pdfrwt beam="1">  1       21 0.64398021E-02 0.30000000E+03</pdfrwt>
<pdfrwt beam="2">0</pdfrwt>
<totfact> 0.18647968E+04</totfact>
</mgrwt>
</event>
<event>
 6    1  0.1280499E-001  0.3000000E+03  0.7818608E-02  0.1093470E+00
         21   -1    0    0  501  502  0.00000000000E+00  0.00000000000E+00  0.36734898655E+01  0.36734898655E+01  0.00000000000E+00 0. -1.
         13   -1    0    0    0    0 -0.00000000000E+00 -0.00000000000E+00 -0.10000000000E+04  0.10000000000E+04  0.00000000000E+00 0.  1.
    9000005    2    1    2  501    0 -0.12390327686E+02 -0.37245767934E+02 -0.88036980095E+03  0.88125320619E+03  0.39318639828E+01 0.  0.
         13    1    3    3    0    0 -0.43794636596E+01 -0.13015484436E+02 -0.26741160239E+03  0.26776397747E+03  0.00000000000E+00 0.  1.
          3    1    3    3  501    0 -0.80108640264E+01 -0.24230283498E+02 -0.61295819856E+03  0.61348922873E+03  0.00000000000E+00 0.  1.
         -3    1    1    2    0  502  0.12390327686E+02  0.37245767934E+02 -0.11595670919E+03  0.12242028367E+03  0.00000000000E+00 0. -1.
<mgrwt>
<rscale>  1 0.30000000E+03</rscale>
<asrwt>0</asrwt>
<pdfrwt beam="1">  1       21 0.13358173E-01 0.30000000E+03</pdfrwt>
<pdfrwt beam="2">0</pdfrwt>
<totfact> 0.50968992E+03</totfact>
</mgrwt>
</event>
<event>
 6    1  0.1280499E-001  0.3000000E+03  0.7818608E-02  0.1093470E+00
         21   -1    0    0  501  502  0.00000000000E+00  0.00000000000E+00  0.19255303689E+01  0.19255303689E+01  0.00000000000E+00 0. -1.
         13   -1    0    0    0    0 -0.00000000000E+00 -0.00000000000E+00 -0.10000000000E+04  0.10000000000E+04  0.00000000000E+00 0.  1.
    9000005    2    1    2  501    0 -0.36792600748E+02 -0.19569929450E+02 -0.65364557672E+03  0.65498469985E+03  0.39672994055E+01 0.  0.
         13    1    3    3    0    0 -0.30455982688E+02 -0.15716313624E+02 -0.51277260253E+03  0.51391663847E+03  0.00000000000E+00 0.  1.
          3    1    3    3  501    0 -0.63366180608E+01 -0.38536158258E+01 -0.14087297419E+03  0.14106806138E+03  0.00000000000E+00 0.  1.
         -1    1    1    2    0  502  0.36792600748E+02  0.19569929450E+02 -0.34442889291E+03  0.34694083051E+03  0.00000000000E+00 0. -1.
<mgrwt>
<rscale>  1 0.30000000E+03</rscale>
<asrwt>0</asrwt>
<pdfrwt beam="1">  1       21 0.70019434E-02 0.30000000E+03</pdfrwt>
<pdfrwt beam="2">0</pdfrwt>
<totfact> 0.16127494E+04</totfact>
</mgrwt>
</event>
<event>
 6    1  0.1280499E-001  0.3000000E+03  0.7818608E-02  0.1093470E+00
         21   -1    0    0  501  502  0.00000000000E+00  0.00000000000E+00  0.99720662366E+01  0.99720662366E+01  0.00000000000E+00 0. -1.
         13   -1    0    0    0    0 -0.00000000000E+00 -0.00000000000E+00 -0.10000000000E+04  0.10000000000E+04  0.00000000000E+00 0.  1.
    9000005    2    1    2  501    0  0.25896237904E+02  0.51118530565E+02 -0.90853139826E+03  0.91034574138E+03  0.40432569356E+01 0.  0.
         13    1    3    3    0    0  0.16530803016E+02  0.34447665106E+02 -0.63216885861E+03  0.63332248884E+03  0.00000000000E+00 0.  1.
          1    1    3    3  501    0  0.93654348882E+01  0.16670865459E+02 -0.27636253965E+03  0.27702325254E+03  0.00000000000E+00 0.  1.
         -3    1    1    2    0  502 -0.25896237904E+02 -0.51118530565E+02 -0.81496535506E+02  0.99626324855E+02  0.00000000000E+00 0. -1.
<mgrwt>
<rscale>  1 0.30000000E+03</rscale>
<asrwt>0</asrwt>
<pdfrwt beam="1">  1       21 0.36262136E-01 0.30000000E+03</pdfrwt>
<pdfrwt beam="2">0</pdfrwt>
<totfact> 0.74004894E+02</totfact>
</mgrwt>
</event>
<event>
 6    1  0.1280499E-001  0.3000000E+03  0.7818608E-02  0.1093470E+00
         21   -1    0    0  501  502  0.00000000000E+00  0.00000000000E+00  0.16024391813E+01  0.16024391813E+01  0.00000000000E+00 0. -1.
         13   -1    0    0    0    0 -0.00000000000E+00 -0.00000000000E+00 -0.10000000000E+04  0.10000000000E+04  0.00000000000E+00 0.  1.
    9000005    2    1    2  501    0  0.13138529432E+01  0.37052681760E+02 -0.68515011411E+03  0.68616846780E+03  0.46754567237E+01 0.  0.
         13    1    3    3    0    0  0.17806900553E+00  0.60500256650E+01 -0.14738785530E+03  0.14751208224E+03  0.00000000000E+00 0.  1.
          1    1    3    3  501    0  0.11357839377E+01  0.31002656095E+02 -0.53776225882E+03  0.53865638556E+03  0.00000000000E+00 0.  1.
         -1    1    1    2    0  502 -0.13138529432E+01 -0.37052681760E+02 -0.31324744670E+03  0.31543397138E+03  0.00000000000E+00 0. -1.
<mgrwt>
<rscale>  1 0.30000000E+03</rscale>
<asrwt>0</asrwt>
<pdfrwt beam="1">  1       21 0.58270639E-02 0.30000000E+03</pdfrwt>
<pdfrwt beam="2">0</pdfrwt>
<totfact> 0.22161152E+04</totfact>
</mgrwt>
</event>
<event>
 6    1  0.1280499E-001  0.3000000E+03  0.7818608E-02  0.1093470E+00
         21   -1    0    0  501  502  0.00000000000E+00  0.00000000000E+00  0.11699186438E+01  0.11699186438E+01  0.00000000000E+00 0. -1.
         13   -1    0    0    0    0 -0.00000000000E+00 -0.00000000000E+00 -0.10000000000E+04  0.10000000000E+04  0.00000000000E+00 0.  1.
    9000005    2    1    2  501    0  0.46523583263E+01 -0.32630372026E+02 -0.60920761242E+03  0.61015578345E+03  0.83534087724E+01 0.  0.
         13    1    3    3    0    0  0.47088822496E+01 -0.10004826006E+02 -0.16272852568E+03  0.16310378041E+03  0.00000000000E+00 0.  1.
          1    1    3    3  501    0 -0.56523923392E-01 -0.22625546020E+02 -0.44647908674E+03  0.44705200304E+03  0.00000000000E+00 0.  1.
         -3    1    1    2    0  502 -0.46523583263E+01  0.32630372026E+02 -0.38962246894E+03  0.39101413519E+03  0.00000000000E+00 0. -1.
<mgrwt>
<rscale>  1 0.30000000E+03</rscale>
<asrwt>0</asrwt>
<pdfrwt beam="1">  1       21 0.42542586E-02 0.30000000E+03</pdfrwt>
<pdfrwt beam="2">0</pdfrwt>
<totfact> 0.37895751E+04</totfact>
</mgrwt>
</event>
<event>
 6    1  0.1280499E-001  0.3000000E+03  0.7818608E-02  0.1093470E+00
         21   -1    0    0  501  502  0.00000000000E+00  0.00000000000E+00  0.50104336945E+01  0.50104336945E+01  0.00000000000E+00 0. -1.
         13   -1    0    0    0    0 -0.00000000000E+00 -0.00000000000E+00 -0.10000000000E+04  0.10000000000E+04  0.00000000000E+00 0.  1.
    9000005    2    1    2  501    0  0.36889736753E+02  0.57427762693E+02 -0.63007042416E+03  0.63376283315E+03  0.27908198739E+01 0.  0.
         13    1    3    3    0    0  0.36010970676E+02  0.56304129351E+02 -0.61293184213E+03  0.61656499097E+03  0.00000000000E+00 0.  1.
          1    1    3    3  501    0  0.87876607782E+00  0.11236333422E+01 -0.17138582031E+02  0.17197842183E+02  0.00000000000E+00 0.  1.
         -1    1    1    2    0  502 -0.36889736753E+02 -0.57427762693E+02 -0.36491914214E+03  0.37124760054E+03  0.00000000000E+00 0. -1.
<mgrwt>
<rscale>  1 0.30000000E+03</rscale>
<asrwt>0</asrwt>
<pdfrwt beam="1">  1       21 0.18219797E-01 0.30000000E+03</pdfrwt>
<pdfrwt beam="2">0</pdfrwt>
<totfact> 0.28633020E+03</totfact>
</mgrwt>
</event>
<event>
 6    1  0.1280499E-001  0.3000000E+03  0.7818608E-02  0.1093470E+00
         21   -1    0    0  501  502  0.00000000000E+00  0.00000000000E+00  0.13247052369E+01  0.13247052369E+01  0.00000000000E+00 0. -1.
         13   -1    0    0    0    0 -0.00000000000E+00 -0.00000000000E+00 -0.10000000000E+04  0.10000000000E+04  0.00000000000E+00 0.  1.
    9000005    2    1    2  501    0  0.11139658992E+02 -0.31326709725E+02 -0.70139101179E+03  0.70218694492E+03  0.34204461002E+01 0.  0.
         13    1    3    3    0    0  0.76852471581E+01 -0.25004761323E+02 -0.53182076936E+03  0.53246373758E+03  0.00000000000E+00 0.  1.
          1    1    3    3  501    0  0.34544118334E+01 -0.63219484018E+01 -0.16957024242E+03  0.16972320733E+03  0.00000000000E+00 0.  1.
         -3    1    1    2    0  502 -0.11139658992E+02  0.31326709725E+02 -0.29728428298E+03  0.29913776032E+03  0.00000000000E+00 0. -1.
<mgrwt>
<rscale>  1 0.30000000E+03</rscale>
<asrwt>0</asrwt>
<pdfrwt beam="1">  1       21 0.48171201E-02 0.30000000E+03</pdfrwt>
<pdfrwt beam="2">0</pdfrwt>
<totfact> 0.30692022E+04</totfact>
</mgrwt>
</event>
<event>
 6    1  0.1280499E-001  0.3000000E+03  0.7818608E-02  0.1093470E+00
         21   -1    0    0  501  502  0.00000000000E+00  0.00000000000E+00  0.12123287130E+01  0.12123287130E+01  0.00000000000E+00 0. -1.
         13   -1    0    0    0    0 -0.00000000000E+00 -0.00000000000E+00 -0.10000000000E+04  0.10000000000E+04  0.00000000000E+00 0.  1.
    9000005    2    1    2  501    0  0.23680071400E+02  0.22732255422E+02 -0.34538948782E+03  0.34699012841E+03  0.55452408126E+01 0.  0.
         13    1    3    3    0    0  0.24187178839E+01  0.47387705358E+01 -0.45530895367E+02  0.45840686898E+02  0.00000000000E+00 0.  1.
          3    1    3    3  501    0  0.21261353517E+02  0.17993484887E+02 -0.29985859246E+03  0.30114944151E+03  0.00000000000E+00 0.  1.
         -3    1    1    2    0  502 -0.23680071400E+02 -0.22732255422E+02 -0.65339818346E+03  0.65422220031E+03  0.00000000000E+00 0. -1.
<mgrwt>
<rscale>  1 0.30000000E+03</rscale>
<asrwt>0</asrwt>
<pdfrwt beam="1">  1       21 0.44084773E-02 0.30000000E+03</pdfrwt>
<pdfrwt beam="2">0</pdfrwt>
<totfact> 0.35679869E+04</totfact>
</mgrwt>
</event>
<event>
 6    1  0.1280499E-001  0.3000000E+03  0.7818608E-02  0.1093470E+00
         21   -1    0    0  501  502  0.00000000000E+00  0.00000000000E+00  0.13549916618E+01  0.13549916618E+01  0.00000000000E+00 0. -1.
         13   -1    0    0    0    0 -0.00000000000E+00 -0.00000000000E+00 -0.10000000000E+04  0.10000000000E+04  0.00000000000E+00 0.  1.
    9000005    2    1    2  501    0  0.19256806090E+02 -0.27253151655E+02 -0.70508932005E+03  0.70590871738E+03  0.65275707374E+01 0.  0.
         13    1    3    3    0    0  0.13913456467E+02 -0.23986013111E+02 -0.58173435552E+03  0.58239486046E+03  0.00000000000E+00 0.  1.
          3    1    3    3  501    0  0.53433496228E+01 -0.32671385439E+01 -0.12335496453E+03  0.12351385693E+03  0.00000000000E+00 0.  1.
         -3    1    1    2    0  502 -0.19256806090E+02  0.27253151655E+02 -0.29355568829E+03  0.29544627428E+03  0.00000000000E+00 0. -1.
<mgrwt>
<rscale>  1 0.30000000E+03</rscale>
<asrwt>0</asrwt>
<pdfrwt beam="1">  1       21 0.49272528E-02 0.30000000E+03</pdfrwt>
<pdfrwt beam="2">0</pdfrwt>
<totfact> 0.29533145E+04</totfact>
</mgrwt>
</event>
<event>
 6    1  0.1280499E-001  0.3000000E+03  0.7818608E-02  0.1093470E+00
         21   -1    0    0  501  502  0.00000000000E+00  0.00000000000E+00  0.28279761044E+01  0.28279761044E+01  0.00000000000E+00 0. -1.
         13   -1    0    0    0    0 -0.00000000000E+00 -0.00000000000E+00 -0.10000000000E+04  0.10000000000E+04  0.00000000000E+00 0.  1.
    9000005    2    1    2  501    0 -0.35264770244E+02  0.90501731175E+01 -0.86388008003E+03  0.86465326079E+03  0.33104472764E+01 0.  0.
         13    1    3    3    0    0 -0.70321696028E+01  0.59457420828E+00 -0.18088414149E+03  0.18102175994E+03  0.00000000000E+00 0.  1.
          3    1    3    3  501    0 -0.28232600641E+02  0.84555989092E+01 -0.68299593854E+03  0.68363150085E+03  0.00000000000E+00 0.  1.
         -3    1    1    2    0  502  0.35264770244E+02 -0.90501731175E+01 -0.13329194386E+03  0.13817471532E+03  0.00000000000E+00 0. -1.
<mgrwt>
<rscale>  1 0.30000000E+03</rscale>
<asrwt>0</asrwt>
<pdfrwt beam="1">  1       21 0.10283571E-01 0.30000000E+03</pdfrwt>
<pdfrwt beam="2">0</pdfrwt>
<totfact> 0.81835529E+03</totfact>
</mgrwt>
</event>
<event>
 6    1  0.1280499E-001  0.3000000E+03  0.7818608E-02  0.1093470E+00
         21   -1    0    0  501  502  0.00000000000E+00  0.00000000000E+00  0.14057361161E+01  0.14057361161E+01  0.00000000000E+00 0. -1.
         13   -1    0    0    0    0 -0.00000000000E+00 -0.00000000000E+00 -0.10000000000E+04  0.10000000000E+04  0.00000000000E+00 0.  1.
    9000005    2    1    2  501    0  0.30127492877E+02  0.40600446566E+01 -0.79169356628E+03  0.79228364628E+03  0.32439912238E+01 0.  0.
         13    1    3    3    0    0  0.23899370386E+02  0.35642118028E+01 -0.59370647771E+03  0.59419800167E+03  0.00000000000E+00 0.  1.
          1    1    3    3  501    0  0.62281224914E+01  0.49583285381E+00 -0.19798708857E+03  0.19808564461E+03  0.00000000000E+00 0.  1.
         -3    1    1    2    0  502 -0.30127492877E+02 -0.40600446566E+01 -0.20690069760E+03  0.20912208983E+03  0.00000000000E+00 0. -1.
<mgrwt>
<rscale>  1 0.30000000E+03</rscale>
<asrwt>0</asrwt>
<pdfrwt beam="1">  1       21 0.51117785E-02 0.30000000E+03</pdfrwt>
<pdfrwt beam="2">0</pdfrwt>
<totfact> 0.27738607E+04</totfact>
</mgrwt>
</event>
<event>
 6    1  0.1280499E-001  0.3000000E+03  0.7818608E-02  0.1093470E+00
         21   -1    0    0  501  502  0.00000000000E+00  0.00000000000E+00  0.34356758367E+01  0.34356758367E+01  0.00000000000E+00 0. -1.
         13   -1    0    0    0    0 -0.00000000000E+00 -0.00000000000E+00 -0.10000000000E+04  0.10000000000E+04  0.00000000000E+00 0.  1.
    9000005    2    1    2  501    0 -0.45631487311E+02 -0.13962868099E+02 -0.78905297839E+03  0.79050809908E+03  0.46106053675E+01 0.  0.
         13    1    3    3    0    0 -0.28034444649E+02 -0.99301093126E+01 -0.52048677374E+03  0.52133580233E+03  0.00000000000E+00 0.  1.
          1    1    3    3  501    0 -0.17597042662E+02 -0.40327587866E+01 -0.26856620465E+03  0.26917229675E+03  0.00000000000E+00 0.  1.
         -3    1    1    2    0  502  0.45631487311E+02  0.13962868099E+02 -0.20751134577E+03  0.21292757676E+03  0.00000000000E+00 0. -1.
<mgrwt>
<rscale>  1 0.30000000E+03</rscale>
<asrwt>0</asrwt>
<pdfrwt beam="1">  1       21 0.12493393E-01 0.30000000E+03</pdfrwt>
<pdfrwt beam="2">0</pdfrwt>
<totfact> 0.57592373E+03</totfact>
</mgrwt>
</event>
<event>
 6    1  0.1280499E-001  0.3000000E+03  0.7818608E-02  0.1093470E+00
         21   -1    0    0  501  502  0.00000000000E+00  0.00000000000E+00  0.15775808863E+01  0.15775808863E+01  0.00000000000E+00 0. -1.
         13   -1    0    0    0    0 -0.00000000000E+00 -0.00000000000E+00 -0.10000000000E+04  0.10000000000E+04  0.00000000000E+00 0.  1.
    9000005    2    1    2  501    0  0.37933181247E+02  0.68082655835E+01 -0.61788751384E+03  0.61909608741E+03  0.31156007575E+01 0.  0.
         13    1    3    3    0    0  0.42976915054E+01  0.12431816967E+01 -0.87070005141E+02  0.87184869377E+02  0.00000000000E+00 0.  1.
          3    1    3    3  501    0  0.33635489741E+02  0.55650838868E+01 -0.53081750870E+03  0.53191121804E+03  0.00000000000E+00 0.  1.
         -1    1    1    2    0  502 -0.37933181247E+02 -0.68082655835E+01 -0.38053490527E+03  0.38248149347E+03  0.00000000000E+00 0. -1.
<mgrwt>
<rscale>  1 0.30000000E+03</rscale>
<asrwt>0</asrwt>
<pdfrwt beam="1">  1       21 0.57366699E-02 0.30000000E+03</pdfrwt>
<pdfrwt beam="2">0</pdfrwt>
<totfact> 0.22765767E+04</totfact>
</mgrwt>
</event>
<event>
 6    1  0.1280499E-001  0.3000000E+03  0.7818608E-02  0.1093470E+00
         21   -1    0    0  501  502  0.00000000000E+00  0.00000000000E+00  0.11126930207E+02  0.11126930207E+02  0.00000000000E+00 0. -1.
         13   -1    0    0    0    0 -0.00000000000E+00 -0.00000000000E+00 -0.10000000000E+04  0.10000000000E+04  0.00000000000E+00 0.  1.
    9000005    2    1    2  501    0 -0.59072665349E+01 -0.51854357145E+02 -0.93377055110E+03  0.93523188611E+03  0.27328618059E+01 0.  0.
         13    1    3    3    0    0 -0.31389221495E+01 -0.20818032128E+02 -0.39641692549E+03  0.39697559384E+03  0.00000000000E+00 0.  1.
          3    1    3    3  501    0 -0.27683443854E+01 -0.31036325017E+02 -0.53735362562E+03  0.53825629227E+03  0.00000000000E+00 0.  1.
         -3    1    1    2    0  502  0.59072665349E+01  0.51854357145E+02 -0.55102518691E+02  0.75895044100E+02  0.00000000000E+00 0. -1.
<mgrwt>
<rscale>  1 0.30000000E+03</rscale>
<asrwt>0</asrwt>
<pdfrwt beam="1">  1       21 0.40461650E-01 0.30000000E+03</pdfrwt>
<pdfrwt beam="2">0</pdfrwt>
<totfact> 0.58970354E+02</totfact>
</mgrwt>
</event>
<event>
 6    1  0.1280499E-001  0.3000000E+03  0.7818608E-02  0.1093470E+00
         21   -1    0    0  501  502  0.00000000000E+00  0.00000000000E+00  0.36982758298E+01  0.36982758298E+01  0.00000000000E+00 0. -1.
         13   -1    0    0    0    0 -0.00000000000E+00 -0.00000000000E+00 -0.10000000000E+04  0.10000000000E+04  0.00000000000E+00 0.  1.
    9000005    2    1    2  501    0  0.28041307749E+02  0.34629331830E+02 -0.83919106650E+03  0.84039100619E+03  0.54673239007E+01 0.  0.
         13    1    3    3    0    0  0.18554706603E+02  0.19430565997E+02 -0.47424196303E+03  0.47500238266E+03  0.00000000000E+00 0.  1.
          3    1    3    3  501    0  0.94866011459E+01  0.15198765833E+02 -0.36494910346E+03  0.36538862353E+03  0.00000000000E+00 0.  1.
         -3    1    1    2    0  502 -0.28041307749E+02 -0.34629331830E+02 -0.15711065767E+03  0.16330726964E+03  0.00000000000E+00 0. -1.
<mgrwt>
<rscale>  1 0.30000000E+03</rscale>
<asrwt>0</asrwt>
<pdfrwt beam="1">  1       21 0.13448304E-01 0.30000000E+03</pdfrwt>
<pdfrwt beam="2">0</pdfrwt>
<totfact> 0.50345481E+03</totfact>
</mgrwt>
</event>
<event>
 6    1  0.1280499E-001  0.3000000E+03  0.7818608E-02  0.1093470E+00
         21   -1    0    0  501  502  0.00000000000E+00  0.00000000000E+00  0.17397719407E+01  0.17397719407E+01  0.00000000000E+00 0. -1.
         13   -1    0    0    0    0 -0.00000000000E+00 -0.00000000000E+00 -0.10000000000E+04  0.10000000000E+04  0.00000000000E+00 0.  1.
    9000005    2    1    2  501    0  0.26435224918E+02 -0.17894709708E+02 -0.82071695467E+03  0.82134948484E+03  0.44288625421E+01 0.  0.
         13    1    3    3    0    0  0.13251949749E+02 -0.87467243512E+01 -0.46447567350E+03  0.46474699636E+03  0.00000000000E+00 0.  1.
          1    1    3    3  501    0  0.13183275170E+02 -0.91479853564E+01 -0.35624128117E+03  0.35660248848E+03  0.00000000000E+00 0.  1.
         -1    1    1    2    0  502 -0.26435224918E+02  0.17894709708E+02 -0.17754327339E+03  0.18039028710E+03  0.00000000000E+00 0. -1.
<mgrwt>
<rscale>  1 0.30000000E+03</rscale>
<asrwt>0</asrwt>
<pdfrwt beam="1">  1       21 0.63264568E-02 0.30000000E+03</pdfrwt>
<pdfrwt beam="2">0</pdfrwt>
<totfact> 0.19229604E+04</totfact>
</mgrwt>
</event>
<event>
 6    1  0.1280499E-001  0.3000000E+03  0.7818608E-02  0.1093470E+00
         21   -1    0    0  501  502  0.00000000000E+00  0.00000000000E+00  0.15717920292E+01  0.15717920292E+01  0.00000000000E+00 0. -1.
         13   -1    0    0    0    0 -0.00000000000E+00 -0.00000000000E+00 -0.10000000000E+04  0.10000000000E+04  0.00000000000E+00 0.  1.
    9000005    2    1    2  501    0 -0.32143009276E+02  0.15544989555E+02 -0.71075251671E+03  0.71168884481E+03  0.75532822682E+01 0.  0.
         13    1    3    3    0    0 -0.10548621641E+02  0.18215130430E+01 -0.17697421118E+03  0.17729766708E+03  0.00000000000E+00 0.  1.
          1    1    3    3  501    0 -0.21594387635E+02  0.13723476512E+02 -0.53377830552E+03  0.53439117773E+03  0.00000000000E+00 0.  1.
         -3    1    1    2    0  502  0.32143009276E+02 -0.15544989555E+02 -0.28767569126E+03  0.28988294722E+03  0.00000000000E+00 0. -1.
<mgrwt>
<rscale>  1 0.30000000E+03</rscale>
<asrwt>0</asrwt>
<pdfrwt beam="1">  1       21 0.57156194E-02 0.30000000E+03</pdfrwt>
<pdfrwt beam="2">0</pdfrwt>
<totfact> 0.22910190E+04</totfact>
</mgrwt>
</event>
<event>
 6    1  0.1280499E-001  0.3000000E+03  0.7818608E-02  0.1093470E+00
         21   -1    0    0  501  502  0.00000000000E+00  0.00000000000E+00  0.99461734577E+01  0.99461734577E+01  0.00000000000E+00 0. -1.
         13   -1    0    0    0    0 -0.00000000000E+00 -0.00000000000E+00 -0.10000000000E+04  0.10000000000E+04  0.00000000000E+00 0.  1.
    9000005    2    1    2  501    0 -0.50295648239E+02  0.38080041231E+02 -0.88609265939E+03  0.88834162565E+03  0.33016762630E+01 0.  0.
         13    1    3    3    0    0 -0.54253635938E-01  0.14572742296E+00 -0.51832550245E+01  0.51855870051E+01  0.00000000000E+00 0.  1.
          3    1    3    3  501    0 -0.50241394604E+02  0.37934313808E+02 -0.88090940436E+03  0.88315603864E+03  0.00000000000E+00 0.  1.
         -1    1    1    2    0  502  0.50295648239E+02 -0.38080041231E+02 -0.10396116716E+03  0.12160454781E+03  0.00000000000E+00 0. -1.
<mgrwt>
<rscale>  1 0.30000000E+03</rscale>
<asrwt>0</asrwt>
<pdfrwt beam="1">  1       21 0.36167980E-01 0.30000000E+03</pdfrwt>
<pdfrwt beam="2">0</pdfrwt>
<totfact> 0.74401235E+02</totfact>
</mgrwt>
</event>
<event>
 6    1  0.1280499E-001  0.3000000E+03  0.7818608E-02  0.1093470E+00
         21   -1    0    0  501  502  0.00000000000E+00  0.00000000000E+00  0.20190512859E+01  0.20190512859E+01  0.00000000000E+00 0. -1.
         13   -1    0    0    0    0 -0.00000000000E+00 -0.00000000000E+00 -0.10000000000E+04  0.10000000000E+04  0.00000000000E+00 0.  1.
    9000005    2    1    2  501    0 -0.22173386491E+02 -0.22136907726E+02 -0.85773715327E+03  0.85831788945E+03  0.38566176809E+01 0.  0.
         13    1    3    3    0    0 -0.13478398655E+02 -0.14084959531E+02 -0.58139329702E+03  0.58172005221E+03  0.00000000000E+00 0.  1.
          1    1    3    3  501    0 -0.86949878356E+01 -0.80519481950E+01 -0.27634385624E+03  0.27659783724E+03  0.00000000000E+00 0.  1.
         -3    1    1    2    0  502  0.22173386491E+02  0.22136907726E+02 -0.14024379545E+03  0.14370116184E+03  0.00000000000E+00 0. -1.
<mgrwt>
<rscale>  1 0.30000000E+03</rscale>
<asrwt>0</asrwt>
<pdfrwt beam="1">  1       21 0.73420202E-02 0.30000000E+03</pdfrwt>
<pdfrwt beam="2">0</pdfrwt>
<totfact> 0.14847284E+04</totfact>
</mgrwt>
</event>
<event>
 6    1  0.1280499E-001  0.3000000E+03  0.7818608E-02  0.1093470E+00
         21   -1    0    0  501  502  0.00000000000E+00  0.00000000000E+00  0.13291055584E+01  0.13291055584E+01  0.00000000000E+00 0. -1.
         13   -1    0    0    0    0 -0.00000000000E+00 -0.00000000000E+00 -0.10000000000E+04  0.10000000000E+04  0.00000000000E+00 0.  1.
    9000005    2    1    2  501    0  0.12390337816E+02 -0.33243040110E+02 -0.61263376127E+03  0.61366521973E+03  0.25012543951E+01 0.  0.
         13    1    3    3    0    0  0.10700725994E+02 -0.28613213748E+02 -0.54138969923E+03  0.54225089024E+03  0.00000000000E+00 0.  1.
          3    1    3    3  501    0  0.16896118223E+01 -0.46298263615E+01 -0.71244062037E+02  0.71414329485E+02  0.00000000000E+00 0.  1.
         -1    1    1    2    0  502 -0.12390337816E+02  0.33243040110E+02 -0.38603713318E+03  0.38766388583E+03  0.00000000000E+00 0. -1.
<mgrwt>
<rscale>  1 0.30000000E+03</rscale>
<asrwt>0</asrwt>
<pdfrwt beam="1">  1       21 0.48331213E-02 0.30000000E+03</pdfrwt>
<pdfrwt beam="2">0</pdfrwt>
<totfact> 0.30519281E+04</totfact>
</mgrwt>
</event>
<event>
 6    1  0.1280499E-001  0.3000000E+03  0.7818608E-02  0.1093470E+00
         21   -1    0    0  501  502  0.00000000000E+00  0.00000000000E+00  0.11444094527E+01  0.11444094527E+01  0.00000000000E+00 0. -1.
         13   -1    0    0    0    0 -0.00000000000E+00 -0.00000000000E+00 -0.10000000000E+04  0.10000000000E+04  0.00000000000E+00 0.  1.
    9000005    2    1    2  501    0 -0.13922952332E+02 -0.29463590233E+02 -0.63070902967E+03  0.63155836800E+03  0.31843888078E+01 0.  0.
         13    1    3    3    0    0 -0.81754385511E+01 -0.14553105233E+02 -0.34293692351E+03  0.34334292504E+03  0.00000000000E+00 0.  1.
          1    1    3    3  501    0 -0.57475137810E+01 -0.14910485000E+02 -0.28777210616E+03  0.28821544296E+03  0.00000000000E+00 0.  1.
         -1    1    1    2    0  502  0.13922952332E+02  0.29463590233E+02 -0.36814656087E+03  0.36958604145E+03  0.00000000000E+00 0. -1.
<mgrwt>
<rscale>  1 0.30000000E+03</rscale>
<asrwt>0</asrwt>
<pdfrwt beam="1">  1       21 0.41614977E-02 0.30000000E+03</pdfrwt>
<pdfrwt beam="2">0</pdfrwt>
<totfact> 0.39333248E+04</totfact>
</mgrwt>
</event>
<event>
 6    1  0.1280499E-001  0.3000000E+03  0.7818608E-02  0.1093470E+00
         21   -1    0    0  501  502  0.00000000000E+00  0.00000000000E+00  0.15277575122E+01  0.15277575122E+01  0.00000000000E+00 0. -1.
         13   -1    0    0    0    0 -0.00000000000E+00 -0.00000000000E+00 -0.10000000000E+04  0.10000000000E+04  0.00000000000E+00 0.  1.
    9000005    2    1    2  501    0 -0.72366941915E+01  0.37391349824E+02 -0.60864334249E+03  0.60984286623E+03  0.33347190398E+01 0.  0.
         13    1    3    3    0    0 -0.62484725362E+01  0.35617075154E+02 -0.56952094164E+03  0.57066778639E+03  0.00000000000E+00 0.  1.
          1    1    3    3  501    0 -0.98822165535E+00  0.17742746700E+01 -0.39122400841E+02  0.39175079836E+02  0.00000000000E+00 0.  1.
         -1    1    1    2    0  502  0.72366941915E+01 -0.37391349824E+02 -0.38982890000E+03  0.39168489129E+03  0.00000000000E+00 0. -1.
<mgrwt>
<rscale>  1 0.30000000E+03</rscale>
<asrwt>0</asrwt>
<pdfrwt beam="1">  1       21 0.55554936E-02 0.30000000E+03</pdfrwt>
<pdfrwt beam="2">0</pdfrwt>
<totfact> 0.24056303E+04</totfact>
</mgrwt>
</event>
<event>
 6    1  0.1280499E-001  0.3000000E+03  0.7818608E-02  0.1093470E+00
         21   -1    0    0  501  502  0.00000000000E+00  0.00000000000E+00  0.29076889669E+01  0.29076889669E+01  0.00000000000E+00 0. -1.
         13   -1    0    0    0    0 -0.00000000000E+00 -0.00000000000E+00 -0.10000000000E+04  0.10000000000E+04  0.00000000000E+00 0.  1.
    9000005    2    1    2  501    0  0.62639222296E+01 -0.52581060036E+02 -0.40624371731E+03  0.40969097874E+03  0.29556057154E+01 0.  0.
         13    1    3    3    0    0  0.65386873774E+01 -0.47924144729E+02 -0.36946094659E+03  0.37261356543E+03  0.00000000000E+00 0.  1.
          3    1    3    3  501    0 -0.27476514786E+00 -0.46569153070E+01 -0.36782770718E+02  0.37077413310E+02  0.00000000000E+00 0.  1.
         -3    1    1    2    0  502 -0.62639222296E+01  0.52581060036E+02 -0.59084859372E+03  0.59321671023E+03  0.00000000000E+00 0. -1.
<mgrwt>
<rscale>  1 0.30000000E+03</rscale>
<asrwt>0</asrwt>
<pdfrwt beam="1">  1       21 0.10573437E-01 0.30000000E+03</pdfrwt>
<pdfrwt beam="2">0</pdfrwt>
<totfact> 0.77859598E+03</totfact>
</mgrwt>
</event>
<event>
 6    1  0.1280499E-001  0.3000000E+03  0.7818608E-02  0.1093470E+00
         21   -1    0    0  501  502  0.00000000000E+00  0.00000000000E+00  0.13591740094E+01  0.13591740094E+01  0.00000000000E+00 0. -1.
         13   -1    0    0    0    0 -0.00000000000E+00 -0.00000000000E+00 -0.10000000000E+04  0.10000000000E+04  0.00000000000E+00 0.  1.
    9000005    2    1    2  501    0  0.32683180442E+02  0.76463140512E+01 -0.70496219910E+03  0.70576859179E+03  0.33085646202E+01 0.  0.
         13    1    3    3    0    0  0.46726192262E+01  0.82176503513E-02 -0.89163639937E+02  0.89285990642E+02  0.00000000000E+00 0.  1.
          1    1    3    3  501    0  0.28010561216E+02  0.76380964009E+01 -0.61579855916E+03  0.61648260115E+03  0.00000000000E+00 0.  1.
         -3    1    1    2    0  502 -0.32683180442E+02 -0.76463140512E+01 -0.29367862689E+03  0.29559058222E+03  0.00000000000E+00 0. -1.
<mgrwt>
<rscale>  1 0.30000000E+03</rscale>
<asrwt>0</asrwt>
<pdfrwt beam="1">  1       21 0.49424614E-02 0.30000000E+03</pdfrwt>
<pdfrwt beam="2">0</pdfrwt>
<totfact> 0.29378489E+04</totfact>
</mgrwt>
</event>
<event>
 6    1  0.1280499E-001  0.3000000E+03  0.7818608E-02  0.1093470E+00
         21   -1    0    0  501  502  0.00000000000E+00  0.00000000000E+00  0.13662827311E+01  0.13662827311E+01  0.00000000000E+00 0. -1.
         13   -1    0    0    0    0 -0.00000000000E+00 -0.00000000000E+00 -0.10000000000E+04  0.10000000000E+04  0.00000000000E+00 0.  1.
    9000005    2    1    2  501    0  0.35455544700E+02 -0.10052661375E+02 -0.51589651856E+03  0.51722440820E+03  0.37039076461E+01 0.  0.
         13    1    3    3    0    0  0.10644613953E+02 -0.21634013861E+01 -0.17328714924E+03  0.17362725651E+03  0.00000000000E+00 0.  1.
          1    1    3    3  501    0  0.24810930747E+02 -0.78892599891E+01 -0.34260936932E+03  0.34359715170E+03  0.00000000000E+00 0.  1.
         -1    1    1    2    0  502 -0.35455544700E+02  0.10052661375E+02 -0.48273719871E+03  0.48414187453E+03  0.00000000000E+00 0. -1.
<mgrwt>
<rscale>  1 0.30000000E+03</rscale>
<asrwt>0</asrwt>
<pdfrwt beam="1">  1       21 0.49683113E-02 0.30000000E+03</pdfrwt>
<pdfrwt beam="2">0</pdfrwt>
<totfact> 0.29118503E+04</totfact>
</mgrwt>
</event>
<event>
 6    1  0.1280499E-001  0.3000000E+03  0.7818608E-02  0.1093470E+00
         21   -1    0    0  501  502  0.00000000000E+00  0.00000000000E+00  0.23233416574E+01  0.23233416574E+01  0.00000000000E+00 0. -1.
         13   -1    0    0    0    0 -0.00000000000E+00 -0.00000000000E+00 -0.10000000000E+04  0.10000000000E+04  0.00000000000E+00 0.  1.
    9000005    2    1    2  501    0 -0.39260804449E+02 -0.19163960235E+02 -0.28905565004E+03  0.29235686249E+03  0.32707927621E+01 0.  0.
         13    1    3    3    0    0 -0.20615724762E+02 -0.86699513720E+01 -0.14070299991E+03  0.14246933126E+03  0.00000000000E+00 0.  1.
          3    1    3    3  501    0 -0.18645079687E+02 -0.10494008863E+02 -0.14835265013E+03  0.14988753123E+03  0.00000000000E+00 0.  1.
         -1    1    1    2    0  502  0.39260804449E+02  0.19163960235E+02 -0.70862100830E+03  0.70996647917E+03  0.00000000000E+00 0. -1.
<mgrwt>
<rscale>  1 0.30000000E+03</rscale>
<asrwt>0</asrwt>
<pdfrwt beam="1">  1       21 0.84485329E-02 0.30000000E+03</pdfrwt>
<pdfrwt beam="2">0</pdfrwt>
<totfact> 0.11604855E+04</totfact>
</mgrwt>
</event>
<event>
 6    1  0.1280499E-001  0.3000000E+03  0.7818608E-02  0.1093470E+00
         21   -1    0    0  501  502  0.00000000000E+00  0.00000000000E+00  0.40738810446E+01  0.40738810446E+01  0.00000000000E+00 0. -1.
         13   -1    0    0    0    0 -0.00000000000E+00 -0.00000000000E+00 -0.10000000000E+04  0.10000000000E+04  0.00000000000E+00 0.  1.
    9000005    2    1    2  501    0  0.15670291290E+02 -0.56406481837E+02 -0.69709426574E+03  0.69956160589E+03  0.43331153601E+01 0.  0.
         13    1    3    3    0    0  0.14641783565E+02 -0.51028622424E+02 -0.64468547927E+03  0.64686758252E+03  0.00000000000E+00 0.  1.
          3    1    3    3  501    0  0.10285077254E+01 -0.53778594124E+01 -0.52408786468E+02  0.52694023371E+02  0.00000000000E+00 0.  1.
         -1    1    1    2    0  502 -0.15670291290E+02  0.56406481837E+02 -0.29883185322E+03  0.30451227516E+03  0.00000000000E+00 0. -1.
<mgrwt>
<rscale>  1 0.30000000E+03</rscale>
<asrwt>0</asrwt>
<pdfrwt beam="1">  1       21 0.14814144E-01 0.30000000E+03</pdfrwt>
<pdfrwt beam="2">0</pdfrwt>
<totfact> 0.42140993E+03</totfact>
</mgrwt>
</event>
<event>
 6    1  0.1280499E-001  0.3000000E+03  0.7818608E-02  0.1093470E+00
         21   -1    0    0  501  502  0.00000000000E+00  0.00000000000E+00  0.48607802558E+01  0.48607802558E+01  0.00000000000E+00 0. -1.
         13   -1    0    0    0    0 -0.00000000000E+00 -0.00000000000E+00 -0.10000000000E+04  0.10000000000E+04  0.00000000000E+00 0.  1.
    9000005    2    1    2  501    0 -0.68099309271E+02 -0.13757428540E+02 -0.46038491782E+03  0.46561227892E+03  0.37066109233E+01 0.  0.
         13    1    3    3    0    0 -0.36275806177E+02 -0.61655709381E+01 -0.23392538894E+03  0.23680168067E+03  0.00000000000E+00 0.  1.
          1    1    3    3  501    0 -0.31823503094E+02 -0.75918576017E+01 -0.22645952888E+03  0.22881059825E+03  0.00000000000E+00 0.  1.
         -3    1    1    2    0  502  0.68099309271E+02  0.13757428540E+02 -0.53475430192E+03  0.53924850133E+03  0.00000000000E+00 0. -1.
<mgrwt>
<rscale>  1 0.30000000E+03</rscale>
<asrwt>0</asrwt>
<pdfrwt beam="1">  1       21 0.17675602E-01 0.30000000E+03</pdfrwt>
<pdfrwt beam="2">0</pdfrwt>
<totfact> 0.30315365E+03</totfact>
</mgrwt>
</event>
<event>
 6    1  0.1280499E-001  0.3000000E+03  0.7818608E-02  0.1093470E+00
         21   -1    0    0  501  502  0.00000000000E+00  0.00000000000E+00  0.32408092662E+01  0.32408092662E+01  0.00000000000E+00 0. -1.
         13   -1    0    0    0    0 -0.00000000000E+00 -0.00000000000E+00 -0.10000000000E+04  0.10000000000E+04  0.00000000000E+00 0.  1.
    9000005    2    1    2  501    0  0.47601415899E+02  0.15570215732E+02 -0.73646768312E+03  0.73817478853E+03  0.30072789199E+01 0.  0.
         13    1    3    3    0    0  0.12725462247E+02  0.27992787382E+01 -0.18773416163E+03  0.18818578266E+03  0.00000000000E+00 0.  1.
          1    1    3    3  501    0  0.34875953652E+02  0.12770936993E+02 -0.54873352149E+03  0.54998900587E+03  0.00000000000E+00 0.  1.
         -3    1    1    2    0  502 -0.47601415899E+02 -0.15570215732E+02 -0.26029150761E+03  0.26506602074E+03  0.00000000000E+00 0. -1.
<mgrwt>
<rscale>  1 0.30000000E+03</rscale>
<asrwt>0</asrwt>
<pdfrwt beam="1">  1       21 0.11784786E-01 0.30000000E+03</pdfrwt>
<pdfrwt beam="2">0</pdfrwt>
<totfact> 0.64038280E+03</totfact>
</mgrwt>
</event>
<event>
 6    1  0.1280499E-001  0.3000000E+03  0.7818608E-02  0.1093470E+00
         21   -1    0    0  501  502  0.00000000000E+00  0.00000000000E+00  0.26727381264E+01  0.26727381264E+01  0.00000000000E+00 0. -1.
         13   -1    0    0    0    0 -0.00000000000E+00 -0.00000000000E+00 -0.10000000000E+04  0.10000000000E+04  0.00000000000E+00 0.  1.
    9000005    2    1    2  501    0  0.14781243127E+02 -0.29261659978E+02 -0.88615189334E+03  0.88676461735E+03  0.34027375364E+01 0.  0.
         13    1    3    3    0    0  0.10567857912E+02 -0.19150748005E+02 -0.62674426393E+03  0.62712582719E+03  0.00000000000E+00 0.  1.
          3    1    3    3  501    0  0.42133852157E+01 -0.10110911973E+02 -0.25940762941E+03  0.25963879015E+03  0.00000000000E+00 0.  1.
         -3    1    1    2    0  502 -0.14781243127E+02  0.29261659978E+02 -0.11117536854E+03  0.11590812078E+03  0.00000000000E+00 0. -1.
<mgrwt>
<rscale>  1 0.30000000E+03</rscale>
<asrwt>0</asrwt>
<pdfrwt beam="1">  1       21 0.97190682E-02 0.30000000E+03</pdfrwt>
<pdfrwt beam="2">0</pdfrwt>
<totfact> 0.90522098E+03</totfact>
</mgrwt>
</event>
<event>
 6    1  0.1280499E-001  0.3000000E+03  0.7818608E-02  0.1093470E+00
         21   -1    0    0  501  502  0.00000000000E+00  0.00000000000E+00  0.17172874408E+01  0.17172874408E+01  0.00000000000E+00 0. -1.
         13   -1    0    0    0    0 -0.00000000000E+00 -0.00000000000E+00 -0.10000000000E+04  0.10000000000E+04  0.00000000000E+00 0.  1.
    9000005    2    1    2  501    0 -0.89956774814E+01 -0.35659320701E+02 -0.72835770413E+03  0.72929845634E+03  0.43340372785E+01 0.  0.
         13    1    3    3    0    0 -0.89008775684E+01 -0.28847554723E+02 -0.60509551909E+03  0.60584816105E+03  0.00000000000E+00 0.  1.
          1    1    3    3  501    0 -0.94799912946E-01 -0.68117659773E+01 -0.12326218505E+03  0.12345029528E+03  0.00000000000E+00 0.  1.
         -1    1    1    2    0  502  0.89956774814E+01  0.35659320701E+02 -0.26992500843E+03  0.27241883110E+03  0.00000000000E+00 0. -1.
<mgrwt>
<rscale>  1 0.30000000E+03</rscale>
<asrwt>0</asrwt>
<pdfrwt beam="1">  1       21 0.62446948E-02 0.30000000E+03</pdfrwt>
<pdfrwt beam="2">0</pdfrwt>
<totfact> 0.19666800E+04</totfact>
</mgrwt>
</event>
<event>
 6    1  0.1280499E-001  0.3000000E+03  0.7818608E-02  0.1093470E+00
         21   -1    0    0  501  502  0.00000000000E+00  0.00000000000E+00  0.27828064600E+01  0.27828064600E+01  0.00000000000E+00 0. -1.
         13   -1    0    0    0    0 -0.00000000000E+00 -0.00000000000E+00 -0.10000000000E+04  0.10000000000E+04  0.00000000000E+00 0.  1.
    9000005    2    1    2  501    0 -0.42942782826E+01  0.38120630120E+02 -0.84199959908E+03  0.84289495546E+03  0.60792948778E+01 0.  0.
         13    1    3    3    0    0  0.90822566372E+00  0.18462355569E+02 -0.38719993975E+03  0.38764091218E+03  0.00000000000E+00 0.  1.
          3    1    3    3  501    0 -0.52025039463E+01  0.19658274550E+02 -0.45479965933E+03  0.45525404329E+03  0.00000000000E+00 0.  1.
         -3    1    1    2    0  502  0.42942782826E+01 -0.38120630120E+02 -0.15521759446E+03  0.15988785100E+03  0.00000000000E+00 0. -1.
<mgrwt>
<rscale>  1 0.30000000E+03</rscale>
<asrwt>0</asrwt>
<pdfrwt beam="1">  1       21 0.10119318E-01 0.30000000E+03</pdfrwt>
<pdfrwt beam="2">0</pdfrwt>
<totfact> 0.84227170E+03</totfact>
</mgrwt>
</event>
<event>
 6    1  0.1280499E-001  0.3000000E+03  0.7818608E-02  0.1093470E+00
         21   -1    0    0  501  502  0.00000000000E+00  0.00000000000E+00  0.11119160325E+01  0.11119160325E+01  0.00000000000E+00 0. -1.
         13   -1    0    0    0    0 -0.00000000000E+00 -0.00000000000E+00 -0.10000000000E+04  0.10000000000E+04  0.00000000000E+00 0.  1.
    9000005    2    1    2  501    0 -0.28796313530E+02 -0.96118547062E+01 -0.70469755277E+03  0.70535917459E+03  0.33628672443E+01 0.  0.
         13    1    3    3    0    0 -0.17897940700E+02 -0.66889575846E+01 -0.40803757604E+03  0.40848468992E+03  0.00000000000E+00 0.  1.
          3    1    3    3  501    0 -0.10898372830E+02 -0.29228971215E+01 -0.29665997673E+03  0.29687448467E+03  0.00000000000E+00 0.  1.
         -1    1    1    2    0  502  0.28796313530E+02  0.96118547062E+01 -0.29419053120E+03  0.29575274144E+03  0.00000000000E+00 0. -1.
<mgrwt>
<rscale>  1 0.30000000E+03</rscale>
<asrwt>0</asrwt>
<pdfrwt beam="1">  1       21 0.40433396E-02 0.30000000E+03</pdfrwt>
<pdfrwt beam="2">0</pdfrwt>
<totfact> 0.41290918E+04</totfact>
</mgrwt>
</event>
<event>
 6    1  0.1280499E-001  0.3000000E+03  0.7818608E-02  0.1093470E+00
         21   -1    0    0  501  502  0.00000000000E+00  0.00000000000E+00  0.14485988965E+01  0.14485988965E+01  0.00000000000E+00 0. -1.
         13   -1    0    0    0    0 -0.00000000000E+00 -0.00000000000E+00 -0.10000000000E+04  0.10000000000E+04  0.00000000000E+00 0.  1.
    9000005    2    1    2  501    0  0.32517028936E+02 -0.11913859749E+02 -0.70561484090E+03  0.70647211589E+03  0.33540426616E+01 0.  0.
         13    1    3    3    0    0  0.25074050601E+02 -0.93748841790E+01 -0.57199141821E+03  0.57261748049E+03  0.00000000000E+00 0.  1.
          3    1    3    3  501    0  0.74429783352E+01 -0.25389755703E+01 -0.13362342270E+03  0.13385463540E+03  0.00000000000E+00 0.  1.
         -3    1    1    2    0  502 -0.32517028936E+02  0.11913859749E+02 -0.29293656020E+03  0.29497648301E+03  0.00000000000E+00 0. -1.
<mgrwt>
<rscale>  1 0.30000000E+03</rscale>
<asrwt>0</asrwt>
<pdfrwt beam="1">  1       21 0.52676435E-02 0.30000000E+03</pdfrwt>
<pdfrwt beam="2">0</pdfrwt>
<totfact> 0.26351363E+04</totfact>
</mgrwt>
</event>
<event>
 6    1  0.1280499E-001  0.3000000E+03  0.7818608E-02  0.1093470E+00
         21   -1    0    0  501  502  0.00000000000E+00  0.00000000000E+00  0.60381657348E+01  0.60381657348E+01  0.00000000000E+00 0. -1.
         13   -1    0    0    0    0 -0.00000000000E+00 -0.00000000000E+00 -0.10000000000E+04  0.10000000000E+04  0.00000000000E+00 0.  1.
    9000005    2    1    2  501    0 -0.49082082652E+02  0.43854485212E+02 -0.76386333932E+03  0.76671080816E+03  0.50985754493E+01 0.  0.
         13    1    3    3    0    0 -0.13369723877E+02  0.13086226304E+02 -0.19305009034E+03  0.19395446944E+03  0.00000000000E+00 0.  1.
          3    1    3    3  501    0 -0.35712358775E+02  0.30768258909E+02 -0.57081324899E+03  0.57275633872E+03  0.00000000000E+00 0.  1.
         -3    1    1    2    0  502  0.49082082652E+02 -0.43854485212E+02 -0.23009849494E+03  0.23932735758E+03  0.00000000000E+00 0. -1.
<mgrwt>
<rscale>  1 0.30000000E+03</rscale>
<asrwt>0</asrwt>
<pdfrwt beam="1">  1       21 0.21957013E-01 0.30000000E+03</pdfrwt>
<pdfrwt beam="2">0</pdfrwt>
<totfact> 0.20061330E+03</totfact>
</mgrwt>
</event>
<event>
 6    1  0.1280499E-001  0.3000000E+03  0.7818608E-02  0.1093470E+00
         21   -1    0    0  501  502  0.00000000000E+00  0.00000000000E+00  0.45029701657E+01  0.45029701657E+01  0.00000000000E+00 0. -1.
         13   -1    0    0    0    0 -0.00000000000E+00 -0.00000000000E+00 -0.10000000000E+04  0.10000000000E+04  0.00000000000E+00 0.  1.
    9000005    2    1    2  501    0 -0.54086762684E+02 -0.31640993935E+02 -0.67680174933E+03  0.67970578390E+03  0.35797160045E+01 0.  0.
         13    1    3    3    0    0 -0.51393777564E+02 -0.30678979206E+02 -0.63974496784E+03  0.64253882686E+03  0.00000000000E+00 0.  1.
          3    1    3    3  501    0 -0.26929851201E+01 -0.96201472865E+00 -0.37056781490E+02  0.37166957040E+02  0.00000000000E+00 0.  1.
         -1    1    1    2    0  502  0.54086762684E+02  0.31640993935E+02 -0.31869528050E+03  0.32479718627E+03  0.00000000000E+00 0. -1.
<mgrwt>
<rscale>  1 0.30000000E+03</rscale>
<asrwt>0</asrwt>
<pdfrwt beam="1">  1       21 0.16374471E-01 0.30000000E+03</pdfrwt>
<pdfrwt beam="2">0</pdfrwt>
<totfact> 0.34983761E+03</totfact>
</mgrwt>
</event>
<event>
 6    1  0.1280499E-001  0.3000000E+03  0.7818608E-02  0.1093470E+00
         21   -1    0    0  501  502  0.00000000000E+00  0.00000000000E+00  0.12870816680E+01  0.12870816680E+01  0.00000000000E+00 0. -1.
         13   -1    0    0    0    0 -0.00000000000E+00 -0.00000000000E+00 -0.10000000000E+04  0.10000000000E+04  0.00000000000E+00 0.  1.
    9000005    2    1    2  501    0  0.76746057737E+01 -0.31726482987E+02 -0.70309973796E+03  0.70387722691E+03  0.53328930986E+01 0.  0.
         13    1    3    3    0    0  0.20823983518E+01 -0.15018773121E+02 -0.27905268258E+03  0.27946430825E+03  0.00000000000E+00 0.  1.
          1    1    3    3  501    0  0.55922074219E+01 -0.16707709866E+02 -0.42404705538E+03  0.42441291866E+03  0.00000000000E+00 0.  1.
         -3    1    1    2    0  502 -0.76746057737E+01  0.31726482987E+02 -0.29561318037E+03  0.29740985476E+03  0.00000000000E+00 0. -1.
<mgrwt>
<rscale>  1 0.30000000E+03</rscale>
<asrwt>0</asrwt>
<pdfrwt beam="1">  1       21 0.46803068E-02 0.30000000E+03</pdfrwt>
<pdfrwt beam="2">0</pdfrwt>
<totfact> 0.32233611E+04</totfact>
</mgrwt>
</event>
<event>
 6    1  0.1280499E-001  0.3000000E+03  0.7818608E-02  0.1093470E+00
         21   -1    0    0  501  502  0.00000000000E+00  0.00000000000E+00  0.18902662606E+01  0.18902662606E+01  0.00000000000E+00 0. -1.
         13   -1    0    0    0    0 -0.00000000000E+00 -0.00000000000E+00 -0.10000000000E+04  0.10000000000E+04  0.00000000000E+00 0.  1.
    9000005    2    1    2  501    0  0.35529466535E+02  0.31125392775E+00 -0.78332146256E+03  0.78418302865E+03  0.93845003221E+01 0.  0.
         13    1    3    3    0    0  0.42869051150E+01  0.16559122883E+01 -0.17291930489E+03  0.17298036191E+03  0.00000000000E+00 0.  1.
          1    1    3    3  501    0  0.31242561420E+02 -0.13446583605E+01 -0.61040215767E+03  0.61120266675E+03  0.00000000000E+00 0.  1.
         -1    1    1    2    0  502 -0.35529466535E+02 -0.31125392775E+00 -0.21478827118E+03  0.21770723761E+03  0.00000000000E+00 0. -1.
<mgrwt>
<rscale>  1 0.30000000E+03</rscale>
<asrwt>0</asrwt>
<pdfrwt beam="1">  1       21 0.68737100E-02 0.30000000E+03</pdfrwt>
<pdfrwt beam="2">0</pdfrwt>
<totfact> 0.16654336E+04</totfact>
</mgrwt>
</event>
<event>
 6    1  0.1280499E-001  0.3000000E+03  0.7818608E-02  0.1093470E+00
         21   -1    0    0  501  502  0.00000000000E+00  0.00000000000E+00  0.11591455051E+01  0.11591455051E+01  0.00000000000E+00 0. -1.
         13   -1    0    0    0    0 -0.00000000000E+00 -0.00000000000E+00 -0.10000000000E+04  0.10000000000E+04  0.00000000000E+00 0.  1.
    9000005    2    1    2  501    0  0.11298688638E+02  0.30853586016E+02 -0.62717402652E+03  0.62804276265E+03  0.32936371702E+01 0.  0.
         13    1    3    3    0    0  0.64511234047E+01  0.12948927601E+02 -0.26898625113E+03  0.26937500815E+03  0.00000000000E+00 0.  1.
          3    1    3    3  501    0  0.48475652332E+01  0.17904658415E+02 -0.35818777539E+03  0.35866775450E+03  0.00000000000E+00 0.  1.
         -3    1    1    2    0  502 -0.11298688638E+02 -0.30853586016E+02 -0.37166682797E+03  0.37311638285E+03  0.00000000000E+00 0. -1.
<mgrwt>
<rscale>  1 0.30000000E+03</rscale>
<asrwt>0</asrwt>
<pdfrwt beam="1">  1       21 0.42150835E-02 0.30000000E+03</pdfrwt>
<pdfrwt beam="2">0</pdfrwt>
<totfact> 0.38492708E+04</totfact>
</mgrwt>
</event>
<event>
 6    1  0.1280499E-001  0.3000000E+03  0.7818608E-02  0.1093470E+00
         21   -1    0    0  501  502  0.00000000000E+00  0.00000000000E+00  0.50798024087E+01  0.50798024087E+01  0.00000000000E+00 0. -1.
         13   -1    0    0    0    0 -0.00000000000E+00 -0.00000000000E+00 -0.10000000000E+04  0.10000000000E+04  0.00000000000E+00 0.  1.
    9000005    2    1    2  501    0  0.45335565478E+02 -0.35991367229E+02 -0.79045618442E+03  0.79257986195E+03  0.33415671297E+01 0.  0.
         13    1    3    3    0    0  0.41049739170E+02 -0.32605422992E+02 -0.70141097926E+03  0.70336729844E+03  0.00000000000E+00 0.  1.
          1    1    3    3  501    0  0.42858263079E+01 -0.33859442372E+01 -0.89045205163E+02  0.89212563510E+02  0.00000000000E+00 0.  1.
         -1    1    1    2    0  502 -0.45335565478E+02  0.35991367229E+02 -0.20446401317E+03  0.21249994046E+03  0.00000000000E+00 0. -1.
<mgrwt>
<rscale>  1 0.30000000E+03</rscale>
<asrwt>0</asrwt>
<pdfrwt beam="1">  1       21 0.18472048E-01 0.30000000E+03</pdfrwt>
<pdfrwt beam="2">0</pdfrwt>
<totfact> 0.27899515E+03</totfact>
</mgrwt>
</event>
<event>
 6    1  0.1280499E-001  0.3000000E+03  0.7818608E-02  0.1093470E+00
         21   -1    0    0  501  502  0.00000000000E+00  0.00000000000E+00  0.30755324667E+01  0.30755324667E+01  0.00000000000E+00 0. -1.
         13   -1    0    0    0    0 -0.00000000000E+00 -0.00000000000E+00 -0.10000000000E+04  0.10000000000E+04  0.00000000000E+00 0.  1.
    9000005    2    1    2  501    0 -0.27813123352E+02 -0.25054449006E+02 -0.86840245347E+03  0.86921290383E+03  0.26373761428E+01 0.  0.
         13    1    3    3    0    0 -0.41233045287E+01 -0.37656468944E+01 -0.10924541150E+03  0.10938803258E+03  0.00000000000E+00 0.  1.
          3    1    3    3  501    0 -0.23689818823E+02 -0.21288802112E+02 -0.75915704197E+03  0.75982487126E+03  0.00000000000E+00 0.  1.
         -1    1    1    2    0  502  0.27813123352E+02  0.25054449006E+02 -0.12852201406E+03  0.13386262863E+03  0.00000000000E+00 0. -1.
<mgrwt>
<rscale>  1 0.30000000E+03</rscale>
<asrwt>0</asrwt>
<pdfrwt beam="1">  1       21 0.11183778E-01 0.30000000E+03</pdfrwt>
<pdfrwt beam="2">0</pdfrwt>
<totfact> 0.70388789E+03</totfact>
</mgrwt>
</event>
<event>
 6    1  0.1280499E-001  0.3000000E+03  0.7818608E-02  0.1093470E+00
         21   -1    0    0  501  502  0.00000000000E+00  0.00000000000E+00  0.17632709052E+01  0.17632709052E+01  0.00000000000E+00 0. -1.
         13   -1    0    0    0    0 -0.00000000000E+00 -0.00000000000E+00 -0.10000000000E+04  0.10000000000E+04  0.00000000000E+00 0.  1.
    9000005    2    1    2  501    0  0.28359168369E+02  0.22553083741E+02 -0.75140018439E+03  0.75228148035E+03  0.35077855602E+01 0.  0.
         13    1    3    3    0    0  0.12228485237E+02  0.90602469821E+01 -0.35011099263E+03  0.35044162294E+03  0.00000000000E+00 0.  1.
          3    1    3    3  501    0  0.16130683132E+02  0.13492836759E+02 -0.40128919176E+03  0.40183985741E+03  0.00000000000E+00 0.  1.
         -3    1    1    2    0  502 -0.28359168369E+02 -0.22553083741E+02 -0.24683654471E+03  0.24948179056E+03  0.00000000000E+00 0. -1.
<mgrwt>
<rscale>  1 0.30000000E+03</rscale>
<asrwt>0</asrwt>
<pdfrwt beam="1">  1       21 0.64119077E-02 0.30000000E+03</pdfrwt>
<pdfrwt beam="2">0</pdfrwt>
<totfact> 0.18788560E+04</totfact>
</mgrwt>
</event>
<event>
 6    1  0.1280499E-001  0.3000000E+03  0.7818608E-02  0.1093470E+00
         21   -1    0    0  501  502  0.00000000000E+00  0.00000000000E+00  0.22883461640E+02  0.22883461640E+02  0.00000000000E+00 0. -1.
         13   -1    0    0    0    0 -0.00000000000E+00 -0.00000000000E+00 -0.10000000000E+04  0.10000000000E+04  0.00000000000E+00 0.  1.
    9000005    2    1    2  501    0  0.11275210405E+03  0.24590485339E+02 -0.15798970387E+03  0.19566734725E+03  0.26898534852E+01 0.  0.
         13    1    3    3    0    0  0.35026411660E+02  0.66243827475E+01 -0.47529547583E+02  0.59412034589E+02  0.00000000000E+00 0.  1.
          1    1    3    3  501    0  0.77725692390E+02  0.17966102591E+02 -0.11046015629E+03  0.13625531266E+03  0.00000000000E+00 0.  1.
         -3    1    1    2    0  502 -0.11275210405E+03 -0.24590485339E+02 -0.81912683449E+03  0.82721611439E+03  0.00000000000E+00 0. -1.
<mgrwt>
<rscale>  1 0.30000000E+03</rscale>
<asrwt>0</asrwt>
<pdfrwt beam="1">  1       21 0.83212763E-01 0.30000000E+03</pdfrwt>
<pdfrwt beam="2">0</pdfrwt>
<totfact> 0.11698538E+02</totfact>
</mgrwt>
</event>
<event>
 6    1  0.1280499E-001  0.3000000E+03  0.7818608E-02  0.1093470E+00
         21   -1    0    0  501  502  0.00000000000E+00  0.00000000000E+00  0.41648565675E+01  0.41648565675E+01  0.00000000000E+00 0. -1.
         13   -1    0    0    0    0 -0.00000000000E+00 -0.00000000000E+00 -0.10000000000E+04  0.10000000000E+04  0.00000000000E+00 0.  1.
    9000005    2    1    2  501    0 -0.15451015926E+02 -0.40282829615E+02 -0.87118036015E+03  0.87225482947E+03  0.34390928001E+01 0.  0.
         13    1    3    3    0    0  0.10492488816E+00 -0.77151073763E-01 -0.56742915950E+01  0.56757859918E+01  0.00000000000E+00 0.  1.
          3    1    3    3  501    0 -0.15555940814E+02 -0.40205678541E+02 -0.86550606856E+03  0.86657904348E+03  0.00000000000E+00 0.  1.
         -1    1    1    2    0  502  0.15451015926E+02  0.40282829615E+02 -0.12465478328E+03  0.13191002710E+03  0.00000000000E+00 0. -1.
<mgrwt>
<rscale>  1 0.30000000E+03</rscale>
<asrwt>0</asrwt>
<pdfrwt beam="1">  1       21 0.15144965E-01 0.30000000E+03</pdfrwt>
<pdfrwt beam="2">0</pdfrwt>
<totfact> 0.40453346E+03</totfact>
</mgrwt>
</event>
<event>
 6    1  0.1280499E-001  0.3000000E+03  0.7818608E-02  0.1093470E+00
         21   -1    0    0  501  502  0.00000000000E+00  0.00000000000E+00  0.21630987918E+01  0.21630987918E+01  0.00000000000E+00 0. -1.
         13   -1    0    0    0    0 -0.00000000000E+00 -0.00000000000E+00 -0.10000000000E+04  0.10000000000E+04  0.00000000000E+00 0.  1.
    9000005    2    1    2  501    0  0.12518535625E+02  0.40347415306E+02 -0.70763783714E+03  0.70890532065E+03  0.32889867547E+01 0.  0.
         13    1    3    3    0    0  0.54682607386E+01  0.12769322471E+02 -0.22281186917E+03  0.22324445462E+03  0.00000000000E+00 0.  1.
          1    1    3    3  501    0  0.70502748868E+01  0.27578092835E+02 -0.48482596797E+03  0.48566086603E+03  0.00000000000E+00 0.  1.
         -3    1    1    2    0  502 -0.12518535625E+02 -0.40347415306E+02 -0.29019906407E+03  0.29325777814E+03  0.00000000000E+00 0. -1.
<mgrwt>
<rscale>  1 0.30000000E+03</rscale>
<asrwt>0</asrwt>
<pdfrwt beam="1">  1       21 0.78658304E-02 0.30000000E+03</pdfrwt>
<pdfrwt beam="2">0</pdfrwt>
<totfact> 0.13158861E+04</totfact>
</mgrwt>
</event>
<event>
 6    1  0.1280499E-001  0.3000000E+03  0.7818608E-02  0.1093470E+00
         21   -1    0    0  501  502  0.00000000000E+00  0.00000000000E+00  0.13434131869E+01  0.13434131869E+01  0.00000000000E+00 0. -1.
         13   -1    0    0    0    0 -0.00000000000E+00 -0.00000000000E+00 -0.10000000000E+04  0.10000000000E+04  0.00000000000E+00 0.  1.
    9000005    2    1    2  501    0 -0.35747326845E+02 -0.71546734937E+01 -0.45792193170E+03  0.45938121158E+03  0.30888982226E+01 0.  0.
         13    1    3    3    0    0 -0.11014624874E+02 -0.15161705643E+01 -0.12431916157E+03  0.12481536230E+03  0.00000000000E+00 0.  1.
          3    1    3    3  501    0 -0.24732701971E+02 -0.56385029294E+01 -0.33360277013E+03  0.33456584927E+03  0.00000000000E+00 0.  1.
         -1    1    1    2    0  502  0.35747326845E+02  0.71546734937E+01 -0.54073465512E+03  0.54196220161E+03  0.00000000000E+00 0. -1.
<mgrwt>
<rscale>  1 0.30000000E+03</rscale>
<asrwt>0</asrwt>
<pdfrwt beam="1">  1       21 0.48851492E-02 0.30000000E+03</pdfrwt>
<pdfrwt beam="2">0</pdfrwt>
<totfact> 0.29967985E+04</totfact>
</mgrwt>
</event>
<event>
 6    1  0.1280499E-001  0.3000000E+03  0.7818608E-02  0.1093470E+00
         21   -1    0    0  501  502  0.00000000000E+00  0.00000000000E+00  0.25354407229E+02  0.25354407229E+02  0.00000000000E+00 0. -1.
         13   -1    0    0    0    0 -0.00000000000E+00 -0.00000000000E+00 -0.10000000000E+04  0.10000000000E+04  0.00000000000E+00 0.  1.
    9000005    2    1    2  501    0  0.10950990484E+03  0.31400695799E+02 -0.84548609201E+03  0.85313187795E+03  0.29742967268E+01 0.  0.
         13    1    3    3    0    0  0.45480250302E+02  0.13246413647E+02 -0.34073122735E+03  0.34400827016E+03  0.00000000000E+00 0.  1.
          3    1    3    3  501    0  0.64029654535E+02  0.18154282153E+02 -0.50475486465E+03  0.50912360779E+03  0.00000000000E+00 0.  1.
         -1    1    1    2    0  502 -0.10950990484E+03 -0.31400695799E+02 -0.12915950076E+03  0.17222252928E+03  0.00000000000E+00 0. -1.
<mgrwt>
<rscale>  1 0.30000000E+03</rscale>
<asrwt>0</asrwt>
<pdfrwt beam="1">  1       21 0.92198039E-01 0.30000000E+03</pdfrwt>
<pdfrwt beam="2">0</pdfrwt>
<totfact> 0.90534471E+01</totfact>
</mgrwt>
</event>
<event>
 6    1  0.1280499E-001  0.3000000E+03  0.7818608E-02  0.1093470E+00
         21   -1    0    0  501  502  0.00000000000E+00  0.00000000000E+00  0.29370983845E+01  0.29370983845E+01  0.00000000000E+00 0. -1.
         13   -1    0    0    0    0 -0.00000000000E+00 -0.00000000000E+00 -0.10000000000E+04  0.10000000000E+04  0.00000000000E+00 0.  1.
    9000005    2    1    2  501    0 -0.35858136387E+02 -0.33192788542E+02 -0.71468426777E+03  0.71636204711E+03  0.36623484303E+01 0.  0.
         13    1    3    3    0    0 -0.29695828732E+02 -0.26557982422E+02 -0.59962948866E+03  0.60095148917E+03  0.00000000000E+00 0.  1.
          1    1    3    3  501    0 -0.61623076545E+01 -0.66348061193E+01 -0.11505477911E+03  0.11541055794E+03  0.00000000000E+00 0.  1.
         -3    1    1    2    0  502  0.35858136387E+02  0.33192788542E+02 -0.28237863385E+03  0.28657505127E+03  0.00000000000E+00 0. -1.
<mgrwt>
<rscale>  1 0.30000000E+03</rscale>
<asrwt>0</asrwt>
<pdfrwt beam="1">  1       21 0.10680380E-01 0.30000000E+03</pdfrwt>
<pdfrwt beam="2">0</pdfrwt>
<totfact> 0.76466418E+03</totfact>
</mgrwt>
</event>
<event>
 6    1  0.1280499E-001  0.3000000E+03  0.7818608E-02  0.1093470E+00
         21   -1    0    0  501  502  0.00000000000E+00  0.00000000000E+00  0.99185534119E+00  0.99185534119E+00  0.00000000000E+00 0. -1.
         13   -1    0    0    0    0 -0.00000000000E+00 -0.00000000000E+00 -0.10000000000E+04  0.10000000000E+04  0.00000000000E+00 0.  1.
    9000005    2    1    2  501    0 -0.29101337200E+02  0.97910337669E+01 -0.39893381533E+03  0.40013251000E+03  0.38838605843E+01 0.  0.
         13    1    3    3    0    0 -0.24306464877E+02  0.93090463554E+01 -0.34751768526E+03  0.34849103883E+03  0.00000000000E+00 0.  1.
          1    1    3    3  501    0 -0.47948723231E+01  0.48198741152E+00 -0.51416130073E+02  0.51641471165E+02  0.00000000000E+00 0.  1.
         -3    1    1    2    0  502  0.29101337200E+02 -0.97910337669E+01 -0.60007432932E+03  0.60085934534E+03  0.00000000000E+00 0. -1.
<mgrwt>
<rscale>  1 0.30000000E+03</rscale>
<asrwt>0</asrwt>
<pdfrwt beam="1">  1       21 0.36067543E-02 0.30000000E+03</pdfrwt>
<pdfrwt beam="2">0</pdfrwt>
<totfact> 0.50032789E+04</totfact>
</mgrwt>
</event>
<event>
 6    1  0.1280499E-001  0.3000000E+03  0.7818608E-02  0.1093470E+00
         21   -1    0    0  501  502  0.00000000000E+00  0.00000000000E+00  0.28221817907E+01  0.28221817907E+01  0.00000000000E+00 0. -1.
         13   -1    0    0    0    0 -0.00000000000E+00 -0.00000000000E+00 -0.10000000000E+04  0.10000000000E+04  0.00000000000E+00 0.  1.
    9000005    2    1    2  501    0  0.27294449221E+02 -0.20508724071E+02 -0.88260228779E+03  0.88326823207E+03  0.32212828513E+01 0.  0.
         13    1    3    3    0    0  0.82818714688E+01 -0.47118890601E+01 -0.26640318819E+03  0.26657353577E+03  0.00000000000E+00 0.  1.
          3    1    3    3  501    0  0.19012577752E+02 -0.15796835011E+02 -0.61619909959E+03  0.61669469630E+03  0.00000000000E+00 0.  1.
         -3    1    1    2    0  502 -0.27294449221E+02  0.20508724071E+02 -0.11457553042E+03  0.11955394972E+03  0.00000000000E+00 0. -1.
<mgrwt>
<rscale>  1 0.30000000E+03</rscale>
<asrwt>0</asrwt>
<pdfrwt beam="1">  1       21 0.10262501E-01 0.30000000E+03</pdfrwt>
<pdfrwt beam="2">0</pdfrwt>
<totfact> 0.82136504E+03</totfact>
</mgrwt>
</event>
<event>
 6    1  0.1280499E-001  0.3000000E+03  0.7818608E-02  0.1093470E+00
         21   -1    0    0  501  502  0.00000000000E+00  0.00000000000E+00  0.19117359878E+01  0.19117359878E+01  0.00000000000E+00 0. -1.
         13   -1    0    0    0    0 -0.00000000000E+00 -0.00000000000E+00 -0.10000000000E+04  0.10000000000E+04  0.00000000000E+00 0.  1.
    9000005    2    1    2  501    0 -0.36144315188E+02 -0.24215437461E+02 -0.53901624776E+03  0.54078277893E+03  0.38340195076E+01 0.  0.
         13    1    3    3    0    0 -0.21359741468E+02 -0.12083631846E+02 -0.29743961634E+03  0.29845029415E+03  0.00000000000E+00 0.  1.
          1    1    3    3  501    0 -0.14784573720E+02 -0.12131805615E+02 -0.24157663142E+03  0.24233248478E+03  0.00000000000E+00 0.  1.
         -3    1    1    2    0  502  0.36144315188E+02  0.24215437461E+02 -0.45907201625E+03  0.46112895706E+03  0.00000000000E+00 0. -1.
<mgrwt>
<rscale>  1 0.30000000E+03</rscale>
<asrwt>0</asrwt>
<pdfrwt beam="1">  1       21 0.69517819E-02 0.30000000E+03</pdfrwt>
<pdfrwt beam="2">0</pdfrwt>
<totfact> 0.16330502E+04</totfact>
</mgrwt>
</event>
<event>
 6    1  0.1280499E-001  0.3000000E+03  0.7818608E-02  0.1093470E+00
         21   -1    0    0  501  502  0.00000000000E+00  0.00000000000E+00  0.98509347332E+00  0.98509347332E+00  0.00000000000E+00 0. -1.
         13   -1    0    0    0    0 -0.00000000000E+00 -0.00000000000E+00 -0.10000000000E+04  0.10000000000E+04  0.00000000000E+00 0.  1.
    9000005    2    1    2  501    0 -0.18358411087E+02 -0.25120463048E+02 -0.55339335249E+03  0.55427865929E+03  0.35440992513E+01 0.  0.
         13    1    3    3    0    0 -0.18319698487E+02 -0.24712464419E+02 -0.55017092515E+03  0.55103027515E+03  0.00000000000E+00 0.  1.
          3    1    3    3  501    0 -0.38712599553E-01 -0.40799862920E+00 -0.32224273388E+01  0.32483841369E+01  0.00000000000E+00 0.  1.
         -1    1    1    2    0  502  0.18358411087E+02  0.25120463048E+02 -0.44562155404E+03  0.44670643419E+03  0.00000000000E+00 0. -1.
<mgrwt>
<rscale>  1 0.30000000E+03</rscale>
<asrwt>0</asrwt>
<pdfrwt beam="1">  1       21 0.35821656E-02 0.30000000E+03</pdfrwt>
<pdfrwt beam="2">0</pdfrwt>
<totfact> 0.50610023E+04</totfact>
</mgrwt>
</event>
<event>
 6    1  0.1280499E-001  0.3000000E+03  0.7818608E-02  0.1093470E+00
         21   -1    0    0  501  502  0.00000000000E+00  0.00000000000E+00  0.11500673007E+01  0.11500673007E+01  0.00000000000E+00 0. -1.
         13   -1    0    0    0    0 -0.00000000000E+00 -0.00000000000E+00 -0.10000000000E+04  0.10000000000E+04  0.00000000000E+00 0.  1.
    9000005    2    1    2  501    0 -0.85956905544E+01 -0.31736465951E+02 -0.61149707033E+03  0.61240422597E+03  0.54018325607E+01 0.  0.
         13    1    3    3    0    0 -0.46341688016E+01 -0.10127201007E+02 -0.23977075666E+03  0.24002927212E+03  0.00000000000E+00 0.  1.
          1    1    3    3  501    0 -0.39615217528E+01 -0.21609264945E+02 -0.37172631367E+03  0.37237495386E+03  0.00000000000E+00 0.  1.
         -1    1    1    2    0  502  0.85956905544E+01  0.31736465951E+02 -0.38735286237E+03  0.38874584133E+03  0.00000000000E+00 0. -1.
<mgrwt>
<rscale>  1 0.30000000E+03</rscale>
<asrwt>0</asrwt>
<pdfrwt beam="1">  1       21 0.41820717E-02 0.30000000E+03</pdfrwt>
<pdfrwt beam="2">0</pdfrwt>
<totfact> 0.39007179E+04</totfact>
</mgrwt>
</event>
<event>
 6    1  0.1280499E-001  0.3000000E+03  0.7818608E-02  0.1093470E+00
         21   -1    0    0  501  502  0.00000000000E+00  0.00000000000E+00  0.16429720062E+01  0.16429720062E+01  0.00000000000E+00 0. -1.
         13   -1    0    0    0    0 -0.00000000000E+00 -0.00000000000E+00 -0.10000000000E+04  0.10000000000E+04  0.00000000000E+00 0.  1.
    9000005    2    1    2  501    0 -0.11960294835E+02 -0.33190283758E+02 -0.74502074458E+03  0.74586197959E+03  0.30885517604E+01 0.  0.
         13    1    3    3    0    0 -0.42344019489E+01 -0.79772848654E+01 -0.18144343381E+03  0.18166806793E+03  0.00000000000E+00 0.  1.
          3    1    3    3  501    0 -0.77258928858E+01 -0.25212998892E+02 -0.56357731078E+03  0.56419391166E+03  0.00000000000E+00 0.  1.
         -1    1    1    2    0  502  0.11960294835E+02  0.33190283758E+02 -0.25333628341E+03  0.25578099242E+03  0.00000000000E+00 0. -1.
<mgrwt>
<rscale>  1 0.30000000E+03</rscale>
<asrwt>0</asrwt>
<pdfrwt beam="1">  1       21 0.59744563E-02 0.30000000E+03</pdfrwt>
<pdfrwt beam="2">0</pdfrwt>
<totfact> 0.21227269E+04</totfact>
</mgrwt>
</event>
<event>
 6    1  0.1280499E-001  0.3000000E+03  0.7818608E-02  0.1093470E+00
         21   -1    0    0  501  502  0.00000000000E+00  0.00000000000E+00  0.27531633572E+01  0.27531633572E+01  0.00000000000E+00 0. -1.
         13   -1    0    0    0    0 -0.00000000000E+00 -0.00000000000E+00 -0.10000000000E+04  0.10000000000E+04  0.00000000000E+00 0.  1.
    9000005    2    1    2  501    0 -0.34232647144E+02 -0.38701458363E+02 -0.41455627020E+03  0.41777626362E+03  0.32292829613E+01 0.  0.
         13    1    3    3    0    0 -0.16418872078E+02 -0.17058474816E+02 -0.20005782405E+03  0.20145397462E+03  0.00000000000E+00 0.  1.
          1    1    3    3  501    0 -0.17813775066E+02 -0.21642983547E+02 -0.21449844615E+03  0.21632228900E+03  0.00000000000E+00 0.  1.
         -3    1    1    2    0  502  0.34232647144E+02  0.38701458363E+02 -0.58269056644E+03  0.58497689974E+03  0.00000000000E+00 0. -1.
<mgrwt>
<rscale>  1 0.30000000E+03</rscale>
<asrwt>0</asrwt>
<pdfrwt beam="1">  1       21 0.10011524E-01 0.30000000E+03</pdfrwt>
<pdfrwt beam="2">0</pdfrwt>
<totfact> 0.85855098E+03</totfact>
</mgrwt>
</event>
<event>
 6    1  0.1280499E-001  0.3000000E+03  0.7818608E-02  0.1093470E+00
         21   -1    0    0  501  502  0.00000000000E+00  0.00000000000E+00  0.18600925286E+01  0.18600925286E+01  0.00000000000E+00 0. -1.
         13   -1    0    0    0    0 -0.00000000000E+00 -0.00000000000E+00 -0.10000000000E+04  0.10000000000E+04  0.00000000000E+00 0.  1.
    9000005    2    1    2  501    0  0.12879464714E+02  0.40883916910E+02 -0.54848732500E+03  0.55016902531E+03  0.31992908891E+01 0.  0.
         13    1    3    3    0    0  0.12379547572E+02  0.35907510960E+02 -0.48359446205E+03  0.48508371058E+03  0.00000000000E+00 0.  1.
          1    1    3    3  501    0  0.49991714132E+00  0.49764059502E+01 -0.64892862943E+02  0.65085314736E+02  0.00000000000E+00 0.  1.
         -1    1    1    2    0  502 -0.12879464714E+02 -0.40883916910E+02 -0.44965258248E+03  0.45169106721E+03  0.00000000000E+00 0. -1.
<mgrwt>
<rscale>  1 0.30000000E+03</rscale>
<asrwt>0</asrwt>
<pdfrwt beam="1">  1       21 0.67639871E-02 0.30000000E+03</pdfrwt>
<pdfrwt beam="2">0</pdfrwt>
<totfact> 0.17126361E+04</totfact>
</mgrwt>
</event>
<event>
 6    1  0.1280499E-001  0.3000000E+03  0.7818608E-02  0.1093470E+00
         21   -1    0    0  501  502  0.00000000000E+00  0.00000000000E+00  0.22669736763E+01  0.22669736763E+01  0.00000000000E+00 0. -1.
         13   -1    0    0    0    0 -0.00000000000E+00 -0.00000000000E+00 -0.10000000000E+04  0.10000000000E+04  0.00000000000E+00 0.  1.
    9000005    2    1    2  501    0 -0.13789710995E+02 -0.31456558561E+02 -0.84545822459E+03  0.84616672880E+03  0.43419124861E+01 0.  0.
         13    1    3    3    0    0 -0.11249078874E+01 -0.63359321259E+00 -0.34426470195E+02  0.34450670649E+02  0.00000000000E+00 0.  1.
          3    1    3    3  501    0 -0.12664803108E+02 -0.30822965348E+02 -0.81103175439E+03  0.81171605816E+03  0.00000000000E+00 0.  1.
         -1    1    1    2    0  502  0.13789710995E+02  0.31456558561E+02 -0.15227480173E+03  0.15610024487E+03  0.00000000000E+00 0. -1.
<mgrwt>
<rscale>  1 0.30000000E+03</rscale>
<asrwt>0</asrwt>
<pdfrwt beam="1">  1       21 0.82435580E-02 0.30000000E+03</pdfrwt>
<pdfrwt beam="2">0</pdfrwt>
<totfact> 0.12117825E+04</totfact>
</mgrwt>
</event>
<event>
 6    1  0.1280499E-001  0.3000000E+03  0.7818608E-02  0.1093470E+00
         21   -1    0    0  501  502  0.00000000000E+00  0.00000000000E+00  0.19749840964E+01  0.19749840964E+01  0.00000000000E+00 0. -1.
         13   -1    0    0    0    0 -0.00000000000E+00 -0.00000000000E+00 -0.10000000000E+04  0.10000000000E+04  0.00000000000E+00 0.  1.
    9000005    2    1    2  501    0  0.17325365106E+01 -0.36916968605E+02 -0.77677990286E+03  0.77766434168E+03  0.29910844246E+01 0.  0.
         13    1    3    3    0    0  0.30301627959E+00 -0.30023938127E+02 -0.63723841093E+03  0.63794539033E+03  0.00000000000E+00 0.  1.
          3    1    3    3  501    0  0.14295202310E+01 -0.68930304779E+01 -0.13954149193E+03  0.13971895136E+03  0.00000000000E+00 0.  1.
         -1    1    1    2    0  502 -0.17325365106E+01  0.36916968605E+02 -0.22124511304E+03  0.22431064241E+03  0.00000000000E+00 0. -1.
<mgrwt>
<rscale>  1 0.30000000E+03</rscale>
<asrwt>0</asrwt>
<pdfrwt beam="1">  1       21 0.71817755E-02 0.30000000E+03</pdfrwt>
<pdfrwt beam="2">0</pdfrwt>
<totfact> 0.15430479E+04</totfact>
</mgrwt>
</event>
<event>
 6    1  0.1280499E-001  0.3000000E+03  0.7818608E-02  0.1093470E+00
         21   -1    0    0  501  502  0.00000000000E+00  0.00000000000E+00  0.12137397389E+01  0.12137397389E+01  0.00000000000E+00 0. -1.
         13   -1    0    0    0    0 -0.00000000000E+00 -0.00000000000E+00 -0.10000000000E+04  0.10000000000E+04  0.00000000000E+00 0.  1.
    9000005    2    1    2  501    0 -0.15403073561E+01  0.34420006985E+02 -0.43601531728E+03  0.43738908287E+03  0.35698017908E+01 0.  0.
         13    1    3    3    0    0 -0.18845990961E+01  0.84039993023E+01 -0.10445157402E+03  0.10480606010E+03  0.00000000000E+00 0.  1.
          3    1    3    3  501    0  0.34429173997E+00  0.26016007683E+02 -0.33156374326E+03  0.33258302277E+03  0.00000000000E+00 0.  1.
         -1    1    1    2    0  502  0.15403073561E+01 -0.34420006985E+02 -0.56277094299E+03  0.56382465687E+03  0.00000000000E+00 0. -1.
<mgrwt>
<rscale>  1 0.30000000E+03</rscale>
<asrwt>0</asrwt>
<pdfrwt beam="1">  1       21 0.44136084E-02 0.30000000E+03</pdfrwt>
<pdfrwt beam="2">0</pdfrwt>
<totfact> 0.35609620E+04</totfact>
</mgrwt>
</event>
<event>
 6    1  0.1280499E-001  0.3000000E+03  0.7818608E-02  0.1093470E+00
         21   -1    0    0  501  502  0.00000000000E+00  0.00000000000E+00  0.41985662315E+01  0.41985662315E+01  0.00000000000E+00 0. -1.
         13   -1    0    0    0    0 -0.00000000000E+00 -0.00000000000E+00 -0.10000000000E+04  0.10000000000E+04  0.00000000000E+00 0.  1.
    9000005    2    1    2  501    0  0.24730442632E+02  0.24972151033E+02 -0.91966477803E+03  0.92034158401E+03  0.31818535729E+01 0.  0.
         13    1    3    3    0    0  0.17840175652E+02  0.18515124495E+02 -0.63535677925E+03  0.63587681090E+03  0.00000000000E+00 0.  1.
          1    1    3    3  501    0  0.68902669804E+01  0.64570265378E+01 -0.28430799878E+03  0.28446477311E+03  0.00000000000E+00 0.  1.
         -1    1    1    2    0  502 -0.24730442632E+02 -0.24972151033E+02 -0.76136655740E+02  0.83856982221E+02  0.00000000000E+00 0. -1.
<mgrwt>
<rscale>  1 0.30000000E+03</rscale>
<asrwt>0</asrwt>
<pdfrwt beam="1">  1       21 0.15267546E-01 0.30000000E+03</pdfrwt>
<pdfrwt beam="2">0</pdfrwt>
<totfact> 0.39853247E+03</totfact>
</mgrwt>
</event>
<event>
 6    1  0.1280499E-001  0.3000000E+03  0.7818608E-02  0.1093470E+00
         21   -1    0    0  501  502  0.00000000000E+00  0.00000000000E+00  0.18959783520E+01  0.18959783520E+01  0.00000000000E+00 0. -1.
         13   -1    0    0    0    0 -0.00000000000E+00 -0.00000000000E+00 -0.10000000000E+04  0.10000000000E+04  0.00000000000E+00 0.  1.
    9000005    2    1    2  501    0  0.38095064279E+02 -0.98345459893E+01 -0.71175780060E+03  0.71285945726E+03  0.46353932974E+01 0.  0.
         13    1    3    3    0    0  0.17931895678E+02 -0.30554503485E+01 -0.35955510769E+03  0.36001494987E+03  0.00000000000E+00 0.  1.
          1    1    3    3  501    0  0.20163168601E+02 -0.67790956408E+01 -0.35220269291E+03  0.35284450740E+03  0.00000000000E+00 0.  1.
         -1    1    1    2    0  502 -0.38095064279E+02  0.98345459893E+01 -0.28634622104E+03  0.28903652109E+03  0.00000000000E+00 0. -1.
<mgrwt>
<rscale>  1 0.30000000E+03</rscale>
<asrwt>0</asrwt>
<pdfrwt beam="1">  1       21 0.68944813E-02 0.30000000E+03</pdfrwt>
<pdfrwt beam="2">0</pdfrwt>
<totfact> 0.16567225E+04</totfact>
</mgrwt>
</event>
<event>
 6    1  0.1280499E-001  0.3000000E+03  0.7818608E-02  0.1093470E+00
         21   -1    0    0  501  502  0.00000000000E+00  0.00000000000E+00  0.94141926037E+00  0.94141926037E+00  0.00000000000E+00 0. -1.
         13   -1    0    0    0    0 -0.00000000000E+00 -0.00000000000E+00 -0.10000000000E+04  0.10000000000E+04  0.00000000000E+00 0.  1.
    9000005    2    1    2  501    0  0.29992346031E+02  0.21285999117E+01 -0.59365914692E+03  0.59442847642E+03  0.31558034501E+01 0.  0.
         13    1    3    3    0    0  0.25368403432E+02  0.14015309626E+01 -0.47817207328E+03  0.47884658488E+03  0.00000000000E+00 0.  1.
          1    1    3    3  501    0  0.46239425995E+01  0.72706894917E+00 -0.11548707364E+03  0.11558189154E+03  0.00000000000E+00 0.  1.
         -1    1    1    2    0  502 -0.29992346031E+02 -0.21285999117E+01 -0.40539943382E+03  0.40651294284E+03  0.00000000000E+00 0. -1.
<mgrwt>
<rscale>  1 0.30000000E+03</rscale>
<asrwt>0</asrwt>
<pdfrwt beam="1">  1       21 0.34233500E-02 0.30000000E+03</pdfrwt>
<pdfrwt beam="2">0</pdfrwt>
<totfact> 0.54602781E+04</totfact>
</mgrwt>
</event>
<event>
 6    1  0.1280499E-001  0.3000000E+03  0.7818608E-02  0.1093470E+00
         21   -1    0    0  501  502  0.00000000000E+00  0.00000000000E+00  0.10794323686E+01  0.10794323686E+01  0.00000000000E+00 0. -1.
         13   -1    0    0    0    0 -0.00000000000E+00 -0.00000000000E+00 -0.10000000000E+04  0.10000000000E+04  0.00000000000E+00 0.  1.
    9000005    2    1    2  501    0  0.30008216638E+02  0.15085084189E+01 -0.69102291091E+03  0.69171922860E+03  0.77497834820E+01 0.  0.
         13    1    3    3    0    0  0.21529805458E+02  0.12124248240E+01 -0.40827507746E+03  0.40884415291E+03  0.00000000000E+00 0.  1.
          3    1    3    3  501    0  0.84784111794E+01  0.29608359489E+00 -0.28274783345E+03  0.28287507569E+03  0.00000000000E+00 0.  1.
         -3    1    1    2    0  502 -0.30008216638E+02 -0.15085084189E+01 -0.30789765672E+03  0.30936020377E+03  0.00000000000E+00 0. -1.
<mgrwt>
<rscale>  1 0.30000000E+03</rscale>
<asrwt>0</asrwt>
<pdfrwt beam="1">  1       21 0.39252169E-02 0.30000000E+03</pdfrwt>
<pdfrwt beam="2">0</pdfrwt>
<totfact> 0.43404509E+04</totfact>
</mgrwt>
</event>
<event>
 6    1  0.1280499E-001  0.3000000E+03  0.7818608E-02  0.1093470E+00
         21   -1    0    0  501  502  0.00000000000E+00  0.00000000000E+00  0.22467527085E+01  0.22467527085E+01  0.00000000000E+00 0. -1.
         13   -1    0    0    0    0 -0.00000000000E+00 -0.00000000000E+00 -0.10000000000E+04  0.10000000000E+04  0.00000000000E+00 0.  1.
    9000005    2    1    2  501    0 -0.41732101479E+02 -0.18359496935E+02 -0.63387021012E+03  0.63551864612E+03  0.37238240620E+01 0.  0.
         13    1    3    3    0    0 -0.36017479892E+02 -0.16741234807E+02 -0.56369746651E+03  0.56509500223E+03  0.00000000000E+00 0.  1.
          1    1    3    3  501    0 -0.57146215876E+01 -0.16182621288E+01 -0.70172743616E+02  0.70423643890E+02  0.00000000000E+00 0.  1.
         -1    1    1    2    0  502  0.41732101479E+02  0.18359496935E+02 -0.36388303717E+03  0.36672810659E+03  0.00000000000E+00 0. -1.
<mgrwt>
<rscale>  1 0.30000000E+03</rscale>
<asrwt>0</asrwt>
<pdfrwt beam="1">  1       21 0.81700271E-02 0.30000000E+03</pdfrwt>
<pdfrwt beam="2">0</pdfrwt>
<totfact> 0.12310336E+04</totfact>
</mgrwt>
</event>
<event>
 6    1  0.1280499E-001  0.3000000E+03  0.7818608E-02  0.1093470E+00
         21   -1    0    0  501  502  0.00000000000E+00  0.00000000000E+00  0.13911964291E+01  0.13911964291E+01  0.00000000000E+00 0. -1.
         13   -1    0    0    0    0 -0.00000000000E+00 -0.00000000000E+00 -0.10000000000E+04  0.10000000000E+04  0.00000000000E+00 0.  1.
    9000005    2    1    2  501    0  0.10350595870E+02 -0.31202702561E+02 -0.73499956448E+03  0.73573996941E+03  0.28634457372E+01 0.  0.
         13    1    3    3    0    0  0.48783193545E+01 -0.12072802990E+02 -0.31626875064E+03  0.31653668539E+03  0.00000000000E+00 0.  1.
          3    1    3    3  501    0  0.54722765156E+01 -0.19129899571E+02 -0.41873081385E+03  0.41920328402E+03  0.00000000000E+00 0.  1.
         -3    1    1    2    0  502 -0.10350595870E+02  0.31202702561E+02 -0.26360923909E+03  0.26565122701E+03  0.00000000000E+00 0. -1.
<mgrwt>
<rscale>  1 0.30000000E+03</rscale>
<asrwt>0</asrwt>
<pdfrwt beam="1">  1       21 0.50589068E-02 0.30000000E+03</pdfrwt>
<pdfrwt beam="2">0</pdfrwt>
<totfact> 0.28235063E+04</totfact>
</mgrwt>
</event>
<event>
 6    1  0.1280499E-001  0.3000000E+03  0.7818608E-02  0.1093470E+00
         21   -1    0    0  501  502  0.00000000000E+00  0.00000000000E+00  0.13534156406E+01  0.13534156406E+01  0.00000000000E+00 0. -1.
         13   -1    0    0    0    0 -0.00000000000E+00 -0.00000000000E+00 -0.10000000000E+04  0.10000000000E+04  0.00000000000E+00 0.  1.
    9000005    2    1    2  501    0  0.36465968284E+02 -0.21153832770E+01 -0.54669933995E+03  0.54793247058E+03  0.39474455195E+01 0.  0.
         13    1    3    3    0    0  0.34286355942E+02 -0.10289619179E+01 -0.50874136766E+03  0.50989645237E+03  0.00000000000E+00 0.  1.
          3    1    3    3  501    0  0.21796123419E+01 -0.10864213591E+01 -0.37957972286E+02  0.38036018212E+02  0.00000000000E+00 0.  1.
         -1    1    1    2    0  502 -0.36465968284E+02  0.21153832770E+01 -0.45194724441E+03  0.45342094506E+03  0.00000000000E+00 0. -1.
<mgrwt>
<rscale>  1 0.30000000E+03</rscale>
<asrwt>0</asrwt>
<pdfrwt beam="1">  1       21 0.49215218E-02 0.30000000E+03</pdfrwt>
<pdfrwt beam="2">0</pdfrwt>
<totfact> 0.29591753E+04</totfact>
</mgrwt>
</event>
<event>
 6    1  0.1280499E-001  0.3000000E+03  0.7818608E-02  0.1093470E+00
         21   -1    0    0  501  502  0.00000000000E+00  0.00000000000E+00  0.10655607614E+01  0.10655607614E+01  0.00000000000E+00 0. -1.
         13   -1    0    0    0    0 -0.00000000000E+00 -0.00000000000E+00 -0.10000000000E+04  0.10000000000E+04  0.00000000000E+00 0.  1.
    9000005    2    1    2  501    0  0.23371164324E+02 -0.22585037119E+02 -0.52769925576E+03  0.52871093405E+03  0.35287441650E+01 0.  0.
         13    1    3    3    0    0  0.21450000688E+02 -0.21366788334E+02 -0.47622407143E+03  0.47718550731E+03  0.00000000000E+00 0.  1.
          3    1    3    3  501    0  0.19211636355E+01 -0.12182487853E+01 -0.51475184330E+02  0.51525426749E+02  0.00000000000E+00 0.  1.
         -3    1    1    2    0  502 -0.23371164324E+02  0.22585037119E+02 -0.47123518348E+03  0.47235462671E+03  0.00000000000E+00 0. -1.
<mgrwt>
<rscale>  1 0.30000000E+03</rscale>
<asrwt>0</asrwt>
<pdfrwt beam="1">  1       21 0.38747746E-02 0.30000000E+03</pdfrwt>
<pdfrwt beam="2">0</pdfrwt>
<totfact> 0.44359127E+04</totfact>
</mgrwt>
</event>
<event>
 6    1  0.1280499E-001  0.3000000E+03  0.7818608E-02  0.1093470E+00
         21   -1    0    0  501  502  0.00000000000E+00  0.00000000000E+00  0.98737324785E+00  0.98737324785E+00  0.00000000000E+00 0. -1.
         13   -1    0    0    0    0 -0.00000000000E+00 -0.00000000000E+00 -0.10000000000E+04  0.10000000000E+04  0.00000000000E+00 0.  1.
    9000005    2    1    2  501    0  0.10157091543E+01 -0.31256116823E+02 -0.50718791474E+03  0.50816943136E+03  0.43143485208E+01 0.  0.
         13    1    3    3    0    0  0.12604684910E+01 -0.16618451548E+02 -0.23708040792E+03  0.23766548242E+03  0.00000000000E+00 0.  1.
          1    1    3    3  501    0 -0.24475933674E+00 -0.14637665276E+02 -0.27010750682E+03  0.27050394894E+03  0.00000000000E+00 0.  1.
         -3    1    1    2    0  502 -0.10157091543E+01  0.31256116823E+02 -0.49182471201E+03  0.49281794189E+03  0.00000000000E+00 0. -1.
<mgrwt>
<rscale>  1 0.30000000E+03</rscale>
<asrwt>0</asrwt>
<pdfrwt beam="1">  1       21 0.35904557E-02 0.30000000E+03</pdfrwt>
<pdfrwt beam="2">0</pdfrwt>
<totfact> 0.50414238E+04</totfact>
</mgrwt>
</event>
<event>
 6    1  0.1280499E-001  0.3000000E+03  0.7818608E-02  0.1093470E+00
         21   -1    0    0  501  502  0.00000000000E+00  0.00000000000E+00  0.35707472963E+01  0.35707472963E+01  0.00000000000E+00 0. -1.
         13   -1    0    0    0    0 -0.00000000000E+00 -0.00000000000E+00 -0.10000000000E+04  0.10000000000E+04  0.00000000000E+00 0.  1.
    9000005    2    1    2  501    0  0.36830451192E+02  0.46898919626E+02 -0.52531819253E+03  0.52870063683E+03  0.30280659341E+01 0.  0.
         13    1    3    3    0    0  0.96019068025E+01  0.14303506120E+02 -0.15593372973E+03  0.15688248777E+03  0.00000000000E+00 0.  1.
          3    1    3    3  501    0  0.27228544390E+02  0.32595413506E+02 -0.36938446280E+03  0.37181814906E+03  0.00000000000E+00 0.  1.
         -3    1    1    2    0  502 -0.36830451192E+02 -0.46898919626E+02 -0.47111106018E+03  0.47487011047E+03  0.00000000000E+00 0. -1.
<mgrwt>
<rscale>  1 0.30000000E+03</rscale>
<asrwt>0</asrwt>
<pdfrwt beam="1">  1       21 0.12984563E-01 0.30000000E+03</pdfrwt>
<pdfrwt beam="2">0</pdfrwt>
<totfact> 0.53681588E+03</totfact>
</mgrwt>
</event>
<event>
 6    1  0.1280499E-001  0.3000000E+03  0.7818608E-02  0.1093470E+00
         21   -1    0    0  501  502  0.00000000000E+00  0.00000000000E+00  0.19870525806E+01  0.19870525806E+01  0.00000000000E+00 0. -1.
         13   -1    0    0    0    0 -0.00000000000E+00 -0.00000000000E+00 -0.10000000000E+04  0.10000000000E+04  0.00000000000E+00 0.  1.
    9000005    2    1    2  501    0 -0.23139828733E+02 -0.37629043275E+02 -0.56146309257E+03  0.56320786855E+03  0.33018637350E+01 0.  0.
         13    1    3    3    0    0 -0.12152415217E+02 -0.19977153387E+02 -0.31801087062E+03  0.31886938029E+03  0.00000000000E+00 0.  1.
          1    1    3    3  501    0 -0.10987413516E+02 -0.17651889888E+02 -0.24345222195E+03  0.24433848826E+03  0.00000000000E+00 0.  1.
         -1    1    1    2    0  502  0.23139828733E+02  0.37629043275E+02 -0.43654985485E+03  0.43877918403E+03  0.00000000000E+00 0. -1.
<mgrwt>
<rscale>  1 0.30000000E+03</rscale>
<asrwt>0</asrwt>
<pdfrwt beam="1">  1       21 0.72256610E-02 0.30000000E+03</pdfrwt>
<pdfrwt beam="2">0</pdfrwt>
<totfact> 0.15267347E+04</totfact>
</mgrwt>
</event>
<event>
 6    1  0.1280499E-001  0.3000000E+03  0.7818608E-02  0.1093470E+00
         21   -1    0    0  501  502  0.00000000000E+00  0.00000000000E+00  0.18518185212E+01  0.18518185212E+01  0.00000000000E+00 0. -1.
         13   -1    0    0    0    0 -0.00000000000E+00 -0.00000000000E+00 -0.10000000000E+04  0.10000000000E+04  0.00000000000E+00 0.  1.
    9000005    2    1    2  501    0 -0.16337609557E+02 -0.39679366721E+02 -0.47259673164E+03  0.47455143349E+03  0.31658550985E+01 0.  0.
         13    1    3    3    0    0 -0.78551348811E+01 -0.16035050889E+02 -0.20797865082E+03  0.20874373092E+03  0.00000000000E+00 0.  1.
          3    1    3    3  501    0 -0.84824746763E+01 -0.23644315832E+02 -0.26461808082E+03  0.26580770257E+03  0.00000000000E+00 0.  1.
         -3    1    1    2    0  502  0.16337609557E+02  0.39679366721E+02 -0.52555144984E+03  0.52730038503E+03  0.00000000000E+00 0. -1.
<mgrwt>
<rscale>  1 0.30000000E+03</rscale>
<asrwt>0</asrwt>
<pdfrwt beam="1">  1       21 0.67338997E-02 0.30000000E+03</pdfrwt>
<pdfrwt beam="2">0</pdfrwt>
<totfact> 0.17259387E+04</totfact>
</mgrwt>
</event>
<event>
 6    1  0.1280499E-001  0.3000000E+03  0.7818608E-02  0.1093470E+00
         21   -1    0    0  501  502  0.00000000000E+00  0.00000000000E+00  0.16315730102E+01  0.16315730102E+01  0.00000000000E+00 0. -1.
         13   -1    0    0    0    0 -0.00000000000E+00 -0.00000000000E+00 -0.10000000000E+04  0.10000000000E+04  0.00000000000E+00 0.  1.
    9000005    2    1    2  501    0 -0.30660504863E+02  0.26141549561E+02 -0.50971658919E+03  0.51132140000E+03  0.38891683841E+01 0.  0.
         13    1    3    3    0    0 -0.55483028435E+00  0.87115312041E+00 -0.21663188724E+02  0.21687795880E+02  0.00000000000E+00 0.  1.
          1    1    3    3  501    0 -0.30105674579E+02  0.25270396441E+02 -0.48805340047E+03  0.48963360412E+03  0.00000000000E+00 0.  1.
         -3    1    1    2    0  502  0.30660504863E+02 -0.26141549561E+02 -0.48865183780E+03  0.49031017301E+03  0.00000000000E+00 0. -1.
<mgrwt>
<rscale>  1 0.30000000E+03</rscale>
<asrwt>0</asrwt>
<pdfrwt beam="1">  1       21 0.59330053E-02 0.30000000E+03</pdfrwt>
<pdfrwt beam="2">0</pdfrwt>
<totfact> 0.21483610E+04</totfact>
</mgrwt>
</event>
<event>
 6    1  0.1280499E-001  0.3000000E+03  0.7818608E-02  0.1093470E+00
         21   -1    0    0  501  502  0.00000000000E+00  0.00000000000E+00  0.45526001545E+01  0.45526001545E+01  0.00000000000E+00 0. -1.
         13   -1    0    0    0    0 -0.00000000000E+00 -0.00000000000E+00 -0.10000000000E+04  0.10000000000E+04  0.00000000000E+00 0.  1.
    9000005    2    1    2  501    0 -0.40513448850E+02  0.17144021579E+02 -0.87848698848E+03  0.87959262721E+03  0.29229923893E+01 0.  0.
         13    1    3    3    0    0 -0.15314974130E+02  0.71628251894E+01 -0.31239379768E+03  0.31285098582E+03  0.00000000000E+00 0.  1.
          3    1    3    3  501    0 -0.25198474720E+02  0.99811963894E+01 -0.56609319080E+03  0.56674164139E+03  0.00000000000E+00 0.  1.
         -1    1    1    2    0  502  0.40513448850E+02 -0.17144021579E+02 -0.11696041136E+03  0.12495997295E+03  0.00000000000E+00 0. -1.
<mgrwt>
<rscale>  1 0.30000000E+03</rscale>
<asrwt>0</asrwt>
<pdfrwt beam="1">  1       21 0.16554945E-01 0.30000000E+03</pdfrwt>
<pdfrwt beam="2">0</pdfrwt>
<totfact> 0.34274748E+03</totfact>
</mgrwt>
</event>
<event>
 6    1  0.1280499E-001  0.3000000E+03  0.7818608E-02  0.1093470E+00
         21   -1    0    0  501  502  0.00000000000E+00  0.00000000000E+00  0.16870171604E+01  0.16870171604E+01  0.00000000000E+00 0. -1.
         13   -1    0    0    0    0 -0.00000000000E+00 -0.00000000000E+00 -0.10000000000E+04  0.10000000000E+04  0.00000000000E+00 0.  1.
    9000005    2    1    2  501    0 -0.14293481315E+01  0.37915909412E+02 -0.31279239992E+03  0.31511718908E+03  0.44830998167E+01 0.  0.
         13    1    3    3    0    0 -0.12492630281E+01  0.12447116846E+02 -0.11981991856E+03  0.12047117605E+03  0.00000000000E+00 0.  1.
          3    1    3    3  501    0 -0.18008510344E+00  0.25468792567E+02 -0.19297248136E+03  0.19464601303E+03  0.00000000000E+00 0.  1.
         -1    1    1    2    0  502  0.14293481315E+01 -0.37915909412E+02 -0.68552058292E+03  0.68656982808E+03  0.00000000000E+00 0. -1.
<mgrwt>
<rscale>  1 0.30000000E+03</rscale>
<asrwt>0</asrwt>
<pdfrwt beam="1">  1       21 0.61346208E-02 0.30000000E+03</pdfrwt>
<pdfrwt beam="2">0</pdfrwt>
<totfact> 0.20280180E+04</totfact>
</mgrwt>
</event>
<event>
 6    1  0.1280499E-001  0.3000000E+03  0.7818608E-02  0.1093470E+00
         21   -1    0    0  501  502  0.00000000000E+00  0.00000000000E+00  0.35288868475E+01  0.35288868475E+01  0.00000000000E+00 0. -1.
         13   -1    0    0    0    0 -0.00000000000E+00 -0.00000000000E+00 -0.10000000000E+04  0.10000000000E+04  0.00000000000E+00 0.  1.
    9000005    2    1    2  501    0  0.19667553622E+02  0.49170104976E+02 -0.27219511294E+03  0.27731938790E+03  0.33691992719E+01 0.  0.
         13    1    3    3    0    0  0.21161957384E+01  0.76610543193E+01 -0.45266760851E+02  0.45959217527E+02  0.00000000000E+00 0.  1.
          1    1    3    3  501    0  0.17551357884E+02  0.41509050657E+02 -0.22692835209E+03  0.23136017037E+03  0.00000000000E+00 0.  1.
         -1    1    1    2    0  502 -0.19667553622E+02 -0.49170104976E+02 -0.72427600021E+03  0.72620949895E+03  0.00000000000E+00 0. -1.
<mgrwt>
<rscale>  1 0.30000000E+03</rscale>
<asrwt>0</asrwt>
<pdfrwt beam="1">  1       21 0.12832343E-01 0.30000000E+03</pdfrwt>
<pdfrwt beam="2">0</pdfrwt>
<totfact> 0.54849549E+03</totfact>
</mgrwt>
</event>
<event>
 6    1  0.1280499E-001  0.3000000E+03  0.7818608E-02  0.1093470E+00
         21   -1    0    0  501  502  0.00000000000E+00  0.00000000000E+00  0.15203616661E+01  0.15203616661E+01  0.00000000000E+00 0. -1.
         13   -1    0    0    0    0 -0.00000000000E+00 -0.00000000000E+00 -0.10000000000E+04  0.10000000000E+04  0.00000000000E+00 0.  1.
    9000005    2    1    2  501    0 -0.25386618103E+02  0.27860762978E+02 -0.62414032205E+03  0.62528821763E+03  0.36757314849E+01 0.  0.
         13    1    3    3    0    0 -0.73972312695E+01  0.75689176320E+01 -0.14982488880E+03  0.15019821853E+03  0.00000000000E+00 0.  1.
          1    1    3    3  501    0 -0.17989386834E+02  0.20291845346E+02 -0.47431543325E+03  0.47508999910E+03  0.00000000000E+00 0.  1.
         -3    1    1    2    0  502  0.25386618103E+02 -0.27860762978E+02 -0.37433931628E+03  0.37623214404E+03  0.00000000000E+00 0. -1.
<mgrwt>
<rscale>  1 0.30000000E+03</rscale>
<asrwt>0</asrwt>
<pdfrwt beam="1">  1       21 0.55285995E-02 0.30000000E+03</pdfrwt>
<pdfrwt beam="2">0</pdfrwt>
<totfact> 0.24257422E+04</totfact>
</mgrwt>
</event>
<event>
 6    1  0.1280499E-001  0.3000000E+03  0.7818608E-02  0.1093470E+00
         21   -1    0    0  501  502  0.00000000000E+00  0.00000000000E+00  0.41717155556E+01  0.41717155556E+01  0.00000000000E+00 0. -1.
         13   -1    0    0    0    0 -0.00000000000E+00 -0.00000000000E+00 -0.10000000000E+04  0.10000000000E+04  0.00000000000E+00 0.  1.
    9000005    2    1    2  501    0  0.10864466424E+02  0.43047283655E+02 -0.86246713582E+03  0.86361460538E+03  0.30856087188E+01 0.  0.
         13    1    3    3    0    0  0.24869866014E+01  0.61933169991E+01 -0.11750417957E+03  0.11769356183E+03  0.00000000000E+00 0.  1.
          3    1    3    3  501    0  0.83774798231E+01  0.36853966656E+02 -0.74496295625E+03  0.74592104355E+03  0.00000000000E+00 0.  1.
         -3    1    1    2    0  502 -0.10864466424E+02 -0.43047283655E+02 -0.13336114862E+03  0.14055711018E+03  0.00000000000E+00 0. -1.
<mgrwt>
<rscale>  1 0.30000000E+03</rscale>
<asrwt>0</asrwt>
<pdfrwt beam="1">  1       21 0.15169907E-01 0.30000000E+03</pdfrwt>
<pdfrwt beam="2">0</pdfrwt>
<totfact> 0.40330170E+03</totfact>
</mgrwt>
</event>
<event>
 6    1  0.1280499E-001  0.3000000E+03  0.7818608E-02  0.1093470E+00
         21   -1    0    0  501  502  0.00000000000E+00  0.00000000000E+00  0.19556850856E+01  0.19556850856E+01  0.00000000000E+00 0. -1.
         13   -1    0    0    0    0 -0.00000000000E+00 -0.00000000000E+00 -0.10000000000E+04  0.10000000000E+04  0.00000000000E+00 0.  1.
    9000005    2    1    2  501    0  0.20473485100E+02 -0.29350071994E+02 -0.79192633914E+03  0.79275432215E+03  0.56123382010E+01 0.  0.
         13    1    3    3    0    0  0.17076428225E+02 -0.27175164088E+02 -0.71996602576E+03  0.72068104748E+03  0.00000000000E+00 0.  1.
          1    1    3    3  501    0  0.33970568758E+01 -0.21749079062E+01 -0.71960313379E+02  0.72073274669E+02  0.00000000000E+00 0.  1.
         -3    1    1    2    0  502 -0.20473485100E+02  0.29350071994E+02 -0.20611797578E+03  0.20920136294E+03  0.00000000000E+00 0. -1.
<mgrwt>
<rscale>  1 0.30000000E+03</rscale>
<asrwt>0</asrwt>
<pdfrwt beam="1">  1       21 0.71115971E-02 0.30000000E+03</pdfrwt>
<pdfrwt beam="2">0</pdfrwt>
<totfact> 0.15696917E+04</totfact>
</mgrwt>
</event>
<event>
 6    1  0.1280499E-001  0.3000000E+03  0.7818608E-02  0.1093470E+00
         21   -1    0    0  501  502  0.00000000000E+00  0.00000000000E+00  0.18814369589E+02  0.18814369589E+02  0.00000000000E+00 0. -1.
         13   -1    0    0    0    0 -0.00000000000E+00 -0.00000000000E+00 -0.10000000000E+04  0.10000000000E+04  0.00000000000E+00 0.  1.
    9000005    2    1    2  501    0 -0.53526372073E+02 -0.12499697544E+03 -0.55673448147E+03  0.57311481359E+03  0.42415003304E+01 0.  0.
         13    1    3    3    0    0 -0.49686630264E+02 -0.11625041872E+03 -0.52195114652E+03  0.53704368577E+03  0.00000000000E+00 0.  1.
          1    1    3    3  501    0 -0.38397418091E+01 -0.87465567264E+01 -0.34783334950E+02  0.36071127817E+02  0.00000000000E+00 0.  1.
         -3    1    1    2    0  502  0.53526372073E+02  0.12499697544E+03 -0.42445114894E+03  0.44569955600E+03  0.00000000000E+00 0. -1.
<mgrwt>
<rscale>  1 0.30000000E+03</rscale>
<asrwt>0</asrwt>
<pdfrwt beam="1">  1       21 0.68416034E-01 0.30000000E+03</pdfrwt>
<pdfrwt beam="2">0</pdfrwt>
<totfact> 0.18608256E+02</totfact>
</mgrwt>
</event>
<event>
 6    1  0.1280499E-001  0.3000000E+03  0.7818608E-02  0.1093470E+00
         21   -1    0    0  501  502  0.00000000000E+00  0.00000000000E+00  0.12820269061E+01  0.12820269061E+01  0.00000000000E+00 0. -1.
         13   -1    0    0    0    0 -0.00000000000E+00 -0.00000000000E+00 -0.10000000000E+04  0.10000000000E+04  0.00000000000E+00 0.  1.
    9000005    2    1    2  501    0 -0.46770110159E+01  0.30908923949E+02 -0.74316111721E+03  0.74382029654E+03  0.17179658301E+01 0.  0.
         13    1    3    3    0    0 -0.43214597675E+00  0.88761525901E+00 -0.22525066193E+02  0.22546689735E+02  0.00000000000E+00 0.  1.
          3    1    3    3  501    0 -0.42448650391E+01  0.30021308690E+02 -0.72063605102E+03  0.72127360681E+03  0.00000000000E+00 0.  1.
         -3    1    1    2    0  502  0.46770110159E+01 -0.30908923949E+02 -0.25555685589E+03  0.25746173036E+03  0.00000000000E+00 0. -1.
<mgrwt>
<rscale>  1 0.30000000E+03</rscale>
<asrwt>0</asrwt>
<pdfrwt beam="1">  1       21 0.46619259E-02 0.30000000E+03</pdfrwt>
<pdfrwt beam="2">0</pdfrwt>
<totfact> 0.32449943E+04</totfact>
</mgrwt>
</event>
<event>
 6    1  0.1280499E-001  0.3000000E+03  0.7818608E-02  0.1093470E+00
         21   -1    0    0  501  502  0.00000000000E+00  0.00000000000E+00  0.37084683850E+01  0.37084683850E+01  0.00000000000E+00 0. -1.
         13   -1    0    0    0    0 -0.00000000000E+00 -0.00000000000E+00 -0.10000000000E+04  0.10000000000E+04  0.00000000000E+00 0.  1.
    9000005    2    1    2  501    0 -0.14700404727E+02  0.34902756357E+02 -0.89070876223E+03  0.89153884018E+03  0.67156635668E+01 0.  0.
         13    1    3    3    0    0 -0.12120067851E+02  0.30626523358E+02 -0.71370547114E+03  0.71446510027E+03  0.00000000000E+00 0.  1.
          1    1    3    3  501    0 -0.25803368759E+01  0.42762329993E+01 -0.17700329110E+03  0.17707373991E+03  0.00000000000E+00 0.  1.
         -1    1    1    2    0  502  0.14700404727E+02 -0.34902756357E+02 -0.10558276938E+03  0.11216962820E+03  0.00000000000E+00 0. -1.
<mgrwt>
<rscale>  1 0.30000000E+03</rscale>
<asrwt>0</asrwt>
<pdfrwt beam="1">  1       21 0.13485368E-01 0.30000000E+03</pdfrwt>
<pdfrwt beam="2">0</pdfrwt>
<totfact> 0.50092398E+03</totfact>
</mgrwt>
</event>
<event>
 6    1  0.1280499E-001  0.3000000E+03  0.7818608E-02  0.1093470E+00
         21   -1    0    0  501  502  0.00000000000E+00  0.00000000000E+00  0.19113660772E+01  0.19113660772E+01  0.00000000000E+00 0. -1.
         13   -1    0    0    0    0 -0.00000000000E+00 -0.00000000000E+00 -0.10000000000E+04  0.10000000000E+04  0.00000000000E+00 0.  1.
    9000005    2    1    2  501    0  0.16214675703E+01  0.32045962768E+02 -0.83898506852E+03  0.83960450420E+03  0.31945884490E+01 0.  0.
         13    1    3    3    0    0  0.11319567879E+01  0.30877982678E+02 -0.81571391433E+03  0.81629891656E+03  0.00000000000E+00 0.  1.
          1    1    3    3  501    0  0.48951078238E+00  0.11679800908E+01 -0.23271154184E+02  0.23305587642E+02  0.00000000000E+00 0.  1.
         -3    1    1    2    0  502 -0.16214675703E+01 -0.32045962768E+02 -0.15910356541E+03  0.16230686187E+03  0.00000000000E+00 0. -1.
<mgrwt>
<rscale>  1 0.30000000E+03</rscale>
<asrwt>0</asrwt>
<pdfrwt beam="1">  1       21 0.69504368E-02 0.30000000E+03</pdfrwt>
<pdfrwt beam="2">0</pdfrwt>
<totfact> 0.16336000E+04</totfact>
</mgrwt>
</event>
<event>
 6    1  0.1280499E-001  0.3000000E+03  0.7818608E-02  0.1093470E+00
         21   -1    0    0  501  502  0.00000000000E+00  0.00000000000E+00  0.25664428899E+01  0.25664428899E+01  0.00000000000E+00 0. -1.
         13   -1    0    0    0    0 -0.00000000000E+00 -0.00000000000E+00 -0.10000000000E+04  0.10000000000E+04  0.00000000000E+00 0.  1.
    9000005    2    1    2  501    0 -0.44560474472E+02 -0.78099364167E+01 -0.27545627220E+03  0.27917316747E+03  0.38559759711E+01 0.  0.
         13    1    3    3    0    0 -0.35981254090E+02 -0.47466389253E+01 -0.21942826685E+03  0.22240940969E+03  0.00000000000E+00 0.  1.
          3    1    3    3  501    0 -0.85792203816E+01 -0.30632974913E+01 -0.56028005345E+02  0.56763757775E+02  0.00000000000E+00 0.  1.
         -1    1    1    2    0  502  0.44560474472E+02  0.78099364167E+01 -0.72197728491E+03  0.72339327542E+03  0.00000000000E+00 0. -1.
<mgrwt>
<rscale>  1 0.30000000E+03</rscale>
<asrwt>0</asrwt>
<pdfrwt beam="1">  1       21 0.93325393E-02 0.30000000E+03</pdfrwt>
<pdfrwt beam="2">0</pdfrwt>
<totfact> 0.97308859E+03</totfact>
</mgrwt>
</event>
<event>
 6    1  0.1280499E-001  0.3000000E+03  0.7818608E-02  0.1093470E+00
         21   -1    0    0  501  502  0.00000000000E+00  0.00000000000E+00  0.34105794805E+01  0.34105794805E+01  0.00000000000E+00 0. -1.
         13   -1    0    0    0    0 -0.00000000000E+00 -0.00000000000E+00 -0.10000000000E+04  0.10000000000E+04  0.00000000000E+00 0.  1.
    9000005    2    1    2  501    0  0.39384932835E+02 -0.30367608804E+02 -0.76076085119E+03  0.76239506399E+03  0.39744536771E+01 0.  0.
         13    1    3    3    0    0  0.20597256199E+02 -0.13388555300E+02 -0.37805172976E+03  0.37884906065E+03  0.00000000000E+00 0.  1.
          1    1    3    3  501    0  0.18787676637E+02 -0.16979053504E+02 -0.38270912143E+03  0.38354600334E+03  0.00000000000E+00 0.  1.
         -3    1    1    2    0  502 -0.39384932835E+02  0.30367608804E+02 -0.23582856932E+03  0.24101551549E+03  0.00000000000E+00 0. -1.
<mgrwt>
<rscale>  1 0.30000000E+03</rscale>
<asrwt>0</asrwt>
<pdfrwt beam="1">  1       21 0.12402133E-01 0.30000000E+03</pdfrwt>
<pdfrwt beam="2">0</pdfrwt>
<totfact> 0.58366380E+03</totfact>
</mgrwt>
</event>
<event>
 6    1  0.1280499E-001  0.3000000E+03  0.7818608E-02  0.1093470E+00
         21   -1    0    0  501  502  0.00000000000E+00  0.00000000000E+00  0.94414503754E+00  0.94414503754E+00  0.00000000000E+00 0. -1.
         13   -1    0    0    0    0 -0.00000000000E+00 -0.00000000000E+00 -0.10000000000E+04  0.10000000000E+04  0.00000000000E+00 0.  1.
    9000005    2    1    2  501    0 -0.16645477862E+02 -0.25338326248E+02 -0.57269139543E+03  0.57350320753E+03  0.33751933423E+01 0.  0.
         13    1    3    3    0    0 -0.56945864707E+01 -0.11010467090E+02 -0.21386607579E+03  0.21422501505E+03  0.00000000000E+00 0.  1.
          1    1    3    3  501    0 -0.10950891391E+02 -0.14327859158E+02 -0.35882531965E+03  0.35927819248E+03  0.00000000000E+00 0.  1.
         -3    1    1    2    0  502  0.16645477862E+02  0.25338326248E+02 -0.42636445953E+03  0.42744093751E+03  0.00000000000E+00 0. -1.
<mgrwt>
<rscale>  1 0.30000000E+03</rscale>
<asrwt>0</asrwt>
<pdfrwt beam="1">  1       21 0.34332619E-02 0.30000000E+03</pdfrwt>
<pdfrwt beam="2">0</pdfrwt>
<totfact> 0.54339457E+04</totfact>
</mgrwt>
</event>
<event>
 6    1  0.1280499E-001  0.3000000E+03  0.7818608E-02  0.1093470E+00
         21   -1    0    0  501  502  0.00000000000E+00  0.00000000000E+00  0.14683442690E+01  0.14683442690E+01  0.00000000000E+00 0. -1.
         13   -1    0    0    0    0 -0.00000000000E+00 -0.00000000000E+00 -0.10000000000E+04  0.10000000000E+04  0.00000000000E+00 0.  1.
    9000005    2    1    2  501    0 -0.34232581614E+02 -0.32107256309E+01 -0.71917390520E+03  0.72000266042E+03  0.32475664298E+01 0.  0.
         13    1    3    3    0    0 -0.34005940184E+02 -0.33876871086E+01 -0.71620533226E+03  0.71702019383E+03  0.00000000000E+00 0.  1.
          3    1    3    3  501    0 -0.22664142998E+00  0.17696147775E+00 -0.29685729400E+01  0.29824665971E+01  0.00000000000E+00 0.  1.
         -1    1    1    2    0  502  0.34232581614E+02  0.32107256309E+01 -0.27935775053E+03  0.28146568385E+03  0.00000000000E+00 0. -1.
<mgrwt>
<rscale>  1 0.30000000E+03</rscale>
<asrwt>0</asrwt>
<pdfrwt beam="1">  1       21 0.53394450E-02 0.30000000E+03</pdfrwt>
<pdfrwt beam="2">0</pdfrwt>
<totfact> 0.25748172E+04</totfact>
</mgrwt>
</event>
<event>
 6    1  0.1280499E-001  0.3000000E+03  0.7818608E-02  0.1093470E+00
         21   -1    0    0  501  502  0.00000000000E+00  0.00000000000E+00  0.26747683479E+01  0.26747683479E+01  0.00000000000E+00 0. -1.
         13   -1    0    0    0    0 -0.00000000000E+00 -0.00000000000E+00 -0.10000000000E+04  0.10000000000E+04  0.00000000000E+00 0.  1.
    9000005    2    1    2  501    0  0.40080241032E+02 -0.77247867385E+01 -0.80620719394E+03  0.80724651453E+03  0.32859715967E+01 0.  0.
         13    1    3    3    0    0  0.13714565783E+02 -0.42352203494E+01 -0.28484533737E+03  0.28520675417E+03  0.00000000000E+00 0.  1.
          1    1    3    3  501    0  0.26365675249E+02 -0.34895663891E+01 -0.52136185657E+03  0.52203976035E+03  0.00000000000E+00 0.  1.
         -3    1    1    2    0  502 -0.40080241032E+02  0.77247867385E+01 -0.19111803772E+03  0.19542825382E+03  0.00000000000E+00 0. -1.
<mgrwt>
<rscale>  1 0.30000000E+03</rscale>
<asrwt>0</asrwt>
<pdfrwt beam="1">  1       21 0.97264509E-02 0.30000000E+03</pdfrwt>
<pdfrwt beam="2">0</pdfrwt>
<totfact> 0.90399558E+03</totfact>
</mgrwt>
</event>
<event>
 6    1  0.1280499E-001  0.3000000E+03  0.7818608E-02  0.1093470E+00
         21   -1    0    0  501  502  0.00000000000E+00  0.00000000000E+00  0.52025696405E+01  0.52025696405E+01  0.00000000000E+00 0. -1.
         13   -1    0    0    0    0 -0.00000000000E+00 -0.00000000000E+00 -0.10000000000E+04  0.10000000000E+04  0.00000000000E+00 0.  1.
    9000005    2    1    2  501    0  0.36114534659E+02  0.62309573378E+01 -0.93024648869E+03  0.93097381164E+03  0.32594184518E+01 0.  0.
         13    1    3    3    0    0  0.13893461273E+01  0.74133821976E-01 -0.53976307042E+02  0.53994235807E+02  0.00000000000E+00 0.  1.
          1    1    3    3  501    0  0.34725188532E+02  0.61568235158E+01 -0.87627018165E+03  0.87697957584E+03  0.00000000000E+00 0.  1.
         -1    1    1    2    0  502 -0.36114534659E+02 -0.62309573378E+01 -0.64550941673E+02  0.74228757997E+02  0.00000000000E+00 0. -1.
<mgrwt>
<rscale>  1 0.30000000E+03</rscale>
<asrwt>0</asrwt>
<pdfrwt beam="1">  1       21 0.18918475E-01 0.30000000E+03</pdfrwt>
<pdfrwt beam="2">0</pdfrwt>
<totfact> 0.26667291E+03</totfact>
</mgrwt>
</event>
<event>
 6    1  0.1280499E-001  0.3000000E+03  0.7818608E-02  0.1093470E+00
         21   -1    0    0  501  502  0.00000000000E+00  0.00000000000E+00  0.17905130081E+01  0.17905130081E+01  0.00000000000E+00 0. -1.
         13   -1    0    0    0    0 -0.00000000000E+00 -0.00000000000E+00 -0.10000000000E+04  0.10000000000E+04  0.00000000000E+00 0.  1.
    9000005    2    1    2  501    0 -0.34927229060E+02 -0.20693621933E+02 -0.63803931748E+03  0.63933956692E+03  0.35740526463E+01 0.  0.
         13    1    3    3    0    0 -0.11982583786E+02 -0.72110340297E+01 -0.24716324003E+03  0.24755857600E+03  0.00000000000E+00 0.  1.
          3    1    3    3  501    0 -0.22944645274E+02 -0.13482587903E+02 -0.39087607745E+03  0.39178099092E+03  0.00000000000E+00 0.  1.
         -1    1    1    2    0  502  0.34927229060E+02  0.20693621933E+02 -0.36017016951E+03  0.36245094609E+03  0.00000000000E+00 0. -1.
<mgrwt>
<rscale>  1 0.30000000E+03</rscale>
<asrwt>0</asrwt>
<pdfrwt beam="1">  1       21 0.65109701E-02 0.30000000E+03</pdfrwt>
<pdfrwt beam="2">0</pdfrwt>
<totfact> 0.18296545E+04</totfact>
</mgrwt>
</event>
<event>
 6    1  0.1280499E-001  0.3000000E+03  0.7818608E-02  0.1093470E+00
         21   -1    0    0  501  502  0.00000000000E+00  0.00000000000E+00  0.22249476711E+01  0.22249476711E+01  0.00000000000E+00 0. -1.
         13   -1    0    0    0    0 -0.00000000000E+00 -0.00000000000E+00 -0.10000000000E+04  0.10000000000E+04  0.00000000000E+00 0.  1.
    9000005    2    1    2  501    0  0.19181401864E+02  0.30225969792E+02 -0.82473012524E+03  0.82551591503E+03  0.39001351774E+01 0.  0.
         13    1    3    3    0    0  0.80216671115E+01  0.92195132443E+01 -0.28484132257E+03  0.28510335952E+03  0.00000000000E+00 0.  1.
          3    1    3    3  501    0  0.11159734753E+02  0.21006456548E+02 -0.53988880268E+03  0.54041255551E+03  0.00000000000E+00 0.  1.
         -3    1    1    2    0  502 -0.19181401864E+02 -0.30225969792E+02 -0.17304492708E+03  0.17670903264E+03  0.00000000000E+00 0. -1.
<mgrwt>
<rscale>  1 0.30000000E+03</rscale>
<asrwt>0</asrwt>
<pdfrwt beam="1">  1       21 0.80907359E-02 0.30000000E+03</pdfrwt>
<pdfrwt beam="2">0</pdfrwt>
<totfact> 0.12523232E+04</totfact>
</mgrwt>
</event>
<event>
 6    1  0.1280499E-001  0.3000000E+03  0.7818608E-02  0.1093470E+00
         21   -1    0    0  501  502  0.00000000000E+00  0.00000000000E+00  0.15559581331E+01  0.15559581331E+01  0.00000000000E+00 0. -1.
         13   -1    0    0    0    0 -0.00000000000E+00 -0.00000000000E+00 -0.10000000000E+04  0.10000000000E+04  0.00000000000E+00 0.  1.
    9000005    2    1    2  501    0  0.34080437939E+02 -0.16782791723E+02 -0.36868867748E+03  0.37065584138E+03  0.33576028774E+01 0.  0.
         13    1    3    3    0    0  0.24716856811E+02 -0.11683821405E+02 -0.25062998132E+03  0.25211668376E+03  0.00000000000E+00 0.  1.
          1    1    3    3  501    0  0.93635811285E+01 -0.50989703180E+01 -0.11805869616E+03  0.11853915762E+03  0.00000000000E+00 0.  1.
         -3    1    1    2    0  502 -0.34080437939E+02  0.16782791723E+02 -0.62975536439E+03  0.63090011675E+03  0.00000000000E+00 0. -1.
<mgrwt>
<rscale>  1 0.30000000E+03</rscale>
<asrwt>0</asrwt>
<pdfrwt beam="1">  1       21 0.56580415E-02 0.30000000E+03</pdfrwt>
<pdfrwt beam="2">0</pdfrwt>
<totfact> 0.23312470E+04</totfact>
</mgrwt>
</event>
<event>
 6    1  0.1280499E-001  0.3000000E+03  0.7818608E-02  0.1093470E+00
         21   -1    0    0  501  502  0.00000000000E+00  0.00000000000E+00  0.28564180422E+01  0.28564180422E+01  0.00000000000E+00 0. -1.
         13   -1    0    0    0    0 -0.00000000000E+00 -0.00000000000E+00 -0.10000000000E+04  0.10000000000E+04  0.00000000000E+00 0.  1.
    9000005    2    1    2  501    0 -0.15788100483E+02 -0.45943984555E+02 -0.70282970558E+03  0.70455996875E+03  0.86626024463E+01 0.  0.
         13    1    3    3    0    0  0.39758600073E+00 -0.62297297476E+01 -0.11382988610E+03  0.11400092358E+03  0.00000000000E+00 0.  1.
          1    1    3    3  501    0 -0.16185686484E+02 -0.39714254807E+02 -0.58899981949E+03  0.59055904517E+03  0.00000000000E+00 0.  1.
         -3    1    1    2    0  502  0.15788100483E+02  0.45943984555E+02 -0.29431387638E+03  0.29829644929E+03  0.00000000000E+00 0. -1.
<mgrwt>
<rscale>  1 0.30000000E+03</rscale>
<asrwt>0</asrwt>
<pdfrwt beam="1">  1       21 0.10386997E-01 0.30000000E+03</pdfrwt>
<pdfrwt beam="2">0</pdfrwt>
<totfact> 0.80382213E+03</totfact>
</mgrwt>
</event>
<event>
 6    1  0.1280499E-001  0.3000000E+03  0.7818608E-02  0.1093470E+00
         21   -1    0    0  501  502  0.00000000000E+00  0.00000000000E+00  0.10164193963E+01  0.10164193963E+01  0.00000000000E+00 0. -1.
         13   -1    0    0    0    0 -0.00000000000E+00 -0.00000000000E+00 -0.10000000000E+04  0.10000000000E+04  0.00000000000E+00 0.  1.
    9000005    2    1    2  501    0 -0.47088338948E+01  0.30420584672E+02 -0.38392296424E+03  0.38518596636E+03  0.48786390882E+01 0.  0.
         13    1    3    3    0    0 -0.32890901860E+01  0.74687153605E+01 -0.10501028793E+03  0.10532692151E+03  0.00000000000E+00 0.  1.
          1    1    3    3  501    0 -0.14197437087E+01  0.22951869312E+02 -0.27891267631E+03  0.27985904485E+03  0.00000000000E+00 0.  1.
         -3    1    1    2    0  502  0.47088338948E+01 -0.30420584672E+02 -0.61506061636E+03  0.61583045304E+03  0.00000000000E+00 0. -1.
<mgrwt>
<rscale>  1 0.30000000E+03</rscale>
<asrwt>0</asrwt>
<pdfrwt beam="1">  1       21 0.36960783E-02 0.30000000E+03</pdfrwt>
<pdfrwt beam="2">0</pdfrwt>
<totfact> 0.48020836E+04</totfact>
</mgrwt>
</event>
<event>
 6    1  0.1280499E-001  0.3000000E+03  0.7818608E-02  0.1093470E+00
         21   -1    0    0  501  502  0.00000000000E+00  0.00000000000E+00  0.15452790566E+01  0.15452790566E+01  0.00000000000E+00 0. -1.
         13   -1    0    0    0    0 -0.00000000000E+00 -0.00000000000E+00 -0.10000000000E+04  0.10000000000E+04  0.00000000000E+00 0.  1.
    9000005    2    1    2  501    0  0.34593356357E+02  0.11553566919E+02 -0.68456629866E+03  0.68554507834E+03  0.32942306412E+01 0.  0.
         13    1    3    3    0    0  0.40435642125E+01  0.73457828592E+00 -0.62323597238E+02  0.62458952837E+02  0.00000000000E+00 0.  1.
          3    1    3    3  501    0  0.30549792145E+02  0.10818988633E+02 -0.62224270142E+03  0.62308612550E+03  0.00000000000E+00 0.  1.
         -1    1    1    2    0  502 -0.34593356357E+02 -0.11553566919E+02 -0.31388842228E+03  0.31600020072E+03  0.00000000000E+00 0. -1.
<mgrwt>
<rscale>  1 0.30000000E+03</rscale>
<asrwt>0</asrwt>
<pdfrwt beam="1">  1       21 0.56192084E-02 0.30000000E+03</pdfrwt>
<pdfrwt beam="2">0</pdfrwt>
<totfact> 0.23589936E+04</totfact>
</mgrwt>
</event>
<event>
 6    1  0.1280499E-001  0.3000000E+03  0.7818608E-02  0.1093470E+00
         21   -1    0    0  501  502  0.00000000000E+00  0.00000000000E+00  0.19633293030E+01  0.19633293030E+01  0.00000000000E+00 0. -1.
         13   -1    0    0    0    0 -0.00000000000E+00 -0.00000000000E+00 -0.10000000000E+04  0.10000000000E+04  0.00000000000E+00 0.  1.
    9000005    2    1    2  501    0  0.19818828944E+02 -0.24327539206E+02 -0.85239336763E+03  0.85297813919E+03  0.35549420940E+01 0.  0.
         13    1    3    3    0    0  0.25767943550E+01 -0.36020184855E+01 -0.91167019645E+02  0.91274530277E+02  0.00000000000E+00 0.  1.
          3    1    3    3  501    0  0.17242034589E+02 -0.20725520721E+02 -0.76122634798E+03  0.76170360891E+03  0.00000000000E+00 0.  1.
         -3    1    1    2    0  502 -0.19818828944E+02  0.24327539206E+02 -0.14564330307E+03  0.14898519012E+03  0.00000000000E+00 0. -1.
<mgrwt>
<rscale>  1 0.30000000E+03</rscale>
<asrwt>0</asrwt>
<pdfrwt beam="1">  1       21 0.71393943E-02 0.30000000E+03</pdfrwt>
<pdfrwt beam="2">0</pdfrwt>
<totfact> 0.15590550E+04</totfact>
</mgrwt>
</event>
<event>
 6    1  0.1280499E-001  0.3000000E+03  0.7818608E-02  0.1093470E+00
         21   -1    0    0  501  502  0.00000000000E+00  0.00000000000E+00  0.12669524979E+01  0.12669524979E+01  0.00000000000E+00 0. -1.
         13   -1    0    0    0    0 -0.00000000000E+00 -0.00000000000E+00 -0.10000000000E+04  0.10000000000E+04  0.00000000000E+00 0.  1.
    9000005    2    1    2  501    0  0.95414084421E+01  0.33088292300E+02 -0.62342162164E+03  0.62437898513E+03  0.29538422702E+01 0.  0.
         13    1    3    3    0    0  0.89270675690E+01  0.32519654134E+02 -0.60696933266E+03  0.60790541307E+03  0.00000000000E+00 0.  1.
          3    1    3    3  501    0  0.61434087310E+00  0.56863816607E+00 -0.16452288976E+02  0.16473572066E+02  0.00000000000E+00 0.  1.
         -3    1    1    2    0  502 -0.95414084421E+01 -0.33088292300E+02 -0.37531142586E+03  0.37688796737E+03  0.00000000000E+00 0. -1.
<mgrwt>
<rscale>  1 0.30000000E+03</rscale>
<asrwt>0</asrwt>
<pdfrwt beam="1">  1       21 0.46071097E-02 0.30000000E+03</pdfrwt>
<pdfrwt beam="2">0</pdfrwt>
<totfact> 0.33108795E+04</totfact>
</mgrwt>
</event>
<event>
 6    1  0.1280499E-001  0.3000000E+03  0.7818608E-02  0.1093470E+00
         21   -1    0    0  501  502  0.00000000000E+00  0.00000000000E+00  0.30483542825E+01  0.30483542825E+01  0.00000000000E+00 0. -1.
         13   -1    0    0    0    0 -0.00000000000E+00 -0.00000000000E+00 -0.10000000000E+04  0.10000000000E+04  0.00000000000E+00 0.  1.
    9000005    2    1    2  501    0  0.30748577167E+02  0.43079987220E+02 -0.63976031783E+03  0.64195694617E+03  0.37544860448E+01 0.  0.
         13    1    3    3    0    0  0.19025498533E+01  0.37244564528E+01 -0.41601729012E+02  0.41811423423E+02  0.00000000000E+00 0.  1.
          3    1    3    3  501    0  0.28846027314E+02  0.39355530768E+02 -0.59815858882E+03  0.60014552275E+03  0.00000000000E+00 0.  1.
         -3    1    1    2    0  502 -0.30748577167E+02 -0.43079987220E+02 -0.35719132788E+03  0.36109140811E+03  0.00000000000E+00 0. -1.
<mgrwt>
<rscale>  1 0.30000000E+03</rscale>
<asrwt>0</asrwt>
<pdfrwt beam="1">  1       21 0.11084948E-01 0.30000000E+03</pdfrwt>
<pdfrwt beam="2">0</pdfrwt>
<totfact> 0.71523095E+03</totfact>
</mgrwt>
</event>
<event>
 6    1  0.1280499E-001  0.3000000E+03  0.7818608E-02  0.1093470E+00
         21   -1    0    0  501  502  0.00000000000E+00  0.00000000000E+00  0.21186128988E+01  0.21186128988E+01  0.00000000000E+00 0. -1.
         13   -1    0    0    0    0 -0.00000000000E+00 -0.00000000000E+00 -0.10000000000E+04  0.10000000000E+04  0.00000000000E+00 0.  1.
    9000005    2    1    2  501    0 -0.22644603204E+02  0.25875908395E+02 -0.83182968409E+03  0.83254411964E+03  0.25975241983E+01 0.  0.
         13    1    3    3    0    0 -0.98029254387E+01  0.12561977596E+02 -0.36245603775E+03  0.36280611893E+03  0.00000000000E+00 0.  1.
          3    1    3    3  501    0 -0.12841677765E+02  0.13313930799E+02 -0.46937364633E+03  0.46973800071E+03  0.00000000000E+00 0.  1.
         -3    1    1    2    0  502  0.22644603204E+02 -0.25875908395E+02 -0.16605170302E+03  0.16957449326E+03  0.00000000000E+00 0. -1.
<mgrwt>
<rscale>  1 0.30000000E+03</rscale>
<asrwt>0</asrwt>
<pdfrwt beam="1">  1       21 0.77040632E-02 0.30000000E+03</pdfrwt>
<pdfrwt beam="2">0</pdfrwt>
<totfact> 0.13647302E+04</totfact>
</mgrwt>
</event>
<event>
 6    1  0.1280499E-001  0.3000000E+03  0.7818608E-02  0.1093470E+00
         21   -1    0    0  501  502  0.00000000000E+00  0.00000000000E+00  0.21316160583E+01  0.21316160583E+01  0.00000000000E+00 0. -1.
         13   -1    0    0    0    0 -0.00000000000E+00 -0.00000000000E+00 -0.10000000000E+04  0.10000000000E+04  0.00000000000E+00 0.  1.
    9000005    2    1    2  501    0 -0.45502498058E+02 -0.70724304691E+01 -0.47510285038E+03  0.47734184893E+03  0.34678089390E+01 0.  0.
         13    1    3    3    0    0 -0.39059594716E+01 -0.11417874065E+01 -0.34125300283E+02  0.34367081885E+02  0.00000000000E+00 0.  1.
          3    1    3    3  501    0 -0.41596538586E+02 -0.59306430626E+01 -0.44097755009E+03  0.44297476704E+03  0.00000000000E+00 0.  1.
         -3    1    1    2    0  502  0.45502498058E+02  0.70724304691E+01 -0.52276553357E+03  0.52478976713E+03  0.00000000000E+00 0. -1.
<mgrwt>
<rscale>  1 0.30000000E+03</rscale>
<asrwt>0</asrwt>
<pdfrwt beam="1">  1       21 0.77513475E-02 0.30000000E+03</pdfrwt>
<pdfrwt beam="2">0</pdfrwt>
<totfact> 0.13501678E+04</totfact>
</mgrwt>
</event>
<event>
 6    1  0.1280499E-001  0.3000000E+03  0.7818608E-02  0.1093470E+00
         21   -1    0    0  501  502  0.00000000000E+00  0.00000000000E+00  0.33916704561E+01  0.33916704561E+01  0.00000000000E+00 0. -1.
         13   -1    0    0    0    0 -0.00000000000E+00 -0.00000000000E+00 -0.10000000000E+04  0.10000000000E+04  0.00000000000E+00 0.  1.
    9000005    2    1    2  501    0  0.28968724426E+02 -0.49538876244E+02 -0.58156159758E+03  0.58439635191E+03  0.34521131003E+01 0.  0.
         13    1    3    3    0    0  0.11049090390E+02 -0.20977326562E+02 -0.25379291254E+03  0.25489796603E+03  0.00000000000E+00 0.  1.
          3    1    3    3  501    0  0.17919634036E+02 -0.28561549682E+02 -0.32776868504E+03  0.32949838588E+03  0.00000000000E+00 0.  1.
         -1    1    1    2    0  502 -0.28968724426E+02  0.49538876244E+02 -0.41504673196E+03  0.41899531855E+03  0.00000000000E+00 0. -1.
<mgrwt>
<rscale>  1 0.30000000E+03</rscale>
<asrwt>0</asrwt>
<pdfrwt beam="1">  1       21 0.12333373E-01 0.30000000E+03</pdfrwt>
<pdfrwt beam="2">0</pdfrwt>
<totfact> 0.58960029E+03</totfact>
</mgrwt>
</event>
<event>
 6    1  0.1280499E-001  0.3000000E+03  0.7818608E-02  0.1093470E+00
         21   -1    0    0  501  502  0.00000000000E+00  0.00000000000E+00  0.26938197598E+01  0.26938197598E+01  0.00000000000E+00 0. -1.
         13   -1    0    0    0    0 -0.00000000000E+00 -0.00000000000E+00 -0.10000000000E+04  0.10000000000E+04  0.00000000000E+00 0.  1.
    9000005    2    1    2  501    0 -0.24724548781E+02  0.37042152664E+02 -0.75556255859E+03  0.75688209710E+03  0.35077895264E+01 0.  0.
         13    1    3    3    0    0 -0.17351769457E+02  0.27299925731E+02 -0.52407922936E+03  0.52507657393E+03  0.00000000000E+00 0.  1.
          3    1    3    3  501    0 -0.73727793237E+01  0.97422269326E+01 -0.23148332923E+03  0.23180552317E+03  0.00000000000E+00 0.  1.
         -1    1    1    2    0  502  0.24724548781E+02 -0.37042152664E+02 -0.24174362165E+03  0.24581172266E+03  0.00000000000E+00 0. -1.
<mgrwt>
<rscale>  1 0.30000000E+03</rscale>
<asrwt>0</asrwt>
<pdfrwt beam="1">  1       21 0.97957289E-02 0.30000000E+03</pdfrwt>
<pdfrwt beam="2">0</pdfrwt>
<totfact> 0.89261911E+03</totfact>
</mgrwt>
</event>
<event>
 6    1  0.1280499E-001  0.3000000E+03  0.7818608E-02  0.1093470E+00
         21   -1    0    0  501  502  0.00000000000E+00  0.00000000000E+00  0.20310015773E+01  0.20310015773E+01  0.00000000000E+00 0. -1.
         13   -1    0    0    0    0 -0.00000000000E+00 -0.00000000000E+00 -0.10000000000E+04  0.10000000000E+04  0.00000000000E+00 0.  1.
    9000005    2    1    2  501    0 -0.27043324513E+02 -0.14233597882E+02 -0.86694683721E+03  0.86749199817E+03  0.34075840359E+01 0.  0.
         13    1    3    3    0    0 -0.10092367410E+02 -0.56918105387E+01 -0.28416586880E+03  0.28440199293E+03  0.00000000000E+00 0.  1.
          3    1    3    3  501    0 -0.16950957103E+02 -0.85417873434E+01 -0.58278096840E+03  0.58309000524E+03  0.00000000000E+00 0.  1.
         -3    1    1    2    0  502  0.27043324513E+02  0.14233597882E+02 -0.13102216122E+03  0.13453900341E+03  0.00000000000E+00 0. -1.
<mgrwt>
<rscale>  1 0.30000000E+03</rscale>
<asrwt>0</asrwt>
<pdfrwt beam="1">  1       21 0.73854759E-02 0.30000000E+03</pdfrwt>
<pdfrwt beam="2">0</pdfrwt>
<totfact> 0.14694893E+04</totfact>
</mgrwt>
</event>
<event>
 6    1  0.1280499E-001  0.3000000E+03  0.7818608E-02  0.1093470E+00
         21   -1    0    0  501  502  0.00000000000E+00  0.00000000000E+00  0.46049663081E+01  0.46049663081E+01  0.00000000000E+00 0. -1.
         13   -1    0    0    0    0 -0.00000000000E+00 -0.00000000000E+00 -0.10000000000E+04  0.10000000000E+04  0.00000000000E+00 0.  1.
    9000005    2    1    2  501    0  0.44861781035E+02  0.61760786204E+01 -0.87172172119E+03  0.87290146760E+03  0.27367156787E+01 0.  0.
         13    1    3    3    0    0  0.44026898944E+02  0.63034495326E+01 -0.84915559880E+03  0.85031954716E+03  0.00000000000E+00 0.  1.
          3    1    3    3  501    0  0.83488209105E+00 -0.12737091227E+00 -0.22566122382E+02  0.22581920441E+02  0.00000000000E+00 0.  1.
         -1    1    1    2    0  502 -0.44861781035E+02 -0.61760786204E+01 -0.12367331251E+03  0.13170349870E+03  0.00000000000E+00 0. -1.
<mgrwt>
<rscale>  1 0.30000000E+03</rscale>
<asrwt>0</asrwt>
<pdfrwt beam="1">  1       21 0.16745367E-01 0.30000000E+03</pdfrwt>
<pdfrwt beam="2">0</pdfrwt>
<totfact> 0.33549643E+03</totfact>
</mgrwt>
</event>
<event>
 6    1  0.1280499E-001  0.3000000E+03  0.7818608E-02  0.1093470E+00
         21   -1    0    0  501  502  0.00000000000E+00  0.00000000000E+00  0.13613709528E+01  0.13613709528E+01  0.00000000000E+00 0. -1.
         13   -1    0    0    0    0 -0.00000000000E+00 -0.00000000000E+00 -0.10000000000E+04  0.10000000000E+04  0.00000000000E+00 0.  1.
    9000005    2    1    2  501    0  0.17243764006E+02 -0.26062641246E+02 -0.76480235391E+03  0.76544610600E+03  0.29141009631E+01 0.  0.
         13    1    3    3    0    0  0.97043800670E+00 -0.17969091092E+01 -0.69847497526E+02  0.69877346421E+02  0.00000000000E+00 0.  1.
          3    1    3    3  501    0  0.16273325999E+02 -0.24265732137E+02 -0.69495485638E+03  0.69556875958E+03  0.00000000000E+00 0.  1.
         -3    1    1    2    0  502 -0.17243764006E+02  0.26062641246E+02 -0.23383627514E+03  0.23591526495E+03  0.00000000000E+00 0. -1.
<mgrwt>
<rscale>  1 0.30000000E+03</rscale>
<asrwt>0</asrwt>
<pdfrwt beam="1">  1       21 0.49504503E-02 0.30000000E+03</pdfrwt>
<pdfrwt beam="2">0</pdfrwt>
<totfact> 0.29297755E+04</totfact>
</mgrwt>
</event>
<event>
 6    1  0.1280499E-001  0.3000000E+03  0.7818608E-02  0.1093470E+00
         21   -1    0    0  501  502  0.00000000000E+00  0.00000000000E+00  0.94063304468E+01  0.94063304468E+01  0.00000000000E+00 0. -1.
         13   -1    0    0    0    0 -0.00000000000E+00 -0.00000000000E+00 -0.10000000000E+04  0.10000000000E+04  0.00000000000E+00 0.  1.
    9000005    2    1    2  501    0  0.80314840839E+01 -0.38732363078E+02 -0.95610074279E+03  0.95692335528E+03  0.29961340806E+01 0.  0.
         13    1    3    3    0    0  0.41354877958E+01 -0.14088639422E+02 -0.37433532432E+03  0.37462318008E+03  0.00000000000E+00 0.  1.
          3    1    3    3  501    0  0.38959962882E+01 -0.24643723656E+02 -0.58176541847E+03  0.58230017519E+03  0.00000000000E+00 0.  1.
         -1    1    1    2    0  502 -0.80314840839E+01  0.38732363078E+02 -0.34492926761E+02  0.52482975170E+02  0.00000000000E+00 0. -1.
<mgrwt>
<rscale>  1 0.30000000E+03</rscale>
<asrwt>0</asrwt>
<pdfrwt beam="1">  1       21 0.34204910E-01 0.30000000E+03</pdfrwt>
<pdfrwt beam="2">0</pdfrwt>
<totfact> 0.83403894E+02</totfact>
</mgrwt>
</event>
<event>
 6    1  0.1280499E-001  0.3000000E+03  0.7818608E-02  0.1093470E+00
         21   -1    0    0  501  502  0.00000000000E+00  0.00000000000E+00  0.34280137268E+01  0.34280137268E+01  0.00000000000E+00 0. -1.
         13   -1    0    0    0    0 -0.00000000000E+00 -0.00000000000E+00 -0.10000000000E+04  0.10000000000E+04  0.00000000000E+00 0.  1.
    9000005    2    1    2  501    0  0.17401075387E+02 -0.53787730861E+02 -0.62742312565E+03  0.62997547495E+03  0.36610146755E+01 0.  0.
         13    1    3    3    0    0  0.10067787626E+02 -0.30374733397E+02 -0.37498230765E+03  0.37634520832E+03  0.00000000000E+00 0.  1.
          3    1    3    3  501    0  0.73332877618E+01 -0.23412997463E+02 -0.25244081800E+03  0.25363026663E+03  0.00000000000E+00 0.  1.
         -1    1    1    2    0  502 -0.17401075387E+02  0.53787730861E+02 -0.36914886063E+03  0.37345253878E+03  0.00000000000E+00 0. -1.
<mgrwt>
<rscale>  1 0.30000000E+03</rscale>
<asrwt>0</asrwt>
<pdfrwt beam="1">  1       21 0.12465531E-01 0.30000000E+03</pdfrwt>
<pdfrwt beam="2">0</pdfrwt>
<totfact> 0.57827026E+03</totfact>
</mgrwt>
</event>
<event>
 6    1  0.1280499E-001  0.3000000E+03  0.7818608E-02  0.1093470E+00
         21   -1    0    0  501  502  0.00000000000E+00  0.00000000000E+00  0.25905606866E+01  0.25905606866E+01  0.00000000000E+00 0. -1.
         13   -1    0    0    0    0 -0.00000000000E+00 -0.00000000000E+00 -0.10000000000E+04  0.10000000000E+04  0.00000000000E+00 0.  1.
    9000005    2    1    2  501    0 -0.17912245258E+02  0.26257799226E+02 -0.89008425216E+03  0.89065747198E+03  0.32304638250E+01 0.  0.
         13    1    3    3    0    0 -0.26525121214E-01  0.60578050126E+00 -0.27168761543E+02  0.27175527178E+02  0.00000000000E+00 0.  1.
          1    1    3    3  501    0 -0.17885720136E+02  0.25652018725E+02 -0.86291549062E+03  0.86348194480E+03  0.00000000000E+00 0.  1.
         -3    1    1    2    0  502  0.17912245258E+02 -0.26257799226E+02 -0.10732518715E+03  0.11193308871E+03  0.00000000000E+00 0. -1.
<mgrwt>
<rscale>  1 0.30000000E+03</rscale>
<asrwt>0</asrwt>
<pdfrwt beam="1">  1       21 0.94202405E-02 0.30000000E+03</pdfrwt>
<pdfrwt beam="2">0</pdfrwt>
<totfact> 0.95703205E+03</totfact>
</mgrwt>
</event>
<event>
 6    1  0.1280499E-001  0.3000000E+03  0.7818608E-02  0.1093470E+00
         21   -1    0    0  501  502  0.00000000000E+00  0.00000000000E+00  0.26589082394E+01  0.26589082394E+01  0.00000000000E+00 0. -1.
         13   -1    0    0    0    0 -0.00000000000E+00 -0.00000000000E+00 -0.10000000000E+04  0.10000000000E+04  0.00000000000E+00 0.  1.
    9000005    2    1    2  501    0  0.48891692276E+02 -0.16101112065E+02 -0.48454970170E+03  0.48729044481E+03  0.37310583432E+01 0.  0.
         13    1    3    3    0    0  0.50952317355E+01 -0.51641833302E+00 -0.49280185798E+02  0.49545582917E+02  0.00000000000E+00 0.  1.
          1    1    3    3  501    0  0.43796460541E+02 -0.15584693732E+02 -0.43526951590E+03  0.43774486189E+03  0.00000000000E+00 0.  1.
         -3    1    1    2    0  502 -0.48891692276E+02  0.16101112065E+02 -0.51279139006E+03  0.51536846343E+03  0.00000000000E+00 0. -1.
<mgrwt>
<rscale>  1 0.30000000E+03</rscale>
<asrwt>0</asrwt>
<pdfrwt beam="1">  1       21 0.96687776E-02 0.30000000E+03</pdfrwt>
<pdfrwt beam="2">0</pdfrwt>
<totfact> 0.91363655E+03</totfact>
</mgrwt>
</event>
<event>
 6    1  0.1280499E-001  0.3000000E+03  0.7818608E-02  0.1093470E+00
         21   -1    0    0  501  502  0.00000000000E+00  0.00000000000E+00  0.20050820614E+01  0.20050820614E+01  0.00000000000E+00 0. -1.
         13   -1    0    0    0    0 -0.00000000000E+00 -0.00000000000E+00 -0.10000000000E+04  0.10000000000E+04  0.00000000000E+00 0.  1.
    9000005    2    1    2  501    0 -0.35977170247E+02 -0.14781648680E+02 -0.74679945969E+03  0.74781615201E+03  0.25904236797E+01 0.  0.
         13    1    3    3    0    0 -0.15511853985E+02 -0.70570213150E+01 -0.34864612492E+03  0.34906237206E+03  0.00000000000E+00 0.  1.
          3    1    3    3  501    0 -0.20465316262E+02 -0.77246273654E+01 -0.39815333476E+03  0.39875377995E+03  0.00000000000E+00 0.  1.
         -1    1    1    2    0  502  0.35977170247E+02  0.14781648680E+02 -0.25119545825E+03  0.25418893005E+03  0.00000000000E+00 0. -1.
<mgrwt>
<rscale>  1 0.30000000E+03</rscale>
<asrwt>0</asrwt>
<pdfrwt beam="1">  1       21 0.72912229E-02 0.30000000E+03</pdfrwt>
<pdfrwt beam="2">0</pdfrwt>
<totfact> 0.15028479E+04</totfact>
</mgrwt>
</event>
<event>
 6    1  0.1280499E-001  0.3000000E+03  0.7818608E-02  0.1093470E+00
         21   -1    0    0  501  502  0.00000000000E+00  0.00000000000E+00  0.30559537172E+01  0.30559537172E+01  0.00000000000E+00 0. -1.
         13   -1    0    0    0    0 -0.00000000000E+00 -0.00000000000E+00 -0.10000000000E+04  0.10000000000E+04  0.00000000000E+00 0.  1.
    9000005    2    1    2  501    0  0.71320390985E+01  0.49113492734E+02 -0.71895324967E+03  0.72066989856E+03  0.28855359682E+01 0.  0.
         13    1    3    3    0    0  0.28508620168E+01  0.26142944806E+02 -0.36478374198E+03  0.36573044636E+03  0.00000000000E+00 0.  1.
          1    1    3    3  501    0  0.42811770817E+01  0.22970547928E+02 -0.35416950769E+03  0.35493945220E+03  0.00000000000E+00 0.  1.
         -3    1    1    2    0  502 -0.71320390985E+01 -0.49113492734E+02 -0.27799079661E+03  0.28238605516E+03  0.00000000000E+00 0. -1.
<mgrwt>
<rscale>  1 0.30000000E+03</rscale>
<asrwt>0</asrwt>
<pdfrwt beam="1">  1       21 0.11112582E-01 0.30000000E+03</pdfrwt>
<pdfrwt beam="2">0</pdfrwt>
<totfact> 0.71203170E+03</totfact>
</mgrwt>
</event>
<event>
 6    1  0.1280499E-001  0.3000000E+03  0.7818608E-02  0.1093470E+00
         21   -1    0    0  501  502  0.00000000000E+00  0.00000000000E+00  0.10572037904E+01  0.10572037904E+01  0.00000000000E+00 0. -1.
         13   -1    0    0    0    0 -0.00000000000E+00 -0.00000000000E+00 -0.10000000000E+04  0.10000000000E+04  0.00000000000E+00 0.  1.
    9000005    2    1    2  501    0 -0.31778725095E+02  0.65488077741E+01 -0.51713124867E+03  0.51815437548E+03  0.25405160293E+01 0.  0.
         13    1    3    3    0    0 -0.27121012287E+02  0.62975295658E+01 -0.43361682821E+03  0.43450979493E+03  0.00000000000E+00 0.  1.
          3    1    3    3  501    0 -0.46577128081E+01  0.25127820834E+00 -0.83514420461E+02  0.83644580544E+02  0.00000000000E+00 0.  1.
         -1    1    1    2    0  502  0.31778725095E+02 -0.65488077741E+01 -0.48181154754E+03  0.48290282831E+03  0.00000000000E+00 0. -1.
<mgrwt>
<rscale>  1 0.30000000E+03</rscale>
<asrwt>0</asrwt>
<pdfrwt beam="1">  1       21 0.38443855E-02 0.30000000E+03</pdfrwt>
<pdfrwt beam="2">0</pdfrwt>
<totfact> 0.44950234E+04</totfact>
</mgrwt>
</event>
<event>
 6    1  0.1280499E-001  0.3000000E+03  0.7818608E-02  0.1093470E+00
         21   -1    0    0  501  502  0.00000000000E+00  0.00000000000E+00  0.33640872163E+01  0.33640872163E+01  0.00000000000E+00 0. -1.
         13   -1    0    0    0    0 -0.00000000000E+00 -0.00000000000E+00 -0.10000000000E+04  0.10000000000E+04  0.00000000000E+00 0.  1.
    9000005    2    1    2  501    0  0.24167500091E+02  0.40674060994E+02 -0.78821945429E+03  0.78964495501E+03  0.32862682145E+01 0.  0.
         13    1    3    3    0    0  0.12263288125E+02  0.23486285783E+02 -0.45283557432E+03  0.45361002108E+03  0.00000000000E+00 0.  1.
          1    1    3    3  501    0  0.11904211967E+02  0.17187775211E+02 -0.33538387997E+03  0.33603493393E+03  0.00000000000E+00 0.  1.
         -3    1    1    2    0  502 -0.24167500091E+02 -0.40674060994E+02 -0.20841645850E+03  0.21371913221E+03  0.00000000000E+00 0. -1.
<mgrwt>
<rscale>  1 0.30000000E+03</rscale>
<asrwt>0</asrwt>
<pdfrwt beam="1">  1       21 0.12233070E-01 0.30000000E+03</pdfrwt>
<pdfrwt beam="2">0</pdfrwt>
<totfact> 0.59842575E+03</totfact>
</mgrwt>
</event>
<event>
 6    1  0.1280499E-001  0.3000000E+03  0.7818608E-02  0.1093470E+00
         21   -1    0    0  501  502  0.00000000000E+00  0.00000000000E+00  0.14070985096E+01  0.14070985096E+01  0.00000000000E+00 0. -1.
         13   -1    0    0    0    0 -0.00000000000E+00 -0.00000000000E+00 -0.10000000000E+04  0.10000000000E+04  0.00000000000E+00 0.  1.
    9000005    2    1    2  501    0 -0.64915387783E+01  0.33147656720E+02 -0.71598147742E+03  0.71678432317E+03  0.30631233991E+01 0.  0.
         13    1    3    3    0    0 -0.43183611767E+01  0.25594386822E+02 -0.52516726811E+03  0.52580831143E+03  0.00000000000E+00 0.  1.
          3    1    3    3  501    0 -0.21731776015E+01  0.75532698978E+01 -0.19081420931E+03  0.19097601174E+03  0.00000000000E+00 0.  1.
         -1    1    1    2    0  502  0.64915387783E+01 -0.33147656720E+02 -0.28261142407E+03  0.28462277534E+03  0.00000000000E+00 0. -1.
<mgrwt>
<rscale>  1 0.30000000E+03</rscale>
<asrwt>0</asrwt>
<pdfrwt beam="1">  1       21 0.51167326E-02 0.30000000E+03</pdfrwt>
<pdfrwt beam="2">0</pdfrwt>
<totfact> 0.27692785E+04</totfact>
</mgrwt>
</event>
<event>
 6    1  0.1280499E-001  0.3000000E+03  0.7818608E-02  0.1093470E+00
         21   -1    0    0  501  502  0.00000000000E+00  0.00000000000E+00  0.16639282987E+01  0.16639282987E+01  0.00000000000E+00 0. -1.
         13   -1    0    0    0    0 -0.00000000000E+00 -0.00000000000E+00 -0.10000000000E+04  0.10000000000E+04  0.00000000000E+00 0.  1.
    9000005    2    1    2  501    0  0.40380817419E+02  0.27597155998E+01 -0.44563602985E+03  0.44748384682E+03  0.34778755673E+01 0.  0.
         13    1    3    3    0    0  0.53056126427E+01 -0.65858391969E+00 -0.65410622081E+02  0.65628749335E+02  0.00000000000E+00 0.  1.
          3    1    3    3  501    0  0.35075204776E+02  0.34182995195E+01 -0.38022540777E+03  0.38185509749E+03  0.00000000000E+00 0.  1.
         -3    1    1    2    0  502 -0.40380817419E+02 -0.27597155998E+01 -0.55270004185E+03  0.55418008148E+03  0.00000000000E+00 0. -1.
<mgrwt>
<rscale>  1 0.30000000E+03</rscale>
<asrwt>0</asrwt>
<pdfrwt beam="1">  1       21 0.60506611E-02 0.30000000E+03</pdfrwt>
<pdfrwt beam="2">0</pdfrwt>
<totfact> 0.20768261E+04</totfact>
</mgrwt>
</event>
<event>
 6    1  0.1280499E-001  0.3000000E+03  0.7818608E-02  0.1093470E+00
         21   -1    0    0  501  502  0.00000000000E+00  0.00000000000E+00  0.19285263988E+01  0.19285263988E+01  0.00000000000E+00 0. -1.
         13   -1    0    0    0    0 -0.00000000000E+00 -0.00000000000E+00 -0.10000000000E+04  0.10000000000E+04  0.00000000000E+00 0.  1.
    9000005    2    1    2  501    0  0.96988793659E+01 -0.41474036919E+02 -0.61937728297E+03  0.62084657456E+03  0.28436744637E+01 0.  0.
         13    1    3    3    0    0  0.28325891970E+01 -0.18261414428E+02 -0.26585718271E+03  0.26649867620E+03  0.00000000000E+00 0.  1.
          1    1    3    3  501    0  0.68662901689E+01 -0.23212622491E+02 -0.35352010026E+03  0.35434789836E+03  0.00000000000E+00 0.  1.
         -1    1    1    2    0  502 -0.96988793659E+01  0.41474036919E+02 -0.37869419063E+03  0.38108195183E+03  0.00000000000E+00 0. -1.
<mgrwt>
<rscale>  1 0.30000000E+03</rscale>
<asrwt>0</asrwt>
<pdfrwt beam="1">  1       21 0.70128381E-02 0.30000000E+03</pdfrwt>
<pdfrwt beam="2">0</pdfrwt>
<totfact> 0.16083912E+04</totfact>
</mgrwt>
</event>
<event>
 6    1  0.1280499E-001  0.3000000E+03  0.7818608E-02  0.1093470E+00
         21   -1    0    0  501  502  0.00000000000E+00  0.00000000000E+00  0.17490338157E+01  0.17490338157E+01  0.00000000000E+00 0. -1.
         13   -1    0    0    0    0 -0.00000000000E+00 -0.00000000000E+00 -0.10000000000E+04  0.10000000000E+04  0.00000000000E+00 0.  1.
    9000005    2    1    2  501    0  0.30150712249E+02 -0.17237958257E+02 -0.77764990616E+03  0.77843078481E+03  0.29828743091E+01 0.  0.
         13    1    3    3    0    0  0.24461865037E+02 -0.15280046221E+02 -0.64396271860E+03  0.64460828850E+03  0.00000000000E+00 0.  1.
          1    1    3    3  501    0  0.56888472119E+01 -0.19579120358E+01 -0.13368718756E+03  0.13382249631E+03  0.00000000000E+00 0.  1.
         -3    1    1    2    0  502 -0.30150712249E+02  0.17237958257E+02 -0.22060106003E+03  0.22331824901E+03  0.00000000000E+00 0. -1.
<mgrwt>
<rscale>  1 0.30000000E+03</rscale>
<asrwt>0</asrwt>
<pdfrwt beam="1">  1       21 0.63601364E-02 0.30000000E+03</pdfrwt>
<pdfrwt beam="2">0</pdfrwt>
<totfact> 0.19053877E+04</totfact>
</mgrwt>
</event>
<event>
 6    1  0.1280499E-001  0.3000000E+03  0.7818608E-02  0.1093470E+00
         21   -1    0    0  501  502  0.00000000000E+00  0.00000000000E+00  0.12717658492E+01  0.12717658492E+01  0.00000000000E+00 0. -1.
         13   -1    0    0    0    0 -0.00000000000E+00 -0.00000000000E+00 -0.10000000000E+04  0.10000000000E+04  0.00000000000E+00 0.  1.
    9000005    2    1    2  501    0 -0.29252179003E+02 -0.79173869179E+01 -0.76232107839E+03  0.76293016586E+03  0.32613532086E+01 0.  0.
         13    1    3    3    0    0 -0.98936016536E+01 -0.20066285865E+01 -0.21998096415E+03  0.22021247580E+03  0.00000000000E+00 0.  1.
          3    1    3    3  501    0 -0.19358577349E+02 -0.59107583314E+01 -0.54234011424E+03  0.54271769005E+03  0.00000000000E+00 0.  1.
         -1    1    1    2    0  502  0.29252179003E+02  0.79173869179E+01 -0.23640715576E+03  0.23834159999E+03  0.00000000000E+00 0. -1.
<mgrwt>
<rscale>  1 0.30000000E+03</rscale>
<asrwt>0</asrwt>
<pdfrwt beam="1">  1       21 0.46246128E-02 0.30000000E+03</pdfrwt>
<pdfrwt beam="2">0</pdfrwt>
<totfact> 0.32896156E+04</totfact>
</mgrwt>
</event>
<event>
 6    1  0.1280499E-001  0.3000000E+03  0.7818608E-02  0.1093470E+00
         21   -1    0    0  501  502  0.00000000000E+00  0.00000000000E+00  0.11579080859E+02  0.11579080859E+02  0.00000000000E+00 0. -1.
         13   -1    0    0    0    0 -0.00000000000E+00 -0.00000000000E+00 -0.10000000000E+04  0.10000000000E+04  0.00000000000E+00 0.  1.
    9000005    2    1    2  501    0  0.55065420919E+02 -0.15730772567E+01 -0.92867709379E+03  0.93031408335E+03  0.29110120937E+01 0.  0.
         13    1    3    3    0    0  0.43625903344E+02 -0.86023117255E+00 -0.71596302028E+03  0.71729143718E+03  0.00000000000E+00 0.  1.
          3    1    3    3  501    0  0.11439517575E+02 -0.71284608418E+00 -0.21271407351E+03  0.21302264617E+03  0.00000000000E+00 0.  1.
         -3    1    1    2    0  502 -0.55065420919E+02  0.15730772567E+01 -0.59743825352E+02  0.81264997513E+02  0.00000000000E+00 0. -1.
<mgrwt>
<rscale>  1 0.30000000E+03</rscale>
<asrwt>0</asrwt>
<pdfrwt beam="1">  1       21 0.42105837E-01 0.30000000E+03</pdfrwt>
<pdfrwt beam="2">0</pdfrwt>
<totfact> 0.54235530E+02</totfact>
</mgrwt>
</event>
<event>
 6    1  0.1280499E-001  0.3000000E+03  0.7818608E-02  0.1093470E+00
         21   -1    0    0  501  502  0.00000000000E+00  0.00000000000E+00  0.51939089442E+01  0.51939089442E+01  0.00000000000E+00 0. -1.
         13   -1    0    0    0    0 -0.00000000000E+00 -0.00000000000E+00 -0.10000000000E+04  0.10000000000E+04  0.00000000000E+00 0.  1.
    9000005    2    1    2  501    0  0.94632343673E+01  0.53821942227E+02 -0.82461219672E+03  0.82644180143E+03  0.58670188683E+01 0.  0.
         13    1    3    3    0    0 -0.33138586649E+00  0.12121793270E+02 -0.18301096932E+03  0.18341227489E+03  0.00000000000E+00 0.  1.
          3    1    3    3  501    0  0.97946202338E+01  0.41700148957E+02 -0.64160122740E+03  0.64302952655E+03  0.00000000000E+00 0.  1.
         -1    1    1    2    0  502 -0.94632343673E+01 -0.53821942227E+02 -0.17019389434E+03  0.17875210751E+03  0.00000000000E+00 0. -1.
<mgrwt>
<rscale>  1 0.30000000E+03</rscale>
<asrwt>0</asrwt>
<pdfrwt beam="1">  1       21 0.18886981E-01 0.30000000E+03</pdfrwt>
<pdfrwt beam="2">0</pdfrwt>
<totfact> 0.26751581E+03</totfact>
</mgrwt>
</event>
<event>
 6    1  0.1280499E-001  0.3000000E+03  0.7818608E-02  0.1093470E+00
         21   -1    0    0  501  502  0.00000000000E+00  0.00000000000E+00  0.10085379706E+01  0.10085379706E+01  0.00000000000E+00 0. -1.
         13   -1    0    0    0    0 -0.00000000000E+00 -0.00000000000E+00 -0.10000000000E+04  0.10000000000E+04  0.00000000000E+00 0.  1.
    9000005    2    1    2  501    0  0.26293490140E+02 -0.15064173315E+02 -0.64606035412E+03  0.64677888948E+03  0.32670730905E+01 0.  0.
         13    1    3    3    0    0  0.19516517757E+02 -0.11343955351E+02 -0.44931872432E+03  0.44988542521E+03  0.00000000000E+00 0.  1.
          3    1    3    3  501    0  0.67769723827E+01 -0.37202179635E+01 -0.19674162980E+03  0.19689346428E+03  0.00000000000E+00 0.  1.
         -1    1    1    2    0  502 -0.26293490140E+02  0.15064173315E+02 -0.35293110790E+03  0.35422964849E+03  0.00000000000E+00 0. -1.
<mgrwt>
<rscale>  1 0.30000000E+03</rscale>
<asrwt>0</asrwt>
<pdfrwt beam="1">  1       21 0.36674185E-02 0.30000000E+03</pdfrwt>
<pdfrwt beam="2">0</pdfrwt>
<totfact> 0.48652269E+04</totfact>
</mgrwt>
</event>
<event>
 6    1  0.1280499E-001  0.3000000E+03  0.7818608E-02  0.1093470E+00
         21   -1    0    0  501  502  0.00000000000E+00  0.00000000000E+00  0.22830767693E+01  0.22830767693E+01  0.00000000000E+00 0. -1.
         13   -1    0    0    0    0 -0.00000000000E+00 -0.00000000000E+00 -0.10000000000E+04  0.10000000000E+04  0.00000000000E+00 0.  1.
    9000005    2    1    2  501    0 -0.35373850562E+02  0.13165475837E+02 -0.80572189241E+03  0.80661312272E+03  0.35103815989E+01 0.  0.
         13    1    3    3    0    0 -0.18482045547E+02  0.63525004753E+01 -0.45275190965E+03  0.45317351198E+03  0.00000000000E+00 0.  1.
          3    1    3    3  501    0 -0.16891805015E+02  0.68129753616E+01 -0.35296998275E+03  0.35343961073E+03  0.00000000000E+00 0.  1.
         -3    1    1    2    0  502  0.35373850562E+02 -0.13165475837E+02 -0.19199503083E+03  0.19566995405E+03  0.00000000000E+00 0. -1.
<mgrwt>
<rscale>  1 0.30000000E+03</rscale>
<asrwt>0</asrwt>
<pdfrwt beam="1">  1       21 0.83021148E-02 0.30000000E+03</pdfrwt>
<pdfrwt beam="2">0</pdfrwt>
<totfact> 0.11967796E+04</totfact>
</mgrwt>
</event>
<event>
 6    1  0.1280499E-001  0.3000000E+03  0.7818608E-02  0.1093470E+00
         21   -1    0    0  501  502  0.00000000000E+00  0.00000000000E+00  0.11781193196E+01  0.11781193196E+01  0.00000000000E+00 0. -1.
         13   -1    0    0    0    0 -0.00000000000E+00 -0.00000000000E+00 -0.10000000000E+04  0.10000000000E+04  0.00000000000E+00 0.  1.
    9000005    2    1    2  501    0  0.63714193086E+00 -0.32723156305E+02 -0.64643333082E+03  0.64727290463E+03  0.38666485429E+01 0.  0.
         13    1    3    3    0    0 -0.62351229184E+00 -0.28688707079E+02 -0.57287553951E+03  0.57359377128E+03  0.00000000000E+00 0.  1.
          1    1    3    3  501    0  0.12606542227E+01 -0.40344492266E+01 -0.73557791310E+02  0.73679133355E+02  0.00000000000E+00 0.  1.
         -1    1    1    2    0  502 -0.63714193086E+00  0.32723156305E+02 -0.35238854986E+03  0.35390521469E+03  0.00000000000E+00 0. -1.
<mgrwt>
<rscale>  1 0.30000000E+03</rscale>
<asrwt>0</asrwt>
<pdfrwt beam="1">  1       21 0.42840793E-02 0.30000000E+03</pdfrwt>
<pdfrwt beam="2">0</pdfrwt>
<totfact> 0.37450921E+04</totfact>
</mgrwt>
</event>
<event>
 6    1  0.1280499E-001  0.3000000E+03  0.7818608E-02  0.1093470E+00
         21   -1    0    0  501  502  0.00000000000E+00  0.00000000000E+00  0.32298355186E+01  0.32298355186E+01  0.00000000000E+00 0. -1.
         13   -1    0    0    0    0 -0.00000000000E+00 -0.00000000000E+00 -0.10000000000E+04  0.10000000000E+04  0.00000000000E+00 0.  1.
    9000005    2    1    2  501    0  0.29695369009E+02 -0.11955466801E+02 -0.91277496771E+03  0.91334134233E+03  0.30850939167E+01 0.  0.
         13    1    3    3    0    0  0.27532284257E+02 -0.11905759536E+02 -0.85073774213E+03  0.85126639759E+03  0.00000000000E+00 0.  1.
          1    1    3    3  501    0  0.21630847517E+01 -0.49707264545E-01 -0.62037225582E+02  0.62074944739E+02  0.00000000000E+00 0.  1.
         -3    1    1    2    0  502 -0.29695369009E+02  0.11955466801E+02 -0.83995196768E+02  0.89888493185E+02  0.00000000000E+00 0. -1.
<mgrwt>
<rscale>  1 0.30000000E+03</rscale>
<asrwt>0</asrwt>
<pdfrwt beam="1">  1       21 0.11744881E-01 0.30000000E+03</pdfrwt>
<pdfrwt beam="2">0</pdfrwt>
<totfact> 0.64432830E+03</totfact>
</mgrwt>
</event>
<event>
 6    1  0.1280499E-001  0.3000000E+03  0.7818608E-02  0.1093470E+00
         21   -1    0    0  501  502  0.00000000000E+00  0.00000000000E+00  0.40295568582E+01  0.40295568582E+01  0.00000000000E+00 0. -1.
         13   -1    0    0    0    0 -0.00000000000E+00 -0.00000000000E+00 -0.10000000000E+04  0.10000000000E+04  0.00000000000E+00 0.  1.
    9000005    2    1    2  501    0  0.47268497573E+02  0.21244302659E+02 -0.78768103332E+03  0.78939006957E+03  0.31049041083E+01 0.  0.
         13    1    3    3    0    0  0.40729892621E+02  0.19003139330E+02 -0.69484720696E+03  0.69629927796E+03  0.00000000000E+00 0.  1.
          1    1    3    3  501    0  0.65386049525E+01  0.22411633294E+01 -0.92833826351E+02  0.93090791611E+02  0.00000000000E+00 0.  1.
         -1    1    1    2    0  502 -0.47268497573E+02 -0.21244302659E+02 -0.20828940983E+03  0.21463948729E+03  0.00000000000E+00 0. -1.
<mgrwt>
<rscale>  1 0.30000000E+03</rscale>
<asrwt>0</asrwt>
<pdfrwt beam="1">  1       21 0.14652965E-01 0.30000000E+03</pdfrwt>
<pdfrwt beam="2">0</pdfrwt>
<totfact> 0.43001159E+03</totfact>
</mgrwt>
</event>
<event>
 6    1  0.1280499E-001  0.3000000E+03  0.7818608E-02  0.1093470E+00
         21   -1    0    0  501  502  0.00000000000E+00  0.00000000000E+00  0.25830794996E+01  0.25830794996E+01  0.00000000000E+00 0. -1.
         13   -1    0    0    0    0 -0.00000000000E+00 -0.00000000000E+00 -0.10000000000E+04  0.10000000000E+04  0.00000000000E+00 0.  1.
    9000005    2    1    2  501    0  0.33671970677E+02 -0.37397575543E+02 -0.56520296204E+03  0.56744943779E+03  0.34779124802E+01 0.  0.
         13    1    3    3    0    0  0.28214130902E+02 -0.32452363255E+02 -0.47097041829E+03  0.47292951691E+03  0.00000000000E+00 0.  1.
          3    1    3    3  501    0  0.54578397750E+01 -0.49452122888E+01 -0.94232543753E+02  0.94519920872E+02  0.00000000000E+00 0.  1.
         -3    1    1    2    0  502 -0.33671970677E+02  0.37397575543E+02 -0.43221395846E+03  0.43513364171E+03  0.00000000000E+00 0. -1.
<mgrwt>
<rscale>  1 0.30000000E+03</rscale>
<asrwt>0</asrwt>
<pdfrwt beam="1">  1       21 0.93930362E-02 0.30000000E+03</pdfrwt>
<pdfrwt beam="2">0</pdfrwt>
<totfact> 0.96196984E+03</totfact>
</mgrwt>
</event>
<event>
 6    1  0.1280499E-001  0.3000000E+03  0.7818608E-02  0.1093470E+00
         21   -1    0    0  501  502  0.00000000000E+00  0.00000000000E+00  0.10486225317E+01  0.10486225317E+01  0.00000000000E+00 0. -1.
         13   -1    0    0    0    0 -0.00000000000E+00 -0.00000000000E+00 -0.10000000000E+04  0.10000000000E+04  0.00000000000E+00 0.  1.
    9000005    2    1    2  501    0  0.24589725751E+02 -0.19570843828E+02 -0.59540610340E+03  0.59628145395E+03  0.74479403360E+01 0.  0.
         13    1    3    3    0    0  0.89566221956E+01 -0.10412924662E+02 -0.20900776182E+03  0.20945857486E+03  0.00000000000E+00 0.  1.
          3    1    3    3  501    0  0.15633103556E+02 -0.91579191654E+01 -0.38639834158E+03  0.38682287908E+03  0.00000000000E+00 0.  1.
         -3    1    1    2    0  502 -0.24589725751E+02  0.19570843828E+02 -0.40354527407E+03  0.40476716858E+03  0.00000000000E+00 0. -1.
<mgrwt>
<rscale>  1 0.30000000E+03</rscale>
<asrwt>0</asrwt>
<pdfrwt beam="1">  1       21 0.38131809E-02 0.30000000E+03</pdfrwt>
<pdfrwt beam="2">0</pdfrwt>
<totfact> 0.45570174E+04</totfact>
</mgrwt>
</event>
<event>
 6    1  0.1280499E-001  0.3000000E+03  0.7818608E-02  0.1093470E+00
         21   -1    0    0  501  502  0.00000000000E+00  0.00000000000E+00  0.12884566819E+01  0.12884566819E+01  0.00000000000E+00 0. -1.
         13   -1    0    0    0    0 -0.00000000000E+00 -0.00000000000E+00 -0.10000000000E+04  0.10000000000E+04  0.00000000000E+00 0.  1.
    9000005    2    1    2  501    0  0.13712156260E+02 -0.28775757633E+02 -0.72795837382E+03  0.72866537210E+03  0.37098542178E+01 0.  0.
         13    1    3    3    0    0  0.13156489140E+02 -0.26968190465E+02 -0.66167350513E+03  0.66235353392E+03  0.00000000000E+00 0.  1.
          3    1    3    3  501    0  0.55566711987E+00 -0.18075671675E+01 -0.66284868693E+02  0.66311838179E+02  0.00000000000E+00 0.  1.
         -3    1    1    2    0  502 -0.13712156260E+02  0.28775757633E+02 -0.27075316949E+03  0.27262308458E+03  0.00000000000E+00 0. -1.
<mgrwt>
<rscale>  1 0.30000000E+03</rscale>
<asrwt>0</asrwt>
<pdfrwt beam="1">  1       21 0.46853069E-02 0.30000000E+03</pdfrwt>
<pdfrwt beam="2">0</pdfrwt>
<totfact> 0.32175154E+04</totfact>
</mgrwt>
</event>
<event>
 6    1  0.1280499E-001  0.3000000E+03  0.7818608E-02  0.1093470E+00
         21   -1    0    0  501  502  0.00000000000E+00  0.00000000000E+00  0.15648850726E+01  0.15648850726E+01  0.00000000000E+00 0. -1.
         13   -1    0    0    0    0 -0.00000000000E+00 -0.00000000000E+00 -0.10000000000E+04  0.10000000000E+04  0.00000000000E+00 0.  1.
    9000005    2    1    2  501    0  0.26974919670E+02  0.17832895119E+02 -0.78575094563E+03  0.78643651802E+03  0.56736128517E+01 0.  0.
         13    1    3    3    0    0  0.18772336216E+02  0.11330502766E+02 -0.58808092898E+03  0.58848955805E+03  0.00000000000E+00 0.  1.
          3    1    3    3  501    0  0.82025834541E+01  0.65023923528E+01 -0.19767001665E+03  0.19794695998E+03  0.00000000000E+00 0.  1.
         -1    1    1    2    0  502 -0.26974919670E+02 -0.17832895119E+02 -0.21268416930E+03  0.21512836705E+03  0.00000000000E+00 0. -1.
<mgrwt>
<rscale>  1 0.30000000E+03</rscale>
<asrwt>0</asrwt>
<pdfrwt beam="1">  1       21 0.56905032E-02 0.30000000E+03</pdfrwt>
<pdfrwt beam="2">0</pdfrwt>
<totfact> 0.23084351E+04</totfact>
</mgrwt>
</event>
<event>
 6    1  0.1280499E-001  0.3000000E+03  0.7818608E-02  0.1093470E+00
         21   -1    0    0  501  502  0.00000000000E+00  0.00000000000E+00  0.20860094541E+01  0.20860094541E+01  0.00000000000E+00 0. -1.
         13   -1    0    0    0    0 -0.00000000000E+00 -0.00000000000E+00 -0.10000000000E+04  0.10000000000E+04  0.00000000000E+00 0.  1.
    9000005    2    1    2  501    0  0.22047548048E+02  0.37537613488E+02 -0.64653132211E+03  0.64801688276E+03  0.52880119467E+01 0.  0.
         13    1    3    3    0    0  0.27173208641E+01  0.20551785258E+01 -0.43320783092E+02  0.43454549120E+02  0.00000000000E+00 0.  1.
          1    1    3    3  501    0  0.19330227184E+02  0.35482434962E+02 -0.60321053902E+03  0.60456233364E+03  0.00000000000E+00 0.  1.
         -1    1    1    2    0  502 -0.22047548048E+02 -0.37537613488E+02 -0.35138266843E+03  0.35406912669E+03  0.00000000000E+00 0. -1.
<mgrwt>
<rscale>  1 0.30000000E+03</rscale>
<asrwt>0</asrwt>
<pdfrwt beam="1">  1       21 0.75855049E-02 0.30000000E+03</pdfrwt>
<pdfrwt beam="2">0</pdfrwt>
<totfact> 0.14023277E+04</totfact>
</mgrwt>
</event>
<event>
 6    1  0.1280499E-001  0.3000000E+03  0.7818608E-02  0.1093470E+00
         21   -1    0    0  501  502  0.00000000000E+00  0.00000000000E+00  0.10557870988E+01  0.10557870988E+01  0.00000000000E+00 0. -1.
         13   -1    0    0    0    0 -0.00000000000E+00 -0.00000000000E+00 -0.10000000000E+04  0.10000000000E+04  0.00000000000E+00 0.  1.
    9000005    2    1    2  501    0 -0.89925791310E+01 -0.31100847006E+02 -0.52211516470E+03  0.52312894084E+03  0.33932836030E+01 0.  0.
         13    1    3    3    0    0 -0.70465675783E+01 -0.19080985109E+02 -0.31468189608E+03  0.31533860187E+03  0.00000000000E+00 0.  1.
          3    1    3    3  501    0 -0.19460115527E+01 -0.12019861897E+02 -0.20743326861E+03  0.20779033897E+03  0.00000000000E+00 0.  1.
         -3    1    1    2    0  502  0.89925791310E+01  0.31100847006E+02 -0.47682904821E+03  0.47792684626E+03  0.00000000000E+00 0. -1.
<mgrwt>
<rscale>  1 0.30000000E+03</rscale>
<asrwt>0</asrwt>
<pdfrwt beam="1">  1       21 0.38392339E-02 0.30000000E+03</pdfrwt>
<pdfrwt beam="2">0</pdfrwt>
<totfact> 0.45051665E+04</totfact>
</mgrwt>
</event>
<event>
 6    1  0.1280499E-001  0.3000000E+03  0.7818608E-02  0.1093470E+00
         21   -1    0    0  501  502  0.00000000000E+00  0.00000000000E+00  0.15129294674E+01  0.15129294674E+01  0.00000000000E+00 0. -1.
         13   -1    0    0    0    0 -0.00000000000E+00 -0.00000000000E+00 -0.10000000000E+04  0.10000000000E+04  0.00000000000E+00 0.  1.
    9000005    2    1    2  501    0  0.27165122620E+02 -0.25267313120E+02 -0.64691292292E+03  0.64798674618E+03  0.37566456688E+01 0.  0.
         13    1    3    3    0    0  0.18559072530E+02 -0.14998534972E+02 -0.40186557772E+03  0.40257339428E+03  0.00000000000E+00 0.  1.
          1    1    3    3  501    0  0.86060500898E+01 -0.10268778148E+02 -0.24504734519E+03  0.24541335190E+03  0.00000000000E+00 0.  1.
         -3    1    1    2    0  502 -0.27165122620E+02  0.25267313120E+02 -0.35157414762E+03  0.35352618329E+03  0.00000000000E+00 0. -1.
<mgrwt>
<rscale>  1 0.30000000E+03</rscale>
<asrwt>0</asrwt>
<pdfrwt beam="1">  1       21 0.55015733E-02 0.30000000E+03</pdfrwt>
<pdfrwt beam="2">0</pdfrwt>
<totfact> 0.24462149E+04</totfact>
</mgrwt>
</event>
<event>
 6    1  0.1280499E-001  0.3000000E+03  0.7818608E-02  0.1093470E+00
         21   -1    0    0  501  502  0.00000000000E+00  0.00000000000E+00  0.58935849209E+01  0.58935849209E+01  0.00000000000E+00 0. -1.
         13   -1    0    0    0    0 -0.00000000000E+00 -0.00000000000E+00 -0.10000000000E+04  0.10000000000E+04  0.00000000000E+00 0.  1.
    9000005    2    1    2  501    0 -0.40245593411E+02  0.52703590999E+02 -0.75027939004E+03  0.75320999931E+03  0.29603483597E+01 0.  0.
         13    1    3    3    0    0 -0.21245403782E+02  0.30241371811E+02 -0.41682895065E+03  0.41846419423E+03  0.00000000000E+00 0.  1.
          1    1    3    3  501    0 -0.19000189629E+02  0.22462219188E+02 -0.33345043938E+03  0.33474580508E+03  0.00000000000E+00 0.  1.
         -1    1    1    2    0  502  0.40245593411E+02 -0.52703590999E+02 -0.24382702504E+03  0.25268358561E+03  0.00000000000E+00 0. -1.
<mgrwt>
<rscale>  1 0.30000000E+03</rscale>
<asrwt>0</asrwt>
<pdfrwt beam="1">  1       21 0.21431263E-01 0.30000000E+03</pdfrwt>
<pdfrwt beam="2">0</pdfrwt>
<totfact> 0.21018265E+03</totfact>
</mgrwt>
</event>
<event>
 6    1  0.1280499E-001  0.3000000E+03  0.7818608E-02  0.1093470E+00
         21   -1    0    0  501  502  0.00000000000E+00  0.00000000000E+00  0.11197655196E+01  0.11197655196E+01  0.00000000000E+00 0. -1.
         13   -1    0    0    0    0 -0.00000000000E+00 -0.00000000000E+00 -0.10000000000E+04  0.10000000000E+04  0.00000000000E+00 0.  1.
    9000005    2    1    2  501    0 -0.21567157630E+02 -0.21815082645E+02 -0.69742711812E+03  0.69810982925E+03  0.34217652254E+01 0.  0.
         13    1    3    3    0    0 -0.76105160472E+01 -0.74731271349E+01 -0.20707001441E+03  0.20734454044E+03  0.00000000000E+00 0.  1.
          1    1    3    3  501    0 -0.13956641583E+02 -0.14341955510E+02 -0.49035710372E+03  0.49076528881E+03  0.00000000000E+00 0.  1.
         -1    1    1    2    0  502  0.21567157630E+02  0.21815082645E+02 -0.30145311636E+03  0.30300993627E+03  0.00000000000E+00 0. -1.
<mgrwt>
<rscale>  1 0.30000000E+03</rscale>
<asrwt>0</asrwt>
<pdfrwt beam="1">  1       21 0.40718832E-02 0.30000000E+03</pdfrwt>
<pdfrwt beam="2">0</pdfrwt>
<totfact> 0.40804290E+04</totfact>
</mgrwt>
</event>
<event>
 6    1  0.1280499E-001  0.3000000E+03  0.7818608E-02  0.1093470E+00
         21   -1    0    0  501  502  0.00000000000E+00  0.00000000000E+00  0.16084712013E+01  0.16084712013E+01  0.00000000000E+00 0. -1.
         13   -1    0    0    0    0 -0.00000000000E+00 -0.00000000000E+00 -0.10000000000E+04  0.10000000000E+04  0.00000000000E+00 0.  1.
    9000005    2    1    2  501    0 -0.21056191052E+02  0.33965371339E+02 -0.52983902084E+03  0.53135485628E+03  0.34037708882E+01 0.  0.
         13    1    3    3    0    0 -0.93915909098E+01  0.15515467772E+02 -0.21831723670E+03  0.21906927571E+03  0.00000000000E+00 0.  1.
          1    1    3    3  501    0 -0.11664600142E+02  0.18449903568E+02 -0.31152178414E+03  0.31228558057E+03  0.00000000000E+00 0.  1.
         -3    1    1    2    0  502  0.21056191052E+02 -0.33965371339E+02 -0.46855250796E+03  0.47025361492E+03  0.00000000000E+00 0. -1.
<mgrwt>
<rscale>  1 0.30000000E+03</rscale>
<asrwt>0</asrwt>
<pdfrwt beam="1">  1       21 0.58489985E-02 0.30000000E+03</pdfrwt>
<pdfrwt beam="2">0</pdfrwt>
<totfact> 0.22018159E+04</totfact>
</mgrwt>
</event>
<event>
 6    1  0.1280499E-001  0.3000000E+03  0.7818608E-02  0.1093470E+00
         21   -1    0    0  501  502  0.00000000000E+00  0.00000000000E+00  0.84337001574E+01  0.84337001574E+01  0.00000000000E+00 0. -1.
         13   -1    0    0    0    0 -0.00000000000E+00 -0.00000000000E+00 -0.10000000000E+04  0.10000000000E+04  0.00000000000E+00 0.  1.
    9000005    2    1    2  501    0 -0.33978232429E+02 -0.16497403272E+02 -0.95535862088E+03  0.95611085037E+03  0.33435189947E+01 0.  0.
         13    1    3    3    0    0 -0.86832195705E+01 -0.49876056554E+01 -0.22156571735E+03  0.22179188808E+03  0.00000000000E+00 0.  1.
          1    1    3    3  501    0 -0.25295012858E+02 -0.11509797616E+02 -0.73379290353E+03  0.73431896230E+03  0.00000000000E+00 0.  1.
         -3    1    1    2    0  502  0.33978232429E+02  0.16497403272E+02 -0.36207678964E+02  0.52322849785E+02  0.00000000000E+00 0. -1.
<mgrwt>
<rscale>  1 0.30000000E+03</rscale>
<asrwt>0</asrwt>
<pdfrwt beam="1">  1       21 0.30668065E-01 0.30000000E+03</pdfrwt>
<pdfrwt beam="2">0</pdfrwt>
<totfact> 0.10403401E+03</totfact>
</mgrwt>
</event>
<event>
 6    1  0.1280499E-001  0.3000000E+03  0.7818608E-02  0.1093470E+00
         21   -1    0    0  501  502  0.00000000000E+00  0.00000000000E+00  0.96079300334E+01  0.96079300334E+01  0.00000000000E+00 0. -1.
         13   -1    0    0    0    0 -0.00000000000E+00 -0.00000000000E+00 -0.10000000000E+04  0.10000000000E+04  0.00000000000E+00 0.  1.
    9000005    2    1    2  501    0  0.56844020940E+02  0.67624381912E+01 -0.90492536653E+03  0.90674136266E+03  0.36064500731E+01 0.  0.
         13    1    3    3    0    0  0.25636340233E+02  0.47078287323E+01 -0.40004115523E+03  0.40088940054E+03  0.00000000000E+00 0.  1.
          3    1    3    3  501    0  0.31207680707E+02  0.20546094589E+01 -0.50488421130E+03  0.50585196212E+03  0.00000000000E+00 0.  1.
         -1    1    1    2    0  502 -0.56844020940E+02 -0.67624381912E+01 -0.85466703438E+02  0.10286656737E+03  0.00000000000E+00 0. -1.
<mgrwt>
<rscale>  1 0.30000000E+03</rscale>
<asrwt>0</asrwt>
<pdfrwt beam="1">  1       21 0.34938001E-01 0.30000000E+03</pdfrwt>
<pdfrwt beam="2">0</pdfrwt>
<totfact> 0.79868531E+02</totfact>
</mgrwt>
</event>
<event>
 6    1  0.1280499E-001  0.3000000E+03  0.7818608E-02  0.1093470E+00
         21   -1    0    0  501  502  0.00000000000E+00  0.00000000000E+00  0.66252540604E+01  0.66252540604E+01  0.00000000000E+00 0. -1.
         13   -1    0    0    0    0 -0.00000000000E+00 -0.00000000000E+00 -0.10000000000E+04  0.10000000000E+04  0.00000000000E+00 0.  1.
    9000005    2    1    2  501    0  0.39504478195E+02  0.20177493231E+02 -0.91864500268E+03  0.91972145922E+03  0.33446320718E+01 0.  0.
         13    1    3    3    0    0  0.16457764607E+02  0.99362016446E+01 -0.41696820865E+03  0.41741115599E+03  0.00000000000E+00 0.  1.
          1    1    3    3  501    0  0.23046713588E+02  0.10241291586E+02 -0.50167679403E+03  0.50231030323E+03  0.00000000000E+00 0.  1.
         -1    1    1    2    0  502 -0.39504478195E+02 -0.20177493231E+02 -0.74729743256E+02  0.86903794840E+02  0.00000000000E+00 0. -1.
<mgrwt>
<rscale>  1 0.30000000E+03</rscale>
<asrwt>0</asrwt>
<pdfrwt beam="1">  1       21 0.24091884E-01 0.30000000E+03</pdfrwt>
<pdfrwt beam="2">0</pdfrwt>
<totfact> 0.16763953E+03</totfact>
</mgrwt>
</event>
<event>
 6    1  0.1280499E-001  0.3000000E+03  0.7818608E-02  0.1093470E+00
         21   -1    0    0  501  502  0.00000000000E+00  0.00000000000E+00  0.69422500659E+01  0.69422500659E+01  0.00000000000E+00 0. -1.
         13   -1    0    0    0    0 -0.00000000000E+00 -0.00000000000E+00 -0.10000000000E+04  0.10000000000E+04  0.00000000000E+00 0.  1.
    9000005    2    1    2  501    0  0.18521808518E+02 -0.48086439143E+02 -0.89210727303E+03  0.89360045809E+03  0.33210078457E+01 0.  0.
         13    1    3    3    0    0  0.16209177451E+02 -0.40417446760E+02 -0.77063168496E+03  0.77186106347E+03  0.00000000000E+00 0.  1.
          1    1    3    3  501    0  0.23126310674E+01 -0.76689923833E+01 -0.12147558807E+03  0.12173939462E+03  0.00000000000E+00 0.  1.
         -3    1    1    2    0  502 -0.18521808518E+02  0.48086439143E+02 -0.10095047691E+03  0.11334179198E+03  0.00000000000E+00 0. -1.
<mgrwt>
<rscale>  1 0.30000000E+03</rscale>
<asrwt>0</asrwt>
<pdfrwt beam="1">  1       21 0.25244599E-01 0.30000000E+03</pdfrwt>
<pdfrwt beam="2">0</pdfrwt>
<totfact> 0.15301358E+03</totfact>
</mgrwt>
</event>
<event>
 6    1  0.1280499E-001  0.3000000E+03  0.7818608E-02  0.1093470E+00
         21   -1    0    0  501  502  0.00000000000E+00  0.00000000000E+00  0.47535115804E+01  0.47535115804E+01  0.00000000000E+00 0. -1.
         13   -1    0    0    0    0 -0.00000000000E+00 -0.00000000000E+00 -0.10000000000E+04  0.10000000000E+04  0.00000000000E+00 0.  1.
    9000005    2    1    2  501    0 -0.59708097889E+02  0.99001251705E+01 -0.73795048884E+03  0.74043495220E+03  0.31504018935E+01 0.  0.
         13    1    3    3    0    0 -0.21975044488E+02  0.46582734378E+01 -0.25987235054E+03  0.26084140903E+03  0.00000000000E+00 0.  1.
          1    1    3    3  501    0 -0.37733053402E+02  0.52418517327E+01 -0.47807813831E+03  0.47959354317E+03  0.00000000000E+00 0.  1.
         -1    1    1    2    0  502  0.59708097889E+02 -0.99001251705E+01 -0.25729599958E+03  0.26431855938E+03  0.00000000000E+00 0. -1.
<mgrwt>
<rscale>  1 0.30000000E+03</rscale>
<asrwt>0</asrwt>
<pdfrwt beam="1">  1       21 0.17285533E-01 0.30000000E+03</pdfrwt>
<pdfrwt beam="2">0</pdfrwt>
<totfact> 0.31612682E+03</totfact>
</mgrwt>
</event>
<event>
 6    1  0.1280499E-001  0.3000000E+03  0.7818608E-02  0.1093470E+00
         21   -1    0    0  501  502  0.00000000000E+00  0.00000000000E+00  0.17627209022E+01  0.17627209022E+01  0.00000000000E+00 0. -1.
         13   -1    0    0    0    0 -0.00000000000E+00 -0.00000000000E+00 -0.10000000000E+04  0.10000000000E+04  0.00000000000E+00 0.  1.
    9000005    2    1    2  501    0 -0.22594391977E+02  0.23787993044E+02 -0.18846473671E+03  0.19132583528E+03  0.32004847919E+01 0.  0.
         13    1    3    3    0    0 -0.36826665140E+01  0.49812359761E+01 -0.30093408344E+02  0.30724387223E+02  0.00000000000E+00 0.  1.
          1    1    3    3  501    0 -0.18911725463E+02  0.18806757068E+02 -0.15837132836E+03  0.16060144806E+03  0.00000000000E+00 0.  1.
         -3    1    1    2    0  502  0.22594391977E+02 -0.23787993044E+02 -0.80977254239E+03  0.81043688562E+03  0.00000000000E+00 0. -1.
<mgrwt>
<rscale>  1 0.30000000E+03</rscale>
<asrwt>0</asrwt>
<pdfrwt beam="1">  1       21 0.64099077E-02 0.30000000E+03</pdfrwt>
<pdfrwt beam="2">0</pdfrwt>
<totfact> 0.18798704E+04</totfact>
</mgrwt>
</event>
<event>
 6    1  0.1280499E-001  0.3000000E+03  0.7818608E-02  0.1093470E+00
         21   -1    0    0  501  502  0.00000000000E+00  0.00000000000E+00  0.20673870597E+01  0.20673870597E+01  0.00000000000E+00 0. -1.
         13   -1    0    0    0    0 -0.00000000000E+00 -0.00000000000E+00 -0.10000000000E+04  0.10000000000E+04  0.00000000000E+00 0.  1.
    9000005    2    1    2  501    0  0.39406904937E+02 -0.20514904261E+02 -0.60221424692E+03  0.60386292870E+03  0.38304057788E+01 0.  0.
         13    1    3    3    0    0  0.11252404534E+02 -0.50581850679E+01 -0.14678055728E+03  0.14729811214E+03  0.00000000000E+00 0.  1.
          1    1    3    3  501    0  0.28154500403E+02 -0.15456719193E+02 -0.45543368964E+03  0.45656481656E+03  0.00000000000E+00 0.  1.
         -1    1    1    2    0  502 -0.39406904937E+02  0.20514904261E+02 -0.39571836602E+03  0.39820445836E+03  0.00000000000E+00 0. -1.
<mgrwt>
<rscale>  1 0.30000000E+03</rscale>
<asrwt>0</asrwt>
<pdfrwt beam="1">  1       21 0.75177870E-02 0.30000000E+03</pdfrwt>
<pdfrwt beam="2">0</pdfrwt>
<totfact> 0.14245256E+04</totfact>
</mgrwt>
</event>
<event>
 6    1  0.1280499E-001  0.3000000E+03  0.7818608E-02  0.1093470E+00
         21   -1    0    0  501  502  0.00000000000E+00  0.00000000000E+00  0.15185217617E+01  0.15185217617E+01  0.00000000000E+00 0. -1.
         13   -1    0    0    0    0 -0.00000000000E+00 -0.00000000000E+00 -0.10000000000E+04  0.10000000000E+04  0.00000000000E+00 0.  1.
    9000005    2    1    2  501    0 -0.53186542337E+01  0.33752877551E+02 -0.73679944761E+03  0.73761507355E+03  0.59182682928E+01 0.  0.
         13    1    3    3    0    0 -0.41647603976E+01  0.19742514404E+02 -0.49043407964E+03  0.49084895699E+03  0.00000000000E+00 0.  1.
          1    1    3    3  501    0 -0.11538938360E+01  0.14010363147E+02 -0.24636536797E+03  0.24676611656E+03  0.00000000000E+00 0.  1.
         -1    1    1    2    0  502  0.53186542337E+01 -0.33752877551E+02 -0.26168203062E+03  0.26390344821E+03  0.00000000000E+00 0. -1.
<mgrwt>
<rscale>  1 0.30000000E+03</rscale>
<asrwt>0</asrwt>
<pdfrwt beam="1">  1       21 0.55219090E-02 0.30000000E+03</pdfrwt>
<pdfrwt beam="2">0</pdfrwt>
<totfact> 0.24307858E+04</totfact>
</mgrwt>
</event>
<event>
 6    1  0.1280499E-001  0.3000000E+03  0.7818608E-02  0.1093470E+00
         21   -1    0    0  501  502  0.00000000000E+00  0.00000000000E+00  0.16351830163E+01  0.16351830163E+01  0.00000000000E+00 0. -1.
         13   -1    0    0    0    0 -0.00000000000E+00 -0.00000000000E+00 -0.10000000000E+04  0.10000000000E+04  0.00000000000E+00 0.  1.
    9000005    2    1    2  501    0 -0.16488386560E+02  0.36672905857E+02 -0.45683608408E+03  0.45861571976E+03  0.35216157826E+01 0.  0.
         13    1    3    3    0    0 -0.24730201087E+01  0.41998080677E+01 -0.44755458805E+02  0.45020054521E+02  0.00000000000E+00 0.  1.
          1    1    3    3  501    0 -0.14015366451E+02  0.32473097789E+02 -0.41208062528E+03  0.41359566524E+03  0.00000000000E+00 0.  1.
         -3    1    1    2    0  502  0.16488386560E+02 -0.36672905857E+02 -0.54152873290E+03  0.54301946325E+03  0.00000000000E+00 0. -1.
<mgrwt>
<rscale>  1 0.30000000E+03</rscale>
<asrwt>0</asrwt>
<pdfrwt beam="1">  1       21 0.59461326E-02 0.30000000E+03</pdfrwt>
<pdfrwt beam="2">0</pdfrwt>
<totfact> 0.21401909E+04</totfact>
</mgrwt>
</event>
<event>
 6    1  0.1280499E-001  0.3000000E+03  0.7818608E-02  0.1093470E+00
         21   -1    0    0  501  502  0.00000000000E+00  0.00000000000E+00  0.12568189391E+01  0.12568189391E+01  0.00000000000E+00 0. -1.
         13   -1    0    0    0    0 -0.00000000000E+00 -0.00000000000E+00 -0.10000000000E+04  0.10000000000E+04  0.00000000000E+00 0.  1.
    9000005    2    1    2  501    0 -0.23068273372E+02  0.25577682555E+02 -0.61556788266E+03  0.61653656682E+03  0.26752551225E+01 0.  0.
         13    1    3    3    0    0 -0.13505482836E+02  0.15994143551E+02 -0.35364249804E+03  0.35426152362E+03  0.00000000000E+00 0.  1.
          1    1    3    3  501    0 -0.95627905360E+01  0.95835390033E+01 -0.26192538462E+03  0.26227504321E+03  0.00000000000E+00 0.  1.
         -3    1    1    2    0  502  0.23068273372E+02 -0.25577682555E+02 -0.38317529841E+03  0.38472025212E+03  0.00000000000E+00 0. -1.
<mgrwt>
<rscale>  1 0.30000000E+03</rscale>
<asrwt>0</asrwt>
<pdfrwt beam="1">  1       21 0.45702603E-02 0.30000000E+03</pdfrwt>
<pdfrwt beam="2">0</pdfrwt>
<totfact> 0.33563577E+04</totfact>
</mgrwt>
</event>
<event>
 6    1  0.1280499E-001  0.3000000E+03  0.7818608E-02  0.1093470E+00
         21   -1    0    0  501  502  0.00000000000E+00  0.00000000000E+00  0.43305404684E+01  0.43305404684E+01  0.00000000000E+00 0. -1.
         13   -1    0    0    0    0 -0.00000000000E+00 -0.00000000000E+00 -0.10000000000E+04  0.10000000000E+04  0.00000000000E+00 0.  1.
    9000005    2    1    2  501    0  0.17833020241E+02 -0.38321064985E+02 -0.88258606143E+03  0.88360616199E+03  0.38952594019E+01 0.  0.
         13    1    3    3    0    0  0.93730120255E+00 -0.60300849687E+00 -0.24749148739E+02  0.24774230888E+02  0.00000000000E+00 0.  1.
          3    1    3    3  501    0  0.16895719039E+02 -0.37718056488E+02 -0.85783691269E+03  0.85883193110E+03  0.00000000000E+00 0.  1.
         -3    1    1    2    0  502 -0.17833020241E+02  0.38321064985E+02 -0.11308339810E+03  0.12072437848E+03  0.00000000000E+00 0. -1.
<mgrwt>
<rscale>  1 0.30000000E+03</rscale>
<asrwt>0</asrwt>
<pdfrwt beam="1">  1       21 0.15747453E-01 0.30000000E+03</pdfrwt>
<pdfrwt beam="2">0</pdfrwt>
<totfact> 0.37625437E+03</totfact>
</mgrwt>
</event>
<event>
 6    1  0.1280499E-001  0.3000000E+03  0.7818608E-02  0.1093470E+00
         21   -1    0    0  501  502  0.00000000000E+00  0.00000000000E+00  0.22525395289E+01  0.22525395289E+01  0.00000000000E+00 0. -1.
         13   -1    0    0    0    0 -0.00000000000E+00 -0.00000000000E+00 -0.10000000000E+04  0.10000000000E+04  0.00000000000E+00 0.  1.
    9000005    2    1    2  501    0 -0.27601470795E+02  0.20482834901E+02 -0.84406583997E+03  0.84477419754E+03  0.38619826375E+01 0.  0.
         13    1    3    3    0    0 -0.13772399447E+02  0.10861839833E+02 -0.47589139658E+03  0.47621453137E+03  0.00000000000E+00 0.  1.
          3    1    3    3  501    0 -0.13829071348E+02  0.96209950680E+01 -0.36817444339E+03  0.36855966617E+03  0.00000000000E+00 0.  1.
         -3    1    1    2    0  502  0.27601470795E+02 -0.20482834901E+02 -0.15368162050E+03  0.15747834199E+03  0.00000000000E+00 0. -1.
<mgrwt>
<rscale>  1 0.30000000E+03</rscale>
<asrwt>0</asrwt>
<pdfrwt beam="1">  1       21 0.81910701E-02 0.30000000E+03</pdfrwt>
<pdfrwt beam="2">0</pdfrwt>
<totfact> 0.12254768E+04</totfact>
</mgrwt>
</event>
<event>
 6    1  0.1280499E-001  0.3000000E+03  0.7818608E-02  0.1093470E+00
         21   -1    0    0  501  502  0.00000000000E+00  0.00000000000E+00  0.12986031724E+01  0.12986031724E+01  0.00000000000E+00 0. -1.
         13   -1    0    0    0    0 -0.00000000000E+00 -0.00000000000E+00 -0.10000000000E+04  0.10000000000E+04  0.00000000000E+00 0.  1.
    9000005    2    1    2  501    0 -0.12306457085E+02  0.27689697903E+02 -0.76941911504E+03  0.77002272247E+03  0.33241939263E+01 0.  0.
         13    1    3    3    0    0 -0.38450895232E+01  0.53619603106E+01 -0.17383046774E+03  0.17395564621E+03  0.00000000000E+00 0.  1.
          1    1    3    3  501    0 -0.84613675616E+01  0.22327737592E+02 -0.59558864730E+03  0.59606707626E+03  0.00000000000E+00 0.  1.
         -1    1    1    2    0  502  0.12306457085E+02 -0.27689697903E+02 -0.22928228179E+03  0.23127588071E+03  0.00000000000E+00 0. -1.
<mgrwt>
<rscale>  1 0.30000000E+03</rscale>
<asrwt>0</asrwt>
<pdfrwt beam="1">  1       21 0.47222033E-02 0.30000000E+03</pdfrwt>
<pdfrwt beam="2">0</pdfrwt>
<totfact> 0.31748881E+04</totfact>
</mgrwt>
</event>
<event>
 6    1  0.1280499E-001  0.3000000E+03  0.7818608E-02  0.1093470E+00
         21   -1    0    0  501  502  0.00000000000E+00  0.00000000000E+00  0.39102575760E+01  0.39102575760E+01  0.00000000000E+00 0. -1.
         13   -1    0    0    0    0 -0.00000000000E+00 -0.00000000000E+00 -0.10000000000E+04  0.10000000000E+04  0.00000000000E+00 0.  1.
    9000005    2    1    2  501    0  0.58569856361E+01 -0.43220407448E+02 -0.85735216770E+03  0.85847840913E+03  0.54892249665E+01 0.  0.
         13    1    3    3    0    0  0.45523316323E+01 -0.39336807769E+02 -0.74514621207E+03  0.74619768529E+03  0.00000000000E+00 0.  1.
          1    1    3    3  501    0  0.13046540037E+01 -0.38835996788E+01 -0.11220595562E+03  0.11228072384E+03  0.00000000000E+00 0.  1.
         -3    1    1    2    0  502 -0.58569856361E+01  0.43220407448E+02 -0.13873757473E+03  0.14543184845E+03  0.00000000000E+00 0. -1.
<mgrwt>
<rscale>  1 0.30000000E+03</rscale>
<asrwt>0</asrwt>
<pdfrwt beam="1">  1       21 0.14219148E-01 0.30000000E+03</pdfrwt>
<pdfrwt beam="2">0</pdfrwt>
<totfact> 0.45450039E+03</totfact>
</mgrwt>
</event>
<event>
 6    1  0.1280499E-001  0.3000000E+03  0.7818608E-02  0.1093470E+00
         21   -1    0    0  501  502  0.00000000000E+00  0.00000000000E+00  0.18835946909E+01  0.18835946909E+01  0.00000000000E+00 0. -1.
         13   -1    0    0    0    0 -0.00000000000E+00 -0.00000000000E+00 -0.10000000000E+04  0.10000000000E+04  0.00000000000E+00 0.  1.
    9000005    2    1    2  501    0 -0.39430962690E+02 -0.17590433032E+02 -0.54277648420E+03  0.54450118586E+03  0.33174461215E+01 0.  0.
         13    1    3    3    0    0 -0.19870470315E+02 -0.10487413403E+02 -0.29110006643E+03  0.29196587147E+03  0.00000000000E+00 0.  1.
          3    1    3    3  501    0 -0.19560492375E+02 -0.71030196296E+01 -0.25167641777E+03  0.25253531439E+03  0.00000000000E+00 0.  1.
         -3    1    1    2    0  502  0.39430962690E+02  0.17590433032E+02 -0.45533992111E+03  0.45738240883E+03  0.00000000000E+00 0. -1.
<mgrwt>
<rscale>  1 0.30000000E+03</rscale>
<asrwt>0</asrwt>
<pdfrwt beam="1">  1       21 0.68494497E-02 0.30000000E+03</pdfrwt>
<pdfrwt beam="2">0</pdfrwt>
<totfact> 0.16756970E+04</totfact>
</mgrwt>
</event>
<event>
 6    1  0.1280499E-001  0.3000000E+03  0.7818608E-02  0.1093470E+00
         21   -1    0    0  501  502  0.00000000000E+00  0.00000000000E+00  0.17155470870E+01  0.17155470870E+01  0.00000000000E+00 0. -1.
         13   -1    0    0    0    0 -0.00000000000E+00 -0.00000000000E+00 -0.10000000000E+04  0.10000000000E+04  0.00000000000E+00 0.  1.
    9000005    2    1    2  501    0  0.81839803926E+01 -0.38921171897E+02 -0.63705091638E+03  0.63829911505E+03  0.31709712506E+01 0.  0.
         13    1    3    3    0    0  0.32757819753E+01 -0.23055488921E+02 -0.37625552753E+03  0.37697547442E+03  0.00000000000E+00 0.  1.
          3    1    3    3  501    0  0.49081984173E+01 -0.15865682975E+02 -0.26079538885E+03  0.26132364063E+03  0.00000000000E+00 0.  1.
         -3    1    1    2    0  502 -0.81839803926E+01  0.38921171897E+02 -0.36123353654E+03  0.36341643204E+03  0.00000000000E+00 0. -1.
<mgrwt>
<rscale>  1 0.30000000E+03</rscale>
<asrwt>0</asrwt>
<pdfrwt beam="1">  1       21 0.62383662E-02 0.30000000E+03</pdfrwt>
<pdfrwt beam="2">0</pdfrwt>
<totfact> 0.19701282E+04</totfact>
</mgrwt>
</event>
<event>
 6    1  0.1280499E-001  0.3000000E+03  0.7818608E-02  0.1093470E+00
         21   -1    0    0  501  502  0.00000000000E+00  0.00000000000E+00  0.18186737276E+02  0.18186737276E+02  0.00000000000E+00 0. -1.
         13   -1    0    0    0    0 -0.00000000000E+00 -0.00000000000E+00 -0.10000000000E+04  0.10000000000E+04  0.00000000000E+00 0.  1.
    9000005    2    1    2  501    0 -0.12225481857E+03 -0.52319630224E+02 -0.40652107493E+03  0.42772531965E+03  0.24454722652E+01 0.  0.
         13    1    3    3    0    0 -0.16636522342E+02 -0.62457292152E+01 -0.55012093868E+02  0.57811015220E+02  0.00000000000E+00 0.  1.
          3    1    3    3  501    0 -0.10561829623E+03 -0.46073901009E+02 -0.35150898106E+03  0.36991430443E+03  0.00000000000E+00 0.  1.
         -3    1    1    2    0  502  0.12225481857E+03  0.52319630224E+02 -0.57529218779E+03  0.59046141763E+03  0.00000000000E+00 0. -1.
<mgrwt>
<rscale>  1 0.30000000E+03</rscale>
<asrwt>0</asrwt>
<pdfrwt beam="1">  1       21 0.66133730E-01 0.30000000E+03</pdfrwt>
<pdfrwt beam="2">0</pdfrwt>
<totfact> 0.20127098E+02</totfact>
</mgrwt>
</event>
<event>
 6    1  0.1280499E-001  0.3000000E+03  0.7818608E-02  0.1093470E+00
         21   -1    0    0  501  502  0.00000000000E+00  0.00000000000E+00  0.29873220729E+01  0.29873220729E+01  0.00000000000E+00 0. -1.
         13   -1    0    0    0    0 -0.00000000000E+00 -0.00000000000E+00 -0.10000000000E+04  0.10000000000E+04  0.00000000000E+00 0.  1.
    9000005    2    1    2  501    0  0.32888413815E+02  0.54979000919E+01 -0.89576303454E+03  0.89638823692E+03  0.29296037089E+01 0.  0.
         13    1    3    3    0    0  0.12087585906E+02  0.62918982387E+00 -0.31568765248E+03  0.31591960930E+03  0.00000000000E+00 0.  1.
          1    1    3    3  501    0  0.20800827909E+02  0.48687102680E+01 -0.58007538206E+03  0.58046862763E+03  0.00000000000E+00 0.  1.
         -1    1    1    2    0  502 -0.32888413815E+02 -0.54979000919E+01 -0.10124964339E+03  0.10659908515E+03  0.00000000000E+00 0. -1.
<mgrwt>
<rscale>  1 0.30000000E+03</rscale>
<asrwt>0</asrwt>
<pdfrwt beam="1">  1       21 0.10863012E-01 0.30000000E+03</pdfrwt>
<pdfrwt beam="2">0</pdfrwt>
<totfact> 0.74172960E+03</totfact>
</mgrwt>
</event>
<event>
 6    1  0.1280499E-001  0.3000000E+03  0.7818608E-02  0.1093470E+00
         21   -1    0    0  501  502  0.00000000000E+00  0.00000000000E+00  0.16824984746E+01  0.16824984746E+01  0.00000000000E+00 0. -1.
         13   -1    0    0    0    0 -0.00000000000E+00 -0.00000000000E+00 -0.10000000000E+04  0.10000000000E+04  0.00000000000E+00 0.  1.
    9000005    2    1    2  501    0 -0.33691384803E+02  0.23285547772E+02 -0.49269039778E+03  0.49439944713E+03  0.31079104513E+01 0.  0.
         13    1    3    3    0    0 -0.12398812188E+02  0.98383888337E+01 -0.17713621434E+03  0.17784196037E+03  0.00000000000E+00 0.  1.
          3    1    3    3  501    0 -0.21292572616E+02  0.13447158939E+02 -0.31555418344E+03  0.31655748675E+03  0.00000000000E+00 0.  1.
         -3    1    1    2    0  502  0.33691384803E+02 -0.23285547772E+02 -0.50562710374E+03  0.50728305135E+03  0.00000000000E+00 0. -1.
<mgrwt>
<rscale>  1 0.30000000E+03</rscale>
<asrwt>0</asrwt>
<pdfrwt beam="1">  1       21 0.61181892E-02 0.30000000E+03</pdfrwt>
<pdfrwt beam="2">0</pdfrwt>
<totfact> 0.20374289E+04</totfact>
</mgrwt>
</event>
<event>
 6    1  0.1280499E-001  0.3000000E+03  0.7818608E-02  0.1093470E+00
         21   -1    0    0  501  502  0.00000000000E+00  0.00000000000E+00  0.99263525320E+00  0.99263525320E+00  0.00000000000E+00 0. -1.
         13   -1    0    0    0    0 -0.00000000000E+00 -0.00000000000E+00 -0.10000000000E+04  0.10000000000E+04  0.00000000000E+00 0.  1.
    9000005    2    1    2  501    0  0.85424370465E+00  0.31158697598E+02 -0.55835324396E+03  0.55923744475E+03  0.40719042005E+01 0.  0.
         13    1    3    3    0    0 -0.12018019878E+01  0.21073082336E+02 -0.36274929808E+03  0.36336286599E+03  0.00000000000E+00 0.  1.
          3    1    3    3  501    0  0.20560456924E+01  0.10085615263E+02 -0.19560394588E+03  0.19587457876E+03  0.00000000000E+00 0.  1.
         -1    1    1    2    0  502 -0.85424370465E+00 -0.31158697598E+02 -0.44065412079E+03  0.44175519050E+03  0.00000000000E+00 0. -1.
<mgrwt>
<rscale>  1 0.30000000E+03</rscale>
<asrwt>0</asrwt>
<pdfrwt beam="1">  1       21 0.36095904E-02 0.30000000E+03</pdfrwt>
<pdfrwt beam="2">0</pdfrwt>
<totfact> 0.49966880E+04</totfact>
</mgrwt>
</event>
<event>
 6    1  0.1280499E-001  0.3000000E+03  0.7818608E-02  0.1093470E+00
         21   -1    0    0  501  502  0.00000000000E+00  0.00000000000E+00  0.15845493732E+01  0.15845493732E+01  0.00000000000E+00 0. -1.
         13   -1    0    0    0    0 -0.00000000000E+00 -0.00000000000E+00 -0.10000000000E+04  0.10000000000E+04  0.00000000000E+00 0.  1.
    9000005    2    1    2  501    0  0.35291724077E+02 -0.13824769746E+02 -0.64986080224E+03  0.65097511858E+03  0.35934217284E+01 0.  0.
         13    1    3    3    0    0  0.27372681425E+02 -0.10526946354E+02 -0.52679894537E+03  0.52761464075E+03  0.00000000000E+00 0.  1.
          3    1    3    3  501    0  0.79190426513E+01 -0.32978233923E+01 -0.12306185686E+03  0.12336047783E+03  0.00000000000E+00 0.  1.
         -1    1    1    2    0  502 -0.35291724077E+02  0.13824769746E+02 -0.34855464839E+03  0.35060943079E+03  0.00000000000E+00 0. -1.
<mgrwt>
<rscale>  1 0.30000000E+03</rscale>
<asrwt>0</asrwt>
<pdfrwt beam="1">  1       21 0.57620099E-02 0.30000000E+03</pdfrwt>
<pdfrwt beam="2">0</pdfrwt>
<totfact> 0.22593755E+04</totfact>
</mgrwt>
</event>
<event>
 6    1  0.1280499E-001  0.3000000E+03  0.7818608E-02  0.1093470E+00
         21   -1    0    0  501  502  0.00000000000E+00  0.00000000000E+00  0.19640326357E+01  0.19640326357E+01  0.00000000000E+00 0. -1.
         13   -1    0    0    0    0 -0.00000000000E+00 -0.00000000000E+00 -0.10000000000E+04  0.10000000000E+04  0.00000000000E+00 0.  1.
    9000005    2    1    2  501    0  0.30611003456E+02  0.96599284095E+01 -0.84400970659E+03  0.84462860510E+03  0.38403107707E+01 0.  0.
         13    1    3    3    0    0  0.24422208839E+02  0.60852650438E+01 -0.66673782725E+03  0.66721271348E+03  0.00000000000E+00 0.  1.
          1    1    3    3  501    0  0.61887946175E+01  0.35746633657E+01 -0.17727187934E+03  0.17741589162E+03  0.00000000000E+00 0.  1.
         -3    1    1    2    0  502 -0.30611003456E+02 -0.96599284095E+01 -0.15402626077E+03  0.15733542753E+03  0.00000000000E+00 0. -1.
<mgrwt>
<rscale>  1 0.30000000E+03</rscale>
<asrwt>0</asrwt>
<pdfrwt beam="1">  1       21 0.71419519E-02 0.30000000E+03</pdfrwt>
<pdfrwt beam="2">0</pdfrwt>
<totfact> 0.15580819E+04</totfact>
</mgrwt>
</event>
<event>
 6    1  0.1280499E-001  0.3000000E+03  0.7818608E-02  0.1093470E+00
         21   -1    0    0  501  502  0.00000000000E+00  0.00000000000E+00  0.32167107256E+01  0.32167107256E+01  0.00000000000E+00 0. -1.
         13   -1    0    0    0    0 -0.00000000000E+00 -0.00000000000E+00 -0.10000000000E+04  0.10000000000E+04  0.00000000000E+00 0.  1.
    9000005    2    1    2  501    0 -0.41352689947E+02  0.26243270639E+02 -0.75082532438E+03  0.75242979975E+03  0.36306484390E+01 0.  0.
         13    1    3    3    0    0 -0.25700483811E+02  0.14613461173E+02 -0.43617387557E+03  0.43717469946E+03  0.00000000000E+00 0.  1.
          3    1    3    3  501    0 -0.15652206135E+02  0.11629809466E+02 -0.31465144881E+03  0.31525510029E+03  0.00000000000E+00 0.  1.
         -1    1    1    2    0  502  0.41352689947E+02 -0.26243270639E+02 -0.24595796490E+03  0.25078691098E+03  0.00000000000E+00 0. -1.
<mgrwt>
<rscale>  1 0.30000000E+03</rscale>
<asrwt>0</asrwt>
<pdfrwt beam="1">  1       21 0.11697155E-01 0.30000000E+03</pdfrwt>
<pdfrwt beam="2">0</pdfrwt>
<totfact> 0.64909502E+03</totfact>
</mgrwt>
</event>
<event>
 6    1  0.1280499E-001  0.3000000E+03  0.7818608E-02  0.1093470E+00
         21   -1    0    0  501  502  0.00000000000E+00  0.00000000000E+00  0.27507575391E+01  0.27507575391E+01  0.00000000000E+00 0. -1.
         13   -1    0    0    0    0 -0.00000000000E+00 -0.00000000000E+00 -0.10000000000E+04  0.10000000000E+04  0.00000000000E+00 0.  1.
    9000005    2    1    2  501    0  0.12628360185E+02 -0.38073275289E+02 -0.82135052744E+03  0.82233621345E+03  0.33330550955E+01 0.  0.
         13    1    3    3    0    0  0.74136096876E+01 -0.25104956578E+02 -0.56202321850E+03  0.56263248981E+03  0.00000000000E+00 0.  1.
          1    1    3    3  501    0  0.52147504979E+01 -0.12968318712E+02 -0.25932730893E+03  0.25970372364E+03  0.00000000000E+00 0.  1.
         -3    1    1    2    0  502 -0.12628360185E+02  0.38073275289E+02 -0.17589871503E+03  0.18041454409E+03  0.00000000000E+00 0. -1.
<mgrwt>
<rscale>  1 0.30000000E+03</rscale>
<asrwt>0</asrwt>
<pdfrwt beam="1">  1       21 0.10002776E-01 0.30000000E+03</pdfrwt>
<pdfrwt beam="2">0</pdfrwt>
<totfact> 0.85989322E+03</totfact>
</mgrwt>
</event>
<event>
 6    1  0.1280499E-001  0.3000000E+03  0.7818608E-02  0.1093470E+00
         21   -1    0    0  501  502  0.00000000000E+00  0.00000000000E+00  0.96737587591E+00  0.96737587591E+00  0.00000000000E+00 0. -1.
         13   -1    0    0    0    0 -0.00000000000E+00 -0.00000000000E+00 -0.10000000000E+04  0.10000000000E+04  0.00000000000E+00 0.  1.
    9000005    2    1    2  501    0  0.30956406278E+02  0.50974117376E+00 -0.53221662711E+03  0.53312580655E+03  0.31667816948E+01 0.  0.
         13    1    3    3    0    0 -0.44807996469E-01 -0.11742034448E-01 -0.38181484653E+01  0.38184294330E+01  0.00000000000E+00 0.  1.
          1    1    3    3  501    0  0.31001214274E+02  0.52148320821E+00 -0.52839847865E+03  0.52930737712E+03  0.00000000000E+00 0.  1.
         -1    1    1    2    0  502 -0.30956406278E+02 -0.50974117376E+00 -0.46681599701E+03  0.46784156933E+03  0.00000000000E+00 0. -1.
<mgrwt>
<rscale>  1 0.30000000E+03</rscale>
<asrwt>0</asrwt>
<pdfrwt beam="1">  1       21 0.35177379E-02 0.30000000E+03</pdfrwt>
<pdfrwt beam="2">0</pdfrwt>
<totfact> 0.52173219E+04</totfact>
</mgrwt>
</event>
<event>
 6    1  0.1280499E-001  0.3000000E+03  0.7818608E-02  0.1093470E+00
         21   -1    0    0  501  502  0.00000000000E+00  0.00000000000E+00  0.13049710106E+01  0.13049710106E+01  0.00000000000E+00 0. -1.
         13   -1    0    0    0    0 -0.00000000000E+00 -0.00000000000E+00 -0.10000000000E+04  0.10000000000E+04  0.00000000000E+00 0.  1.
    9000005    2    1    2  501    0 -0.32474028142E+02 -0.14322667162E+02 -0.58969525368E+03  0.59076810604E+03  0.26003077930E+01 0.  0.
         13    1    3    3    0    0 -0.28025844344E+02 -0.12467719102E+02 -0.52323225719E+03  0.52413060103E+03  0.00000000000E+00 0.  1.
          1    1    3    3  501    0 -0.44481837980E+01 -0.18549480597E+01 -0.66462996488E+02  0.66637505007E+02  0.00000000000E+00 0.  1.
         -1    1    1    2    0  502  0.32474028142E+02  0.14322667162E+02 -0.40899977531E+03  0.41053686497E+03  0.00000000000E+00 0. -1.
<mgrwt>
<rscale>  1 0.30000000E+03</rscale>
<asrwt>0</asrwt>
<pdfrwt beam="1">  1       21 0.47453591E-02 0.30000000E+03</pdfrwt>
<pdfrwt beam="2">0</pdfrwt>
<totfact> 0.31485855E+04</totfact>
</mgrwt>
</event>
<event>
 6    1  0.1280499E-001  0.3000000E+03  0.7818608E-02  0.1093470E+00
         21   -1    0    0  501  502  0.00000000000E+00  0.00000000000E+00  0.13031196009E+01  0.13031196009E+01  0.00000000000E+00 0. -1.
         13   -1    0    0    0    0 -0.00000000000E+00 -0.00000000000E+00 -0.10000000000E+04  0.10000000000E+04  0.00000000000E+00 0.  1.
    9000005    2    1    2  501    0 -0.23205217396E+02  0.20505461597E+02 -0.75574444313E+03  0.75638508669E+03  0.31272953570E+01 0.  0.
         13    1    3    3    0    0 -0.16539419226E+02  0.15873136256E+02 -0.58146085415E+03  0.58191256538E+03  0.00000000000E+00 0.  1.
          1    1    3    3  501    0 -0.66657981694E+01  0.46323253412E+01 -0.17428358898E+03  0.17447252131E+03  0.00000000000E+00 0.  1.
         -1    1    1    2    0  502  0.23205217396E+02 -0.20505461597E+02 -0.24295243727E+03  0.24491803291E+03  0.00000000000E+00 0. -1.
<mgrwt>
<rscale>  1 0.30000000E+03</rscale>
<asrwt>0</asrwt>
<pdfrwt beam="1">  1       21 0.47386267E-02 0.30000000E+03</pdfrwt>
<pdfrwt beam="2">0</pdfrwt>
<totfact> 0.31561975E+04</totfact>
</mgrwt>
</event>
<event>
 6    1  0.1280499E-001  0.3000000E+03  0.7818608E-02  0.1093470E+00
         21   -1    0    0  501  502  0.00000000000E+00  0.00000000000E+00  0.17478267077E+01  0.17478267077E+01  0.00000000000E+00 0. -1.
         13   -1    0    0    0    0 -0.00000000000E+00 -0.00000000000E+00 -0.10000000000E+04  0.10000000000E+04  0.00000000000E+00 0.  1.
    9000005    2    1    2  501    0  0.38426721627E+02 -0.15381877015E+02 -0.56100738391E+03  0.56254830380E+03  0.42537321925E+01 0.  0.
         13    1    3    3    0    0  0.34599094131E+02 -0.14918180159E+02 -0.51794661341E+03  0.51931526432E+03  0.00000000000E+00 0.  1.
          1    1    3    3  501    0  0.38276274963E+01 -0.46369685562E+00 -0.43060770495E+02  0.43233039480E+02  0.00000000000E+00 0.  1.
         -3    1    1    2    0  502 -0.38426721627E+02  0.15381877015E+02 -0.43724478939E+03  0.43919952291E+03  0.00000000000E+00 0. -1.
<mgrwt>
<rscale>  1 0.30000000E+03</rscale>
<asrwt>0</asrwt>
<pdfrwt beam="1">  1       21 0.63557469E-02 0.30000000E+03</pdfrwt>
<pdfrwt beam="2">0</pdfrwt>
<totfact> 0.19076639E+04</totfact>
</mgrwt>
</event>
<event>
 6    1  0.1280499E-001  0.3000000E+03  0.7818608E-02  0.1093470E+00
         21   -1    0    0  501  502  0.00000000000E+00  0.00000000000E+00  0.11515108742E+01  0.11515108742E+01  0.00000000000E+00 0. -1.
         13   -1    0    0    0    0 -0.00000000000E+00 -0.00000000000E+00 -0.10000000000E+04  0.10000000000E+04  0.00000000000E+00 0.  1.
    9000005    2    1    2  501    0 -0.15721160903E+01 -0.32135691729E+02 -0.65591070311E+03  0.65670775740E+03  0.33247465079E+01 0.  0.
         13    1    3    3    0    0 -0.14247346393E+01 -0.92696935436E+01 -0.16812361384E+03  0.16838499522E+03  0.00000000000E+00 0.  1.
          1    1    3    3  501    0 -0.14738145099E+00 -0.22865998186E+02 -0.48778708928E+03  0.48832276218E+03  0.00000000000E+00 0.  1.
         -3    1    1    2    0  502  0.15721160903E+01  0.32135691729E+02 -0.34293778601E+03  0.34444375347E+03  0.00000000000E+00 0. -1.
<mgrwt>
<rscale>  1 0.30000000E+03</rscale>
<asrwt>0</asrwt>
<pdfrwt beam="1">  1       21 0.41873211E-02 0.30000000E+03</pdfrwt>
<pdfrwt beam="2">0</pdfrwt>
<totfact> 0.38924657E+04</totfact>
</mgrwt>
</event>
<event>
 6    1  0.1280499E-001  0.3000000E+03  0.7818608E-02  0.1093470E+00
         21   -1    0    0  501  502  0.00000000000E+00  0.00000000000E+00  0.13167708968E+01  0.13167708968E+01  0.00000000000E+00 0. -1.
         13   -1    0    0    0    0 -0.00000000000E+00 -0.00000000000E+00 -0.10000000000E+04  0.10000000000E+04  0.00000000000E+00 0.  1.
    9000005    2    1    2  501    0 -0.31413930176E+02 -0.15710662554E+02 -0.60306883895E+03  0.60414627146E+03  0.81873609232E+01 0.  0.
         13    1    3    3    0    0 -0.27929299046E+01 -0.19005131786E+01 -0.28542998995E+02  0.28742219807E+02  0.00000000000E+00 0.  1.
          3    1    3    3  501    0 -0.28621000272E+02 -0.13810149375E+02 -0.57452583996E+03  0.57540405166E+03  0.00000000000E+00 0.  1.
         -3    1    1    2    0  502  0.31413930176E+02  0.15710662554E+02 -0.39561439015E+03  0.39717049943E+03  0.00000000000E+00 0. -1.
<mgrwt>
<rscale>  1 0.30000000E+03</rscale>
<asrwt>0</asrwt>
<pdfrwt beam="1">  1       21 0.47882679E-02 0.30000000E+03</pdfrwt>
<pdfrwt beam="2">0</pdfrwt>
<totfact> 0.31007386E+04</totfact>
</mgrwt>
</event>
<event>
 6    1  0.1280499E-001  0.3000000E+03  0.7818608E-02  0.1093470E+00
         21   -1    0    0  501  502  0.00000000000E+00  0.00000000000E+00  0.56570821322E+01  0.56570821322E+01  0.00000000000E+00 0. -1.
         13   -1    0    0    0    0 -0.00000000000E+00 -0.00000000000E+00 -0.10000000000E+04  0.10000000000E+04  0.00000000000E+00 0.  1.
    9000005    2    1    2  501    0  0.29777512576E+02  0.50921091075E+02 -0.80894398221E+03  0.81110009019E+03  0.36513253660E+01 0.  0.
         13    1    3    3    0    0  0.18993488217E+02  0.33611468003E+02 -0.55141075845E+03  0.55276062442E+03  0.00000000000E+00 0.  1.
          3    1    3    3  501    0  0.10784024359E+02  0.17309623072E+02 -0.25753322376E+03  0.25833946577E+03  0.00000000000E+00 0.  1.
         -1    1    1    2    0  502 -0.29777512576E+02 -0.50921091075E+02 -0.18539893566E+03  0.19455699194E+03  0.00000000000E+00 0. -1.
<mgrwt>
<rscale>  1 0.30000000E+03</rscale>
<asrwt>0</asrwt>
<pdfrwt beam="1">  1       21 0.20571251E-01 0.30000000E+03</pdfrwt>
<pdfrwt beam="2">0</pdfrwt>
<totfact> 0.22734890E+03</totfact>
</mgrwt>
</event>
<event>
 6    1  0.1280499E-001  0.3000000E+03  0.7818608E-02  0.1093470E+00
         21   -1    0    0  501  502  0.00000000000E+00  0.00000000000E+00  0.12299512170E+01  0.12299512170E+01  0.00000000000E+00 0. -1.
         13   -1    0    0    0    0 -0.00000000000E+00 -0.00000000000E+00 -0.10000000000E+04  0.10000000000E+04  0.00000000000E+00 0.  1.
    9000005    2    1    2  501    0  0.34765074815E+02 -0.38455063409E+01 -0.51365975891E+03  0.51486034722E+03  0.33809578812E+01 0.  0.
         13    1    3    3    0    0  0.27844922091E+02 -0.18432249364E+01 -0.41663641828E+03  0.41756992492E+03  0.00000000000E+00 0.  1.
          1    1    3    3  501    0  0.69201527232E+01 -0.20022814045E+01 -0.97023340629E+02  0.97290422301E+02  0.00000000000E+00 0.  1.
         -3    1    1    2    0  502 -0.34765074815E+02  0.38455063409E+01 -0.48511028988E+03  0.48636960399E+03  0.00000000000E+00 0. -1.
<mgrwt>
<rscale>  1 0.30000000E+03</rscale>
<asrwt>0</asrwt>
<pdfrwt beam="1">  1       21 0.44725593E-02 0.30000000E+03</pdfrwt>
<pdfrwt beam="2">0</pdfrwt>
<totfact> 0.34817614E+04</totfact>
</mgrwt>
</event>
<event>
 6    1  0.1280499E-001  0.3000000E+03  0.7818608E-02  0.1093470E+00
         21   -1    0    0  501  502  0.00000000000E+00  0.00000000000E+00  0.42574839184E+01  0.42574839184E+01  0.00000000000E+00 0. -1.
         13   -1    0    0    0    0 -0.00000000000E+00 -0.00000000000E+00 -0.10000000000E+04  0.10000000000E+04  0.00000000000E+00 0.  1.
    9000005    2    1    2  501    0 -0.46732650614E+02  0.44378393825E+02 -0.57481084335E+03  0.57842083029E+03  0.31255077977E+01 0.  0.
         13    1    3    3    0    0 -0.20015880428E+02  0.20464318525E+02 -0.24501402784E+03  0.24668055789E+03  0.00000000000E+00 0.  1.
          3    1    3    3  501    0 -0.26716770186E+02  0.23914075300E+02 -0.32979681552E+03  0.33174027240E+03  0.00000000000E+00 0.  1.
         -1    1    1    2    0  502  0.46732650614E+02 -0.44378393825E+02 -0.42093167273E+03  0.42583665363E+03  0.00000000000E+00 0. -1.
<mgrwt>
<rscale>  1 0.30000000E+03</rscale>
<asrwt>0</asrwt>
<pdfrwt beam="1">  1       21 0.15481792E-01 0.30000000E+03</pdfrwt>
<pdfrwt beam="2">0</pdfrwt>
<totfact> 0.38835378E+03</totfact>
</mgrwt>
</event>
<event>
 6    1  0.1280499E-001  0.3000000E+03  0.7818608E-02  0.1093470E+00
         21   -1    0    0  501  502  0.00000000000E+00  0.00000000000E+00  0.81295499227E+01  0.81295499227E+01  0.00000000000E+00 0. -1.
         13   -1    0    0    0    0 -0.00000000000E+00 -0.00000000000E+00 -0.10000000000E+04  0.10000000000E+04  0.00000000000E+00 0.  1.
    9000005    2    1    2  501    0 -0.40745173200E+02  0.16302120096E+02 -0.93623215758E+03  0.93726666930E+03  0.34968882664E+01 0.  0.
         13    1    3    3    0    0 -0.39425027512E+02  0.15372694123E+02 -0.88831747881E+03  0.88932479763E+03  0.00000000000E+00 0.  1.
          3    1    3    3  501    0 -0.13201456870E+01  0.92942597254E+00 -0.47914678768E+02  0.47941871665E+02  0.00000000000E+00 0.  1.
         -3    1    1    2    0  502  0.40745173200E+02 -0.16302120096E+02 -0.55638292496E+02  0.70862880626E+02  0.00000000000E+00 0. -1.
<mgrwt>
<rscale>  1 0.30000000E+03</rscale>
<asrwt>0</asrwt>
<pdfrwt beam="1">  1       21 0.29562062E-01 0.30000000E+03</pdfrwt>
<pdfrwt beam="2">0</pdfrwt>
<totfact> 0.11197055E+03</totfact>
</mgrwt>
</event>
<event>
 6    1  0.1280499E-001  0.3000000E+03  0.7818608E-02  0.1093470E+00
         21   -1    0    0  501  502  0.00000000000E+00  0.00000000000E+00  0.30413141907E+01  0.30413141907E+01  0.00000000000E+00 0. -1.
         13   -1    0    0    0    0 -0.00000000000E+00 -0.00000000000E+00 -0.10000000000E+04  0.10000000000E+04  0.00000000000E+00 0.  1.
    9000005    2    1    2  501    0  0.37306863023E+02  0.27978466149E+02 -0.76573964235E+03  0.76716668085E+03  0.35944038976E+01 0.  0.
         13    1    3    3    0    0  0.30322724052E+01  0.11487475807E+01 -0.51536180487E+02  0.51638088618E+02  0.00000000000E+00 0.  1.
          3    1    3    3  501    0  0.34274590618E+02  0.26829718568E+02 -0.71420346186E+03  0.71552859223E+03  0.00000000000E+00 0.  1.
         -1    1    1    2    0  502 -0.37306863023E+02 -0.27978466149E+02 -0.23121904346E+03  0.23587463335E+03  0.00000000000E+00 0. -1.
<mgrwt>
<rscale>  1 0.30000000E+03</rscale>
<asrwt>0</asrwt>
<pdfrwt beam="1">  1       21 0.11059348E-01 0.30000000E+03</pdfrwt>
<pdfrwt beam="2">0</pdfrwt>
<totfact> 0.71821410E+03</totfact>
</mgrwt>
</event>
<event>
 6    1  0.1280499E-001  0.3000000E+03  0.7818608E-02  0.1093470E+00
         21   -1    0    0  501  502  0.00000000000E+00  0.00000000000E+00  0.11580890600E+02  0.11580890600E+02  0.00000000000E+00 0. -1.
         13   -1    0    0    0    0 -0.00000000000E+00 -0.00000000000E+00 -0.10000000000E+04  0.10000000000E+04  0.00000000000E+00 0.  1.
    9000005    2    1    2  501    0 -0.13545016500E+00 -0.53167836900E+02 -0.93393820343E+03  0.93545595157E+03  0.32299022562E+01 0.  0.
         13    1    3    3    0    0 -0.13447134005E+01 -0.11496626179E+02 -0.20654363622E+03  0.20686772182E+03  0.00000000000E+00 0.  1.
          3    1    3    3  501    0  0.12092632355E+01 -0.41671210721E+02 -0.72739456721E+03  0.72858822975E+03  0.00000000000E+00 0.  1.
         -1    1    1    2    0  502  0.13545016500E+00  0.53167836900E+02 -0.54480905965E+02  0.76124939029E+02  0.00000000000E+00 0. -1.
<mgrwt>
<rscale>  1 0.30000000E+03</rscale>
<asrwt>0</asrwt>
<pdfrwt beam="1">  1       21 0.42112418E-01 0.30000000E+03</pdfrwt>
<pdfrwt beam="2">0</pdfrwt>
<totfact> 0.54217645E+02</totfact>
</mgrwt>
</event>
<event>
 6    1  0.1280499E-001  0.3000000E+03  0.7818608E-02  0.1093470E+00
         21   -1    0    0  501  502  0.00000000000E+00  0.00000000000E+00  0.13370486936E+01  0.13370486936E+01  0.00000000000E+00 0. -1.
         13   -1    0    0    0    0 -0.00000000000E+00 -0.00000000000E+00 -0.10000000000E+04  0.10000000000E+04  0.00000000000E+00 0.  1.
    9000005    2    1    2  501    0 -0.33991416317E+02  0.90641070244E+01 -0.40892461354E+03  0.41055038546E+03  0.97316507220E+01 0.  0.
         13    1    3    3    0    0 -0.10959562594E+02 -0.13336248934E+01 -0.10591085889E+03  0.10648474350E+03  0.00000000000E+00 0.  1.
          3    1    3    3  501    0 -0.23031853723E+02  0.10397731918E+02 -0.30301375464E+03  0.30406564196E+03  0.00000000000E+00 0.  1.
         -3    1    1    2    0  502  0.33991416317E+02 -0.90641070244E+01 -0.58973833777E+03  0.59078666323E+03  0.00000000000E+00 0. -1.
<mgrwt>
<rscale>  1 0.30000000E+03</rscale>
<asrwt>0</asrwt>
<pdfrwt beam="1">  1       21 0.48620055E-02 0.30000000E+03</pdfrwt>
<pdfrwt beam="2">0</pdfrwt>
<totfact> 0.30211282E+04</totfact>
</mgrwt>
</event>
<event>
 6    1  0.1280499E-001  0.3000000E+03  0.7818608E-02  0.1093470E+00
         21   -1    0    0  501  502  0.00000000000E+00  0.00000000000E+00  0.24603286459E+01  0.24603286459E+01  0.00000000000E+00 0. -1.
         13   -1    0    0    0    0 -0.00000000000E+00 -0.00000000000E+00 -0.10000000000E+04  0.10000000000E+04  0.00000000000E+00 0.  1.
    9000005    2    1    2  501    0  0.30063415048E+02  0.17703234707E+02 -0.85455645767E+03  0.85528216166E+03  0.48603761000E+01 0.  0.
         13    1    3    3    0    0  0.21440275550E+02  0.13418955907E+02 -0.56548861404E+03  0.56605399602E+03  0.00000000000E+00 0.  1.
          3    1    3    3  501    0  0.86231394981E+01  0.42842788005E+01 -0.28906784363E+03  0.28922816564E+03  0.00000000000E+00 0.  1.
         -1    1    1    2    0  502 -0.30063415048E+02 -0.17703234707E+02 -0.14298321368E+03  0.14717816699E+03  0.00000000000E+00 0. -1.
<mgrwt>
<rscale>  1 0.30000000E+03</rscale>
<asrwt>0</asrwt>
<pdfrwt beam="1">  1       21 0.89466685E-02 0.30000000E+03</pdfrwt>
<pdfrwt beam="2">0</pdfrwt>
<totfact> 0.10487914E+04</totfact>
</mgrwt>
</event>
<event>
 6    1  0.1280499E-001  0.3000000E+03  0.7818608E-02  0.1093470E+00
         21   -1    0    0  501  502  0.00000000000E+00  0.00000000000E+00  0.32823165970E+01  0.32823165970E+01  0.00000000000E+00 0. -1.
         13   -1    0    0    0    0 -0.00000000000E+00 -0.00000000000E+00 -0.10000000000E+04  0.10000000000E+04  0.00000000000E+00 0.  1.
    9000005    2    1    2  501    0 -0.29600742294E+02  0.34786482769E+02 -0.80099158249E+03  0.80229721788E+03  0.26471248600E+01 0.  0.
         13    1    3    3    0    0 -0.25949924704E+01  0.43254936329E+01 -0.88115582391E+02  0.88259842177E+02  0.00000000000E+00 0.  1.
          3    1    3    3  501    0 -0.27005749823E+02  0.30460989136E+02 -0.71287600010E+03  0.71403737570E+03  0.00000000000E+00 0.  1.
         -1    1    1    2    0  502  0.29600742294E+02 -0.34786482769E+02 -0.19572610091E+03  0.20098509872E+03  0.00000000000E+00 0. -1.
<mgrwt>
<rscale>  1 0.30000000E+03</rscale>
<asrwt>0</asrwt>
<pdfrwt beam="1">  1       21 0.11935722E-01 0.30000000E+03</pdfrwt>
<pdfrwt beam="2">0</pdfrwt>
<totfact> 0.62578045E+03</totfact>
</mgrwt>
</event>
<event>
 6    1  0.1280499E-001  0.3000000E+03  0.7818608E-02  0.1093470E+00
         21   -1    0    0  501  502  0.00000000000E+00  0.00000000000E+00  0.25663434132E+01  0.25663434132E+01  0.00000000000E+00 0. -1.
         13   -1    0    0    0    0 -0.00000000000E+00 -0.00000000000E+00 -0.10000000000E+04  0.10000000000E+04  0.00000000000E+00 0.  1.
    9000005    2    1    2  501    0  0.81498726667E+01  0.46563832105E+02 -0.32544052566E+03  0.32891259044E+03  0.61110982588E+01 0.  0.
         13    1    3    3    0    0  0.61710367455E+01  0.32885104147E+02 -0.21021680642E+03  0.21286290769E+03  0.00000000000E+00 0.  1.
          1    1    3    3  501    0  0.19788359211E+01  0.13678727959E+02 -0.11522371924E+03  0.11604968274E+03  0.00000000000E+00 0.  1.
         -1    1    1    2    0  502 -0.81498726667E+01 -0.46563832105E+02 -0.67199313093E+03  0.67365375298E+03  0.00000000000E+00 0. -1.
<mgrwt>
<rscale>  1 0.30000000E+03</rscale>
<asrwt>0</asrwt>
<pdfrwt beam="1">  1       21 0.93321775E-02 0.30000000E+03</pdfrwt>
<pdfrwt beam="2">0</pdfrwt>
<totfact> 0.97315566E+03</totfact>
</mgrwt>
</event>
<event>
 6    1  0.1280499E-001  0.3000000E+03  0.7818608E-02  0.1093470E+00
         21   -1    0    0  501  502  0.00000000000E+00  0.00000000000E+00  0.10038598975E+01  0.10038598975E+01  0.00000000000E+00 0. -1.
         13   -1    0    0    0    0 -0.00000000000E+00 -0.00000000000E+00 -0.10000000000E+04  0.10000000000E+04  0.00000000000E+00 0.  1.
    9000005    2    1    2  501    0 -0.28550166453E+02 -0.11578460684E+02 -0.38639108880E+03  0.38762459579E+03  0.23624141427E+01 0.  0.
         13    1    3    3    0    0 -0.96085260088E+01 -0.37300958727E+01 -0.11577467879E+03  0.11623258423E+03  0.00000000000E+00 0.  1.
          3    1    3    3  501    0 -0.18941640444E+02 -0.78483648115E+01 -0.27061641001E+03  0.27139201156E+03  0.00000000000E+00 0.  1.
         -3    1    1    2    0  502  0.28550166453E+02  0.11578460684E+02 -0.61260505130E+03  0.61337926411E+03  0.00000000000E+00 0. -1.
<mgrwt>
<rscale>  1 0.30000000E+03</rscale>
<asrwt>0</asrwt>
<pdfrwt beam="1">  1       21 0.36504073E-02 0.30000000E+03</pdfrwt>
<pdfrwt beam="2">0</pdfrwt>
<totfact> 0.49033271E+04</totfact>
</mgrwt>
</event>
<event>
 6    1  0.1280499E-001  0.3000000E+03  0.7818608E-02  0.1093470E+00
         21   -1    0    0  501  502  0.00000000000E+00  0.00000000000E+00  0.15634958249E+01  0.15634958249E+01  0.00000000000E+00 0. -1.
         13   -1    0    0    0    0 -0.00000000000E+00 -0.00000000000E+00 -0.10000000000E+04  0.10000000000E+04  0.00000000000E+00 0.  1.
    9000005    2    1    2  501    0 -0.33336004978E+02 -0.21071414885E+02 -0.47697133669E+03  0.47860918171E+03  0.31303415870E+01 0.  0.
         13    1    3    3    0    0 -0.72144989731E+01 -0.38347092582E+01 -0.85966562310E+02  0.86353945051E+02  0.00000000000E+00 0.  1.
          1    1    3    3  501    0 -0.26121506004E+02 -0.17236705626E+02 -0.39100477438E+03  0.39225523666E+03  0.00000000000E+00 0.  1.
         -1    1    1    2    0  502  0.33336004978E+02  0.21071414885E+02 -0.52146516749E+03  0.52295431412E+03  0.00000000000E+00 0. -1.
<mgrwt>
<rscale>  1 0.30000000E+03</rscale>
<asrwt>0</asrwt>
<pdfrwt beam="1">  1       21 0.56854514E-02 0.30000000E+03</pdfrwt>
<pdfrwt beam="2">0</pdfrwt>
<totfact> 0.23119626E+04</totfact>
</mgrwt>
</event>
<event>
 6    1  0.1280499E-001  0.3000000E+03  0.7818608E-02  0.1093470E+00
         21   -1    0    0  501  502  0.00000000000E+00  0.00000000000E+00  0.28699821690E+01  0.28699821690E+01  0.00000000000E+00 0. -1.
         13   -1    0    0    0    0 -0.00000000000E+00 -0.00000000000E+00 -0.10000000000E+04  0.10000000000E+04  0.00000000000E+00 0.  1.
    9000005    2    1    2  501    0 -0.14312160406E+02 -0.28212898605E+02 -0.90311723634E+03  0.90367719681E+03  0.33057344582E+01 0.  0.
         13    1    3    3    0    0 -0.88125454428E+01 -0.14382985917E+02 -0.45283841619E+03  0.45315247150E+03  0.00000000000E+00 0.  1.
          3    1    3    3  501    0 -0.54996149637E+01 -0.13829912688E+02 -0.45027882015E+03  0.45052472532E+03  0.00000000000E+00 0.  1.
         -3    1    1    2    0  502  0.14312160406E+02  0.28212898605E+02 -0.94012781491E+02  0.99192785357E+02  0.00000000000E+00 0. -1.
<mgrwt>
<rscale>  1 0.30000000E+03</rscale>
<asrwt>0</asrwt>
<pdfrwt beam="1">  1       21 0.10436321E-01 0.30000000E+03</pdfrwt>
<pdfrwt beam="2">0</pdfrwt>
<totfact> 0.79702894E+03</totfact>
</mgrwt>
</event>
<event>
 6    1  0.1280499E-001  0.3000000E+03  0.7818608E-02  0.1093470E+00
         21   -1    0    0  501  502  0.00000000000E+00  0.00000000000E+00  0.60977744186E+01  0.60977744186E+01  0.00000000000E+00 0. -1.
         13   -1    0    0    0    0 -0.00000000000E+00 -0.00000000000E+00 -0.10000000000E+04  0.10000000000E+04  0.00000000000E+00 0.  1.
    9000005    2    1    2  501    0  0.28209734441E+02 -0.66464778149E+02 -0.30626280281E+03  0.31467798037E+03  0.34599268272E+01 0.  0.
         13    1    3    3    0    0  0.63733108774E+00 -0.13137025696E+01 -0.86451455581E+01  0.87675850197E+01  0.00000000000E+00 0.  1.
          1    1    3    3  501    0  0.27572403353E+02 -0.65151075579E+02 -0.29761765725E+03  0.30591039535E+03  0.00000000000E+00 0.  1.
         -1    1    1    2    0  502 -0.28209734441E+02  0.66464778149E+02 -0.68763942277E+03  0.69141979405E+03  0.00000000000E+00 0. -1.
<mgrwt>
<rscale>  1 0.30000000E+03</rscale>
<asrwt>0</asrwt>
<pdfrwt beam="1">  1       21 0.22173772E-01 0.30000000E+03</pdfrwt>
<pdfrwt beam="2">0</pdfrwt>
<totfact> 0.19685339E+03</totfact>
</mgrwt>
</event>
<event>
 6    1  0.1280499E-001  0.3000000E+03  0.7818608E-02  0.1093470E+00
         21   -1    0    0  501  502  0.00000000000E+00  0.00000000000E+00  0.22093176019E+01  0.22093176019E+01  0.00000000000E+00 0. -1.
         13   -1    0    0    0    0 -0.00000000000E+00 -0.00000000000E+00 -0.10000000000E+04  0.10000000000E+04  0.00000000000E+00 0.  1.
    9000005    2    1    2  501    0 -0.36654865084E+02  0.28900688829E+02 -0.55254483632E+03  0.55452338706E+03  0.34002516462E+01 0.  0.
         13    1    3    3    0    0 -0.16180585896E+01  0.15967869844E+01 -0.19840077209E+02  0.19969889983E+02  0.00000000000E+00 0.  1.
          3    1    3    3  501    0 -0.35036806495E+02  0.27303901845E+02 -0.53270475911E+03  0.53455349708E+03  0.00000000000E+00 0.  1.
         -1    1    1    2    0  502  0.36654865084E+02 -0.28900688829E+02 -0.44524584608E+03  0.44768593054E+03  0.00000000000E+00 0. -1.
<mgrwt>
<rscale>  1 0.30000000E+03</rscale>
<asrwt>0</asrwt>
<pdfrwt beam="1">  1       21 0.80338991E-02 0.30000000E+03</pdfrwt>
<pdfrwt beam="2">0</pdfrwt>
<totfact> 0.12679336E+04</totfact>
</mgrwt>
</event>
<event>
 6    1  0.1280499E-001  0.3000000E+03  0.7818608E-02  0.1093470E+00
         21   -1    0    0  501  502  0.00000000000E+00  0.00000000000E+00  0.12248978285E+01  0.12248978285E+01  0.00000000000E+00 0. -1.
         13   -1    0    0    0    0 -0.00000000000E+00 -0.00000000000E+00 -0.10000000000E+04  0.10000000000E+04  0.00000000000E+00 0.  1.
    9000005    2    1    2  501    0  0.27639246116E+01  0.30856198977E+02 -0.27033553433E+03  0.27212686032E+03  0.34616028355E+01 0.  0.
         13    1    3    3    0    0  0.55586117166E+00  0.19988086069E+02 -0.18338765257E+03  0.18447456107E+03  0.00000000000E+00 0.  1.
          1    1    3    3  501    0  0.22080634399E+01  0.10868112908E+02 -0.86947881751E+02  0.87652299247E+02  0.00000000000E+00 0.  1.
         -1    1    1    2    0  502 -0.27639246116E+01 -0.30856198977E+02 -0.72843956785E+03  0.72909803751E+03  0.00000000000E+00 0. -1.
<mgrwt>
<rscale>  1 0.30000000E+03</rscale>
<asrwt>0</asrwt>
<pdfrwt beam="1">  1       21 0.44541833E-02 0.30000000E+03</pdfrwt>
<pdfrwt beam="2">0</pdfrwt>
<totfact> 0.35061553E+04</totfact>
</mgrwt>
</event>
<event>
 6    1  0.1280499E-001  0.3000000E+03  0.7818608E-02  0.1093470E+00
         21   -1    0    0  501  502  0.00000000000E+00  0.00000000000E+00  0.11533199628E+01  0.11533199628E+01  0.00000000000E+00 0. -1.
         13   -1    0    0    0    0 -0.00000000000E+00 -0.00000000000E+00 -0.10000000000E+04  0.10000000000E+04  0.00000000000E+00 0.  1.
    9000005    2    1    2  501    0 -0.29882095418E+02  0.40054346981E+01 -0.72486934887E+03  0.72552211504E+03  0.61468160068E+01 0.  0.
         13    1    3    3    0    0 -0.10822414399E+02 -0.83075809275E+00 -0.21515586409E+03  0.21542947956E+03  0.00000000000E+00 0.  1.
          3    1    3    3  501    0 -0.19059681019E+02  0.48361927909E+01 -0.50971348478E+03  0.51009263548E+03  0.00000000000E+00 0.  1.
         -1    1    1    2    0  502  0.29882095418E+02 -0.40054346981E+01 -0.27397733117E+03  0.27563120492E+03  0.00000000000E+00 0. -1.
<mgrwt>
<rscale>  1 0.30000000E+03</rscale>
<asrwt>0</asrwt>
<pdfrwt beam="1">  1       21 0.41938996E-02 0.30000000E+03</pdfrwt>
<pdfrwt beam="2">0</pdfrwt>
<totfact> 0.38821624E+04</totfact>
</mgrwt>
</event>
<event>
 6    1  0.1280499E-001  0.3000000E+03  0.7818608E-02  0.1093470E+00
         21   -1    0    0  501  502  0.00000000000E+00  0.00000000000E+00  0.22813234574E+01  0.22813234574E+01  0.00000000000E+00 0. -1.
         13   -1    0    0    0    0 -0.00000000000E+00 -0.00000000000E+00 -0.10000000000E+04  0.10000000000E+04  0.00000000000E+00 0.  1.
    9000005    2    1    2  501    0  0.35229772264E+02  0.17689496773E+01 -0.83562930034E+03  0.83639813589E+03  0.64224693207E+01 0.  0.
         13    1    3    3    0    0  0.78260767799E+01  0.99791881697E+00 -0.13257084867E+03  0.13280539612E+03  0.00000000000E+00 0.  1.
          1    1    3    3  501    0  0.27403695484E+02  0.77103086032E+00 -0.70305845166E+03  0.70359273978E+03  0.00000000000E+00 0.  1.
         -3    1    1    2    0  502 -0.35229772264E+02 -0.17689496773E+01 -0.16208937621E+03  0.16588318756E+03  0.00000000000E+00 0. -1.
<mgrwt>
<rscale>  1 0.30000000E+03</rscale>
<asrwt>0</asrwt>
<pdfrwt beam="1">  1       21 0.82957392E-02 0.30000000E+03</pdfrwt>
<pdfrwt beam="2">0</pdfrwt>
<totfact> 0.11983993E+04</totfact>
</mgrwt>
</event>
<event>
 6    1  0.1280499E-001  0.3000000E+03  0.7818608E-02  0.1093470E+00
         21   -1    0    0  501  502  0.00000000000E+00  0.00000000000E+00  0.12142983662E+01  0.12142983662E+01  0.00000000000E+00 0. -1.
         13   -1    0    0    0    0 -0.00000000000E+00 -0.00000000000E+00 -0.10000000000E+04  0.10000000000E+04  0.00000000000E+00 0.  1.
    9000005    2    1    2  501    0  0.18927857849E+02 -0.28999497328E+02 -0.45690383081E+03  0.45822700885E+03  0.34126797949E+01 0.  0.
         13    1    3    3    0    0  0.23515470277E+00 -0.16732529207E+01 -0.22146521938E+02  0.22210887128E+02  0.00000000000E+00 0.  1.
          3    1    3    3  501    0  0.18692703146E+02 -0.27326244407E+02 -0.43475730887E+03  0.43601612172E+03  0.00000000000E+00 0.  1.
         -3    1    1    2    0  502 -0.18927857849E+02  0.28999497328E+02 -0.54188187082E+03  0.54298728952E+03  0.00000000000E+00 0. -1.
<mgrwt>
<rscale>  1 0.30000000E+03</rscale>
<asrwt>0</asrwt>
<pdfrwt beam="1">  1       21 0.44156397E-02 0.30000000E+03</pdfrwt>
<pdfrwt beam="2">0</pdfrwt>
<totfact> 0.35581867E+04</totfact>
</mgrwt>
</event>
<event>
 6    1  0.1280499E-001  0.3000000E+03  0.7818608E-02  0.1093470E+00
         21   -1    0    0  501  502  0.00000000000E+00  0.00000000000E+00  0.22134483753E+01  0.22134483753E+01  0.00000000000E+00 0. -1.
         13   -1    0    0    0    0 -0.00000000000E+00 -0.00000000000E+00 -0.10000000000E+04  0.10000000000E+04  0.00000000000E+00 0.  1.
    9000005    2    1    2  501    0  0.25462925408E+01 -0.42030619893E+02 -0.72174525047E+03  0.72297903689E+03  0.30699498946E+01 0.  0.
         13    1    3    3    0    0  0.87367462281E-02 -0.63440539143E+01 -0.12759610565E+03  0.12775372118E+03  0.00000000000E+00 0.  1.
          3    1    3    3  501    0  0.25375557946E+01 -0.35686565978E+02 -0.59414914482E+03  0.59522531571E+03  0.00000000000E+00 0.  1.
         -3    1    1    2    0  502 -0.25462925408E+01  0.42030619893E+02 -0.27604130116E+03  0.27923441149E+03  0.00000000000E+00 0. -1.
<mgrwt>
<rscale>  1 0.30000000E+03</rscale>
<asrwt>0</asrwt>
<pdfrwt beam="1">  1       21 0.80489202E-02 0.30000000E+03</pdfrwt>
<pdfrwt beam="2">0</pdfrwt>
<totfact> 0.12637791E+04</totfact>
</mgrwt>
</event>
<event>
 6    1  0.1280499E-001  0.3000000E+03  0.7818608E-02  0.1093470E+00
         21   -1    0    0  501  502  0.00000000000E+00  0.00000000000E+00  0.16595617098E+01  0.16595617098E+01  0.00000000000E+00 0. -1.
         13   -1    0    0    0    0 -0.00000000000E+00 -0.00000000000E+00 -0.10000000000E+04  0.10000000000E+04  0.00000000000E+00 0.  1.
    9000005    2    1    2  501    0  0.39457578467E+02 -0.45938481181E+01 -0.59997587208E+03  0.60131929201E+03  0.59866447100E+01 0.  0.
         13    1    3    3    0    0  0.39360502320E+02 -0.49776884975E+01 -0.59705518134E+03  0.59837188778E+03  0.00000000000E+00 0.  1.
          3    1    3    3  501    0  0.97076146866E-01  0.38384037945E+00 -0.29206907454E+01  0.29474042216E+01  0.00000000000E+00 0.  1.
         -3    1    1    2    0  502 -0.39457578467E+02  0.45938481181E+01 -0.39836456621E+03  0.40034026970E+03  0.00000000000E+00 0. -1.
<mgrwt>
<rscale>  1 0.30000000E+03</rscale>
<asrwt>0</asrwt>
<pdfrwt beam="1">  1       21 0.60347826E-02 0.30000000E+03</pdfrwt>
<pdfrwt beam="2">0</pdfrwt>
<totfact> 0.20862621E+04</totfact>
</mgrwt>
</event>
<event>
 6    1  0.1280499E-001  0.3000000E+03  0.7818608E-02  0.1093470E+00
         21   -1    0    0  501  502  0.00000000000E+00  0.00000000000E+00  0.34123635961E+01  0.34123635961E+01  0.00000000000E+00 0. -1.
         13   -1    0    0    0    0 -0.00000000000E+00 -0.00000000000E+00 -0.10000000000E+04  0.10000000000E+04  0.00000000000E+00 0.  1.
    9000005    2    1    2  501    0 -0.43678851849E+01  0.32637870319E+02 -0.91259971780E+03  0.91319995053E+03  0.34052485391E+01 0.  0.
         13    1    3    3    0    0 -0.14131063512E+01  0.29740782378E+01 -0.88530675554E+02  0.88591887467E+02  0.00000000000E+00 0.  1.
          3    1    3    3  501    0 -0.29547788336E+01  0.29663792081E+02 -0.82406904225E+03  0.82460806307E+03  0.00000000000E+00 0.  1.
         -1    1    1    2    0  502  0.43678851849E+01 -0.32637870319E+02 -0.83987918600E+02  0.90212413063E+02  0.00000000000E+00 0. -1.
<mgrwt>
<rscale>  1 0.30000000E+03</rscale>
<asrwt>0</asrwt>
<pdfrwt beam="1">  1       21 0.12408621E-01 0.30000000E+03</pdfrwt>
<pdfrwt beam="2">0</pdfrwt>
<totfact> 0.58310836E+03</totfact>
</mgrwt>
</event>
<event>
 6    1  0.1280499E-001  0.3000000E+03  0.7818608E-02  0.1093470E+00
         21   -1    0    0  501  502  0.00000000000E+00  0.00000000000E+00  0.93398724673E+01  0.93398724673E+01  0.00000000000E+00 0. -1.
         13   -1    0    0    0    0 -0.00000000000E+00 -0.00000000000E+00 -0.10000000000E+04  0.10000000000E+04  0.00000000000E+00 0.  1.
    9000005    2    1    2  501    0  0.24978274209E+02  0.26448415523E+02 -0.96285111969E+03  0.96354932996E+03  0.46475487607E+01 0.  0.
         13    1    3    3    0    0  0.13241754582E+02  0.13475354107E+02 -0.55984621653E+03  0.56016490018E+03  0.00000000000E+00 0.  1.
          3    1    3    3  501    0  0.11736519627E+02  0.12973061416E+02 -0.40300490315E+03  0.40338442977E+03  0.00000000000E+00 0.  1.
         -1    1    1    2    0  502 -0.24978274209E+02 -0.26448415523E+02 -0.27809007846E+02  0.45790542512E+02  0.00000000000E+00 0. -1.
<mgrwt>
<rscale>  1 0.30000000E+03</rscale>
<asrwt>0</asrwt>
<pdfrwt beam="1">  1       21 0.33963244E-01 0.30000000E+03</pdfrwt>
<pdfrwt beam="2">0</pdfrwt>
<totfact> 0.84618575E+02</totfact>
</mgrwt>
</event>
<event>
 6    1  0.1280499E-001  0.3000000E+03  0.7818608E-02  0.1093470E+00
         21   -1    0    0  501  502  0.00000000000E+00  0.00000000000E+00  0.17961839066E+01  0.17961839066E+01  0.00000000000E+00 0. -1.
         13   -1    0    0    0    0 -0.00000000000E+00 -0.00000000000E+00 -0.10000000000E+04  0.10000000000E+04  0.00000000000E+00 0.  1.
    9000005    2    1    2  501    0  0.28495762481E+02 -0.26773062466E+02 -0.68894744042E+03  0.69007786355E+03  0.54842267685E+01 0.  0.
         13    1    3    3    0    0  0.54098060402E+01 -0.33875776106E+01 -0.14296663321E+03  0.14310904897E+03  0.00000000000E+00 0.  1.
          1    1    3    3  501    0  0.23085956441E+02 -0.23385484855E+02 -0.54598080721E+03  0.54696881458E+03  0.00000000000E+00 0.  1.
         -3    1    1    2    0  502 -0.28495762481E+02  0.26773062466E+02 -0.30925637567E+03  0.31171832036E+03  0.00000000000E+00 0. -1.
<mgrwt>
<rscale>  1 0.30000000E+03</rscale>
<asrwt>0</asrwt>
<pdfrwt beam="1">  1       21 0.65315916E-02 0.30000000E+03</pdfrwt>
<pdfrwt beam="2">0</pdfrwt>
<totfact> 0.18196626E+04</totfact>
</mgrwt>
</event>
<event>
 6    1  0.1280499E-001  0.3000000E+03  0.7818608E-02  0.1093470E+00
         21   -1    0    0  501  502  0.00000000000E+00  0.00000000000E+00  0.30981732219E+01  0.30981732219E+01  0.00000000000E+00 0. -1.
         13   -1    0    0    0    0 -0.00000000000E+00 -0.00000000000E+00 -0.10000000000E+04  0.10000000000E+04  0.00000000000E+00 0.  1.
    9000005    2    1    2  501    0  0.48383116442E+02  0.13609734356E+02 -0.28591230514E+03  0.29033436192E+03  0.46951734460E+01 0.  0.
         13    1    3    3    0    0  0.27505478504E+02  0.10120390829E+02 -0.16785290183E+03  0.17039240098E+03  0.00000000000E+00 0.  1.
          3    1    3    3  501    0  0.20877637938E+02  0.34893435272E+01 -0.11805940330E+03  0.11994196093E+03  0.00000000000E+00 0.  1.
         -1    1    1    2    0  502 -0.48383116442E+02 -0.13609734356E+02 -0.71098952164E+03  0.71276381131E+03  0.00000000000E+00 0. -1.
<mgrwt>
<rscale>  1 0.30000000E+03</rscale>
<asrwt>0</asrwt>
<pdfrwt beam="1">  1       21 0.11266108E-01 0.30000000E+03</pdfrwt>
<pdfrwt beam="2">0</pdfrwt>
<totfact> 0.69464395E+03</totfact>
</mgrwt>
</event>
<event>
 6    1  0.1280499E-001  0.3000000E+03  0.7818608E-02  0.1093470E+00
         21   -1    0    0  501  502  0.00000000000E+00  0.00000000000E+00  0.10224253192E+01  0.10224253192E+01  0.00000000000E+00 0. -1.
         13   -1    0    0    0    0 -0.00000000000E+00 -0.00000000000E+00 -0.10000000000E+04  0.10000000000E+04  0.00000000000E+00 0.  1.
    9000005    2    1    2  501    0  0.30003421656E+02  0.10632415187E+02 -0.46917888165E+03  0.47026833094E+03  0.31978953029E+01 0.  0.
         13    1    3    3    0    0  0.15543130841E+02  0.40214432305E+01 -0.24704583437E+03  0.24756697115E+03  0.00000000000E+00 0.  1.
          1    1    3    3  501    0  0.14460290816E+02  0.66109719568E+01 -0.22213304728E+03  0.22270135979E+03  0.00000000000E+00 0.  1.
         -1    1    1    2    0  502 -0.30003421656E+02 -0.10632415187E+02 -0.52979869303E+03  0.53075409438E+03  0.00000000000E+00 0. -1.
<mgrwt>
<rscale>  1 0.30000000E+03</rscale>
<asrwt>0</asrwt>
<pdfrwt beam="1">  1       21 0.37179181E-02 0.30000000E+03</pdfrwt>
<pdfrwt beam="2">0</pdfrwt>
<totfact> 0.47548283E+04</totfact>
</mgrwt>
</event>
<event>
 6    1  0.1280499E-001  0.3000000E+03  0.7818608E-02  0.1093470E+00
         21   -1    0    0  501  502  0.00000000000E+00  0.00000000000E+00  0.90830476610E+01  0.90830476610E+01  0.00000000000E+00 0. -1.
         13   -1    0    0    0    0 -0.00000000000E+00 -0.00000000000E+00 -0.10000000000E+04  0.10000000000E+04  0.00000000000E+00 0.  1.
    9000005    2    1    2  501    0 -0.83451794930E+02  0.26841609736E+02 -0.69320953214E+03  0.69873746266E+03  0.31483614278E+01 0.  0.
         13    1    3    3    0    0 -0.61743625550E+02  0.21231300787E+02 -0.51261303568E+03  0.51675445598E+03  0.00000000000E+00 0.  1.
          3    1    3    3  501    0 -0.21708169380E+02  0.56103089493E+01 -0.18059649646E+03  0.18198300667E+03  0.00000000000E+00 0.  1.
         -1    1    1    2    0  502  0.83451794930E+02 -0.26841609736E+02 -0.29770742020E+03  0.31034558500E+03  0.00000000000E+00 0. -1.
<mgrwt>
<rscale>  1 0.30000000E+03</rscale>
<asrwt>0</asrwt>
<pdfrwt beam="1">  1       21 0.33029334E-01 0.30000000E+03</pdfrwt>
<pdfrwt beam="2">0</pdfrwt>
<totfact> 0.89559926E+02</totfact>
</mgrwt>
</event>
<event>
 6    1  0.1280499E-001  0.3000000E+03  0.7818608E-02  0.1093470E+00
         21   -1    0    0  501  502  0.00000000000E+00  0.00000000000E+00  0.38407087953E+02  0.38407087953E+02  0.00000000000E+00 0. -1.
         13   -1    0    0    0    0 -0.00000000000E+00 -0.00000000000E+00 -0.10000000000E+04  0.10000000000E+04  0.00000000000E+00 0.  1.
    9000005    2    1    2  501    0  0.78404807512E+02 -0.34451886730E+00 -0.95663133834E+03  0.95984469397E+03  0.32994734886E+01 0.  0.
         13    1    3    3    0    0  0.24950766432E+02  0.13122331347E+01 -0.29752204857E+03  0.29856930868E+03  0.00000000000E+00 0.  1.
          1    1    3    3  501    0  0.53454041080E+02 -0.16567520020E+01 -0.65910928977E+03  0.66127538530E+03  0.00000000000E+00 0.  1.
         -3    1    1    2    0  502 -0.78404807512E+02  0.34451886730E+00 -0.49615737099E+01  0.78562393980E+02  0.00000000000E+00 0. -1.
<mgrwt>
<rscale>  1 0.30000000E+03</rscale>
<asrwt>0</asrwt>
<pdfrwt beam="1">  1       21 0.13966243E+00 0.30000000E+03</pdfrwt>
<pdfrwt beam="2">0</pdfrwt>
<totfact> 0.29561598E+01</totfact>
</mgrwt>
</event>
<event>
 6    1  0.1280499E-001  0.3000000E+03  0.7818608E-02  0.1093470E+00
         21   -1    0    0  501  502  0.00000000000E+00  0.00000000000E+00  0.17428284756E+01  0.17428284756E+01  0.00000000000E+00 0. -1.
         13   -1    0    0    0    0 -0.00000000000E+00 -0.00000000000E+00 -0.10000000000E+04  0.10000000000E+04  0.00000000000E+00 0.  1.
    9000005    2    1    2  501    0 -0.21583310857E+02  0.24179153104E+02 -0.81433909891E+03  0.81499077845E+03  0.33660365644E+01 0.  0.
         13    1    3    3    0    0 -0.40450110034E+01  0.29099934948E+01 -0.11170076732E+03  0.11181185803E+03  0.00000000000E+00 0.  1.
          1    1    3    3  501    0 -0.17538299854E+02  0.21269159609E+02 -0.70263833159E+03  0.70317892043E+03  0.00000000000E+00 0.  1.
         -1    1    1    2    0  502  0.21583310857E+02 -0.24179153104E+02 -0.18391807262E+03  0.18675205002E+03  0.00000000000E+00 0. -1.
<mgrwt>
<rscale>  1 0.30000000E+03</rscale>
<asrwt>0</asrwt>
<pdfrwt beam="1">  1       21 0.63375715E-02 0.30000000E+03</pdfrwt>
<pdfrwt beam="2">0</pdfrwt>
<totfact> 0.19171336E+04</totfact>
</mgrwt>
</event>
<event>
 6    1  0.1280499E-001  0.3000000E+03  0.7818608E-02  0.1093470E+00
         21   -1    0    0  501  502  0.00000000000E+00  0.00000000000E+00  0.47986736548E+01  0.47986736548E+01  0.00000000000E+00 0. -1.
         13   -1    0    0    0    0 -0.00000000000E+00 -0.00000000000E+00 -0.10000000000E+04  0.10000000000E+04  0.00000000000E+00 0.  1.
    9000005    2    1    2  501    0 -0.32195105768E+02 -0.85036086851E+01 -0.93810511093E+03  0.93870166910E+03  0.32845437153E+01 0.  0.
         13    1    3    3    0    0 -0.22888057608E+00 -0.14525940521E+00 -0.20667559567E+02  0.20669337315E+02  0.00000000000E+00 0.  1.
          3    1    3    3  501    0 -0.31966225191E+02 -0.83583492799E+01 -0.91743755136E+03  0.91803233179E+03  0.00000000000E+00 0.  1.
         -1    1    1    2    0  502  0.32195105768E+02  0.85036086851E+01 -0.57096215418E+02  0.66097004555E+02  0.00000000000E+00 0. -1.
<mgrwt>
<rscale>  1 0.30000000E+03</rscale>
<asrwt>0</asrwt>
<pdfrwt beam="1">  1       21 0.17449759E-01 0.30000000E+03</pdfrwt>
<pdfrwt beam="2">0</pdfrwt>
<totfact> 0.31056655E+03</totfact>
</mgrwt>
</event>
<event>
 6    1  0.1280499E-001  0.3000000E+03  0.7818608E-02  0.1093470E+00
         21   -1    0    0  501  502  0.00000000000E+00  0.00000000000E+00  0.12002134404E+01  0.12002134404E+01  0.00000000000E+00 0. -1.
         13   -1    0    0    0    0 -0.00000000000E+00 -0.00000000000E+00 -0.10000000000E+04  0.10000000000E+04  0.00000000000E+00 0.  1.
    9000005    2    1    2  501    0  0.11396627450E+02 -0.28625337806E+02 -0.72354584621E+03  0.72422724588E+03  0.61007396231E+01 0.  0.
         13    1    3    3    0    0 -0.34307390804E+00 -0.42595566830E+01 -0.81453613686E+02  0.81565634341E+02  0.00000000000E+00 0.  1.
          3    1    3    3  501    0  0.11739701358E+02 -0.24365781123E+02 -0.64209223253E+03  0.64266161154E+03  0.00000000000E+00 0.  1.
         -3    1    1    2    0  502 -0.11396627450E+02  0.28625337806E+02 -0.27525394035E+03  0.27697296756E+03  0.00000000000E+00 0. -1.
<mgrwt>
<rscale>  1 0.30000000E+03</rscale>
<asrwt>0</asrwt>
<pdfrwt beam="1">  1       21 0.43644217E-02 0.30000000E+03</pdfrwt>
<pdfrwt beam="2">0</pdfrwt>
<totfact> 0.36291966E+04</totfact>
</mgrwt>
</event>
<event>
 6    1  0.1280499E-001  0.3000000E+03  0.7818608E-02  0.1093470E+00
         21   -1    0    0  501  502  0.00000000000E+00  0.00000000000E+00  0.11380855708E+01  0.11380855708E+01  0.00000000000E+00 0. -1.
         13   -1    0    0    0    0 -0.00000000000E+00 -0.00000000000E+00 -0.10000000000E+04  0.10000000000E+04  0.00000000000E+00 0.  1.
    9000005    2    1    2  501    0  0.90354744030E+01 -0.29904519816E+02 -0.68637396344E+03  0.68709248440E+03  0.33082205947E+01 0.  0.
         13    1    3    3    0    0  0.72124354801E+01 -0.24150274310E+02 -0.52282140818E+03  0.52342858140E+03  0.00000000000E+00 0.  1.
          3    1    3    3  501    0  0.18230389229E+01 -0.57542455068E+01 -0.16355255525E+03  0.16366390299E+03  0.00000000000E+00 0.  1.
         -3    1    1    2    0  502 -0.90354744030E+01  0.29904519816E+02 -0.31248795099E+03  0.31404560118E+03  0.00000000000E+00 0. -1.
<mgrwt>
<rscale>  1 0.30000000E+03</rscale>
<asrwt>0</asrwt>
<pdfrwt beam="1">  1       21 0.41385017E-02 0.30000000E+03</pdfrwt>
<pdfrwt beam="2">0</pdfrwt>
<totfact> 0.39702752E+04</totfact>
</mgrwt>
</event>
<event>
 6    1  0.1280499E-001  0.3000000E+03  0.7818608E-02  0.1093470E+00
         21   -1    0    0  501  502  0.00000000000E+00  0.00000000000E+00  0.60762775985E+01  0.60762775985E+01  0.00000000000E+00 0. -1.
         13   -1    0    0    0    0 -0.00000000000E+00 -0.00000000000E+00 -0.10000000000E+04  0.10000000000E+04  0.00000000000E+00 0.  1.
    9000005    2    1    2  501    0 -0.33864423118E+02  0.37956687029E+02 -0.87797418918E+03  0.87945951924E+03  0.47811995162E+01 0.  0.
         13    1    3    3    0    0 -0.31713259162E+02  0.36725078661E+02 -0.84522354131E+03  0.84661520007E+03  0.00000000000E+00 0.  1.
          1    1    3    3  501    0 -0.21511639563E+01  0.12316083678E+01 -0.32750647875E+02  0.32844319171E+02  0.00000000000E+00 0.  1.
         -3    1    1    2    0  502  0.33864423118E+02 -0.37956687029E+02 -0.11594953322E+03  0.12661675836E+03  0.00000000000E+00 0. -1.
<mgrwt>
<rscale>  1 0.30000000E+03</rscale>
<asrwt>0</asrwt>
<pdfrwt beam="1">  1       21 0.22095601E-01 0.30000000E+03</pdfrwt>
<pdfrwt beam="2">0</pdfrwt>
<totfact> 0.19819734E+03</totfact>
</mgrwt>
</event>
<event>
 6    1  0.1280499E-001  0.3000000E+03  0.7818608E-02  0.1093470E+00
         21   -1    0    0  501  502  0.00000000000E+00  0.00000000000E+00  0.12324447753E+01  0.12324447753E+01  0.00000000000E+00 0. -1.
         13   -1    0    0    0    0 -0.00000000000E+00 -0.00000000000E+00 -0.10000000000E+04  0.10000000000E+04  0.00000000000E+00 0.  1.
    9000005    2    1    2  501    0 -0.33112107878E+02 -0.11285934525E+02 -0.53538652008E+03  0.53653279151E+03  0.22195683552E+01 0.  0.
         13    1    3    3    0    0 -0.23167248767E+01 -0.12904342638E+01 -0.35566625165E+02  0.35665350978E+02  0.00000000000E+00 0.  1.
          3    1    3    3  501    0 -0.30795383002E+02 -0.99955002616E+01 -0.49981989491E+03  0.50086744054E+03  0.00000000000E+00 0.  1.
         -1    1    1    2    0  502  0.33112107878E+02  0.11285934525E+02 -0.46338103515E+03  0.46469965326E+03  0.00000000000E+00 0. -1.
<mgrwt>
<rscale>  1 0.30000000E+03</rscale>
<asrwt>0</asrwt>
<pdfrwt beam="1">  1       21 0.44816268E-02 0.30000000E+03</pdfrwt>
<pdfrwt beam="2">0</pdfrwt>
<totfact> 0.34698208E+04</totfact>
</mgrwt>
</event>
<event>
 6    1  0.1280499E-001  0.3000000E+03  0.7818608E-02  0.1093470E+00
         21   -1    0    0  501  502  0.00000000000E+00  0.00000000000E+00  0.25357508945E+01  0.25357508945E+01  0.00000000000E+00 0. -1.
         13   -1    0    0    0    0 -0.00000000000E+00 -0.00000000000E+00 -0.10000000000E+04  0.10000000000E+04  0.00000000000E+00 0.  1.
    9000005    2    1    2  501    0 -0.13990993922E+02 -0.29949355552E+02 -0.87669631589E+03  0.87732550570E+03  0.33016427256E+01 0.  0.
         13    1    3    3    0    0 -0.12845630982E+02 -0.26330676470E+02 -0.79820242704E+03  0.79873990090E+03  0.00000000000E+00 0.  1.
          1    1    3    3  501    0 -0.11453629405E+01 -0.36186790826E+01 -0.78493888856E+02  0.78585604804E+02  0.00000000000E+00 0.  1.
         -1    1    1    2    0  502  0.13990993922E+02  0.29949355552E+02 -0.12076793321E+03  0.12521024519E+03  0.00000000000E+00 0. -1.
<mgrwt>
<rscale>  1 0.30000000E+03</rscale>
<asrwt>0</asrwt>
<pdfrwt beam="1">  1       21 0.92209318E-02 0.30000000E+03</pdfrwt>
<pdfrwt beam="2">0</pdfrwt>
<totfact> 0.99411462E+03</totfact>
</mgrwt>
</event>
<event>
 6    1  0.1280499E-001  0.3000000E+03  0.7818608E-02  0.1093470E+00
         21   -1    0    0  501  502  0.00000000000E+00  0.00000000000E+00  0.12565259545E+01  0.12565259545E+01  0.00000000000E+00 0. -1.
         13   -1    0    0    0    0 -0.00000000000E+00 -0.00000000000E+00 -0.10000000000E+04  0.10000000000E+04  0.00000000000E+00 0.  1.
    9000005    2    1    2  501    0  0.21022269138E+02  0.26096239049E+02 -0.65629914368E+03  0.65717649327E+03  0.54247414858E+01 0.  0.
         13    1    3    3    0    0  0.15143283219E+02  0.17327495082E+02 -0.40175983549E+03  0.40241834765E+03  0.00000000000E+00 0.  1.
          3    1    3    3  501    0  0.58789859198E+01  0.87687439673E+01 -0.25453930818E+03  0.25475814561E+03  0.00000000000E+00 0.  1.
         -1    1    1    2    0  502 -0.21022269138E+02 -0.26096239049E+02 -0.34244433037E+03  0.34408003269E+03  0.00000000000E+00 0. -1.
<mgrwt>
<rscale>  1 0.30000000E+03</rscale>
<asrwt>0</asrwt>
<pdfrwt beam="1">  1       21 0.45691949E-02 0.30000000E+03</pdfrwt>
<pdfrwt beam="2">0</pdfrwt>
<totfact> 0.33576871E+04</totfact>
</mgrwt>
</event>
<event>
 6    1  0.1280499E-001  0.3000000E+03  0.7818608E-02  0.1093470E+00
         21   -1    0    0  501  502  0.00000000000E+00  0.00000000000E+00  0.12290664437E+01  0.12290664437E+01  0.00000000000E+00 0. -1.
         13   -1    0    0    0    0 -0.00000000000E+00 -0.00000000000E+00 -0.10000000000E+04  0.10000000000E+04  0.00000000000E+00 0.  1.
    9000005    2    1    2  501    0  0.16370937239E+02 -0.27445280003E+02 -0.70347842720E+03  0.70421237451E+03  0.34525191541E+01 0.  0.
         13    1    3    3    0    0  0.73205031303E+01 -0.15265208514E+02 -0.38818447344E+03  0.38855347351E+03  0.00000000000E+00 0.  1.
          1    1    3    3  501    0  0.90504341085E+01 -0.12180071489E+02 -0.31529395377E+03  0.31565890100E+03  0.00000000000E+00 0.  1.
         -3    1    1    2    0  502 -0.16370937239E+02  0.27445280003E+02 -0.29529250635E+03  0.29701669194E+03  0.00000000000E+00 0. -1.
<mgrwt>
<rscale>  1 0.30000000E+03</rscale>
<asrwt>0</asrwt>
<pdfrwt beam="1">  1       21 0.44693419E-02 0.30000000E+03</pdfrwt>
<pdfrwt beam="2">0</pdfrwt>
<totfact> 0.34860135E+04</totfact>
</mgrwt>
</event>
<event>
 6    1  0.1280499E-001  0.3000000E+03  0.7818608E-02  0.1093470E+00
         21   -1    0    0  501  502  0.00000000000E+00  0.00000000000E+00  0.31826173662E+01  0.31826173662E+01  0.00000000000E+00 0. -1.
         13   -1    0    0    0    0 -0.00000000000E+00 -0.00000000000E+00 -0.10000000000E+04  0.10000000000E+04  0.00000000000E+00 0.  1.
    9000005    2    1    2  501    0 -0.36403079348E+02  0.19473640306E+02 -0.84002872855E+03  0.84104968147E+03  0.34489214421E+01 0.  0.
         13    1    3    3    0    0 -0.27998378544E+02  0.13433571212E+02 -0.64220192421E+03  0.64295231666E+03  0.00000000000E+00 0.  1.
          1    1    3    3  501    0 -0.84047008041E+01  0.60400690943E+01 -0.19782680434E+03  0.19809736481E+03  0.00000000000E+00 0.  1.
         -1    1    1    2    0  502  0.36403079348E+02 -0.19473640306E+02 -0.15678865408E+03  0.16213293589E+03  0.00000000000E+00 0. -1.
<mgrwt>
<rscale>  1 0.30000000E+03</rscale>
<asrwt>0</asrwt>
<pdfrwt beam="1">  1       21 0.11573178E-01 0.30000000E+03</pdfrwt>
<pdfrwt beam="2">0</pdfrwt>
<totfact> 0.66172627E+03</totfact>
</mgrwt>
</event>
<event>
 6    1  0.1280499E-001  0.3000000E+03  0.7818608E-02  0.1093470E+00
         21   -1    0    0  501  502  0.00000000000E+00  0.00000000000E+00  0.18031366464E+01  0.18031366464E+01  0.00000000000E+00 0. -1.
         13   -1    0    0    0    0 -0.00000000000E+00 -0.00000000000E+00 -0.10000000000E+04  0.10000000000E+04  0.00000000000E+00 0.  1.
    9000005    2    1    2  501    0 -0.37972625531E+02  0.50081480307E+01 -0.71436266843E+03  0.71539634196E+03  0.33018483520E+01 0.  0.
         13    1    3    3    0    0 -0.13945443061E+01 -0.17734100812E+00 -0.18271535328E+02  0.18325534287E+02  0.00000000000E+00 0.  1.
          3    1    3    3  501    0 -0.36578081225E+02  0.51854890388E+01 -0.69609113310E+03  0.69707080767E+03  0.00000000000E+00 0.  1.
         -3    1    1    2    0  502  0.37972625531E+02 -0.50081480307E+01 -0.28383419493E+03  0.28640679469E+03  0.00000000000E+00 0. -1.
<mgrwt>
<rscale>  1 0.30000000E+03</rscale>
<asrwt>0</asrwt>
<pdfrwt beam="1">  1       21 0.65568744E-02 0.30000000E+03</pdfrwt>
<pdfrwt beam="2">0</pdfrwt>
<totfact> 0.18075266E+04</totfact>
</mgrwt>
</event>
<event>
 6    1  0.1280499E-001  0.3000000E+03  0.7818608E-02  0.1093470E+00
         21   -1    0    0  501  502  0.00000000000E+00  0.00000000000E+00  0.24689704802E+01  0.24689704802E+01  0.00000000000E+00 0. -1.
         13   -1    0    0    0    0 -0.00000000000E+00 -0.00000000000E+00 -0.10000000000E+04  0.10000000000E+04  0.00000000000E+00 0.  1.
    9000005    2    1    2  501    0 -0.30851718017E+02  0.38373264513E+02 -0.43630758330E+03  0.43908979752E+03  0.33477022811E+01 0.  0.
         13    1    3    3    0    0 -0.12626908953E+02  0.13530106842E+02 -0.15599583443E+03  0.15708979274E+03  0.00000000000E+00 0.  1.
          1    1    3    3  501    0 -0.18224809064E+02  0.24843157670E+02 -0.28031174886E+03  0.28200000478E+03  0.00000000000E+00 0.  1.
         -1    1    1    2    0  502  0.30851718017E+02 -0.38373264513E+02 -0.56122344622E+03  0.56337917296E+03  0.00000000000E+00 0. -1.
<mgrwt>
<rscale>  1 0.30000000E+03</rscale>
<asrwt>0</asrwt>
<pdfrwt beam="1">  1       21 0.89780934E-02 0.30000000E+03</pdfrwt>
<pdfrwt beam="2">0</pdfrwt>
<totfact> 0.10422990E+04</totfact>
</mgrwt>
</event>
<event>
 6    1  0.1280499E-001  0.3000000E+03  0.7818608E-02  0.1093470E+00
         21   -1    0    0  501  502  0.00000000000E+00  0.00000000000E+00  0.53542066320E+01  0.53542066320E+01  0.00000000000E+00 0. -1.
         13   -1    0    0    0    0 -0.00000000000E+00 -0.00000000000E+00 -0.10000000000E+04  0.10000000000E+04  0.00000000000E+00 0.  1.
    9000005    2    1    2  501    0  0.27720091940E+02  0.21295085182E+02 -0.93890161349E+03  0.93955680744E+03  0.29783288732E+01 0.  0.
         13    1    3    3    0    0  0.66811311236E+01  0.65597949615E+01 -0.26927842871E+03  0.26944116351E+03  0.00000000000E+00 0.  1.
          1    1    3    3  501    0  0.21038960816E+02  0.14735290221E+02 -0.66962318478E+03  0.67011564394E+03  0.00000000000E+00 0.  1.
         -3    1    1    2    0  502 -0.27720091940E+02 -0.21295085182E+02 -0.55744179875E+02  0.65797399188E+02  0.00000000000E+00 0. -1.
<mgrwt>
<rscale>  1 0.30000000E+03</rscale>
<asrwt>0</asrwt>
<pdfrwt beam="1">  1       21 0.19469883E-01 0.30000000E+03</pdfrwt>
<pdfrwt beam="2">0</pdfrwt>
<totfact> 0.25252140E+03</totfact>
</mgrwt>
</event>
<event>
 6    1  0.1280499E-001  0.3000000E+03  0.7818608E-02  0.1093470E+00
         21   -1    0    0  501  502  0.00000000000E+00  0.00000000000E+00  0.22722240418E+01  0.22722240418E+01  0.00000000000E+00 0. -1.
         13   -1    0    0    0    0 -0.00000000000E+00 -0.00000000000E+00 -0.10000000000E+04  0.10000000000E+04  0.00000000000E+00 0.  1.
    9000005    2    1    2  501    0 -0.43399551944E+02 -0.15661776982E+02 -0.62270055827E+03  0.62441745515E+03  0.35157729368E+01 0.  0.
         13    1    3    3    0    0 -0.39421610240E+02 -0.13936862653E+02 -0.57625340141E+03  0.57776836373E+03  0.00000000000E+00 0.  1.
          1    1    3    3  501    0 -0.39779417035E+01 -0.17249143295E+01 -0.46447156862E+02  0.46649091419E+02  0.00000000000E+00 0.  1.
         -3    1    1    2    0  502  0.43399551944E+02  0.15661776982E+02 -0.37502721769E+03  0.37785476889E+03  0.00000000000E+00 0. -1.
<mgrwt>
<rscale>  1 0.30000000E+03</rscale>
<asrwt>0</asrwt>
<pdfrwt beam="1">  1       21 0.82626503E-02 0.30000000E+03</pdfrwt>
<pdfrwt beam="2">0</pdfrwt>
<totfact> 0.12068594E+04</totfact>
</mgrwt>
</event>
<event>
 6    1  0.1280499E-001  0.3000000E+03  0.7818608E-02  0.1093470E+00
         21   -1    0    0  501  502  0.00000000000E+00  0.00000000000E+00  0.33198665166E+01  0.33198665166E+01  0.00000000000E+00 0. -1.
         13   -1    0    0    0    0 -0.00000000000E+00 -0.00000000000E+00 -0.10000000000E+04  0.10000000000E+04  0.00000000000E+00 0.  1.
    9000005    2    1    2  501    0 -0.14457663567E+02 -0.32416563648E+02 -0.89340609121E+03  0.89411645337E+03  0.31513089864E+01 0.  0.
         13    1    3    3    0    0 -0.45584064715E+01 -0.10212715396E+02 -0.24603753326E+03  0.24629158816E+03  0.00000000000E+00 0.  1.
          1    1    3    3  501    0 -0.98992570956E+01 -0.22203848251E+02 -0.64736855795E+03  0.64782486521E+03  0.00000000000E+00 0.  1.
         -1    1    1    2    0  502  0.14457663567E+02  0.32416563648E+02 -0.10327404228E+03  0.10920341315E+03  0.00000000000E+00 0. -1.
<mgrwt>
<rscale>  1 0.30000000E+03</rscale>
<asrwt>0</asrwt>
<pdfrwt beam="1">  1       21 0.12072267E-01 0.30000000E+03</pdfrwt>
<pdfrwt beam="2">0</pdfrwt>
<totfact> 0.61299318E+03</totfact>
</mgrwt>
</event>
<event>
 6    1  0.1280499E-001  0.3000000E+03  0.7818608E-02  0.1093470E+00
         21   -1    0    0  501  502  0.00000000000E+00  0.00000000000E+00  0.15197674588E+01  0.15197674588E+01  0.00000000000E+00 0. -1.
         13   -1    0    0    0    0 -0.00000000000E+00 -0.00000000000E+00 -0.10000000000E+04  0.10000000000E+04  0.00000000000E+00 0.  1.
    9000005    2    1    2  501    0 -0.15468333416E+02  0.31989860130E+02 -0.70369055752E+03  0.70459625376E+03  0.35860250951E+01 0.  0.
         13    1    3    3    0    0 -0.11237267188E+02  0.26470230498E+02 -0.56986138983E+03  0.57058649905E+03  0.00000000000E+00 0.  1.
          3    1    3    3  501    0 -0.42310662285E+01  0.55196296328E+01 -0.13382916769E+03  0.13400975471E+03  0.00000000000E+00 0.  1.
         -1    1    1    2    0  502  0.15468333416E+02 -0.31989860130E+02 -0.29478967502E+03  0.29692351370E+03  0.00000000000E+00 0. -1.
<mgrwt>
<rscale>  1 0.30000000E+03</rscale>
<asrwt>0</asrwt>
<pdfrwt beam="1">  1       21 0.55264388E-02 0.30000000E+03</pdfrwt>
<pdfrwt beam="2">0</pdfrwt>
<totfact> 0.24273693E+04</totfact>
</mgrwt>
</event>
<event>
 6    1  0.1280499E-001  0.3000000E+03  0.7818608E-02  0.1093470E+00
         21   -1    0    0  501  502  0.00000000000E+00  0.00000000000E+00  0.30832359470E+01  0.30832359470E+01  0.00000000000E+00 0. -1.
         13   -1    0    0    0    0 -0.00000000000E+00 -0.00000000000E+00 -0.10000000000E+04  0.10000000000E+04  0.00000000000E+00 0.  1.
    9000005    2    1    2  501    0  0.47661668998E+02  0.21906696054E+02 -0.66177997292E+03  0.66386618626E+03  0.37473570699E+01 0.  0.
         13    1    3    3    0    0  0.39171686512E+02  0.17451824464E+02 -0.55709046364E+03  0.55873855414E+03  0.00000000000E+00 0.  1.
          3    1    3    3  501    0  0.84899824862E+01  0.44548715896E+01 -0.10468950927E+03  0.10512763212E+03  0.00000000000E+00 0.  1.
         -3    1    1    2    0  502 -0.47661668998E+02 -0.21906696054E+02 -0.33513679114E+03  0.33921704969E+03  0.00000000000E+00 0. -1.
<mgrwt>
<rscale>  1 0.30000000E+03</rscale>
<asrwt>0</asrwt>
<pdfrwt beam="1">  1       21 0.11211791E-01 0.30000000E+03</pdfrwt>
<pdfrwt beam="2">0</pdfrwt>
<totfact> 0.70072200E+03</totfact>
</mgrwt>
</event>
<event>
 6    1  0.1280499E-001  0.3000000E+03  0.7818608E-02  0.1093470E+00
         21   -1    0    0  501  502  0.00000000000E+00  0.00000000000E+00  0.34020592523E+01  0.34020592523E+01  0.00000000000E+00 0. -1.
         13   -1    0    0    0    0 -0.00000000000E+00 -0.00000000000E+00 -0.10000000000E+04  0.10000000000E+04  0.00000000000E+00 0.  1.
    9000005    2    1    2  501    0  0.47148917333E+02 -0.28958503626E+02 -0.65601065900E+03  0.65834943743E+03  0.35187647530E+01 0.  0.
         13    1    3    3    0    0  0.44548949976E+02 -0.27174198655E+02 -0.62706722327E+03  0.62923473245E+03  0.00000000000E+00 0.  1.
          3    1    3    3  501    0  0.25999673571E+01 -0.17843049716E+01 -0.28943435729E+02  0.29114704983E+02  0.00000000000E+00 0.  1.
         -3    1    1    2    0  502 -0.47148917333E+02  0.28958503626E+02 -0.34058728175E+03  0.34505262182E+03  0.00000000000E+00 0. -1.
<mgrwt>
<rscale>  1 0.30000000E+03</rscale>
<asrwt>0</asrwt>
<pdfrwt beam="1">  1       21 0.12371151E-01 0.30000000E+03</pdfrwt>
<pdfrwt beam="2">0</pdfrwt>
<totfact> 0.58632745E+03</totfact>
</mgrwt>
</event>
<event>
 6    1  0.1280499E-001  0.3000000E+03  0.7818608E-02  0.1093470E+00
         21   -1    0    0  501  502  0.00000000000E+00  0.00000000000E+00  0.15516173414E+01  0.15516173414E+01  0.00000000000E+00 0. -1.
         13   -1    0    0    0    0 -0.00000000000E+00 -0.00000000000E+00 -0.10000000000E+04  0.10000000000E+04  0.00000000000E+00 0.  1.
    9000005    2    1    2  501    0  0.35605930797E+02  0.15831355297E+02 -0.56439840450E+03  0.56575602574E+03  0.39884260245E+01 0.  0.
         13    1    3    3    0    0  0.16523146722E+02  0.52694586655E+01 -0.25822442690E+03  0.25880617500E+03  0.00000000000E+00 0.  1.
          1    1    3    3  501    0  0.19082784074E+02  0.10561896631E+02 -0.30617397760E+03  0.30694985074E+03  0.00000000000E+00 0.  1.
         -3    1    1    2    0  502 -0.35605930797E+02 -0.15831355297E+02 -0.43404997816E+03  0.43579559160E+03  0.00000000000E+00 0. -1.
<mgrwt>
<rscale>  1 0.30000000E+03</rscale>
<asrwt>0</asrwt>
<pdfrwt beam="1">  1       21 0.56422568E-02 0.30000000E+03</pdfrwt>
<pdfrwt beam="2">0</pdfrwt>
<totfact> 0.23424646E+04</totfact>
</mgrwt>
</event>
<event>
 6    1  0.1280499E-001  0.3000000E+03  0.7818608E-02  0.1093470E+00
         21   -1    0    0  501  502  0.00000000000E+00  0.00000000000E+00  0.12645790351E+01  0.12645790351E+01  0.00000000000E+00 0. -1.
         13   -1    0    0    0    0 -0.00000000000E+00 -0.00000000000E+00 -0.10000000000E+04  0.10000000000E+04  0.00000000000E+00 0.  1.
    9000005    2    1    2  501    0  0.20029048509E+02 -0.23473996485E+02 -0.74780602157E+03  0.74844496987E+03  0.19585044581E+01 0.  0.
         13    1    3    3    0    0  0.16625563168E+02 -0.19534413047E+02 -0.60288294801E+03  0.60342841468E+03  0.00000000000E+00 0.  1.
          1    1    3    3  501    0  0.34034853410E+01 -0.39395834381E+01 -0.14492307356E+03  0.14501655519E+03  0.00000000000E+00 0.  1.
         -3    1    1    2    0  502 -0.20029048509E+02  0.23473996485E+02 -0.25092939940E+03  0.25281960916E+03  0.00000000000E+00 0. -1.
<mgrwt>
<rscale>  1 0.30000000E+03</rscale>
<asrwt>0</asrwt>
<pdfrwt beam="1">  1       21 0.45984789E-02 0.30000000E+03</pdfrwt>
<pdfrwt beam="2">0</pdfrwt>
<totfact> 0.33214442E+04</totfact>
</mgrwt>
</event>
<event>
 6    1  0.1280499E-001  0.3000000E+03  0.7818608E-02  0.1093470E+00
         21   -1    0    0  501  502  0.00000000000E+00  0.00000000000E+00  0.15271979724E+01  0.15271979724E+01  0.00000000000E+00 0. -1.
         13   -1    0    0    0    0 -0.00000000000E+00 -0.00000000000E+00 -0.10000000000E+04  0.10000000000E+04  0.00000000000E+00 0.  1.
    9000005    2    1    2  501    0  0.30548780156E+02  0.16648881953E+02 -0.72609881430E+03  0.72694023100E+03  0.34925752825E+01 0.  0.
         13    1    3    3    0    0  0.10053950545E+02  0.55366483921E+01 -0.20662595392E+03  0.20694448829E+03  0.00000000000E+00 0.  1.
          3    1    3    3  501    0  0.20494829611E+02  0.11112233561E+02 -0.51947286038E+03  0.51999574272E+03  0.00000000000E+00 0.  1.
         -3    1    1    2    0  502 -0.30548780156E+02 -0.16648881953E+02 -0.27237398773E+03  0.27458696697E+03  0.00000000000E+00 0. -1.
<mgrwt>
<rscale>  1 0.30000000E+03</rscale>
<asrwt>0</asrwt>
<pdfrwt beam="1">  1       21 0.55534589E-02 0.30000000E+03</pdfrwt>
<pdfrwt beam="2">0</pdfrwt>
<totfact> 0.24071429E+04</totfact>
</mgrwt>
</event>
<event>
 6    1  0.1280499E-001  0.3000000E+03  0.7818608E-02  0.1093470E+00
         21   -1    0    0  501  502  0.00000000000E+00  0.00000000000E+00  0.16909549790E+01  0.16909549790E+01  0.00000000000E+00 0. -1.
         13   -1    0    0    0    0 -0.00000000000E+00 -0.00000000000E+00 -0.10000000000E+04  0.10000000000E+04  0.00000000000E+00 0.  1.
    9000005    2    1    2  501    0  0.39750337853E+02 -0.74860429358E+01 -0.58626736947E+03  0.58766864569E+03  0.29796683360E+01 0.  0.
         13    1    3    3    0    0  0.57426371459E+01 -0.18519022786E+01 -0.77109808174E+02  0.77345523077E+02  0.00000000000E+00 0.  1.
          1    1    3    3  501    0  0.34007700707E+02 -0.56341406573E+01 -0.50915756130E+03  0.51032312262E+03  0.00000000000E+00 0.  1.
         -1    1    1    2    0  502 -0.39750337853E+02  0.74860429358E+01 -0.41204167555E+03  0.41402230929E+03  0.00000000000E+00 0. -1.
<mgrwt>
<rscale>  1 0.30000000E+03</rscale>
<asrwt>0</asrwt>
<pdfrwt beam="1">  1       21 0.61489402E-02 0.30000000E+03</pdfrwt>
<pdfrwt beam="2">0</pdfrwt>
<totfact> 0.20198719E+04</totfact>
</mgrwt>
</event>
<event>
 6    1  0.1280499E-001  0.3000000E+03  0.7818608E-02  0.1093470E+00
         21   -1    0    0  501  502  0.00000000000E+00  0.00000000000E+00  0.20348575196E+01  0.20348575196E+01  0.00000000000E+00 0. -1.
         13   -1    0    0    0    0 -0.00000000000E+00 -0.00000000000E+00 -0.10000000000E+04  0.10000000000E+04  0.00000000000E+00 0.  1.
    9000005    2    1    2  501    0  0.31493399158E+02 -0.22075202475E+01 -0.85654825146E+03  0.85713680921E+03  0.34489561665E+01 0.  0.
         13    1    3    3    0    0  0.21795950087E+02 -0.23198634462E+01 -0.62962314918E+03  0.63000456759E+03  0.00000000000E+00 0.  1.
          3    1    3    3  501    0  0.96974490716E+01  0.11234319869E+00 -0.22692510228E+03  0.22713224162E+03  0.00000000000E+00 0.  1.
         -3    1    1    2    0  502 -0.31493399158E+02  0.22075202475E+01 -0.14141689102E+03  0.14489804831E+03  0.00000000000E+00 0. -1.
<mgrwt>
<rscale>  1 0.30000000E+03</rscale>
<asrwt>0</asrwt>
<pdfrwt beam="1">  1       21 0.73994975E-02 0.30000000E+03</pdfrwt>
<pdfrwt beam="2">0</pdfrwt>
<totfact> 0.14646227E+04</totfact>
</mgrwt>
</event>
<event>
 6    1  0.1280499E-001  0.3000000E+03  0.7818608E-02  0.1093470E+00
         21   -1    0    0  501  502  0.00000000000E+00  0.00000000000E+00  0.20181480942E+02  0.20181480942E+02  0.00000000000E+00 0. -1.
         13   -1    0    0    0    0 -0.00000000000E+00 -0.00000000000E+00 -0.10000000000E+04  0.10000000000E+04  0.00000000000E+00 0.  1.
    9000005    2    1    2  501    0  0.77837258550E+02 -0.41354418291E+02 -0.88992817835E+03  0.89428827190E+03  0.32440561667E+01 0.  0.
         13    1    3    3    0    0  0.29102725882E+02 -0.15489263088E+02 -0.31710282460E+03  0.31881199365E+03  0.00000000000E+00 0.  1.
          3    1    3    3  501    0  0.48734532668E+02 -0.25865155203E+02 -0.57282535376E+03  0.57547627826E+03  0.00000000000E+00 0.  1.
         -3    1    1    2    0  502 -0.77837258550E+02  0.41354418291E+02 -0.89890340703E+02  0.12589320904E+03  0.00000000000E+00 0. -1.
<mgrwt>
<rscale>  1 0.30000000E+03</rscale>
<asrwt>0</asrwt>
<pdfrwt beam="1">  1       21 0.73387358E-01 0.30000000E+03</pdfrwt>
<pdfrwt beam="2">0</pdfrwt>
<totfact> 0.15794127E+02</totfact>
</mgrwt>
</event>
<event>
 6    1  0.1280499E-001  0.3000000E+03  0.7818608E-02  0.1093470E+00
         21   -1    0    0  501  502  0.00000000000E+00  0.00000000000E+00  0.22767766484E+01  0.22767766484E+01  0.00000000000E+00 0. -1.
         13   -1    0    0    0    0 -0.00000000000E+00 -0.00000000000E+00 -0.10000000000E+04  0.10000000000E+04  0.00000000000E+00 0.  1.
    9000005    2    1    2  501    0  0.29041770005E+02  0.31920918342E+02 -0.71199942080E+03  0.71331231382E+03  0.29853635806E+01 0.  0.
         13    1    3    3    0    0  0.16709203421E+02  0.19642213223E+02 -0.40534276477E+03  0.40616224710E+03  0.00000000000E+00 0.  1.
          3    1    3    3  501    0  0.12332566584E+02  0.12278705119E+02 -0.30665665603E+03  0.30715006672E+03  0.00000000000E+00 0.  1.
         -3    1    1    2    0  502 -0.29041770005E+02 -0.31920918342E+02 -0.28572380255E+03  0.28896446283E+03  0.00000000000E+00 0. -1.
<mgrwt>
<rscale>  1 0.30000000E+03</rscale>
<asrwt>0</asrwt>
<pdfrwt beam="1">  1       21 0.82792053E-02 0.30000000E+03</pdfrwt>
<pdfrwt beam="2">0</pdfrwt>
<totfact> 0.12026153E+04</totfact>
</mgrwt>
</event>
<event>
 6    1  0.1280499E-001  0.3000000E+03  0.7818608E-02  0.1093470E+00
         21   -1    0    0  501  502  0.00000000000E+00  0.00000000000E+00  0.15120888618E+01  0.15120888618E+01  0.00000000000E+00 0. -1.
         13   -1    0    0    0    0 -0.00000000000E+00 -0.00000000000E+00 -0.10000000000E+04  0.10000000000E+04  0.00000000000E+00 0.  1.
    9000005    2    1    2  501    0  0.37571054306E+02 -0.32723248273E+01 -0.38085734608E+03  0.38273118488E+03  0.29239680974E+01 0.  0.
         13    1    3    3    0    0  0.14680533196E+02 -0.53484531250E+00 -0.13609267177E+03  0.13688323281E+03  0.00000000000E+00 0.  1.
          1    1    3    3  501    0  0.22890521111E+02 -0.27374795148E+01 -0.24476467430E+03  0.24584795207E+03  0.00000000000E+00 0.  1.
         -1    1    1    2    0  502 -0.37571054306E+02  0.32723248273E+01 -0.61763056506E+03  0.61878090398E+03  0.00000000000E+00 0. -1.
<mgrwt>
<rscale>  1 0.30000000E+03</rscale>
<asrwt>0</asrwt>
<pdfrwt beam="1">  1       21 0.54985165E-02 0.30000000E+03</pdfrwt>
<pdfrwt beam="2">0</pdfrwt>
<totfact> 0.24485472E+04</totfact>
</mgrwt>
</event>
<event>
 6    1  0.1280499E-001  0.3000000E+03  0.7818608E-02  0.1093470E+00
         21   -1    0    0  501  502  0.00000000000E+00  0.00000000000E+00  0.15253737867E+01  0.15253737867E+01  0.00000000000E+00 0. -1.
         13   -1    0    0    0    0 -0.00000000000E+00 -0.00000000000E+00 -0.10000000000E+04  0.10000000000E+04  0.00000000000E+00 0.  1.
    9000005    2    1    2  501    0  0.12439919421E+01 -0.36585172851E+02 -0.67229652948E+03  0.67329957776E+03  0.31105422384E+01 0.  0.
         13    1    3    3    0    0  0.22558899445E+01 -0.26921766669E+02 -0.49972512149E+03  0.50045486071E+03  0.00000000000E+00 0.  1.
          3    1    3    3  501    0 -0.10118980024E+01 -0.96634061815E+01 -0.17257140799E+03  0.17284471705E+03  0.00000000000E+00 0.  1.
         -1    1    1    2    0  502 -0.12439919421E+01  0.36585172851E+02 -0.32617809674E+03  0.32822579603E+03  0.00000000000E+00 0. -1.
<mgrwt>
<rscale>  1 0.30000000E+03</rscale>
<asrwt>0</asrwt>
<pdfrwt beam="1">  1       21 0.55468255E-02 0.30000000E+03</pdfrwt>
<pdfrwt beam="2">0</pdfrwt>
<totfact> 0.24120844E+04</totfact>
</mgrwt>
</event>
<event>
 6    1  0.1280499E-001  0.3000000E+03  0.7818608E-02  0.1093470E+00
         21   -1    0    0  501  502  0.00000000000E+00  0.00000000000E+00  0.36357457344E+01  0.36357457344E+01  0.00000000000E+00 0. -1.
         13   -1    0    0    0    0 -0.00000000000E+00 -0.00000000000E+00 -0.10000000000E+04  0.10000000000E+04  0.00000000000E+00 0.  1.
    9000005    2    1    2  501    0  0.30492043353E+02 -0.50585133747E+02 -0.59754003051E+03  0.60046161224E+03  0.33821958769E+01 0.  0.
         13    1    3    3    0    0  0.29123910980E+02 -0.46678512212E+02 -0.55726808223E+03  0.55997750059E+03  0.00000000000E+00 0.  1.
          1    1    3    3  501    0  0.13681323721E+01 -0.39066215352E+01 -0.40271948284E+02  0.40484111657E+02  0.00000000000E+00 0.  1.
         -1    1    1    2    0  502 -0.30492043353E+02  0.50585133747E+02 -0.39882422375E+03  0.40317413349E+03  0.00000000000E+00 0. -1.
<mgrwt>
<rscale>  1 0.30000000E+03</rscale>
<asrwt>0</asrwt>
<pdfrwt beam="1">  1       21 0.13220921E-01 0.30000000E+03</pdfrwt>
<pdfrwt beam="2">0</pdfrwt>
<totfact> 0.51941015E+03</totfact>
</mgrwt>
</event>
<event>
 6    1  0.1280499E-001  0.3000000E+03  0.7818608E-02  0.1093470E+00
         21   -1    0    0  501  502  0.00000000000E+00  0.00000000000E+00  0.30618052056E+01  0.30618052056E+01  0.00000000000E+00 0. -1.
         13   -1    0    0    0    0 -0.00000000000E+00 -0.00000000000E+00 -0.10000000000E+04  0.10000000000E+04  0.00000000000E+00 0.  1.
    9000005    2    1    2  501    0  0.33211824290E+02 -0.11163556006E+02 -0.88530086883E+03  0.88605521221E+03  0.10419236177E+02 0.  0.
         13    1    3    3    0    0  0.17424903040E+02 -0.11242190446E+02 -0.48466435206E+03  0.48510776973E+03  0.00000000000E+00 0.  1.
          3    1    3    3  501    0  0.15786921250E+02  0.78634440174E-01 -0.40063651676E+03  0.40094744248E+03  0.00000000000E+00 0.  1.
         -1    1    1    2    0  502 -0.33211824290E+02  0.11163556006E+02 -0.11163732597E+03  0.11700659300E+03  0.00000000000E+00 0. -1.
<mgrwt>
<rscale>  1 0.30000000E+03</rscale>
<asrwt>0</asrwt>
<pdfrwt beam="1">  1       21 0.11133861E-01 0.30000000E+03</pdfrwt>
<pdfrwt beam="2">0</pdfrwt>
<totfact> 0.70958296E+03</totfact>
</mgrwt>
</event>
<event>
 6    1  0.1280499E-001  0.3000000E+03  0.7818608E-02  0.1093470E+00
         21   -1    0    0  501  502  0.00000000000E+00  0.00000000000E+00  0.43007990884E+01  0.43007990884E+01  0.00000000000E+00 0. -1.
         13   -1    0    0    0    0 -0.00000000000E+00 -0.00000000000E+00 -0.10000000000E+04  0.10000000000E+04  0.00000000000E+00 0.  1.
    9000005    2    1    2  501    0  0.22625932032E+02  0.50416235925E+02 -0.76780693302E+03  0.76980428439E+03  0.41737527819E+01 0.  0.
         13    1    3    3    0    0  0.89103745249E+01  0.20260208144E+02 -0.33626594712E+03  0.33699355780E+03  0.00000000000E+00 0.  1.
          1    1    3    3  501    0  0.13715557507E+02  0.30156027781E+02 -0.43154098591E+03  0.43281072658E+03  0.00000000000E+00 0.  1.
         -3    1    1    2    0  502 -0.22625932032E+02 -0.50416235925E+02 -0.22789226789E+03  0.23449651470E+03  0.00000000000E+00 0. -1.
<mgrwt>
<rscale>  1 0.30000000E+03</rscale>
<asrwt>0</asrwt>
<pdfrwt beam="1">  1       21 0.15639302E-01 0.30000000E+03</pdfrwt>
<pdfrwt beam="2">0</pdfrwt>
<totfact> 0.38111199E+03</totfact>
</mgrwt>
</event>
<event>
 6    1  0.1280499E-001  0.3000000E+03  0.7818608E-02  0.1093470E+00
         21   -1    0    0  501  502  0.00000000000E+00  0.00000000000E+00  0.14123046357E+01  0.14123046357E+01  0.00000000000E+00 0. -1.
         13   -1    0    0    0    0 -0.00000000000E+00 -0.00000000000E+00 -0.10000000000E+04  0.10000000000E+04  0.00000000000E+00 0.  1.
    9000005    2    1    2  501    0  0.34433269846E+02 -0.10987698375E+02 -0.63405080660E+03  0.63508796357E+03  0.31490526248E+01 0.  0.
         13    1    3    3    0    0  0.19044533838E+02 -0.70842174658E+01 -0.37735173822E+03  0.37789841855E+03  0.00000000000E+00 0.  1.
          3    1    3    3  501    0  0.15388736008E+02 -0.39034809094E+01 -0.25669906838E+03  0.25718954502E+03  0.00000000000E+00 0.  1.
         -1    1    1    2    0  502 -0.34433269846E+02  0.10987698375E+02 -0.36453688877E+03  0.36632434107E+03  0.00000000000E+00 0. -1.
<mgrwt>
<rscale>  1 0.30000000E+03</rscale>
<asrwt>0</asrwt>
<pdfrwt beam="1">  1       21 0.51356641E-02 0.30000000E+03</pdfrwt>
<pdfrwt beam="2">0</pdfrwt>
<totfact> 0.27518762E+04</totfact>
</mgrwt>
</event>
<event>
 6    1  0.1280499E-001  0.3000000E+03  0.7818608E-02  0.1093470E+00
         21   -1    0    0  501  502  0.00000000000E+00  0.00000000000E+00  0.31623522558E+01  0.31623522558E+01  0.00000000000E+00 0. -1.
         13   -1    0    0    0    0 -0.00000000000E+00 -0.00000000000E+00 -0.10000000000E+04  0.10000000000E+04  0.00000000000E+00 0.  1.
    9000005    2    1    2  501    0  0.14538104855E+02 -0.53845909777E+02 -0.55667745953E+03  0.55948259187E+03  0.44986840088E+01 0.  0.
         13    1    3    3    0    0  0.10950531634E+02 -0.39000891952E+02 -0.38382652241E+03  0.38595826591E+03  0.00000000000E+00 0.  1.
          3    1    3    3  501    0  0.35875732207E+01 -0.14845017825E+02 -0.17285093712E+03  0.17352432596E+03  0.00000000000E+00 0.  1.
         -3    1    1    2    0  502 -0.14538104855E+02  0.53845909777E+02 -0.44016018821E+03  0.44367976039E+03  0.00000000000E+00 0. -1.
<mgrwt>
<rscale>  1 0.30000000E+03</rscale>
<asrwt>0</asrwt>
<pdfrwt beam="1">  1       21 0.11499487E-01 0.30000000E+03</pdfrwt>
<pdfrwt beam="2">0</pdfrwt>
<totfact> 0.66940931E+03</totfact>
</mgrwt>
</event>
<event>
 6    1  0.1280499E-001  0.3000000E+03  0.7818608E-02  0.1093470E+00
         21   -1    0    0  501  502  0.00000000000E+00  0.00000000000E+00  0.18094303598E+01  0.18094303598E+01  0.00000000000E+00 0. -1.
         13   -1    0    0    0    0 -0.00000000000E+00 -0.00000000000E+00 -0.10000000000E+04  0.10000000000E+04  0.00000000000E+00 0.  1.
    9000005    2    1    2  501    0 -0.82459977745E+01 -0.38683118076E+02 -0.68208659348E+03  0.68324059346E+03  0.33477506602E+01 0.  0.
         13    1    3    3    0    0 -0.81675610230E+01 -0.32994222547E+02 -0.59050198810E+03  0.59147943813E+03  0.00000000000E+00 0.  1.
          1    1    3    3  501    0 -0.78436751445E-01 -0.56888955296E+01 -0.91584605383E+02  0.91761155332E+02  0.00000000000E+00 0.  1.
         -3    1    1    2    0  502  0.82459977745E+01  0.38683118076E+02 -0.31610397616E+03  0.31856883690E+03  0.00000000000E+00 0. -1.
<mgrwt>
<rscale>  1 0.30000000E+03</rscale>
<asrwt>0</asrwt>
<pdfrwt beam="1">  1       21 0.65797606E-02 0.30000000E+03</pdfrwt>
<pdfrwt beam="2">0</pdfrwt>
<totfact> 0.17966482E+04</totfact>
</mgrwt>
</event>
<event>
 6    1  0.1280499E-001  0.3000000E+03  0.7818608E-02  0.1093470E+00
         21   -1    0    0  501  502  0.00000000000E+00  0.00000000000E+00  0.13303421387E+01  0.13303421387E+01  0.00000000000E+00 0. -1.
         13   -1    0    0    0    0 -0.00000000000E+00 -0.00000000000E+00 -0.10000000000E+04  0.10000000000E+04  0.00000000000E+00 0.  1.
    9000005    2    1    2  501    0  0.11038851963E+02 -0.29934874357E+02 -0.73121374173E+03  0.73197811915E+03  0.10023864729E+02 0.  0.
         13    1    3    3    0    0  0.92289476976E+01 -0.29253208685E+02 -0.71350863052E+03  0.71416769006E+03  0.00000000000E+00 0.  1.
          1    1    3    3  501    0  0.18099042651E+01 -0.68166567213E+00 -0.17705111206E+02  0.17810429090E+02  0.00000000000E+00 0.  1.
         -1    1    1    2    0  502 -0.11038851963E+02  0.29934874357E+02 -0.26745591613E+03  0.26935222299E+03  0.00000000000E+00 0. -1.
<mgrwt>
<rscale>  1 0.30000000E+03</rscale>
<asrwt>0</asrwt>
<pdfrwt beam="1">  1       21 0.48376180E-02 0.30000000E+03</pdfrwt>
<pdfrwt beam="2">0</pdfrwt>
<totfact> 0.30471010E+04</totfact>
</mgrwt>
</event>
<event>
 6    1  0.1280499E-001  0.3000000E+03  0.7818608E-02  0.1093470E+00
         21   -1    0    0  501  502  0.00000000000E+00  0.00000000000E+00  0.26110137197E+01  0.26110137197E+01  0.00000000000E+00 0. -1.
         13   -1    0    0    0    0 -0.00000000000E+00 -0.00000000000E+00 -0.10000000000E+04  0.10000000000E+04  0.00000000000E+00 0.  1.
    9000005    2    1    2  501    0 -0.14260487434E+02 -0.47797693001E+02 -0.39484759233E+03  0.39800857213E+03  0.42686483129E+01 0.  0.
         13    1    3    3    0    0 -0.68145191163E-01 -0.40376199489E+01 -0.28941662850E+02  0.29222027088E+02  0.00000000000E+00 0.  1.
          3    1    3    3  501    0 -0.14192342243E+02 -0.43760073052E+02 -0.36590592948E+03  0.36878654504E+03  0.00000000000E+00 0.  1.
         -3    1    1    2    0  502  0.14260487434E+02  0.47797693001E+02 -0.60254139395E+03  0.60460244159E+03  0.00000000000E+00 0. -1.
<mgrwt>
<rscale>  1 0.30000000E+03</rscale>
<asrwt>0</asrwt>
<pdfrwt beam="1">  1       21 0.94946154E-02 0.30000000E+03</pdfrwt>
<pdfrwt beam="2">0</pdfrwt>
<totfact> 0.94372501E+03</totfact>
</mgrwt>
</event>
<event>
 6    1  0.1280499E-001  0.3000000E+03  0.7818608E-02  0.1093470E+00
         21   -1    0    0  501  502  0.00000000000E+00  0.00000000000E+00  0.12506470647E+01  0.12506470647E+01  0.00000000000E+00 0. -1.
         13   -1    0    0    0    0 -0.00000000000E+00 -0.00000000000E+00 -0.10000000000E+04  0.10000000000E+04  0.00000000000E+00 0.  1.
    9000005    2    1    2  501    0 -0.99427509102E+01 -0.31795145993E+02 -0.66005992346E+03  0.66092680241E+03  0.59452482977E+01 0.  0.
         13    1    3    3    0    0 -0.22461082884E+01 -0.95287966916E+01 -0.14646219050E+03  0.14678901939E+03  0.00000000000E+00 0.  1.
          3    1    3    3  501    0 -0.76966426218E+01 -0.22266349301E+02 -0.51359773296E+03  0.51413778301E+03  0.00000000000E+00 0.  1.
         -1    1    1    2    0  502  0.99427509102E+01  0.31795145993E+02 -0.33868942947E+03  0.34032384466E+03  0.00000000000E+00 0. -1.
<mgrwt>
<rscale>  1 0.30000000E+03</rscale>
<asrwt>0</asrwt>
<pdfrwt beam="1">  1       21 0.45478171E-02 0.30000000E+03</pdfrwt>
<pdfrwt beam="2">0</pdfrwt>
<totfact> 0.33845389E+04</totfact>
</mgrwt>
</event>
<event>
 6    1  0.1280499E-001  0.3000000E+03  0.7818608E-02  0.1093470E+00
         21   -1    0    0  501  502  0.00000000000E+00  0.00000000000E+00  0.53345061873E+01  0.53345061873E+01  0.00000000000E+00 0. -1.
         13   -1    0    0    0    0 -0.00000000000E+00 -0.00000000000E+00 -0.10000000000E+04  0.10000000000E+04  0.00000000000E+00 0.  1.
    9000005    2    1    2  501    0 -0.59908688588E+02  0.34017318909E+02 -0.33137651852E+03  0.33847732980E+03  0.32057461266E+01 0.  0.
         13    1    3    3    0    0 -0.41946775450E+02  0.23976043242E+02 -0.23942419899E+03  0.24425054695E+03  0.00000000000E+00 0.  1.
          3    1    3    3  501    0 -0.17961913138E+02  0.10041275667E+02 -0.91952319530E+02  0.94226782857E+02  0.00000000000E+00 0.  1.
         -1    1    1    2    0  502  0.59908688588E+02 -0.34017318909E+02 -0.66328897529E+03  0.66685717638E+03  0.00000000000E+00 0. -1.
<mgrwt>
<rscale>  1 0.30000000E+03</rscale>
<asrwt>0</asrwt>
<pdfrwt beam="1">  1       21 0.19398245E-01 0.30000000E+03</pdfrwt>
<pdfrwt beam="2">0</pdfrwt>
<totfact> 0.25429725E+03</totfact>
</mgrwt>
</event>
<event>
 6    1  0.1280499E-001  0.3000000E+03  0.7818608E-02  0.1093470E+00
         21   -1    0    0  501  502  0.00000000000E+00  0.00000000000E+00  0.28323272065E+01  0.28323272065E+01  0.00000000000E+00 0. -1.
         13   -1    0    0    0    0 -0.00000000000E+00 -0.00000000000E+00 -0.10000000000E+04  0.10000000000E+04  0.00000000000E+00 0.  1.
    9000005    2    1    2  501    0 -0.33382875727E+02  0.36440083993E+02 -0.68379680298E+03  0.68558857524E+03  0.33660990360E+01 0.  0.
         13    1    3    3    0    0 -0.26647371665E+02  0.27082302354E+02 -0.53048493811E+03  0.53184377695E+03  0.00000000000E+00 0.  1.
          1    1    3    3  501    0 -0.67355040614E+01  0.93577816397E+01 -0.15331186487E+03  0.15374479829E+03  0.00000000000E+00 0.  1.
         -3    1    1    2    0  502  0.33382875727E+02 -0.36440083993E+02 -0.31337086982E+03  0.31724375197E+03  0.00000000000E+00 0. -1.
<mgrwt>
<rscale>  1 0.30000000E+03</rscale>
<asrwt>0</asrwt>
<pdfrwt beam="1">  1       21 0.10299393E-01 0.30000000E+03</pdfrwt>
<pdfrwt beam="2">0</pdfrwt>
<totfact> 0.81610621E+03</totfact>
</mgrwt>
</event>
<event>
 6    1  0.1280499E-001  0.3000000E+03  0.7818608E-02  0.1093470E+00
         21   -1    0    0  501  502  0.00000000000E+00  0.00000000000E+00  0.10280851779E+01  0.10280851779E+01  0.00000000000E+00 0. -1.
         13   -1    0    0    0    0 -0.00000000000E+00 -0.00000000000E+00 -0.10000000000E+04  0.10000000000E+04  0.00000000000E+00 0.  1.
    9000005    2    1    2  501    0  0.96343691589E+01  0.28433416517E+02 -0.64605395831E+03  0.64683553264E+03  0.10450310767E+02 0.  0.
         13    1    3    3    0    0  0.11257075540E+02  0.20743476741E+02 -0.44109844768E+03  0.44172939015E+03  0.00000000000E+00 0.  1.
          1    1    3    3  501    0 -0.16227063815E+01  0.76899397758E+01 -0.20495551063E+03  0.20510614249E+03  0.00000000000E+00 0.  1.
         -1    1    1    2    0  502 -0.96343691589E+01 -0.28433416517E+02 -0.35291795651E+03  0.35419255253E+03  0.00000000000E+00 0. -1.
<mgrwt>
<rscale>  1 0.30000000E+03</rscale>
<asrwt>0</asrwt>
<pdfrwt beam="1">  1       21 0.37384994E-02 0.30000000E+03</pdfrwt>
<pdfrwt beam="2">0</pdfrwt>
<totfact> 0.47109623E+04</totfact>
</mgrwt>
</event>
<event>
 6    1  0.1280499E-001  0.3000000E+03  0.7818608E-02  0.1093470E+00
         21   -1    0    0  501  502  0.00000000000E+00  0.00000000000E+00  0.12078245126E+01  0.12078245126E+01  0.00000000000E+00 0. -1.
         13   -1    0    0    0    0 -0.00000000000E+00 -0.00000000000E+00 -0.10000000000E+04  0.10000000000E+04  0.00000000000E+00 0.  1.
    9000005    2    1    2  501    0 -0.26512452882E+02 -0.19752805511E+02 -0.62800335378E+03  0.62894792366E+03  0.97054019781E+01 0.  0.
         13    1    3    3    0    0 -0.21522651740E+02 -0.19626246339E+02 -0.50043802336E+03  0.50128497814E+03  0.00000000000E+00 0.  1.
          1    1    3    3  501    0 -0.49898011422E+01 -0.12655917187E+00 -0.12756533042E+03  0.12766294551E+03  0.00000000000E+00 0.  1.
         -3    1    1    2    0  502  0.26512452882E+02  0.19752805511E+02 -0.37078882171E+03  0.37225990086E+03  0.00000000000E+00 0. -1.
<mgrwt>
<rscale>  1 0.30000000E+03</rscale>
<asrwt>0</asrwt>
<pdfrwt beam="1">  1       21 0.43920984E-02 0.30000000E+03</pdfrwt>
<pdfrwt beam="2">0</pdfrwt>
<totfact> 0.35905556E+04</totfact>
</mgrwt>
</event>
<event>
 6    1  0.1280499E-001  0.3000000E+03  0.7818608E-02  0.1093470E+00
         21   -1    0    0  501  502  0.00000000000E+00  0.00000000000E+00  0.22224750012E+01  0.22224750012E+01  0.00000000000E+00 0. -1.
         13   -1    0    0    0    0 -0.00000000000E+00 -0.00000000000E+00 -0.10000000000E+04  0.10000000000E+04  0.00000000000E+00 0.  1.
    9000005    2    1    2  501    0 -0.35598153290E+02  0.96068568392E+01 -0.81052254773E+03  0.81137188756E+03  0.42449172696E+01 0.  0.
         13    1    3    3    0    0 -0.79809627262E+01  0.36023680345E+01 -0.16795298901E+03  0.16818109091E+03  0.00000000000E+00 0.  1.
          1    1    3    3  501    0 -0.27617190564E+02  0.60044888047E+01 -0.64256955872E+03  0.64319079665E+03  0.00000000000E+00 0.  1.
         -3    1    1    2    0  502  0.35598153290E+02 -0.96068568392E+01 -0.18725497727E+03  0.19085058745E+03  0.00000000000E+00 0. -1.
<mgrwt>
<rscale>  1 0.30000000E+03</rscale>
<asrwt>0</asrwt>
<pdfrwt beam="1">  1       21 0.80817443E-02 0.30000000E+03</pdfrwt>
<pdfrwt beam="2">0</pdfrwt>
<totfact> 0.12547731E+04</totfact>
</mgrwt>
</event>
<event>
 6    1  0.1280499E-001  0.3000000E+03  0.7818608E-02  0.1093470E+00
         21   -1    0    0  501  502  0.00000000000E+00  0.00000000000E+00  0.63436513511E+01  0.63436513511E+01  0.00000000000E+00 0. -1.
         13   -1    0    0    0    0 -0.00000000000E+00 -0.00000000000E+00 -0.10000000000E+04  0.10000000000E+04  0.00000000000E+00 0.  1.
    9000005    2    1    2  501    0 -0.34616686983E+02  0.58405575410E+02 -0.75869294819E+03  0.76176784344E+03  0.81074916486E+01 0.  0.
         13    1    3    3    0    0 -0.50193736835E+00  0.40389443882E+01 -0.35590179718E+02  0.35822142667E+02  0.00000000000E+00 0.  1.
          3    1    3    3  501    0 -0.34114749614E+02  0.54366631021E+02 -0.72310276847E+03  0.72594570078E+03  0.00000000000E+00 0.  1.
         -1    1    1    2    0  502  0.34616686983E+02 -0.58405575410E+02 -0.23496340046E+03  0.24457580791E+03  0.00000000000E+00 0. -1.
<mgrwt>
<rscale>  1 0.30000000E+03</rscale>
<asrwt>0</asrwt>
<pdfrwt beam="1">  1       21 0.23067872E-01 0.30000000E+03</pdfrwt>
<pdfrwt beam="2">0</pdfrwt>
<totfact> 0.18238477E+03</totfact>
</mgrwt>
</event>
<event>
 6    1  0.1280499E-001  0.3000000E+03  0.7818608E-02  0.1093470E+00
         21   -1    0    0  501  502  0.00000000000E+00  0.00000000000E+00  0.21077537260E+01  0.21077537260E+01  0.00000000000E+00 0. -1.
         13   -1    0    0    0    0 -0.00000000000E+00 -0.00000000000E+00 -0.10000000000E+04  0.10000000000E+04  0.00000000000E+00 0.  1.
    9000005    2    1    2  501    0  0.12618839264E+02  0.44053657191E+02 -0.51351131213E+03  0.51556397442E+03  0.35191221870E+01 0.  0.
         13    1    3    3    0    0  0.65703219149E+01  0.17726974714E+02 -0.20062809367E+03  0.20151686464E+03  0.00000000000E+00 0.  1.
          3    1    3    3  501    0  0.60485173494E+01  0.26326682477E+02 -0.31288321846E+03  0.31404710978E+03  0.00000000000E+00 0.  1.
         -1    1    1    2    0  502 -0.12618839264E+02 -0.44053657191E+02 -0.48438093415E+03  0.48654377931E+03  0.00000000000E+00 0. -1.
<mgrwt>
<rscale>  1 0.30000000E+03</rscale>
<asrwt>0</asrwt>
<pdfrwt beam="1">  1       21 0.76645752E-02 0.30000000E+03</pdfrwt>
<pdfrwt beam="2">0</pdfrwt>
<totfact> 0.13770781E+04</totfact>
</mgrwt>
</event>
<event>
 6    1  0.1280499E-001  0.3000000E+03  0.7818608E-02  0.1093470E+00
         21   -1    0    0  501  502  0.00000000000E+00  0.00000000000E+00  0.18933583172E+01  0.18933583172E+01  0.00000000000E+00 0. -1.
         13   -1    0    0    0    0 -0.00000000000E+00 -0.00000000000E+00 -0.10000000000E+04  0.10000000000E+04  0.00000000000E+00 0.  1.
    9000005    2    1    2  501    0  0.97914453022E+01  0.32139414660E+02 -0.81697295553E+03  0.81767005188E+03  0.32694488854E+01 0.  0.
         13    1    3    3    0    0  0.31387281547E+01  0.90326031703E+01 -0.26862307521E+03  0.26879322177E+03  0.00000000000E+00 0.  1.
          3    1    3    3  501    0  0.66527171475E+01  0.23106811490E+02 -0.54834988033E+03  0.54887683011E+03  0.00000000000E+00 0.  1.
         -1    1    1    2    0  502 -0.97914453022E+01 -0.32139414660E+02 -0.18113368615E+03  0.18422330644E+03  0.00000000000E+00 0. -1.
<mgrwt>
<rscale>  1 0.30000000E+03</rscale>
<asrwt>0</asrwt>
<pdfrwt beam="1">  1       21 0.68849539E-02 0.30000000E+03</pdfrwt>
<pdfrwt beam="2">0</pdfrwt>
<totfact> 0.16607095E+04</totfact>
</mgrwt>
</event>
<event>
 6    1  0.1280499E-001  0.3000000E+03  0.7818608E-02  0.1093470E+00
         21   -1    0    0  501  502  0.00000000000E+00  0.00000000000E+00  0.99586287911E+00  0.99586287911E+00  0.00000000000E+00 0. -1.
         13   -1    0    0    0    0 -0.00000000000E+00 -0.00000000000E+00 -0.10000000000E+04  0.10000000000E+04  0.00000000000E+00 0.  1.
    9000005    2    1    2  501    0  0.23430701663E+02  0.20718167404E+02 -0.55977938016E+03  0.56065891534E+03  0.26878721277E+01 0.  0.
         13    1    3    3    0    0  0.16820608336E+02  0.14262068236E+02 -0.37344465066E+03  0.37409523729E+03  0.00000000000E+00 0.  1.
          3    1    3    3  501    0  0.66100933275E+01  0.64560991671E+01 -0.18633472950E+03  0.18656367805E+03  0.00000000000E+00 0.  1.
         -1    1    1    2    0  502 -0.23430701663E+02 -0.20718167404E+02 -0.43922475696E+03  0.44033694754E+03  0.00000000000E+00 0. -1.
<mgrwt>
<rscale>  1 0.30000000E+03</rscale>
<asrwt>0</asrwt>
<pdfrwt beam="1">  1       21 0.36213272E-02 0.30000000E+03</pdfrwt>
<pdfrwt beam="2">0</pdfrwt>
<totfact> 0.49695569E+04</totfact>
</mgrwt>
</event>
<event>
 6    1  0.1280499E-001  0.3000000E+03  0.7818608E-02  0.1093470E+00
         21   -1    0    0  501  502  0.00000000000E+00  0.00000000000E+00  0.11458598819E+01  0.11458598819E+01  0.00000000000E+00 0. -1.
         13   -1    0    0    0    0 -0.00000000000E+00 -0.00000000000E+00 -0.10000000000E+04  0.10000000000E+04  0.00000000000E+00 0.  1.
    9000005    2    1    2  501    0 -0.29504228369E+02 -0.11591744264E+02 -0.67256685034E+03  0.67332233495E+03  0.34540616695E+01 0.  0.
         13    1    3    3    0    0 -0.17632138060E+02 -0.75480864722E+01 -0.43944066463E+03  0.43985902700E+03  0.00000000000E+00 0.  1.
          1    1    3    3  501    0 -0.11872090309E+02 -0.40436577921E+01 -0.23312618571E+03  0.23346330795E+03  0.00000000000E+00 0.  1.
         -1    1    1    2    0  502  0.29504228369E+02  0.11591744264E+02 -0.32628728978E+03  0.32782352493E+03  0.00000000000E+00 0. -1.
<mgrwt>
<rscale>  1 0.30000000E+03</rscale>
<asrwt>0</asrwt>
<pdfrwt beam="1">  1       21 0.41667720E-02 0.30000000E+03</pdfrwt>
<pdfrwt beam="2">0</pdfrwt>
<totfact> 0.39249254E+04</totfact>
</mgrwt>
</event>
<event>
 6    1  0.1280499E-001  0.3000000E+03  0.7818608E-02  0.1093470E+00
         21   -1    0    0  501  502  0.00000000000E+00  0.00000000000E+00  0.27744209953E+01  0.27744209953E+01  0.00000000000E+00 0. -1.
         13   -1    0    0    0    0 -0.00000000000E+00 -0.00000000000E+00 -0.10000000000E+04  0.10000000000E+04  0.00000000000E+00 0.  1.
    9000005    2    1    2  501    0 -0.34303953280E+02 -0.13492334986E+02 -0.85664107630E+03  0.85743754779E+03  0.25318830669E+01 0.  0.
         13    1    3    3    0    0 -0.15097154875E+02 -0.53784671659E+01 -0.34601009176E+03  0.34638105548E+03  0.00000000000E+00 0.  1.
          3    1    3    3  501    0 -0.19206798405E+02 -0.81138678202E+01 -0.51063098454E+03  0.51105649231E+03  0.00000000000E+00 0.  1.
         -3    1    1    2    0  502  0.34303953280E+02  0.13492334986E+02 -0.14058450270E+03  0.14533687321E+03  0.00000000000E+00 0. -1.
<mgrwt>
<rscale>  1 0.30000000E+03</rscale>
<asrwt>0</asrwt>
<pdfrwt beam="1">  1       21 0.10088825E-01 0.30000000E+03</pdfrwt>
<pdfrwt beam="2">0</pdfrwt>
<totfact> 0.84682872E+03</totfact>
</mgrwt>
</event>
<event>
 6    1  0.1280499E-001  0.3000000E+03  0.7818608E-02  0.1093470E+00
         21   -1    0    0  501  502  0.00000000000E+00  0.00000000000E+00  0.13620143074E+01  0.13620143074E+01  0.00000000000E+00 0. -1.
         13   -1    0    0    0    0 -0.00000000000E+00 -0.00000000000E+00 -0.10000000000E+04  0.10000000000E+04  0.00000000000E+00 0.  1.
    9000005    2    1    2  501    0  0.35288397258E+02 -0.59910583546E+01 -0.38301148810E+03  0.38469585803E+03  0.34553446688E+01 0.  0.
         13    1    3    3    0    0  0.21226106428E+02 -0.52697408882E+01 -0.22890062610E+03  0.22994306772E+03  0.00000000000E+00 0.  1.
          1    1    3    3  501    0  0.14062290830E+02 -0.72131746634E+00 -0.15411086200E+03  0.15475279031E+03  0.00000000000E+00 0.  1.
         -1    1    1    2    0  502 -0.35288397258E+02  0.59910583546E+01 -0.61562649759E+03  0.61666615628E+03  0.00000000000E+00 0. -1.
<mgrwt>
<rscale>  1 0.30000000E+03</rscale>
<asrwt>0</asrwt>
<pdfrwt beam="1">  1       21 0.49527897E-02 0.30000000E+03</pdfrwt>
<pdfrwt beam="2">0</pdfrwt>
<totfact> 0.29274179E+04</totfact>
</mgrwt>
</event>
<event>
 6    1  0.1280499E-001  0.3000000E+03  0.7818608E-02  0.1093470E+00
         21   -1    0    0  501  502  0.00000000000E+00  0.00000000000E+00  0.17973060048E+01  0.17973060048E+01  0.00000000000E+00 0. -1.
         13   -1    0    0    0    0 -0.00000000000E+00 -0.00000000000E+00 -0.10000000000E+04  0.10000000000E+04  0.00000000000E+00 0.  1.
    9000005    2    1    2  501    0 -0.18100659153E+01  0.39158806691E+02 -0.68540087694E+03  0.68654872911E+03  0.61730749736E+01 0.  0.
         13    1    3    3    0    0  0.20103657158E+01  0.13500091711E+02 -0.21444190820E+03  0.21487583865E+03  0.00000000000E+00 0.  1.
          1    1    3    3  501    0 -0.38204316311E+01  0.25658714980E+02 -0.47095896874E+03  0.47167289045E+03  0.00000000000E+00 0.  1.
         -3    1    1    2    0  502  0.18100659153E+01 -0.39158806691E+02 -0.31280181706E+03  0.31524857690E+03  0.00000000000E+00 0. -1.
<mgrwt>
<rscale>  1 0.30000000E+03</rscale>
<asrwt>0</asrwt>
<pdfrwt beam="1">  1       21 0.65356720E-02 0.30000000E+03</pdfrwt>
<pdfrwt beam="2">0</pdfrwt>
<totfact> 0.18176955E+04</totfact>
</mgrwt>
</event>
<event>
 6    1  0.1280499E-001  0.3000000E+03  0.7818608E-02  0.1093470E+00
         21   -1    0    0  501  502  0.00000000000E+00  0.00000000000E+00  0.20340775039E+01  0.20340775039E+01  0.00000000000E+00 0. -1.
         13   -1    0    0    0    0 -0.00000000000E+00 -0.00000000000E+00 -0.10000000000E+04  0.10000000000E+04  0.00000000000E+00 0.  1.
    9000005    2    1    2  501    0 -0.43006700638E+02  0.85448985004E+01 -0.61284644535E+03  0.61442653982E+03  0.40762323199E+01 0.  0.
         13    1    3    3    0    0 -0.34760831676E+02  0.84612737142E+01 -0.50403858465E+03  0.50530664293E+03  0.00000000000E+00 0.  1.
          3    1    3    3  501    0 -0.82458689614E+01  0.83624786152E-01 -0.10880786069E+03  0.10911989689E+03  0.00000000000E+00 0.  1.
         -1    1    1    2    0  502  0.43006700638E+02 -0.85448985004E+01 -0.38511947715E+03  0.38760753769E+03  0.00000000000E+00 0. -1.
<mgrwt>
<rscale>  1 0.30000000E+03</rscale>
<asrwt>0</asrwt>
<pdfrwt beam="1">  1       21 0.73966611E-02 0.30000000E+03</pdfrwt>
<pdfrwt beam="2">0</pdfrwt>
<totfact> 0.14656052E+04</totfact>
</mgrwt>
</event>
<event>
 6    1  0.1280499E-001  0.3000000E+03  0.7818608E-02  0.1093470E+00
         21   -1    0    0  501  502  0.00000000000E+00  0.00000000000E+00  0.33524143597E+01  0.33524143597E+01  0.00000000000E+00 0. -1.
         13   -1    0    0    0    0 -0.00000000000E+00 -0.00000000000E+00 -0.10000000000E+04  0.10000000000E+04  0.00000000000E+00 0.  1.
    9000005    2    1    2  501    0 -0.41963649207E+01  0.56654032907E+02 -0.59337289213E+03  0.59609602417E+03  0.34339474893E+01 0.  0.
         13    1    3    3    0    0  0.54592823786E+00  0.30347726468E+01 -0.32904617611E+02  0.33048778235E+02  0.00000000000E+00 0.  1.
          3    1    3    3  501    0 -0.47422931586E+01  0.53619260260E+02 -0.56046827452E+03  0.56304724593E+03  0.00000000000E+00 0.  1.
         -3    1    1    2    0  502  0.41963649207E+01 -0.56654032907E+02 -0.40327469351E+03  0.40725639019E+03  0.00000000000E+00 0. -1.
<mgrwt>
<rscale>  1 0.30000000E+03</rscale>
<asrwt>0</asrwt>
<pdfrwt beam="1">  1       21 0.12190623E-01 0.30000000E+03</pdfrwt>
<pdfrwt beam="2">0</pdfrwt>
<totfact> 0.60222079E+03</totfact>
</mgrwt>
</event>
<event>
 6    1  0.1280499E-001  0.3000000E+03  0.7818608E-02  0.1093470E+00
         21   -1    0    0  501  502  0.00000000000E+00  0.00000000000E+00  0.16285149662E+01  0.16285149662E+01  0.00000000000E+00 0. -1.
         13   -1    0    0    0    0 -0.00000000000E+00 -0.00000000000E+00 -0.10000000000E+04  0.10000000000E+04  0.00000000000E+00 0.  1.
    9000005    2    1    2  501    0 -0.32448079077E+02 -0.65878317608E+01 -0.78455668775E+03  0.78526529050E+03  0.40128307402E+01 0.  0.
         13    1    3    3    0    0 -0.13176583219E+02 -0.31079741863E+01 -0.36704314245E+03  0.36729273104E+03  0.00000000000E+00 0.  1.
          1    1    3    3  501    0 -0.19271495858E+02 -0.34798575745E+01 -0.41751354530E+03  0.41797255947E+03  0.00000000000E+00 0.  1.
         -1    1    1    2    0  502  0.32448079077E+02  0.65878317608E+01 -0.21381479728E+03  0.21636322446E+03  0.00000000000E+00 0. -1.
<mgrwt>
<rscale>  1 0.30000000E+03</rscale>
<asrwt>0</asrwt>
<pdfrwt beam="1">  1       21 0.59218851E-02 0.30000000E+03</pdfrwt>
<pdfrwt beam="2">0</pdfrwt>
<totfact> 0.21553201E+04</totfact>
</mgrwt>
</event>
<event>
 6    1  0.1280499E-001  0.3000000E+03  0.7818608E-02  0.1093470E+00
         21   -1    0    0  501  502  0.00000000000E+00  0.00000000000E+00  0.19812448159E+01  0.19812448159E+01  0.00000000000E+00 0. -1.
         13   -1    0    0    0    0 -0.00000000000E+00 -0.00000000000E+00 -0.10000000000E+04  0.10000000000E+04  0.00000000000E+00 0.  1.
    9000005    2    1    2  501    0  0.29345858060E+02 -0.17815053468E+02 -0.81757708086E+03  0.81830284829E+03  0.29517564007E+01 0.  0.
         13    1    3    3    0    0  0.17089904871E+02 -0.93678106862E+01 -0.49136022547E+03  0.49174657284E+03  0.00000000000E+00 0.  1.
          1    1    3    3  501    0  0.12255953189E+02 -0.84472427817E+01 -0.32621685538E+03  0.32655627545E+03  0.00000000000E+00 0.  1.
         -3    1    1    2    0  502 -0.29345858060E+02  0.17815053468E+02 -0.18044167433E+03  0.18367839652E+03  0.00000000000E+00 0. -1.
<mgrwt>
<rscale>  1 0.30000000E+03</rscale>
<asrwt>0</asrwt>
<pdfrwt beam="1">  1       21 0.72045418E-02 0.30000000E+03</pdfrwt>
<pdfrwt beam="2">0</pdfrwt>
<totfact> 0.15345522E+04</totfact>
</mgrwt>
</event>
<event>
 6    1  0.1280499E-001  0.3000000E+03  0.7818608E-02  0.1093470E+00
         21   -1    0    0  501  502  0.00000000000E+00  0.00000000000E+00  0.21284466389E+01  0.21284466389E+01  0.00000000000E+00 0. -1.
         13   -1    0    0    0    0 -0.00000000000E+00 -0.00000000000E+00 -0.10000000000E+04  0.10000000000E+04  0.00000000000E+00 0.  1.
    9000005    2    1    2  501    0  0.45545538439E+02  0.56286098325E+01 -0.45367287455E+03  0.45599816975E+03  0.30292553559E+01 0.  0.
         13    1    3    3    0    0  0.73143910273E+01  0.10037536750E+01 -0.62634786072E+02  0.63068409397E+02  0.00000000000E+00 0.  1.
          1    1    3    3  501    0  0.38231147412E+02  0.46248561575E+01 -0.39103808848E+03  0.39292976035E+03  0.00000000000E+00 0.  1.
         -1    1    1    2    0  502 -0.45545538439E+02 -0.56286098325E+01 -0.54419867881E+03  0.54613027689E+03  0.00000000000E+00 0. -1.
<mgrwt>
<rscale>  1 0.30000000E+03</rscale>
<asrwt>0</asrwt>
<pdfrwt beam="1">  1       21 0.77398223E-02 0.30000000E+03</pdfrwt>
<pdfrwt beam="2">0</pdfrwt>
<totfact> 0.13536951E+04</totfact>
</mgrwt>
</event>
<event>
 6    1  0.1280499E-001  0.3000000E+03  0.7818608E-02  0.1093470E+00
         21   -1    0    0  501  502  0.00000000000E+00  0.00000000000E+00  0.34820141838E+01  0.34820141838E+01  0.00000000000E+00 0. -1.
         13   -1    0    0    0    0 -0.00000000000E+00 -0.00000000000E+00 -0.10000000000E+04  0.10000000000E+04  0.00000000000E+00 0.  1.
    9000005    2    1    2  501    0  0.35262204869E+02  0.36090325472E+01 -0.89928219836E+03  0.89998686178E+03  0.33809596480E+01 0.  0.
         13    1    3    3    0    0  0.34637332420E+02  0.35772751799E+01 -0.86763884948E+03  0.86833732778E+03  0.00000000000E+00 0.  1.
          1    1    3    3  501    0  0.62487244898E+00  0.31757367246E-01 -0.31643348876E+02  0.31649533996E+02  0.00000000000E+00 0.  1.
         -1    1    1    2    0  502 -0.35262204869E+02 -0.36090325472E+01 -0.97235787460E+02  0.10349515240E+03  0.00000000000E+00 0. -1.
<mgrwt>
<rscale>  1 0.30000000E+03</rscale>
<asrwt>0</asrwt>
<pdfrwt beam="1">  1       21 0.12661896E-01 0.30000000E+03</pdfrwt>
<pdfrwt beam="2">0</pdfrwt>
<totfact> 0.56203512E+03</totfact>
</mgrwt>
</event>
<event>
 6    1  0.1280499E-001  0.3000000E+03  0.7818608E-02  0.1093470E+00
         21   -1    0    0  501  502  0.00000000000E+00  0.00000000000E+00  0.17529101316E+01  0.17529101316E+01  0.00000000000E+00 0. -1.
         13   -1    0    0    0    0 -0.00000000000E+00 -0.00000000000E+00 -0.10000000000E+04  0.10000000000E+04  0.00000000000E+00 0.  1.
    9000005    2    1    2  501    0  0.10040916003E+02  0.35743054843E+02 -0.72960419974E+03  0.73055669264E+03  0.35223462829E+01 0.  0.
         13    1    3    3    0    0  0.30302179389E+01  0.60572692271E+01 -0.14154896626E+03  0.14171091200E+03  0.00000000000E+00 0.  1.
          3    1    3    3  501    0  0.70106980636E+01  0.29685785616E+02 -0.58805523348E+03  0.58884578064E+03  0.00000000000E+00 0.  1.
         -3    1    1    2    0  502 -0.10040916003E+02 -0.35743054843E+02 -0.26864289013E+03  0.27119621749E+03  0.00000000000E+00 0. -1.
<mgrwt>
<rscale>  1 0.30000000E+03</rscale>
<asrwt>0</asrwt>
<pdfrwt beam="1">  1       21 0.63742321E-02 0.30000000E+03</pdfrwt>
<pdfrwt beam="2">0</pdfrwt>
<totfact> 0.18981068E+04</totfact>
</mgrwt>
</event>
<event>
 6    1  0.1280499E-001  0.3000000E+03  0.7818608E-02  0.1093470E+00
         21   -1    0    0  501  502  0.00000000000E+00  0.00000000000E+00  0.11905193381E+01  0.11905193381E+01  0.00000000000E+00 0. -1.
         13   -1    0    0    0    0 -0.00000000000E+00 -0.00000000000E+00 -0.10000000000E+04  0.10000000000E+04  0.00000000000E+00 0.  1.
    9000005    2    1    2  501    0  0.26343795069E+01 -0.31616997660E+02 -0.68427074838E+03  0.68505575598E+03  0.82678425139E+01 0.  0.
         13    1    3    3    0    0 -0.35365102274E+00 -0.31059588414E+01 -0.31222211714E+02  0.31378313429E+02  0.00000000000E+00 0.  1.
          3    1    3    3  501    0  0.29880305297E+01 -0.28511038818E+02 -0.65304853666E+03  0.65367744255E+03  0.00000000000E+00 0.  1.
         -3    1    1    2    0  502 -0.26343795069E+01  0.31616997660E+02 -0.31453873228E+03  0.31613476336E+03  0.00000000000E+00 0. -1.
<mgrwt>
<rscale>  1 0.30000000E+03</rscale>
<asrwt>0</asrwt>
<pdfrwt beam="1">  1       21 0.43291704E-02 0.30000000E+03</pdfrwt>
<pdfrwt beam="2">0</pdfrwt>
<totfact> 0.36793530E+04</totfact>
</mgrwt>
</event>
<event>
 6    1  0.1280499E-001  0.3000000E+03  0.7818608E-02  0.1093470E+00
         21   -1    0    0  501  502  0.00000000000E+00  0.00000000000E+00  0.14955941613E+01  0.14955941613E+01  0.00000000000E+00 0. -1.
         13   -1    0    0    0    0 -0.00000000000E+00 -0.00000000000E+00 -0.10000000000E+04  0.10000000000E+04  0.00000000000E+00 0.  1.
    9000005    2    1    2  501    0 -0.15740352766E+02  0.33884992922E+02 -0.37836351520E+03  0.38023021150E+03  0.44847132339E+01 0.  0.
         13    1    3    3    0    0 -0.38416251465E+01  0.56671035487E+01 -0.56572159022E+02  0.56984939438E+02  0.00000000000E+00 0.  1.
          3    1    3    3  501    0 -0.11898727619E+02  0.28217889373E+02 -0.32179135618E+03  0.32324527207E+03  0.00000000000E+00 0.  1.
         -3    1    1    2    0  502  0.15740352766E+02 -0.33884992922E+02 -0.62014089064E+03  0.62126538266E+03  0.00000000000E+00 0. -1.
<mgrwt>
<rscale>  1 0.30000000E+03</rscale>
<asrwt>0</asrwt>
<pdfrwt beam="1">  1       21 0.54385357E-02 0.30000000E+03</pdfrwt>
<pdfrwt beam="2">0</pdfrwt>
<totfact> 0.24950141E+04</totfact>
</mgrwt>
</event>
<event>
 6    1  0.1280499E-001  0.3000000E+03  0.7818608E-02  0.1093470E+00
         21   -1    0    0  501  502  0.00000000000E+00  0.00000000000E+00  0.11905674919E+01  0.11905674919E+01  0.00000000000E+00 0. -1.
         13   -1    0    0    0    0 -0.00000000000E+00 -0.00000000000E+00 -0.10000000000E+04  0.10000000000E+04  0.00000000000E+00 0.  1.
    9000005    2    1    2  501    0  0.33777243372E+02  0.27503957974E+01 -0.41248494211E+03  0.41388751549E+03  0.32528704882E+01 0.  0.
         13    1    3    3    0    0  0.47717661500E+01 -0.52263592201E+00 -0.50532619776E+02  0.50760107978E+02  0.00000000000E+00 0.  1.
          3    1    3    3  501    0  0.29005477222E+02  0.32730317194E+01 -0.36195232233E+03  0.36312740752E+03  0.00000000000E+00 0.  1.
         -3    1    1    2    0  502 -0.33777243372E+02 -0.27503957974E+01 -0.58632449040E+03  0.58730305200E+03  0.00000000000E+00 0. -1.
<mgrwt>
<rscale>  1 0.30000000E+03</rscale>
<asrwt>0</asrwt>
<pdfrwt beam="1">  1       21 0.43293455E-02 0.30000000E+03</pdfrwt>
<pdfrwt beam="2">0</pdfrwt>
<totfact> 0.36791012E+04</totfact>
</mgrwt>
</event>
<event>
 6    1  0.1280499E-001  0.3000000E+03  0.7818608E-02  0.1093470E+00
         21   -1    0    0  501  502  0.00000000000E+00  0.00000000000E+00  0.52679606277E+01  0.52679606277E+01  0.00000000000E+00 0. -1.
         13   -1    0    0    0    0 -0.00000000000E+00 -0.00000000000E+00 -0.10000000000E+04  0.10000000000E+04  0.00000000000E+00 0.  1.
    9000005    2    1    2  501    0  0.18773796293E+02  0.69077445133E+02 -0.57926199285E+03  0.58367632360E+03  0.30733562957E+01 0.  0.
         13    1    3    3    0    0  0.22334521516E+01  0.97638083762E+01 -0.89407374179E+02  0.89966653934E+02  0.00000000000E+00 0.  1.
          3    1    3    3  501    0  0.16540344141E+02  0.59313636757E+02 -0.48985461867E+03  0.49370966966E+03  0.00000000000E+00 0.  1.
         -1    1    1    2    0  502 -0.18773796293E+02 -0.69077445133E+02 -0.41547004652E+03  0.42159163703E+03  0.00000000000E+00 0. -1.
<mgrwt>
<rscale>  1 0.30000000E+03</rscale>
<asrwt>0</asrwt>
<pdfrwt beam="1">  1       21 0.19156261E-01 0.30000000E+03</pdfrwt>
<pdfrwt beam="2">0</pdfrwt>
<totfact> 0.26043208E+03</totfact>
</mgrwt>
</event>
<event>
 6    1  0.1280499E-001  0.3000000E+03  0.7818608E-02  0.1093470E+00
         21   -1    0    0  501  502  0.00000000000E+00  0.00000000000E+00  0.10863725284E+01  0.10863725284E+01  0.00000000000E+00 0. -1.
         13   -1    0    0    0    0 -0.00000000000E+00 -0.00000000000E+00 -0.10000000000E+04  0.10000000000E+04  0.00000000000E+00 0.  1.
    9000005    2    1    2  501    0 -0.26068376900E+02 -0.20040210271E+02 -0.50669505359E+03  0.50777075877E+03  0.31773934713E+01 0.  0.
         13    1    3    3    0    0 -0.14154145517E+02 -0.12391596797E+02 -0.27329893137E+03  0.27394561029E+03  0.00000000000E+00 0.  1.
          3    1    3    3  501    0 -0.11914231383E+02 -0.76486134744E+01 -0.23339612221E+03  0.23382514848E+03  0.00000000000E+00 0.  1.
         -3    1    1    2    0  502  0.26068376900E+02  0.20040210271E+02 -0.49221857389E+03  0.49331561376E+03  0.00000000000E+00 0. -1.
<mgrwt>
<rscale>  1 0.30000000E+03</rscale>
<asrwt>0</asrwt>
<pdfrwt beam="1">  1       21 0.39504539E-02 0.30000000E+03</pdfrwt>
<pdfrwt beam="2">0</pdfrwt>
<totfact> 0.42938928E+04</totfact>
</mgrwt>
</event>
<event>
 6    1  0.1280499E-001  0.3000000E+03  0.7818608E-02  0.1093470E+00
         21   -1    0    0  501  502  0.00000000000E+00  0.00000000000E+00  0.12200456720E+01  0.12200456720E+01  0.00000000000E+00 0. -1.
         13   -1    0    0    0    0 -0.00000000000E+00 -0.00000000000E+00 -0.10000000000E+04  0.10000000000E+04  0.00000000000E+00 0.  1.
    9000005    2    1    2  501    0  0.21007466648E+02  0.26687593911E+02 -0.39252844703E+03  0.39401791176E+03  0.42416668678E+01 0.  0.
         13    1    3    3    0    0  0.92928294863E-01  0.42693427316E+00 -0.19033078245E+01  0.19528157149E+01  0.00000000000E+00 0.  1.
          1    1    3    3  501    0  0.20914538354E+02  0.26260659638E+02 -0.39062513921E+03  0.39206509605E+03  0.00000000000E+00 0.  1.
         -1    1    1    2    0  502 -0.21007466648E+02 -0.26687593911E+02 -0.60625150730E+03  0.60720213391E+03  0.00000000000E+00 0. -1.
<mgrwt>
<rscale>  1 0.30000000E+03</rscale>
<asrwt>0</asrwt>
<pdfrwt beam="1">  1       21 0.44365391E-02 0.30000000E+03</pdfrwt>
<pdfrwt beam="2">0</pdfrwt>
<totfact> 0.35298270E+04</totfact>
</mgrwt>
</event>
<event>
 6    1  0.1280499E-001  0.3000000E+03  0.7818608E-02  0.1093470E+00
         21   -1    0    0  501  502  0.00000000000E+00  0.00000000000E+00  0.28386690355E+01  0.28386690355E+01  0.00000000000E+00 0. -1.
         13   -1    0    0    0    0 -0.00000000000E+00 -0.00000000000E+00 -0.10000000000E+04  0.10000000000E+04  0.00000000000E+00 0.  1.
    9000005    2    1    2  501    0  0.41814865255E+02  0.12284669264E+02 -0.21261864520E+03  0.21708640410E+03  0.45191266562E+01 0.  0.
         13    1    3    3    0    0  0.25164063707E+02  0.96835068468E+01 -0.13070139854E+03  0.13345357240E+03  0.00000000000E+00 0.  1.
          3    1    3    3  501    0  0.16650801549E+02  0.26011624176E+01 -0.81917246656E+02  0.83632831698E+02  0.00000000000E+00 0.  1.
         -3    1    1    2    0  502 -0.41814865255E+02 -0.12284669264E+02 -0.78454268577E+03  0.78575226493E+03  0.00000000000E+00 0. -1.
<mgrwt>
<rscale>  1 0.30000000E+03</rscale>
<asrwt>0</asrwt>
<pdfrwt beam="1">  1       21 0.10322455E-01 0.30000000E+03</pdfrwt>
<pdfrwt beam="2">0</pdfrwt>
<totfact> 0.81284493E+03</totfact>
</mgrwt>
</event>
<event>
 6    1  0.1280499E-001  0.3000000E+03  0.7818608E-02  0.1093470E+00
         21   -1    0    0  501  502  0.00000000000E+00  0.00000000000E+00  0.13508203906E+01  0.13508203906E+01  0.00000000000E+00 0. -1.
         13   -1    0    0    0    0 -0.00000000000E+00 -0.00000000000E+00 -0.10000000000E+04  0.10000000000E+04  0.00000000000E+00 0.  1.
    9000005    2    1    2  501    0  0.12640097643E+01 -0.33287543332E+02 -0.70936526853E+03  0.71015528562E+03  0.34332540702E+01 0.  0.
         13    1    3    3    0    0  0.13300331663E+00 -0.21402890507E+02 -0.48629790543E+03  0.48676868659E+03  0.00000000000E+00 0.  1.
          1    1    3    3  501    0  0.11310064477E+01 -0.11884652825E+02 -0.22306736310E+03  0.22338659903E+03  0.00000000000E+00 0.  1.
         -3    1    1    2    0  502 -0.12640097643E+01  0.33287543332E+02 -0.28928391108E+03  0.29119553477E+03  0.00000000000E+00 0. -1.
<mgrwt>
<rscale>  1 0.30000000E+03</rscale>
<asrwt>0</asrwt>
<pdfrwt beam="1">  1       21 0.49120845E-02 0.30000000E+03</pdfrwt>
<pdfrwt beam="2">0</pdfrwt>
<totfact> 0.29688659E+04</totfact>
</mgrwt>
</event>
<event>
 6    1  0.1280499E-001  0.3000000E+03  0.7818608E-02  0.1093470E+00
         21   -1    0    0  501  502  0.00000000000E+00  0.00000000000E+00  0.59743087963E+01  0.59743087963E+01  0.00000000000E+00 0. -1.
         13   -1    0    0    0    0 -0.00000000000E+00 -0.00000000000E+00 -0.10000000000E+04  0.10000000000E+04  0.00000000000E+00 0.  1.
    9000005    2    1    2  501    0  0.64172057091E+02  0.17099314967E+02 -0.75367129862E+03  0.75661377961E+03  0.57918600778E+01 0.  0.
         13    1    3    3    0    0  0.61102778928E+02  0.15483161041E+02 -0.72451681210E+03  0.72725366199E+03  0.00000000000E+00 0.  1.
          3    1    3    3  501    0  0.30692781630E+01  0.16161539265E+01 -0.29154486521E+02  0.29360117613E+02  0.00000000000E+00 0.  1.
         -1    1    1    2    0  502 -0.64172057091E+02 -0.17099314967E+02 -0.24035439258E+03  0.24936052919E+03  0.00000000000E+00 0. -1.
<mgrwt>
<rscale>  1 0.30000000E+03</rscale>
<asrwt>0</asrwt>
<pdfrwt beam="1">  1       21 0.21724805E-01 0.30000000E+03</pdfrwt>
<pdfrwt beam="2">0</pdfrwt>
<totfact> 0.20475917E+03</totfact>
</mgrwt>
</event>
<event>
 6    1  0.1280499E-001  0.3000000E+03  0.7818608E-02  0.1093470E+00
         21   -1    0    0  501  502  0.00000000000E+00  0.00000000000E+00  0.12567724879E+02  0.12567724879E+02  0.00000000000E+00 0. -1.
         13   -1    0    0    0    0 -0.00000000000E+00 -0.00000000000E+00 -0.10000000000E+04  0.10000000000E+04  0.00000000000E+00 0.  1.
    9000005    2    1    2  501    0 -0.42279149879E+02 -0.46417499644E+02 -0.91312384290E+03  0.91528538380E+03  0.31734096288E+01 0.  0.
         13    1    3    3    0    0 -0.41968593693E+02 -0.46245764571E+02 -0.90393171314E+03  0.90608640626E+03  0.00000000000E+00 0.  1.
          3    1    3    3  501    0 -0.31055618577E+00 -0.17173507254E+00 -0.91921297630E+01  0.91989775334E+01  0.00000000000E+00 0.  1.
         -3    1    1    2    0  502  0.42279149879E+02  0.46417499644E+02 -0.74308432219E+02  0.97282341083E+02  0.00000000000E+00 0. -1.
<mgrwt>
<rscale>  1 0.30000000E+03</rscale>
<asrwt>0</asrwt>
<pdfrwt beam="1">  1       21 0.45700914E-01 0.30000000E+03</pdfrwt>
<pdfrwt beam="2">0</pdfrwt>
<totfact> 0.45583053E+02</totfact>
</mgrwt>
</event>
<event>
 6    1  0.1280499E-001  0.3000000E+03  0.7818608E-02  0.1093470E+00
         21   -1    0    0  501  502  0.00000000000E+00  0.00000000000E+00  0.21714356586E+01  0.21714356586E+01  0.00000000000E+00 0. -1.
         13   -1    0    0    0    0 -0.00000000000E+00 -0.00000000000E+00 -0.10000000000E+04  0.10000000000E+04  0.00000000000E+00 0.  1.
    9000005    2    1    2  501    0  0.19570560783E+02  0.30702508869E+02 -0.81127791644E+03  0.81210093523E+03  0.32280644814E+01 0.  0.
         13    1    3    3    0    0  0.13163416995E+02  0.19530967257E+02 -0.55528420571E+03  0.55578348603E+03  0.00000000000E+00 0.  1.
          1    1    3    3  501    0  0.64071437882E+01  0.11171541612E+02 -0.25599371073E+03  0.25631744920E+03  0.00000000000E+00 0.  1.
         -3    1    1    2    0  502 -0.19570560783E+02 -0.30702508869E+02 -0.18655064790E+03  0.19007050043E+03  0.00000000000E+00 0. -1.
<mgrwt>
<rscale>  1 0.30000000E+03</rscale>
<asrwt>0</asrwt>
<pdfrwt beam="1">  1       21 0.78961463E-02 0.30000000E+03</pdfrwt>
<pdfrwt beam="2">0</pdfrwt>
<totfact> 0.13070325E+04</totfact>
</mgrwt>
</event>
<event>
 6    1  0.1280499E-001  0.3000000E+03  0.7818608E-02  0.1093470E+00
         21   -1    0    0  501  502  0.00000000000E+00  0.00000000000E+00  0.21137783565E+01  0.21137783565E+01  0.00000000000E+00 0. -1.
         13   -1    0    0    0    0 -0.00000000000E+00 -0.00000000000E+00 -0.10000000000E+04  0.10000000000E+04  0.00000000000E+00 0.  1.
    9000005    2    1    2  501    0 -0.33205942546E+02  0.22347077018E+02 -0.74472062676E+03  0.74580372216E+03  0.35147692958E+01 0.  0.
         13    1    3    3    0    0 -0.37636715964E+01  0.17549937639E+01 -0.94504938642E+02  0.94596134460E+02  0.00000000000E+00 0.  1.
          3    1    3    3  501    0 -0.29442270950E+02  0.20592083254E+02 -0.65021568812E+03  0.65120758770E+03  0.00000000000E+00 0.  1.
         -1    1    1    2    0  502  0.33205942546E+02 -0.22347077018E+02 -0.25316559489E+03  0.25631005619E+03  0.00000000000E+00 0. -1.
<mgrwt>
<rscale>  1 0.30000000E+03</rscale>
<asrwt>0</asrwt>
<pdfrwt beam="1">  1       21 0.76864830E-02 0.30000000E+03</pdfrwt>
<pdfrwt beam="2">0</pdfrwt>
<totfact> 0.13702063E+04</totfact>
</mgrwt>
</event>
<event>
 6    1  0.1280499E-001  0.3000000E+03  0.7818608E-02  0.1093470E+00
         21   -1    0    0  501  502  0.00000000000E+00  0.00000000000E+00  0.11291936216E+01  0.11291936216E+01  0.00000000000E+00 0. -1.
         13   -1    0    0    0    0 -0.00000000000E+00 -0.00000000000E+00 -0.10000000000E+04  0.10000000000E+04  0.00000000000E+00 0.  1.
    9000005    2    1    2  501    0 -0.23250010735E+02  0.22402195017E+02 -0.63154959150E+03  0.63239175826E+03  0.46934043656E+01 0.  0.
         13    1    3    3    0    0 -0.20265684364E+02  0.17017542611E+02 -0.50735107167E+03  0.50804075097E+03  0.00000000000E+00 0.  1.
          3    1    3    3  501    0 -0.29843263708E+01  0.53846524060E+01 -0.12419851984E+03  0.12435100729E+03  0.00000000000E+00 0.  1.
         -1    1    1    2    0  502  0.23250010735E+02 -0.22402195017E+02 -0.36732121487E+03  0.36873743536E+03  0.00000000000E+00 0. -1.
<mgrwt>
<rscale>  1 0.30000000E+03</rscale>
<asrwt>0</asrwt>
<pdfrwt beam="1">  1       21 0.41061673E-02 0.30000000E+03</pdfrwt>
<pdfrwt beam="2">0</pdfrwt>
<totfact> 0.40231533E+04</totfact>
</mgrwt>
</event>
<event>
 6    1  0.1280499E-001  0.3000000E+03  0.7818608E-02  0.1093470E+00
         21   -1    0    0  501  502  0.00000000000E+00  0.00000000000E+00  0.55862771684E+01  0.55862771684E+01  0.00000000000E+00 0. -1.
         13   -1    0    0    0    0 -0.00000000000E+00 -0.00000000000E+00 -0.10000000000E+04  0.10000000000E+04  0.00000000000E+00 0.  1.
    9000005    2    1    2  501    0  0.35691983247E+02  0.23496837413E+02 -0.90966578094E+03  0.91067456719E+03  0.32117398210E+01 0.  0.
         13    1    3    3    0    0  0.34096782675E+01  0.13184907990E+01 -0.87738097397E+02  0.87814224694E+02  0.00000000000E+00 0.  1.
          3    1    3    3  501    0  0.32282304980E+02  0.22178346614E+02 -0.82192768355E+03  0.82286034250E+03  0.00000000000E+00 0.  1.
         -1    1    1    2    0  502 -0.35691983247E+02 -0.23496837413E+02 -0.84747941887E+02  0.94911709976E+02  0.00000000000E+00 0. -1.
<mgrwt>
<rscale>  1 0.30000000E+03</rscale>
<asrwt>0</asrwt>
<pdfrwt beam="1">  1       21 0.20313778E-01 0.30000000E+03</pdfrwt>
<pdfrwt beam="2">0</pdfrwt>
<totfact> 0.23289200E+03</totfact>
</mgrwt>
</event>
<event>
 6    1  0.1280499E-001  0.3000000E+03  0.7818608E-02  0.1093470E+00
         21   -1    0    0  501  502  0.00000000000E+00  0.00000000000E+00  0.17060306173E+01  0.17060306173E+01  0.00000000000E+00 0. -1.
         13   -1    0    0    0    0 -0.00000000000E+00 -0.00000000000E+00 -0.10000000000E+04  0.10000000000E+04  0.00000000000E+00 0.  1.
    9000005    2    1    2  501    0  0.30503900157E+02  0.16290420165E+01 -0.83589330739E+03  0.83645737943E+03  0.31913265271E+01 0.  0.
         13    1    3    3    0    0  0.21081100993E+02  0.17031387320E+01 -0.53982844606E+03  0.54024259798E+03  0.00000000000E+00 0.  1.
          1    1    3    3  501    0  0.94227991644E+01 -0.74096715550E-01 -0.29606486133E+03  0.29621478145E+03  0.00000000000E+00 0.  1.
         -1    1    1    2    0  502 -0.30503900157E+02 -0.16290420165E+01 -0.16240066200E+03  0.16524865119E+03  0.00000000000E+00 0. -1.
<mgrwt>
<rscale>  1 0.30000000E+03</rscale>
<asrwt>0</asrwt>
<pdfrwt beam="1">  1       21 0.62037608E-02 0.30000000E+03</pdfrwt>
<pdfrwt beam="2">0</pdfrwt>
<totfact> 0.19891497E+04</totfact>
</mgrwt>
</event>
<event>
 6    1  0.1280499E-001  0.3000000E+03  0.7818608E-02  0.1093470E+00
         21   -1    0    0  501  502  0.00000000000E+00  0.00000000000E+00  0.13837650416E+01  0.13837650416E+01  0.00000000000E+00 0. -1.
         13   -1    0    0    0    0 -0.00000000000E+00 -0.00000000000E+00 -0.10000000000E+04  0.10000000000E+04  0.00000000000E+00 0.  1.
    9000005    2    1    2  501    0 -0.33041513979E+02  0.88740785453E+00 -0.72800151653E+03  0.72875791343E+03  0.30592765555E+01 0.  0.
         13    1    3    3    0    0 -0.45504215864E+01 -0.90464158891E+00 -0.96405653258E+02  0.96517224852E+02  0.00000000000E+00 0.  1.
          1    1    3    3  501    0 -0.28491092393E+02  0.17920494434E+01 -0.63159586327E+03  0.63224068858E+03  0.00000000000E+00 0.  1.
         -3    1    1    2    0  502  0.33041513979E+02 -0.88740785453E+00 -0.27061471843E+03  0.27262585161E+03  0.00000000000E+00 0. -1.
<mgrwt>
<rscale>  1 0.30000000E+03</rscale>
<asrwt>0</asrwt>
<pdfrwt beam="1">  1       21 0.50318835E-02 0.30000000E+03</pdfrwt>
<pdfrwt beam="2">0</pdfrwt>
<totfact> 0.28494164E+04</totfact>
</mgrwt>
</event>
<event>
 6    1  0.1280499E-001  0.3000000E+03  0.7818608E-02  0.1093470E+00
         21   -1    0    0  501  502  0.00000000000E+00  0.00000000000E+00  0.16470637124E+01  0.16470637124E+01  0.00000000000E+00 0. -1.
         13   -1    0    0    0    0 -0.00000000000E+00 -0.00000000000E+00 -0.10000000000E+04  0.10000000000E+04  0.00000000000E+00 0.  1.
    9000005    2    1    2  501    0  0.25055569535E+02 -0.28600002421E+02 -0.67013123895E+03  0.67123032033E+03  0.53407689054E+01 0.  0.
         13    1    3    3    0    0  0.93397794704E+00 -0.20816108411E+01 -0.63353363812E+02  0.63394432916E+02  0.00000000000E+00 0.  1.
          3    1    3    3  501    0  0.24121591588E+02 -0.26518391580E+02 -0.60677787514E+03  0.60783588741E+03  0.00000000000E+00 0.  1.
         -3    1    1    2    0  502 -0.25055569535E+02  0.28600002421E+02 -0.32822169734E+03  0.33041674338E+03  0.00000000000E+00 0. -1.
<mgrwt>
<rscale>  1 0.30000000E+03</rscale>
<asrwt>0</asrwt>
<pdfrwt beam="1">  1       21 0.59893352E-02 0.30000000E+03</pdfrwt>
<pdfrwt beam="2">0</pdfrwt>
<totfact> 0.21136415E+04</totfact>
</mgrwt>
</event>
<event>
 6    1  0.1280499E-001  0.3000000E+03  0.7818608E-02  0.1093470E+00
         21   -1    0    0  501  502  0.00000000000E+00  0.00000000000E+00  0.49990479467E+01  0.49990479467E+01  0.00000000000E+00 0. -1.
         13   -1    0    0    0    0 -0.00000000000E+00 -0.00000000000E+00 -0.10000000000E+04  0.10000000000E+04  0.00000000000E+00 0.  1.
    9000005    2    1    2  501    0 -0.44324747082E+02 -0.43454628528E+02 -0.73776783608E+03  0.74038260118E+03  0.34681747861E+01 0.  0.
         13    1    3    3    0    0 -0.15177949741E+02 -0.13189573453E+02 -0.25188486947E+03  0.25268621346E+03  0.00000000000E+00 0.  1.
          1    1    3    3  501    0 -0.29146797340E+02 -0.30265055075E+02 -0.48588296661E+03  0.48769638772E+03  0.00000000000E+00 0.  1.
         -1    1    1    2    0  502  0.44324747082E+02  0.43454628528E+02 -0.25723311598E+03  0.26461644677E+03  0.00000000000E+00 0. -1.
<mgrwt>
<rscale>  1 0.30000000E+03</rscale>
<asrwt>0</asrwt>
<pdfrwt beam="1">  1       21 0.18178395E-01 0.30000000E+03</pdfrwt>
<pdfrwt beam="2">0</pdfrwt>
<totfact> 0.28756117E+03</totfact>
</mgrwt>
</event>
<event>
 6    1  0.1280499E-001  0.3000000E+03  0.7818608E-02  0.1093470E+00
         21   -1    0    0  501  502  0.00000000000E+00  0.00000000000E+00  0.17102728959E+01  0.17102728959E+01  0.00000000000E+00 0. -1.
         13   -1    0    0    0    0 -0.00000000000E+00 -0.00000000000E+00 -0.10000000000E+04  0.10000000000E+04  0.00000000000E+00 0.  1.
    9000005    2    1    2  501    0  0.33782425992E+02  0.12601202787E+02 -0.73871935271E+03  0.73964764320E+03  0.85036117213E+01 0.  0.
         13    1    3    3    0    0  0.14831328806E+02  0.39194993102E+01 -0.23741681538E+03  0.23791190600E+03  0.00000000000E+00 0.  1.
          3    1    3    3  501    0  0.18951097187E+02  0.86817034770E+01 -0.50130253733E+03  0.50173573721E+03  0.00000000000E+00 0.  1.
         -1    1    1    2    0  502 -0.33782425992E+02 -0.12601202787E+02 -0.25957037440E+03  0.26206262969E+03  0.00000000000E+00 0. -1.
<mgrwt>
<rscale>  1 0.30000000E+03</rscale>
<asrwt>0</asrwt>
<pdfrwt beam="1">  1       21 0.62191873E-02 0.30000000E+03</pdfrwt>
<pdfrwt beam="2">0</pdfrwt>
<totfact> 0.19806352E+04</totfact>
</mgrwt>
</event>
<event>
 6    1  0.1280499E-001  0.3000000E+03  0.7818608E-02  0.1093470E+00
         21   -1    0    0  501  502  0.00000000000E+00  0.00000000000E+00  0.17491840928E+01  0.17491840928E+01  0.00000000000E+00 0. -1.
         13   -1    0    0    0    0 -0.00000000000E+00 -0.00000000000E+00 -0.10000000000E+04  0.10000000000E+04  0.00000000000E+00 0.  1.
    9000005    2    1    2  501    0 -0.41014938130E+02 -0.48819608177E+01 -0.57361805435E+03  0.57511228827E+03  0.32269412087E+01 0.  0.
         13    1    3    3    0    0 -0.36264472131E+02 -0.47976820378E+01 -0.49393239390E+03  0.49528510924E+03  0.00000000000E+00 0.  1.
          3    1    3    3  501    0 -0.47504659992E+01 -0.84278779901E-01 -0.79685660453E+02  0.79827179031E+02  0.00000000000E+00 0.  1.
         -3    1    1    2    0  502  0.41014938130E+02  0.48819608177E+01 -0.42463276156E+03  0.42663689582E+03  0.00000000000E+00 0. -1.
<mgrwt>
<rscale>  1 0.30000000E+03</rscale>
<asrwt>0</asrwt>
<pdfrwt beam="1">  1       21 0.63606828E-02 0.30000000E+03</pdfrwt>
<pdfrwt beam="2">0</pdfrwt>
<totfact> 0.19051047E+04</totfact>
</mgrwt>
</event>
<event>
 6    1  0.1280499E-001  0.3000000E+03  0.7818608E-02  0.1093470E+00
         21   -1    0    0  501  502  0.00000000000E+00  0.00000000000E+00  0.12192376289E+01  0.12192376289E+01  0.00000000000E+00 0. -1.
         13   -1    0    0    0    0 -0.00000000000E+00 -0.00000000000E+00 -0.10000000000E+04  0.10000000000E+04  0.00000000000E+00 0.  1.
    9000005    2    1    2  501    0  0.31057994054E+02  0.96941360087E+00 -0.72634239082E+03  0.72701456033E+03  0.33709756614E+01 0.  0.
         13    1    3    3    0    0  0.22187026692E+02 -0.52851270852E+00 -0.53752170818E+03  0.53797967457E+03  0.00000000000E+00 0.  1.
          3    1    3    3  501    0  0.88709673622E+01  0.14979263094E+01 -0.18882068264E+03  0.18903488576E+03  0.00000000000E+00 0.  1.
         -1    1    1    2    0  502 -0.31057994054E+02 -0.96941360087E+00 -0.27243837155E+03  0.27420467730E+03  0.00000000000E+00 0. -1.
<mgrwt>
<rscale>  1 0.30000000E+03</rscale>
<asrwt>0</asrwt>
<pdfrwt beam="1">  1       21 0.44336007E-02 0.30000000E+03</pdfrwt>
<pdfrwt beam="2">0</pdfrwt>
<totfact> 0.35337931E+04</totfact>
</mgrwt>
</event>
<event>
 6    1  0.1280499E-001  0.3000000E+03  0.7818608E-02  0.1093470E+00
         21   -1    0    0  501  502  0.00000000000E+00  0.00000000000E+00  0.12941775754E+01  0.12941775754E+01  0.00000000000E+00 0. -1.
         13   -1    0    0    0    0 -0.00000000000E+00 -0.00000000000E+00 -0.10000000000E+04  0.10000000000E+04  0.00000000000E+00 0.  1.
    9000005    2    1    2  501    0  0.21856977430E+01  0.35607226980E+02 -0.55800631795E+03  0.55915313093E+03  0.29190862600E+01 0.  0.
         13    1    3    3    0    0  0.16500834985E+01  0.25646804555E+02 -0.38072156104E+03  0.38158798252E+03  0.00000000000E+00 0.  1.
          1    1    3    3  501    0  0.53561424452E+00  0.99604224250E+01 -0.17728475691E+03  0.17756514841E+03  0.00000000000E+00 0.  1.
         -3    1    1    2    0  502 -0.21856977430E+01 -0.35607226980E+02 -0.44069950447E+03  0.44214104665E+03  0.00000000000E+00 0. -1.
<mgrwt>
<rscale>  1 0.30000000E+03</rscale>
<asrwt>0</asrwt>
<pdfrwt beam="1">  1       21 0.47061102E-02 0.30000000E+03</pdfrwt>
<pdfrwt beam="2">0</pdfrwt>
<totfact> 0.31933714E+04</totfact>
</mgrwt>
</event>
<event>
 6    1  0.1280499E-001  0.3000000E+03  0.7818608E-02  0.1093470E+00
         21   -1    0    0  501  502  0.00000000000E+00  0.00000000000E+00  0.16135070308E+01  0.16135070308E+01  0.00000000000E+00 0. -1.
         13   -1    0    0    0    0 -0.00000000000E+00 -0.00000000000E+00 -0.10000000000E+04  0.10000000000E+04  0.00000000000E+00 0.  1.
    9000005    2    1    2  501    0  0.21619705293E+02  0.22494174749E+02 -0.81417011131E+03  0.81477380347E+03  0.31592907255E+01 0.  0.
         13    1    3    3    0    0  0.70784426768E+01  0.84050773860E+01 -0.32181127281E+03  0.32199882762E+03  0.00000000000E+00 0.  1.
          3    1    3    3  501    0  0.14541262616E+02  0.14089097363E+02 -0.49235883850E+03  0.49277497586E+03  0.00000000000E+00 0.  1.
         -3    1    1    2    0  502 -0.21619705293E+02 -0.22494174749E+02 -0.18421638166E+03  0.18683970356E+03  0.00000000000E+00 0. -1.
<mgrwt>
<rscale>  1 0.30000000E+03</rscale>
<asrwt>0</asrwt>
<pdfrwt beam="1">  1       21 0.58673107E-02 0.30000000E+03</pdfrwt>
<pdfrwt beam="2">0</pdfrwt>
<totfact> 0.21899880E+04</totfact>
</mgrwt>
</event>
<event>
 6    1  0.1280499E-001  0.3000000E+03  0.7818608E-02  0.1093470E+00
         21   -1    0    0  501  502  0.00000000000E+00  0.00000000000E+00  0.42132442150E+01  0.42132442150E+01  0.00000000000E+00 0. -1.
         13   -1    0    0    0    0 -0.00000000000E+00 -0.00000000000E+00 -0.10000000000E+04  0.10000000000E+04  0.00000000000E+00 0.  1.
    9000005    2    1    2  501    0 -0.38521445887E+02 -0.52072023199E+02 -0.52510349324E+03  0.52909417384E+03  0.34012918428E+01 0.  0.
         13    1    3    3    0    0 -0.32810686330E+02 -0.42518136402E+02 -0.42933434750E+03  0.43268038436E+03  0.00000000000E+00 0.  1.
          3    1    3    3  501    0 -0.57107595565E+01 -0.95538867972E+01 -0.95769145739E+02  0.96413789487E+02  0.00000000000E+00 0.  1.
         -1    1    1    2    0  502  0.38521445887E+02  0.52072023199E+02 -0.47068326254E+03  0.47511907037E+03  0.00000000000E+00 0. -1.
<mgrwt>
<rscale>  1 0.30000000E+03</rscale>
<asrwt>0</asrwt>
<pdfrwt beam="1">  1       21 0.15320920E-01 0.30000000E+03</pdfrwt>
<pdfrwt beam="2">0</pdfrwt>
<totfact> 0.39596035E+03</totfact>
</mgrwt>
</event>
<event>
 6    1  0.1280499E-001  0.3000000E+03  0.7818608E-02  0.1093470E+00
         21   -1    0    0  501  502  0.00000000000E+00  0.00000000000E+00  0.17049315563E+01  0.17049315563E+01  0.00000000000E+00 0. -1.
         13   -1    0    0    0    0 -0.00000000000E+00 -0.00000000000E+00 -0.10000000000E+04  0.10000000000E+04  0.00000000000E+00 0.  1.
    9000005    2    1    2  501    0  0.74038868212E+01  0.34731099931E+02 -0.24680769558E+03  0.24937897932E+03  0.38431607012E+01 0.  0.
         13    1    3    3    0    0  0.77278357501E+01  0.32704750360E+02 -0.23565414323E+03  0.23803822249E+03  0.00000000000E+00 0.  1.
          1    1    3    3  501    0 -0.32394892884E+00  0.20263495711E+01 -0.11153552347E+02  0.11340756829E+02  0.00000000000E+00 0.  1.
         -1    1    1    2    0  502 -0.74038868212E+01 -0.34731099931E+02 -0.75148737286E+03  0.75232595224E+03  0.00000000000E+00 0. -1.
<mgrwt>
<rscale>  1 0.30000000E+03</rscale>
<asrwt>0</asrwt>
<pdfrwt beam="1">  1       21 0.61997642E-02 0.30000000E+03</pdfrwt>
<pdfrwt beam="2">0</pdfrwt>
<totfact> 0.19913649E+04</totfact>
</mgrwt>
</event>
<event>
 6    1  0.1280499E-001  0.3000000E+03  0.7818608E-02  0.1093470E+00
         21   -1    0    0  501  502  0.00000000000E+00  0.00000000000E+00  0.18749686774E+01  0.18749686774E+01  0.00000000000E+00 0. -1.
         13   -1    0    0    0    0 -0.00000000000E+00 -0.00000000000E+00 -0.10000000000E+04  0.10000000000E+04  0.00000000000E+00 0.  1.
    9000005    2    1    2  501    0 -0.12307348685E+02 -0.39527360440E+02 -0.35580640458E+03  0.35822358686E+03  0.34724037215E+01 0.  0.
         13    1    3    3    0    0 -0.47922080455E+01 -0.16644907919E+02 -0.13461818242E+03  0.13572793837E+03  0.00000000000E+00 0.  1.
          1    1    3    3  501    0 -0.75151406396E+01 -0.22882452521E+02 -0.22118822216E+03  0.22249564848E+03  0.00000000000E+00 0.  1.
         -3    1    1    2    0  502  0.12307348685E+02  0.39527360440E+02 -0.64231862674E+03  0.64365138182E+03  0.00000000000E+00 0. -1.
<mgrwt>
<rscale>  1 0.30000000E+03</rscale>
<asrwt>0</asrwt>
<pdfrwt beam="1">  1       21 0.68180823E-02 0.30000000E+03</pdfrwt>
<pdfrwt beam="2">0</pdfrwt>
<totfact> 0.16891116E+04</totfact>
</mgrwt>
</event>
<event>
 6    1  0.1280499E-001  0.3000000E+03  0.7818608E-02  0.1093470E+00
         21   -1    0    0  501  502  0.00000000000E+00  0.00000000000E+00  0.12027163777E+01  0.12027163777E+01  0.00000000000E+00 0. -1.
         13   -1    0    0    0    0 -0.00000000000E+00 -0.00000000000E+00 -0.10000000000E+04  0.10000000000E+04  0.00000000000E+00 0.  1.
    9000005    2    1    2  501    0 -0.30801260988E+02  0.82198704143E+01 -0.69162311992E+03  0.69237873610E+03  0.54304924402E+01 0.  0.
         13    1    3    3    0    0 -0.52656875516E+01  0.36148426566E+01 -0.14094257263E+03  0.14108721888E+03  0.00000000000E+00 0.  1.
          1    1    3    3  501    0 -0.25535573436E+02  0.46050277577E+01 -0.55068054729E+03  0.55129151722E+03  0.00000000000E+00 0.  1.
         -3    1    1    2    0  502  0.30801260988E+02 -0.82198704143E+01 -0.30717416370E+03  0.30882398028E+03  0.00000000000E+00 0. -1.
<mgrwt>
<rscale>  1 0.30000000E+03</rscale>
<asrwt>0</asrwt>
<pdfrwt beam="1">  1       21 0.43735233E-02 0.30000000E+03</pdfrwt>
<pdfrwt beam="2">0</pdfrwt>
<totfact> 0.36164186E+04</totfact>
</mgrwt>
</event>
<event>
 6    1  0.1280499E-001  0.3000000E+03  0.7818608E-02  0.1093470E+00
         21   -1    0    0  501  502  0.00000000000E+00  0.00000000000E+00  0.66924523267E+01  0.66924523267E+01  0.00000000000E+00 0. -1.
         13   -1    0    0    0    0 -0.00000000000E+00 -0.00000000000E+00 -0.10000000000E+04  0.10000000000E+04  0.00000000000E+00 0.  1.
    9000005    2    1    2  501    0  0.73733636861E+02  0.31152871537E+02 -0.59979479123E+03  0.60512123810E+03  0.32818602204E+01 0.  0.
         13    1    3    3    0    0  0.15302494668E+01  0.54960499488E+00 -0.91850192189E+01  0.93278243515E+01  0.00000000000E+00 0.  1.
          3    1    3    3  501    0  0.72203387394E+02  0.30603266542E+02 -0.59060977201E+03  0.59579341375E+03  0.00000000000E+00 0.  1.
         -3    1    1    2    0  502 -0.73733636861E+02 -0.31152871537E+02 -0.39351275644E+03  0.40157121422E+03  0.00000000000E+00 0. -1.
<mgrwt>
<rscale>  1 0.30000000E+03</rscale>
<asrwt>0</asrwt>
<pdfrwt beam="1">  1       21 0.24336242E-01 0.30000000E+03</pdfrwt>
<pdfrwt beam="2">0</pdfrwt>
<totfact> 0.16437628E+03</totfact>
</mgrwt>
</event>
<event>
 6    1  0.1280499E-001  0.3000000E+03  0.7818608E-02  0.1093470E+00
         21   -1    0    0  501  502  0.00000000000E+00  0.00000000000E+00  0.12228971031E+01  0.12228971031E+01  0.00000000000E+00 0. -1.
         13   -1    0    0    0    0 -0.00000000000E+00 -0.00000000000E+00 -0.10000000000E+04  0.10000000000E+04  0.00000000000E+00 0.  1.
    9000005    2    1    2  501    0  0.16241755852E+02 -0.30755740247E+02 -0.46217157084E+03  0.46349135885E+03  0.34595737244E+01 0.  0.
         13    1    3    3    0    0  0.45938420537E+01 -0.96405920660E+01 -0.12230448868E+03  0.12276983486E+03  0.00000000000E+00 0.  1.
          1    1    3    3  501    0  0.11647913799E+02 -0.21115148182E+02 -0.33986708216E+03  0.34072152399E+03  0.00000000000E+00 0.  1.
         -1    1    1    2    0  502 -0.16241755852E+02  0.30755740247E+02 -0.53660553206E+03  0.53773153825E+03  0.00000000000E+00 0. -1.
<mgrwt>
<rscale>  1 0.30000000E+03</rscale>
<asrwt>0</asrwt>
<pdfrwt beam="1">  1       21 0.44469079E-02 0.30000000E+03</pdfrwt>
<pdfrwt beam="2">0</pdfrwt>
<totfact> 0.35158862E+04</totfact>
</mgrwt>
</event>
<event>
 6    1  0.1280499E-001  0.3000000E+03  0.7818608E-02  0.1093470E+00
         21   -1    0    0  501  502  0.00000000000E+00  0.00000000000E+00  0.14621822948E+01  0.14621822948E+01  0.00000000000E+00 0. -1.
         13   -1    0    0    0    0 -0.00000000000E+00 -0.00000000000E+00 -0.10000000000E+04  0.10000000000E+04  0.00000000000E+00 0.  1.
    9000005    2    1    2  501    0  0.17024214574E+02  0.31204927958E+02 -0.68225486862E+03  0.68318796830E+03  0.32438967494E+01 0.  0.
         13    1    3    3    0    0  0.13705832691E+02  0.22131058253E+02 -0.50029905496E+03  0.50097582575E+03  0.00000000000E+00 0.  1.
          1    1    3    3  501    0  0.33183818833E+01  0.90738697045E+01 -0.18195581366E+03  0.18221214256E+03  0.00000000000E+00 0.  1.
         -1    1    1    2    0  502 -0.17024214574E+02 -0.31204927958E+02 -0.31628294908E+03  0.31827421399E+03  0.00000000000E+00 0. -1.
<mgrwt>
<rscale>  1 0.30000000E+03</rscale>
<asrwt>0</asrwt>
<pdfrwt beam="1">  1       21 0.53170377E-02 0.30000000E+03</pdfrwt>
<pdfrwt beam="2">0</pdfrwt>
<totfact> 0.25934098E+04</totfact>
</mgrwt>
</event>
<event>
 6    1  0.1280499E-001  0.3000000E+03  0.7818608E-02  0.1093470E+00
         21   -1    0    0  501  502  0.00000000000E+00  0.00000000000E+00  0.16733292902E+01  0.16733292902E+01  0.00000000000E+00 0. -1.
         13   -1    0    0    0    0 -0.00000000000E+00 -0.00000000000E+00 -0.10000000000E+04  0.10000000000E+04  0.00000000000E+00 0.  1.
    9000005    2    1    2  501    0  0.13605861460E+02  0.27674302018E+02 -0.82784069966E+03  0.82842075995E+03  0.31217053260E+01 0.  0.
         13    1    3    3    0    0  0.11057427842E+02  0.24084921591E+02 -0.73049693457E+03  0.73097751099E+03  0.00000000000E+00 0.  1.
          3    1    3    3  501    0  0.25484336177E+01  0.35893804269E+01 -0.97343765091E+02  0.97443248960E+02  0.00000000000E+00 0.  1.
         -3    1    1    2    0  502 -0.13605861460E+02 -0.27674302018E+02 -0.17048597105E+03  0.17325256934E+03  0.00000000000E+00 0. -1.
<mgrwt>
<rscale>  1 0.30000000E+03</rscale>
<asrwt>0</asrwt>
<pdfrwt beam="1">  1       21 0.60848466E-02 0.30000000E+03</pdfrwt>
<pdfrwt beam="2">0</pdfrwt>
<totfact> 0.20567350E+04</totfact>
</mgrwt>
</event>
<event>
 6    1  0.1280499E-001  0.3000000E+03  0.7818608E-02  0.1093470E+00
         21   -1    0    0  501  502  0.00000000000E+00  0.00000000000E+00  0.35747156114E+01  0.35747156114E+01  0.00000000000E+00 0. -1.
         13   -1    0    0    0    0 -0.00000000000E+00 -0.00000000000E+00 -0.10000000000E+04  0.10000000000E+04  0.00000000000E+00 0.  1.
    9000005    2    1    2  501    0  0.33244636034E+02  0.34257343087E+02 -0.80005233897E+03  0.80148289224E+03  0.35085730017E+01 0.  0.
         13    1    3    3    0    0  0.24613257612E+02  0.27443299209E+02 -0.61159328653E+03  0.61270326851E+03  0.00000000000E+00 0.  1.
          3    1    3    3  501    0  0.86313784218E+01  0.68140438780E+01 -0.18845905244E+03  0.18877962373E+03  0.00000000000E+00 0.  1.
         -3    1    1    2    0  502 -0.33244636034E+02 -0.34257343087E+02 -0.19637294542E+03  0.20209182337E+03  0.00000000000E+00 0. -1.
<mgrwt>
<rscale>  1 0.30000000E+03</rscale>
<asrwt>0</asrwt>
<pdfrwt beam="1">  1       21 0.12998993E-01 0.30000000E+03</pdfrwt>
<pdfrwt beam="2">0</pdfrwt>
<totfact> 0.53572819E+03</totfact>
</mgrwt>
</event>
<event>
 6    1  0.1280499E-001  0.3000000E+03  0.7818608E-02  0.1093470E+00
         21   -1    0    0  501  502  0.00000000000E+00  0.00000000000E+00  0.16344951430E+01  0.16344951430E+01  0.00000000000E+00 0. -1.
         13   -1    0    0    0    0 -0.00000000000E+00 -0.00000000000E+00 -0.10000000000E+04  0.10000000000E+04  0.00000000000E+00 0.  1.
    9000005    2    1    2  501    0  0.27090091757E+01  0.30780467442E+02 -0.81877840571E+03  0.81940853079E+03  0.88026562616E+01 0.  0.
         13    1    3    3    0    0  0.39032126230E+01  0.26936291748E+02 -0.76287964140E+03  0.76336501501E+03  0.00000000000E+00 0.  1.
          1    1    3    3  501    0 -0.11942034473E+01  0.38441756942E+01 -0.55898764319E+02  0.56043515780E+02  0.00000000000E+00 0.  1.
         -3    1    1    2    0  502 -0.27090091757E+01 -0.30780467442E+02 -0.17958709914E+03  0.18222596435E+03  0.00000000000E+00 0. -1.
<mgrwt>
<rscale>  1 0.30000000E+03</rscale>
<asrwt>0</asrwt>
<pdfrwt beam="1">  1       21 0.59436312E-02 0.30000000E+03</pdfrwt>
<pdfrwt beam="2">0</pdfrwt>
<totfact> 0.21417439E+04</totfact>
</mgrwt>
</event>
<event>
 6    1  0.1280499E-001  0.3000000E+03  0.7818608E-02  0.1093470E+00
         21   -1    0    0  501  502  0.00000000000E+00  0.00000000000E+00  0.12664100186E+01  0.12664100186E+01  0.00000000000E+00 0. -1.
         13   -1    0    0    0    0 -0.00000000000E+00 -0.00000000000E+00 -0.10000000000E+04  0.10000000000E+04  0.00000000000E+00 0.  1.
    9000005    2    1    2  501    0 -0.32403276887E+02  0.14433273011E+02 -0.52294976448E+03  0.52416208145E+03  0.33376257207E+01 0.  0.
         13    1    3    3    0    0 -0.23036019982E+02  0.11169609360E+02 -0.35786451046E+03  0.35877907720E+03  0.00000000000E+00 0.  1.
          3    1    3    3  501    0 -0.93672569056E+01  0.32636636514E+01 -0.16508525402E+03  0.16538300426E+03  0.00000000000E+00 0.  1.
         -3    1    1    2    0  502  0.32403276887E+02 -0.14433273011E+02 -0.47578382550E+03  0.47710432856E+03  0.00000000000E+00 0. -1.
<mgrwt>
<rscale>  1 0.30000000E+03</rscale>
<asrwt>0</asrwt>
<pdfrwt beam="1">  1       21 0.46051371E-02 0.30000000E+03</pdfrwt>
<pdfrwt beam="2">0</pdfrwt>
<totfact> 0.33132895E+04</totfact>
</mgrwt>
</event>
<event>
 6    1  0.1280499E-001  0.3000000E+03  0.7818608E-02  0.1093470E+00
         21   -1    0    0  501  502  0.00000000000E+00  0.00000000000E+00  0.49922064601E+01  0.49922064601E+01  0.00000000000E+00 0. -1.
         13   -1    0    0    0    0 -0.00000000000E+00 -0.00000000000E+00 -0.10000000000E+04  0.10000000000E+04  0.00000000000E+00 0.  1.
    9000005    2    1    2  501    0 -0.14383959617E+02  0.68632153587E+02 -0.43687457410E+03  0.44247113001E+03  0.20091300235E+01 0.  0.
         13    1    3    3    0    0 -0.97276765739E+01  0.43034122576E+02 -0.27050838063E+03  0.27408273822E+03  0.00000000000E+00 0.  1.
          1    1    3    3  501    0 -0.46562830432E+01  0.25598031011E+02 -0.16636619346E+03  0.16838839179E+03  0.00000000000E+00 0.  1.
         -3    1    1    2    0  502  0.14383959617E+02 -0.68632153587E+02 -0.55813321944E+03  0.56252107645E+03  0.00000000000E+00 0. -1.
<mgrwt>
<rscale>  1 0.30000000E+03</rscale>
<asrwt>0</asrwt>
<pdfrwt beam="1">  1       21 0.18153516E-01 0.30000000E+03</pdfrwt>
<pdfrwt beam="2">0</pdfrwt>
<totfact> 0.28830458E+03</totfact>
</mgrwt>
</event>
<event>
 6    1  0.1280499E-001  0.3000000E+03  0.7818608E-02  0.1093470E+00
         21   -1    0    0  501  502  0.00000000000E+00  0.00000000000E+00  0.15603701564E+01  0.15603701564E+01  0.00000000000E+00 0. -1.
         13   -1    0    0    0    0 -0.00000000000E+00 -0.00000000000E+00 -0.10000000000E+04  0.10000000000E+04  0.00000000000E+00 0.  1.
    9000005    2    1    2  501    0 -0.15943401412E+02  0.35953596509E+02 -0.50195718858E+03  0.50352255268E+03  0.52046847042E+01 0.  0.
         13    1    3    3    0    0 -0.15637044471E+02  0.31638451119E+02 -0.43830496592E+03  0.43972349482E+03  0.00000000000E+00 0.  1.
          3    1    3    3  501    0 -0.30635694093E+00  0.43151453900E+01 -0.63652222663E+02  0.63799057864E+02  0.00000000000E+00 0.  1.
         -1    1    1    2    0  502  0.15943401412E+02 -0.35953596509E+02 -0.49648244126E+03  0.49803781747E+03  0.00000000000E+00 0. -1.
<mgrwt>
<rscale>  1 0.30000000E+03</rscale>
<asrwt>0</asrwt>
<pdfrwt beam="1">  1       21 0.56740853E-02 0.30000000E+03</pdfrwt>
<pdfrwt beam="2">0</pdfrwt>
<totfact> 0.23199295E+04</totfact>
</mgrwt>
</event>
<event>
 6    1  0.1280499E-001  0.3000000E+03  0.7818608E-02  0.1093470E+00
         21   -1    0    0  501  502  0.00000000000E+00  0.00000000000E+00  0.16693088484E+01  0.16693088484E+01  0.00000000000E+00 0. -1.
         13   -1    0    0    0    0 -0.00000000000E+00 -0.00000000000E+00 -0.10000000000E+04  0.10000000000E+04  0.00000000000E+00 0.  1.
    9000005    2    1    2  501    0  0.27627316206E+02  0.21608104251E+02 -0.75512635151E+03  0.75594887911E+03  0.35668352266E+01 0.  0.
         13    1    3    3    0    0  0.25275955165E+02  0.18434401773E+02 -0.67831975744E+03  0.67904078995E+03  0.00000000000E+00 0.  1.
          1    1    3    3  501    0  0.23513610407E+01  0.31737024774E+01 -0.76806594070E+02  0.76908089163E+02  0.00000000000E+00 0.  1.
         -3    1    1    2    0  502 -0.27627316206E+02 -0.21608104251E+02 -0.24320433964E+03  0.24572042974E+03  0.00000000000E+00 0. -1.
<mgrwt>
<rscale>  1 0.30000000E+03</rscale>
<asrwt>0</asrwt>
<pdfrwt beam="1">  1       21 0.60702268E-02 0.30000000E+03</pdfrwt>
<pdfrwt beam="2">0</pdfrwt>
<totfact> 0.20652900E+04</totfact>
</mgrwt>
</event>
<event>
 6    1  0.1280499E-001  0.3000000E+03  0.7818608E-02  0.1093470E+00
         21   -1    0    0  501  502  0.00000000000E+00  0.00000000000E+00  0.12615873987E+01  0.12615873987E+01  0.00000000000E+00 0. -1.
         13   -1    0    0    0    0 -0.00000000000E+00 -0.00000000000E+00 -0.10000000000E+04  0.10000000000E+04  0.00000000000E+00 0.  1.
    9000005    2    1    2  501    0  0.33369431677E+02 -0.37924146672E+01 -0.66073794902E+03  0.66159673087E+03  0.27741022548E+01 0.  0.
         13    1    3    3    0    0  0.16500023584E+02 -0.48002431112E+00 -0.32293143787E+03  0.32335304972E+03  0.00000000000E+00 0.  1.
          3    1    3    3  501    0  0.16869408093E+02 -0.33123903560E+01 -0.33780651115E+03  0.33824368114E+03  0.00000000000E+00 0.  1.
         -3    1    1    2    0  502 -0.33369431677E+02  0.37924146672E+01 -0.33800046358E+03  0.33966485653E+03  0.00000000000E+00 0. -1.
<mgrwt>
<rscale>  1 0.30000000E+03</rscale>
<asrwt>0</asrwt>
<pdfrwt beam="1">  1       21 0.45876002E-02 0.30000000E+03</pdfrwt>
<pdfrwt beam="2">0</pdfrwt>
<totfact> 0.33348360E+04</totfact>
</mgrwt>
</event>
<event>
 6    1  0.1280499E-001  0.3000000E+03  0.7818608E-02  0.1093470E+00
         21   -1    0    0  501  502  0.00000000000E+00  0.00000000000E+00  0.10470198069E+01  0.10470198069E+01  0.00000000000E+00 0. -1.
         13   -1    0    0    0    0 -0.00000000000E+00 -0.00000000000E+00 -0.10000000000E+04  0.10000000000E+04  0.00000000000E+00 0.  1.
    9000005    2    1    2  501    0  0.75631935814E+01  0.30113405638E+02 -0.63733400629E+03  0.63809757239E+03  0.31396202264E+01 0.  0.
         13    1    3    3    0    0  0.34398818476E+01  0.79650495488E+01 -0.18044431817E+03  0.18065277956E+03  0.00000000000E+00 0.  1.
          1    1    3    3  501    0  0.41233117338E+01  0.22148356090E+02 -0.45688968812E+03  0.45744479283E+03  0.00000000000E+00 0.  1.
         -1    1    1    2    0  502 -0.75631935814E+01 -0.30113405638E+02 -0.36161897390E+03  0.36294944742E+03  0.00000000000E+00 0. -1.
<mgrwt>
<rscale>  1 0.30000000E+03</rscale>
<asrwt>0</asrwt>
<pdfrwt beam="1">  1       21 0.38073528E-02 0.30000000E+03</pdfrwt>
<pdfrwt beam="2">0</pdfrwt>
<totfact> 0.45687449E+04</totfact>
</mgrwt>
</event>
<event>
 6    1  0.1280499E-001  0.3000000E+03  0.7818608E-02  0.1093470E+00
         21   -1    0    0  501  502  0.00000000000E+00  0.00000000000E+00  0.17256979470E+01  0.17256979470E+01  0.00000000000E+00 0. -1.
         13   -1    0    0    0    0 -0.00000000000E+00 -0.00000000000E+00 -0.10000000000E+04  0.10000000000E+04  0.00000000000E+00 0.  1.
    9000005    2    1    2  501    0 -0.39223623537E+02 -0.11710339188E+02 -0.58205277347E+03  0.58349611322E+03  0.25803775577E+01 0.  0.
         13    1    3    3    0    0 -0.24612231367E+02 -0.85329607721E+01 -0.37689573236E+03  0.37779487348E+03  0.00000000000E+00 0.  1.
          3    1    3    3  501    0 -0.14611392170E+02 -0.31773784156E+01 -0.20515704111E+03  0.20570123974E+03  0.00000000000E+00 0.  1.
         -1    1    1    2    0  502  0.39223623537E+02  0.11710339188E+02 -0.41622152858E+03  0.41822958473E+03  0.00000000000E+00 0. -1.
<mgrwt>
<rscale>  1 0.30000000E+03</rscale>
<asrwt>0</asrwt>
<pdfrwt beam="1">  1       21 0.62752785E-02 0.30000000E+03</pdfrwt>
<pdfrwt beam="2">0</pdfrwt>
<totfact> 0.19501477E+04</totfact>
</mgrwt>
</event>
<event>
 6    1  0.1280499E-001  0.3000000E+03  0.7818608E-02  0.1093470E+00
         21   -1    0    0  501  502  0.00000000000E+00  0.00000000000E+00  0.15064574496E+01  0.15064574496E+01  0.00000000000E+00 0. -1.
         13   -1    0    0    0    0 -0.00000000000E+00 -0.00000000000E+00 -0.10000000000E+04  0.10000000000E+04  0.00000000000E+00 0.  1.
    9000005    2    1    2  501    0  0.13569766588E+02  0.29281841521E+02 -0.77668545961E+03  0.77736277481E+03  0.33189889629E+01 0.  0.
         13    1    3    3    0    0  0.13459075475E+02  0.27185307391E+02 -0.72159395437E+03  0.72223128057E+03  0.00000000000E+00 0.  1.
          3    1    3    3  501    0  0.11069111302E+00  0.20965341295E+01 -0.55091505233E+02  0.55131494237E+02  0.00000000000E+00 0.  1.
         -1    1    1    2    0  502 -0.13569766588E+02 -0.29281841521E+02 -0.22180808294E+03  0.22414368264E+03  0.00000000000E+00 0. -1.
<mgrwt>
<rscale>  1 0.30000000E+03</rscale>
<asrwt>0</asrwt>
<pdfrwt beam="1">  1       21 0.54780386E-02 0.30000000E+03</pdfrwt>
<pdfrwt beam="2">0</pdfrwt>
<totfact> 0.24642603E+04</totfact>
</mgrwt>
</event>
<event>
 6    1  0.1280499E-001  0.3000000E+03  0.7818608E-02  0.1093470E+00
         21   -1    0    0  501  502  0.00000000000E+00  0.00000000000E+00  0.10627620334E+01  0.10627620334E+01  0.00000000000E+00 0. -1.
         13   -1    0    0    0    0 -0.00000000000E+00 -0.00000000000E+00 -0.10000000000E+04  0.10000000000E+04  0.00000000000E+00 0.  1.
    9000005    2    1    2  501    0  0.28075605220E+02 -0.14998963423E+02 -0.60201333973E+03  0.60286458335E+03  0.35264908229E+01 0.  0.
         13    1    3    3    0    0  0.21033941152E+02 -0.96389553460E+01 -0.44840799083E+03  0.44900452378E+03  0.00000000000E+00 0.  1.
          1    1    3    3  501    0  0.70416640671E+01 -0.53600080767E+01 -0.15360534890E+03  0.15386005957E+03  0.00000000000E+00 0.  1.
         -1    1    1    2    0  502 -0.28075605220E+02  0.14998963423E+02 -0.39692389824E+03  0.39819817868E+03  0.00000000000E+00 0. -1.
<mgrwt>
<rscale>  1 0.30000000E+03</rscale>
<asrwt>0</asrwt>
<pdfrwt beam="1">  1       21 0.38645974E-02 0.30000000E+03</pdfrwt>
<pdfrwt beam="2">0</pdfrwt>
<totfact> 0.44555722E+04</totfact>
</mgrwt>
</event>
<event>
 6    1  0.1280499E-001  0.3000000E+03  0.7818608E-02  0.1093470E+00
         21   -1    0    0  501  502  0.00000000000E+00  0.00000000000E+00  0.17248439816E+01  0.17248439816E+01  0.00000000000E+00 0. -1.
         13   -1    0    0    0    0 -0.00000000000E+00 -0.00000000000E+00 -0.10000000000E+04  0.10000000000E+04  0.00000000000E+00 0.  1.
    9000005    2    1    2  501    0 -0.20078418186E+02 -0.33033779807E+02 -0.68092377018E+03  0.68202768169E+03  0.31944180910E+01 0.  0.
         13    1    3    3    0    0 -0.77206699470E+01 -0.10497116683E+02 -0.24667793589E+03  0.24702186595E+03  0.00000000000E+00 0.  1.
          1    1    3    3  501    0 -0.12357748239E+02 -0.22536663123E+02 -0.43424583429E+03  0.43500581574E+03  0.00000000000E+00 0.  1.
         -3    1    1    2    0  502  0.20078418186E+02  0.33033779807E+02 -0.31735138583E+03  0.31969716229E+03  0.00000000000E+00 0. -1.
<mgrwt>
<rscale>  1 0.30000000E+03</rscale>
<asrwt>0</asrwt>
<pdfrwt beam="1">  1       21 0.62721732E-02 0.30000000E+03</pdfrwt>
<pdfrwt beam="2">0</pdfrwt>
<totfact> 0.19518165E+04</totfact>
</mgrwt>
</event>
<event>
 6    1  0.1280499E-001  0.3000000E+03  0.7818608E-02  0.1093470E+00
         21   -1    0    0  501  502  0.00000000000E+00  0.00000000000E+00  0.79684440444E+01  0.79684440444E+01  0.00000000000E+00 0. -1.
         13   -1    0    0    0    0 -0.00000000000E+00 -0.00000000000E+00 -0.10000000000E+04  0.10000000000E+04  0.00000000000E+00 0.  1.
    9000005    2    1    2  501    0  0.45111873370E+02  0.76881636783E+01 -0.92870750968E+03  0.92983955172E+03  0.31248072577E+01 0.  0.
         13    1    3    3    0    0  0.35134676776E+02  0.49441200588E+01 -0.70225291855E+03  0.70314866952E+03  0.00000000000E+00 0.  1.
          3    1    3    3  501    0  0.99771965941E+01  0.27440436194E+01 -0.22645459113E+03  0.22669088220E+03  0.00000000000E+00 0.  1.
         -3    1    1    2    0  502 -0.45111873370E+02 -0.76881636783E+01 -0.63324046275E+02  0.78128892327E+02  0.00000000000E+00 0. -1.
<mgrwt>
<rscale>  1 0.30000000E+03</rscale>
<asrwt>0</asrwt>
<pdfrwt beam="1">  1       21 0.28976221E-01 0.30000000E+03</pdfrwt>
<pdfrwt beam="2">0</pdfrwt>
<totfact> 0.11652911E+03</totfact>
</mgrwt>
</event>
<event>
 6    1  0.1280499E-001  0.3000000E+03  0.7818608E-02  0.1093470E+00
         21   -1    0    0  501  502  0.00000000000E+00  0.00000000000E+00  0.11904433190E+02  0.11904433190E+02  0.00000000000E+00 0. -1.
         13   -1    0    0    0    0 -0.00000000000E+00 -0.00000000000E+00 -0.10000000000E+04  0.10000000000E+04  0.00000000000E+00 0.  1.
    9000005    2    1    2  501    0 -0.55079960273E+02  0.41123299921E+02 -0.88693692596E+03  0.88960153691E+03  0.29759066958E+01 0.  0.
         13    1    3    3    0    0 -0.24063504106E+02  0.17692753038E+02 -0.36662447450E+03  0.36783908309E+03  0.00000000000E+00 0.  1.
          3    1    3    3  501    0 -0.31016456167E+02  0.23430546883E+02 -0.52031245145E+03  0.52176245382E+03  0.00000000000E+00 0.  1.
         -1    1    1    2    0  502  0.55079960273E+02 -0.41123299921E+02 -0.10115864085E+03  0.12230289628E+03  0.00000000000E+00 0. -1.
<mgrwt>
<rscale>  1 0.30000000E+03</rscale>
<asrwt>0</asrwt>
<pdfrwt beam="1">  1       21 0.43288939E-01 0.30000000E+03</pdfrwt>
<pdfrwt beam="2">0</pdfrwt>
<totfact> 0.51149891E+02</totfact>
</mgrwt>
</event>
<event>
 6    1  0.1280499E-001  0.3000000E+03  0.7818608E-02  0.1093470E+00
         21   -1    0    0  501  502  0.00000000000E+00  0.00000000000E+00  0.18649372357E+01  0.18649372357E+01  0.00000000000E+00 0. -1.
         13   -1    0    0    0    0 -0.00000000000E+00 -0.00000000000E+00 -0.10000000000E+04  0.10000000000E+04  0.00000000000E+00 0.  1.
    9000005    2    1    2  501    0  0.16881447603E+02  0.28706084216E+02 -0.81749509702E+03  0.81818091569E+03  0.35713605527E+01 0.  0.
         13    1    3    3    0    0  0.11015933495E+02  0.15988614564E+02 -0.44821218985E+03  0.44863253751E+03  0.00000000000E+00 0.  1.
          3    1    3    3  501    0  0.58655141085E+01  0.12717469652E+02 -0.36928290717E+03  0.36954837818E+03  0.00000000000E+00 0.  1.
         -3    1    1    2    0  502 -0.16881447603E+02 -0.28706084216E+02 -0.18063996575E+03  0.18368402154E+03  0.00000000000E+00 0. -1.
<mgrwt>
<rscale>  1 0.30000000E+03</rscale>
<asrwt>0</asrwt>
<pdfrwt beam="1">  1       21 0.67816042E-02 0.30000000E+03</pdfrwt>
<pdfrwt beam="2">0</pdfrwt>
<totfact> 0.17049200E+04</totfact>
</mgrwt>
</event>
<event>
 6    1  0.1280499E-001  0.3000000E+03  0.7818608E-02  0.1093470E+00
         21   -1    0    0  501  502  0.00000000000E+00  0.00000000000E+00  0.12271351940E+01  0.12271351940E+01  0.00000000000E+00 0. -1.
         13   -1    0    0    0    0 -0.00000000000E+00 -0.00000000000E+00 -0.10000000000E+04  0.10000000000E+04  0.00000000000E+00 0.  1.
    9000005    2    1    2  501    0  0.34393319813E+02 -0.55787189155E+01 -0.46451032333E+03  0.46582963260E+03  0.36583577950E+01 0.  0.
         13    1    3    3    0    0  0.60526902875E+01 -0.23020399006E+01 -0.93569348257E+02  0.93793162760E+02  0.00000000000E+00 0.  1.
          3    1    3    3  501    0  0.28340629525E+02 -0.32766790149E+01 -0.37094097507E+03  0.37203646984E+03  0.00000000000E+00 0.  1.
         -3    1    1    2    0  502 -0.34393319813E+02  0.55787189155E+01 -0.53426254148E+03  0.53539750259E+03  0.00000000000E+00 0. -1.
<mgrwt>
<rscale>  1 0.30000000E+03</rscale>
<asrwt>0</asrwt>
<pdfrwt beam="1">  1       21 0.44623192E-02 0.30000000E+03</pdfrwt>
<pdfrwt beam="2">0</pdfrwt>
<totfact> 0.34953226E+04</totfact>
</mgrwt>
</event>
<event>
 6    1  0.1280499E-001  0.3000000E+03  0.7818608E-02  0.1093470E+00
         21   -1    0    0  501  502  0.00000000000E+00  0.00000000000E+00  0.22942434911E+01  0.22942434911E+01  0.00000000000E+00 0. -1.
         13   -1    0    0    0    0 -0.00000000000E+00 -0.00000000000E+00 -0.10000000000E+04  0.10000000000E+04  0.00000000000E+00 0.  1.
    9000005    2    1    2  501    0  0.28101189509E+02 -0.13473998406E+02 -0.87905533601E+03  0.87961927550E+03  0.45343791779E+01 0.  0.
         13    1    3    3    0    0  0.25081624819E+02 -0.10723070980E+02 -0.78890613555E+03  0.78937757940E+03  0.00000000000E+00 0.  1.
          3    1    3    3  501    0  0.30195646901E+01 -0.27509274260E+01 -0.90149200453E+02  0.90241696100E+02  0.00000000000E+00 0.  1.
         -1    1    1    2    0  502 -0.28101189509E+02  0.13473998406E+02 -0.11865042050E+03  0.12267496799E+03  0.00000000000E+00 0. -1.
<mgrwt>
<rscale>  1 0.30000000E+03</rscale>
<asrwt>0</asrwt>
<pdfrwt beam="1">  1       21 0.83427212E-02 0.30000000E+03</pdfrwt>
<pdfrwt beam="2">0</pdfrwt>
<totfact> 0.11865421E+04</totfact>
</mgrwt>
</event>
<event>
 6    1  0.1280499E-001  0.3000000E+03  0.7818608E-02  0.1093470E+00
         21   -1    0    0  501  502  0.00000000000E+00  0.00000000000E+00  0.14854460080E+01  0.14854460080E+01  0.00000000000E+00 0. -1.
         13   -1    0    0    0    0 -0.00000000000E+00 -0.00000000000E+00 -0.10000000000E+04  0.10000000000E+04  0.00000000000E+00 0.  1.
    9000005    2    1    2  501    0  0.31581228396E+02 -0.34931697616E+01 -0.78200579584E+03  0.78265761739E+03  0.32101567144E+01 0.  0.
         13    1    3    3    0    0  0.10391053634E+02 -0.36210245226E+00 -0.22500301288E+03  0.22524311514E+03  0.00000000000E+00 0.  1.
          3    1    3    3  501    0  0.21190174763E+02 -0.31310673093E+01 -0.55700278297E+03  0.55741450225E+03  0.00000000000E+00 0.  1.
         -1    1    1    2    0  502 -0.31581228396E+02  0.34931697616E+01 -0.21650875815E+03  0.21882782862E+03  0.00000000000E+00 0. -1.
<mgrwt>
<rscale>  1 0.30000000E+03</rscale>
<asrwt>0</asrwt>
<pdfrwt beam="1">  1       21 0.54016332E-02 0.30000000E+03</pdfrwt>
<pdfrwt beam="2">0</pdfrwt>
<totfact> 0.25242815E+04</totfact>
</mgrwt>
</event>
<event>
 6    1  0.1280499E-001  0.3000000E+03  0.7818608E-02  0.1093470E+00
         21   -1    0    0  501  502  0.00000000000E+00  0.00000000000E+00  0.23221047223E+01  0.23221047223E+01  0.00000000000E+00 0. -1.
         13   -1    0    0    0    0 -0.00000000000E+00 -0.00000000000E+00 -0.10000000000E+04  0.10000000000E+04  0.00000000000E+00 0.  1.
    9000005    2    1    2  501    0 -0.14463654131E+02  0.32572914714E+02 -0.83584388400E+03  0.83661018822E+03  0.33788391774E+01 0.  0.
         13    1    3    3    0    0 -0.10002067347E+02  0.25958311443E+02 -0.65346915996E+03  0.65406102033E+03  0.00000000000E+00 0.  1.
          3    1    3    3  501    0 -0.44615867841E+01  0.66146032708E+01 -0.18237472403E+03  0.18254916789E+03  0.00000000000E+00 0.  1.
         -3    1    1    2    0  502  0.14463654131E+02 -0.32572914714E+02 -0.16183401128E+03  0.16571191650E+03  0.00000000000E+00 0. -1.
<mgrwt>
<rscale>  1 0.30000000E+03</rscale>
<asrwt>0</asrwt>
<pdfrwt beam="1">  1       21 0.84440350E-02 0.30000000E+03</pdfrwt>
<pdfrwt beam="2">0</pdfrwt>
<totfact> 0.11615752E+04</totfact>
</mgrwt>
</event>
<event>
 6    1  0.1280499E-001  0.3000000E+03  0.7818608E-02  0.1093470E+00
         21   -1    0    0  501  502  0.00000000000E+00  0.00000000000E+00  0.12222149401E+01  0.12222149401E+01  0.00000000000E+00 0. -1.
         13   -1    0    0    0    0 -0.00000000000E+00 -0.00000000000E+00 -0.10000000000E+04  0.10000000000E+04  0.00000000000E+00 0.  1.
    9000005    2    1    2  501    0  0.74656590627E+01 -0.29790424449E+02 -0.73757263596E+03  0.73821777511E+03  0.29807242854E+01 0.  0.
         13    1    3    3    0    0  0.32628639642E+01 -0.16242873290E+02 -0.42737638435E+03  0.42769738264E+03  0.00000000000E+00 0.  1.
          1    1    3    3  501    0  0.42027950985E+01 -0.13547551159E+02 -0.31019625161E+03  0.31052039248E+03  0.00000000000E+00 0.  1.
         -3    1    1    2    0  502 -0.74656590627E+01  0.29790424449E+02 -0.26120514910E+03  0.26300443983E+03  0.00000000000E+00 0. -1.
<mgrwt>
<rscale>  1 0.30000000E+03</rscale>
<asrwt>0</asrwt>
<pdfrwt beam="1">  1       21 0.44444273E-02 0.30000000E+03</pdfrwt>
<pdfrwt beam="2">0</pdfrwt>
<totfact> 0.35192136E+04</totfact>
</mgrwt>
</event>
<event>
 6    1  0.1280499E-001  0.3000000E+03  0.7818608E-02  0.1093470E+00
         21   -1    0    0  501  502  0.00000000000E+00  0.00000000000E+00  0.14302550162E+01  0.14302550162E+01  0.00000000000E+00 0. -1.
         13   -1    0    0    0    0 -0.00000000000E+00 -0.00000000000E+00 -0.10000000000E+04  0.10000000000E+04  0.00000000000E+00 0.  1.
    9000005    2    1    2  501    0 -0.24987648099E+01  0.37406669618E+02 -0.44356731700E+03  0.44516305499E+03  0.35606262860E+01 0.  0.
         13    1    3    3    0    0 -0.10277412160E+01  0.20900514032E+02 -0.22686968930E+03  0.22783270982E+03  0.00000000000E+00 0.  1.
          1    1    3    3  501    0 -0.14710235939E+01  0.16506155586E+02 -0.21669762770E+03  0.21733034517E+03  0.00000000000E+00 0.  1.
         -3    1    1    2    0  502  0.24987648099E+01 -0.37406669618E+02 -0.55500242798E+03  0.55626720002E+03  0.00000000000E+00 0. -1.
<mgrwt>
<rscale>  1 0.30000000E+03</rscale>
<asrwt>0</asrwt>
<pdfrwt beam="1">  1       21 0.52009383E-02 0.30000000E+03</pdfrwt>
<pdfrwt beam="2">0</pdfrwt>
<totfact> 0.26931581E+04</totfact>
</mgrwt>
</event>
<event>
 6    1  0.1280499E-001  0.3000000E+03  0.7818608E-02  0.1093470E+00
         21   -1    0    0  501  502  0.00000000000E+00  0.00000000000E+00  0.16860921411E+01  0.16860921411E+01  0.00000000000E+00 0. -1.
         13   -1    0    0    0    0 -0.00000000000E+00 -0.00000000000E+00 -0.10000000000E+04  0.10000000000E+04  0.00000000000E+00 0.  1.
    9000005    2    1    2  501    0  0.33193979230E+02  0.22125458531E+02 -0.38563347822E+03  0.38770833600E+03  0.36329200754E+01 0.  0.
         13    1    3    3    0    0  0.58129879581E+01  0.52654156152E+01 -0.84275303356E+02  0.84639483614E+02  0.00000000000E+00 0.  1.
          3    1    3    3  501    0  0.27380991272E+02  0.16860042916E+02 -0.30135817486E+03  0.30306885239E+03  0.00000000000E+00 0.  1.
         -3    1    1    2    0  502 -0.33193979230E+02 -0.22125458531E+02 -0.61268042964E+03  0.61397775614E+03  0.00000000000E+00 0. -1.
<mgrwt>
<rscale>  1 0.30000000E+03</rscale>
<asrwt>0</asrwt>
<pdfrwt beam="1">  1       21 0.61312571E-02 0.30000000E+03</pdfrwt>
<pdfrwt beam="2">0</pdfrwt>
<totfact> 0.20299390E+04</totfact>
</mgrwt>
</event>
<event>
 6    1  0.1280499E-001  0.3000000E+03  0.7818608E-02  0.1093470E+00
         21   -1    0    0  501  502  0.00000000000E+00  0.00000000000E+00  0.24201241477E+01  0.24201241477E+01  0.00000000000E+00 0. -1.
         13   -1    0    0    0    0 -0.00000000000E+00 -0.00000000000E+00 -0.10000000000E+04  0.10000000000E+04  0.00000000000E+00 0.  1.
    9000005    2    1    2  501    0 -0.45000290648E+01  0.34175571785E+02 -0.85604674503E+03  0.85674978713E+03  0.39935060835E+01 0.  0.
         13    1    3    3    0    0 -0.37375429209E+01  0.27808739760E+02 -0.73173921326E+03  0.73227697728E+03  0.00000000000E+00 0.  1.
          1    1    3    3  501    0 -0.76248614388E+00  0.63668320254E+01 -0.12430753177E+03  0.12447280985E+03  0.00000000000E+00 0.  1.
         -1    1    1    2    0  502  0.45000290648E+01 -0.34175571785E+02 -0.14153313082E+03  0.14567033702E+03  0.00000000000E+00 0. -1.
<mgrwt>
<rscale>  1 0.30000000E+03</rscale>
<asrwt>0</asrwt>
<pdfrwt beam="1">  1       21 0.88004700E-02 0.30000000E+03</pdfrwt>
<pdfrwt beam="2">0</pdfrwt>
<totfact> 0.10798173E+04</totfact>
</mgrwt>
</event>
<event>
 6    1  0.1280499E-001  0.3000000E+03  0.7818608E-02  0.1093470E+00
         21   -1    0    0  501  502  0.00000000000E+00  0.00000000000E+00  0.33381227875E+02  0.33381227875E+02  0.00000000000E+00 0. -1.
         13   -1    0    0    0    0 -0.00000000000E+00 -0.00000000000E+00 -0.10000000000E+04  0.10000000000E+04  0.00000000000E+00 0.  1.
    9000005    2    1    2  501    0 -0.41522464846E+02 -0.10923309548E+02 -0.98552612675E+03  0.98646724449E+03  0.35276274788E+01 0.  0.
         13    1    3    3    0    0 -0.31928977128E+01 -0.56840050786E+00 -0.97643005725E+02  0.97696848680E+02  0.00000000000E+00 0.  1.
          3    1    3    3  501    0 -0.38329567133E+02 -0.10354909040E+02 -0.88788312103E+03  0.88877039581E+03  0.00000000000E+00 0.  1.
         -1    1    1    2    0  502  0.41522464846E+02  0.10923309548E+02  0.18907354628E+02  0.46913983388E+02  0.00000000000E+00 0. -1.
<mgrwt>
<rscale>  1 0.30000000E+03</rscale>
<asrwt>0</asrwt>
<pdfrwt beam="1">  1       21 0.12138654E+00 0.30000000E+03</pdfrwt>
<pdfrwt beam="2">0</pdfrwt>
<totfact> 0.43987860E+01</totfact>
</mgrwt>
</event>
<event>
 6    1  0.1280499E-001  0.3000000E+03  0.7818608E-02  0.1093470E+00
         21   -1    0    0  501  502  0.00000000000E+00  0.00000000000E+00  0.29317116456E+01  0.29317116456E+01  0.00000000000E+00 0. -1.
         13   -1    0    0    0    0 -0.00000000000E+00 -0.00000000000E+00 -0.10000000000E+04  0.10000000000E+04  0.00000000000E+00 0.  1.
    9000005    2    1    2  501    0 -0.51207092068E+02 -0.80454277830E+01 -0.64191971703E+03  0.64402029792E+03  0.37849490245E+01 0.  0.
         13    1    3    3    0    0 -0.21737654979E+02 -0.30633967709E+01 -0.24931068541E+03  0.25027530422E+03  0.00000000000E+00 0.  1.
          1    1    3    3  501    0 -0.29469437089E+02 -0.49820310121E+01 -0.39260903162E+03  0.39374499370E+03  0.00000000000E+00 0.  1.
         -3    1    1    2    0  502  0.51207092068E+02  0.80454277830E+01 -0.35514857132E+03  0.35891141372E+03  0.00000000000E+00 0. -1.
<mgrwt>
<rscale>  1 0.30000000E+03</rscale>
<asrwt>0</asrwt>
<pdfrwt beam="1">  1       21 0.10660792E-01 0.30000000E+03</pdfrwt>
<pdfrwt beam="2">0</pdfrwt>
<totfact> 0.76718758E+03</totfact>
</mgrwt>
</event>
<event>
 6    1  0.1280499E-001  0.3000000E+03  0.7818608E-02  0.1093470E+00
         21   -1    0    0  501  502  0.00000000000E+00  0.00000000000E+00  0.18901644112E+01  0.18901644112E+01  0.00000000000E+00 0. -1.
         13   -1    0    0    0    0 -0.00000000000E+00 -0.00000000000E+00 -0.10000000000E+04  0.10000000000E+04  0.00000000000E+00 0.  1.
    9000005    2    1    2  501    0 -0.34697574294E+02  0.14215019655E+02 -0.75218022207E+03  0.75311845530E+03  0.25165061327E+01 0.  0.
         13    1    3    3    0    0 -0.33673353186E+02  0.13452823953E+02 -0.73237238798E+03  0.73326951925E+03  0.00000000000E+00 0.  1.
          1    1    3    3  501    0 -0.10242211082E+01  0.76219570190E+00 -0.19807834085E+02  0.19848936049E+02  0.00000000000E+00 0.  1.
         -3    1    1    2    0  502  0.34697574294E+02 -0.14215019655E+02 -0.24592961352E+03  0.24877170911E+03  0.00000000000E+00 0. -1.
<mgrwt>
<rscale>  1 0.30000000E+03</rscale>
<asrwt>0</asrwt>
<pdfrwt beam="1">  1       21 0.68733396E-02 0.30000000E+03</pdfrwt>
<pdfrwt beam="2">0</pdfrwt>
<totfact> 0.16655896E+04</totfact>
</mgrwt>
</event>
<event>
 6    1  0.1280499E-001  0.3000000E+03  0.7818608E-02  0.1093470E+00
         21   -1    0    0  501  502  0.00000000000E+00  0.00000000000E+00  0.76128739547E+01  0.76128739547E+01  0.00000000000E+00 0. -1.
         13   -1    0    0    0    0 -0.00000000000E+00 -0.00000000000E+00 -0.10000000000E+04  0.10000000000E+04  0.00000000000E+00 0.  1.
    9000005    2    1    2  501    0 -0.78367583347E+01  0.40586361434E+02 -0.93985397166E+03  0.94076678338E+03  0.28258005184E+01 0.  0.
         13    1    3    3    0    0 -0.54548551057E+01  0.22696007581E+02 -0.50892067697E+03  0.50945570921E+03  0.00000000000E+00 0.  1.
          3    1    3    3  501    0 -0.23819032291E+01  0.17890353853E+02 -0.43093329469E+03  0.43131107417E+03  0.00000000000E+00 0.  1.
         -3    1    1    2    0  502  0.78367583347E+01 -0.40586361434E+02 -0.52533154387E+02  0.66846090578E+02  0.00000000000E+00 0. -1.
<mgrwt>
<rscale>  1 0.30000000E+03</rscale>
<asrwt>0</asrwt>
<pdfrwt beam="1">  1       21 0.27683236E-01 0.30000000E+03</pdfrwt>
<pdfrwt beam="2">0</pdfrwt>
<totfact> 0.12758407E+03</totfact>
</mgrwt>
</event>
<event>
 6    1  0.1280499E-001  0.3000000E+03  0.7818608E-02  0.1093470E+00
         21   -1    0    0  501  502  0.00000000000E+00  0.00000000000E+00  0.12728376571E+01  0.12728376571E+01  0.00000000000E+00 0. -1.
         13   -1    0    0    0    0 -0.00000000000E+00 -0.00000000000E+00 -0.10000000000E+04  0.10000000000E+04  0.00000000000E+00 0.  1.
    9000005    2    1    2  501    0  0.29868765114E+02 -0.46786166224E+01 -0.76416526641E+03  0.76477058480E+03  0.33853219386E+01 0.  0.
         13    1    3    3    0    0  0.17622636751E+02 -0.28564459880E+01 -0.49216806164E+03  0.49249174360E+03  0.00000000000E+00 0.  1.
          1    1    3    3  501    0  0.12246128363E+02 -0.18221706344E+01 -0.27199720477E+03  0.27227884121E+03  0.00000000000E+00 0.  1.
         -1    1    1    2    0  502 -0.29868765114E+02  0.46786166224E+01 -0.23456189593E+03  0.23650225285E+03  0.00000000000E+00 0. -1.
<mgrwt>
<rscale>  1 0.30000000E+03</rscale>
<asrwt>0</asrwt>
<pdfrwt beam="1">  1       21 0.46285103E-02 0.30000000E+03</pdfrwt>
<pdfrwt beam="2">0</pdfrwt>
<totfact> 0.32849099E+04</totfact>
</mgrwt>
</event>
<event>
 6    1  0.1280499E-001  0.3000000E+03  0.7818608E-02  0.1093470E+00
         21   -1    0    0  501  502  0.00000000000E+00  0.00000000000E+00  0.25847156241E+01  0.25847156241E+01  0.00000000000E+00 0. -1.
         13   -1    0    0    0    0 -0.00000000000E+00 -0.00000000000E+00 -0.10000000000E+04  0.10000000000E+04  0.00000000000E+00 0.  1.
    9000005    2    1    2  501    0  0.38029500729E+02 -0.26009407334E+01 -0.83020350105E+03  0.83108314624E+03  0.28870381689E+01 0.  0.
         13    1    3    3    0    0  0.35669336293E+01 -0.84784957242E+00 -0.67629299861E+02  0.67728605951E+02  0.00000000000E+00 0.  1.
          3    1    3    3  501    0  0.34462567099E+02 -0.17530911610E+01 -0.76257420119E+03  0.76335454029E+03  0.00000000000E+00 0.  1.
         -1    1    1    2    0  502 -0.38029500729E+02  0.26009407334E+01 -0.16721178333E+03  0.17150156939E+03  0.00000000000E+00 0. -1.
<mgrwt>
<rscale>  1 0.30000000E+03</rscale>
<asrwt>0</asrwt>
<pdfrwt beam="1">  1       21 0.93989857E-02 0.30000000E+03</pdfrwt>
<pdfrwt beam="2">0</pdfrwt>
<totfact> 0.96088669E+03</totfact>
</mgrwt>
</event>
<event>
 6    1  0.1280499E-001  0.3000000E+03  0.7818608E-02  0.1093470E+00
         21   -1    0    0  501  502  0.00000000000E+00  0.00000000000E+00  0.36785007939E+01  0.36785007939E+01  0.00000000000E+00 0. -1.
         13   -1    0    0    0    0 -0.00000000000E+00 -0.00000000000E+00 -0.10000000000E+04  0.10000000000E+04  0.00000000000E+00 0.  1.
    9000005    2    1    2  501    0  0.56274963087E+01 -0.36506014114E+02 -0.89609130243E+03  0.89685879228E+03  0.34224579757E+01 0.  0.
         13    1    3    3    0    0  0.23680663146E+01 -0.25616912527E+02 -0.62658500180E+03  0.62711290724E+03  0.00000000000E+00 0.  1.
          1    1    3    3  501    0  0.32594299941E+01 -0.10889101588E+02 -0.26950630062E+03  0.26974588503E+03  0.00000000000E+00 0.  1.
         -3    1    1    2    0  502 -0.56274963087E+01  0.36506014114E+02 -0.10023019678E+03  0.10681970852E+03  0.00000000000E+00 0. -1.
<mgrwt>
<rscale>  1 0.30000000E+03</rscale>
<asrwt>0</asrwt>
<pdfrwt beam="1">  1       21 0.13376395E-01 0.30000000E+03</pdfrwt>
<pdfrwt beam="2">0</pdfrwt>
<totfact> 0.50842006E+03</totfact>
</mgrwt>
</event>
<event>
 6    1  0.1280499E-001  0.3000000E+03  0.7818608E-02  0.1093470E+00
         21   -1    0    0  501  502  0.00000000000E+00  0.00000000000E+00  0.44622959295E+01  0.44622959295E+01  0.00000000000E+00 0. -1.
         13   -1    0    0    0    0 -0.00000000000E+00 -0.00000000000E+00 -0.10000000000E+04  0.10000000000E+04  0.00000000000E+00 0.  1.
    9000005    2    1    2  501    0 -0.38427290356E+02 -0.24983839798E+02 -0.86298277921E+03  0.86420661155E+03  0.35974079152E+01 0.  0.
         13    1    3    3    0    0 -0.66100754517E+01 -0.57737541496E+01 -0.17804310061E+03  0.17825929151E+03  0.00000000000E+00 0.  1.
          1    1    3    3  501    0 -0.31817214905E+02 -0.19210085649E+02 -0.68493967859E+03  0.68594732004E+03  0.00000000000E+00 0.  1.
         -1    1    1    2    0  502  0.38427290356E+02  0.24983839798E+02 -0.13255492487E+03  0.14025568438E+03  0.00000000000E+00 0. -1.
<mgrwt>
<rscale>  1 0.30000000E+03</rscale>
<asrwt>0</asrwt>
<pdfrwt beam="1">  1       21 0.16226565E-01 0.30000000E+03</pdfrwt>
<pdfrwt beam="2">0</pdfrwt>
<totfact> 0.35581296E+03</totfact>
</mgrwt>
</event>
<event>
 6    1  0.1280499E-001  0.3000000E+03  0.7818608E-02  0.1093470E+00
         21   -1    0    0  501  502  0.00000000000E+00  0.00000000000E+00  0.61502827372E+01  0.61502827372E+01  0.00000000000E+00 0. -1.
         13   -1    0    0    0    0 -0.00000000000E+00 -0.00000000000E+00 -0.10000000000E+04  0.10000000000E+04  0.00000000000E+00 0.  1.
    9000005    2    1    2  501    0  0.77186221548E+01 -0.43910209836E+02 -0.91074590291E+03  0.91184266048E+03  0.33547202831E+01 0.  0.
         13    1    3    3    0    0  0.56918787566E+01 -0.27505249334E+02 -0.60106186752E+03  0.60171779500E+03  0.00000000000E+00 0.  1.
          3    1    3    3  501    0  0.20267433982E+01 -0.16404960503E+02 -0.30968403538E+03  0.31012486548E+03  0.00000000000E+00 0.  1.
         -3    1    1    2    0  502 -0.77186221548E+01  0.43910209836E+02 -0.83103814355E+02  0.94307622259E+02  0.00000000000E+00 0. -1.
<mgrwt>
<rscale>  1 0.30000000E+03</rscale>
<asrwt>0</asrwt>
<pdfrwt beam="1">  1       21 0.22364712E-01 0.30000000E+03</pdfrwt>
<pdfrwt beam="2">0</pdfrwt>
<totfact> 0.19362621E+03</totfact>
</mgrwt>
</event>
<event>
 6    1  0.1280499E-001  0.3000000E+03  0.7818608E-02  0.1093470E+00
         21   -1    0    0  501  502  0.00000000000E+00  0.00000000000E+00  0.14494006738E+01  0.14494006738E+01  0.00000000000E+00 0. -1.
         13   -1    0    0    0    0 -0.00000000000E+00 -0.00000000000E+00 -0.10000000000E+04  0.10000000000E+04  0.00000000000E+00 0.  1.
    9000005    2    1    2  501    0 -0.86478100617E+01  0.31681165119E+02 -0.75195320744E+03  0.75267489529E+03  0.27186363543E+01 0.  0.
         13    1    3    3    0    0 -0.29140411985E+01  0.15297967127E+02 -0.36934690536E+03  0.36967506805E+03  0.00000000000E+00 0.  1.
          3    1    3    3  501    0 -0.57337688632E+01  0.16383197992E+02 -0.38260630207E+03  0.38299982724E+03  0.00000000000E+00 0.  1.
         -1    1    1    2    0  502  0.86478100617E+01 -0.31681165119E+02 -0.24659739189E+03  0.24877450538E+03  0.00000000000E+00 0. -1.
<mgrwt>
<rscale>  1 0.30000000E+03</rscale>
<asrwt>0</asrwt>
<pdfrwt beam="1">  1       21 0.52705590E-02 0.30000000E+03</pdfrwt>
<pdfrwt beam="2">0</pdfrwt>
<totfact> 0.26326446E+04</totfact>
</mgrwt>
</event>
<event>
 6    1  0.1280499E-001  0.3000000E+03  0.7818608E-02  0.1093470E+00
         21   -1    0    0  501  502  0.00000000000E+00  0.00000000000E+00  0.93475346072E+00  0.93475346072E+00  0.00000000000E+00 0. -1.
         13   -1    0    0    0    0 -0.00000000000E+00 -0.00000000000E+00 -0.10000000000E+04  0.10000000000E+04  0.00000000000E+00 0.  1.
    9000005    2    1    2  501    0 -0.28147219289E+02  0.11533775797E+02 -0.53295089273E+03  0.53382889312E+03  0.33673624505E+01 0.  0.
         13    1    3    3    0    0 -0.24806261658E+02  0.11248615892E+02 -0.47936427492E+03  0.48013746994E+03  0.00000000000E+00 0.  1.
          1    1    3    3  501    0 -0.33409576309E+01  0.28515990520E+00 -0.53586617815E+02  0.53691423178E+02  0.00000000000E+00 0.  1.
         -3    1    1    2    0  502  0.28147219289E+02 -0.11533775797E+02 -0.46611435381E+03  0.46710586034E+03  0.00000000000E+00 0. -1.
<mgrwt>
<rscale>  1 0.30000000E+03</rscale>
<asrwt>0</asrwt>
<pdfrwt beam="1">  1       21 0.33991107E-02 0.30000000E+03</pdfrwt>
<pdfrwt beam="2">0</pdfrwt>
<totfact> 0.55255171E+04</totfact>
</mgrwt>
</event>
<event>
 6    1  0.1280499E-001  0.3000000E+03  0.7818608E-02  0.1093470E+00
         21   -1    0    0  501  502  0.00000000000E+00  0.00000000000E+00  0.15463184994E+01  0.15463184994E+01  0.00000000000E+00 0. -1.
         13   -1    0    0    0    0 -0.00000000000E+00 -0.00000000000E+00 -0.10000000000E+04  0.10000000000E+04  0.00000000000E+00 0.  1.
    9000005    2    1    2  501    0 -0.17971172635E+02  0.27740429396E+02 -0.76987493564E+03  0.77059018083E+03  0.30521783697E+01 0.  0.
         13    1    3    3    0    0 -0.10882427415E+02  0.19395050448E+02 -0.50998449383E+03  0.51046917552E+03  0.00000000000E+00 0.  1.
          1    1    3    3  501    0 -0.70887452197E+01  0.83453789484E+01 -0.25989044181E+03  0.26012100531E+03  0.00000000000E+00 0.  1.
         -3    1    1    2    0  502  0.17971172635E+02 -0.27740429396E+02 -0.22857874586E+03  0.23095613767E+03  0.00000000000E+00 0. -1.
<mgrwt>
<rscale>  1 0.30000000E+03</rscale>
<asrwt>0</asrwt>
<pdfrwt beam="1">  1       21 0.56229882E-02 0.30000000E+03</pdfrwt>
<pdfrwt beam="2">0</pdfrwt>
<totfact> 0.23562707E+04</totfact>
</mgrwt>
</event>
<event>
 6    1  0.1280499E-001  0.3000000E+03  0.7818608E-02  0.1093470E+00
         21   -1    0    0  501  502  0.00000000000E+00  0.00000000000E+00  0.21606386892E+01  0.21606386892E+01  0.00000000000E+00 0. -1.
         13   -1    0    0    0    0 -0.00000000000E+00 -0.00000000000E+00 -0.10000000000E+04  0.10000000000E+04  0.00000000000E+00 0.  1.
    9000005    2    1    2  501    0 -0.20901519698E+02 -0.25833497374E+02 -0.84894921458E+03  0.84960730734E+03  0.36830200978E+01 0.  0.
         13    1    3    3    0    0 -0.10280392798E+02 -0.13641585300E+02 -0.39166656728E+03  0.39203887467E+03  0.00000000000E+00 0.  1.
          3    1    3    3  501    0 -0.10621126899E+02 -0.12191912074E+02 -0.45728264730E+03  0.45756843267E+03  0.00000000000E+00 0.  1.
         -3    1    1    2    0  502  0.20901519698E+02  0.25833497374E+02 -0.14889014673E+03  0.15255333135E+03  0.00000000000E+00 0. -1.
<mgrwt>
<rscale>  1 0.30000000E+03</rscale>
<asrwt>0</asrwt>
<pdfrwt beam="1">  1       21 0.78568845E-02 0.30000000E+03</pdfrwt>
<pdfrwt beam="2">0</pdfrwt>
<totfact> 0.13185164E+04</totfact>
</mgrwt>
</event>
<event>
 6    1  0.1280499E-001  0.3000000E+03  0.7818608E-02  0.1093470E+00
         21   -1    0    0  501  502  0.00000000000E+00  0.00000000000E+00  0.33361946972E+01  0.33361946972E+01  0.00000000000E+00 0. -1.
         13   -1    0    0    0    0 -0.00000000000E+00 -0.00000000000E+00 -0.10000000000E+04  0.10000000000E+04  0.00000000000E+00 0.  1.
    9000005    2    1    2  501    0 -0.45630221320E+02  0.16569610597E+02 -0.76946174061E+03  0.77100572469E+03  0.46677777748E+01 0.  0.
         13    1    3    3    0    0 -0.93516230955E+01  0.25330214978E+01 -0.12854741888E+03  0.12891201633E+03  0.00000000000E+00 0.  1.
          3    1    3    3  501    0 -0.36278598225E+02  0.14036589099E+02 -0.64091432172E+03  0.64209370836E+03  0.00000000000E+00 0.  1.
         -1    1    1    2    0  502  0.45630221320E+02 -0.16569610597E+02 -0.22720206470E+03  0.23233047001E+03  0.00000000000E+00 0. -1.
<mgrwt>
<rscale>  1 0.30000000E+03</rscale>
<asrwt>0</asrwt>
<pdfrwt beam="1">  1       21 0.12131643E-01 0.30000000E+03</pdfrwt>
<pdfrwt beam="2">0</pdfrwt>
<totfact> 0.60755361E+03</totfact>
</mgrwt>
</event>
<event>
 6    1  0.1280499E-001  0.3000000E+03  0.7818608E-02  0.1093470E+00
         21   -1    0    0  501  502  0.00000000000E+00  0.00000000000E+00  0.27154821147E+01  0.27154821147E+01  0.00000000000E+00 0. -1.
         13   -1    0    0    0    0 -0.00000000000E+00 -0.00000000000E+00 -0.10000000000E+04  0.10000000000E+04  0.00000000000E+00 0.  1.
    9000005    2    1    2  501    0  0.25442051603E+02  0.27060231053E+02 -0.85007864065E+03  0.85089610131E+03  0.33054267596E+01 0.  0.
         13    1    3    3    0    0  0.16532577272E+02  0.15683232179E+02 -0.49831097764E+03  0.49883175552E+03  0.00000000000E+00 0.  1.
          3    1    3    3  501    0  0.89094743302E+01  0.11376998874E+02 -0.35176766301E+03  0.35206434579E+03  0.00000000000E+00 0.  1.
         -3    1    1    2    0  502 -0.25442051603E+02 -0.27060231053E+02 -0.14720587724E+03  0.15181938081E+03  0.00000000000E+00 0. -1.
<mgrwt>
<rscale>  1 0.30000000E+03</rscale>
<asrwt>0</asrwt>
<pdfrwt beam="1">  1       21 0.98745012E-02 0.30000000E+03</pdfrwt>
<pdfrwt beam="2">0</pdfrwt>
<totfact> 0.87994752E+03</totfact>
</mgrwt>
</event>
<event>
 6    1  0.1280499E-001  0.3000000E+03  0.7818608E-02  0.1093470E+00
         21   -1    0    0  501  502  0.00000000000E+00  0.00000000000E+00  0.54163888470E+01  0.54163888470E+01  0.00000000000E+00 0. -1.
         13   -1    0    0    0    0 -0.00000000000E+00 -0.00000000000E+00 -0.10000000000E+04  0.10000000000E+04  0.00000000000E+00 0.  1.
    9000005    2    1    2  501    0 -0.86400584227E+01 -0.56989413605E+02 -0.18498435459E+03  0.19376781951E+03  0.20766712828E+01 0.  0.
         13    1    3    3    0    0 -0.49560080716E+01 -0.32608463907E+02 -0.10238230484E+03  0.10756398226E+03  0.00000000000E+00 0.  1.
          3    1    3    3  501    0 -0.36840503511E+01 -0.24380949698E+02 -0.82602049750E+02  0.86203837259E+02  0.00000000000E+00 0.  1.
         -1    1    1    2    0  502  0.86400584227E+01  0.56989413605E+02 -0.80959925656E+03  0.81164856933E+03  0.00000000000E+00 0. -1.
<mgrwt>
<rscale>  1 0.30000000E+03</rscale>
<asrwt>0</asrwt>
<pdfrwt beam="1">  1       21 0.19696001E-01 0.30000000E+03</pdfrwt>
<pdfrwt beam="2">0</pdfrwt>
<totfact> 0.24703277E+03</totfact>
</mgrwt>
</event>
<event>
 6    1  0.1280499E-001  0.3000000E+03  0.7818608E-02  0.1093470E+00
         21   -1    0    0  501  502  0.00000000000E+00  0.00000000000E+00  0.16817390539E+01  0.16817390539E+01  0.00000000000E+00 0. -1.
         13   -1    0    0    0    0 -0.00000000000E+00 -0.00000000000E+00 -0.10000000000E+04  0.10000000000E+04  0.00000000000E+00 0.  1.
    9000005    2    1    2  501    0 -0.26052908754E+02 -0.23628280229E+02 -0.74933531843E+03  0.75022686170E+03  0.99937424629E+01 0.  0.
         13    1    3    3    0    0 -0.68744887654E+01 -0.12380623736E+02 -0.25715167055E+03  0.25754129786E+03  0.00000000000E+00 0.  1.
          3    1    3    3  501    0 -0.19178419989E+02 -0.11247656493E+02 -0.49218364788E+03  0.49268556384E+03  0.00000000000E+00 0.  1.
         -1    1    1    2    0  502  0.26052908754E+02  0.23628280229E+02 -0.24898294252E+03  0.25145487735E+03  0.00000000000E+00 0. -1.
<mgrwt>
<rscale>  1 0.30000000E+03</rscale>
<asrwt>0</asrwt>
<pdfrwt beam="1">  1       21 0.61154276E-02 0.30000000E+03</pdfrwt>
<pdfrwt beam="2">0</pdfrwt>
<totfact> 0.20390172E+04</totfact>
</mgrwt>
</event>
<event>
 6    1  0.1280499E-001  0.3000000E+03  0.7818608E-02  0.1093470E+00
         21   -1    0    0  501  502  0.00000000000E+00  0.00000000000E+00  0.11898677601E+01  0.11898677601E+01  0.00000000000E+00 0. -1.
         13   -1    0    0    0    0 -0.00000000000E+00 -0.00000000000E+00 -0.10000000000E+04  0.10000000000E+04  0.00000000000E+00 0.  1.
    9000005    2    1    2  501    0 -0.14764859602E+01 -0.33974956557E+02 -0.57641318913E+03  0.57742618924E+03  0.35159257556E+01 0.  0.
         13    1    3    3    0    0  0.65610204457E+00 -0.11495319022E+02 -0.21538205080E+03  0.21568959325E+03  0.00000000000E+00 0.  1.
          1    1    3    3  501    0 -0.21325880047E+01 -0.22479637534E+02 -0.36103113833E+03  0.36173659599E+03  0.00000000000E+00 0.  1.
         -1    1    1    2    0  502  0.14764859602E+01  0.33974956557E+02 -0.42239694311E+03  0.42376367852E+03  0.00000000000E+00 0. -1.
<mgrwt>
<rscale>  1 0.30000000E+03</rscale>
<asrwt>0</asrwt>
<pdfrwt beam="1">  1       21 0.43268010E-02 0.30000000E+03</pdfrwt>
<pdfrwt beam="2">0</pdfrwt>
<totfact> 0.36827627E+04</totfact>
</mgrwt>
</event>
<event>
 6    1  0.1280499E-001  0.3000000E+03  0.7818608E-02  0.1093470E+00
         21   -1    0    0  501  502  0.00000000000E+00  0.00000000000E+00  0.14217002902E+01  0.14217002902E+01  0.00000000000E+00 0. -1.
         13   -1    0    0    0    0 -0.00000000000E+00 -0.00000000000E+00 -0.10000000000E+04  0.10000000000E+04  0.00000000000E+00 0.  1.
    9000005    2    1    2  501    0  0.20837799944E+02 -0.24025661383E+02 -0.23324504704E+03  0.23542794447E+03  0.34086299178E+01 0.  0.
         13    1    3    3    0    0  0.67830236306E+01 -0.98673077916E+01 -0.94674710232E+02  0.95428894629E+02  0.00000000000E+00 0.  1.
          3    1    3    3  501    0  0.14054776313E+02 -0.14158353591E+02 -0.13857033681E+03  0.13999904984E+03  0.00000000000E+00 0.  1.
         -3    1    1    2    0  502 -0.20837799944E+02  0.24025661383E+02 -0.76533325267E+03  0.76599375582E+03  0.00000000000E+00 0. -1.
<mgrwt>
<rscale>  1 0.30000000E+03</rscale>
<asrwt>0</asrwt>
<pdfrwt beam="1">  1       21 0.51698301E-02 0.30000000E+03</pdfrwt>
<pdfrwt beam="2">0</pdfrwt>
<totfact> 0.27208967E+04</totfact>
</mgrwt>
</event>
<event>
 6    1  0.1280499E-001  0.3000000E+03  0.7818608E-02  0.1093470E+00
         21   -1    0    0  501  502  0.00000000000E+00  0.00000000000E+00  0.36591686937E+01  0.36591686937E+01  0.00000000000E+00 0. -1.
         13   -1    0    0    0    0 -0.00000000000E+00 -0.00000000000E+00 -0.10000000000E+04  0.10000000000E+04  0.00000000000E+00 0.  1.
    9000005    2    1    2  501    0 -0.34015010925E+02 -0.27858705962E+02 -0.84266090970E+03  0.84381347194E+03  0.32616289327E+01 0.  0.
         13    1    3    3    0    0 -0.29792617905E+02 -0.25123509894E+02 -0.72828449920E+03  0.72932647189E+03  0.00000000000E+00 0.  1.
          1    1    3    3  501    0 -0.42223930201E+01 -0.27351960683E+01 -0.11437641050E+03  0.11448700004E+03  0.00000000000E+00 0.  1.
         -3    1    1    2    0  502  0.34015010925E+02  0.27858705962E+02 -0.15367992161E+03  0.15984569676E+03  0.00000000000E+00 0. -1.
<mgrwt>
<rscale>  1 0.30000000E+03</rscale>
<asrwt>0</asrwt>
<pdfrwt beam="1">  1       21 0.13306096E-01 0.30000000E+03</pdfrwt>
<pdfrwt beam="2">0</pdfrwt>
<totfact> 0.51334558E+03</totfact>
</mgrwt>
</event>
<event>
 6    1  0.1280499E-001  0.3000000E+03  0.7818608E-02  0.1093470E+00
         21   -1    0    0  501  502  0.00000000000E+00  0.00000000000E+00  0.32610289709E+01  0.32610289709E+01  0.00000000000E+00 0. -1.
         13   -1    0    0    0    0 -0.00000000000E+00 -0.00000000000E+00 -0.10000000000E+04  0.10000000000E+04  0.00000000000E+00 0.  1.
    9000005    2    1    2  501    0  0.33778423352E+02  0.64300934740E+01 -0.89872534941E+03  0.89939092736E+03  0.38024406828E+01 0.  0.
         13    1    3    3    0    0  0.20158755932E+02  0.31424479641E+01 -0.48673029586E+03  0.48715770684E+03  0.00000000000E+00 0.  1.
          1    1    3    3  501    0  0.13619667419E+02  0.32876455099E+01 -0.41199505355E+03  0.41223322052E+03  0.00000000000E+00 0.  1.
         -3    1    1    2    0  502 -0.33778423352E+02 -0.64300934740E+01 -0.98013621619E+02  0.10387010161E+03  0.00000000000E+00 0. -1.
<mgrwt>
<rscale>  1 0.30000000E+03</rscale>
<asrwt>0</asrwt>
<pdfrwt beam="1">  1       21 0.11858312E-01 0.30000000E+03</pdfrwt>
<pdfrwt beam="2">0</pdfrwt>
<totfact> 0.63320677E+03</totfact>
</mgrwt>
</event>
<event>
 6    1  0.1280499E-001  0.3000000E+03  0.7818608E-02  0.1093470E+00
         21   -1    0    0  501  502  0.00000000000E+00  0.00000000000E+00  0.13292007134E+01  0.13292007134E+01  0.00000000000E+00 0. -1.
         13   -1    0    0    0    0 -0.00000000000E+00 -0.00000000000E+00 -0.10000000000E+04  0.10000000000E+04  0.00000000000E+00 0.  1.
    9000005    2    1    2  501    0 -0.31164607648E+02 -0.17308437249E+02 -0.40082652388E+03  0.40242303744E+03  0.34035345166E+01 0.  0.
         13    1    3    3    0    0 -0.29361162438E+02 -0.15679397218E+02 -0.38006532556E+03  0.38152008211E+03  0.00000000000E+00 0.  1.
          1    1    3    3  501    0 -0.18034452099E+01 -0.16290400309E+01 -0.20761198318E+02  0.20902955333E+02  0.00000000000E+00 0.  1.
         -3    1    1    2    0  502  0.31164607648E+02  0.17308437249E+02 -0.59784427541E+03  0.59890616327E+03  0.00000000000E+00 0. -1.
<mgrwt>
<rscale>  1 0.30000000E+03</rscale>
<asrwt>0</asrwt>
<pdfrwt beam="1">  1       21 0.48334673E-02 0.30000000E+03</pdfrwt>
<pdfrwt beam="2">0</pdfrwt>
<totfact> 0.30515562E+04</totfact>
</mgrwt>
</event>
<event>
 6    1  0.1280499E-001  0.3000000E+03  0.7818608E-02  0.1093470E+00
         21   -1    0    0  501  502  0.00000000000E+00  0.00000000000E+00  0.13641358751E+01  0.13641358751E+01  0.00000000000E+00 0. -1.
         13   -1    0    0    0    0 -0.00000000000E+00 -0.00000000000E+00 -0.10000000000E+04  0.10000000000E+04  0.00000000000E+00 0.  1.
    9000005    2    1    2  501    0  0.33526628234E+02  0.12537112809E+02 -0.61958374474E+03  0.62062574378E+03  0.33291303578E+01 0.  0.
         13    1    3    3    0    0  0.31839320038E+02  0.11883271648E+02 -0.57306322524E+03  0.57407004326E+03  0.00000000000E+00 0.  1.
          1    1    3    3  501    0  0.16873081955E+01  0.65384116096E+00 -0.46520519500E+02  0.46555700529E+02  0.00000000000E+00 0.  1.
         -3    1    1    2    0  502 -0.33526628234E+02 -0.12537112809E+02 -0.37905211939E+03  0.38073839209E+03  0.00000000000E+00 0. -1.
<mgrwt>
<rscale>  1 0.30000000E+03</rscale>
<asrwt>0</asrwt>
<pdfrwt beam="1">  1       21 0.49605046E-02 0.30000000E+03</pdfrwt>
<pdfrwt beam="2">0</pdfrwt>
<totfact> 0.29196640E+04</totfact>
</mgrwt>
</event>
<event>
 6    1  0.1280499E-001  0.3000000E+03  0.7818608E-02  0.1093470E+00
         21   -1    0    0  501  502  0.00000000000E+00  0.00000000000E+00  0.12366491965E+01  0.12366491965E+01  0.00000000000E+00 0. -1.
         13   -1    0    0    0    0 -0.00000000000E+00 -0.00000000000E+00 -0.10000000000E+04  0.10000000000E+04  0.00000000000E+00 0.  1.
    9000005    2    1    2  501    0 -0.23222014566E+02 -0.24367365383E+02 -0.64182639054E+03  0.64271604441E+03  0.31253301931E+01 0.  0.
         13    1    3    3    0    0 -0.89181480330E+01 -0.77400771655E+01 -0.20619806456E+03  0.20653591452E+03  0.00000000000E+00 0.  1.
          1    1    3    3  501    0 -0.14303866533E+02 -0.16627288217E+02 -0.43562832598E+03  0.43618012989E+03  0.00000000000E+00 0.  1.
         -3    1    1    2    0  502  0.23222014566E+02  0.24367365383E+02 -0.35693696026E+03  0.35852060479E+03  0.00000000000E+00 0. -1.
<mgrwt>
<rscale>  1 0.30000000E+03</rscale>
<asrwt>0</asrwt>
<pdfrwt beam="1">  1       21 0.44969157E-02 0.30000000E+03</pdfrwt>
<pdfrwt beam="2">0</pdfrwt>
<totfact> 0.34498302E+04</totfact>
</mgrwt>
</event>
<event>
 6    1  0.1280499E-001  0.3000000E+03  0.7818608E-02  0.1093470E+00
         21   -1    0    0  501  502  0.00000000000E+00  0.00000000000E+00  0.19575533376E+01  0.19575533376E+01  0.00000000000E+00 0. -1.
         13   -1    0    0    0    0 -0.00000000000E+00 -0.00000000000E+00 -0.10000000000E+04  0.10000000000E+04  0.00000000000E+00 0.  1.
    9000005    2    1    2  501    0  0.34586079995E+02 -0.13376454448E+02 -0.77154030059E+03  0.77243990993E+03  0.37219007065E+01 0.  0.
         13    1    3    3    0    0  0.55756416025E+01 -0.17692492586E+01 -0.15131957961E+03  0.15143260281E+03  0.00000000000E+00 0.  1.
          1    1    3    3  501    0  0.29010438393E+02 -0.11607205189E+02 -0.62022072099E+03  0.62100730711E+03  0.00000000000E+00 0.  1.
         -1    1    1    2    0  502 -0.34586079995E+02  0.13376454448E+02 -0.22650214607E+03  0.22951764341E+03  0.00000000000E+00 0. -1.
<mgrwt>
<rscale>  1 0.30000000E+03</rscale>
<asrwt>0</asrwt>
<pdfrwt beam="1">  1       21 0.71183908E-02 0.30000000E+03</pdfrwt>
<pdfrwt beam="2">0</pdfrwt>
<totfact> 0.15670819E+04</totfact>
</mgrwt>
</event>
<event>
 6    1  0.1280499E-001  0.3000000E+03  0.7818608E-02  0.1093470E+00
         21   -1    0    0  501  502  0.00000000000E+00  0.00000000000E+00  0.95340343369E+00  0.95340343369E+00  0.00000000000E+00 0. -1.
         13   -1    0    0    0    0 -0.00000000000E+00 -0.00000000000E+00 -0.10000000000E+04  0.10000000000E+04  0.00000000000E+00 0.  1.
    9000005    2    1    2  501    0 -0.27480143337E+02  0.13579842072E+02 -0.45187132599E+03  0.45292024101E+03  0.30788104663E+01 0.  0.
         13    1    3    3    0    0 -0.72204778231E+01  0.37236696578E+01 -0.10090692890E+03  0.10123343971E+03  0.00000000000E+00 0.  1.
          1    1    3    3  501    0 -0.20259665514E+02  0.98561724138E+01 -0.35096439709E+03  0.35168680130E+03  0.00000000000E+00 0.  1.
         -1    1    1    2    0  502  0.27480143337E+02 -0.13579842072E+02 -0.54717527058E+03  0.54803316243E+03  0.00000000000E+00 0. -1.
<mgrwt>
<rscale>  1 0.30000000E+03</rscale>
<asrwt>0</asrwt>
<pdfrwt beam="1">  1       21 0.34669289E-02 0.30000000E+03</pdfrwt>
<pdfrwt beam="2">0</pdfrwt>
<totfact> 0.53459654E+04</totfact>
</mgrwt>
</event>
<event>
 6    1  0.1280499E-001  0.3000000E+03  0.7818608E-02  0.1093470E+00
         21   -1    0    0  501  502  0.00000000000E+00  0.00000000000E+00  0.12878148238E+01  0.12878148238E+01  0.00000000000E+00 0. -1.
         13   -1    0    0    0    0 -0.00000000000E+00 -0.00000000000E+00 -0.10000000000E+04  0.10000000000E+04  0.00000000000E+00 0.  1.
    9000005    2    1    2  501    0 -0.23585382608E+02  0.26715284852E+02 -0.45306122406E+03  0.45447436575E+03  0.35354861613E+01 0.  0.
         13    1    3    3    0    0 -0.46461945940E+01  0.74946037357E+01 -0.10704889316E+03  0.10741145999E+03  0.00000000000E+00 0.  1.
          1    1    3    3  501    0 -0.18939188014E+02  0.19220681116E+02 -0.34601233089E+03  0.34706290576E+03  0.00000000000E+00 0.  1.
         -3    1    1    2    0  502  0.23585382608E+02 -0.26715284852E+02 -0.54565096112E+03  0.54681344907E+03  0.00000000000E+00 0. -1.
<mgrwt>
<rscale>  1 0.30000000E+03</rscale>
<asrwt>0</asrwt>
<pdfrwt beam="1">  1       21 0.46829729E-02 0.30000000E+03</pdfrwt>
<pdfrwt beam="2">0</pdfrwt>
<totfact> 0.32202421E+04</totfact>
</mgrwt>
</event>
<event>
 6    1  0.1280499E-001  0.3000000E+03  0.7818608E-02  0.1093470E+00
         21   -1    0    0  501  502  0.00000000000E+00  0.00000000000E+00  0.15805141924E+01  0.15805141924E+01  0.00000000000E+00 0. -1.
         13   -1    0    0    0    0 -0.00000000000E+00 -0.00000000000E+00 -0.10000000000E+04  0.10000000000E+04  0.00000000000E+00 0.  1.
    9000005    2    1    2  501    0 -0.87773945385E+01 -0.37241367171E+02 -0.63280429550E+03  0.63396872240E+03  0.33320399452E+01 0.  0.
         13    1    3    3    0    0 -0.36191245260E+01 -0.11468489027E+02 -0.22009675158E+03  0.22042505384E+03  0.00000000000E+00 0.  1.
          1    1    3    3  501    0 -0.51582700125E+01 -0.25772878144E+02 -0.41270754392E+03  0.41354366856E+03  0.00000000000E+00 0.  1.
         -1    1    1    2    0  502  0.87773945385E+01  0.37241367171E+02 -0.36561519031E+03  0.36761179180E+03  0.00000000000E+00 0. -1.
<mgrwt>
<rscale>  1 0.30000000E+03</rscale>
<asrwt>0</asrwt>
<pdfrwt beam="1">  1       21 0.57473365E-02 0.30000000E+03</pdfrwt>
<pdfrwt beam="2">0</pdfrwt>
<totfact> 0.22693117E+04</totfact>
</mgrwt>
</event>
<event>
 6    1  0.1280499E-001  0.3000000E+03  0.7818608E-02  0.1093470E+00
         21   -1    0    0  501  502  0.00000000000E+00  0.00000000000E+00  0.12685350606E+01  0.12685350606E+01  0.00000000000E+00 0. -1.
         13   -1    0    0    0    0 -0.00000000000E+00 -0.00000000000E+00 -0.10000000000E+04  0.10000000000E+04  0.00000000000E+00 0.  1.
    9000005    2    1    2  501    0 -0.17661792023E+02  0.29376493172E+02 -0.61191237910E+03  0.61293372794E+03  0.87222650226E+01 0.  0.
         13    1    3    3    0    0  0.43681805734E+00  0.16133652391E+01 -0.62734115247E+02  0.62756377948E+02  0.00000000000E+00 0.  1.
          1    1    3    3  501    0 -0.18098610081E+02  0.27763127933E+02 -0.54917826385E+03  0.55017734999E+03  0.00000000000E+00 0.  1.
         -3    1    1    2    0  502  0.17661792023E+02 -0.29376493172E+02 -0.38681908584E+03  0.38833480712E+03  0.00000000000E+00 0. -1.
<mgrwt>
<rscale>  1 0.30000000E+03</rscale>
<asrwt>0</asrwt>
<pdfrwt beam="1">  1       21 0.46128645E-02 0.30000000E+03</pdfrwt>
<pdfrwt beam="2">0</pdfrwt>
<totfact> 0.33038645E+04</totfact>
</mgrwt>
</event>
<event>
 6    1  0.1280499E-001  0.3000000E+03  0.7818608E-02  0.1093470E+00
         21   -1    0    0  501  502  0.00000000000E+00  0.00000000000E+00  0.28982224387E+01  0.28982224387E+01  0.00000000000E+00 0. -1.
         13   -1    0    0    0    0 -0.00000000000E+00 -0.00000000000E+00 -0.10000000000E+04  0.10000000000E+04  0.00000000000E+00 0.  1.
    9000005    2    1    2  501    0 -0.36463232166E+02 -0.30781824288E+02 -0.72480919940E+03  0.72645593890E+03  0.10619210004E+02 0.  0.
         13    1    3    3    0    0 -0.25966135835E+02 -0.15185149593E+02 -0.45138338863E+03  0.45238456264E+03  0.00000000000E+00 0.  1.
          1    1    3    3  501    0 -0.10497096331E+02 -0.15596674696E+02 -0.27342581077E+03  0.27407137626E+03  0.00000000000E+00 0.  1.
         -3    1    1    2    0  502  0.36463232166E+02  0.30781824288E+02 -0.27229257816E+03  0.27644228354E+03  0.00000000000E+00 0. -1.
<mgrwt>
<rscale>  1 0.30000000E+03</rscale>
<asrwt>0</asrwt>
<pdfrwt beam="1">  1       21 0.10539013E-01 0.30000000E+03</pdfrwt>
<pdfrwt beam="2">0</pdfrwt>
<totfact> 0.78316241E+03</totfact>
</mgrwt>
</event>
<event>
 6    1  0.1280499E-001  0.3000000E+03  0.7818608E-02  0.1093470E+00
         21   -1    0    0  501  502  0.00000000000E+00  0.00000000000E+00  0.18160472859E+02  0.18160472859E+02  0.00000000000E+00 0. -1.
         13   -1    0    0    0    0 -0.00000000000E+00 -0.00000000000E+00 -0.10000000000E+04  0.10000000000E+04  0.00000000000E+00 0.  1.
    9000005    2    1    2  501    0 -0.99328215762E+01 -0.63145102306E+02 -0.93895627258E+03  0.94118685133E+03  0.10384719820E+02 0.  0.
         13    1    3    3    0    0 -0.25192729477E+01 -0.44384510641E+02 -0.61739102357E+03  0.61898950517E+03  0.00000000000E+00 0.  1.
          1    1    3    3  501    0 -0.74135486286E+01 -0.18760591664E+02 -0.32156524901E+03  0.32219734617E+03  0.00000000000E+00 0.  1.
         -3    1    1    2    0  502  0.99328215762E+01  0.63145102306E+02 -0.42883254558E+02  0.76973621528E+02  0.00000000000E+00 0. -1.
<mgrwt>
<rscale>  1 0.30000000E+03</rscale>
<asrwt>0</asrwt>
<pdfrwt beam="1">  1       21 0.66038222E-01 0.30000000E+03</pdfrwt>
<pdfrwt beam="2">0</pdfrwt>
<totfact> 0.20194130E+02</totfact>
</mgrwt>
</event>
<event>
 6    1  0.1280499E-001  0.3000000E+03  0.7818608E-02  0.1093470E+00
         21   -1    0    0  501  502  0.00000000000E+00  0.00000000000E+00  0.30716637996E+01  0.30716637996E+01  0.00000000000E+00 0. -1.
         13   -1    0    0    0    0 -0.00000000000E+00 -0.00000000000E+00 -0.10000000000E+04  0.10000000000E+04  0.00000000000E+00 0.  1.
    9000005    2    1    2  501    0 -0.33736482695E+02  0.12221184239E+02 -0.87950461246E+03  0.88028795761E+03  0.95403021187E+01 0.  0.
         13    1    3    3    0    0 -0.55725207926E+01  0.29399834366E+01 -0.86530199349E+02  0.86759275527E+02  0.00000000000E+00 0.  1.
          3    1    3    3  501    0 -0.28163961902E+02  0.92812008023E+01 -0.79297441311E+03  0.79352868208E+03  0.00000000000E+00 0.  1.
         -3    1    1    2    0  502  0.33736482695E+02 -0.12221184239E+02 -0.11742372374E+03  0.12278370619E+03  0.00000000000E+00 0. -1.
<mgrwt>
<rscale>  1 0.30000000E+03</rscale>
<asrwt>0</asrwt>
<pdfrwt beam="1">  1       21 0.11169710E-01 0.30000000E+03</pdfrwt>
<pdfrwt beam="2">0</pdfrwt>
<totfact> 0.70548592E+03</totfact>
</mgrwt>
</event>
<event>
 6    1  0.1280499E-001  0.3000000E+03  0.7818608E-02  0.1093470E+00
         21   -1    0    0  501  502  0.00000000000E+00  0.00000000000E+00  0.13044006357E+01  0.13044006357E+01  0.00000000000E+00 0. -1.
         13   -1    0    0    0    0 -0.00000000000E+00 -0.00000000000E+00 -0.10000000000E+04  0.10000000000E+04  0.00000000000E+00 0.  1.
    9000005    2    1    2  501    0  0.26381135691E+02  0.24345885263E+02 -0.45349560964E+03  0.45492384164E+03  0.29575806150E+01 0.  0.
         13    1    3    3    0    0  0.29504205325E+01  0.35118297075E+01 -0.68724335228E+02  0.68877225421E+02  0.00000000000E+00 0.  1.
          3    1    3    3  501    0  0.23430715158E+02  0.20834055555E+02 -0.38477127441E+03  0.38604661622E+03  0.00000000000E+00 0.  1.
         -1    1    1    2    0  502 -0.26381135691E+02 -0.24345885263E+02 -0.54519998972E+03  0.54638055899E+03  0.00000000000E+00 0. -1.
<mgrwt>
<rscale>  1 0.30000000E+03</rscale>
<asrwt>0</asrwt>
<pdfrwt beam="1">  1       21 0.47432850E-02 0.30000000E+03</pdfrwt>
<pdfrwt beam="2">0</pdfrwt>
<totfact> 0.31509275E+04</totfact>
</mgrwt>
</event>
<event>
 6    1  0.1280499E-001  0.3000000E+03  0.7818608E-02  0.1093470E+00
         21   -1    0    0  501  502  0.00000000000E+00  0.00000000000E+00  0.26454115685E+02  0.26454115685E+02  0.00000000000E+00 0. -1.
         13   -1    0    0    0    0 -0.00000000000E+00 -0.00000000000E+00 -0.10000000000E+04  0.10000000000E+04  0.00000000000E+00 0.  1.
    9000005    2    1    2  501    0  0.13188129309E+02  0.63443877931E+02 -0.95750252819E+03  0.95969753041E+03  0.30341360754E+01 0.  0.
         13    1    3    3    0    0  0.95734460875E+01  0.40606728778E+02 -0.62984537860E+03  0.63122560012E+03  0.00000000000E+00 0.  1.
          3    1    3    3  501    0  0.36146832215E+01  0.22837149152E+02 -0.32765714959E+03  0.32847193030E+03  0.00000000000E+00 0.  1.
         -1    1    1    2    0  502 -0.13188129309E+02 -0.63443877931E+02 -0.16043356122E+02  0.66756585272E+02  0.00000000000E+00 0. -1.
<mgrwt>
<rscale>  1 0.30000000E+03</rscale>
<asrwt>0</asrwt>
<pdfrwt beam="1">  1       21 0.96196987E-01 0.30000000E+03</pdfrwt>
<pdfrwt beam="2">0</pdfrwt>
<totfact> 0.81362614E+01</totfact>
</mgrwt>
</event>
<event>
 6    1  0.1280499E-001  0.3000000E+03  0.7818608E-02  0.1093470E+00
         21   -1    0    0  501  502  0.00000000000E+00  0.00000000000E+00  0.14316441784E+01  0.14316441784E+01  0.00000000000E+00 0. -1.
         13   -1    0    0    0    0 -0.00000000000E+00 -0.00000000000E+00 -0.10000000000E+04  0.10000000000E+04  0.00000000000E+00 0.  1.
    9000005    2    1    2  501    0  0.28936451092E+02 -0.12707901910E+02 -0.22868738077E+03  0.23090226465E+03  0.43736396074E+01 0.  0.
         13    1    3    3    0    0  0.62216407907E+01 -0.23845043171E+01 -0.62161914517E+02  0.62517983744E+02  0.00000000000E+00 0.  1.
          3    1    3    3  501    0  0.22714810302E+02 -0.10323397593E+02 -0.16652546626E+03  0.16838428091E+03  0.00000000000E+00 0.  1.
         -1    1    1    2    0  502 -0.28936451092E+02  0.12707901910E+02 -0.76988097505E+03  0.77052937953E+03  0.00000000000E+00 0. -1.
<mgrwt>
<rscale>  1 0.30000000E+03</rscale>
<asrwt>0</asrwt>
<pdfrwt beam="1">  1       21 0.52059898E-02 0.30000000E+03</pdfrwt>
<pdfrwt beam="2">0</pdfrwt>
<totfact> 0.26886951E+04</totfact>
</mgrwt>
</event>
<event>
 6    1  0.1280499E-001  0.3000000E+03  0.7818608E-02  0.1093470E+00
         21   -1    0    0  501  502  0.00000000000E+00  0.00000000000E+00  0.33744761123E+01  0.33744761123E+01  0.00000000000E+00 0. -1.
         13   -1    0    0    0    0 -0.00000000000E+00 -0.00000000000E+00 -0.10000000000E+04  0.10000000000E+04  0.00000000000E+00 0.  1.
    9000005    2    1    2  501    0 -0.77236501301E+00  0.50145824389E+02 -0.75104701165E+03  0.75272730193E+03  0.34025160008E+01 0.  0.
         13    1    3    3    0    0 -0.13014856994E+01  0.33581995430E+02 -0.52345511851E+03  0.52453284489E+03  0.00000000000E+00 0.  1.
          1    1    3    3  501    0  0.52912068640E+00  0.16563828959E+02 -0.22759189314E+03  0.22819445704E+03  0.00000000000E+00 0.  1.
         -3    1    1    2    0  502  0.77236501301E+00 -0.50145824389E+02 -0.24557851224E+03  0.25064717418E+03  0.00000000000E+00 0. -1.
<mgrwt>
<rscale>  1 0.30000000E+03</rscale>
<asrwt>0</asrwt>
<pdfrwt beam="1">  1       21 0.12270848E-01 0.30000000E+03</pdfrwt>
<pdfrwt beam="2">0</pdfrwt>
<totfact> 0.59507836E+03</totfact>
</mgrwt>
</event>
<event>
 6    1  0.1280499E-001  0.3000000E+03  0.7818608E-02  0.1093470E+00
         21   -1    0    0  501  502  0.00000000000E+00  0.00000000000E+00  0.25807673891E+01  0.25807673891E+01  0.00000000000E+00 0. -1.
         13   -1    0    0    0    0 -0.00000000000E+00 -0.00000000000E+00 -0.10000000000E+04  0.10000000000E+04  0.00000000000E+00 0.  1.
    9000005    2    1    2  501    0  0.32852417838E+02  0.35590716473E+02 -0.64284941627E+03  0.64471803516E+03  0.77454766057E+01 0.  0.
         13    1    3    3    0    0  0.47172102921E+00  0.13340784804E+01 -0.82651201485E+01  0.83853740042E+01  0.00000000000E+00 0.  1.
          3    1    3    3  501    0  0.32380696809E+02  0.34256637993E+02 -0.63458429612E+03  0.63633266116E+03  0.00000000000E+00 0.  1.
         -1    1    1    2    0  502 -0.32852417838E+02 -0.35590716473E+02 -0.35456981634E+03  0.35786273223E+03  0.00000000000E+00 0. -1.
<mgrwt>
<rscale>  1 0.30000000E+03</rscale>
<asrwt>0</asrwt>
<pdfrwt beam="1">  1       21 0.93846285E-02 0.30000000E+03</pdfrwt>
<pdfrwt beam="2">0</pdfrwt>
<totfact> 0.96350364E+03</totfact>
</mgrwt>
</event>
<event>
 6    1  0.1280499E-001  0.3000000E+03  0.7818608E-02  0.1093470E+00
         21   -1    0    0  501  502  0.00000000000E+00  0.00000000000E+00  0.14053564246E+01  0.14053564246E+01  0.00000000000E+00 0. -1.
         13   -1    0    0    0    0 -0.00000000000E+00 -0.00000000000E+00 -0.10000000000E+04  0.10000000000E+04  0.00000000000E+00 0.  1.
    9000005    2    1    2  501    0  0.30822433961E+02  0.15628246461E+02 -0.68692195932E+03  0.68782262948E+03  0.66277383391E+01 0.  0.
         13    1    3    3    0    0  0.26391237651E+02  0.15126767357E+02 -0.62534008001E+03  0.62607949350E+03  0.00000000000E+00 0.  1.
          1    1    3    3  501    0  0.44311963104E+01  0.50147910385E+00 -0.61581879304E+02  0.61743135980E+02  0.00000000000E+00 0.  1.
         -3    1    1    2    0  502 -0.30822433961E+02 -0.15628246461E+02 -0.31167268426E+03  0.31358272694E+03  0.00000000000E+00 0. -1.
<mgrwt>
<rscale>  1 0.30000000E+03</rscale>
<asrwt>0</asrwt>
<pdfrwt beam="1">  1       21 0.51103978E-02 0.30000000E+03</pdfrwt>
<pdfrwt beam="2">0</pdfrwt>
<totfact> 0.27751399E+04</totfact>
</mgrwt>
</event>
<event>
 6    1  0.1280499E-001  0.3000000E+03  0.7818608E-02  0.1093470E+00
         21   -1    0    0  501  502  0.00000000000E+00  0.00000000000E+00  0.39028229184E+01  0.39028229184E+01  0.00000000000E+00 0. -1.
         13   -1    0    0    0    0 -0.00000000000E+00 -0.00000000000E+00 -0.10000000000E+04  0.10000000000E+04  0.00000000000E+00 0.  1.
    9000005    2    1    2  501    0 -0.30516338798E+02 -0.35413415012E+02 -0.83087081946E+03  0.83219054569E+03  0.30706379554E+01 0.  0.
         13    1    3    3    0    0 -0.34263159654E+00 -0.11119013804E+01 -0.21425803082E+02  0.21457370734E+02  0.00000000000E+00 0.  1.
          3    1    3    3  501    0 -0.30173707201E+02 -0.34301513631E+02 -0.80944501638E+03  0.81073317496E+03  0.00000000000E+00 0.  1.
         -3    1    1    2    0  502  0.30516338798E+02  0.35413415012E+02 -0.16522635762E+03  0.17171227723E+03  0.00000000000E+00 0. -1.
<mgrwt>
<rscale>  1 0.30000000E+03</rscale>
<asrwt>0</asrwt>
<pdfrwt beam="1">  1       21 0.14192113E-01 0.30000000E+03</pdfrwt>
<pdfrwt beam="2">0</pdfrwt>
<totfact> 0.45609467E+03</totfact>
</mgrwt>
</event>
<event>
 6    1  0.1280499E-001  0.3000000E+03  0.7818608E-02  0.1093470E+00
         21   -1    0    0  501  502  0.00000000000E+00  0.00000000000E+00  0.12492712329E+01  0.12492712329E+01  0.00000000000E+00 0. -1.
         13   -1    0    0    0    0 -0.00000000000E+00 -0.00000000000E+00 -0.10000000000E+04  0.10000000000E+04  0.00000000000E+00 0.  1.
    9000005    2    1    2  501    0 -0.32585137002E+02  0.28611555327E+01 -0.68677710620E+03  0.68756548373E+03  0.36774246884E+01 0.  0.
         13    1    3    3    0    0 -0.11510091096E+02  0.14937714526E+01 -0.28009125400E+03  0.28033163239E+03  0.00000000000E+00 0.  1.
          3    1    3    3  501    0 -0.21075045906E+02  0.13673840801E+01 -0.40668585220E+03  0.40723385134E+03  0.00000000000E+00 0.  1.
         -1    1    1    2    0  502  0.32585137002E+02 -0.28611555327E+01 -0.31197362257E+03  0.31368378751E+03  0.00000000000E+00 0. -1.
<mgrwt>
<rscale>  1 0.30000000E+03</rscale>
<asrwt>0</asrwt>
<pdfrwt beam="1">  1       21 0.45428141E-02 0.30000000E+03</pdfrwt>
<pdfrwt beam="2">0</pdfrwt>
<totfact> 0.33908715E+04</totfact>
</mgrwt>
</event>
<event>
 6    1  0.1280499E-001  0.3000000E+03  0.7818608E-02  0.1093470E+00
         21   -1    0    0  501  502  0.00000000000E+00  0.00000000000E+00  0.45470556016E+01  0.45470556016E+01  0.00000000000E+00 0. -1.
         13   -1    0    0    0    0 -0.00000000000E+00 -0.00000000000E+00 -0.10000000000E+04  0.10000000000E+04  0.00000000000E+00 0.  1.
    9000005    2    1    2  501    0  0.22463521870E+02  0.32371179200E+02 -0.90525525028E+03  0.90611877165E+03  0.34142520903E+01 0.  0.
         13    1    3    3    0    0  0.10571930807E+02  0.15818082324E+02 -0.47550336206E+03  0.47588383539E+03  0.00000000000E+00 0.  1.
          3    1    3    3  501    0  0.11891591064E+02  0.16553096876E+02 -0.42975188821E+03  0.43023493626E+03  0.00000000000E+00 0.  1.
         -3    1    1    2    0  502 -0.22463521870E+02 -0.32371179200E+02 -0.90197694122E+02  0.98428283956E+02  0.00000000000E+00 0. -1.
<mgrwt>
<rscale>  1 0.30000000E+03</rscale>
<asrwt>0</asrwt>
<pdfrwt beam="1">  1       21 0.16534783E-01 0.30000000E+03</pdfrwt>
<pdfrwt beam="2">0</pdfrwt>
<totfact> 0.34352888E+03</totfact>
</mgrwt>
</event>
<event>
 6    1  0.1280499E-001  0.3000000E+03  0.7818608E-02  0.1093470E+00
         21   -1    0    0  501  502  0.00000000000E+00  0.00000000000E+00  0.41180958305E+01  0.41180958305E+01  0.00000000000E+00 0. -1.
         13   -1    0    0    0    0 -0.00000000000E+00 -0.00000000000E+00 -0.10000000000E+04  0.10000000000E+04  0.00000000000E+00 0.  1.
    9000005    2    1    2  501    0  0.30163950327E+02  0.44945851275E+02 -0.76727292387E+03  0.76918819284E+03  0.35697131566E+01 0.  0.
         13    1    3    3    0    0  0.48831906457E+01  0.75902524278E+01 -0.11028180412E+03  0.11065050294E+03  0.00000000000E+00 0.  1.
          3    1    3    3  501    0  0.25280759681E+02  0.37355598847E+02 -0.65699111976E+03  0.65853768990E+03  0.00000000000E+00 0.  1.
         -3    1    1    2    0  502 -0.30163950327E+02 -0.44945851275E+02 -0.22860898030E+03  0.23492990299E+03  0.00000000000E+00 0. -1.
<mgrwt>
<rscale>  1 0.30000000E+03</rscale>
<asrwt>0</asrwt>
<pdfrwt beam="1">  1       21 0.14974926E-01 0.30000000E+03</pdfrwt>
<pdfrwt beam="2">0</pdfrwt>
<totfact> 0.41308064E+03</totfact>
</mgrwt>
</event>
<event>
 6    1  0.1280499E-001  0.3000000E+03  0.7818608E-02  0.1093470E+00
         21   -1    0    0  501  502  0.00000000000E+00  0.00000000000E+00  0.12850941209E+01  0.12850941209E+01  0.00000000000E+00 0. -1.
         13   -1    0    0    0    0 -0.00000000000E+00 -0.00000000000E+00 -0.10000000000E+04  0.10000000000E+04  0.00000000000E+00 0.  1.
    9000005    2    1    2  501    0 -0.31601858060E+02 -0.13443579098E+02 -0.64027117965E+03  0.64119994847E+03  0.32837728754E+01 0.  0.
         13    1    3    3    0    0 -0.28018236646E+02 -0.12145028262E+02 -0.54815561320E+03  0.54900555514E+03  0.00000000000E+00 0.  1.
          3    1    3    3  501    0 -0.35836214139E+01 -0.12985508356E+01 -0.92115566455E+02  0.92194393322E+02  0.00000000000E+00 0.  1.
         -1    1    1    2    0  502  0.31601858060E+02  0.13443579098E+02 -0.35844372622E+03  0.36008514565E+03  0.00000000000E+00 0. -1.
<mgrwt>
<rscale>  1 0.30000000E+03</rscale>
<asrwt>0</asrwt>
<pdfrwt beam="1">  1       21 0.46730794E-02 0.30000000E+03</pdfrwt>
<pdfrwt beam="2">0</pdfrwt>
<totfact> 0.32318403E+04</totfact>
</mgrwt>
</event>
<event>
 6    1  0.1280499E-001  0.3000000E+03  0.7818608E-02  0.1093470E+00
         21   -1    0    0  501  502  0.00000000000E+00  0.00000000000E+00  0.13897157559E+01  0.13897157559E+01  0.00000000000E+00 0. -1.
         13   -1    0    0    0    0 -0.00000000000E+00 -0.00000000000E+00 -0.10000000000E+04  0.10000000000E+04  0.00000000000E+00 0.  1.
    9000005    2    1    2  501    0  0.82291785706E+01  0.28869134096E+02 -0.79375854296E+03  0.79435014903E+03  0.61958418899E+01 0.  0.
         13    1    3    3    0    0  0.67812312975E+01  0.13024837470E+02 -0.35682015207E+03  0.35712218135E+03  0.00000000000E+00 0.  1.
          1    1    3    3  501    0  0.14479472731E+01  0.15844296626E+02 -0.43693839089E+03  0.43722796768E+03  0.00000000000E+00 0.  1.
         -1    1    1    2    0  502 -0.82291785706E+01 -0.28869134096E+02 -0.20485174128E+03  0.20703956673E+03  0.00000000000E+00 0. -1.
<mgrwt>
<rscale>  1 0.30000000E+03</rscale>
<asrwt>0</asrwt>
<pdfrwt beam="1">  1       21 0.50535225E-02 0.30000000E+03</pdfrwt>
<pdfrwt beam="2">0</pdfrwt>
<totfact> 0.28286395E+04</totfact>
</mgrwt>
</event>
<event>
 6    1  0.1280499E-001  0.3000000E+03  0.7818608E-02  0.1093470E+00
         21   -1    0    0  501  502  0.00000000000E+00  0.00000000000E+00  0.17537672201E+01  0.17537672201E+01  0.00000000000E+00 0. -1.
         13   -1    0    0    0    0 -0.00000000000E+00 -0.00000000000E+00 -0.10000000000E+04  0.10000000000E+04  0.00000000000E+00 0.  1.
    9000005    2    1    2  501    0  0.35918988095E+02 -0.96892677407E+01 -0.72822293158E+03  0.72917966939E+03  0.32088257523E+01 0.  0.
         13    1    3    3    0    0  0.32150407201E+01 -0.17789010239E+01 -0.79053482596E+02  0.79138827931E+02  0.00000000000E+00 0.  1.
          1    1    3    3  501    0  0.32703947375E+02 -0.79103667168E+01 -0.64916944898E+03  0.65004084146E+03  0.00000000000E+00 0.  1.
         -1    1    1    2    0  502 -0.35918988095E+02  0.96892677407E+01 -0.27002330120E+03  0.27257409783E+03  0.00000000000E+00 0. -1.
<mgrwt>
<rscale>  1 0.30000000E+03</rscale>
<asrwt>0</asrwt>
<pdfrwt beam="1">  1       21 0.63773488E-02 0.30000000E+03</pdfrwt>
<pdfrwt beam="2">0</pdfrwt>
<totfact> 0.18965028E+04</totfact>
</mgrwt>
</event>
<event>
 6    1  0.1280499E-001  0.3000000E+03  0.7818608E-02  0.1093470E+00
         21   -1    0    0  501  502  0.00000000000E+00  0.00000000000E+00  0.31050321957E+01  0.31050321957E+01  0.00000000000E+00 0. -1.
         13   -1    0    0    0    0 -0.00000000000E+00 -0.00000000000E+00 -0.10000000000E+04  0.10000000000E+04  0.00000000000E+00 0.  1.
    9000005    2    1    2  501    0 -0.35791482844E+01  0.43698257733E+02 -0.80775981289E+03  0.80895443381E+03  0.30021025591E+01 0.  0.
         13    1    3    3    0    0  0.24576447135E+00  0.94279524762E+01 -0.16094679576E+03  0.16122288223E+03  0.00000000000E+00 0.  1.
          3    1    3    3  501    0 -0.38249127557E+01  0.34270305257E+02 -0.64681301713E+03  0.64773155158E+03  0.00000000000E+00 0.  1.
         -1    1    1    2    0  502  0.35791482844E+01 -0.43698257733E+02 -0.18913515491E+03  0.19415059839E+03  0.00000000000E+00 0. -1.
<mgrwt>
<rscale>  1 0.30000000E+03</rscale>
<asrwt>0</asrwt>
<pdfrwt beam="1">  1       21 0.11291050E-01 0.30000000E+03</pdfrwt>
<pdfrwt beam="2">0</pdfrwt>
<totfact> 0.69187951E+03</totfact>
</mgrwt>
</event>
<event>
 6    1  0.1280499E-001  0.3000000E+03  0.7818608E-02  0.1093470E+00
         21   -1    0    0  501  502  0.00000000000E+00  0.00000000000E+00  0.12593201561E+01  0.12593201561E+01  0.00000000000E+00 0. -1.
         13   -1    0    0    0    0 -0.00000000000E+00 -0.00000000000E+00 -0.10000000000E+04  0.10000000000E+04  0.00000000000E+00 0.  1.
    9000005    2    1    2  501    0 -0.29107528638E+02 -0.96971478098E+01 -0.74960536992E+03  0.75024201886E+03  0.36869162413E+01 0.  0.
         13    1    3    3    0    0 -0.12028975922E+02 -0.43713706647E+01 -0.27013604894E+03  0.27043906907E+03  0.00000000000E+00 0.  1.
          3    1    3    3  501    0 -0.17078552716E+02 -0.53257771451E+01 -0.47946932098E+03  0.47980294979E+03  0.00000000000E+00 0.  1.
         -1    1    1    2    0  502  0.29107528638E+02  0.96971478098E+01 -0.24913530993E+03  0.25101730130E+03  0.00000000000E+00 0. -1.
<mgrwt>
<rscale>  1 0.30000000E+03</rscale>
<asrwt>0</asrwt>
<pdfrwt beam="1">  1       21 0.45793557E-02 0.30000000E+03</pdfrwt>
<pdfrwt beam="2">0</pdfrwt>
<totfact> 0.33450418E+04</totfact>
</mgrwt>
</event>
<event>
 6    1  0.1280499E-001  0.3000000E+03  0.7818608E-02  0.1093470E+00
         21   -1    0    0  501  502  0.00000000000E+00  0.00000000000E+00  0.19799115140E+01  0.19799115140E+01  0.00000000000E+00 0. -1.
         13   -1    0    0    0    0 -0.00000000000E+00 -0.00000000000E+00 -0.10000000000E+04  0.10000000000E+04  0.00000000000E+00 0.  1.
    9000005    2    1    2  501    0 -0.46269495377E+01 -0.31083133678E+02 -0.85333262956E+03  0.85391900975E+03  0.36781348614E+01 0.  0.
         13    1    3    3    0    0 -0.40915390521E+01 -0.29181343293E+02 -0.77147944463E+03  0.77204198394E+03  0.00000000000E+00 0.  1.
          3    1    3    3  501    0 -0.53541048567E+00 -0.19017903854E+01 -0.81853184934E+02  0.81877025807E+02  0.00000000000E+00 0.  1.
         -3    1    1    2    0  502  0.46269495377E+01  0.31083133678E+02 -0.14468745892E+03  0.14806090176E+03  0.00000000000E+00 0. -1.
<mgrwt>
<rscale>  1 0.30000000E+03</rscale>
<asrwt>0</asrwt>
<pdfrwt beam="1">  1       21 0.71996934E-02 0.30000000E+03</pdfrwt>
<pdfrwt beam="2">0</pdfrwt>
<totfact> 0.15363555E+04</totfact>
</mgrwt>
</event>
<event>
 6    1  0.1280499E-001  0.3000000E+03  0.7818608E-02  0.1093470E+00
         21   -1    0    0  501  502  0.00000000000E+00  0.00000000000E+00  0.21282478615E+01  0.21282478615E+01  0.00000000000E+00 0. -1.
         13   -1    0    0    0    0 -0.00000000000E+00 -0.00000000000E+00 -0.10000000000E+04  0.10000000000E+04  0.00000000000E+00 0.  1.
    9000005    2    1    2  501    0  0.41605124625E+02  0.17613168393E+02 -0.40285983138E+03  0.40540352411E+03  0.38423329624E+01 0.  0.
         13    1    3    3    0    0  0.17259763659E+02  0.52822354365E+01 -0.16258722742E+03  0.16358608735E+03  0.00000000000E+00 0.  1.
          1    1    3    3  501    0  0.24345360966E+02  0.12330932956E+02 -0.24027260396E+03  0.24181743676E+03  0.00000000000E+00 0.  1.
         -1    1    1    2    0  502 -0.41605124625E+02 -0.17613168393E+02 -0.59501192075E+03  0.59672472375E+03  0.00000000000E+00 0. -1.
<mgrwt>
<rscale>  1 0.30000000E+03</rscale>
<asrwt>0</asrwt>
<pdfrwt beam="1">  1       21 0.77390995E-02 0.30000000E+03</pdfrwt>
<pdfrwt beam="2">0</pdfrwt>
<totfact> 0.13539168E+04</totfact>
</mgrwt>
</event>
<event>
 6    1  0.1280499E-001  0.3000000E+03  0.7818608E-02  0.1093470E+00
         21   -1    0    0  501  502  0.00000000000E+00  0.00000000000E+00  0.18212485490E+01  0.18212485490E+01  0.00000000000E+00 0. -1.
         13   -1    0    0    0    0 -0.00000000000E+00 -0.00000000000E+00 -0.10000000000E+04  0.10000000000E+04  0.00000000000E+00 0.  1.
    9000005    2    1    2  501    0  0.29108716260E+02 -0.95481816052E+01 -0.84753504244E+03  0.84809417807E+03  0.30986406815E+01 0.  0.
         13    1    3    3    0    0  0.67246839449E+01 -0.23285215766E+01 -0.16318256371E+03  0.16333766401E+03  0.00000000000E+00 0.  1.
          1    1    3    3  501    0  0.22384032315E+02 -0.72196600286E+01 -0.68435247873E+03  0.68475651405E+03  0.00000000000E+00 0.  1.
         -3    1    1    2    0  502 -0.29108716260E+02  0.95481816052E+01 -0.15064370901E+03  0.15372707048E+03  0.00000000000E+00 0. -1.
<mgrwt>
<rscale>  1 0.30000000E+03</rscale>
<asrwt>0</asrwt>
<pdfrwt beam="1">  1       21 0.66227360E-02 0.30000000E+03</pdfrwt>
<pdfrwt beam="2">0</pdfrwt>
<totfact> 0.17764917E+04</totfact>
</mgrwt>
</event>
<event>
 6    1  0.1280499E-001  0.3000000E+03  0.7818608E-02  0.1093470E+00
         21   -1    0    0  501  502  0.00000000000E+00  0.00000000000E+00  0.51703829532E+01  0.51703829532E+01  0.00000000000E+00 0. -1.
         13   -1    0    0    0    0 -0.00000000000E+00 -0.00000000000E+00 -0.10000000000E+04  0.10000000000E+04  0.00000000000E+00 0.  1.
    9000005    2    1    2  501    0 -0.10223195471E+02 -0.30375341740E+02 -0.94728174751E+03  0.94782951612E+03  0.33026282465E+01 0.  0.
         13    1    3    3    0    0 -0.96939941858E+01 -0.30096022067E+02 -0.92814111295E+03  0.92867953010E+03  0.00000000000E+00 0.  1.
          1    1    3    3  501    0 -0.52920128538E+00 -0.27931967358E+00 -0.19140634561E+02  0.19149986028E+02  0.00000000000E+00 0.  1.
         -3    1    1    2    0  502  0.10223195471E+02  0.30375341740E+02 -0.47547869533E+02  0.57340866829E+02  0.00000000000E+00 0. -1.
<mgrwt>
<rscale>  1 0.30000000E+03</rscale>
<asrwt>0</asrwt>
<pdfrwt beam="1">  1       21 0.18801432E-01 0.30000000E+03</pdfrwt>
<pdfrwt beam="2">0</pdfrwt>
<totfact> 0.26982525E+03</totfact>
</mgrwt>
</event>
<event>
 6    1  0.1280499E-001  0.3000000E+03  0.7818608E-02  0.1093470E+00
         21   -1    0    0  501  502  0.00000000000E+00  0.00000000000E+00  0.22908790939E+01  0.22908790939E+01  0.00000000000E+00 0. -1.
         13   -1    0    0    0    0 -0.00000000000E+00 -0.00000000000E+00 -0.10000000000E+04  0.10000000000E+04  0.00000000000E+00 0.  1.
    9000005    2    1    2  501    0 -0.45793103809E+02 -0.92053716214E+01 -0.60003775322E+03  0.60188575437E+03  0.62776435102E+01 0.  0.
         13    1    3    3    0    0 -0.42250224210E+02 -0.83224395566E+01 -0.52681717132E+03  0.52857419200E+03  0.00000000000E+00 0.  1.
          1    1    3    3  501    0 -0.35428795999E+01 -0.88293206485E+00 -0.73220581897E+02  0.73311562378E+02  0.00000000000E+00 0.  1.
         -3    1    1    2    0  502  0.45793103809E+02  0.92053716214E+01 -0.39767136769E+03  0.40040512472E+03  0.00000000000E+00 0. -1.
<mgrwt>
<rscale>  1 0.30000000E+03</rscale>
<asrwt>0</asrwt>
<pdfrwt beam="1">  1       21 0.83304870E-02 0.30000000E+03</pdfrwt>
<pdfrwt beam="2">0</pdfrwt>
<totfact> 0.11896124E+04</totfact>
</mgrwt>
</event>
<event>
 6    1  0.1280499E-001  0.3000000E+03  0.7818608E-02  0.1093470E+00
         21   -1    0    0  501  502  0.00000000000E+00  0.00000000000E+00  0.21372869334E+01  0.21372869334E+01  0.00000000000E+00 0. -1.
         13   -1    0    0    0    0 -0.00000000000E+00 -0.00000000000E+00 -0.10000000000E+04  0.10000000000E+04  0.00000000000E+00 0.  1.
    9000005    2    1    2  501    0 -0.86512472565E+01  0.38043439048E+02 -0.76745295268E+03  0.76844773856E+03  0.23968729281E+01 0.  0.
         13    1    3    3    0    0 -0.65694081903E+01  0.32704717545E+02 -0.65496695924E+03  0.65581588374E+03  0.00000000000E+00 0.  1.
          3    1    3    3  501    0 -0.20818390662E+01  0.53387215028E+01 -0.11248599344E+03  0.11263185482E+03  0.00000000000E+00 0.  1.
         -3    1    1    2    0  502  0.86512472565E+01 -0.38043439048E+02 -0.23040976039E+03  0.23368954837E+03  0.00000000000E+00 0. -1.
<mgrwt>
<rscale>  1 0.30000000E+03</rscale>
<asrwt>0</asrwt>
<pdfrwt beam="1">  1       21 0.77719689E-02 0.30000000E+03</pdfrwt>
<pdfrwt beam="2">0</pdfrwt>
<totfact> 0.13438919E+04</totfact>
</mgrwt>
</event>
<event>
 6    1  0.1280499E-001  0.3000000E+03  0.7818608E-02  0.1093470E+00
         21   -1    0    0  501  502  0.00000000000E+00  0.00000000000E+00  0.17558037039E+01  0.17558037039E+01  0.00000000000E+00 0. -1.
         13   -1    0    0    0    0 -0.00000000000E+00 -0.00000000000E+00 -0.10000000000E+04  0.10000000000E+04  0.00000000000E+00 0.  1.
    9000005    2    1    2  501    0 -0.15028874913E+02  0.35691870696E+02 -0.68911085922E+03  0.69020613382E+03  0.33097052322E+01 0.  0.
         13    1    3    3    0    0 -0.73726865367E+01  0.16182226586E+02 -0.28867387419E+03  0.28922106874E+03  0.00000000000E+00 0.  1.
          3    1    3    3  501    0 -0.76561883761E+01  0.19509644110E+02 -0.40043698504E+03  0.40098506508E+03  0.00000000000E+00 0.  1.
         -3    1    1    2    0  502  0.15028874913E+02 -0.35691870696E+02 -0.30913333707E+03  0.31154966988E+03  0.00000000000E+00 0. -1.
<mgrwt>
<rscale>  1 0.30000000E+03</rscale>
<asrwt>0</asrwt>
<pdfrwt beam="1">  1       21 0.63847542E-02 0.30000000E+03</pdfrwt>
<pdfrwt beam="2">0</pdfrwt>
<totfact> 0.18926998E+04</totfact>
</mgrwt>
</event>
<event>
 6    1  0.1280499E-001  0.3000000E+03  0.7818608E-02  0.1093470E+00
         21   -1    0    0  501  502  0.00000000000E+00  0.00000000000E+00  0.19807025785E+01  0.19807025785E+01  0.00000000000E+00 0. -1.
         13   -1    0    0    0    0 -0.00000000000E+00 -0.00000000000E+00 -0.10000000000E+04  0.10000000000E+04  0.00000000000E+00 0.  1.
    9000005    2    1    2  501    0  0.30650267084E+02 -0.35304821937E+01 -0.85949245680E+03  0.86005963737E+03  0.48366685998E+01 0.  0.
         13    1    3    3    0    0  0.14697483176E+02 -0.18217136855E+01 -0.47942352360E+03  0.47965221737E+03  0.00000000000E+00 0.  1.
          3    1    3    3  501    0  0.15952783908E+02 -0.17087685081E+01 -0.38006893320E+03  0.38040742000E+03  0.00000000000E+00 0.  1.
         -1    1    1    2    0  502 -0.30650267084E+02  0.35304821937E+01 -0.13852684062E+03  0.14192106521E+03  0.00000000000E+00 0. -1.
<mgrwt>
<rscale>  1 0.30000000E+03</rscale>
<asrwt>0</asrwt>
<pdfrwt beam="1">  1       21 0.72025700E-02 0.30000000E+03</pdfrwt>
<pdfrwt beam="2">0</pdfrwt>
<totfact> 0.15352852E+04</totfact>
</mgrwt>
</event>
<event>
 6    1  0.1280499E-001  0.3000000E+03  0.7818608E-02  0.1093470E+00
         21   -1    0    0  501  502  0.00000000000E+00  0.00000000000E+00  0.16171973906E+01  0.16171973906E+01  0.00000000000E+00 0. -1.
         13   -1    0    0    0    0 -0.00000000000E+00 -0.00000000000E+00 -0.10000000000E+04  0.10000000000E+04  0.00000000000E+00 0.  1.
    9000005    2    1    2  501    0 -0.29965707322E+02  0.25246567885E+02 -0.60917846894E+03  0.61044543697E+03  0.31451056415E+01 0.  0.
         13    1    3    3    0    0 -0.19826638626E+02  0.18586283664E+02 -0.42413957648E+03  0.42500932446E+03  0.00000000000E+00 0.  1.
          1    1    3    3  501    0 -0.10139068696E+02  0.66602842216E+01 -0.18503889246E+03  0.18543611251E+03  0.00000000000E+00 0.  1.
         -1    1    1    2    0  502  0.29965707322E+02 -0.25246567885E+02 -0.38920433367E+03  0.39117176042E+03  0.00000000000E+00 0. -1.
<mgrwt>
<rscale>  1 0.30000000E+03</rscale>
<asrwt>0</asrwt>
<pdfrwt beam="1">  1       21 0.58807302E-02 0.30000000E+03</pdfrwt>
<pdfrwt beam="2">0</pdfrwt>
<totfact> 0.21813832E+04</totfact>
</mgrwt>
</event>
<event>
 6    1  0.1280499E-001  0.3000000E+03  0.7818608E-02  0.1093470E+00
         21   -1    0    0  501  502  0.00000000000E+00  0.00000000000E+00  0.23460987287E+01  0.23460987287E+01  0.00000000000E+00 0. -1.
         13   -1    0    0    0    0 -0.00000000000E+00 -0.00000000000E+00 -0.10000000000E+04  0.10000000000E+04  0.00000000000E+00 0.  1.
    9000005    2    1    2  501    0 -0.30473072439E+02 -0.12250832688E+02 -0.86698364108E+03  0.86761151541E+03  0.32274935095E+01 0.  0.
         13    1    3    3    0    0 -0.25584436857E+01 -0.62985705829E+00 -0.93423874625E+02  0.93461022378E+02  0.00000000000E+00 0.  1.
          1    1    3    3  501    0 -0.27914628753E+02 -0.11620975630E+02 -0.77355976646E+03  0.77415049303E+03  0.00000000000E+00 0.  1.
         -3    1    1    2    0  502  0.30473072439E+02  0.12250832688E+02 -0.13067026019E+03  0.13473458332E+03  0.00000000000E+00 0. -1.
<mgrwt>
<rscale>  1 0.30000000E+03</rscale>
<asrwt>0</asrwt>
<pdfrwt beam="1">  1       21 0.85312861E-02 0.30000000E+03</pdfrwt>
<pdfrwt beam="2">0</pdfrwt>
<totfact> 0.11407110E+04</totfact>
</mgrwt>
</event>
<event>
 6    1  0.1280499E-001  0.3000000E+03  0.7818608E-02  0.1093470E+00
         21   -1    0    0  501  502  0.00000000000E+00  0.00000000000E+00  0.14345183899E+01  0.14345183899E+01  0.00000000000E+00 0. -1.
         13   -1    0    0    0    0 -0.00000000000E+00 -0.00000000000E+00 -0.10000000000E+04  0.10000000000E+04  0.00000000000E+00 0.  1.
    9000005    2    1    2  501    0  0.21279289676E+02  0.30533770750E+02 -0.58874730515E+03  0.58992989255E+03  0.29613315904E+01 0.  0.
         13    1    3    3    0    0  0.76102252151E+01  0.85513414073E+01 -0.18319821179E+03  0.18355551142E+03  0.00000000000E+00 0.  1.
          1    1    3    3  501    0  0.13669064461E+02  0.21982429343E+02 -0.40554909335E+03  0.40637438113E+03  0.00000000000E+00 0.  1.
         -3    1    1    2    0  502 -0.21279289676E+02 -0.30533770750E+02 -0.40981817646E+03  0.41150462584E+03  0.00000000000E+00 0. -1.
<mgrwt>
<rscale>  1 0.30000000E+03</rscale>
<asrwt>0</asrwt>
<pdfrwt beam="1">  1       21 0.52164415E-02 0.30000000E+03</pdfrwt>
<pdfrwt beam="2">0</pdfrwt>
<totfact> 0.26794976E+04</totfact>
</mgrwt>
</event>
<event>
 6    1  0.1280499E-001  0.3000000E+03  0.7818608E-02  0.1093470E+00
         21   -1    0    0  501  502  0.00000000000E+00  0.00000000000E+00  0.12831353903E+02  0.12831353903E+02  0.00000000000E+00 0. -1.
         13   -1    0    0    0    0 -0.00000000000E+00 -0.00000000000E+00 -0.10000000000E+04  0.10000000000E+04  0.00000000000E+00 0.  1.
    9000005    2    1    2  501    0  0.81390147702E+01 -0.67232225665E+02 -0.89949658039E+03  0.90204865293E+03  0.33553528773E+01 0.  0.
         13    1    3    3    0    0  0.26394073955E+01 -0.22180357722E+02 -0.27607081467E+03  0.27697297604E+03  0.00000000000E+00 0.  1.
          1    1    3    3  501    0  0.54996073746E+01 -0.45051867944E+02 -0.62342576572E+03  0.62507567689E+03  0.00000000000E+00 0.  1.
         -3    1    1    2    0  502 -0.81390147702E+01  0.67232225665E+02 -0.87672065707E+02  0.11078270097E+03  0.00000000000E+00 0. -1.
<mgrwt>
<rscale>  1 0.30000000E+03</rscale>
<asrwt>0</asrwt>
<pdfrwt beam="1">  1       21 0.46659567E-01 0.30000000E+03</pdfrwt>
<pdfrwt beam="2">0</pdfrwt>
<totfact> 0.43605254E+02</totfact>
</mgrwt>
</event>
<event>
 6    1  0.1280499E-001  0.3000000E+03  0.7818608E-02  0.1093470E+00
         21   -1    0    0  501  502  0.00000000000E+00  0.00000000000E+00  0.11952104158E+02  0.11952104158E+02  0.00000000000E+00 0. -1.
         13   -1    0    0    0    0 -0.00000000000E+00 -0.00000000000E+00 -0.10000000000E+04  0.10000000000E+04  0.00000000000E+00 0.  1.
    9000005    2    1    2  501    0 -0.90018550041E+02  0.33198324211E+02 -0.73646352199E+03  0.74269355694E+03  0.31196506347E+01 0.  0.
         13    1    3    3    0    0 -0.44714026584E+02  0.16784321636E+02 -0.37847652848E+03  0.38147809928E+03  0.00000000000E+00 0.  1.
          1    1    3    3  501    0 -0.45304523457E+02  0.16414002575E+02 -0.35798699351E+03  0.36121545765E+03  0.00000000000E+00 0.  1.
         -3    1    1    2    0  502  0.90018550041E+02 -0.33198324211E+02 -0.25158437386E+03  0.26925854722E+03  0.00000000000E+00 0. -1.
<mgrwt>
<rscale>  1 0.30000000E+03</rscale>
<asrwt>0</asrwt>
<pdfrwt beam="1">  1       21 0.43462289E-01 0.30000000E+03</pdfrwt>
<pdfrwt beam="2">0</pdfrwt>
<totfact> 0.50718775E+02</totfact>
</mgrwt>
</event>
<event>
 6    1  0.1280499E-001  0.3000000E+03  0.7818608E-02  0.1093470E+00
         21   -1    0    0  501  502  0.00000000000E+00  0.00000000000E+00  0.19258308397E+01  0.19258308397E+01  0.00000000000E+00 0. -1.
         13   -1    0    0    0    0 -0.00000000000E+00 -0.00000000000E+00 -0.10000000000E+04  0.10000000000E+04  0.00000000000E+00 0.  1.
    9000005    2    1    2  501    0 -0.10036194335E+02 -0.35877188105E+02 -0.76311067471E+03  0.76402723574E+03  0.34376275579E+01 0.  0.
         13    1    3    3    0    0 -0.36637851108E+01 -0.11743177537E+02 -0.22078506763E+03  0.22112750084E+03  0.00000000000E+00 0.  1.
          1    1    3    3  501    0 -0.63724092238E+01 -0.24134010568E+02 -0.54232560708E+03  0.54289973490E+03  0.00000000000E+00 0.  1.
         -1    1    1    2    0  502  0.10036194335E+02  0.35877188105E+02 -0.23496349445E+03  0.23789859510E+03  0.00000000000E+00 0. -1.
<mgrwt>
<rscale>  1 0.30000000E+03</rscale>
<asrwt>0</asrwt>
<pdfrwt beam="1">  1       21 0.70030360E-02 0.30000000E+03</pdfrwt>
<pdfrwt beam="2">0</pdfrwt>
<totfact> 0.16123115E+04</totfact>
</mgrwt>
</event>
<event>
 6    1  0.1280499E-001  0.3000000E+03  0.7818608E-02  0.1093470E+00
         21   -1    0    0  501  502  0.00000000000E+00  0.00000000000E+00  0.23539584675E+01  0.23539584675E+01  0.00000000000E+00 0. -1.
         13   -1    0    0    0    0 -0.00000000000E+00 -0.00000000000E+00 -0.10000000000E+04  0.10000000000E+04  0.00000000000E+00 0.  1.
    9000005    2    1    2  501    0 -0.13417671839E+02 -0.40906864620E+02 -0.72918622153E+03  0.73046412702E+03  0.34481441629E+01 0.  0.
         13    1    3    3    0    0 -0.73168938741E+01 -0.18299161095E+02 -0.35327274185E+03  0.35382202641E+03  0.00000000000E+00 0.  1.
          3    1    3    3  501    0 -0.61007779653E+01 -0.22607703525E+02 -0.37591347968E+03  0.37664210061E+03  0.00000000000E+00 0.  1.
         -1    1    1    2    0  502  0.13417671839E+02  0.40906864620E+02 -0.26845982000E+03  0.27188983145E+03  0.00000000000E+00 0. -1.
<mgrwt>
<rscale>  1 0.30000000E+03</rscale>
<asrwt>0</asrwt>
<pdfrwt beam="1">  1       21 0.85598670E-02 0.30000000E+03</pdfrwt>
<pdfrwt beam="2">0</pdfrwt>
<totfact> 0.11340006E+04</totfact>
</mgrwt>
</event>
<event>
 6    1  0.1280499E-001  0.3000000E+03  0.7818608E-02  0.1093470E+00
         21   -1    0    0  501  502  0.00000000000E+00  0.00000000000E+00  0.40732849897E+01  0.40732849897E+01  0.00000000000E+00 0. -1.
         13   -1    0    0    0    0 -0.00000000000E+00 -0.00000000000E+00 -0.10000000000E+04  0.10000000000E+04  0.00000000000E+00 0.  1.
    9000005    2    1    2  501    0  0.45012345433E+02  0.15590042869E+02 -0.83194572868E+03  0.83331344031E+03  0.29040747868E+01 0.  0.
         13    1    3    3    0    0  0.25260734800E+02  0.87980667974E+01 -0.49212398217E+03  0.49285040786E+03  0.00000000000E+00 0.  1.
          1    1    3    3  501    0  0.19751610633E+02  0.67919760715E+01 -0.33982174651E+03  0.34046303244E+03  0.00000000000E+00 0.  1.
         -3    1    1    2    0  502 -0.45012345433E+02 -0.15590042869E+02 -0.16398098633E+03  0.17075984468E+03  0.00000000000E+00 0. -1.
<mgrwt>
<rscale>  1 0.30000000E+03</rscale>
<asrwt>0</asrwt>
<pdfrwt beam="1">  1       21 0.14811977E-01 0.30000000E+03</pdfrwt>
<pdfrwt beam="2">0</pdfrwt>
<totfact> 0.42152391E+03</totfact>
</mgrwt>
</event>
<event>
 6    1  0.1280499E-001  0.3000000E+03  0.7818608E-02  0.1093470E+00
         21   -1    0    0  501  502  0.00000000000E+00  0.00000000000E+00  0.13116908938E+01  0.13116908938E+01  0.00000000000E+00 0. -1.
         13   -1    0    0    0    0 -0.00000000000E+00 -0.00000000000E+00 -0.10000000000E+04  0.10000000000E+04  0.00000000000E+00 0.  1.
    9000005    2    1    2  501    0  0.15418187554E+01  0.35827663171E+02 -0.56334347022E+03  0.56449236050E+03  0.31242566625E+01 0.  0.
         13    1    3    3    0    0  0.82179181523E+00  0.34001552219E+02 -0.53681197683E+03  0.53788835214E+03  0.00000000000E+00 0.  1.
          1    1    3    3  501    0  0.72002694020E+00  0.18261109511E+01 -0.26531493381E+02  0.26604008364E+02  0.00000000000E+00 0.  1.
         -3    1    1    2    0  502 -0.15418187554E+01 -0.35827663171E+02 -0.43534483889E+03  0.43681933039E+03  0.00000000000E+00 0. -1.
<mgrwt>
<rscale>  1 0.30000000E+03</rscale>
<asrwt>0</asrwt>
<pdfrwt beam="1">  1       21 0.47697951E-02 0.30000000E+03</pdfrwt>
<pdfrwt beam="2">0</pdfrwt>
<totfact> 0.31211969E+04</totfact>
</mgrwt>
</event>
<event>
 6    1  0.1280499E-001  0.3000000E+03  0.7818608E-02  0.1093470E+00
         21   -1    0    0  501  502  0.00000000000E+00  0.00000000000E+00  0.10394996763E+01  0.10394996763E+01  0.00000000000E+00 0. -1.
         13   -1    0    0    0    0 -0.00000000000E+00 -0.00000000000E+00 -0.10000000000E+04  0.10000000000E+04  0.00000000000E+00 0.  1.
    9000005    2    1    2  501    0 -0.15556373929E+02 -0.25963459010E+02 -0.67050382683E+03  0.67119121889E+03  0.24836567953E+01 0.  0.
         13    1    3    3    0    0 -0.10420642488E+02 -0.15121260384E+02 -0.41291500016E+03  0.41332316613E+03  0.00000000000E+00 0.  1.
          3    1    3    3  501    0 -0.51357314408E+01 -0.10842198626E+02 -0.25758882667E+03  0.25786805276E+03  0.00000000000E+00 0.  1.
         -1    1    1    2    0  502  0.15556373929E+02  0.25963459010E+02 -0.32845667350E+03  0.32984828079E+03  0.00000000000E+00 0. -1.
<mgrwt>
<rscale>  1 0.30000000E+03</rscale>
<asrwt>0</asrwt>
<pdfrwt beam="1">  1       21 0.37800068E-02 0.30000000E+03</pdfrwt>
<pdfrwt beam="2">0</pdfrwt>
<totfact> 0.46244097E+04</totfact>
</mgrwt>
</event>
<event>
 6    1  0.1280499E-001  0.3000000E+03  0.7818608E-02  0.1093470E+00
         21   -1    0    0  501  502  0.00000000000E+00  0.00000000000E+00  0.93723320947E+00  0.93723320947E+00  0.00000000000E+00 0. -1.
         13   -1    0    0    0    0 -0.00000000000E+00 -0.00000000000E+00 -0.10000000000E+04  0.10000000000E+04  0.00000000000E+00 0.  1.
    9000005    2    1    2  501    0  0.17302601966E+02  0.24882993838E+02 -0.56243030426E+03  0.56325418493E+03  0.29809851167E+01 0.  0.
         13    1    3    3    0    0  0.15524958345E+02  0.22244049000E+02 -0.51827268482E+03  0.51898207857E+03  0.00000000000E+00 0.  1.
          3    1    3    3  501    0  0.17776436208E+01  0.26389448374E+01 -0.44157619436E+02  0.44272106353E+02  0.00000000000E+00 0.  1.
         -1    1    1    2    0  502 -0.17302601966E+02 -0.24882993838E+02 -0.43663246253E+03  0.43768304828E+03  0.00000000000E+00 0. -1.
<mgrwt>
<rscale>  1 0.30000000E+03</rscale>
<asrwt>0</asrwt>
<pdfrwt beam="1">  1       21 0.34081279E-02 0.30000000E+03</pdfrwt>
<pdfrwt beam="2">0</pdfrwt>
<totfact> 0.55011063E+04</totfact>
</mgrwt>
</event>
<event>
 6    1  0.1280499E-001  0.3000000E+03  0.7818608E-02  0.1093470E+00
         21   -1    0    0  501  502  0.00000000000E+00  0.00000000000E+00  0.16601026469E+01  0.16601026469E+01  0.00000000000E+00 0. -1.
         13   -1    0    0    0    0 -0.00000000000E+00 -0.00000000000E+00 -0.10000000000E+04  0.10000000000E+04  0.00000000000E+00 0.  1.
    9000005    2    1    2  501    0 -0.36794051687E+02  0.56508897386E+01 -0.70132098478E+03  0.70231754099E+03  0.36152305964E+01 0.  0.
         13    1    3    3    0    0 -0.34134334958E+02  0.58414734932E+01 -0.66307460306E+03  0.66397831656E+03  0.00000000000E+00 0.  1.
          1    1    3    3  501    0 -0.26597167294E+01 -0.19058375457E+00 -0.38246381719E+02  0.38339224429E+02  0.00000000000E+00 0.  1.
         -1    1    1    2    0  502  0.36794051687E+02 -0.56508897386E+01 -0.29701891257E+03  0.29934256166E+03  0.00000000000E+00 0. -1.
<mgrwt>
<rscale>  1 0.30000000E+03</rscale>
<asrwt>0</asrwt>
<pdfrwt beam="1">  1       21 0.60367496E-02 0.30000000E+03</pdfrwt>
<pdfrwt beam="2">0</pdfrwt>
<totfact> 0.20850895E+04</totfact>
</mgrwt>
</event>
<event>
 6    1  0.1280499E-001  0.3000000E+03  0.7818608E-02  0.1093470E+00
         21   -1    0    0  501  502  0.00000000000E+00  0.00000000000E+00  0.11993881373E+01  0.11993881373E+01  0.00000000000E+00 0. -1.
         13   -1    0    0    0    0 -0.00000000000E+00 -0.00000000000E+00 -0.10000000000E+04  0.10000000000E+04  0.00000000000E+00 0.  1.
    9000005    2    1    2  501    0  0.13927005476E+02  0.31454070495E+02 -0.53426093949E+03  0.53538780902E+03  0.46940972933E+01 0.  0.
         13    1    3    3    0    0  0.74684620074E+01  0.11283799300E+02 -0.20282538806E+03  0.20327626545E+03  0.00000000000E+00 0.  1.
          3    1    3    3  501    0  0.64585434690E+01  0.20170271195E+02 -0.33143555142E+03  0.33211154357E+03  0.00000000000E+00 0.  1.
         -1    1    1    2    0  502 -0.13927005476E+02 -0.31454070495E+02 -0.46453967238E+03  0.46581157912E+03  0.00000000000E+00 0. -1.
<mgrwt>
<rscale>  1 0.30000000E+03</rscale>
<asrwt>0</asrwt>
<pdfrwt beam="1">  1       21 0.43614206E-02 0.30000000E+03</pdfrwt>
<pdfrwt beam="2">0</pdfrwt>
<totfact> 0.36334253E+04</totfact>
</mgrwt>
</event>
<event>
 6    1  0.1280499E-001  0.3000000E+03  0.7818608E-02  0.1093470E+00
         21   -1    0    0  501  502  0.00000000000E+00  0.00000000000E+00  0.22881833449E+01  0.22881833449E+01  0.00000000000E+00 0. -1.
         13   -1    0    0    0    0 -0.00000000000E+00 -0.00000000000E+00 -0.10000000000E+04  0.10000000000E+04  0.00000000000E+00 0.  1.
    9000005    2    1    2  501    0 -0.32188813996E+02 -0.67419388073E+01 -0.86174832891E+03  0.86240379006E+03  0.69671545517E+01 0.  0.
         13    1    3    3    0    0 -0.13242395757E+02 -0.35108676434E+01 -0.27540529895E+03  0.27574583574E+03  0.00000000000E+00 0.  1.
          3    1    3    3  501    0 -0.18946418239E+02 -0.32310711639E+01 -0.58634302996E+03  0.58665795432E+03  0.00000000000E+00 0.  1.
         -1    1    1    2    0  502  0.32188813996E+02  0.67419388073E+01 -0.13596348775E+03  0.13988439329E+03  0.00000000000E+00 0. -1.
<mgrwt>
<rscale>  1 0.30000000E+03</rscale>
<asrwt>0</asrwt>
<pdfrwt beam="1">  1       21 0.83206843E-02 0.30000000E+03</pdfrwt>
<pdfrwt beam="2">0</pdfrwt>
<totfact> 0.11920813E+04</totfact>
</mgrwt>
</event>
<event>
 6    1  0.1280499E-001  0.3000000E+03  0.7818608E-02  0.1093470E+00
         21   -1    0    0  501  502  0.00000000000E+00  0.00000000000E+00  0.87146419875E+01  0.87146419875E+01  0.00000000000E+00 0. -1.
         13   -1    0    0    0    0 -0.00000000000E+00 -0.00000000000E+00 -0.10000000000E+04  0.10000000000E+04  0.00000000000E+00 0.  1.
    9000005    2    1    2  501    0  0.77404645690E+01  0.33646616882E+02 -0.96421666612E+03  0.96484296890E+03  0.40206686013E+01 0.  0.
         13    1    3    3    0    0 -0.48550715135E+00  0.22141988144E+01 -0.64750721298E+02  0.64790387421E+02  0.00000000000E+00 0.  1.
          1    1    3    3  501    0  0.82259717204E+01  0.31432418068E+02 -0.89946594483E+03  0.90005258147E+03  0.00000000000E+00 0.  1.
         -3    1    1    2    0  502 -0.77404645690E+01 -0.33646616882E+02 -0.27068691889E+02  0.43871673092E+02  0.00000000000E+00 0. -1.
<mgrwt>
<rscale>  1 0.30000000E+03</rscale>
<asrwt>0</asrwt>
<pdfrwt beam="1">  1       21 0.31689674E-01 0.30000000E+03</pdfrwt>
<pdfrwt beam="2">0</pdfrwt>
<totfact> 0.97394889E+02</totfact>
</mgrwt>
</event>
<event>
 6    1  0.1280499E-001  0.3000000E+03  0.7818608E-02  0.1093470E+00
         21   -1    0    0  501  502  0.00000000000E+00  0.00000000000E+00  0.12215154977E+01  0.12215154977E+01  0.00000000000E+00 0. -1.
         13   -1    0    0    0    0 -0.00000000000E+00 -0.00000000000E+00 -0.10000000000E+04  0.10000000000E+04  0.00000000000E+00 0.  1.
    9000005    2    1    2  501    0 -0.29114355063E+02  0.10922564802E+02 -0.72667144780E+03  0.72734346322E+03  0.31894136090E+01 0.  0.
         13    1    3    3    0    0 -0.19014303495E+02  0.85070151883E+01 -0.46651379274E+03  0.46697862034E+03  0.00000000000E+00 0.  1.
          3    1    3    3  501    0 -0.10100051567E+02  0.24155496134E+01 -0.26015765506E+03  0.26036484288E+03  0.00000000000E+00 0.  1.
         -1    1    1    2    0  502  0.29114355063E+02 -0.10922564802E+02 -0.27210703671E+03  0.27387805227E+03  0.00000000000E+00 0. -1.
<mgrwt>
<rscale>  1 0.30000000E+03</rscale>
<asrwt>0</asrwt>
<pdfrwt beam="1">  1       21 0.44418839E-02 0.30000000E+03</pdfrwt>
<pdfrwt beam="2">0</pdfrwt>
<totfact> 0.35226303E+04</totfact>
</mgrwt>
</event>
<event>
 6    1  0.1280499E-001  0.3000000E+03  0.7818608E-02  0.1093470E+00
         21   -1    0    0  501  502  0.00000000000E+00  0.00000000000E+00  0.21807173429E+01  0.21807173429E+01  0.00000000000E+00 0. -1.
         13   -1    0    0    0    0 -0.00000000000E+00 -0.00000000000E+00 -0.10000000000E+04  0.10000000000E+04  0.00000000000E+00 0.  1.
    9000005    2    1    2  501    0  0.31162498737E+02  0.23654460552E+02 -0.77191410329E+03  0.77291278479E+03  0.34864315064E+01 0.  0.
         13    1    3    3    0    0  0.14090499380E+02  0.12623679427E+02 -0.38832424488E+03  0.38878479730E+03  0.00000000000E+00 0.  1.
          3    1    3    3  501    0  0.17071999357E+02  0.11030781125E+02 -0.38358985841E+03  0.38412798748E+03  0.00000000000E+00 0.  1.
         -1    1    1    2    0  502 -0.31162498737E+02 -0.23654460552E+02 -0.22590517937E+03  0.22926793256E+03  0.00000000000E+00 0. -1.
<mgrwt>
<rscale>  1 0.30000000E+03</rscale>
<asrwt>0</asrwt>
<pdfrwt beam="1">  1       21 0.79298980E-02 0.30000000E+03</pdfrwt>
<pdfrwt beam="2">0</pdfrwt>
<totfact> 0.12972828E+04</totfact>
</mgrwt>
</event>
<event>
 6    1  0.1280499E-001  0.3000000E+03  0.7818608E-02  0.1093470E+00
         21   -1    0    0  501  502  0.00000000000E+00  0.00000000000E+00  0.11812627236E+02  0.11812627236E+02  0.00000000000E+00 0. -1.
         13   -1    0    0    0    0 -0.00000000000E+00 -0.00000000000E+00 -0.10000000000E+04  0.10000000000E+04  0.00000000000E+00 0.  1.
    9000005    2    1    2  501    0 -0.33815061524E+02  0.52946774240E+02 -0.90690680770E+03  0.90908313028E+03  0.23152994578E+01 0.  0.
         13    1    3    3    0    0 -0.47813890038E+01  0.84047995805E+01 -0.14957516023E+03  0.14988739405E+03  0.00000000000E+00 0.  1.
          1    1    3    3  501    0 -0.29033672521E+02  0.44541974660E+02 -0.75733164747E+03  0.75919573623E+03  0.00000000000E+00 0.  1.
         -3    1    1    2    0  502  0.33815061524E+02 -0.52946774240E+02 -0.81280565064E+02  0.10272949696E+03  0.00000000000E+00 0. -1.
<mgrwt>
<rscale>  1 0.30000000E+03</rscale>
<asrwt>0</asrwt>
<pdfrwt beam="1">  1       21 0.42955099E-01 0.30000000E+03</pdfrwt>
<pdfrwt beam="2">0</pdfrwt>
<totfact> 0.51994861E+02</totfact>
</mgrwt>
</event>
<event>
 6    1  0.1280499E-001  0.3000000E+03  0.7818608E-02  0.1093470E+00
         21   -1    0    0  501  502  0.00000000000E+00  0.00000000000E+00  0.20424974061E+01  0.20424974061E+01  0.00000000000E+00 0. -1.
         13   -1    0    0    0    0 -0.00000000000E+00 -0.00000000000E+00 -0.10000000000E+04  0.10000000000E+04  0.00000000000E+00 0.  1.
    9000005    2    1    2  501    0 -0.22024474056E+02 -0.38706301157E+02 -0.41963952594E+03  0.42201237980E+03  0.37231395789E+01 0.  0.
         13    1    3    3    0    0 -0.87120157969E+01 -0.13816224449E+02 -0.16958293103E+03  0.17036771342E+03  0.00000000000E+00 0.  1.
          3    1    3    3  501    0 -0.13312458259E+02 -0.24890076708E+02 -0.25005659490E+03  0.25164466638E+03  0.00000000000E+00 0.  1.
         -1    1    1    2    0  502  0.22024474056E+02  0.38706301157E+02 -0.57831797666E+03  0.58003011761E+03  0.00000000000E+00 0. -1.
<mgrwt>
<rscale>  1 0.30000000E+03</rscale>
<asrwt>0</asrwt>
<pdfrwt beam="1">  1       21 0.74272790E-02 0.30000000E+03</pdfrwt>
<pdfrwt beam="2">0</pdfrwt>
<totfact> 0.14550522E+04</totfact>
</mgrwt>
</event>
<event>
 6    1  0.1280499E-001  0.3000000E+03  0.7818608E-02  0.1093470E+00
         21   -1    0    0  501  502  0.00000000000E+00  0.00000000000E+00  0.27989421046E+02  0.27989421046E+02  0.00000000000E+00 0. -1.
         13   -1    0    0    0    0 -0.00000000000E+00 -0.00000000000E+00 -0.10000000000E+04  0.10000000000E+04  0.00000000000E+00 0.  1.
    9000005    2    1    2  501    0  0.83149460153E+02  0.10874626530E+03 -0.78144550623E+03  0.79335219066E+03  0.33220894032E+01 0.  0.
         13    1    3    3    0    0  0.15582492827E+01  0.20265867416E+01 -0.17429368676E+02  0.17615847612E+02  0.00000000000E+00 0.  1.
          1    1    3    3  501    0  0.81591210871E+02  0.10671967856E+03 -0.76401613756E+03  0.77573634305E+03  0.00000000000E+00 0.  1.
         -3    1    1    2    0  502 -0.83149460153E+02 -0.10874626530E+03 -0.19056507272E+03  0.23463723038E+03  0.00000000000E+00 0. -1.
<mgrwt>
<rscale>  1 0.30000000E+03</rscale>
<asrwt>0</asrwt>
<pdfrwt beam="1">  1       21 0.10177993E+00 0.30000000E+03</pdfrwt>
<pdfrwt beam="2">0</pdfrwt>
<totfact> 0.70410534E+01</totfact>
</mgrwt>
</event>
<event>
 6    1  0.1280499E-001  0.3000000E+03  0.7818608E-02  0.1093470E+00
         21   -1    0    0  501  502  0.00000000000E+00  0.00000000000E+00  0.53723446921E+01  0.53723446921E+01  0.00000000000E+00 0. -1.
         13   -1    0    0    0    0 -0.00000000000E+00 -0.00000000000E+00 -0.10000000000E+04  0.10000000000E+04  0.00000000000E+00 0.  1.
    9000005    2    1    2  501    0 -0.51482013670E+02  0.34441480532E+02 -0.76574266596E+03  0.76825433260E+03  0.40343232728E+01 0.  0.
         13    1    3    3    0    0 -0.22967012641E+02  0.13011406928E+02 -0.33048855560E+03  0.33154104688E+03  0.00000000000E+00 0.  1.
          3    1    3    3  501    0 -0.28515001030E+02  0.21430073604E+02 -0.43525411036E+03  0.43671328572E+03  0.00000000000E+00 0.  1.
         -1    1    1    2    0  502  0.51482013670E+02 -0.34441480532E+02 -0.22888498935E+03  0.23711801210E+03  0.00000000000E+00 0. -1.
<mgrwt>
<rscale>  1 0.30000000E+03</rscale>
<asrwt>0</asrwt>
<pdfrwt beam="1">  1       21 0.19535840E-01 0.30000000E+03</pdfrwt>
<pdfrwt beam="2">0</pdfrwt>
<totfact> 0.25090227E+03</totfact>
</mgrwt>
</event>
<event>
 6    1  0.1280499E-001  0.3000000E+03  0.7818608E-02  0.1093470E+00
         21   -1    0    0  501  502  0.00000000000E+00  0.00000000000E+00  0.16672958399E+01  0.16672958399E+01  0.00000000000E+00 0. -1.
         13   -1    0    0    0    0 -0.00000000000E+00 -0.00000000000E+00 -0.10000000000E+04  0.10000000000E+04  0.00000000000E+00 0.  1.
    9000005    2    1    2  501    0  0.34734322262E+02  0.11998943466E+02 -0.28450966618E+03  0.28689895760E+03  0.38488880963E+01 0.  0.
         13    1    3    3    0    0  0.22985425160E+02  0.60151318923E+01 -0.18523519139E+03  0.18675274485E+03  0.00000000000E+00 0.  1.
          3    1    3    3  501    0  0.11748897102E+02  0.59838115738E+01 -0.99274474786E+02  0.10014621275E+03  0.00000000000E+00 0.  1.
         -1    1    1    2    0  502 -0.34734322262E+02 -0.11998943466E+02 -0.71382303798E+03  0.71476833824E+03  0.00000000000E+00 0. -1.
<mgrwt>
<rscale>  1 0.30000000E+03</rscale>
<asrwt>0</asrwt>
<pdfrwt beam="1">  1       21 0.60629067E-02 0.30000000E+03</pdfrwt>
<pdfrwt beam="2">0</pdfrwt>
<totfact> 0.20695943E+04</totfact>
</mgrwt>
</event>
<event>
 6    1  0.1280499E-001  0.3000000E+03  0.7818608E-02  0.1093470E+00
         21   -1    0    0  501  502  0.00000000000E+00  0.00000000000E+00  0.37517744734E+01  0.37517744734E+01  0.00000000000E+00 0. -1.
         13   -1    0    0    0    0 -0.00000000000E+00 -0.00000000000E+00 -0.10000000000E+04  0.10000000000E+04  0.00000000000E+00 0.  1.
    9000005    2    1    2  501    0 -0.36130506590E+01  0.40082567482E+02 -0.12046659882E+03  0.12704593782E+03  0.29669063819E+01 0.  0.
         13    1    3    3    0    0 -0.14164381789E+01  0.80290807153E+01 -0.27574206710E+02  0.28754292026E+02  0.00000000000E+00 0.  1.
          1    1    3    3  501    0 -0.21966124801E+01  0.32053486767E+02 -0.92892392111E+02  0.98291645791E+02  0.00000000000E+00 0.  1.
         -1    1    1    2    0  502  0.36130506590E+01 -0.40082567482E+02 -0.87578162671E+03  0.87670583666E+03  0.00000000000E+00 0. -1.
<mgrwt>
<rscale>  1 0.30000000E+03</rscale>
<asrwt>0</asrwt>
<pdfrwt beam="1">  1       21 0.13642845E-01 0.30000000E+03</pdfrwt>
<pdfrwt beam="2">0</pdfrwt>
<totfact> 0.49038109E+03</totfact>
</mgrwt>
</event>
<event>
 6    1  0.1280499E-001  0.3000000E+03  0.7818608E-02  0.1093470E+00
         21   -1    0    0  501  502  0.00000000000E+00  0.00000000000E+00  0.24233612721E+01  0.24233612721E+01  0.00000000000E+00 0. -1.
         13   -1    0    0    0    0 -0.00000000000E+00 -0.00000000000E+00 -0.10000000000E+04  0.10000000000E+04  0.00000000000E+00 0.  1.
    9000005    2    1    2  501    0 -0.37099734719E+02 -0.16989736170E+02 -0.77882207826E+03  0.77989561204E+03  0.28800430288E+01 0.  0.
         13    1    3    3    0    0 -0.12758848709E+02 -0.73579354077E+01 -0.28259653725E+03  0.28298008817E+03  0.00000000000E+00 0.  1.
          1    1    3    3  501    0 -0.24340886010E+02 -0.96318007625E+01 -0.49622554101E+03  0.49691552387E+03  0.00000000000E+00 0.  1.
         -3    1    1    2    0  502  0.37099734719E+02  0.16989736170E+02 -0.21875456047E+03  0.22252774923E+03  0.00000000000E+00 0. -1.
<mgrwt>
<rscale>  1 0.30000000E+03</rscale>
<asrwt>0</asrwt>
<pdfrwt beam="1">  1       21 0.88122414E-02 0.30000000E+03</pdfrwt>
<pdfrwt beam="2">0</pdfrwt>
<totfact> 0.10772680E+04</totfact>
</mgrwt>
</event>
<event>
 6    1  0.1280499E-001  0.3000000E+03  0.7818608E-02  0.1093470E+00
         21   -1    0    0  501  502  0.00000000000E+00  0.00000000000E+00  0.10545715460E+01  0.10545715460E+01  0.00000000000E+00 0. -1.
         13   -1    0    0    0    0 -0.00000000000E+00 -0.00000000000E+00 -0.10000000000E+04  0.10000000000E+04  0.00000000000E+00 0.  1.
    9000005    2    1    2  501    0  0.21696655812E+02 -0.23984378655E+02 -0.47508057184E+03  0.47619231982E+03  0.34030018762E+01 0.  0.
         13    1    3    3    0    0  0.13302004187E+01 -0.29097766321E+01 -0.50998230850E+02  0.51098491006E+02  0.00000000000E+00 0.  1.
          1    1    3    3  501    0  0.20366455393E+02 -0.21074602022E+02 -0.42408234099E+03  0.42509382881E+03  0.00000000000E+00 0.  1.
         -3    1    1    2    0  502 -0.21696655812E+02  0.23984378655E+02 -0.52386485661E+03  0.52486225173E+03  0.00000000000E+00 0. -1.
<mgrwt>
<rscale>  1 0.30000000E+03</rscale>
<asrwt>0</asrwt>
<pdfrwt beam="1">  1       21 0.38348137E-02 0.30000000E+03</pdfrwt>
<pdfrwt beam="2">0</pdfrwt>
<totfact> 0.45138982E+04</totfact>
</mgrwt>
</event>
<event>
 6    1  0.1280499E-001  0.3000000E+03  0.7818608E-02  0.1093470E+00
         21   -1    0    0  501  502  0.00000000000E+00  0.00000000000E+00  0.57616140941E+01  0.57616140941E+01  0.00000000000E+00 0. -1.
         13   -1    0    0    0    0 -0.00000000000E+00 -0.00000000000E+00 -0.10000000000E+04  0.10000000000E+04  0.00000000000E+00 0.  1.
    9000005    2    1    2  501    0 -0.88266403961E+01  0.68703842144E+02 -0.70239384280E+03  0.70580934315E+03  0.34045503867E+01 0.  0.
         13    1    3    3    0    0 -0.21401332213E+01  0.26001476184E+02 -0.27610244492E+03  0.27733232236E+03  0.00000000000E+00 0.  1.
          1    1    3    3  501    0 -0.66865071748E+01  0.42702365960E+02 -0.42629139789E+03  0.42847702079E+03  0.00000000000E+00 0.  1.
         -1    1    1    2    0  502  0.88266403961E+01 -0.68703842144E+02 -0.29184454310E+03  0.29995227094E+03  0.00000000000E+00 0. -1.
<mgrwt>
<rscale>  1 0.30000000E+03</rscale>
<asrwt>0</asrwt>
<pdfrwt beam="1">  1       21 0.20951368E-01 0.30000000E+03</pdfrwt>
<pdfrwt beam="2">0</pdfrwt>
<totfact> 0.21951560E+03</totfact>
</mgrwt>
</event>
<event>
 6    1  0.1280499E-001  0.3000000E+03  0.7818608E-02  0.1093470E+00
         21   -1    0    0  501  502  0.00000000000E+00  0.00000000000E+00  0.13080811690E+01  0.13080811690E+01  0.00000000000E+00 0. -1.
         13   -1    0    0    0    0 -0.00000000000E+00 -0.00000000000E+00 -0.10000000000E+04  0.10000000000E+04  0.00000000000E+00 0.  1.
    9000005    2    1    2  501    0  0.24126507010E+02  0.22339145724E+02 -0.70481496489E+03  0.70559742896E+03  0.47403850017E+01 0.  0.
         13    1    3    3    0    0  0.95301066065E+01  0.10275661495E+02 -0.25627451934E+03  0.25665743982E+03  0.00000000000E+00 0.  1.
          1    1    3    3  501    0  0.14596400403E+02  0.12063484229E+02 -0.44854044555E+03  0.44893998914E+03  0.00000000000E+00 0.  1.
         -3    1    1    2    0  502 -0.24126507010E+02 -0.22339145724E+02 -0.29387695394E+03  0.29571065221E+03  0.00000000000E+00 0. -1.
<mgrwt>
<rscale>  1 0.30000000E+03</rscale>
<asrwt>0</asrwt>
<pdfrwt beam="1">  1       21 0.47566688E-02 0.30000000E+03</pdfrwt>
<pdfrwt beam="2">0</pdfrwt>
<totfact> 0.31358627E+04</totfact>
</mgrwt>
</event>
<event>
 6    1  0.1280499E-001  0.3000000E+03  0.7818608E-02  0.1093470E+00
         21   -1    0    0  501  502  0.00000000000E+00  0.00000000000E+00  0.12264619510E+02  0.12264619510E+02  0.00000000000E+00 0. -1.
         13   -1    0    0    0    0 -0.00000000000E+00 -0.00000000000E+00 -0.10000000000E+04  0.10000000000E+04  0.00000000000E+00 0.  1.
    9000005    2    1    2  501    0 -0.70259527496E+02 -0.58093791531E+01 -0.88416108782E+03  0.88697382100E+03  0.34029146961E+01 0.  0.
         13    1    3    3    0    0 -0.29742390433E+02 -0.77353075536E+00 -0.37313692809E+03  0.37432121933E+03  0.00000000000E+00 0.  1.
          3    1    3    3  501    0 -0.40517137062E+02 -0.50358483978E+01 -0.51102415973E+03  0.51265260166E+03  0.00000000000E+00 0.  1.
         -3    1    1    2    0  502  0.70259527496E+02  0.58093791531E+01 -0.10357429267E+03  0.12529079851E+03  0.00000000000E+00 0. -1.
<mgrwt>
<rscale>  1 0.30000000E+03</rscale>
<asrwt>0</asrwt>
<pdfrwt beam="1">  1       21 0.44598710E-01 0.30000000E+03</pdfrwt>
<pdfrwt beam="2">0</pdfrwt>
<totfact> 0.48015480E+02</totfact>
</mgrwt>
</event>
<event>
 6    1  0.1280499E-001  0.3000000E+03  0.7818608E-02  0.1093470E+00
         21   -1    0    0  501  502  0.00000000000E+00  0.00000000000E+00  0.12758131853E+01  0.12758131853E+01  0.00000000000E+00 0. -1.
         13   -1    0    0    0    0 -0.00000000000E+00 -0.00000000000E+00 -0.10000000000E+04  0.10000000000E+04  0.00000000000E+00 0.  1.
    9000005    2    1    2  501    0  0.94096908513E+01 -0.32147682989E+02 -0.67144183041E+03  0.67228378195E+03  0.30554939134E+01 0.  0.
         13    1    3    3    0    0 -0.57552017774E-01 -0.25353620239E+01 -0.55299295979E+02  0.55357416021E+02  0.00000000000E+00 0.  1.
          1    1    3    3  501    0  0.94672428691E+01 -0.29612320966E+02 -0.61614253443E+03  0.61692636593E+03  0.00000000000E+00 0.  1.
         -1    1    1    2    0  502 -0.94096908513E+01  0.32147682989E+02 -0.32728235641E+03  0.32899203124E+03  0.00000000000E+00 0. -1.
<mgrwt>
<rscale>  1 0.30000000E+03</rscale>
<asrwt>0</asrwt>
<pdfrwt beam="1">  1       21 0.46393305E-02 0.30000000E+03</pdfrwt>
<pdfrwt beam="2">0</pdfrwt>
<totfact> 0.32719011E+04</totfact>
</mgrwt>
</event>
<event>
 6    1  0.1280499E-001  0.3000000E+03  0.7818608E-02  0.1093470E+00
         21   -1    0    0  501  502  0.00000000000E+00  0.00000000000E+00  0.18009871854E+01  0.18009871854E+01  0.00000000000E+00 0. -1.
         13   -1    0    0    0    0 -0.00000000000E+00 -0.00000000000E+00 -0.10000000000E+04  0.10000000000E+04  0.00000000000E+00 0.  1.
    9000005    2    1    2  501    0 -0.43791894379E+01  0.41788223229E+02 -0.43292515166E+03  0.43496770393E+03  0.26988186498E+01 0.  0.
         13    1    3    3    0    0 -0.13501129130E+01  0.20711303514E+02 -0.22480178167E+03  0.22575788346E+03  0.00000000000E+00 0.  1.
          1    1    3    3  501    0 -0.30290765250E+01  0.21076919715E+02 -0.20812336999E+03  0.20920982048E+03  0.00000000000E+00 0.  1.
         -1    1    1    2    0  502  0.43791894379E+01 -0.41788223229E+02 -0.56527386115E+03  0.56683328325E+03  0.00000000000E+00 0. -1.
<mgrwt>
<rscale>  1 0.30000000E+03</rscale>
<asrwt>0</asrwt>
<pdfrwt beam="1">  1       21 0.65490581E-02 0.30000000E+03</pdfrwt>
<pdfrwt beam="2">0</pdfrwt>
<totfact> 0.18112651E+04</totfact>
</mgrwt>
</event>
<event>
 6    1  0.1280499E-001  0.3000000E+03  0.7818608E-02  0.1093470E+00
         21   -1    0    0  501  502  0.00000000000E+00  0.00000000000E+00  0.12236690001E+01  0.12236690001E+01  0.00000000000E+00 0. -1.
         13   -1    0    0    0    0 -0.00000000000E+00 -0.00000000000E+00 -0.10000000000E+04  0.10000000000E+04  0.00000000000E+00 0.  1.
    9000005    2    1    2  501    0 -0.19823314465E+02  0.27554580335E+02 -0.61452873861E+03  0.61547967235E+03  0.41758597964E+01 0.  0.
         13    1    3    3    0    0 -0.22392713331E+00  0.82257527947E+00 -0.29774297253E+02  0.29786499464E+02  0.00000000000E+00 0.  1.
          1    1    3    3  501    0 -0.19599387332E+02  0.26732005056E+02 -0.58475444136E+03  0.58569317289E+03  0.00000000000E+00 0.  1.
         -1    1    1    2    0  502  0.19823314465E+02 -0.27554580335E+02 -0.38424759239E+03  0.38574399665E+03  0.00000000000E+00 0. -1.
<mgrwt>
<rscale>  1 0.30000000E+03</rscale>
<asrwt>0</asrwt>
<pdfrwt beam="1">  1       21 0.44497148E-02 0.30000000E+03</pdfrwt>
<pdfrwt beam="2">0</pdfrwt>
<totfact> 0.35121270E+04</totfact>
</mgrwt>
</event>
<event>
 6    1  0.1280499E-001  0.3000000E+03  0.7818608E-02  0.1093470E+00
         21   -1    0    0  501  502  0.00000000000E+00  0.00000000000E+00  0.11397175346E+01  0.11397175346E+01  0.00000000000E+00 0. -1.
         13   -1    0    0    0    0 -0.00000000000E+00 -0.00000000000E+00 -0.10000000000E+04  0.10000000000E+04  0.00000000000E+00 0.  1.
    9000005    2    1    2  501    0 -0.16779556673E+02 -0.28352398174E+02 -0.39677968255E+03  0.39815840704E+03  0.32540148184E+01 0.  0.
         13    1    3    3    0    0 -0.12203468085E+02 -0.17567349996E+02 -0.25680694986E+03  0.25769622798E+03  0.00000000000E+00 0.  1.
          3    1    3    3  501    0 -0.45760885884E+01 -0.10785048178E+02 -0.13997273269E+03  0.14046217907E+03  0.00000000000E+00 0.  1.
         -1    1    1    2    0  502  0.16779556673E+02  0.28352398174E+02 -0.60208059992E+03  0.60298131049E+03  0.00000000000E+00 0. -1.
<mgrwt>
<rscale>  1 0.30000000E+03</rscale>
<asrwt>0</asrwt>
<pdfrwt beam="1">  1       21 0.41444361E-02 0.30000000E+03</pdfrwt>
<pdfrwt beam="2">0</pdfrwt>
<totfact> 0.39606881E+04</totfact>
</mgrwt>
</event>
<event>
 6    1  0.1280499E-001  0.3000000E+03  0.7818608E-02  0.1093470E+00
         21   -1    0    0  501  502  0.00000000000E+00  0.00000000000E+00  0.14698338712E+01  0.14698338712E+01  0.00000000000E+00 0. -1.
         13   -1    0    0    0    0 -0.00000000000E+00 -0.00000000000E+00 -0.10000000000E+04  0.10000000000E+04  0.00000000000E+00 0.  1.
    9000005    2    1    2  501    0 -0.33747201293E+02 -0.34946867987E+01 -0.73145356080E+03  0.73224687878E+03  0.31770196175E+01 0.  0.
         13    1    3    3    0    0 -0.15535325039E+02 -0.19569616578E+00 -0.34948325313E+03  0.34982842772E+03  0.00000000000E+00 0.  1.
          3    1    3    3  501    0 -0.18211876254E+02 -0.32989906329E+01 -0.38197030767E+03  0.38241845107E+03  0.00000000000E+00 0.  1.
         -1    1    1    2    0  502  0.33747201293E+02  0.34946867987E+01 -0.26707660533E+03  0.26922295509E+03  0.00000000000E+00 0. -1.
<mgrwt>
<rscale>  1 0.30000000E+03</rscale>
<asrwt>0</asrwt>
<pdfrwt beam="1">  1       21 0.53448617E-02 0.30000000E+03</pdfrwt>
<pdfrwt beam="2">0</pdfrwt>
<totfact> 0.25703535E+04</totfact>
</mgrwt>
</event>
<event>
 6    1  0.1280499E-001  0.3000000E+03  0.7818608E-02  0.1093470E+00
         21   -1    0    0  501  502  0.00000000000E+00  0.00000000000E+00  0.13161004152E+02  0.13161004152E+02  0.00000000000E+00 0. -1.
         13   -1    0    0    0    0 -0.00000000000E+00 -0.00000000000E+00 -0.10000000000E+04  0.10000000000E+04  0.00000000000E+00 0.  1.
    9000005    2    1    2  501    0  0.90895551315E+01  0.90172531422E+02 -0.80393194435E+03  0.80903189079E+03  0.35105166435E+01 0.  0.
         13    1    3    3    0    0  0.19196404496E+01  0.33944035072E+02 -0.29422451834E+03  0.29618229138E+03  0.00000000000E+00 0.  1.
          3    1    3    3  501    0  0.71699146819E+01  0.56228496350E+02 -0.50970742601E+03  0.51284959941E+03  0.00000000000E+00 0.  1.
         -1    1    1    2    0  502 -0.90895551315E+01 -0.90172531422E+02 -0.18290705150E+03  0.20412911336E+03  0.00000000000E+00 0. -1.
<mgrwt>
<rscale>  1 0.30000000E+03</rscale>
<asrwt>0</asrwt>
<pdfrwt beam="1">  1       21 0.47858298E-01 0.30000000E+03</pdfrwt>
<pdfrwt beam="2">0</pdfrwt>
<totfact> 0.41296159E+02</totfact>
</mgrwt>
</event>
<event>
 6    1  0.1280499E-001  0.3000000E+03  0.7818608E-02  0.1093470E+00
         21   -1    0    0  501  502  0.00000000000E+00  0.00000000000E+00  0.39969357450E+01  0.39969357450E+01  0.00000000000E+00 0. -1.
         13   -1    0    0    0    0 -0.00000000000E+00 -0.00000000000E+00 -0.10000000000E+04  0.10000000000E+04  0.00000000000E+00 0.  1.
    9000005    2    1    2  501    0  0.11050100556E+02  0.31948978302E+02 -0.92194398596E+03  0.92258693013E+03  0.65641797176E+01 0.  0.
         13    1    3    3    0    0  0.77530635703E+01  0.13312804778E+02 -0.37804401333E+03  0.37835778937E+03  0.00000000000E+00 0.  1.
          3    1    3    3  501    0  0.32970369855E+01  0.18636173524E+02 -0.54389997264E+03  0.54422914076E+03  0.00000000000E+00 0.  1.
         -3    1    1    2    0  502 -0.11050100556E+02 -0.31948978302E+02 -0.74059078291E+02  0.81410005615E+02  0.00000000000E+00 0. -1.
<mgrwt>
<rscale>  1 0.30000000E+03</rscale>
<asrwt>0</asrwt>
<pdfrwt beam="1">  1       21 0.14534342E-01 0.30000000E+03</pdfrwt>
<pdfrwt beam="2">0</pdfrwt>
<totfact> 0.43650936E+03</totfact>
</mgrwt>
</event>
<event>
 6    1  0.1280499E-001  0.3000000E+03  0.7818608E-02  0.1093470E+00
         21   -1    0    0  501  502  0.00000000000E+00  0.00000000000E+00  0.12841281658E+01  0.12841281658E+01  0.00000000000E+00 0. -1.
         13   -1    0    0    0    0 -0.00000000000E+00 -0.00000000000E+00 -0.10000000000E+04  0.10000000000E+04  0.00000000000E+00 0.  1.
    9000005    2    1    2  501    0 -0.34216708024E+02 -0.91313935214E-01 -0.64540876552E+03  0.64632398558E+03  0.33805755472E+01 0.  0.
         13    1    3    3    0    0 -0.25440121114E+01  0.64178434942E+00 -0.38939792542E+02  0.39028083837E+02  0.00000000000E+00 0.  1.
          3    1    3    3  501    0 -0.31672695913E+02 -0.73309828463E+00 -0.60646897297E+03  0.60729590175E+03  0.00000000000E+00 0.  1.
         -3    1    1    2    0  502  0.34216708024E+02  0.91313935214E-01 -0.35330710632E+03  0.35496014258E+03  0.00000000000E+00 0. -1.
<mgrwt>
<rscale>  1 0.30000000E+03</rscale>
<asrwt>0</asrwt>
<pdfrwt beam="1">  1       21 0.46695668E-02 0.30000000E+03</pdfrwt>
<pdfrwt beam="2">0</pdfrwt>
<totfact> 0.32359739E+04</totfact>
</mgrwt>
</event>
<event>
 6    1  0.1280499E-001  0.3000000E+03  0.7818608E-02  0.1093470E+00
         21   -1    0    0  501  502  0.00000000000E+00  0.00000000000E+00  0.16349185630E+01  0.16349185630E+01  0.00000000000E+00 0. -1.
         13   -1    0    0    0    0 -0.00000000000E+00 -0.00000000000E+00 -0.10000000000E+04  0.10000000000E+04  0.00000000000E+00 0.  1.
    9000005    2    1    2  501    0 -0.36074900759E+02 -0.12479034051E+02 -0.66268459809E+03  0.66379100245E+03  0.32393872663E+01 0.  0.
         13    1    3    3    0    0 -0.43093748440E+01 -0.25353985578E+01 -0.78911189785E+02  0.79069430444E+02  0.00000000000E+00 0.  1.
          1    1    3    3  501    0 -0.31765525915E+02 -0.99436354936E+01 -0.58377340831E+03  0.58472157201E+03  0.00000000000E+00 0.  1.
         -1    1    1    2    0  502  0.36074900759E+02  0.12479034051E+02 -0.33568048334E+03  0.33784391611E+03  0.00000000000E+00 0. -1.
<mgrwt>
<rscale>  1 0.30000000E+03</rscale>
<asrwt>0</asrwt>
<pdfrwt beam="1">  1       21 0.59451709E-02 0.30000000E+03</pdfrwt>
<pdfrwt beam="2">0</pdfrwt>
<totfact> 0.21407877E+04</totfact>
</mgrwt>
</event>
<event>
 6    1  0.1280499E-001  0.3000000E+03  0.7818608E-02  0.1093470E+00
         21   -1    0    0  501  502  0.00000000000E+00  0.00000000000E+00  0.65476536228E+01  0.65476536228E+01  0.00000000000E+00 0. -1.
         13   -1    0    0    0    0 -0.00000000000E+00 -0.00000000000E+00 -0.10000000000E+04  0.10000000000E+04  0.00000000000E+00 0.  1.
    9000005    2    1    2  501    0 -0.25588074299E+02 -0.62556800147E+02 -0.22437348875E+03  0.23450465480E+03  0.89926567489E+01 0.  0.
         13    1    3    3    0    0 -0.51292243377E+01 -0.93515951113E+01 -0.25975033302E+02  0.28079594521E+02  0.00000000000E+00 0.  1.
          1    1    3    3  501    0 -0.20458849962E+02 -0.53205205036E+02 -0.19839845545E+03  0.20642506028E+03  0.00000000000E+00 0.  1.
         -1    1    1    2    0  502  0.25588074299E+02  0.62556800147E+02 -0.76907885762E+03  0.77204299882E+03  0.00000000000E+00 0. -1.
<mgrwt>
<rscale>  1 0.30000000E+03</rscale>
<asrwt>0</asrwt>
<pdfrwt beam="1">  1       21 0.23809700E-01 0.30000000E+03</pdfrwt>
<pdfrwt beam="2">0</pdfrwt>
<totfact> 0.17152542E+03</totfact>
</mgrwt>
</event>
<event>
 6    1  0.1280499E-001  0.3000000E+03  0.7818608E-02  0.1093470E+00
         21   -1    0    0  501  502  0.00000000000E+00  0.00000000000E+00  0.52252655395E+01  0.52252655395E+01  0.00000000000E+00 0. -1.
         13   -1    0    0    0    0 -0.00000000000E+00 -0.00000000000E+00 -0.10000000000E+04  0.10000000000E+04  0.00000000000E+00 0.  1.
    9000005    2    1    2  501    0 -0.65266163945E+02 -0.16956809447E+02 -0.67795205505E+03  0.68130580683E+03  0.33775626299E+01 0.  0.
         13    1    3    3    0    0 -0.45404140543E+02 -0.10291943531E+02 -0.46179682385E+03  0.46413765910E+03  0.00000000000E+00 0.  1.
          3    1    3    3  501    0 -0.19862023402E+02 -0.66648659161E+01 -0.21615523120E+03  0.21716814772E+03  0.00000000000E+00 0.  1.
         -1    1    1    2    0  502  0.65266163945E+02  0.16956809447E+02 -0.31682267941E+03  0.32391945871E+03  0.00000000000E+00 0. -1.
<mgrwt>
<rscale>  1 0.30000000E+03</rscale>
<asrwt>0</asrwt>
<pdfrwt beam="1">  1       21 0.19001006E-01 0.30000000E+03</pdfrwt>
<pdfrwt beam="2">0</pdfrwt>
<totfact> 0.26448234E+03</totfact>
</mgrwt>
</event>
<event>
 6    1  0.1280499E-001  0.3000000E+03  0.7818608E-02  0.1093470E+00
         21   -1    0    0  501  502  0.00000000000E+00  0.00000000000E+00  0.12830886181E+01  0.12830886181E+01  0.00000000000E+00 0. -1.
         13   -1    0    0    0    0 -0.00000000000E+00 -0.00000000000E+00 -0.10000000000E+04  0.10000000000E+04  0.00000000000E+00 0.  1.
    9000005    2    1    2  501    0  0.24895354848E+02 -0.24850934642E+02 -0.42689946108E+03  0.42838471708E+03  0.57418036002E+01 0.  0.
         13    1    3    3    0    0  0.87456986147E+01 -0.86033957817E+01 -0.18347341559E+03  0.18388311475E+03  0.00000000000E+00 0.  1.
          1    1    3    3  501    0  0.16149656233E+02 -0.16247538860E+02 -0.24342604549E+03  0.24450160233E+03  0.00000000000E+00 0.  1.
         -3    1    1    2    0  502 -0.24895354848E+02  0.24850934642E+02 -0.57181745030E+03  0.57289837154E+03  0.00000000000E+00 0. -1.
<mgrwt>
<rscale>  1 0.30000000E+03</rscale>
<asrwt>0</asrwt>
<pdfrwt beam="1">  1       21 0.46657866E-02 0.30000000E+03</pdfrwt>
<pdfrwt beam="2">0</pdfrwt>
<totfact> 0.32404316E+04</totfact>
</mgrwt>
</event>
<event>
 6    1  0.1280499E-001  0.3000000E+03  0.7818608E-02  0.1093470E+00
         21   -1    0    0  501  502  0.00000000000E+00  0.00000000000E+00  0.11995181577E+01  0.11995181577E+01  0.00000000000E+00 0. -1.
         13   -1    0    0    0    0 -0.00000000000E+00 -0.00000000000E+00 -0.10000000000E+04  0.10000000000E+04  0.00000000000E+00 0.  1.
    9000005    2    1    2  501    0  0.30578071166E+02  0.24501426737E+01 -0.73059812696E+03  0.73124855076E+03  0.31302129882E+01 0.  0.
         13    1    3    3    0    0  0.71174299586E+01  0.12539284148E+01 -0.14629686444E+03  0.14647526307E+03  0.00000000000E+00 0.  1.
          3    1    3    3  501    0  0.23460641208E+02  0.11962142589E+01 -0.58430126252E+03  0.58477328769E+03  0.00000000000E+00 0.  1.
         -3    1    1    2    0  502 -0.30578071166E+02 -0.24501426737E+01 -0.26820235488E+03  0.26995096740E+03  0.00000000000E+00 0. -1.
<mgrwt>
<rscale>  1 0.30000000E+03</rscale>
<asrwt>0</asrwt>
<pdfrwt beam="1">  1       21 0.43618934E-02 0.30000000E+03</pdfrwt>
<pdfrwt beam="2">0</pdfrwt>
<totfact> 0.36327586E+04</totfact>
</mgrwt>
</event>
<event>
 6    1  0.1280499E-001  0.3000000E+03  0.7818608E-02  0.1093470E+00
         21   -1    0    0  501  502  0.00000000000E+00  0.00000000000E+00  0.13496195922E+01  0.13496195922E+01  0.00000000000E+00 0. -1.
         13   -1    0    0    0    0 -0.00000000000E+00 -0.00000000000E+00 -0.10000000000E+04  0.10000000000E+04  0.00000000000E+00 0.  1.
    9000005    2    1    2  501    0  0.82029358582E+01  0.35454487172E+02 -0.52776500636E+03  0.52906014871E+03  0.66655977939E+01 0.  0.
         13    1    3    3    0    0  0.55979796660E+01  0.11542985703E+02 -0.20390598326E+03  0.20430914787E+03  0.00000000000E+00 0.  1.
          3    1    3    3  501    0  0.26049561922E+01  0.23911501470E+02 -0.32385902311E+03  0.32475100084E+03  0.00000000000E+00 0.  1.
         -1    1    1    2    0  502 -0.82029358582E+01 -0.35454487172E+02 -0.47088537405E+03  0.47228947089E+03  0.00000000000E+00 0. -1.
<mgrwt>
<rscale>  1 0.30000000E+03</rscale>
<asrwt>0</asrwt>
<pdfrwt beam="1">  1       21 0.49077180E-02 0.30000000E+03</pdfrwt>
<pdfrwt beam="2">0</pdfrwt>
<totfact> 0.29733665E+04</totfact>
</mgrwt>
</event>
<event>
 6    1  0.1280499E-001  0.3000000E+03  0.7818608E-02  0.1093470E+00
         21   -1    0    0  501  502  0.00000000000E+00  0.00000000000E+00  0.23188838716E+01  0.23188838716E+01  0.00000000000E+00 0. -1.
         13   -1    0    0    0    0 -0.00000000000E+00 -0.00000000000E+00 -0.10000000000E+04  0.10000000000E+04  0.00000000000E+00 0.  1.
    9000005    2    1    2  501    0 -0.10086823695E+02  0.32124664227E+02 -0.85667326317E+03  0.85734663597E+03  0.45206554005E+01 0.  0.
         13    1    3    3    0    0 -0.64028731550E+01  0.19729692877E+02 -0.58124663947E+03  0.58161663788E+03  0.00000000000E+00 0.  1.
          3    1    3    3  501    0 -0.36839505401E+01  0.12394971350E+02 -0.27542662370E+03  0.27572999810E+03  0.00000000000E+00 0.  1.
         -1    1    1    2    0  502  0.10086823695E+02 -0.32124664227E+02 -0.14100785296E+03  0.14497224790E+03  0.00000000000E+00 0. -1.
<mgrwt>
<rscale>  1 0.30000000E+03</rscale>
<asrwt>0</asrwt>
<pdfrwt beam="1">  1       21 0.84323228E-02 0.30000000E+03</pdfrwt>
<pdfrwt beam="2">0</pdfrwt>
<totfact> 0.11644202E+04</totfact>
</mgrwt>
</event>
<event>
 6    1  0.1280499E-001  0.3000000E+03  0.7818608E-02  0.1093470E+00
         21   -1    0    0  501  502  0.00000000000E+00  0.00000000000E+00  0.33195469368E+01  0.33195469368E+01  0.00000000000E+00 0. -1.
         13   -1    0    0    0    0 -0.00000000000E+00 -0.00000000000E+00 -0.10000000000E+04  0.10000000000E+04  0.00000000000E+00 0.  1.
    9000005    2    1    2  501    0 -0.36787478887E+02  0.19091523535E+02 -0.84663841484E+03  0.84765831828E+03  0.31959642453E+01 0.  0.
         13    1    3    3    0    0 -0.20349122288E+02  0.90285196246E+01 -0.47067787740E+03  0.47120405900E+03  0.00000000000E+00 0.  1.
          1    1    3    3  501    0 -0.16438356599E+02  0.10063003910E+02 -0.37596053745E+03  0.37645425928E+03  0.00000000000E+00 0.  1.
         -1    1    1    2    0  502  0.36787478887E+02 -0.19091523535E+02 -0.15004203822E+03  0.15566122866E+03  0.00000000000E+00 0. -1.
<mgrwt>
<rscale>  1 0.30000000E+03</rscale>
<asrwt>0</asrwt>
<pdfrwt beam="1">  1       21 0.12071105E-01 0.30000000E+03</pdfrwt>
<pdfrwt beam="2">0</pdfrwt>
<totfact> 0.61310037E+03</totfact>
</mgrwt>
</event>
<event>
 6    1  0.1280499E-001  0.3000000E+03  0.7818608E-02  0.1093470E+00
         21   -1    0    0  501  502  0.00000000000E+00  0.00000000000E+00  0.12952641817E+01  0.12952641817E+01  0.00000000000E+00 0. -1.
         13   -1    0    0    0    0 -0.00000000000E+00 -0.00000000000E+00 -0.10000000000E+04  0.10000000000E+04  0.00000000000E+00 0.  1.
    9000005    2    1    2  501    0  0.30102755881E+02 -0.12564041479E+02 -0.70938124715E+03  0.71013875620E+03  0.33568120404E+01 0.  0.
         13    1    3    3    0    0  0.29106205979E+02 -0.12248353318E+02 -0.67016439142E+03  0.67090797052E+03  0.00000000000E+00 0.  1.
          3    1    3    3  501    0  0.99654990133E+00 -0.31568816172E+00 -0.39216855735E+02  0.39230785672E+02  0.00000000000E+00 0.  1.
         -1    1    1    2    0  502 -0.30102755881E+02  0.12564041479E+02 -0.28932348866E+03  0.29115650799E+03  0.00000000000E+00 0. -1.
<mgrwt>
<rscale>  1 0.30000000E+03</rscale>
<asrwt>0</asrwt>
<pdfrwt beam="1">  1       21 0.47100615E-02 0.30000000E+03</pdfrwt>
<pdfrwt beam="2">0</pdfrwt>
<totfact> 0.31888177E+04</totfact>
</mgrwt>
</event>
<event>
 6    1  0.1280499E-001  0.3000000E+03  0.7818608E-02  0.1093470E+00
         21   -1    0    0  501  502  0.00000000000E+00  0.00000000000E+00  0.15309591199E+01  0.15309591199E+01  0.00000000000E+00 0. -1.
         13   -1    0    0    0    0 -0.00000000000E+00 -0.00000000000E+00 -0.10000000000E+04  0.10000000000E+04  0.00000000000E+00 0.  1.
    9000005    2    1    2  501    0  0.25713146099E+02 -0.29395580152E+02 -0.50884583069E+03  0.51035262697E+03  0.32339498835E+01 0.  0.
         13    1    3    3    0    0  0.19898460390E+02 -0.21298630038E+02 -0.36520345805E+03  0.36636477197E+03  0.00000000000E+00 0.  1.
          1    1    3    3  501    0  0.58146857087E+01 -0.80969501140E+01 -0.14364237264E+03  0.14398785501E+03  0.00000000000E+00 0.  1.
         -1    1    1    2    0  502 -0.25713146099E+02  0.29395580152E+02 -0.48962321019E+03  0.49117833215E+03  0.00000000000E+00 0. -1.
<mgrwt>
<rscale>  1 0.30000000E+03</rscale>
<asrwt>0</asrwt>
<pdfrwt beam="1">  1       21 0.55671358E-02 0.30000000E+03</pdfrwt>
<pdfrwt beam="2">0</pdfrwt>
<totfact> 0.23970034E+04</totfact>
</mgrwt>
</event>
<event>
 6    1  0.1280499E-001  0.3000000E+03  0.7818608E-02  0.1093470E+00
         21   -1    0    0  501  502  0.00000000000E+00  0.00000000000E+00  0.21637222576E+01  0.21637222576E+01  0.00000000000E+00 0. -1.
         13   -1    0    0    0    0 -0.00000000000E+00 -0.00000000000E+00 -0.10000000000E+04  0.10000000000E+04  0.00000000000E+00 0.  1.
    9000005    2    1    2  501    0 -0.12250181815E+02  0.31049083253E+02 -0.84698043372E+03  0.84765935921E+03  0.60350331168E+01 0.  0.
         13    1    3    3    0    0 -0.12427913711E+02  0.27135048704E+02 -0.77187393311E+03  0.77245073145E+03  0.00000000000E+00 0.  1.
          3    1    3    3  501    0  0.17773189610E+00  0.39140345491E+01 -0.75106500612E+02  0.75208627758E+02  0.00000000000E+00 0.  1.
         -3    1    1    2    0  502  0.12250181815E+02 -0.31049083253E+02 -0.15085584402E+03  0.15450436305E+03  0.00000000000E+00 0. -1.
<mgrwt>
<rscale>  1 0.30000000E+03</rscale>
<asrwt>0</asrwt>
<pdfrwt beam="1">  1       21 0.78680975E-02 0.30000000E+03</pdfrwt>
<pdfrwt beam="2">0</pdfrwt>
<totfact> 0.13152208E+04</totfact>
</mgrwt>
</event>
<event>
 6    1  0.1280499E-001  0.3000000E+03  0.7818608E-02  0.1093470E+00
         21   -1    0    0  501  502  0.00000000000E+00  0.00000000000E+00  0.39420199220E+01  0.39420199220E+01  0.00000000000E+00 0. -1.
         13   -1    0    0    0    0 -0.00000000000E+00 -0.00000000000E+00 -0.10000000000E+04  0.10000000000E+04  0.00000000000E+00 0.  1.
    9000005    2    1    2  501    0  0.54753866986E+02 -0.30284992455E+02 -0.53580688862E+03  0.53945710746E+03  0.31276471850E+01 0.  0.
         13    1    3    3    0    0  0.44260434248E+02 -0.24331159470E+02 -0.42151744794E+03  0.42453262569E+03  0.00000000000E+00 0.  1.
          1    1    3    3  501    0  0.10493432739E+02 -0.59538329850E+01 -0.11428944068E+03  0.11492448177E+03  0.00000000000E+00 0.  1.
         -1    1    1    2    0  502 -0.54753866986E+02  0.30284992455E+02 -0.46025109146E+03  0.46448491247E+03  0.00000000000E+00 0. -1.
<mgrwt>
<rscale>  1 0.30000000E+03</rscale>
<asrwt>0</asrwt>
<pdfrwt beam="1">  1       21 0.14334648E-01 0.30000000E+03</pdfrwt>
<pdfrwt beam="2">0</pdfrwt>
<totfact> 0.44778190E+03</totfact>
</mgrwt>
</event>
<event>
 6    1  0.1280499E-001  0.3000000E+03  0.7818608E-02  0.1093470E+00
         21   -1    0    0  501  502  0.00000000000E+00  0.00000000000E+00  0.26514553919E+01  0.26514553919E+01  0.00000000000E+00 0. -1.
         13   -1    0    0    0    0 -0.00000000000E+00 -0.00000000000E+00 -0.10000000000E+04  0.10000000000E+04  0.00000000000E+00 0.  1.
    9000005    2    1    2  501    0  0.51292687198E+02  0.19917085544E+01 -0.51309079624E+03  0.51568074424E+03  0.54367391986E+01 0.  0.
         13    1    3    3    0    0  0.40682545406E+02  0.34304900284E+01 -0.39403590917E+03  0.39614534640E+03  0.00000000000E+00 0.  1.
          1    1    3    3  501    0  0.10610141793E+02 -0.14387814740E+01 -0.11905488707E+03  0.11953539784E+03  0.00000000000E+00 0.  1.
         -3    1    1    2    0  502 -0.51292687198E+02 -0.19917085544E+01 -0.48425774837E+03  0.48697071115E+03  0.00000000000E+00 0. -1.
<mgrwt>
<rscale>  1 0.30000000E+03</rscale>
<asrwt>0</asrwt>
<pdfrwt beam="1">  1       21 0.96416763E-02 0.30000000E+03</pdfrwt>
<pdfrwt beam="2">0</pdfrwt>
<totfact> 0.91822144E+03</totfact>
</mgrwt>
</event>
<event>
 6    1  0.1280499E-001  0.3000000E+03  0.7818608E-02  0.1093470E+00
         21   -1    0    0  501  502  0.00000000000E+00  0.00000000000E+00  0.82377001583E+01  0.82377001583E+01  0.00000000000E+00 0. -1.
         13   -1    0    0    0    0 -0.00000000000E+00 -0.00000000000E+00 -0.10000000000E+04  0.10000000000E+04  0.00000000000E+00 0.  1.
    9000005    2    1    2  501    0  0.39282735390E+02  0.98389789924E+01 -0.94701387605E+03  0.94788573052E+03  0.34839468919E+01 0.  0.
         13    1    3    3    0    0  0.19041648856E+01 -0.20816880496E+00 -0.38130383474E+02  0.38178466732E+02  0.00000000000E+00 0.  1.
          1    1    3    3  501    0  0.37378570504E+02  0.10047147797E+02 -0.90888349258E+03  0.90970726379E+03  0.00000000000E+00 0.  1.
         -3    1    1    2    0  502 -0.39282735390E+02 -0.98389789924E+01 -0.44748423791E+02  0.60351969637E+02  0.00000000000E+00 0. -1.
<mgrwt>
<rscale>  1 0.30000000E+03</rscale>
<asrwt>0</asrwt>
<pdfrwt beam="1">  1       21 0.29955336E-01 0.30000000E+03</pdfrwt>
<pdfrwt beam="2">0</pdfrwt>
<totfact> 0.10905246E+03</totfact>
</mgrwt>
</event>
<event>
 6    1  0.1280499E-001  0.3000000E+03  0.7818608E-02  0.1093470E+00
         21   -1    0    0  501  502  0.00000000000E+00  0.00000000000E+00  0.24039223065E+01  0.24039223065E+01  0.00000000000E+00 0. -1.
         13   -1    0    0    0    0 -0.00000000000E+00 -0.00000000000E+00 -0.10000000000E+04  0.10000000000E+04  0.00000000000E+00 0.  1.
    9000005    2    1    2  501    0 -0.41495510855E+02  0.22373989640E+02 -0.63533732419E+03  0.63709052627E+03  0.28896921999E+01 0.  0.
         13    1    3    3    0    0 -0.33494457140E+02  0.19312248324E+02 -0.52207015262E+03  0.52349984322E+03  0.00000000000E+00 0.  1.
          1    1    3    3  501    0 -0.80010537145E+01  0.30617413154E+01 -0.11326717156E+03  0.11359068304E+03  0.00000000000E+00 0.  1.
         -1    1    1    2    0  502  0.41495510855E+02 -0.22373989640E+02 -0.36225875351E+03  0.36531339604E+03  0.00000000000E+00 0. -1.
<mgrwt>
<rscale>  1 0.30000000E+03</rscale>
<asrwt>0</asrwt>
<pdfrwt beam="1">  1       21 0.87415541E-02 0.30000000E+03</pdfrwt>
<pdfrwt beam="2">0</pdfrwt>
<totfact> 0.10927152E+04</totfact>
</mgrwt>
</event>
<event>
 6    1  0.1280499E-001  0.3000000E+03  0.7818608E-02  0.1093470E+00
         21   -1    0    0  501  502  0.00000000000E+00  0.00000000000E+00  0.14995851301E+01  0.14995851301E+01  0.00000000000E+00 0. -1.
         13   -1    0    0    0    0 -0.00000000000E+00 -0.00000000000E+00 -0.10000000000E+04  0.10000000000E+04  0.00000000000E+00 0.  1.
    9000005    2    1    2  501    0  0.20311160924E+02 -0.32386884858E+02 -0.56905526510E+03  0.57035623283E+03  0.45699042390E+01 0.  0.
         13    1    3    3    0    0 -0.11521612750E+00  0.78498585700E-01 -0.26913384138E+01  0.26949469831E+01  0.00000000000E+00 0.  1.
          3    1    3    3  501    0  0.20426377052E+02 -0.32465383444E+02 -0.56636392668E+03  0.56766128585E+03  0.00000000000E+00 0.  1.
         -3    1    1    2    0  502 -0.20311160924E+02  0.32386884858E+02 -0.42944514977E+03  0.43114335230E+03  0.00000000000E+00 0. -1.
<mgrwt>
<rscale>  1 0.30000000E+03</rscale>
<asrwt>0</asrwt>
<pdfrwt beam="1">  1       21 0.54530483E-02 0.30000000E+03</pdfrwt>
<pdfrwt beam="2">0</pdfrwt>
<totfact> 0.24836473E+04</totfact>
</mgrwt>
</event>
<event>
 6    1  0.1280499E-001  0.3000000E+03  0.7818608E-02  0.1093470E+00
         21   -1    0    0  501  502  0.00000000000E+00  0.00000000000E+00  0.14058005160E+01  0.14058005160E+01  0.00000000000E+00 0. -1.
         13   -1    0    0    0    0 -0.00000000000E+00 -0.00000000000E+00 -0.10000000000E+04  0.10000000000E+04  0.00000000000E+00 0.  1.
    9000005    2    1    2  501    0 -0.17801670053E+02  0.29899166295E+02 -0.31649010074E+03  0.31841468701E+03  0.33270763170E+01 0.  0.
         13    1    3    3    0    0 -0.97455596441E+01  0.13133252681E+02 -0.14689531054E+03  0.14780287723E+03  0.00000000000E+00 0.  1.
          1    1    3    3  501    0 -0.80561104086E+01  0.16765913614E+02 -0.16959479020E+03  0.17061180978E+03  0.00000000000E+00 0.  1.
         -3    1    1    2    0  502  0.17801670053E+02 -0.29899166295E+02 -0.68210409874E+03  0.68299111350E+03  0.00000000000E+00 0. -1.
<mgrwt>
<rscale>  1 0.30000000E+03</rscale>
<asrwt>0</asrwt>
<pdfrwt beam="1">  1       21 0.51120127E-02 0.30000000E+03</pdfrwt>
<pdfrwt beam="2">0</pdfrwt>
<totfact> 0.27736439E+04</totfact>
</mgrwt>
</event>
<event>
 6    1  0.1280499E-001  0.3000000E+03  0.7818608E-02  0.1093470E+00
         21   -1    0    0  501  502  0.00000000000E+00  0.00000000000E+00  0.26086550577E+01  0.26086550577E+01  0.00000000000E+00 0. -1.
         13   -1    0    0    0    0 -0.00000000000E+00 -0.00000000000E+00 -0.10000000000E+04  0.10000000000E+04  0.00000000000E+00 0.  1.
    9000005    2    1    2  501    0  0.37038462377E+01  0.37309255455E+02 -0.83897519323E+03  0.83981622236E+03  0.24926828801E+01 0.  0.
         13    1    3    3    0    0 -0.12563479724E-01  0.46453173513E+00 -0.58525889764E+01  0.58710088827E+01  0.00000000000E+00 0.  1.
          1    1    3    3  501    0  0.37164097174E+01  0.36844723720E+02 -0.83312260425E+03  0.83394521347E+03  0.00000000000E+00 0.  1.
         -1    1    1    2    0  502 -0.37038462377E+01 -0.37309255455E+02 -0.15841615172E+03  0.16279243270E+03  0.00000000000E+00 0. -1.
<mgrwt>
<rscale>  1 0.30000000E+03</rscale>
<asrwt>0</asrwt>
<pdfrwt beam="1">  1       21 0.94860384E-02 0.30000000E+03</pdfrwt>
<pdfrwt beam="2">0</pdfrwt>
<totfact> 0.94524538E+03</totfact>
</mgrwt>
</event>
<event>
 6    1  0.1280499E-001  0.3000000E+03  0.7818608E-02  0.1093470E+00
         21   -1    0    0  501  502  0.00000000000E+00  0.00000000000E+00  0.12715222461E+01  0.12715222461E+01  0.00000000000E+00 0. -1.
         13   -1    0    0    0    0 -0.00000000000E+00 -0.00000000000E+00 -0.10000000000E+04  0.10000000000E+04  0.00000000000E+00 0.  1.
    9000005    2    1    2  501    0  0.98195718584E+01 -0.32833933400E+02 -0.63273718573E+03  0.63367919777E+03  0.42998036196E+01 0.  0.
         13    1    3    3    0    0  0.28827843537E+01 -0.16841069313E+02 -0.30213676279E+03  0.30261948961E+03  0.00000000000E+00 0.  1.
          1    1    3    3  501    0  0.69367875047E+01 -0.15992864087E+02 -0.33060042294E+03  0.33105970816E+03  0.00000000000E+00 0.  1.
         -3    1    1    2    0  502 -0.98195718584E+01  0.32833933400E+02 -0.36599129203E+03  0.36759232447E+03  0.00000000000E+00 0. -1.
<mgrwt>
<rscale>  1 0.30000000E+03</rscale>
<asrwt>0</asrwt>
<pdfrwt beam="1">  1       21 0.46237270E-02 0.30000000E+03</pdfrwt>
<pdfrwt beam="2">0</pdfrwt>
<totfact> 0.32906866E+04</totfact>
</mgrwt>
</event>
<event>
 6    1  0.1280499E-001  0.3000000E+03  0.7818608E-02  0.1093470E+00
         21   -1    0    0  501  502  0.00000000000E+00  0.00000000000E+00  0.11540547233E+01  0.11540547233E+01  0.00000000000E+00 0. -1.
         13   -1    0    0    0    0 -0.00000000000E+00 -0.00000000000E+00 -0.10000000000E+04  0.10000000000E+04  0.00000000000E+00 0.  1.
    9000005    2    1    2  501    0  0.18739289818E+02 -0.25252633089E+02 -0.68686680390E+03  0.68759410652E+03  0.32852040226E+01 0.  0.
         13    1    3    3    0    0  0.18032948176E+02 -0.25032004474E+02 -0.67450023904E+03  0.67520542129E+03  0.00000000000E+00 0.  1.
          3    1    3    3  501    0  0.70634164206E+00 -0.22062861459E+00 -0.12366564856E+02  0.12388685234E+02  0.00000000000E+00 0.  1.
         -1    1    1    2    0  502 -0.18739289818E+02  0.25252633089E+02 -0.31197914138E+03  0.31355994820E+03  0.00000000000E+00 0. -1.
<mgrwt>
<rscale>  1 0.30000000E+03</rscale>
<asrwt>0</asrwt>
<pdfrwt beam="1">  1       21 0.41965715E-02 0.30000000E+03</pdfrwt>
<pdfrwt beam="2">0</pdfrwt>
<totfact> 0.38779898E+04</totfact>
</mgrwt>
</event>
<event>
 6    1  0.1280499E-001  0.3000000E+03  0.7818608E-02  0.1093470E+00
         21   -1    0    0  501  502  0.00000000000E+00  0.00000000000E+00  0.12875355710E+01  0.12875355710E+01  0.00000000000E+00 0. -1.
         13   -1    0    0    0    0 -0.00000000000E+00 -0.00000000000E+00 -0.10000000000E+04  0.10000000000E+04  0.00000000000E+00 0.  1.
    9000005    2    1    2  501    0 -0.10433832462E+02  0.33904386816E+02 -0.43383402361E+03  0.43529634729E+03  0.35464941316E+01 0.  0.
         13    1    3    3    0    0 -0.10606439558E+02  0.33057813048E+02 -0.41827001547E+03  0.41970837662E+03  0.00000000000E+00 0.  1.
          3    1    3    3  501    0  0.17260709644E+00  0.84657376752E+00 -0.15564008136E+02  0.15587970670E+02  0.00000000000E+00 0.  1.
         -1    1    1    2    0  502  0.10433832462E+02 -0.33904386816E+02 -0.56487844082E+03  0.56599118828E+03  0.00000000000E+00 0. -1.
<mgrwt>
<rscale>  1 0.30000000E+03</rscale>
<asrwt>0</asrwt>
<pdfrwt beam="1">  1       21 0.46819574E-02 0.30000000E+03</pdfrwt>
<pdfrwt beam="2">0</pdfrwt>
<totfact> 0.32214296E+04</totfact>
</mgrwt>
</event>
<event>
 6    1  0.1280499E-001  0.3000000E+03  0.7818608E-02  0.1093470E+00
         21   -1    0    0  501  502  0.00000000000E+00  0.00000000000E+00  0.13513180332E+01  0.13513180332E+01  0.00000000000E+00 0. -1.
         13   -1    0    0    0    0 -0.00000000000E+00 -0.00000000000E+00 -0.10000000000E+04  0.10000000000E+04  0.00000000000E+00 0.  1.
    9000005    2    1    2  501    0  0.81947770772E+01  0.30626699918E+02 -0.75158223844E+03  0.75225901258E+03  0.35513025085E+01 0.  0.
         13    1    3    3    0    0  0.57524457876E+01  0.25558112932E+02 -0.63767382002E+03  0.63821172702E+03  0.00000000000E+00 0.  1.
          1    1    3    3  501    0  0.24423312896E+01  0.50685869859E+01 -0.11390841842E+03  0.11404728555E+03  0.00000000000E+00 0.  1.
         -1    1    1    2    0  502 -0.81947770772E+01 -0.30626699918E+02 -0.24706644353E+03  0.24909230546E+03  0.00000000000E+00 0. -1.
<mgrwt>
<rscale>  1 0.30000000E+03</rscale>
<asrwt>0</asrwt>
<pdfrwt beam="1">  1       21 0.49138941E-02 0.30000000E+03</pdfrwt>
<pdfrwt beam="2">0</pdfrwt>
<totfact> 0.29670039E+04</totfact>
</mgrwt>
</event>
<event>
 6    1  0.1280499E-001  0.3000000E+03  0.7818608E-02  0.1093470E+00
         21   -1    0    0  501  502  0.00000000000E+00  0.00000000000E+00  0.14296925687E+01  0.14296925687E+01  0.00000000000E+00 0. -1.
         13   -1    0    0    0    0 -0.00000000000E+00 -0.00000000000E+00 -0.10000000000E+04  0.10000000000E+04  0.00000000000E+00 0.  1.
    9000005    2    1    2  501    0  0.82680687767E+01 -0.29146598292E+02 -0.20385417923E+03  0.20613628157E+03  0.42136726255E+01 0.  0.
         13    1    3    3    0    0  0.57126476332E+01 -0.12943902933E+02 -0.89382963152E+02  0.90495817959E+02  0.00000000000E+00 0.  1.
          1    1    3    3  501    0  0.25554211435E+01 -0.16202695360E+02 -0.11447121608E+03  0.11564046361E+03  0.00000000000E+00 0.  1.
         -1    1    1    2    0  502 -0.82680687767E+01  0.29146598292E+02 -0.79471612820E+03  0.79529341100E+03  0.00000000000E+00 0. -1.
<mgrwt>
<rscale>  1 0.30000000E+03</rscale>
<asrwt>0</asrwt>
<pdfrwt beam="1">  1       21 0.51988930E-02 0.30000000E+03</pdfrwt>
<pdfrwt beam="2">0</pdfrwt>
<totfact> 0.26949683E+04</totfact>
</mgrwt>
</event>
<event>
 6    1  0.1280499E-001  0.3000000E+03  0.7818608E-02  0.1093470E+00
         21   -1    0    0  501  502  0.00000000000E+00  0.00000000000E+00  0.22211333167E+01  0.22211333167E+01  0.00000000000E+00 0. -1.
         13   -1    0    0    0    0 -0.00000000000E+00 -0.00000000000E+00 -0.10000000000E+04  0.10000000000E+04  0.00000000000E+00 0.  1.
    9000005    2    1    2  501    0 -0.38772542877E+02  0.26638602114E+02 -0.50779272072E+03  0.50998201618E+03  0.39095277040E+01 0.  0.
         13    1    3    3    0    0 -0.18342450470E+02  0.12452397786E+02 -0.26045247675E+03  0.26139433878E+03  0.00000000000E+00 0.  1.
          3    1    3    3  501    0 -0.20430092407E+02  0.14186204328E+02 -0.24734024397E+03  0.24858767740E+03  0.00000000000E+00 0.  1.
         -1    1    1    2    0  502  0.38772542877E+02 -0.26638602114E+02 -0.48998614597E+03  0.49223911714E+03  0.00000000000E+00 0. -1.
<mgrwt>
<rscale>  1 0.30000000E+03</rscale>
<asrwt>0</asrwt>
<pdfrwt beam="1">  1       21 0.80768655E-02 0.30000000E+03</pdfrwt>
<pdfrwt beam="2">0</pdfrwt>
<totfact> 0.12561055E+04</totfact>
</mgrwt>
</event>
<event>
 6    1  0.1280499E-001  0.3000000E+03  0.7818608E-02  0.1093470E+00
         21   -1    0    0  501  502  0.00000000000E+00  0.00000000000E+00  0.81190432553E+01  0.81190432553E+01  0.00000000000E+00 0. -1.
         13   -1    0    0    0    0 -0.00000000000E+00 -0.00000000000E+00 -0.10000000000E+04  0.10000000000E+04  0.00000000000E+00 0.  1.
    9000005    2    1    2  501    0  0.34014945823E+02 -0.95656534344E+01 -0.95961556237E+03  0.96026955068E+03  0.26578501833E+01 0.  0.
         13    1    3    3    0    0  0.11056281260E+02 -0.20075649153E+01 -0.32205292660E+03  0.32224890877E+03  0.00000000000E+00 0.  1.
          1    1    3    3  501    0  0.22958664563E+02 -0.75580885191E+01 -0.63756263576E+03  0.63802064191E+03  0.00000000000E+00 0.  1.
         -3    1    1    2    0  502 -0.34014945823E+02  0.95656534344E+01 -0.32265394376E+02  0.47849492570E+02  0.00000000000E+00 0. -1.
<mgrwt>
<rscale>  1 0.30000000E+03</rscale>
<asrwt>0</asrwt>
<pdfrwt beam="1">  1       21 0.29523856E-01 0.30000000E+03</pdfrwt>
<pdfrwt beam="2">0</pdfrwt>
<totfact> 0.11225998E+03</totfact>
</mgrwt>
</event>
<event>
 6    1  0.1280499E-001  0.3000000E+03  0.7818608E-02  0.1093470E+00
         21   -1    0    0  501  502  0.00000000000E+00  0.00000000000E+00  0.15727614314E+01  0.15727614314E+01  0.00000000000E+00 0. -1.
         13   -1    0    0    0    0 -0.00000000000E+00 -0.00000000000E+00 -0.10000000000E+04  0.10000000000E+04  0.00000000000E+00 0.  1.
    9000005    2    1    2  501    0 -0.20299376942E+02  0.31179613266E+02 -0.67003495927E+03  0.67107961159E+03  0.40945650836E+01 0.  0.
         13    1    3    3    0    0 -0.16746714342E+02  0.23383361382E+02 -0.49457133200E+03  0.49540694027E+03  0.00000000000E+00 0.  1.
          3    1    3    3  501    0 -0.35526626003E+01  0.77962518841E+01 -0.17546362727E+03  0.17567267133E+03  0.00000000000E+00 0.  1.
         -1    1    1    2    0  502  0.20299376942E+02 -0.31179613266E+02 -0.32839227930E+03  0.33049314984E+03  0.00000000000E+00 0. -1.
<mgrwt>
<rscale>  1 0.30000000E+03</rscale>
<asrwt>0</asrwt>
<pdfrwt beam="1">  1       21 0.57191445E-02 0.30000000E+03</pdfrwt>
<pdfrwt beam="2">0</pdfrwt>
<totfact> 0.22885907E+04</totfact>
</mgrwt>
</event>
<event>
 6    1  0.1280499E-001  0.3000000E+03  0.7818608E-02  0.1093470E+00
         21   -1    0    0  501  502  0.00000000000E+00  0.00000000000E+00  0.36100401741E+01  0.36100401741E+01  0.00000000000E+00 0. -1.
         13   -1    0    0    0    0 -0.00000000000E+00 -0.00000000000E+00 -0.10000000000E+04  0.10000000000E+04  0.00000000000E+00 0.  1.
    9000005    2    1    2  501    0 -0.29367665155E+01 -0.46185438645E+02 -0.81804008532E+03  0.81935370493E+03  0.30320381962E+01 0.  0.
         13    1    3    3    0    0 -0.13906390837E+01 -0.12600010851E+02 -0.24614061805E+03  0.24646682942E+03  0.00000000000E+00 0.  1.
          3    1    3    3  501    0 -0.15461274318E+01 -0.33585427794E+02 -0.57189946727E+03  0.57288687551E+03  0.00000000000E+00 0.  1.
         -1    1    1    2    0  502  0.29367665155E+01  0.46185438645E+02 -0.17834987450E+03  0.18425633524E+03  0.00000000000E+00 0. -1.
<mgrwt>
<rscale>  1 0.30000000E+03</rscale>
<asrwt>0</asrwt>
<pdfrwt beam="1">  1       21 0.13127446E-01 0.30000000E+03</pdfrwt>
<pdfrwt beam="2">0</pdfrwt>
<totfact> 0.52619067E+03</totfact>
</mgrwt>
</event>
<event>
 6    1  0.1280499E-001  0.3000000E+03  0.7818608E-02  0.1093470E+00
         21   -1    0    0  501  502  0.00000000000E+00  0.00000000000E+00  0.70064504413E+01  0.70064504413E+01  0.00000000000E+00 0. -1.
         13   -1    0    0    0    0 -0.00000000000E+00 -0.00000000000E+00 -0.10000000000E+04  0.10000000000E+04  0.00000000000E+00 0.  1.
    9000005    2    1    2  501    0 -0.30710209026E+02 -0.29287569734E+02 -0.93046883600E+03  0.93144046282E+03  0.28639720066E+01 0.  0.
         13    1    3    3    0    0 -0.35696480606E+01 -0.47689603212E+01 -0.12839264367E+03  0.12853076021E+03  0.00000000000E+00 0.  1.
          3    1    3    3  501    0 -0.27140560965E+02 -0.24518609413E+02 -0.80207619232E+03  0.80290970261E+03  0.00000000000E+00 0.  1.
         -3    1    1    2    0  502  0.30710209026E+02  0.29287569734E+02 -0.62524713562E+02  0.75565987623E+02  0.00000000000E+00 0. -1.
<mgrwt>
<rscale>  1 0.30000000E+03</rscale>
<asrwt>0</asrwt>
<pdfrwt beam="1">  1       21 0.25478055E-01 0.30000000E+03</pdfrwt>
<pdfrwt beam="2">0</pdfrwt>
<totfact> 0.15027511E+03</totfact>
</mgrwt>
</event>
<event>
 6    1  0.1280499E-001  0.3000000E+03  0.7818608E-02  0.1093470E+00
         21   -1    0    0  501  502  0.00000000000E+00  0.00000000000E+00  0.11355644749E+01  0.11355644749E+01  0.00000000000E+00 0. -1.
         13   -1    0    0    0    0 -0.00000000000E+00 -0.00000000000E+00 -0.10000000000E+04  0.10000000000E+04  0.00000000000E+00 0.  1.
    9000005    2    1    2  501    0  0.30982666067E+02 -0.55789809919E+01 -0.32582248685E+03  0.32735777076E+03  0.34302353987E+01 0.  0.
         13    1    3    3    0    0  0.21269891863E+02 -0.31639005115E+01 -0.20669601339E+03  0.20781159862E+03  0.00000000000E+00 0.  1.
          3    1    3    3  501    0  0.97127742044E+01 -0.24150804804E+01 -0.11912647345E+03  0.11954617214E+03  0.00000000000E+00 0.  1.
         -1    1    1    2    0  502 -0.30982666067E+02  0.55789809919E+01 -0.67304194868E+03  0.67377779372E+03  0.00000000000E+00 0. -1.
<mgrwt>
<rscale>  1 0.30000000E+03</rscale>
<asrwt>0</asrwt>
<pdfrwt beam="1">  1       21 0.41293341E-02 0.30000000E+03</pdfrwt>
<pdfrwt beam="2">0</pdfrwt>
<totfact> 0.39851570E+04</totfact>
</mgrwt>
</event>
<event>
 6    1  0.1280499E-001  0.3000000E+03  0.7818608E-02  0.1093470E+00
         21   -1    0    0  501  502  0.00000000000E+00  0.00000000000E+00  0.45005478954E+01  0.45005478954E+01  0.00000000000E+00 0. -1.
         13   -1    0    0    0    0 -0.00000000000E+00 -0.00000000000E+00 -0.10000000000E+04  0.10000000000E+04  0.00000000000E+00 0.  1.
    9000005    2    1    2  501    0  0.20533590064E+02 -0.61729737210E+02 -0.37662639561E+03  0.38221761479E+03  0.32671715821E+01 0.  0.
         13    1    3    3    0    0  0.17800202959E+02 -0.53248754088E+02 -0.33128079568E+03  0.33600482530E+03  0.00000000000E+00 0.  1.
          1    1    3    3  501    0  0.27333871054E+01 -0.84809831223E+01 -0.45345599929E+02  0.46212789493E+02  0.00000000000E+00 0.  1.
         -1    1    1    2    0  502 -0.20533590064E+02  0.61729737210E+02 -0.61887305649E+03  0.62228293310E+03  0.00000000000E+00 0. -1.
<mgrwt>
<rscale>  1 0.30000000E+03</rscale>
<asrwt>0</asrwt>
<pdfrwt beam="1">  1       21 0.16365663E-01 0.30000000E+03</pdfrwt>
<pdfrwt beam="2">0</pdfrwt>
<totfact> 0.35018925E+03</totfact>
</mgrwt>
</event>
<event>
 6    1  0.1280499E-001  0.3000000E+03  0.7818608E-02  0.1093470E+00
         21   -1    0    0  501  502  0.00000000000E+00  0.00000000000E+00  0.28211194122E+01  0.28211194122E+01  0.00000000000E+00 0. -1.
         13   -1    0    0    0    0 -0.00000000000E+00 -0.00000000000E+00 -0.10000000000E+04  0.10000000000E+04  0.00000000000E+00 0.  1.
    9000005    2    1    2  501    0  0.33108819676E+02  0.35240484210E+02 -0.70540220504E+03  0.70706494608E+03  0.32375049835E+01 0.  0.
         13    1    3    3    0    0  0.18357553060E+02  0.17391928794E+02 -0.37803530428E+03  0.37888015285E+03  0.00000000000E+00 0.  1.
          1    1    3    3  501    0  0.14751266616E+02  0.17848555416E+02 -0.32736690076E+03  0.32818479323E+03  0.00000000000E+00 0.  1.
         -3    1    1    2    0  502 -0.33108819676E+02 -0.35240484210E+02 -0.29177667555E+03  0.29575617333E+03  0.00000000000E+00 0. -1.
<mgrwt>
<rscale>  1 0.30000000E+03</rscale>
<asrwt>0</asrwt>
<pdfrwt beam="1">  1       21 0.10258638E-01 0.30000000E+03</pdfrwt>
<pdfrwt beam="2">0</pdfrwt>
<totfact> 0.82191870E+03</totfact>
</mgrwt>
</event>
<event>
 6    1  0.1280499E-001  0.3000000E+03  0.7818608E-02  0.1093470E+00
         21   -1    0    0  501  502  0.00000000000E+00  0.00000000000E+00  0.16858403555E+01  0.16858403555E+01  0.00000000000E+00 0. -1.
         13   -1    0    0    0    0 -0.00000000000E+00 -0.00000000000E+00 -0.10000000000E+04  0.10000000000E+04  0.00000000000E+00 0.  1.
    9000005    2    1    2  501    0 -0.28150060409E+02  0.26234666193E+02 -0.66960711237E+03  0.67073417237E+03  0.54737047375E+01 0.  0.
         13    1    3    3    0    0 -0.66174092312E+01  0.54408429934E+01 -0.19084408455E+03  0.19103627270E+03  0.00000000000E+00 0.  1.
          3    1    3    3  501    0 -0.21532651178E+02  0.20793823199E+02 -0.47876302782E+03  0.47969789968E+03  0.00000000000E+00 0.  1.
         -1    1    1    2    0  502  0.28150060409E+02 -0.26234666193E+02 -0.32870704728E+03  0.33095166798E+03  0.00000000000E+00 0. -1.
<mgrwt>
<rscale>  1 0.30000000E+03</rscale>
<asrwt>0</asrwt>
<pdfrwt beam="1">  1       21 0.61303415E-02 0.30000000E+03</pdfrwt>
<pdfrwt beam="2">0</pdfrwt>
<totfact> 0.20304624E+04</totfact>
</mgrwt>
</event>
<event>
 6    1  0.1280499E-001  0.3000000E+03  0.7818608E-02  0.1093470E+00
         21   -1    0    0  501  502  0.00000000000E+00  0.00000000000E+00  0.15574808762E+01  0.15574808762E+01  0.00000000000E+00 0. -1.
         13   -1    0    0    0    0 -0.00000000000E+00 -0.00000000000E+00 -0.10000000000E+04  0.10000000000E+04  0.00000000000E+00 0.  1.
    9000005    2    1    2  501    0 -0.20385135813E+02  0.22883858485E+02 -0.81416689796E+03  0.81475081799E+03  0.34544101775E+01 0.  0.
         13    1    3    3    0    0 -0.82254675057E+00  0.11868018570E+01 -0.61976428615E+02  0.61993247904E+02  0.00000000000E+00 0.  1.
          3    1    3    3  501    0 -0.19562589063E+02  0.21697056628E+02 -0.75219046934E+03  0.75275757009E+03  0.00000000000E+00 0.  1.
         -3    1    1    2    0  502  0.20385135813E+02 -0.22883858485E+02 -0.18427562117E+03  0.18680666288E+03  0.00000000000E+00 0. -1.
<mgrwt>
<rscale>  1 0.30000000E+03</rscale>
<asrwt>0</asrwt>
<pdfrwt beam="1">  1       21 0.56635788E-02 0.30000000E+03</pdfrwt>
<pdfrwt beam="2">0</pdfrwt>
<totfact> 0.23273314E+04</totfact>
</mgrwt>
</event>
<event>
 6    1  0.1280499E-001  0.3000000E+03  0.7818608E-02  0.1093470E+00
         21   -1    0    0  501  502  0.00000000000E+00  0.00000000000E+00  0.39786186378E+01  0.39786186378E+01  0.00000000000E+00 0. -1.
         13   -1    0    0    0    0 -0.00000000000E+00 -0.00000000000E+00 -0.10000000000E+04  0.10000000000E+04  0.00000000000E+00 0.  1.
    9000005    2    1    2  501    0 -0.78260106150E+00  0.55096699179E+02 -0.74149540834E+03  0.74355640441E+03  0.49423893378E+01 0.  0.
         13    1    3    3    0    0  0.86907815168E+00  0.34185150591E+02 -0.48571531139E+03  0.48691759419E+03  0.00000000000E+00 0.  1.
          3    1    3    3  501    0 -0.16516792132E+01  0.20911548588E+02 -0.25578009695E+03  0.25663881021E+03  0.00000000000E+00 0.  1.
         -3    1    1    2    0  502  0.78260106150E+00 -0.55096699179E+02 -0.25452597302E+03  0.26042221423E+03  0.00000000000E+00 0. -1.
<mgrwt>
<rscale>  1 0.30000000E+03</rscale>
<asrwt>0</asrwt>
<pdfrwt beam="1">  1       21 0.14467735E-01 0.30000000E+03</pdfrwt>
<pdfrwt beam="2">0</pdfrwt>
<totfact> 0.44022198E+03</totfact>
</mgrwt>
</event>
<event>
 6    1  0.1280499E-001  0.3000000E+03  0.7818608E-02  0.1093470E+00
         21   -1    0    0  501  502  0.00000000000E+00  0.00000000000E+00  0.24138382894E+01  0.24138382894E+01  0.00000000000E+00 0. -1.
         13   -1    0    0    0    0 -0.00000000000E+00 -0.00000000000E+00 -0.10000000000E+04  0.10000000000E+04  0.00000000000E+00 0.  1.
    9000005    2    1    2  501    0 -0.32575942247E+02 -0.31609153528E+02 -0.69004645416E+03  0.69154247853E+03  0.25612709389E+01 0.  0.
         13    1    3    3    0    0 -0.32481172147E+02 -0.31320126076E+02 -0.68252557430E+03  0.68401545042E+03  0.00000000000E+00 0.  1.
          1    1    3    3  501    0 -0.94770099804E-01 -0.28902745149E+00 -0.75208798660E+01  0.75270281120E+01  0.00000000000E+00 0.  1.
         -1    1    1    2    0  502  0.32575942247E+02  0.31609153528E+02 -0.30753970755E+03  0.31087135976E+03  0.00000000000E+00 0. -1.
<mgrwt>
<rscale>  1 0.30000000E+03</rscale>
<asrwt>0</asrwt>
<pdfrwt beam="1">  1       21 0.87776123E-02 0.30000000E+03</pdfrwt>
<pdfrwt beam="2">0</pdfrwt>
<totfact> 0.10847937E+04</totfact>
</mgrwt>
</event>
<event>
 6    1  0.1280499E-001  0.3000000E+03  0.7818608E-02  0.1093470E+00
         21   -1    0    0  501  502  0.00000000000E+00  0.00000000000E+00  0.87357753920E+01  0.87357753920E+01  0.00000000000E+00 0. -1.
         13   -1    0    0    0    0 -0.00000000000E+00 -0.00000000000E+00 -0.10000000000E+04  0.10000000000E+04  0.00000000000E+00 0.  1.
    9000005    2    1    2  501    0 -0.52342262929E+02 -0.63710201655E+02 -0.73297698610E+03  0.73760665512E+03  0.31005227500E+01 0.  0.
         13    1    3    3    0    0 -0.50843793010E+02 -0.61388019788E+02 -0.71220700631E+03  0.71665361236E+03  0.00000000000E+00 0.  1.
          3    1    3    3  501    0 -0.14984699186E+01 -0.23221818674E+01 -0.20769979787E+02  0.20953042764E+02  0.00000000000E+00 0.  1.
         -3    1    1    2    0  502  0.52342262929E+02  0.63710201655E+02 -0.25828723851E+03  0.27112912027E+03  0.00000000000E+00 0. -1.
<mgrwt>
<rscale>  1 0.30000000E+03</rscale>
<asrwt>0</asrwt>
<pdfrwt beam="1">  1       21 0.31766523E-01 0.30000000E+03</pdfrwt>
<pdfrwt beam="2">0</pdfrwt>
<totfact> 0.96919921E+02</totfact>
</mgrwt>
</event>
<event>
 6    1  0.1280499E-001  0.3000000E+03  0.7818608E-02  0.1093470E+00
         21   -1    0    0  501  502  0.00000000000E+00  0.00000000000E+00  0.10897914583E+01  0.10897914583E+01  0.00000000000E+00 0. -1.
         13   -1    0    0    0    0 -0.00000000000E+00 -0.00000000000E+00 -0.10000000000E+04  0.10000000000E+04  0.00000000000E+00 0.  1.
    9000005    2    1    2  501    0 -0.30746193355E+02  0.10335987765E+02 -0.58718008909E+03  0.58808391703E+03  0.31741764681E+01 0.  0.
         13    1    3    3    0    0 -0.25213932832E+02  0.82364488798E+01 -0.45657328644E+03  0.45734313966E+03  0.00000000000E+00 0.  1.
          3    1    3    3  501    0 -0.55322605235E+01  0.20995388852E+01 -0.13060680265E+03  0.13074077738E+03  0.00000000000E+00 0.  1.
         -3    1    1    2    0  502  0.30746193355E+02 -0.10335987765E+02 -0.41173011945E+03  0.41300587442E+03  0.00000000000E+00 0. -1.
<mgrwt>
<rscale>  1 0.30000000E+03</rscale>
<asrwt>0</asrwt>
<pdfrwt beam="1">  1       21 0.39628864E-02 0.30000000E+03</pdfrwt>
<pdfrwt beam="2">0</pdfrwt>
<totfact> 0.42712438E+04</totfact>
</mgrwt>
</event>
<event>
 6    1  0.1280499E-001  0.3000000E+03  0.7818608E-02  0.1093470E+00
         21   -1    0    0  501  502  0.00000000000E+00  0.00000000000E+00  0.14218155677E+02  0.14218155677E+02  0.00000000000E+00 0. -1.
         13   -1    0    0    0    0 -0.00000000000E+00 -0.00000000000E+00 -0.10000000000E+04  0.10000000000E+04  0.00000000000E+00 0.  1.
    9000005    2    1    2  501    0  0.66252192080E+02  0.15633907679E+01 -0.91438784863E+03  0.91680717187E+03  0.62012511442E+01 0.  0.
         13    1    3    3    0    0  0.53876695834E+02 -0.14892544138E+00 -0.71354413147E+03  0.71557525676E+03  0.00000000000E+00 0.  1.
          1    1    3    3  501    0  0.12375496247E+02  0.17123162093E+01 -0.20084371716E+03  0.20123191510E+03  0.00000000000E+00 0.  1.
         -1    1    1    2    0  502 -0.66252192080E+02 -0.15633907679E+01 -0.71393995691E+02  0.97410983810E+02  0.00000000000E+00 0. -1.
<mgrwt>
<rscale>  1 0.30000000E+03</rscale>
<asrwt>0</asrwt>
<pdfrwt beam="1">  1       21 0.51702493E-01 0.30000000E+03</pdfrwt>
<pdfrwt beam="2">0</pdfrwt>
<totfact> 0.34932487E+02</totfact>
</mgrwt>
</event>
<event>
 6    1  0.1280499E-001  0.3000000E+03  0.7818608E-02  0.1093470E+00
         21   -1    0    0  501  502  0.00000000000E+00  0.00000000000E+00  0.46824314537E+01  0.46824314537E+01  0.00000000000E+00 0. -1.
         13   -1    0    0    0    0 -0.00000000000E+00 -0.00000000000E+00 -0.10000000000E+04  0.10000000000E+04  0.00000000000E+00 0.  1.
    9000005    2    1    2  501    0 -0.13837797345E+02  0.50722651533E+02 -0.81901010725E+03  0.82070256048E+03  0.32962085372E+01 0.  0.
         13    1    3    3    0    0 -0.45475898156E+01  0.18977348705E+02 -0.28132199760E+03  0.28199802601E+03  0.00000000000E+00 0.  1.
          1    1    3    3  501    0 -0.92902075291E+01  0.31745302828E+02 -0.53768810965E+03  0.53870453448E+03  0.00000000000E+00 0.  1.
         -1    1    1    2    0  502  0.13837797345E+02 -0.50722651533E+02 -0.17630746130E+03  0.18397987097E+03  0.00000000000E+00 0. -1.
<mgrwt>
<rscale>  1 0.30000000E+03</rscale>
<asrwt>0</asrwt>
<pdfrwt beam="1">  1       21 0.17027059E-01 0.30000000E+03</pdfrwt>
<pdfrwt beam="2">0</pdfrwt>
<totfact> 0.32518191E+03</totfact>
</mgrwt>
</event>
<event>
 6    1  0.1280499E-001  0.3000000E+03  0.7818608E-02  0.1093470E+00
         21   -1    0    0  501  502  0.00000000000E+00  0.00000000000E+00  0.21261806235E+01  0.21261806235E+01  0.00000000000E+00 0. -1.
         13   -1    0    0    0    0 -0.00000000000E+00 -0.00000000000E+00 -0.10000000000E+04  0.10000000000E+04  0.00000000000E+00 0.  1.
    9000005    2    1    2  501    0  0.38589714828E+02 -0.69469253347E+01 -0.23701207595E+03  0.24025478828E+03  0.31958227438E+01 0.  0.
         13    1    3    3    0    0  0.29977573367E+02 -0.46126455074E+01 -0.18954159463E+03  0.19195298252E+03  0.00000000000E+00 0.  1.
          3    1    3    3  501    0  0.86121414608E+01 -0.23342798274E+01 -0.47470481328E+02  0.48301805767E+02  0.00000000000E+00 0.  1.
         -3    1    1    2    0  502 -0.38589714828E+02  0.69469253347E+01 -0.76086174342E+03  0.76187139234E+03  0.00000000000E+00 0. -1.
<mgrwt>
<rscale>  1 0.30000000E+03</rscale>
<asrwt>0</asrwt>
<pdfrwt beam="1">  1       21 0.77315822E-02 0.30000000E+03</pdfrwt>
<pdfrwt beam="2">0</pdfrwt>
<totfact> 0.13562257E+04</totfact>
</mgrwt>
</event>
<event>
 6    1  0.1280499E-001  0.3000000E+03  0.7818608E-02  0.1093470E+00
         21   -1    0    0  501  502  0.00000000000E+00  0.00000000000E+00  0.13101496444E+01  0.13101496444E+01  0.00000000000E+00 0. -1.
         13   -1    0    0    0    0 -0.00000000000E+00 -0.00000000000E+00 -0.10000000000E+04  0.10000000000E+04  0.00000000000E+00 0.  1.
    9000005    2    1    2  501    0  0.70386954222E+01  0.29758563305E+02 -0.76635084183E+03  0.76696738742E+03  0.32008237499E+01 0.  0.
         13    1    3    3    0    0  0.19816678835E+01  0.38909621047E+01 -0.98980785164E+02  0.99077052971E+02  0.00000000000E+00 0.  1.
          3    1    3    3  501    0  0.50570275387E+01  0.25867601200E+02 -0.66737005666E+03  0.66789033445E+03  0.00000000000E+00 0.  1.
         -1    1    1    2    0  502 -0.70386954222E+01 -0.29758563305E+02 -0.23233900853E+03  0.23434276223E+03  0.00000000000E+00 0. -1.
<mgrwt>
<rscale>  1 0.30000000E+03</rscale>
<asrwt>0</asrwt>
<pdfrwt beam="1">  1       21 0.47641906E-02 0.30000000E+03</pdfrwt>
<pdfrwt beam="2">0</pdfrwt>
<totfact> 0.31274456E+04</totfact>
</mgrwt>
</event>
<event>
 6    1  0.1280499E-001  0.3000000E+03  0.7818608E-02  0.1093470E+00
         21   -1    0    0  501  502  0.00000000000E+00  0.00000000000E+00  0.23021639230E+01  0.23021639230E+01  0.00000000000E+00 0. -1.
         13   -1    0    0    0    0 -0.00000000000E+00 -0.00000000000E+00 -0.10000000000E+04  0.10000000000E+04  0.00000000000E+00 0.  1.
    9000005    2    1    2  501    0  0.31861873194E+02  0.12150668759E+02 -0.85094944247E+03  0.85164391243E+03  0.44251819815E+01 0.  0.
         13    1    3    3    0    0  0.16893672255E+02  0.41153852169E+01 -0.44053581071E+03  0.44087881904E+03  0.00000000000E+00 0.  1.
          1    1    3    3  501    0  0.14968200939E+02  0.80352835419E+01 -0.41041363176E+03  0.41076509340E+03  0.00000000000E+00 0.  1.
         -3    1    1    2    0  502 -0.31861873194E+02 -0.12150668759E+02 -0.14674839361E+03  0.15065825149E+03  0.00000000000E+00 0. -1.
<mgrwt>
<rscale>  1 0.30000000E+03</rscale>
<asrwt>0</asrwt>
<pdfrwt beam="1">  1       21 0.83715228E-02 0.30000000E+03</pdfrwt>
<pdfrwt beam="2">0</pdfrwt>
<totfact> 0.11793616E+04</totfact>
</mgrwt>
</event>
<event>
 6    1  0.1280499E-001  0.3000000E+03  0.7818608E-02  0.1093470E+00
         21   -1    0    0  501  502  0.00000000000E+00  0.00000000000E+00  0.26097240366E+01  0.26097240366E+01  0.00000000000E+00 0. -1.
         13   -1    0    0    0    0 -0.00000000000E+00 -0.00000000000E+00 -0.10000000000E+04  0.10000000000E+04  0.00000000000E+00 0.  1.
    9000005    2    1    2  501    0  0.22911534271E+02  0.33917668196E+02 -0.79835488678E+03  0.79940924971E+03  0.30457610789E+01 0.  0.
         13    1    3    3    0    0  0.20259281177E+02  0.30925859573E+02 -0.73366104126E+03  0.73459197567E+03  0.00000000000E+00 0.  1.
          3    1    3    3  501    0  0.26522530945E+01  0.29918086233E+01 -0.64693845519E+02  0.64817274035E+02  0.00000000000E+00 0.  1.
         -1    1    1    2    0  502 -0.22911534271E+02 -0.33917668196E+02 -0.19903538919E+03  0.20320047433E+03  0.00000000000E+00 0. -1.
<mgrwt>
<rscale>  1 0.30000000E+03</rscale>
<asrwt>0</asrwt>
<pdfrwt beam="1">  1       21 0.94899256E-02 0.30000000E+03</pdfrwt>
<pdfrwt beam="2">0</pdfrwt>
<totfact> 0.94455587E+03</totfact>
</mgrwt>
</event>
<event>
 6    1  0.1280499E-001  0.3000000E+03  0.7818608E-02  0.1093470E+00
         21   -1    0    0  501  502  0.00000000000E+00  0.00000000000E+00  0.10241488030E+02  0.10241488030E+02  0.00000000000E+00 0. -1.
         13   -1    0    0    0    0 -0.00000000000E+00 -0.00000000000E+00 -0.10000000000E+04  0.10000000000E+04  0.00000000000E+00 0.  1.
    9000005    2    1    2  501    0  0.27351553297E+02  0.93631518593E+02 -0.62905582230E+03  0.63658201862E+03  0.32357569446E+01 0.  0.
         13    1    3    3    0    0  0.10415896863E+02  0.39569474759E+02 -0.27139889122E+03  0.27446601318E+03  0.00000000000E+00 0.  1.
          1    1    3    3  501    0  0.16935656434E+02  0.54062043834E+02 -0.35765693108E+03  0.36211600543E+03  0.00000000000E+00 0.  1.
         -1    1    1    2    0  502 -0.27351553297E+02 -0.93631518593E+02 -0.36070268967E+03  0.37365946941E+03  0.00000000000E+00 0. -1.
<mgrwt>
<rscale>  1 0.30000000E+03</rscale>
<asrwt>0</asrwt>
<pdfrwt beam="1">  1       21 0.37241853E-01 0.30000000E+03</pdfrwt>
<pdfrwt beam="2">0</pdfrwt>
<totfact> 0.70052809E+02</totfact>
</mgrwt>
</event>
<event>
 6    1  0.1280499E-001  0.3000000E+03  0.7818608E-02  0.1093470E+00
         21   -1    0    0  501  502  0.00000000000E+00  0.00000000000E+00  0.12927712357E+01  0.12927712357E+01  0.00000000000E+00 0. -1.
         13   -1    0    0    0    0 -0.00000000000E+00 -0.00000000000E+00 -0.10000000000E+04  0.10000000000E+04  0.00000000000E+00 0.  1.
    9000005    2    1    2  501    0  0.22621186452E+02  0.24060609000E+02 -0.69621254745E+03  0.69700070232E+03  0.27270542402E+01 0.  0.
         13    1    3    3    0    0 -0.78332421088E-01  0.11912275645E+00 -0.36336819719E+01  0.36364778113E+01  0.00000000000E+00 0.  1.
          1    1    3    3  501    0  0.22699518873E+02  0.23941486243E+02 -0.69257886548E+03  0.69336422451E+03  0.00000000000E+00 0.  1.
         -1    1    1    2    0  502 -0.22621186452E+02 -0.24060609000E+02 -0.30249468131E+03  0.30429206891E+03  0.00000000000E+00 0. -1.
<mgrwt>
<rscale>  1 0.30000000E+03</rscale>
<asrwt>0</asrwt>
<pdfrwt beam="1">  1       21 0.47009962E-02 0.30000000E+03</pdfrwt>
<pdfrwt beam="2">0</pdfrwt>
<totfact> 0.31992802E+04</totfact>
</mgrwt>
</event>
<event>
 6    1  0.1280499E-001  0.3000000E+03  0.7818608E-02  0.1093470E+00
         21   -1    0    0  501  502  0.00000000000E+00  0.00000000000E+00  0.55403371653E+01  0.55403371653E+01  0.00000000000E+00 0. -1.
         13   -1    0    0    0    0 -0.00000000000E+00 -0.00000000000E+00 -0.10000000000E+04  0.10000000000E+04  0.00000000000E+00 0.  1.
    9000005    2    1    2  501    0 -0.43074398983E+02  0.32811491856E+02 -0.84209304241E+03  0.84383818855E+03  0.31935157268E+01 0.  0.
         13    1    3    3    0    0 -0.29179183337E+02  0.23676757531E+02 -0.56929784915E+03  0.57053663741E+03  0.00000000000E+00 0.  1.
          1    1    3    3  501    0 -0.13895215646E+02  0.91347343250E+01 -0.27279519326E+03  0.27330155114E+03  0.00000000000E+00 0.  1.
         -1    1    1    2    0  502  0.43074398983E+02 -0.32811491856E+02 -0.15236662043E+03  0.16170214861E+03  0.00000000000E+00 0. -1.
<mgrwt>
<rscale>  1 0.30000000E+03</rscale>
<asrwt>0</asrwt>
<pdfrwt beam="1">  1       21 0.20146723E-01 0.30000000E+03</pdfrwt>
<pdfrwt beam="2">0</pdfrwt>
<totfact> 0.23659630E+03</totfact>
</mgrwt>
</event>
<event>
 6    1  0.1280499E-001  0.3000000E+03  0.7818608E-02  0.1093470E+00
         21   -1    0    0  501  502  0.00000000000E+00  0.00000000000E+00  0.23635196912E+01  0.23635196912E+01  0.00000000000E+00 0. -1.
         13   -1    0    0    0    0 -0.00000000000E+00 -0.00000000000E+00 -0.10000000000E+04  0.10000000000E+04  0.00000000000E+00 0.  1.
    9000005    2    1    2  501    0  0.28548219651E+02 -0.22283025263E+02 -0.83286787135E+03  0.83366192350E+03  0.34318365655E+01 0.  0.
         13    1    3    3    0    0  0.44593097861E+01 -0.26193573731E+01 -0.97834998080E+02  0.97971594486E+02  0.00000000000E+00 0.  1.
          3    1    3    3  501    0  0.24088909865E+02 -0.19663667890E+02 -0.73503287327E+03  0.73569032901E+03  0.00000000000E+00 0.  1.
         -1    1    1    2    0  502 -0.28548219651E+02  0.22283025263E+02 -0.16476860896E+03  0.16870159619E+03  0.00000000000E+00 0. -1.
<mgrwt>
<rscale>  1 0.30000000E+03</rscale>
<asrwt>0</asrwt>
<pdfrwt beam="1">  1       21 0.85946352E-02 0.30000000E+03</pdfrwt>
<pdfrwt beam="2">0</pdfrwt>
<totfact> 0.11259184E+04</totfact>
</mgrwt>
</event>
<event>
 6    1  0.1280499E-001  0.3000000E+03  0.7818608E-02  0.1093470E+00
         21   -1    0    0  501  502  0.00000000000E+00  0.00000000000E+00  0.13238497071E+01  0.13238497071E+01  0.00000000000E+00 0. -1.
         13   -1    0    0    0    0 -0.00000000000E+00 -0.00000000000E+00 -0.10000000000E+04  0.10000000000E+04  0.00000000000E+00 0.  1.
    9000005    2    1    2  501    0 -0.20437392205E+02  0.28982590911E+02 -0.60779624564E+03  0.60883846470E+03  0.32128364979E+01 0.  0.
         13    1    3    3    0    0 -0.42730224472E+01  0.85138598077E+01 -0.16032646487E+03  0.16060921477E+03  0.00000000000E+00 0.  1.
          1    1    3    3  501    0 -0.16164369758E+02  0.20468731103E+02 -0.44746978077E+03  0.44822924994E+03  0.00000000000E+00 0.  1.
         -1    1    1    2    0  502  0.20437392205E+02 -0.28982590911E+02 -0.39087990466E+03  0.39248538500E+03  0.00000000000E+00 0. -1.
<mgrwt>
<rscale>  1 0.30000000E+03</rscale>
<asrwt>0</asrwt>
<pdfrwt beam="1">  1       21 0.48140091E-02 0.30000000E+03</pdfrwt>
<pdfrwt beam="2">0</pdfrwt>
<totfact> 0.30725785E+04</totfact>
</mgrwt>
</event>
<event>
 6    1  0.1280499E-001  0.3000000E+03  0.7818608E-02  0.1093470E+00
         21   -1    0    0  501  502  0.00000000000E+00  0.00000000000E+00  0.97889157418E+00  0.97889157418E+00  0.00000000000E+00 0. -1.
         13   -1    0    0    0    0 -0.00000000000E+00 -0.00000000000E+00 -0.10000000000E+04  0.10000000000E+04  0.00000000000E+00 0.  1.
    9000005    2    1    2  501    0 -0.11515665946E+02  0.28650224166E+02 -0.57449728845E+03  0.57533359367E+03  0.28572108723E+01 0.  0.
         13    1    3    3    0    0 -0.10606396076E+02  0.23981827375E+02 -0.47659660553E+03  0.47731745001E+03  0.00000000000E+00 0.  1.
          1    1    3    3  501    0 -0.90926987002E+00  0.46683967906E+01 -0.97900682925E+02  0.98016143657E+02  0.00000000000E+00 0.  1.
         -3    1    1    2    0  502  0.11515665946E+02 -0.28650224166E+02 -0.42452381997E+03  0.42564529791E+03  0.00000000000E+00 0. -1.
<mgrwt>
<rscale>  1 0.30000000E+03</rscale>
<asrwt>0</asrwt>
<pdfrwt beam="1">  1       21 0.35596132E-02 0.30000000E+03</pdfrwt>
<pdfrwt beam="2">0</pdfrwt>
<totfact> 0.51148753E+04</totfact>
</mgrwt>
</event>
<event>
 6    1  0.1280499E-001  0.3000000E+03  0.7818608E-02  0.1093470E+00
         21   -1    0    0  501  502  0.00000000000E+00  0.00000000000E+00  0.22166772795E+01  0.22166772795E+01  0.00000000000E+00 0. -1.
         13   -1    0    0    0    0 -0.00000000000E+00 -0.00000000000E+00 -0.10000000000E+04  0.10000000000E+04  0.00000000000E+00 0.  1.
    9000005    2    1    2  501    0 -0.22901996281E+02 -0.39604652672E+02 -0.61490439353E+03  0.61661415607E+03  0.35460306641E+01 0.  0.
         13    1    3    3    0    0 -0.78996445165E+01 -0.12340647026E+02 -0.17701356416E+03  0.17761896816E+03  0.00000000000E+00 0.  1.
          1    1    3    3  501    0 -0.15002351765E+02 -0.27264005646E+02 -0.43789082937E+03  0.43899518791E+03  0.00000000000E+00 0.  1.
         -1    1    1    2    0  502  0.22901996281E+02  0.39604652672E+02 -0.38287892919E+03  0.38560252121E+03  0.00000000000E+00 0. -1.
<mgrwt>
<rscale>  1 0.30000000E+03</rscale>
<asrwt>0</asrwt>
<pdfrwt beam="1">  1       21 0.80606617E-02 0.30000000E+03</pdfrwt>
<pdfrwt beam="2">0</pdfrwt>
<totfact> 0.12605462E+04</totfact>
</mgrwt>
</event>
<event>
 6    1  0.1280499E-001  0.3000000E+03  0.7818608E-02  0.1093470E+00
         21   -1    0    0  501  502  0.00000000000E+00  0.00000000000E+00  0.41533097475E+01  0.41533097475E+01  0.00000000000E+00 0. -1.
         13   -1    0    0    0    0 -0.00000000000E+00 -0.00000000000E+00 -0.10000000000E+04  0.10000000000E+04  0.00000000000E+00 0.  1.
    9000005    2    1    2  501    0 -0.45155903443E+02  0.81876807400E+01 -0.84887268073E+03  0.85018106157E+03  0.10812753704E+02 0.  0.
         13    1    3    3    0    0 -0.39831236616E+02  0.84226046400E+01 -0.67494728073E+03  0.67617401565E+03  0.00000000000E+00 0.  1.
          1    1    3    3  501    0 -0.53246668266E+01 -0.23492390008E+00 -0.17392540000E+03  0.17400704592E+03  0.00000000000E+00 0.  1.
         -3    1    1    2    0  502  0.45155903443E+02 -0.81876807400E+01 -0.14697400953E+03  0.15397224817E+03  0.00000000000E+00 0. -1.
<mgrwt>
<rscale>  1 0.30000000E+03</rscale>
<asrwt>0</asrwt>
<pdfrwt beam="1">  1       21 0.15102976E-01 0.30000000E+03</pdfrwt>
<pdfrwt beam="2">0</pdfrwt>
<totfact> 0.40661964E+03</totfact>
</mgrwt>
</event>
<event>
 6    1  0.1280499E-001  0.3000000E+03  0.7818608E-02  0.1093470E+00
         21   -1    0    0  501  502  0.00000000000E+00  0.00000000000E+00  0.12302138235E+01  0.12302138235E+01  0.00000000000E+00 0. -1.
         13   -1    0    0    0    0 -0.00000000000E+00 -0.00000000000E+00 -0.10000000000E+04  0.10000000000E+04  0.00000000000E+00 0.  1.
    9000005    2    1    2  501    0 -0.11896047690E+02 -0.28977537531E+02 -0.72170259206E+03  0.72239792788E+03  0.47876068128E+01 0.  0.
         13    1    3    3    0    0 -0.45319287385E+00 -0.39790306434E+01 -0.12151805924E+03  0.12158403181E+03  0.00000000000E+00 0.  1.
          1    1    3    3  501    0 -0.11442854817E+02 -0.24998506888E+02 -0.60018453282E+03  0.60081389607E+03  0.00000000000E+00 0.  1.
         -3    1    1    2    0  502  0.11896047690E+02  0.28977537531E+02 -0.27706719412E+03  0.27883228595E+03  0.00000000000E+00 0. -1.
<mgrwt>
<rscale>  1 0.30000000E+03</rscale>
<asrwt>0</asrwt>
<pdfrwt beam="1">  1       21 0.44735142E-02 0.30000000E+03</pdfrwt>
<pdfrwt beam="2">0</pdfrwt>
<totfact> 0.34805009E+04</totfact>
</mgrwt>
</event>
<event>
 6    1  0.1280499E-001  0.3000000E+03  0.7818608E-02  0.1093470E+00
         21   -1    0    0  501  502  0.00000000000E+00  0.00000000000E+00  0.22726052190E+01  0.22726052190E+01  0.00000000000E+00 0. -1.
         13   -1    0    0    0    0 -0.00000000000E+00 -0.00000000000E+00 -0.10000000000E+04  0.10000000000E+04  0.00000000000E+00 0.  1.
    9000005    2    1    2  501    0  0.22037480579E+02  0.29473667227E+02 -0.81656965428E+03  0.81741462039E+03  0.51296913497E+01 0.  0.
         13    1    3    3    0    0  0.45485417419E+01  0.99747715479E+01 -0.24419042660E+03  0.24443639201E+03  0.00000000000E+00 0.  1.
          1    1    3    3  501    0  0.17488938837E+02  0.19498895679E+02 -0.57237922768E+03  0.57297822838E+03  0.00000000000E+00 0.  1.
         -3    1    1    2    0  502 -0.22037480579E+02 -0.29473667227E+02 -0.18115774050E+03  0.18485798483E+03  0.00000000000E+00 0. -1.
<mgrwt>
<rscale>  1 0.30000000E+03</rscale>
<asrwt>0</asrwt>
<pdfrwt beam="1">  1       21 0.82640364E-02 0.30000000E+03</pdfrwt>
<pdfrwt beam="2">0</pdfrwt>
<totfact> 0.12065032E+04</totfact>
</mgrwt>
</event>
<event>
 6    1  0.1280499E-001  0.3000000E+03  0.7818608E-02  0.1093470E+00
         21   -1    0    0  501  502  0.00000000000E+00  0.00000000000E+00  0.45881151478E+01  0.45881151478E+01  0.00000000000E+00 0. -1.
         13   -1    0    0    0    0 -0.00000000000E+00 -0.00000000000E+00 -0.10000000000E+04  0.10000000000E+04  0.00000000000E+00 0.  1.
    9000005    2    1    2  501    0  0.38038656531E+02 -0.51186263993E+01 -0.91141196146E+03  0.91223484311E+03  0.52445931554E+01 0.  0.
         13    1    3    3    0    0  0.41352506120E-01 -0.43736349313E+00 -0.80254078527E+01  0.80374229736E+01  0.00000000000E+00 0.  1.
          3    1    3    3  501    0  0.37997304025E+02 -0.46812629061E+01 -0.90338655361E+03  0.90419742013E+03  0.00000000000E+00 0.  1.
         -1    1    1    2    0  502 -0.38038656531E+02  0.51186263993E+01 -0.83999923390E+02  0.92353272039E+02  0.00000000000E+00 0. -1.
<mgrwt>
<rscale>  1 0.30000000E+03</rscale>
<asrwt>0</asrwt>
<pdfrwt beam="1">  1       21 0.16684090E-01 0.30000000E+03</pdfrwt>
<pdfrwt beam="2">0</pdfrwt>
<totfact> 0.33780462E+03</totfact>
</mgrwt>
</event>
<event>
 6    1  0.1280499E-001  0.3000000E+03  0.7818608E-02  0.1093470E+00
         21   -1    0    0  501  502  0.00000000000E+00  0.00000000000E+00  0.21638034811E+01  0.21638034811E+01  0.00000000000E+00 0. -1.
         13   -1    0    0    0    0 -0.00000000000E+00 -0.00000000000E+00 -0.10000000000E+04  0.10000000000E+04  0.00000000000E+00 0.  1.
    9000005    2    1    2  501    0  0.44645618560E+02 -0.12496879755E+01 -0.36167504989E+03  0.36443674787E+03  0.32416831181E+01 0.  0.
         13    1    3    3    0    0  0.30627573182E+02 -0.17646320920E+01 -0.23819853847E+03  0.24016599654E+03  0.00000000000E+00 0.  1.
          3    1    3    3  501    0  0.14018045377E+02  0.51494411656E+00 -0.12347651143E+03  0.12427075134E+03  0.00000000000E+00 0.  1.
         -1    1    1    2    0  502 -0.44645618560E+02  0.12496879755E+01 -0.63616114663E+03  0.63772705561E+03  0.00000000000E+00 0. -1.
<mgrwt>
<rscale>  1 0.30000000E+03</rscale>
<asrwt>0</asrwt>
<pdfrwt beam="1">  1       21 0.78683929E-02 0.30000000E+03</pdfrwt>
<pdfrwt beam="2">0</pdfrwt>
<totfact> 0.13151342E+04</totfact>
</mgrwt>
</event>
<event>
 6    1  0.1280499E-001  0.3000000E+03  0.7818608E-02  0.1093470E+00
         21   -1    0    0  501  502  0.00000000000E+00  0.00000000000E+00  0.42499051790E+01  0.42499051790E+01  0.00000000000E+00 0. -1.
         13   -1    0    0    0    0 -0.00000000000E+00 -0.00000000000E+00 -0.10000000000E+04  0.10000000000E+04  0.00000000000E+00 0.  1.
    9000005    2    1    2  501    0 -0.31365349118E+02 -0.30417359256E+02 -0.87006655047E+03  0.87118843747E+03  0.66701167849E+01 0.  0.
         13    1    3    3    0    0 -0.13521409132E+02 -0.12472573923E+02 -0.43206612711E+03  0.43245754913E+03  0.00000000000E+00 0.  1.
          3    1    3    3  501    0 -0.17843939986E+02 -0.17944785332E+02 -0.43800042336E+03  0.43873088833E+03  0.00000000000E+00 0.  1.
         -1    1    1    2    0  502  0.31365349118E+02  0.30417359256E+02 -0.12568354435E+03  0.13306146771E+03  0.00000000000E+00 0. -1.
<mgrwt>
<rscale>  1 0.30000000E+03</rscale>
<asrwt>0</asrwt>
<pdfrwt beam="1">  1       21 0.15454233E-01 0.30000000E+03</pdfrwt>
<pdfrwt beam="2">0</pdfrwt>
<totfact> 0.38964156E+03</totfact>
</mgrwt>
</event>
<event>
 6    1  0.1280499E-001  0.3000000E+03  0.7818608E-02  0.1093470E+00
         21   -1    0    0  501  502  0.00000000000E+00  0.00000000000E+00  0.29436337553E+01  0.29436337553E+01  0.00000000000E+00 0. -1.
         13   -1    0    0    0    0 -0.00000000000E+00 -0.00000000000E+00 -0.10000000000E+04  0.10000000000E+04  0.00000000000E+00 0.  1.
    9000005    2    1    2  501    0  0.48956377397E+02  0.20190486863E+02 -0.60628833170E+03  0.60860362885E+03  0.29074464951E+01 0.  0.
         13    1    3    3    0    0  0.46901023950E+02  0.19124385998E+02 -0.57259167242E+03  0.57482751458E+03  0.00000000000E+00 0.  1.
          1    1    3    3  501    0  0.20553534466E+01  0.10661008647E+01 -0.33696659280E+02  0.33776114275E+02  0.00000000000E+00 0.  1.
         -1    1    1    2    0  502 -0.48956377397E+02 -0.20190486863E+02 -0.39076803454E+03  0.39434000490E+03  0.00000000000E+00 0. -1.
<mgrwt>
<rscale>  1 0.30000000E+03</rscale>
<asrwt>0</asrwt>
<pdfrwt beam="1">  1       21 0.10704145E-01 0.30000000E+03</pdfrwt>
<pdfrwt beam="2">0</pdfrwt>
<totfact> 0.76161955E+03</totfact>
</mgrwt>
</event>
<event>
 6    1  0.1280499E-001  0.3000000E+03  0.7818608E-02  0.1093470E+00
         21   -1    0    0  501  502  0.00000000000E+00  0.00000000000E+00  0.26858911161E+01  0.26858911161E+01  0.00000000000E+00 0. -1.
         13   -1    0    0    0    0 -0.00000000000E+00 -0.00000000000E+00 -0.10000000000E+04  0.10000000000E+04  0.00000000000E+00 0.  1.
    9000005    2    1    2  501    0  0.34882714081E+02 -0.69924973817E+01 -0.86301770074E+03  0.86375704601E+03  0.33142097080E+01 0.  0.
         13    1    3    3    0    0  0.21378109820E+02 -0.27109651412E+01 -0.50866628743E+03  0.50912254407E+03  0.00000000000E+00 0.  1.
          1    1    3    3  501    0  0.13504604260E+02 -0.42815322404E+01 -0.35435141331E+03  0.35463450194E+03  0.00000000000E+00 0.  1.
         -1    1    1    2    0  502 -0.34882714081E+02  0.69924973817E+01 -0.13429640815E+03  0.13892884511E+03  0.00000000000E+00 0. -1.
<mgrwt>
<rscale>  1 0.30000000E+03</rscale>
<asrwt>0</asrwt>
<pdfrwt beam="1">  1       21 0.97668974E-02 0.30000000E+03</pdfrwt>
<pdfrwt beam="2">0</pdfrwt>
<totfact> 0.89732690E+03</totfact>
</mgrwt>
</event>
<event>
 6    1  0.1280499E-001  0.3000000E+03  0.7818608E-02  0.1093470E+00
         21   -1    0    0  501  502  0.00000000000E+00  0.00000000000E+00  0.10374743047E+01  0.10374743047E+01  0.00000000000E+00 0. -1.
         13   -1    0    0    0    0 -0.00000000000E+00 -0.00000000000E+00 -0.10000000000E+04  0.10000000000E+04  0.00000000000E+00 0.  1.
    9000005    2    1    2  501    0  0.81789331279E+01  0.28892132396E+02 -0.33307261377E+03  0.33447087968E+03  0.56349845555E+01 0.  0.
         13    1    3    3    0    0  0.72717662498E+01  0.25200644913E+02 -0.30759433842E+03  0.30871058958E+03  0.00000000000E+00 0.  1.
          3    1    3    3  501    0  0.90716687809E+00  0.36914874834E+01 -0.25478275343E+02  0.25760290100E+02  0.00000000000E+00 0.  1.
         -1    1    1    2    0  502 -0.81789331279E+01 -0.28892132396E+02 -0.66588991193E+03  0.66656659462E+03  0.00000000000E+00 0. -1.
<mgrwt>
<rscale>  1 0.30000000E+03</rscale>
<asrwt>0</asrwt>
<pdfrwt beam="1">  1       21 0.37726418E-02 0.30000000E+03</pdfrwt>
<pdfrwt beam="2">0</pdfrwt>
<totfact> 0.46395841E+04</totfact>
</mgrwt>
</event>
<event>
 6    1  0.1280499E-001  0.3000000E+03  0.7818608E-02  0.1093470E+00
         21   -1    0    0  501  502  0.00000000000E+00  0.00000000000E+00  0.14571233746E+01  0.14571233746E+01  0.00000000000E+00 0. -1.
         13   -1    0    0    0    0 -0.00000000000E+00 -0.00000000000E+00 -0.10000000000E+04  0.10000000000E+04  0.00000000000E+00 0.  1.
    9000005    2    1    2  501    0  0.33854683867E+02 -0.13470325675E+02 -0.64604700524E+03  0.64708312794E+03  0.35003138363E+01 0.  0.
         13    1    3    3    0    0  0.32724942892E+02 -0.12367400401E+02 -0.61122246020E+03  0.61222281102E+03  0.00000000000E+00 0.  1.
          3    1    3    3  501    0  0.11297409744E+01 -0.11029252739E+01 -0.34824545038E+02  0.34860316922E+02  0.00000000000E+00 0.  1.
         -3    1    1    2    0  502 -0.33854683867E+02  0.13470325675E+02 -0.35249587139E+03  0.35437399543E+03  0.00000000000E+00 0. -1.
<mgrwt>
<rscale>  1 0.30000000E+03</rscale>
<asrwt>0</asrwt>
<pdfrwt beam="1">  1       21 0.52986416E-02 0.30000000E+03</pdfrwt>
<pdfrwt beam="2">0</pdfrwt>
<totfact> 0.26088299E+04</totfact>
</mgrwt>
</event>
<event>
 6    1  0.1280499E-001  0.3000000E+03  0.7818608E-02  0.1093470E+00
         21   -1    0    0  501  502  0.00000000000E+00  0.00000000000E+00  0.21859650557E+01  0.21859650557E+01  0.00000000000E+00 0. -1.
         13   -1    0    0    0    0 -0.00000000000E+00 -0.00000000000E+00 -0.10000000000E+04  0.10000000000E+04  0.00000000000E+00 0.  1.
    9000005    2    1    2  501    0  0.16437952198E+02  0.26088432881E+02 -0.87446279575E+03  0.87503903897E+03  0.75713912373E+01 0.  0.
         13    1    3    3    0    0  0.11159106251E+02  0.12294206405E+02 -0.52937802085E+03  0.52963833143E+03  0.00000000000E+00 0.  1.
          3    1    3    3  501    0  0.52788459473E+01  0.13794226477E+02 -0.34508477491E+03  0.34540070754E+03  0.00000000000E+00 0.  1.
         -1    1    1    2    0  502 -0.16437952198E+02 -0.26088432881E+02 -0.12335123919E+03  0.12714692609E+03  0.00000000000E+00 0. -1.
<mgrwt>
<rscale>  1 0.30000000E+03</rscale>
<asrwt>0</asrwt>
<pdfrwt beam="1">  1       21 0.79489806E-02 0.30000000E+03</pdfrwt>
<pdfrwt beam="2">0</pdfrwt>
<totfact> 0.12918199E+04</totfact>
</mgrwt>
</event>
<event>
 6    1  0.1280499E-001  0.3000000E+03  0.7818608E-02  0.1093470E+00
         21   -1    0    0  501  502  0.00000000000E+00  0.00000000000E+00  0.17577719780E+01  0.17577719780E+01  0.00000000000E+00 0. -1.
         13   -1    0    0    0    0 -0.00000000000E+00 -0.00000000000E+00 -0.10000000000E+04  0.10000000000E+04  0.00000000000E+00 0.  1.
    9000005    2    1    2  501    0  0.23570403089E+02 -0.19682591765E+02 -0.16040837887E+03  0.16336136985E+03  0.36222681320E+01 0.  0.
         13    1    3    3    0    0  0.13916646036E+02 -0.95849528887E+01 -0.92534707141E+02  0.94064958324E+02  0.00000000000E+00 0.  1.
          3    1    3    3  501    0  0.96537570524E+01 -0.10097638876E+02 -0.67873671731E+02  0.69296411526E+02  0.00000000000E+00 0.  1.
         -3    1    1    2    0  502 -0.23570403089E+02  0.19682591765E+02 -0.83783384915E+03  0.83839640213E+03  0.00000000000E+00 0. -1.
<mgrwt>
<rscale>  1 0.30000000E+03</rscale>
<asrwt>0</asrwt>
<pdfrwt beam="1">  1       21 0.63919116E-02 0.30000000E+03</pdfrwt>
<pdfrwt beam="2">0</pdfrwt>
<totfact> 0.18890355E+04</totfact>
</mgrwt>
</event>
<event>
 6    1  0.1280499E-001  0.3000000E+03  0.7818608E-02  0.1093470E+00
         21   -1    0    0  501  502  0.00000000000E+00  0.00000000000E+00  0.12314510716E+01  0.12314510716E+01  0.00000000000E+00 0. -1.
         13   -1    0    0    0    0 -0.00000000000E+00 -0.00000000000E+00 -0.10000000000E+04  0.10000000000E+04  0.00000000000E+00 0.  1.
    9000005    2    1    2  501    0 -0.35013402650E+02  0.10309140471E+01 -0.49587370897E+03  0.49711814912E+03  0.29525898413E+01 0.  0.
         13    1    3    3    0    0 -0.29559548180E+02  0.17650187642E+01 -0.42615958401E+03  0.42718716416E+03  0.00000000000E+00 0.  1.
          1    1    3    3  501    0 -0.54538544704E+01 -0.73410471710E+00 -0.69714124959E+02  0.69930984957E+02  0.00000000000E+00 0.  1.
         -3    1    1    2    0  502  0.35013402650E+02 -0.10309140471E+01 -0.50289483996E+03  0.50411330195E+03  0.00000000000E+00 0. -1.
<mgrwt>
<rscale>  1 0.30000000E+03</rscale>
<asrwt>0</asrwt>
<pdfrwt beam="1">  1       21 0.44780133E-02 0.30000000E+03</pdfrwt>
<pdfrwt beam="2">0</pdfrwt>
<totfact> 0.34745717E+04</totfact>
</mgrwt>
</event>
<event>
 6    1  0.1280499E-001  0.3000000E+03  0.7818608E-02  0.1093470E+00
         21   -1    0    0  501  502  0.00000000000E+00  0.00000000000E+00  0.17742488282E+01  0.17742488282E+01  0.00000000000E+00 0. -1.
         13   -1    0    0    0    0 -0.00000000000E+00 -0.00000000000E+00 -0.10000000000E+04  0.10000000000E+04  0.00000000000E+00 0.  1.
    9000005    2    1    2  501    0 -0.32071062432E+02  0.25835235168E+02 -0.39848278668E+03  0.40061899777E+03  0.33222988123E+01 0.  0.
         13    1    3    3    0    0 -0.18935399540E+01  0.11157398015E+01 -0.28801874255E+02  0.28885607653E+02  0.00000000000E+00 0.  1.
          3    1    3    3  501    0 -0.30177522478E+02  0.24719495366E+02 -0.36968091243E+03  0.37173339011E+03  0.00000000000E+00 0.  1.
         -1    1    1    2    0  502  0.32071062432E+02 -0.25835235168E+02 -0.59974296449E+03  0.60115525106E+03  0.00000000000E+00 0. -1.
<mgrwt>
<rscale>  1 0.30000000E+03</rscale>
<asrwt>0</asrwt>
<pdfrwt beam="1">  1       21 0.64518275E-02 0.30000000E+03</pdfrwt>
<pdfrwt beam="2">0</pdfrwt>
<totfact> 0.18587859E+04</totfact>
</mgrwt>
</event>
<event>
 6    1  0.1280499E-001  0.3000000E+03  0.7818608E-02  0.1093470E+00
         21   -1    0    0  501  502  0.00000000000E+00  0.00000000000E+00  0.20857670231E+01  0.20857670231E+01  0.00000000000E+00 0. -1.
         13   -1    0    0    0    0 -0.00000000000E+00 -0.00000000000E+00 -0.10000000000E+04  0.10000000000E+04  0.00000000000E+00 0.  1.
    9000005    2    1    2  501    0  0.25658441222E+02 -0.18378622696E+02 -0.86081850413E+03  0.86140396918E+03  0.34887930646E+01 0.  0.
         13    1    3    3    0    0  0.11129730313E+02 -0.97807134985E+01 -0.37718972153E+03  0.37748062106E+03  0.00000000000E+00 0.  1.
          3    1    3    3  501    0  0.14528710909E+02 -0.85979091975E+01 -0.48362878261E+03  0.48392334811E+03  0.00000000000E+00 0.  1.
         -1    1    1    2    0  502 -0.25658441222E+02  0.18378622696E+02 -0.13709572884E+03  0.14068179785E+03  0.00000000000E+00 0. -1.
<mgrwt>
<rscale>  1 0.30000000E+03</rscale>
<asrwt>0</asrwt>
<pdfrwt beam="1">  1       21 0.75846234E-02 0.30000000E+03</pdfrwt>
<pdfrwt beam="2">0</pdfrwt>
<totfact> 0.14026132E+04</totfact>
</mgrwt>
</event>
<event>
 6    1  0.1280499E-001  0.3000000E+03  0.7818608E-02  0.1093470E+00
         21   -1    0    0  501  502  0.00000000000E+00  0.00000000000E+00  0.56040415669E+01  0.56040415669E+01  0.00000000000E+00 0. -1.
         13   -1    0    0    0    0 -0.00000000000E+00 -0.00000000000E+00 -0.10000000000E+04  0.10000000000E+04  0.00000000000E+00 0.  1.
    9000005    2    1    2  501    0 -0.63529726671E+02 -0.53977500065E+01 -0.75838971508E+03  0.76113705243E+03  0.10463783576E+02 0.  0.
         13    1    3    3    0    0 -0.47555411506E+02 -0.25216363926E+01 -0.51045422317E+03  0.51267083959E+03  0.00000000000E+00 0.  1.
          1    1    3    3  501    0 -0.15974315165E+02 -0.28761136139E+01 -0.24793549192E+03  0.24846621285E+03  0.00000000000E+00 0.  1.
         -3    1    1    2    0  502  0.63529726671E+02  0.53977500065E+01 -0.23600624335E+03  0.24446698914E+03  0.00000000000E+00 0. -1.
<mgrwt>
<rscale>  1 0.30000000E+03</rscale>
<asrwt>0</asrwt>
<pdfrwt beam="1">  1       21 0.20378376E-01 0.30000000E+03</pdfrwt>
<pdfrwt beam="2">0</pdfrwt>
<totfact> 0.23148262E+03</totfact>
</mgrwt>
</event>
<event>
 6    1  0.1280499E-001  0.3000000E+03  0.7818608E-02  0.1093470E+00
         21   -1    0    0  501  502  0.00000000000E+00  0.00000000000E+00  0.39317340277E+01  0.39317340277E+01  0.00000000000E+00 0. -1.
         13   -1    0    0    0    0 -0.00000000000E+00 -0.00000000000E+00 -0.10000000000E+04  0.10000000000E+04  0.00000000000E+00 0.  1.
    9000005    2    1    2  501    0  0.44049682208E+02  0.11527094879E+02 -0.84214523922E+03  0.84341523462E+03  0.82100926495E+01 0.  0.
         13    1    3    3    0    0  0.16073048735E+02  0.60131360318E+01 -0.25391093563E+03  0.25449020401E+03  0.00000000000E+00 0.  1.
          3    1    3    3  501    0  0.27976633472E+02  0.55139588473E+01 -0.58823430359E+03  0.58892503061E+03  0.00000000000E+00 0.  1.
         -3    1    1    2    0  502 -0.44049682208E+02 -0.11527094879E+02 -0.15392302675E+03  0.16051649941E+03  0.00000000000E+00 0. -1.
<mgrwt>
<rscale>  1 0.30000000E+03</rscale>
<asrwt>0</asrwt>
<pdfrwt beam="1">  1       21 0.14297245E-01 0.30000000E+03</pdfrwt>
<pdfrwt beam="2">0</pdfrwt>
<totfact> 0.44994133E+03</totfact>
</mgrwt>
</event>
<event>
 6    1  0.1280499E-001  0.3000000E+03  0.7818608E-02  0.1093470E+00
         21   -1    0    0  501  502  0.00000000000E+00  0.00000000000E+00  0.13139915223E+01  0.13139915223E+01  0.00000000000E+00 0. -1.
         13   -1    0    0    0    0 -0.00000000000E+00 -0.00000000000E+00 -0.10000000000E+04  0.10000000000E+04  0.00000000000E+00 0.  1.
    9000005    2    1    2  501    0  0.62965339015E+01 -0.30577336371E+02 -0.24830526943E+03  0.25028411637E+03  0.34658680465E+01 0.  0.
         13    1    3    3    0    0  0.43177162626E+01 -0.25490940010E+02 -0.19696942557E+03  0.19865896734E+03  0.00000000000E+00 0.  1.
          1    1    3    3  501    0  0.19788176389E+01 -0.50863963608E+01 -0.51335843858E+02  0.51625149024E+02  0.00000000000E+00 0.  1.
         -3    1    1    2    0  502 -0.62965339015E+01  0.30577336371E+02 -0.75038073905E+03  0.75102987515E+03  0.00000000000E+00 0. -1.
<mgrwt>
<rscale>  1 0.30000000E+03</rscale>
<asrwt>0</asrwt>
<pdfrwt beam="1">  1       21 0.47781611E-02 0.30000000E+03</pdfrwt>
<pdfrwt beam="2">0</pdfrwt>
<totfact> 0.31119056E+04</totfact>
</mgrwt>
</event>
<event>
 6    1  0.1280499E-001  0.3000000E+03  0.7818608E-02  0.1093470E+00
         21   -1    0    0  501  502  0.00000000000E+00  0.00000000000E+00  0.36602096535E+01  0.36602096535E+01  0.00000000000E+00 0. -1.
         13   -1    0    0    0    0 -0.00000000000E+00 -0.00000000000E+00 -0.10000000000E+04  0.10000000000E+04  0.00000000000E+00 0.  1.
    9000005    2    1    2  501    0 -0.54923329701E+02  0.12019247961E+01 -0.70784208599E+03  0.70997850749E+03  0.33234959896E+01 0.  0.
         13    1    3    3    0    0 -0.32661559363E+02  0.22941858786E+01 -0.41584755061E+03  0.41713454196E+03  0.00000000000E+00 0.  1.
          3    1    3    3  501    0 -0.22261770338E+02 -0.10922610824E+01 -0.29199453538E+03  0.29284396552E+03  0.00000000000E+00 0.  1.
         -3    1    1    2    0  502  0.54923329701E+02 -0.12019247961E+01 -0.28849770436E+03  0.29368170217E+03  0.00000000000E+00 0. -1.
<mgrwt>
<rscale>  1 0.30000000E+03</rscale>
<asrwt>0</asrwt>
<pdfrwt beam="1">  1       21 0.13309881E-01 0.30000000E+03</pdfrwt>
<pdfrwt beam="2">0</pdfrwt>
<totfact> 0.51307854E+03</totfact>
</mgrwt>
</event>
<event>
 6    1  0.1280499E-001  0.3000000E+03  0.7818608E-02  0.1093470E+00
         21   -1    0    0  501  502  0.00000000000E+00  0.00000000000E+00  0.27093488580E+01  0.27093488580E+01  0.00000000000E+00 0. -1.
         13   -1    0    0    0    0 -0.00000000000E+00 -0.00000000000E+00 -0.10000000000E+04  0.10000000000E+04  0.00000000000E+00 0.  1.
    9000005    2    1    2  501    0  0.30374694908E+02  0.39512041162E+02 -0.63508035965E+03  0.63708643006E+03  0.82603066574E+01 0.  0.
         13    1    3    3    0    0  0.11745984761E+02  0.92688507718E+01 -0.17756046119E+03  0.17818977841E+03  0.00000000000E+00 0.  1.
          3    1    3    3  501    0  0.18628710147E+02  0.30243190390E+02 -0.45751989847E+03  0.45889665166E+03  0.00000000000E+00 0.  1.
         -3    1    1    2    0  502 -0.30374694908E+02 -0.39512041162E+02 -0.36221029149E+03  0.36562291879E+03  0.00000000000E+00 0. -1.
<mgrwt>
<rscale>  1 0.30000000E+03</rscale>
<asrwt>0</asrwt>
<pdfrwt beam="1">  1       21 0.98521984E-02 0.30000000E+03</pdfrwt>
<pdfrwt beam="2">0</pdfrwt>
<totfact> 0.88350718E+03</totfact>
</mgrwt>
</event>
<event>
 6    1  0.1280499E-001  0.3000000E+03  0.7818608E-02  0.1093470E+00
         21   -1    0    0  501  502  0.00000000000E+00  0.00000000000E+00  0.15804598105E+01  0.15804598105E+01  0.00000000000E+00 0. -1.
         13   -1    0    0    0    0 -0.00000000000E+00 -0.00000000000E+00 -0.10000000000E+04  0.10000000000E+04  0.00000000000E+00 0.  1.
    9000005    2    1    2  501    0  0.11547491441E+02 -0.28490254728E+02 -0.81557530543E+03  0.81616996022E+03  0.50285154561E+01 0.  0.
         13    1    3    3    0    0  0.79201933802E+00 -0.76929949179E+01 -0.19799563732E+03  0.19814661709E+03  0.00000000000E+00 0.  1.
          1    1    3    3  501    0  0.10755472103E+02 -0.20797259811E+02 -0.61757966811E+03  0.61802334314E+03  0.00000000000E+00 0.  1.
         -1    1    1    2    0  502 -0.11547491441E+02  0.28490254728E+02 -0.18284423476E+03  0.18541049959E+03  0.00000000000E+00 0. -1.
<mgrwt>
<rscale>  1 0.30000000E+03</rscale>
<asrwt>0</asrwt>
<pdfrwt beam="1">  1       21 0.57471387E-02 0.30000000E+03</pdfrwt>
<pdfrwt beam="2">0</pdfrwt>
<totfact> 0.22694461E+04</totfact>
</mgrwt>
</event>
<event>
 6    1  0.1280499E-001  0.3000000E+03  0.7818608E-02  0.1093470E+00
         21   -1    0    0  501  502  0.00000000000E+00  0.00000000000E+00  0.15678882083E+01  0.15678882083E+01  0.00000000000E+00 0. -1.
         13   -1    0    0    0    0 -0.00000000000E+00 -0.00000000000E+00 -0.10000000000E+04  0.10000000000E+04  0.00000000000E+00 0.  1.
    9000005    2    1    2  501    0  0.37018458150E+02  0.21936443826E+01 -0.67327518410E+03  0.67430315447E+03  0.31768366118E+01 0.  0.
         13    1    3    3    0    0  0.96311672276E+00  0.54421786804E+00 -0.24124613281E+02  0.24149963413E+02  0.00000000000E+00 0.  1.
          1    1    3    3  501    0  0.36055341427E+02  0.16494265146E+01 -0.64915057082E+03  0.65015319106E+03  0.00000000000E+00 0.  1.
         -1    1    1    2    0  502 -0.37018458150E+02 -0.21936443826E+01 -0.32515692769E+03  0.32726473373E+03  0.00000000000E+00 0. -1.
<mgrwt>
<rscale>  1 0.30000000E+03</rscale>
<asrwt>0</asrwt>
<pdfrwt beam="1">  1       21 0.57014237E-02 0.30000000E+03</pdfrwt>
<pdfrwt beam="2">0</pdfrwt>
<totfact> 0.23008377E+04</totfact>
</mgrwt>
</event>
<event>
 6    1  0.1280499E-001  0.3000000E+03  0.7818608E-02  0.1093470E+00
         21   -1    0    0  501  502  0.00000000000E+00  0.00000000000E+00  0.97574948006E+00  0.97574948006E+00  0.00000000000E+00 0. -1.
         13   -1    0    0    0    0 -0.00000000000E+00 -0.00000000000E+00 -0.10000000000E+04  0.10000000000E+04  0.00000000000E+00 0.  1.
    9000005    2    1    2  501    0  0.29941706609E+02 -0.28395711923E+01 -0.63135446209E+03  0.63207787434E+03  0.30681377310E+01 0.  0.
         13    1    3    3    0    0  0.12858092995E+01 -0.38618416241E+00 -0.42883437092E+02  0.42904447562E+02  0.00000000000E+00 0.  1.
          3    1    3    3  501    0  0.28655897310E+02 -0.24533870299E+01 -0.58847102500E+03  0.58917342678E+03  0.00000000000E+00 0.  1.
         -3    1    1    2    0  502 -0.29941706609E+02  0.28395711923E+01 -0.36766978843E+03  0.36889787514E+03  0.00000000000E+00 0. -1.
<mgrwt>
<rscale>  1 0.30000000E+03</rscale>
<asrwt>0</asrwt>
<pdfrwt beam="1">  1       21 0.35481874E-02 0.30000000E+03</pdfrwt>
<pdfrwt beam="2">0</pdfrwt>
<totfact> 0.51425156E+04</totfact>
</mgrwt>
</event>
<event>
 6    1  0.1280499E-001  0.3000000E+03  0.7818608E-02  0.1093470E+00
         21   -1    0    0  501  502  0.00000000000E+00  0.00000000000E+00  0.14019778272E+01  0.14019778272E+01  0.00000000000E+00 0. -1.
         13   -1    0    0    0    0 -0.00000000000E+00 -0.00000000000E+00 -0.10000000000E+04  0.10000000000E+04  0.00000000000E+00 0.  1.
    9000005    2    1    2  501    0 -0.25257018620E+02 -0.27403539762E+02 -0.46827613615E+03  0.46977224411E+03  0.38145333065E+01 0.  0.
         13    1    3    3    0    0 -0.52254423717E+01 -0.36065417980E+01 -0.75933068735E+02  0.76198053251E+02  0.00000000000E+00 0.  1.
          3    1    3    3  501    0 -0.20031576248E+02 -0.23796997964E+02 -0.39234306741E+03  0.39357419086E+03  0.00000000000E+00 0.  1.
         -1    1    1    2    0  502  0.25257018620E+02  0.27403539762E+02 -0.53032188602E+03  0.53162973372E+03  0.00000000000E+00 0. -1.
<mgrwt>
<rscale>  1 0.30000000E+03</rscale>
<asrwt>0</asrwt>
<pdfrwt beam="1">  1       21 0.50981119E-02 0.30000000E+03</pdfrwt>
<pdfrwt beam="2">0</pdfrwt>
<totfact> 0.27865625E+04</totfact>
</mgrwt>
</event>
<event>
 6    1  0.1280499E-001  0.3000000E+03  0.7818608E-02  0.1093470E+00
         21   -1    0    0  501  502  0.00000000000E+00  0.00000000000E+00  0.18170660329E+01  0.18170660329E+01  0.00000000000E+00 0. -1.
         13   -1    0    0    0    0 -0.00000000000E+00 -0.00000000000E+00 -0.10000000000E+04  0.10000000000E+04  0.00000000000E+00 0.  1.
    9000005    2    1    2  501    0 -0.18256905395E+02 -0.38451047802E+02 -0.49017112090E+03  0.49202514780E+03  0.30365505909E+01 0.  0.
         13    1    3    3    0    0 -0.57992247527E+01 -0.13785996318E+02 -0.18722166579E+03  0.18781809509E+03  0.00000000000E+00 0.  1.
          1    1    3    3  501    0 -0.12457680643E+02 -0.24665051484E+02 -0.30294945511E+03  0.30420705271E+03  0.00000000000E+00 0.  1.
         -1    1    1    2    0  502  0.18256905395E+02  0.38451047802E+02 -0.50801181307E+03  0.50979191823E+03  0.00000000000E+00 0. -1.
<mgrwt>
<rscale>  1 0.30000000E+03</rscale>
<asrwt>0</asrwt>
<pdfrwt beam="1">  1       21 0.66075268E-02 0.30000000E+03</pdfrwt>
<pdfrwt beam="2">0</pdfrwt>
<totfact> 0.17835852E+04</totfact>
</mgrwt>
</event>
<event>
 6    1  0.1280499E-001  0.3000000E+03  0.7818608E-02  0.1093470E+00
         21   -1    0    0  501  502  0.00000000000E+00  0.00000000000E+00  0.20545524981E+01  0.20545524981E+01  0.00000000000E+00 0. -1.
         13   -1    0    0    0    0 -0.00000000000E+00 -0.00000000000E+00 -0.10000000000E+04  0.10000000000E+04  0.00000000000E+00 0.  1.
    9000005    2    1    2  501    0 -0.40311080115E+00 -0.39958780452E+02 -0.73472564237E+03  0.73581869381E+03  0.32425271316E+01 0.  0.
         13    1    3    3    0    0  0.13366728989E+01 -0.15071564590E+02 -0.28668617455E+03  0.28708518149E+03  0.00000000000E+00 0.  1.
          1    1    3    3  501    0 -0.17397837001E+01 -0.24887215862E+02 -0.44803946782E+03  0.44873351232E+03  0.00000000000E+00 0.  1.
         -1    1    1    2    0  502  0.40311080115E+00  0.39958780452E+02 -0.26321980513E+03  0.26623585868E+03  0.00000000000E+00 0. -1.
<mgrwt>
<rscale>  1 0.30000000E+03</rscale>
<asrwt>0</asrwt>
<pdfrwt beam="1">  1       21 0.74711157E-02 0.30000000E+03</pdfrwt>
<pdfrwt beam="2">0</pdfrwt>
<totfact> 0.14401424E+04</totfact>
</mgrwt>
</event>
<event>
 6    1  0.1280499E-001  0.3000000E+03  0.7818608E-02  0.1093470E+00
         21   -1    0    0  501  502  0.00000000000E+00  0.00000000000E+00  0.96037967385E+00  0.96037967385E+00  0.00000000000E+00 0. -1.
         13   -1    0    0    0    0 -0.00000000000E+00 -0.00000000000E+00 -0.10000000000E+04  0.10000000000E+04  0.00000000000E+00 0.  1.
    9000005    2    1    2  501    0 -0.92227927066E+01  0.29225421998E+02 -0.50147371205E+03  0.50245158509E+03  0.65212183308E+01 0.  0.
         13    1    3    3    0    0 -0.90205214499E+01  0.18364048242E+02 -0.33327676440E+03  0.33390419249E+03  0.00000000000E+00 0.  1.
          3    1    3    3  501    0 -0.20227125669E+00  0.10861373756E+02 -0.16819694764E+03  0.16854739259E+03  0.00000000000E+00 0.  1.
         -1    1    1    2    0  502  0.92227927066E+01 -0.29225421998E+02 -0.49756590828E+03  0.49850879459E+03  0.00000000000E+00 0. -1.
<mgrwt>
<rscale>  1 0.30000000E+03</rscale>
<asrwt>0</asrwt>
<pdfrwt beam="1">  1       21 0.34922971E-02 0.30000000E+03</pdfrwt>
<pdfrwt beam="2">0</pdfrwt>
<totfact> 0.52811268E+04</totfact>
</mgrwt>
</event>
<event>
 6    1  0.1280499E-001  0.3000000E+03  0.7818608E-02  0.1093470E+00
         21   -1    0    0  501  502  0.00000000000E+00  0.00000000000E+00  0.13567381458E+01  0.13567381458E+01  0.00000000000E+00 0. -1.
         13   -1    0    0    0    0 -0.00000000000E+00 -0.00000000000E+00 -0.10000000000E+04  0.10000000000E+04  0.00000000000E+00 0.  1.
    9000005    2    1    2  501    0 -0.23861329162E+00  0.36395459763E+02 -0.42827430132E+03  0.42982770339E+03  0.28794101598E+01 0.  0.
         13    1    3    3    0    0 -0.62507997410E+00  0.64286529794E+01 -0.65560304105E+02  0.65877703196E+02  0.00000000000E+00 0.  1.
          1    1    3    3  501    0  0.38646668248E+00  0.29966806784E+02 -0.36271399721E+03  0.36395000019E+03  0.00000000000E+00 0.  1.
         -3    1    1    2    0  502  0.23861329162E+00 -0.36395459763E+02 -0.57036896054E+03  0.57152903476E+03  0.00000000000E+00 0. -1.
<mgrwt>
<rscale>  1 0.30000000E+03</rscale>
<asrwt>0</asrwt>
<pdfrwt beam="1">  1       21 0.49336037E-02 0.30000000E+03</pdfrwt>
<pdfrwt beam="2">0</pdfrwt>
<totfact> 0.29468409E+04</totfact>
</mgrwt>
</event>
<event>
 6    1  0.1280499E-001  0.3000000E+03  0.7818608E-02  0.1093470E+00
         21   -1    0    0  501  502  0.00000000000E+00  0.00000000000E+00  0.18034609797E+01  0.18034609797E+01  0.00000000000E+00 0. -1.
         13   -1    0    0    0    0 -0.00000000000E+00 -0.00000000000E+00 -0.10000000000E+04  0.10000000000E+04  0.00000000000E+00 0.  1.
    9000005    2    1    2  501    0  0.56449695847E+01 -0.41590598325E+02 -0.57130574033E+03  0.57285428268E+03  0.31838199206E+01 0.  0.
         13    1    3    3    0    0  0.46447902594E+01 -0.33146269693E+02 -0.47193662014E+03  0.47312199558E+03  0.00000000000E+00 0.  1.
          1    1    3    3  501    0  0.10001793253E+01 -0.84443286320E+01 -0.99369120186E+02  0.99732287105E+02  0.00000000000E+00 0.  1.
         -1    1    1    2    0  502 -0.56449695847E+01  0.41590598325E+02 -0.42689079870E+03  0.42894917830E+03  0.00000000000E+00 0. -1.
<mgrwt>
<rscale>  1 0.30000000E+03</rscale>
<asrwt>0</asrwt>
<pdfrwt beam="1">  1       21 0.65580538E-02 0.30000000E+03</pdfrwt>
<pdfrwt beam="2">0</pdfrwt>
<totfact> 0.18069635E+04</totfact>
</mgrwt>
</event>
<event>
 6    1  0.1280499E-001  0.3000000E+03  0.7818608E-02  0.1093470E+00
         21   -1    0    0  501  502  0.00000000000E+00  0.00000000000E+00  0.11527989084E+01  0.11527989084E+01  0.00000000000E+00 0. -1.
         13   -1    0    0    0    0 -0.00000000000E+00 -0.00000000000E+00 -0.10000000000E+04  0.10000000000E+04  0.00000000000E+00 0.  1.
    9000005    2    1    2  501    0  0.30827448612E+02 -0.28543644136E+01 -0.70227032208E+03  0.70296439513E+03  0.41056742137E+01 0.  0.
         13    1    3    3    0    0  0.17420823871E+02 -0.25098053769E+00 -0.42750171660E+03  0.42785659490E+03  0.00000000000E+00 0.  1.
          3    1    3    3  501    0  0.13406624741E+02 -0.26033838759E+01 -0.27476860548E+03  0.27510780023E+03  0.00000000000E+00 0.  1.
         -1    1    1    2    0  502 -0.30827448612E+02  0.28543644136E+01 -0.29657687901E+03  0.29818840378E+03  0.00000000000E+00 0. -1.
<mgrwt>
<rscale>  1 0.30000000E+03</rscale>
<asrwt>0</asrwt>
<pdfrwt beam="1">  1       21 0.41920049E-02 0.30000000E+03</pdfrwt>
<pdfrwt beam="2">0</pdfrwt>
<totfact> 0.38851256E+04</totfact>
</mgrwt>
</event>
<event>
 6    1  0.1280499E-001  0.3000000E+03  0.7818608E-02  0.1093470E+00
         21   -1    0    0  501  502  0.00000000000E+00  0.00000000000E+00  0.11616049499E+01  0.11616049499E+01  0.00000000000E+00 0. -1.
         13   -1    0    0    0    0 -0.00000000000E+00 -0.00000000000E+00 -0.10000000000E+04  0.10000000000E+04  0.00000000000E+00 0.  1.
    9000005    2    1    2  501    0  0.95568179102E+01  0.32591387499E+02 -0.47690946966E+03  0.47812878144E+03  0.33102997170E+01 0.  0.
         13    1    3    3    0    0  0.93024074929E+01  0.31378966043E+02 -0.44866167614E+03  0.44985383618E+03  0.00000000000E+00 0.  1.
          1    1    3    3  501    0  0.25441041735E+00  0.12124214557E+01 -0.28247793526E+02  0.28274945261E+02  0.00000000000E+00 0.  1.
         -1    1    1    2    0  502 -0.95568179102E+01 -0.32591387499E+02 -0.52192892539E+03  0.52303282351E+03  0.00000000000E+00 0. -1.
<mgrwt>
<rscale>  1 0.30000000E+03</rscale>
<asrwt>0</asrwt>
<pdfrwt beam="1">  1       21 0.42240269E-02 0.30000000E+03</pdfrwt>
<pdfrwt beam="2">0</pdfrwt>
<totfact> 0.38355145E+04</totfact>
</mgrwt>
</event>
<event>
 6    1  0.1280499E-001  0.3000000E+03  0.7818608E-02  0.1093470E+00
         21   -1    0    0  501  502  0.00000000000E+00  0.00000000000E+00  0.56719386120E+01  0.56719386120E+01  0.00000000000E+00 0. -1.
         13   -1    0    0    0    0 -0.00000000000E+00 -0.00000000000E+00 -0.10000000000E+04  0.10000000000E+04  0.00000000000E+00 0.  1.
    9000005    2    1    2  501    0 -0.50360716451E+02 -0.65842926885E+01 -0.86837234143E+03  0.86986178413E+03  0.30733448318E+01 0.  0.
         13    1    3    3    0    0 -0.17562170532E+02 -0.29656024664E+01 -0.32713966569E+03  0.32762415280E+03  0.00000000000E+00 0.  1.
          1    1    3    3  501    0 -0.32798545919E+02 -0.36186902221E+01 -0.54123267574E+03  0.54223763132E+03  0.00000000000E+00 0.  1.
         -3    1    1    2    0  502  0.50360716451E+02  0.65842926885E+01 -0.12595571996E+03  0.13581015449E+03  0.00000000000E+00 0. -1.
<mgrwt>
<rscale>  1 0.30000000E+03</rscale>
<asrwt>0</asrwt>
<pdfrwt beam="1">  1       21 0.20625275E-01 0.30000000E+03</pdfrwt>
<pdfrwt beam="2">0</pdfrwt>
<totfact> 0.22621064E+03</totfact>
</mgrwt>
</event>
<event>
 6    1  0.1280499E-001  0.3000000E+03  0.7818608E-02  0.1093470E+00
         21   -1    0    0  501  502  0.00000000000E+00  0.00000000000E+00  0.28069004484E+01  0.28069004484E+01  0.00000000000E+00 0. -1.
         13   -1    0    0    0    0 -0.00000000000E+00 -0.00000000000E+00 -0.10000000000E+04  0.10000000000E+04  0.00000000000E+00 0.  1.
    9000005    2    1    2  501    0  0.43392601438E+02  0.18924717227E+02 -0.27547113556E+03  0.27953402242E+03  0.37229534785E+01 0.  0.
         13    1    3    3    0    0  0.40898781663E+02  0.18364314329E+02 -0.26418486670E+03  0.26796194165E+03  0.00000000000E+00 0.  1.
          1    1    3    3  501    0  0.24938197749E+01  0.56040289834E+00 -0.11286268863E+02  0.11572080770E+02  0.00000000000E+00 0.  1.
         -3    1    1    2    0  502 -0.43392601438E+02 -0.18924717227E+02 -0.72172196399E+03  0.72327287802E+03  0.00000000000E+00 0. -1.
<mgrwt>
<rscale>  1 0.30000000E+03</rscale>
<asrwt>0</asrwt>
<pdfrwt beam="1">  1       21 0.10206932E-01 0.30000000E+03</pdfrwt>
<pdfrwt beam="2">0</pdfrwt>
<totfact> 0.82938395E+03</totfact>
</mgrwt>
</event>
<event>
 6    1  0.1280499E-001  0.3000000E+03  0.7818608E-02  0.1093470E+00
         21   -1    0    0  501  502  0.00000000000E+00  0.00000000000E+00  0.17951897080E+01  0.17951897080E+01  0.00000000000E+00 0. -1.
         13   -1    0    0    0    0 -0.00000000000E+00 -0.00000000000E+00 -0.10000000000E+04  0.10000000000E+04  0.00000000000E+00 0.  1.
    9000005    2    1    2  501    0  0.13218600657E+02 -0.38613491286E+02 -0.63160703599E+03  0.63293253066E+03  0.32260424941E+01 0.  0.
         13    1    3    3    0    0  0.89457329731E+01 -0.28911474754E+02 -0.48405666020E+03  0.48500180391E+03  0.00000000000E+00 0.  1.
          1    1    3    3  501    0  0.42728676838E+01 -0.97020165320E+01 -0.14755037579E+03  0.14793072676E+03  0.00000000000E+00 0.  1.
         -1    1    1    2    0  502 -0.13218600657E+02  0.38613491286E+02 -0.36659777430E+03  0.36886265904E+03  0.00000000000E+00 0. -1.
<mgrwt>
<rscale>  1 0.30000000E+03</rscale>
<asrwt>0</asrwt>
<pdfrwt beam="1">  1       21 0.65279763E-02 0.30000000E+03</pdfrwt>
<pdfrwt beam="2">0</pdfrwt>
<totfact> 0.18214083E+04</totfact>
</mgrwt>
</event>
<event>
 6    1  0.1280499E-001  0.3000000E+03  0.7818608E-02  0.1093470E+00
         21   -1    0    0  501  502  0.00000000000E+00  0.00000000000E+00  0.13156650829E+01  0.13156650829E+01  0.00000000000E+00 0. -1.
         13   -1    0    0    0    0 -0.00000000000E+00 -0.00000000000E+00 -0.10000000000E+04  0.10000000000E+04  0.00000000000E+00 0.  1.
    9000005    2    1    2  501    0 -0.20630757830E+02  0.28923784651E+02 -0.59577324919E+03  0.59684124502E+03  0.33902527597E+01 0.  0.
         13    1    3    3    0    0 -0.15573388752E+02  0.22328587553E+02 -0.43150168153E+03  0.43235956959E+03  0.00000000000E+00 0.  1.
          3    1    3    3  501    0 -0.50573690781E+01  0.65951970983E+01 -0.16427156767E+03  0.16448167542E+03  0.00000000000E+00 0.  1.
         -1    1    1    2    0  502  0.20630757830E+02 -0.28923784651E+02 -0.40291108572E+03  0.40447442006E+03  0.00000000000E+00 0. -1.
<mgrwt>
<rscale>  1 0.30000000E+03</rscale>
<asrwt>0</asrwt>
<pdfrwt beam="1">  1       21 0.47842468E-02 0.30000000E+03</pdfrwt>
<pdfrwt beam="2">0</pdfrwt>
<totfact> 0.31051740E+04</totfact>
</mgrwt>
</event>
<event>
 6    1  0.1280499E-001  0.3000000E+03  0.7818608E-02  0.1093470E+00
         21   -1    0    0  501  502  0.00000000000E+00  0.00000000000E+00  0.39112334996E+01  0.39112334996E+01  0.00000000000E+00 0. -1.
         13   -1    0    0    0    0 -0.00000000000E+00 -0.00000000000E+00 -0.10000000000E+04  0.10000000000E+04  0.00000000000E+00 0.  1.
    9000005    2    1    2  501    0  0.29941075123E+02 -0.33190070137E+02 -0.84893881162E+03  0.85012190372E+03  0.34780110239E+01 0.  0.
         13    1    3    3    0    0  0.26346989050E+02 -0.30554885282E+02 -0.75431095405E+03  0.75538915815E+03  0.00000000000E+00 0.  1.
          1    1    3    3  501    0  0.35940860734E+01 -0.26351848550E+01 -0.94627857572E+02  0.94732745566E+02  0.00000000000E+00 0.  1.
         -3    1    1    2    0  502 -0.29941075123E+02  0.33190070137E+02 -0.14714995488E+03  0.15378932978E+03  0.00000000000E+00 0. -1.
<mgrwt>
<rscale>  1 0.30000000E+03</rscale>
<asrwt>0</asrwt>
<pdfrwt beam="1">  1       21 0.14222697E-01 0.30000000E+03</pdfrwt>
<pdfrwt beam="2">0</pdfrwt>
<totfact> 0.45429173E+03</totfact>
</mgrwt>
</event>
<event>
 6    1  0.1280499E-001  0.3000000E+03  0.7818608E-02  0.1093470E+00
         21   -1    0    0  501  502  0.00000000000E+00  0.00000000000E+00  0.79480835900E+01  0.79480835900E+01  0.00000000000E+00 0. -1.
         13   -1    0    0    0    0 -0.00000000000E+00 -0.00000000000E+00 -0.10000000000E+04  0.10000000000E+04  0.00000000000E+00 0.  1.
    9000005    2    1    2  501    0  0.39317827829E+02 -0.53923908861E+02 -0.83010786752E+03  0.83279228293E+03  0.31992603091E+01 0.  0.
         13    1    3    3    0    0  0.90750535748E+00 -0.18614220308E+01 -0.21019734217E+02  0.21121498159E+02  0.00000000000E+00 0.  1.
          3    1    3    3  501    0  0.38410322472E+02 -0.52062486830E+02 -0.80908813330E+03  0.81167078477E+03  0.00000000000E+00 0.  1.
         -1    1    1    2    0  502 -0.39317827829E+02  0.53923908861E+02 -0.16194404889E+03  0.17515580066E+03  0.00000000000E+00 0. -1.
<mgrwt>
<rscale>  1 0.30000000E+03</rscale>
<asrwt>0</asrwt>
<pdfrwt beam="1">  1       21 0.28902183E-01 0.30000000E+03</pdfrwt>
<pdfrwt beam="2">0</pdfrwt>
<totfact> 0.11712411E+03</totfact>
</mgrwt>
</event>
<event>
 6    1  0.1280499E-001  0.3000000E+03  0.7818608E-02  0.1093470E+00
         21   -1    0    0  501  502  0.00000000000E+00  0.00000000000E+00  0.35035594795E+01  0.35035594795E+01  0.00000000000E+00 0. -1.
         13   -1    0    0    0    0 -0.00000000000E+00 -0.00000000000E+00 -0.10000000000E+04  0.10000000000E+04  0.00000000000E+00 0.  1.
    9000005    2    1    2  501    0 -0.55941124066E+02 -0.12186095709E+02 -0.62463285095E+03  0.62725837407E+03  0.29931710900E+01 0.  0.
         13    1    3    3    0    0 -0.17138757913E+02 -0.51214878547E+01 -0.19175981753E+03  0.19259230068E+03  0.00000000000E+00 0.  1.
          3    1    3    3  501    0 -0.38802366153E+02 -0.70646078545E+01 -0.43287303341E+03  0.43466607339E+03  0.00000000000E+00 0.  1.
         -3    1    1    2    0  502  0.55941124066E+02  0.12186095709E+02 -0.37186358958E+03  0.37624518541E+03  0.00000000000E+00 0. -1.
<mgrwt>
<rscale>  1 0.30000000E+03</rscale>
<asrwt>0</asrwt>
<pdfrwt beam="1">  1       21 0.12740243E-01 0.30000000E+03</pdfrwt>
<pdfrwt beam="2">0</pdfrwt>
<totfact> 0.55574952E+03</totfact>
</mgrwt>
</event>
<event>
 6    1  0.1280499E-001  0.3000000E+03  0.7818608E-02  0.1093470E+00
         21   -1    0    0  501  502  0.00000000000E+00  0.00000000000E+00  0.11365064481E+01  0.11365064481E+01  0.00000000000E+00 0. -1.
         13   -1    0    0    0    0 -0.00000000000E+00 -0.00000000000E+00 -0.10000000000E+04  0.10000000000E+04  0.00000000000E+00 0.  1.
    9000005    2    1    2  501    0  0.10832319086E+02 -0.31641129584E+02 -0.44776839135E+03  0.44902753905E+03  0.32708269196E+01 0.  0.
         13    1    3    3    0    0  0.75450372365E+01 -0.20254238922E+02 -0.30808765335E+03  0.30884488652E+03  0.00000000000E+00 0.  1.
          3    1    3    3  501    0  0.32872818491E+01 -0.11386890662E+02 -0.13968073800E+03  0.14018265253E+03  0.00000000000E+00 0.  1.
         -3    1    1    2    0  502 -0.10832319086E+02  0.31641129584E+02 -0.55109510220E+03  0.55210896740E+03  0.00000000000E+00 0. -1.
<mgrwt>
<rscale>  1 0.30000000E+03</rscale>
<asrwt>0</asrwt>
<pdfrwt beam="1">  1       21 0.41327594E-02 0.30000000E+03</pdfrwt>
<pdfrwt beam="2">0</pdfrwt>
<totfact> 0.39795865E+04</totfact>
</mgrwt>
</event>
<event>
 6    1  0.1280499E-001  0.3000000E+03  0.7818608E-02  0.1093470E+00
         21   -1    0    0  501  502  0.00000000000E+00  0.00000000000E+00  0.14797282989E+01  0.14797282989E+01  0.00000000000E+00 0. -1.
         13   -1    0    0    0    0 -0.00000000000E+00 -0.00000000000E+00 -0.10000000000E+04  0.10000000000E+04  0.00000000000E+00 0.  1.
    9000005    2    1    2  501    0  0.20866922638E+02  0.29975351909E+02 -0.35106996532E+03  0.35300008374E+03  0.49988382364E+01 0.  0.
         13    1    3    3    0    0  0.20744116891E+02  0.28863860023E+02 -0.34514808019E+03  0.34697354087E+03  0.00000000000E+00 0.  1.
          1    1    3    3  501    0  0.12280574671E+00  0.11114918860E+01 -0.59218851327E+01  0.60265428721E+01  0.00000000000E+00 0.  1.
         -1    1    1    2    0  502 -0.20866922638E+02 -0.29975351909E+02 -0.64745030638E+03  0.64847964456E+03  0.00000000000E+00 0. -1.
<mgrwt>
<rscale>  1 0.30000000E+03</rscale>
<asrwt>0</asrwt>
<pdfrwt beam="1">  1       21 0.53808415E-02 0.30000000E+03</pdfrwt>
<pdfrwt beam="2">0</pdfrwt>
<totfact> 0.25410056E+04</totfact>
</mgrwt>
</event>
<event>
 6    1  0.1280499E-001  0.3000000E+03  0.7818608E-02  0.1093470E+00
         21   -1    0    0  501  502  0.00000000000E+00  0.00000000000E+00  0.10288603522E+01  0.10288603522E+01  0.00000000000E+00 0. -1.
         13   -1    0    0    0    0 -0.00000000000E+00 -0.00000000000E+00 -0.10000000000E+04  0.10000000000E+04  0.00000000000E+00 0.  1.
    9000005    2    1    2  501    0 -0.21615641100E+02  0.23034243078E+02 -0.58081995560E+03  0.58168624981E+03  0.30430416365E+01 0.  0.
         13    1    3    3    0    0 -0.36115059993E+01  0.56563542765E+01 -0.12133870658E+03  0.12152415000E+03  0.00000000000E+00 0.  1.
          1    1    3    3  501    0 -0.18004135101E+02  0.17377888802E+02 -0.45948124902E+03  0.46016209981E+03  0.00000000000E+00 0.  1.
         -1    1    1    2    0  502  0.21615641100E+02 -0.23034243078E+02 -0.41815118405E+03  0.41934261054E+03  0.00000000000E+00 0. -1.
<mgrwt>
<rscale>  1 0.30000000E+03</rscale>
<asrwt>0</asrwt>
<pdfrwt beam="1">  1       21 0.37413183E-02 0.30000000E+03</pdfrwt>
<pdfrwt beam="2">0</pdfrwt>
<totfact> 0.47050041E+04</totfact>
</mgrwt>
</event>
<event>
 6    1  0.1280499E-001  0.3000000E+03  0.7818608E-02  0.1093470E+00
         21   -1    0    0  501  502  0.00000000000E+00  0.00000000000E+00  0.13305205097E+01  0.13305205097E+01  0.00000000000E+00 0. -1.
         13   -1    0    0    0    0 -0.00000000000E+00 -0.00000000000E+00 -0.10000000000E+04  0.10000000000E+04  0.00000000000E+00 0.  1.
    9000005    2    1    2  501    0  0.22706091031E+02  0.22239574943E+02 -0.25889057852E+03  0.26086918622E+03  0.42702935449E+01 0.  0.
         13    1    3    3    0    0  0.19384433381E+02  0.18195193396E+02 -0.20286218004E+03  0.20459688515E+03  0.00000000000E+00 0.  1.
          3    1    3    3  501    0  0.33216576503E+01  0.40443815465E+01 -0.56028398483E+02  0.56272301074E+02  0.00000000000E+00 0.  1.
         -1    1    1    2    0  502 -0.22706091031E+02 -0.22239574943E+02 -0.73977890097E+03  0.74046133429E+03  0.00000000000E+00 0. -1.
<mgrwt>
<rscale>  1 0.30000000E+03</rscale>
<asrwt>0</asrwt>
<pdfrwt beam="1">  1       21 0.48382666E-02 0.30000000E+03</pdfrwt>
<pdfrwt beam="2">0</pdfrwt>
<totfact> 0.30464057E+04</totfact>
</mgrwt>
</event>
<event>
 6    1  0.1280499E-001  0.3000000E+03  0.7818608E-02  0.1093470E+00
         21   -1    0    0  501  502  0.00000000000E+00  0.00000000000E+00  0.36274477594E+01  0.36274477594E+01  0.00000000000E+00 0. -1.
         13   -1    0    0    0    0 -0.00000000000E+00 -0.00000000000E+00 -0.10000000000E+04  0.10000000000E+04  0.00000000000E+00 0.  1.
    9000005    2    1    2  501    0 -0.52830728725E+02  0.15382990317E+02 -0.70144490957E+03  0.70361072039E+03  0.39194898743E+01 0.  0.
         13    1    3    3    0    0 -0.78266037703E+01  0.33870856926E+01 -0.97150855882E+02  0.97524442448E+02  0.00000000000E+00 0.  1.
          1    1    3    3  501    0 -0.45004124955E+02  0.11995904624E+02 -0.60429405369E+03  0.60608627794E+03  0.00000000000E+00 0.  1.
         -1    1    1    2    0  502  0.52830728725E+02 -0.15382990317E+02 -0.29492764267E+03  0.30001672737E+03  0.00000000000E+00 0. -1.
<mgrwt>
<rscale>  1 0.30000000E+03</rscale>
<asrwt>0</asrwt>
<pdfrwt beam="1">  1       21 0.13190747E-01 0.30000000E+03</pdfrwt>
<pdfrwt beam="2">0</pdfrwt>
<totfact> 0.52158451E+03</totfact>
</mgrwt>
</event>
<event>
 6    1  0.1280499E-001  0.3000000E+03  0.7818608E-02  0.1093470E+00
         21   -1    0    0  501  502  0.00000000000E+00  0.00000000000E+00  0.93781215048E+00  0.93781215048E+00  0.00000000000E+00 0. -1.
         13   -1    0    0    0    0 -0.00000000000E+00 -0.00000000000E+00 -0.10000000000E+04  0.10000000000E+04  0.00000000000E+00 0.  1.
    9000005    2    1    2  501    0 -0.57800951660E+01 -0.29675273642E+02 -0.57028475217E+03  0.57109584035E+03  0.34247557061E+01 0.  0.
         13    1    3    3    0    0 -0.20154219492E+01 -0.13652485063E+02 -0.29010291731E+03  0.29043098131E+03  0.00000000000E+00 0.  1.
          3    1    3    3  501    0 -0.37646732167E+01 -0.16022788580E+02 -0.28018183486E+03  0.28066485904E+03  0.00000000000E+00 0.  1.
         -1    1    1    2    0  502  0.57800951660E+01  0.29675273642E+02 -0.42877743568E+03  0.42984197180E+03  0.00000000000E+00 0. -1.
<mgrwt>
<rscale>  1 0.30000000E+03</rscale>
<asrwt>0</asrwt>
<pdfrwt beam="1">  1       21 0.34102332E-02 0.30000000E+03</pdfrwt>
<pdfrwt beam="2">0</pdfrwt>
<totfact> 0.54954313E+04</totfact>
</mgrwt>
</event>
<event>
 6    1  0.1280499E-001  0.3000000E+03  0.7818608E-02  0.1093470E+00
         21   -1    0    0  501  502  0.00000000000E+00  0.00000000000E+00  0.14471921835E+01  0.14471921835E+01  0.00000000000E+00 0. -1.
         13   -1    0    0    0    0 -0.00000000000E+00 -0.00000000000E+00 -0.10000000000E+04  0.10000000000E+04  0.00000000000E+00 0.  1.
    9000005    2    1    2  501    0 -0.26559129093E+02 -0.17115754890E+02 -0.77705597911E+03  0.77770809965E+03  0.39442586757E+01 0.  0.
         13    1    3    3    0    0 -0.13193440285E+02 -0.88695700967E+01 -0.43843680598E+03  0.43872493544E+03  0.00000000000E+00 0.  1.
          1    1    3    3  501    0 -0.13365688808E+02 -0.82461847937E+01 -0.33861917313E+03  0.33898316421E+03  0.00000000000E+00 0.  1.
         -1    1    1    2    0  502  0.26559129093E+02  0.17115754890E+02 -0.22149682870E+03  0.22373909254E+03  0.00000000000E+00 0. -1.
<mgrwt>
<rscale>  1 0.30000000E+03</rscale>
<asrwt>0</asrwt>
<pdfrwt beam="1">  1       21 0.52625281E-02 0.30000000E+03</pdfrwt>
<pdfrwt beam="2">0</pdfrwt>
<totfact> 0.26395169E+04</totfact>
</mgrwt>
</event>
<event>
 6    1  0.1280499E-001  0.3000000E+03  0.7818608E-02  0.1093470E+00
         21   -1    0    0  501  502  0.00000000000E+00  0.00000000000E+00  0.19858402259E+01  0.19858402259E+01  0.00000000000E+00 0. -1.
         13   -1    0    0    0    0 -0.00000000000E+00 -0.00000000000E+00 -0.10000000000E+04  0.10000000000E+04  0.00000000000E+00 0.  1.
    9000005    2    1    2  501    0 -0.43195594507E+02 -0.81258996076E+01 -0.57797851487E+03  0.57965678295E+03  0.33064693631E+01 0.  0.
         13    1    3    3    0    0 -0.94329248902E+01 -0.16076852846E+01 -0.10889220637E+03  0.10931183528E+03  0.00000000000E+00 0.  1.
          1    1    3    3  501    0 -0.33762669617E+02 -0.65182143231E+01 -0.46908630850E+03  0.47034494767E+03  0.00000000000E+00 0.  1.
         -1    1    1    2    0  502  0.43195594507E+02  0.81258996076E+01 -0.42003564490E+03  0.42232905727E+03  0.00000000000E+00 0. -1.
<mgrwt>
<rscale>  1 0.30000000E+03</rscale>
<asrwt>0</asrwt>
<pdfrwt beam="1">  1       21 0.72212524E-02 0.30000000E+03</pdfrwt>
<pdfrwt beam="2">0</pdfrwt>
<totfact> 0.15283616E+04</totfact>
</mgrwt>
</event>
<event>
 6    1  0.1280499E-001  0.3000000E+03  0.7818608E-02  0.1093470E+00
         21   -1    0    0  501  502  0.00000000000E+00  0.00000000000E+00  0.78795909432E+01  0.78795909432E+01  0.00000000000E+00 0. -1.
         13   -1    0    0    0    0 -0.00000000000E+00 -0.00000000000E+00 -0.10000000000E+04  0.10000000000E+04  0.00000000000E+00 0.  1.
    9000005    2    1    2  501    0  0.82688527143E+01  0.40203175114E+02 -0.94286903732E+03  0.94376744832E+03  0.32102564845E+01 0.  0.
         13    1    3    3    0    0  0.50753325698E+01  0.27568909564E+02 -0.61120907284E+03  0.61185156247E+03  0.00000000000E+00 0.  1.
          1    1    3    3  501    0  0.31935201445E+01  0.12634265550E+02 -0.33165996448E+03  0.33191588584E+03  0.00000000000E+00 0.  1.
         -3    1    1    2    0  502 -0.82688527143E+01 -0.40203175114E+02 -0.49251371736E+02  0.64112142628E+02  0.00000000000E+00 0. -1.
<mgrwt>
<rscale>  1 0.30000000E+03</rscale>
<asrwt>0</asrwt>
<pdfrwt beam="1">  1       21 0.28653118E-01 0.30000000E+03</pdfrwt>
<pdfrwt beam="2">0</pdfrwt>
<totfact> 0.11915808E+03</totfact>
</mgrwt>
</event>
<event>
 6    1  0.1280499E-001  0.3000000E+03  0.7818608E-02  0.1093470E+00
         21   -1    0    0  501  502  0.00000000000E+00  0.00000000000E+00  0.21116496223E+01  0.21116496223E+01  0.00000000000E+00 0. -1.
         13   -1    0    0    0    0 -0.00000000000E+00 -0.00000000000E+00 -0.10000000000E+04  0.10000000000E+04  0.00000000000E+00 0.  1.
    9000005    2    1    2  501    0 -0.37545406266E+02 -0.19814679802E+02 -0.30972112826E+03  0.31263619345E+03  0.34544314523E+01 0.  0.
         13    1    3    3    0    0 -0.22216342942E+02 -0.10096463165E+02 -0.17082593413E+03  0.17256014672E+03  0.00000000000E+00 0.  1.
          1    1    3    3  501    0 -0.15329063324E+02 -0.97182166368E+01 -0.13889519413E+03  0.14007604673E+03  0.00000000000E+00 0.  1.
         -3    1    1    2    0  502  0.37545406266E+02  0.19814679802E+02 -0.68816722212E+03  0.68947545617E+03  0.00000000000E+00 0. -1.
<mgrwt>
<rscale>  1 0.30000000E+03</rscale>
<asrwt>0</asrwt>
<pdfrwt beam="1">  1       21 0.76787421E-02 0.30000000E+03</pdfrwt>
<pdfrwt beam="2">0</pdfrwt>
<totfact> 0.13726283E+04</totfact>
</mgrwt>
</event>
<event>
 6    1  0.1280499E-001  0.3000000E+03  0.7818608E-02  0.1093470E+00
         21   -1    0    0  501  502  0.00000000000E+00  0.00000000000E+00  0.16887582877E+01  0.16887582877E+01  0.00000000000E+00 0. -1.
         13   -1    0    0    0    0 -0.00000000000E+00 -0.00000000000E+00 -0.10000000000E+04  0.10000000000E+04  0.00000000000E+00 0.  1.
    9000005    2    1    2  501    0  0.30927205728E+02 -0.65963202866E+01 -0.81836484563E+03  0.81898487502E+03  0.38989056031E+01 0.  0.
         13    1    3    3    0    0  0.67642098487E+01 -0.21844514358E+01 -0.14886322522E+03  0.14903283594E+03  0.00000000000E+00 0.  1.
          1    1    3    3  501    0  0.24162995879E+02 -0.44118688508E+01 -0.66950162040E+03  0.66995203909E+03  0.00000000000E+00 0.  1.
         -1    1    1    2    0  502 -0.30927205728E+02  0.65963202866E+01 -0.17994639609E+03  0.18270388327E+03  0.00000000000E+00 0. -1.
<mgrwt>
<rscale>  1 0.30000000E+03</rscale>
<asrwt>0</asrwt>
<pdfrwt beam="1">  1       21 0.61409522E-02 0.30000000E+03</pdfrwt>
<pdfrwt beam="2">0</pdfrwt>
<totfact> 0.20244099E+04</totfact>
</mgrwt>
</event>
<event>
 6    1  0.1280499E-001  0.3000000E+03  0.7818608E-02  0.1093470E+00
         21   -1    0    0  501  502  0.00000000000E+00  0.00000000000E+00  0.37080153739E+01  0.37080153739E+01  0.00000000000E+00 0. -1.
         13   -1    0    0    0    0 -0.00000000000E+00 -0.00000000000E+00 -0.10000000000E+04  0.10000000000E+04  0.00000000000E+00 0.  1.
    9000005    2    1    2  501    0 -0.26014690465E+02  0.20664272822E+02 -0.91864599965E+03  0.91925284813E+03  0.33985042639E+01 0.  0.
         13    1    3    3    0    0 -0.23857801515E+02  0.19319672349E+02 -0.86861476864E+03  0.86915709784E+03  0.00000000000E+00 0.  1.
          3    1    3    3  501    0 -0.21568889502E+01  0.13446004729E+01 -0.50031231013E+02  0.50095750289E+02  0.00000000000E+00 0.  1.
         -1    1    1    2    0  502  0.26014690465E+02 -0.20664272822E+02 -0.77645984975E+02  0.84455167242E+02  0.00000000000E+00 0. -1.
<mgrwt>
<rscale>  1 0.30000000E+03</rscale>
<asrwt>0</asrwt>
<pdfrwt beam="1">  1       21 0.13483721E-01 0.30000000E+03</pdfrwt>
<pdfrwt beam="2">0</pdfrwt>
<totfact> 0.50103606E+03</totfact>
</mgrwt>
</event>
<event>
 6    1  0.1280499E-001  0.3000000E+03  0.7818608E-02  0.1093470E+00
         21   -1    0    0  501  502  0.00000000000E+00  0.00000000000E+00  0.12988764366E+01  0.12988764366E+01  0.00000000000E+00 0. -1.
         13   -1    0    0    0    0 -0.00000000000E+00 -0.00000000000E+00 -0.10000000000E+04  0.10000000000E+04  0.00000000000E+00 0.  1.
    9000005    2    1    2  501    0 -0.26845505006E+02  0.23628290097E+02 -0.55466816214E+03  0.55582806027E+03  0.30141751804E+01 0.  0.
         13    1    3    3    0    0 -0.10291811809E+02  0.74936812427E+01 -0.21014249174E+03  0.21052777367E+03  0.00000000000E+00 0.  1.
          3    1    3    3  501    0 -0.16553693198E+02  0.16134608854E+02 -0.34452567040E+03  0.34530028660E+03  0.00000000000E+00 0.  1.
         -3    1    1    2    0  502  0.26845505006E+02 -0.23628290097E+02 -0.44403296142E+03  0.44547081617E+03  0.00000000000E+00 0. -1.
<mgrwt>
<rscale>  1 0.30000000E+03</rscale>
<asrwt>0</asrwt>
<pdfrwt beam="1">  1       21 0.47231970E-02 0.30000000E+03</pdfrwt>
<pdfrwt beam="2">0</pdfrwt>
<totfact> 0.31737523E+04</totfact>
</mgrwt>
</event>
<event>
 6    1  0.1280499E-001  0.3000000E+03  0.7818608E-02  0.1093470E+00
         21   -1    0    0  501  502  0.00000000000E+00  0.00000000000E+00  0.37028136898E+01  0.37028136898E+01  0.00000000000E+00 0. -1.
         13   -1    0    0    0    0 -0.00000000000E+00 -0.00000000000E+00 -0.10000000000E+04  0.10000000000E+04  0.00000000000E+00 0.  1.
    9000005    2    1    2  501    0  0.42732643989E+01  0.48134739969E+02 -0.80293576229E+03  0.80439437363E+03  0.30423643522E+01 0.  0.
         13    1    3    3    0    0  0.37869401701E+01  0.44752086831E+02 -0.75752576707E+03  0.75885596655E+03  0.00000000000E+00 0.  1.
          1    1    3    3  501    0  0.48632422874E+00  0.33826531373E+01 -0.45409995218E+02  0.45538407078E+02  0.00000000000E+00 0.  1.
         -1    1    1    2    0  502 -0.42732643989E+01 -0.48134739969E+02 -0.19336142402E+03  0.19930844006E+03  0.00000000000E+00 0. -1.
<mgrwt>
<rscale>  1 0.30000000E+03</rscale>
<asrwt>0</asrwt>
<pdfrwt beam="1">  1       21 0.13464805E-01 0.30000000E+03</pdfrwt>
<pdfrwt beam="2">0</pdfrwt>
<totfact> 0.50232569E+03</totfact>
</mgrwt>
</event>
<event>
 6    1  0.1280499E-001  0.3000000E+03  0.7818608E-02  0.1093470E+00
         21   -1    0    0  501  502  0.00000000000E+00  0.00000000000E+00  0.99886620580E+00  0.99886620580E+00  0.00000000000E+00 0. -1.
         13   -1    0    0    0    0 -0.00000000000E+00 -0.00000000000E+00 -0.10000000000E+04  0.10000000000E+04  0.00000000000E+00 0.  1.
    9000005    2    1    2  501    0  0.14251357974E+02  0.28076055274E+02 -0.47851049992E+03  0.47955676393E+03  0.33204224777E+01 0.  0.
         13    1    3    3    0    0  0.71432820563E+00  0.33063394163E+01 -0.43416200556E+02  0.43547773948E+02  0.00000000000E+00 0.  1.
          3    1    3    3  501    0  0.13537029768E+02  0.24769715857E+02 -0.43509429937E+03  0.43600898998E+03  0.00000000000E+00 0.  1.
         -3    1    1    2    0  502 -0.14251357974E+02 -0.28076055274E+02 -0.52049063387E+03  0.52144210228E+03  0.00000000000E+00 0. -1.
<mgrwt>
<rscale>  1 0.30000000E+03</rscale>
<asrwt>0</asrwt>
<pdfrwt beam="1">  1       21 0.36322484E-02 0.30000000E+03</pdfrwt>
<pdfrwt beam="2">0</pdfrwt>
<totfact> 0.49445194E+04</totfact>
</mgrwt>
</event>
<event>
 6    1  0.1280499E-001  0.3000000E+03  0.7818608E-02  0.1093470E+00
         21   -1    0    0  501  502  0.00000000000E+00  0.00000000000E+00  0.36587591462E+01  0.36587591462E+01  0.00000000000E+00 0. -1.
         13   -1    0    0    0    0 -0.00000000000E+00 -0.00000000000E+00 -0.10000000000E+04  0.10000000000E+04  0.00000000000E+00 0.  1.
    9000005    2    1    2  501    0  0.32513881837E+02 -0.11810042447E+02 -0.90973959980E+03  0.91040387269E+03  0.35273716132E+01 0.  0.
         13    1    3    3    0    0  0.24596190183E+02 -0.98757799469E+01 -0.72577636293E+03  0.72626016867E+03  0.00000000000E+00 0.  1.
          3    1    3    3  501    0  0.79176916547E+01 -0.19342624997E+01 -0.18396323686E+03  0.18414370402E+03  0.00000000000E+00 0.  1.
         -1    1    1    2    0  502 -0.32513881837E+02  0.11810042447E+02 -0.86601641056E+02  0.93254886458E+02  0.00000000000E+00 0. -1.
<mgrwt>
<rscale>  1 0.30000000E+03</rscale>
<asrwt>0</asrwt>
<pdfrwt beam="1">  1       21 0.13304607E-01 0.30000000E+03</pdfrwt>
<pdfrwt beam="2">0</pdfrwt>
<totfact> 0.51345070E+03</totfact>
</mgrwt>
</event>
<event>
 6    1  0.1280499E-001  0.3000000E+03  0.7818608E-02  0.1093470E+00
         21   -1    0    0  501  502  0.00000000000E+00  0.00000000000E+00  0.10595115639E+01  0.10595115639E+01  0.00000000000E+00 0. -1.
         13   -1    0    0    0    0 -0.00000000000E+00 -0.00000000000E+00 -0.10000000000E+04  0.10000000000E+04  0.00000000000E+00 0.  1.
    9000005    2    1    2  501    0 -0.31095374326E+02  0.87166431136E+01 -0.54099408513E+03  0.54197584765E+03  0.45074514538E+01 0.  0.
         13    1    3    3    0    0 -0.14656931847E+02  0.41446411033E+01 -0.29285227489E+03  0.29324811783E+03  0.00000000000E+00 0.  1.
          3    1    3    3  501    0 -0.16438442480E+02  0.45720020103E+01 -0.24814181024E+03  0.24872772982E+03  0.00000000000E+00 0.  1.
         -1    1    1    2    0  502  0.31095374326E+02 -0.87166431136E+01 -0.45794640331E+03  0.45908366391E+03  0.00000000000E+00 0. -1.
<mgrwt>
<rscale>  1 0.30000000E+03</rscale>
<asrwt>0</asrwt>
<pdfrwt beam="1">  1       21 0.38527774E-02 0.30000000E+03</pdfrwt>
<pdfrwt beam="2">0</pdfrwt>
<totfact> 0.44785771E+04</totfact>
</mgrwt>
</event>
<event>
 6    1  0.1280499E-001  0.3000000E+03  0.7818608E-02  0.1093470E+00
         21   -1    0    0  501  502  0.00000000000E+00  0.00000000000E+00  0.13413179878E+01  0.13413179878E+01  0.00000000000E+00 0. -1.
         13   -1    0    0    0    0 -0.00000000000E+00 -0.00000000000E+00 -0.10000000000E+04  0.10000000000E+04  0.00000000000E+00 0.  1.
    9000005    2    1    2  501    0  0.14889219053E+02  0.31969417901E+02 -0.63125865422E+03  0.63225255773E+03  0.34750117787E+01 0.  0.
         13    1    3    3    0    0  0.29641069652E+01  0.10041054963E+02 -0.19221856347E+03  0.19250346713E+03  0.00000000000E+00 0.  1.
          3    1    3    3  501    0  0.11925112088E+02  0.21928362938E+02 -0.43904009075E+03  0.43974909060E+03  0.00000000000E+00 0.  1.
         -1    1    1    2    0  502 -0.14889219053E+02 -0.31969417901E+02 -0.36740002779E+03  0.36908876025E+03  0.00000000000E+00 0. -1.
<mgrwt>
<rscale>  1 0.30000000E+03</rscale>
<asrwt>0</asrwt>
<pdfrwt beam="1">  1       21 0.48775302E-02 0.30000000E+03</pdfrwt>
<pdfrwt beam="2">0</pdfrwt>
<totfact> 0.30047740E+04</totfact>
</mgrwt>
</event>
<event>
 6    1  0.1280499E-001  0.3000000E+03  0.7818608E-02  0.1093470E+00
         21   -1    0    0  501  502  0.00000000000E+00  0.00000000000E+00  0.10117651775E+01  0.10117651775E+01  0.00000000000E+00 0. -1.
         13   -1    0    0    0    0 -0.00000000000E+00 -0.00000000000E+00 -0.10000000000E+04  0.10000000000E+04  0.00000000000E+00 0.  1.
    9000005    2    1    2  501    0  0.20300012924E+02  0.22161996725E+02 -0.66046534449E+03  0.66115739651E+03  0.33744723261E+01 0.  0.
         13    1    3    3    0    0  0.19989357197E+01  0.90833267629E+00 -0.48033974200E+02  0.48084129292E+02  0.00000000000E+00 0.  1.
          3    1    3    3  501    0  0.18301077204E+02  0.21253664049E+02 -0.61243137029E+03  0.61307326722E+03  0.00000000000E+00 0.  1.
         -1    1    1    2    0  502 -0.20300012924E+02 -0.22161996725E+02 -0.33852289033E+03  0.33985436867E+03  0.00000000000E+00 0. -1.
<mgrwt>
<rscale>  1 0.30000000E+03</rscale>
<asrwt>0</asrwt>
<pdfrwt beam="1">  1       21 0.36791539E-02 0.30000000E+03</pdfrwt>
<pdfrwt beam="2">0</pdfrwt>
<totfact> 0.48392143E+04</totfact>
</mgrwt>
</event>
<event>
 6    1  0.1280499E-001  0.3000000E+03  0.7818608E-02  0.1093470E+00
         21   -1    0    0  501  502  0.00000000000E+00  0.00000000000E+00  0.12426538547E+01  0.12426538547E+01  0.00000000000E+00 0. -1.
         13   -1    0    0    0    0 -0.00000000000E+00 -0.00000000000E+00 -0.10000000000E+04  0.10000000000E+04  0.00000000000E+00 0.  1.
    9000005    2    1    2  501    0  0.26523097144E+02 -0.17123949693E+02 -0.71966238162E+03  0.72036776435E+03  0.43666977775E+01 0.  0.
         13    1    3    3    0    0  0.20671410096E+02 -0.15374440981E+02 -0.57891224821E+03  0.57948517821E+03  0.00000000000E+00 0.  1.
          1    1    3    3  501    0  0.58516870479E+01 -0.17495087120E+01 -0.14075013341E+03  0.14088258614E+03  0.00000000000E+00 0.  1.
         -3    1    1    2    0  502 -0.26523097144E+02  0.17123949693E+02 -0.27909496452E+03  0.28087488951E+03  0.00000000000E+00 0. -1.
<mgrwt>
<rscale>  1 0.30000000E+03</rscale>
<asrwt>0</asrwt>
<pdfrwt beam="1">  1       21 0.45187508E-02 0.30000000E+03</pdfrwt>
<pdfrwt beam="2">0</pdfrwt>
<totfact> 0.34215865E+04</totfact>
</mgrwt>
</event>
<event>
 6    1  0.1280499E-001  0.3000000E+03  0.7818608E-02  0.1093470E+00
         21   -1    0    0  501  502  0.00000000000E+00  0.00000000000E+00  0.16491291517E+01  0.16491291517E+01  0.00000000000E+00 0. -1.
         13   -1    0    0    0    0 -0.00000000000E+00 -0.00000000000E+00 -0.10000000000E+04  0.10000000000E+04  0.00000000000E+00 0.  1.
    9000005    2    1    2  501    0  0.20160191997E+02  0.33327292383E+02 -0.63887157801E+03  0.64006580025E+03  0.31927580143E+01 0.  0.
         13    1    3    3    0    0  0.16200207920E+02  0.24464494214E+02 -0.46863286942E+03  0.46955055586E+03  0.00000000000E+00 0.  1.
          3    1    3    3  501    0  0.39599840770E+01  0.88627981691E+01 -0.17023870859E+03  0.17051524439E+03  0.00000000000E+00 0.  1.
         -1    1    1    2    0  502 -0.20160191997E+02 -0.33327292383E+02 -0.35947929284E+03  0.36158332890E+03  0.00000000000E+00 0. -1.
<mgrwt>
<rscale>  1 0.30000000E+03</rscale>
<asrwt>0</asrwt>
<pdfrwt beam="1">  1       21 0.59968459E-02 0.30000000E+03</pdfrwt>
<pdfrwt beam="2">0</pdfrwt>
<totfact> 0.21090783E+04</totfact>
</mgrwt>
</event>
<event>
 6    1  0.1280499E-001  0.3000000E+03  0.7818608E-02  0.1093470E+00
         21   -1    0    0  501  502  0.00000000000E+00  0.00000000000E+00  0.14112714960E+01  0.14112714960E+01  0.00000000000E+00 0. -1.
         13   -1    0    0    0    0 -0.00000000000E+00 -0.00000000000E+00 -0.10000000000E+04  0.10000000000E+04  0.00000000000E+00 0.  1.
    9000005    2    1    2  501    0 -0.78217558157E+01  0.36053413863E+02 -0.58829694027E+03  0.58946421179E+03  0.37065516264E+01 0.  0.
         13    1    3    3    0    0 -0.34695413659E+01  0.19669114248E+02 -0.29138841294E+03  0.29207211262E+03  0.00000000000E+00 0.  1.
          1    1    3    3  501    0 -0.43522144498E+01  0.16384299614E+02 -0.29690852733E+03  0.29739209917E+03  0.00000000000E+00 0.  1.
         -1    1    1    2    0  502  0.78217558157E+01 -0.36053413863E+02 -0.41029178823E+03  0.41194705971E+03  0.00000000000E+00 0. -1.
<mgrwt>
<rscale>  1 0.30000000E+03</rscale>
<asrwt>0</asrwt>
<pdfrwt beam="1">  1       21 0.51319072E-02 0.30000000E+03</pdfrwt>
<pdfrwt beam="2">0</pdfrwt>
<totfact> 0.27553161E+04</totfact>
</mgrwt>
</event>
<event>
 6    1  0.1280499E-001  0.3000000E+03  0.7818608E-02  0.1093470E+00
         21   -1    0    0  501  502  0.00000000000E+00  0.00000000000E+00  0.11638877495E+02  0.11638877495E+02  0.00000000000E+00 0. -1.
         13   -1    0    0    0    0 -0.00000000000E+00 -0.00000000000E+00 -0.10000000000E+04  0.10000000000E+04  0.00000000000E+00 0.  1.
    9000005    2    1    2  501    0 -0.51186929014E+02 -0.10771663646E+02 -0.93653922397E+03  0.93800709355E+03  0.39318023427E+01 0.  0.
         13    1    3    3    0    0 -0.10032987129E+02 -0.35538468581E+01 -0.20315284243E+03  0.20343148243E+03  0.00000000000E+00 0.  1.
          3    1    3    3  501    0 -0.41153941884E+02 -0.72178167884E+01 -0.73338638155E+03  0.73457561112E+03  0.00000000000E+00 0.  1.
         -1    1    1    2    0  502  0.51186929014E+02  0.10771663646E+02 -0.51821898530E+02  0.73631783944E+02  0.00000000000E+00 0. -1.
<mgrwt>
<rscale>  1 0.30000000E+03</rscale>
<asrwt>0</asrwt>
<pdfrwt beam="1">  1       21 0.42323280E-01 0.30000000E+03</pdfrwt>
<pdfrwt beam="2">0</pdfrwt>
<totfact> 0.53648988E+02</totfact>
</mgrwt>
</event>
<event>
 6    1  0.1280499E-001  0.3000000E+03  0.7818608E-02  0.1093470E+00
         21   -1    0    0  501  502  0.00000000000E+00  0.00000000000E+00  0.41430345824E+01  0.41430345824E+01  0.00000000000E+00 0. -1.
         13   -1    0    0    0    0 -0.00000000000E+00 -0.00000000000E+00 -0.10000000000E+04  0.10000000000E+04  0.00000000000E+00 0.  1.
    9000005    2    1    2  501    0  0.32164666074E+02 -0.12897779101E+02 -0.92094004615E+03  0.92159932954E+03  0.37198331474E+01 0.  0.
         13    1    3    3    0    0  0.25886247256E+02 -0.93659096057E+01 -0.75925100450E+03  0.75974989694E+03  0.00000000000E+00 0.  1.
          3    1    3    3  501    0  0.62784188188E+01 -0.35318694951E+01 -0.16168904164E+03  0.16184943260E+03  0.00000000000E+00 0.  1.
         -1    1    1    2    0  502 -0.32164666074E+02  0.12897779101E+02 -0.74916919270E+02  0.82543705043E+02  0.00000000000E+00 0. -1.
<mgrwt>
<rscale>  1 0.30000000E+03</rscale>
<asrwt>0</asrwt>
<pdfrwt beam="1">  1       21 0.15065612E-01 0.30000000E+03</pdfrwt>
<pdfrwt beam="2">0</pdfrwt>
<totfact> 0.40848943E+03</totfact>
</mgrwt>
</event>
<event>
 6    1  0.1280499E-001  0.3000000E+03  0.7818608E-02  0.1093470E+00
         21   -1    0    0  501  502  0.00000000000E+00  0.00000000000E+00  0.46234990674E+01  0.46234990674E+01  0.00000000000E+00 0. -1.
         13   -1    0    0    0    0 -0.00000000000E+00 -0.00000000000E+00 -0.10000000000E+04  0.10000000000E+04  0.00000000000E+00 0.  1.
    9000005    2    1    2  501    0  0.33646212981E+02  0.15394279665E+02 -0.76753086615E+02  0.85255222028E+02  0.28922454458E+01 0.  0.
         13    1    3    3    0    0  0.13011331580E+02  0.71261922013E+01 -0.32882997749E+02  0.36074491067E+02  0.00000000000E+00 0.  1.
          1    1    3    3  501    0  0.20634881401E+02  0.82680874639E+01 -0.43870088866E+02  0.49180730961E+02  0.00000000000E+00 0.  1.
         -3    1    1    2    0  502 -0.33646212981E+02 -0.15394279665E+02 -0.91862341432E+03  0.91936827704E+03  0.00000000000E+00 0. -1.
<mgrwt>
<rscale>  1 0.30000000E+03</rscale>
<asrwt>0</asrwt>
<pdfrwt beam="1">  1       21 0.16812759E-01 0.30000000E+03</pdfrwt>
<pdfrwt beam="2">0</pdfrwt>
<totfact> 0.33298492E+03</totfact>
</mgrwt>
</event>
<event>
 6    1  0.1280499E-001  0.3000000E+03  0.7818608E-02  0.1093470E+00
         21   -1    0    0  501  502  0.00000000000E+00  0.00000000000E+00  0.24784482159E+01  0.24784482159E+01  0.00000000000E+00 0. -1.
         13   -1    0    0    0    0 -0.00000000000E+00 -0.00000000000E+00 -0.10000000000E+04  0.10000000000E+04  0.00000000000E+00 0.  1.
    9000005    2    1    2  501    0  0.28573389386E+02 -0.20748169466E+02 -0.85184917881E+03  0.85258726980E+03  0.33322782948E+01 0.  0.
         13    1    3    3    0    0  0.24367835109E+02 -0.16187445330E+02 -0.69478458832E+03  0.69540020775E+03  0.00000000000E+00 0.  1.
          1    1    3    3  501    0  0.42055542773E+01 -0.45607241365E+01 -0.15706459049E+03  0.15718706206E+03  0.00000000000E+00 0.  1.
         -3    1    1    2    0  502 -0.28573389386E+02  0.20748169466E+02 -0.14567237298E+03  0.14989117841E+03  0.00000000000E+00 0. -1.
<mgrwt>
<rscale>  1 0.30000000E+03</rscale>
<asrwt>0</asrwt>
<pdfrwt beam="1">  1       21 0.90125580E-02 0.30000000E+03</pdfrwt>
<pdfrwt beam="2">0</pdfrwt>
<totfact> 0.10352482E+04</totfact>
</mgrwt>
</event>
<event>
 6    1  0.1280499E-001  0.3000000E+03  0.7818608E-02  0.1093470E+00
         21   -1    0    0  501  502  0.00000000000E+00  0.00000000000E+00  0.26543240467E+01  0.26543240467E+01  0.00000000000E+00 0. -1.
         13   -1    0    0    0    0 -0.00000000000E+00 -0.00000000000E+00 -0.10000000000E+04  0.10000000000E+04  0.00000000000E+00 0.  1.
    9000005    2    1    2  501    0 -0.15507629669E+02  0.29100367496E+02 -0.88376877012E+03  0.88438754298E+03  0.26017616184E+01 0.  0.
         13    1    3    3    0    0 -0.44375985950E+01  0.88614197076E+01 -0.23542582721E+03  0.23563432933E+03  0.00000000000E+00 0.  1.
          1    1    3    3  501    0 -0.11070031074E+02  0.20238947788E+02 -0.64834294292E+03  0.64875321365E+03  0.00000000000E+00 0.  1.
         -3    1    1    2    0  502  0.15507629669E+02 -0.29100367496E+02 -0.11357690583E+03  0.11826678107E+03  0.00000000000E+00 0. -1.
<mgrwt>
<rscale>  1 0.30000000E+03</rscale>
<asrwt>0</asrwt>
<pdfrwt beam="1">  1       21 0.96521078E-02 0.30000000E+03</pdfrwt>
<pdfrwt beam="2">0</pdfrwt>
<totfact> 0.91645252E+03</totfact>
</mgrwt>
</event>
<event>
 6    1  0.1280499E-001  0.3000000E+03  0.7818608E-02  0.1093470E+00
         21   -1    0    0  501  502  0.00000000000E+00  0.00000000000E+00  0.10845729212E+01  0.10845729212E+01  0.00000000000E+00 0. -1.
         13   -1    0    0    0    0 -0.00000000000E+00 -0.00000000000E+00 -0.10000000000E+04  0.10000000000E+04  0.00000000000E+00 0.  1.
    9000005    2    1    2  501    0 -0.29216481455E+02 -0.95631402796E+01 -0.67790685276E+03  0.67860734702E+03  0.22746353360E+01 0.  0.
         13    1    3    3    0    0 -0.15644362995E+02 -0.42809394885E+01 -0.33934793260E+03  0.33973532624E+03  0.00000000000E+00 0.  1.
          1    1    3    3  501    0 -0.13572118460E+02 -0.52822007911E+01 -0.33855892017E+03  0.33887202078E+03  0.00000000000E+00 0.  1.
         -3    1    1    2    0  502  0.29216481455E+02  0.95631402796E+01 -0.32100857432E+03  0.32247722590E+03  0.00000000000E+00 0. -1.
<mgrwt>
<rscale>  1 0.30000000E+03</rscale>
<asrwt>0</asrwt>
<pdfrwt beam="1">  1       21 0.39439098E-02 0.30000000E+03</pdfrwt>
<pdfrwt beam="2">0</pdfrwt>
<totfact> 0.43058901E+04</totfact>
</mgrwt>
</event>
<event>
 6    1  0.1280499E-001  0.3000000E+03  0.7818608E-02  0.1093470E+00
         21   -1    0    0  501  502  0.00000000000E+00  0.00000000000E+00  0.34384024939E+01  0.34384024939E+01  0.00000000000E+00 0. -1.
         13   -1    0    0    0    0 -0.00000000000E+00 -0.00000000000E+00 -0.10000000000E+04  0.10000000000E+04  0.00000000000E+00 0.  1.
    9000005    2    1    2  501    0 -0.66372771751E+01  0.40494896075E+02 -0.85618115720E+03  0.85718328950E+03  0.57556751317E+01 0.  0.
         13    1    3    3    0    0 -0.51993484129E+01  0.17992662234E+02 -0.35132335742E+03  0.35182221446E+03  0.00000000000E+00 0.  1.
          1    1    3    3  501    0 -0.14379287622E+01  0.22502233841E+02 -0.50485779978E+03  0.50536107504E+03  0.00000000000E+00 0.  1.
         -1    1    1    2    0  502  0.66372771751E+01 -0.40494896075E+02 -0.14038044030E+03  0.14625511299E+03  0.00000000000E+00 0. -1.
<mgrwt>
<rscale>  1 0.30000000E+03</rscale>
<asrwt>0</asrwt>
<pdfrwt beam="1">  1       21 0.12503308E-01 0.30000000E+03</pdfrwt>
<pdfrwt beam="2">0</pdfrwt>
<totfact> 0.57509217E+03</totfact>
</mgrwt>
</event>
<event>
 6    1  0.1280499E-001  0.3000000E+03  0.7818608E-02  0.1093470E+00
         21   -1    0    0  501  502  0.00000000000E+00  0.00000000000E+00  0.14030974428E+01  0.14030974428E+01  0.00000000000E+00 0. -1.
         13   -1    0    0    0    0 -0.00000000000E+00 -0.00000000000E+00 -0.10000000000E+04  0.10000000000E+04  0.00000000000E+00 0.  1.
    9000005    2    1    2  501    0 -0.15766162395E+02  0.33710229216E+02 -0.48979622612E+03  0.49124324037E+03  0.58844415804E+01 0.  0.
         13    1    3    3    0    0 -0.43887307624E+01  0.88270251978E+01 -0.16634488023E+03  0.16663672017E+03  0.00000000000E+00 0.  1.
          3    1    3    3  501    0 -0.11377431632E+02  0.24883204019E+02 -0.32345134590E+03  0.32460652020E+03  0.00000000000E+00 0.  1.
         -1    1    1    2    0  502  0.15766162395E+02 -0.33710229216E+02 -0.50880067644E+03  0.51015985708E+03  0.00000000000E+00 0. -1.
<mgrwt>
<rscale>  1 0.30000000E+03</rscale>
<asrwt>0</asrwt>
<pdfrwt beam="1">  1       21 0.51021833E-02 0.30000000E+03</pdfrwt>
<pdfrwt beam="2">0</pdfrwt>
<totfact> 0.27827692E+04</totfact>
</mgrwt>
</event>
<event>
 6    1  0.1280499E-001  0.3000000E+03  0.7818608E-02  0.1093470E+00
         21   -1    0    0  501  502  0.00000000000E+00  0.00000000000E+00  0.12954303277E+01  0.12954303277E+01  0.00000000000E+00 0. -1.
         13   -1    0    0    0    0 -0.00000000000E+00 -0.00000000000E+00 -0.10000000000E+04  0.10000000000E+04  0.00000000000E+00 0.  1.
    9000005    2    1    2  501    0 -0.43450383998E+01  0.33194894604E+02 -0.68081032918E+03  0.68164323102E+03  0.37429514695E+01 0.  0.
         13    1    3    3    0    0 -0.37227780339E+01  0.31691690950E+02 -0.63096944667E+03  0.63177580278E+03  0.00000000000E+00 0.  1.
          1    1    3    3  501    0 -0.62226036595E+00  0.15032036540E+01 -0.49840882515E+02  0.49867428238E+02  0.00000000000E+00 0.  1.
         -1    1    1    2    0  502  0.43450383998E+01 -0.33194894604E+02 -0.31789424049E+03  0.31965219931E+03  0.00000000000E+00 0. -1.
<mgrwt>
<rscale>  1 0.30000000E+03</rscale>
<asrwt>0</asrwt>
<pdfrwt beam="1">  1       21 0.47106657E-02 0.30000000E+03</pdfrwt>
<pdfrwt beam="2">0</pdfrwt>
<totfact> 0.31881223E+04</totfact>
</mgrwt>
</event>
<event>
 6    1  0.1280499E-001  0.3000000E+03  0.7818608E-02  0.1093470E+00
         21   -1    0    0  501  502  0.00000000000E+00  0.00000000000E+00  0.13439872519E+01  0.13439872519E+01  0.00000000000E+00 0. -1.
         13   -1    0    0    0    0 -0.00000000000E+00 -0.00000000000E+00 -0.10000000000E+04  0.10000000000E+04  0.00000000000E+00 0.  1.
    9000005    2    1    2  501    0  0.14681893003E+02 -0.31803013776E+02 -0.64436951313E+03  0.64533006410E+03  0.34398416610E+01 0.  0.
         13    1    3    3    0    0  0.11093035096E+02 -0.22459678199E+02 -0.43349788136E+03  0.43422103325E+03  0.00000000000E+00 0.  1.
          3    1    3    3  501    0  0.35888579067E+01 -0.93433355767E+01 -0.21087163177E+03  0.21110903085E+03  0.00000000000E+00 0.  1.
         -1    1    1    2    0  502 -0.14681893003E+02  0.31803013776E+02 -0.35428649962E+03  0.35601392315E+03  0.00000000000E+00 0. -1.
<mgrwt>
<rscale>  1 0.30000000E+03</rscale>
<asrwt>0</asrwt>
<pdfrwt beam="1">  1       21 0.48872367E-02 0.30000000E+03</pdfrwt>
<pdfrwt beam="2">0</pdfrwt>
<totfact> 0.29946191E+04</totfact>
</mgrwt>
</event>
<event>
 6    1  0.1280499E-001  0.3000000E+03  0.7818608E-02  0.1093470E+00
         21   -1    0    0  501  502  0.00000000000E+00  0.00000000000E+00  0.19976755670E+01  0.19976755670E+01  0.00000000000E+00 0. -1.
         13   -1    0    0    0    0 -0.00000000000E+00 -0.00000000000E+00 -0.10000000000E+04  0.10000000000E+04  0.00000000000E+00 0.  1.
    9000005    2    1    2  501    0  0.31671542544E+02 -0.14662014440E+02 -0.18757024786E+03  0.19081445827E+03  0.30819361957E+01 0.  0.
         13    1    3    3    0    0  0.29499557224E+02 -0.13833603277E+02 -0.17861516413E+03  0.18156257685E+03  0.00000000000E+00 0.  1.
          1    1    3    3  501    0  0.21719853197E+01 -0.82841116339E+00 -0.89550837268E+01  0.92518814215E+01  0.00000000000E+00 0.  1.
         -3    1    1    2    0  502 -0.31671542544E+02  0.14662014440E+02 -0.81043207658E+03  0.81118321729E+03  0.00000000000E+00 0. -1.
<mgrwt>
<rscale>  1 0.30000000E+03</rscale>
<asrwt>0</asrwt>
<pdfrwt beam="1">  1       21 0.72642901E-02 0.30000000E+03</pdfrwt>
<pdfrwt beam="2">0</pdfrwt>
<totfact> 0.15125914E+04</totfact>
</mgrwt>
</event>
<event>
 6    1  0.1280499E-001  0.3000000E+03  0.7818608E-02  0.1093470E+00
         21   -1    0    0  501  502  0.00000000000E+00  0.00000000000E+00  0.31291820445E+01  0.31291820445E+01  0.00000000000E+00 0. -1.
         13   -1    0    0    0    0 -0.00000000000E+00 -0.00000000000E+00 -0.10000000000E+04  0.10000000000E+04  0.00000000000E+00 0.  1.
    9000005    2    1    2  501    0 -0.49964893482E+02 -0.19735095038E+02 -0.63672580294E+03  0.63899953976E+03  0.38339424447E+01 0.  0.
         13    1    3    3    0    0 -0.36255945910E+02 -0.12456163382E+02 -0.45231638929E+03  0.45393806366E+03  0.00000000000E+00 0.  1.
          3    1    3    3  501    0 -0.13708947572E+02 -0.72789316552E+01 -0.18440941365E+03  0.18506147609E+03  0.00000000000E+00 0.  1.
         -1    1    1    2    0  502  0.49964893482E+02  0.19735095038E+02 -0.36014501501E+03  0.36412964229E+03  0.00000000000E+00 0. -1.
<mgrwt>
<rscale>  1 0.30000000E+03</rscale>
<asrwt>0</asrwt>
<pdfrwt beam="1">  1       21 0.11378868E-01 0.30000000E+03</pdfrwt>
<pdfrwt beam="2">0</pdfrwt>
<totfact> 0.68227655E+03</totfact>
</mgrwt>
</event>
<event>
 6    1  0.1280499E-001  0.3000000E+03  0.7818608E-02  0.1093470E+00
         21   -1    0    0  501  502  0.00000000000E+00  0.00000000000E+00  0.19219498606E+01  0.19219498606E+01  0.00000000000E+00 0. -1.
         13   -1    0    0    0    0 -0.00000000000E+00 -0.00000000000E+00 -0.10000000000E+04  0.10000000000E+04  0.00000000000E+00 0.  1.
    9000005    2    1    2  501    0  0.12650438233E+01  0.39724676068E+02 -0.70960550262E+03  0.71072431784E+03  0.30718707633E+01 0.  0.
         13    1    3    3    0    0  0.22631084448E+01  0.24179174038E+02 -0.43474094500E+03  0.43541869893E+03  0.00000000000E+00 0.  1.
          1    1    3    3  501    0 -0.99806462151E+00  0.15545502029E+02 -0.27486455763E+03  0.27530561891E+03  0.00000000000E+00 0.  1.
         -1    1    1    2    0  502 -0.12650438233E+01 -0.39724676068E+02 -0.28847254752E+03  0.29119763202E+03  0.00000000000E+00 0. -1.
<mgrwt>
<rscale>  1 0.30000000E+03</rscale>
<asrwt>0</asrwt>
<pdfrwt beam="1">  1       21 0.69889233E-02 0.30000000E+03</pdfrwt>
<pdfrwt beam="2">0</pdfrwt>
<totfact> 0.16179815E+04</totfact>
</mgrwt>
</event>
<event>
 6    1  0.1280499E-001  0.3000000E+03  0.7818608E-02  0.1093470E+00
         21   -1    0    0  501  502  0.00000000000E+00  0.00000000000E+00  0.18432922671E+01  0.18432922671E+01  0.00000000000E+00 0. -1.
         13   -1    0    0    0    0 -0.00000000000E+00 -0.00000000000E+00 -0.10000000000E+04  0.10000000000E+04  0.00000000000E+00 0.  1.
    9000005    2    1    2  501    0 -0.31672422946E+02  0.71803306651E+01 -0.82620694907E+03  0.82685352392E+03  0.37586959422E+01 0.  0.
         13    1    3    3    0    0 -0.24284778494E+02  0.70004591092E+01 -0.62419073295E+03  0.62470219145E+03  0.00000000000E+00 0.  1.
          3    1    3    3  501    0 -0.73876444518E+01  0.17987155593E+00 -0.20201621612E+03  0.20215133247E+03  0.00000000000E+00 0.  1.
         -1    1    1    2    0  502  0.31672422946E+02 -0.71803306651E+01 -0.17194975866E+03  0.17498976835E+03  0.00000000000E+00 0. -1.
<mgrwt>
<rscale>  1 0.30000000E+03</rscale>
<asrwt>0</asrwt>
<pdfrwt beam="1">  1       21 0.67028951E-02 0.30000000E+03</pdfrwt>
<pdfrwt beam="2">0</pdfrwt>
<totfact> 0.17398137E+04</totfact>
</mgrwt>
</event>
<event>
 6    1  0.1280499E-001  0.3000000E+03  0.7818608E-02  0.1093470E+00
         21   -1    0    0  501  502  0.00000000000E+00  0.00000000000E+00  0.17599136507E+01  0.17599136507E+01  0.00000000000E+00 0. -1.
         13   -1    0    0    0    0 -0.00000000000E+00 -0.00000000000E+00 -0.10000000000E+04  0.10000000000E+04  0.00000000000E+00 0.  1.
    9000005    2    1    2  501    0  0.30703492355E+02 -0.11573168685E+01 -0.83965266355E+03  0.84022349518E+03  0.38577979937E+01 0.  0.
         13    1    3    3    0    0  0.27388711969E+02 -0.19974898623E+01 -0.72521155594E+03  0.72573130866E+03  0.00000000000E+00 0.  1.
          3    1    3    3  501    0  0.33147803862E+01  0.84017299378E+00 -0.11444110762E+03  0.11449218651E+03  0.00000000000E+00 0.  1.
         -3    1    1    2    0  502 -0.30703492355E+02  0.11573168685E+01 -0.15858742280E+03  0.16153641848E+03  0.00000000000E+00 0. -1.
<mgrwt>
<rscale>  1 0.30000000E+03</rscale>
<asrwt>0</asrwt>
<pdfrwt beam="1">  1       21 0.63996995E-02 0.30000000E+03</pdfrwt>
<pdfrwt beam="2">0</pdfrwt>
<totfact> 0.18850608E+04</totfact>
</mgrwt>
</event>
<event>
 6    1  0.1280499E-001  0.3000000E+03  0.7818608E-02  0.1093470E+00
         21   -1    0    0  501  502  0.00000000000E+00  0.00000000000E+00  0.20151637838E+01  0.20151637838E+01  0.00000000000E+00 0. -1.
         13   -1    0    0    0    0 -0.00000000000E+00 -0.00000000000E+00 -0.10000000000E+04  0.10000000000E+04  0.00000000000E+00 0.  1.
    9000005    2    1    2  501    0  0.45577687758E+01  0.32918287622E+02 -0.83406308054E+03  0.83475868737E+03  0.75137816549E+01 0.  0.
         13    1    3    3    0    0 -0.12856966377E+01  0.78004400275E+01 -0.14787123355E+03  0.14808241486E+03  0.00000000000E+00 0.  1.
          3    1    3    3  501    0  0.58434654135E+01  0.25117847595E+02 -0.68619184699E+03  0.68667627251E+03  0.00000000000E+00 0.  1.
         -1    1    1    2    0  502 -0.45577687758E+01 -0.32918287622E+02 -0.16392175568E+03  0.16725647641E+03  0.00000000000E+00 0. -1.
<mgrwt>
<rscale>  1 0.30000000E+03</rscale>
<asrwt>0</asrwt>
<pdfrwt beam="1">  1       21 0.73278838E-02 0.30000000E+03</pdfrwt>
<pdfrwt beam="2">0</pdfrwt>
<totfact> 0.14897375E+04</totfact>
</mgrwt>
</event>
<event>
 6    1  0.1280499E-001  0.3000000E+03  0.7818608E-02  0.1093470E+00
         21   -1    0    0  501  502  0.00000000000E+00  0.00000000000E+00  0.18453224573E+01  0.18453224573E+01  0.00000000000E+00 0. -1.
         13   -1    0    0    0    0 -0.00000000000E+00 -0.00000000000E+00 -0.10000000000E+04  0.10000000000E+04  0.00000000000E+00 0.  1.
    9000005    2    1    2  501    0 -0.42099647846E+02  0.81158434420E+01 -0.50255733663E+03  0.50439686122E+03  0.37509663499E+01 0.  0.
         13    1    3    3    0    0 -0.45492963573E+01  0.20878228439E+01 -0.59999289884E+02  0.60207722829E+02  0.00000000000E+00 0.  1.
          1    1    3    3  501    0 -0.37550351488E+02  0.60280205982E+01 -0.44255804674E+03  0.44418913839E+03  0.00000000000E+00 0.  1.
         -1    1    1    2    0  502  0.42099647846E+02 -0.81158434420E+01 -0.49559734092E+03  0.49744846124E+03  0.00000000000E+00 0. -1.
<mgrwt>
<rscale>  1 0.30000000E+03</rscale>
<asrwt>0</asrwt>
<pdfrwt beam="1">  1       21 0.67102776E-02 0.30000000E+03</pdfrwt>
<pdfrwt beam="2">0</pdfrwt>
<totfact> 0.17364944E+04</totfact>
</mgrwt>
</event>
<event>
 6    1  0.1280499E-001  0.3000000E+03  0.7818608E-02  0.1093470E+00
         21   -1    0    0  501  502  0.00000000000E+00  0.00000000000E+00  0.10368276203E+01  0.10368276203E+01  0.00000000000E+00 0. -1.
         13   -1    0    0    0    0 -0.00000000000E+00 -0.00000000000E+00 -0.10000000000E+04  0.10000000000E+04  0.00000000000E+00 0.  1.
    9000005    2    1    2  501    0 -0.31343625230E+02 -0.69690109411E+01 -0.49320538239E+03  0.49426080995E+03  0.33479952977E+01 0.  0.
         13    1    3    3    0    0 -0.35968759368E+01 -0.15709855145E+00 -0.69565314873E+02  0.69658418226E+02  0.00000000000E+00 0.  1.
          3    1    3    3  501    0 -0.27746749293E+02 -0.68119123897E+01 -0.42364006752E+03  0.42460239172E+03  0.00000000000E+00 0.  1.
         -1    1    1    2    0  502  0.31343625230E+02  0.69690109411E+01 -0.50575778999E+03  0.50677601767E+03  0.00000000000E+00 0. -1.
<mgrwt>
<rscale>  1 0.30000000E+03</rscale>
<asrwt>0</asrwt>
<pdfrwt beam="1">  1       21 0.37702902E-02 0.30000000E+03</pdfrwt>
<pdfrwt beam="2">0</pdfrwt>
<totfact> 0.46444456E+04</totfact>
</mgrwt>
</event>
<event>
 6    1  0.1280499E-001  0.3000000E+03  0.7818608E-02  0.1093470E+00
         21   -1    0    0  501  502  0.00000000000E+00  0.00000000000E+00  0.12684374024E+01  0.12684374024E+01  0.00000000000E+00 0. -1.
         13   -1    0    0    0    0 -0.00000000000E+00 -0.00000000000E+00 -0.10000000000E+04  0.10000000000E+04  0.00000000000E+00 0.  1.
    9000005    2    1    2  501    0  0.20830596281E+02  0.24350416997E+02 -0.28965757875E+03  0.29147074009E+03  0.51790779354E+01 0.  0.
         13    1    3    3    0    0  0.14582369708E+01  0.38351713585E+01 -0.28625669410E+02  0.28918228569E+02  0.00000000000E+00 0.  1.
          1    1    3    3  501    0  0.19372359310E+02  0.20515245639E+02 -0.26103190934E+03  0.26255251152E+03  0.00000000000E+00 0.  1.
         -3    1    1    2    0  502 -0.20830596281E+02 -0.24350416997E+02 -0.70907398385E+03  0.70979769732E+03  0.00000000000E+00 0. -1.
<mgrwt>
<rscale>  1 0.30000000E+03</rscale>
<asrwt>0</asrwt>
<pdfrwt beam="1">  1       21 0.46125094E-02 0.30000000E+03</pdfrwt>
<pdfrwt beam="2">0</pdfrwt>
<totfact> 0.33042967E+04</totfact>
</mgrwt>
</event>
<event>
 6    1  0.1280499E-001  0.3000000E+03  0.7818608E-02  0.1093470E+00
         21   -1    0    0  501  502  0.00000000000E+00  0.00000000000E+00  0.10488427348E+01  0.10488427348E+01  0.00000000000E+00 0. -1.
         13   -1    0    0    0    0 -0.00000000000E+00 -0.00000000000E+00 -0.10000000000E+04  0.10000000000E+04  0.00000000000E+00 0.  1.
    9000005    2    1    2  501    0  0.23229792902E+02  0.21075953452E+02 -0.61915167489E+03  0.61995637901E+03  0.36464049671E+01 0.  0.
         13    1    3    3    0    0  0.20534544231E+02  0.19908095883E+02 -0.55188331547E+03  0.55262391703E+03  0.00000000000E+00 0.  1.
          3    1    3    3  501    0  0.26952486711E+01  0.11678575689E+01 -0.67268359421E+02  0.67332461977E+02  0.00000000000E+00 0.  1.
         -3    1    1    2    0  502 -0.23229792902E+02 -0.21075953452E+02 -0.37979948238E+03  0.38109246372E+03  0.00000000000E+00 0. -1.
<mgrwt>
<rscale>  1 0.30000000E+03</rscale>
<asrwt>0</asrwt>
<pdfrwt beam="1">  1       21 0.38139816E-02 0.30000000E+03</pdfrwt>
<pdfrwt beam="2">0</pdfrwt>
<totfact> 0.45554099E+04</totfact>
</mgrwt>
</event>
<event>
 6    1  0.1280499E-001  0.3000000E+03  0.7818608E-02  0.1093470E+00
         21   -1    0    0  501  502  0.00000000000E+00  0.00000000000E+00  0.21224669392E+01  0.21224669392E+01  0.00000000000E+00 0. -1.
         13   -1    0    0    0    0 -0.00000000000E+00 -0.00000000000E+00 -0.10000000000E+04  0.10000000000E+04  0.00000000000E+00 0.  1.
    9000005    2    1    2  501    0 -0.33506421088E+02 -0.16129731080E+02 -0.79435782674E+03  0.79523331947E+03  0.29710295049E+01 0.  0.
         13    1    3    3    0    0 -0.36379896659E+01 -0.20079127484E+01 -0.11000272323E+03  0.11008117823E+03  0.00000000000E+00 0.  1.
          3    1    3    3  501    0 -0.29868431422E+02 -0.14121818332E+02 -0.68435510351E+03  0.68515214124E+03  0.00000000000E+00 0.  1.
         -1    1    1    2    0  502  0.33506421088E+02  0.16129731080E+02 -0.20351970632E+03  0.20688914747E+03  0.00000000000E+00 0. -1.
<mgrwt>
<rscale>  1 0.30000000E+03</rscale>
<asrwt>0</asrwt>
<pdfrwt beam="1">  1       21 0.77180779E-02 0.30000000E+03</pdfrwt>
<pdfrwt beam="2">0</pdfrwt>
<totfact> 0.13603888E+04</totfact>
</mgrwt>
</event>
<event>
 6    1  0.1280499E-001  0.3000000E+03  0.7818608E-02  0.1093470E+00
         21   -1    0    0  501  502  0.00000000000E+00  0.00000000000E+00  0.12043310979E+01  0.12043310979E+01  0.00000000000E+00 0. -1.
         13   -1    0    0    0    0 -0.00000000000E+00 -0.00000000000E+00 -0.10000000000E+04  0.10000000000E+04  0.00000000000E+00 0.  1.
    9000005    2    1    2  501    0  0.29764619145E+02 -0.15073940152E+02 -0.36571139833E+03  0.36724151683E+03  0.28893931910E+01 0.  0.
         13    1    3    3    0    0  0.25774883022E+02 -0.12165435790E+02 -0.30420900401E+03  0.30554125833E+03  0.00000000000E+00 0.  1.
          3    1    3    3  501    0  0.39897361228E+01 -0.29085043616E+01 -0.61502394323E+02  0.61700258504E+02  0.00000000000E+00 0.  1.
         -1    1    1    2    0  502 -0.29764619145E+02  0.15073940152E+02 -0.63308427057E+03  0.63396281427E+03  0.00000000000E+00 0. -1.
<mgrwt>
<rscale>  1 0.30000000E+03</rscale>
<asrwt>0</asrwt>
<pdfrwt beam="1">  1       21 0.43793950E-02 0.30000000E+03</pdfrwt>
<pdfrwt beam="2">0</pdfrwt>
<totfact> 0.36082120E+04</totfact>
</mgrwt>
</event>
<event>
 6    1  0.1280499E-001  0.3000000E+03  0.7818608E-02  0.1093470E+00
         21   -1    0    0  501  502  0.00000000000E+00  0.00000000000E+00  0.10596031337E+02  0.10596031337E+02  0.00000000000E+00 0. -1.
         13   -1    0    0    0    0 -0.00000000000E+00 -0.00000000000E+00 -0.10000000000E+04  0.10000000000E+04  0.00000000000E+00 0.  1.
    9000005    2    1    2  501    0 -0.64871963453E+02 -0.33786904554E+02 -0.85020977075E+03  0.85335433428E+03  0.26531093059E+01 0.  0.
         13    1    3    3    0    0 -0.42619118223E+02 -0.22136969586E+02 -0.57274344134E+03  0.57475341170E+03  0.00000000000E+00 0.  1.
          1    1    3    3  501    0 -0.22252845230E+02 -0.11649934967E+02 -0.27746632941E+03  0.27860092258E+03  0.00000000000E+00 0.  1.
         -1    1    1    2    0  502  0.64871963453E+02  0.33786904554E+02 -0.13919419791E+03  0.15724169706E+03  0.00000000000E+00 0. -1.
<mgrwt>
<rscale>  1 0.30000000E+03</rscale>
<asrwt>0</asrwt>
<pdfrwt beam="1">  1       21 0.38531104E-01 0.30000000E+03</pdfrwt>
<pdfrwt beam="2">0</pdfrwt>
<totfact> 0.65291764E+02</totfact>
</mgrwt>
</event>
<event>
 6    1  0.1280499E-001  0.3000000E+03  0.7818608E-02  0.1093470E+00
         21   -1    0    0  501  502  0.00000000000E+00  0.00000000000E+00  0.13236479123E+01  0.13236479123E+01  0.00000000000E+00 0. -1.
         13   -1    0    0    0    0 -0.00000000000E+00 -0.00000000000E+00 -0.10000000000E+04  0.10000000000E+04  0.00000000000E+00 0.  1.
    9000005    2    1    2  501    0  0.10616647197E+02 -0.28535480415E+02 -0.77270041677E+03  0.77330586311E+03  0.30061627668E+01 0.  0.
         13    1    3    3    0    0  0.49236071457E+01 -0.17219274169E+02 -0.46541698734E+03  0.46576143831E+03  0.00000000000E+00 0.  1.
          1    1    3    3  501    0  0.56930400512E+01 -0.11316206246E+02 -0.30728342943E+03  0.30754442480E+03  0.00000000000E+00 0.  1.
         -1    1    1    2    0  502 -0.10616647197E+02  0.28535480415E+02 -0.22597593532E+03  0.22801778480E+03  0.00000000000E+00 0. -1.
<mgrwt>
<rscale>  1 0.30000000E+03</rscale>
<asrwt>0</asrwt>
<pdfrwt beam="1">  1       21 0.48132753E-02 0.30000000E+03</pdfrwt>
<pdfrwt beam="2">0</pdfrwt>
<totfact> 0.30733757E+04</totfact>
</mgrwt>
</event>
<event>
 6    1  0.1280499E-001  0.3000000E+03  0.7818608E-02  0.1093470E+00
         21   -1    0    0  501  502  0.00000000000E+00  0.00000000000E+00  0.39598955521E+01  0.39598955521E+01  0.00000000000E+00 0. -1.
         13   -1    0    0    0    0 -0.00000000000E+00 -0.00000000000E+00 -0.10000000000E+04  0.10000000000E+04  0.00000000000E+00 0.  1.
    9000005    2    1    2  501    0  0.60924301394E+02 -0.89199851504E+01 -0.60029481229E+03  0.60345312545E+03  0.32367133410E+01 0.  0.
         13    1    3    3    0    0  0.24215608992E+02 -0.33232590197E+01 -0.22310648173E+03  0.22444139984E+03  0.00000000000E+00 0.  1.
          1    1    3    3  501    0  0.36708692401E+02 -0.55967261308E+01 -0.37718833056E+03  0.37901172562E+03  0.00000000000E+00 0.  1.
         -3    1    1    2    0  502 -0.60924301394E+02  0.89199851504E+01 -0.39574529215E+03  0.40050677010E+03  0.00000000000E+00 0. -1.
<mgrwt>
<rscale>  1 0.30000000E+03</rscale>
<asrwt>0</asrwt>
<pdfrwt beam="1">  1       21 0.14399651E-01 0.30000000E+03</pdfrwt>
<pdfrwt beam="2">0</pdfrwt>
<totfact> 0.44406556E+03</totfact>
</mgrwt>
</event>
<event>
 6    1  0.1280499E-001  0.3000000E+03  0.7818608E-02  0.1093470E+00
         21   -1    0    0  501  502  0.00000000000E+00  0.00000000000E+00  0.16797889244E+02  0.16797889244E+02  0.00000000000E+00 0. -1.
         13   -1    0    0    0    0 -0.00000000000E+00 -0.00000000000E+00 -0.10000000000E+04  0.10000000000E+04  0.00000000000E+00 0.  1.
    9000005    2    1    2  501    0 -0.16286229564E+02  0.99293904390E+02 -0.81193422344E+03  0.81815949933E+03  0.48231136140E+01 0.  0.
         13    1    3    3    0    0 -0.14932301596E+02  0.88551154751E+02 -0.71218308212E+03  0.71782241752E+03  0.00000000000E+00 0.  1.
          3    1    3    3  501    0 -0.13539279683E+01  0.10742749639E+02 -0.99751141322E+02  0.10033708181E+03  0.00000000000E+00 0.  1.
         -1    1    1    2    0  502  0.16286229564E+02 -0.99293904390E+02 -0.17126788731E+03  0.19863838991E+03  0.00000000000E+00 0. -1.
<mgrwt>
<rscale>  1 0.30000000E+03</rscale>
<asrwt>0</asrwt>
<pdfrwt beam="1">  1       21 0.61083362E-01 0.30000000E+03</pdfrwt>
<pdfrwt beam="2">0</pdfrwt>
<totfact> 0.24119192E+02</totfact>
</mgrwt>
</event>
<event>
 6    1  0.1280499E-001  0.3000000E+03  0.7818608E-02  0.1093470E+00
         21   -1    0    0  501  502  0.00000000000E+00  0.00000000000E+00  0.21588035434E+01  0.21588035434E+01  0.00000000000E+00 0. -1.
         13   -1    0    0    0    0 -0.00000000000E+00 -0.00000000000E+00 -0.10000000000E+04  0.10000000000E+04  0.00000000000E+00 0.  1.
    9000005    2    1    2  501    0  0.21031317109E+02 -0.36892582056E+02 -0.70128479127E+03  0.70257729483E+03  0.33343400708E+01 0.  0.
         13    1    3    3    0    0  0.19171589363E+02 -0.31389112021E+02 -0.60119853337E+03  0.60232259024E+03  0.00000000000E+00 0.  1.
          3    1    3    3  501    0  0.18597277468E+01 -0.55034700349E+01 -0.10008625791E+03  0.10025470459E+03  0.00000000000E+00 0.  1.
         -3    1    1    2    0  502 -0.21031317109E+02  0.36892582056E+02 -0.29655640518E+03  0.29958150872E+03  0.00000000000E+00 0. -1.
<mgrwt>
<rscale>  1 0.30000000E+03</rscale>
<asrwt>0</asrwt>
<pdfrwt beam="1">  1       21 0.78502113E-02 0.30000000E+03</pdfrwt>
<pdfrwt beam="2">0</pdfrwt>
<totfact> 0.13204837E+04</totfact>
</mgrwt>
</event>
<event>
 6    1  0.1280499E-001  0.3000000E+03  0.7818608E-02  0.1093470E+00
         21   -1    0    0  501  502  0.00000000000E+00  0.00000000000E+00  0.12754669250E+01  0.12754669250E+01  0.00000000000E+00 0. -1.
         13   -1    0    0    0    0 -0.00000000000E+00 -0.00000000000E+00 -0.10000000000E+04  0.10000000000E+04  0.00000000000E+00 0.  1.
    9000005    2    1    2  501    0  0.16506554079E+02 -0.30680576545E+02 -0.59588620689E+03  0.59693343208E+03  0.59486687693E+01 0.  0.
         13    1    3    3    0    0  0.61904930819E+01 -0.11468389791E+02 -0.17637098496E+03  0.17685183206E+03  0.00000000000E+00 0.  1.
          1    1    3    3  501    0  0.10316060997E+02 -0.19212186754E+02 -0.41951522194E+03  0.42008160002E+03  0.00000000000E+00 0.  1.
         -1    1    1    2    0  502 -0.16506554079E+02  0.30680576545E+02 -0.40283832618E+03  0.40434203485E+03  0.00000000000E+00 0. -1.
<mgrwt>
<rscale>  1 0.30000000E+03</rscale>
<asrwt>0</asrwt>
<pdfrwt beam="1">  1       21 0.46380713E-02 0.30000000E+03</pdfrwt>
<pdfrwt beam="2">0</pdfrwt>
<totfact> 0.32734107E+04</totfact>
</mgrwt>
</event>
<event>
 6    1  0.1280499E-001  0.3000000E+03  0.7818608E-02  0.1093470E+00
         21   -1    0    0  501  502  0.00000000000E+00  0.00000000000E+00  0.15246576675E+01  0.15246576675E+01  0.00000000000E+00 0. -1.
         13   -1    0    0    0    0 -0.00000000000E+00 -0.00000000000E+00 -0.10000000000E+04  0.10000000000E+04  0.00000000000E+00 0.  1.
    9000005    2    1    2  501    0 -0.20544278360E+02  0.26095632282E+02 -0.76170052965E+03  0.76243186957E+03  0.34072680403E+01 0.  0.
         13    1    3    3    0    0 -0.26478653180E+01  0.18988760412E+01 -0.84961629253E+02  0.85024086977E+02  0.00000000000E+00 0.  1.
          1    1    3    3  501    0 -0.17896413042E+02  0.24196756241E+02 -0.67673890039E+03  0.67740778259E+03  0.00000000000E+00 0.  1.
         -3    1    1    2    0  502  0.20544278360E+02 -0.26095632282E+02 -0.23677481269E+03  0.23909278810E+03  0.00000000000E+00 0. -1.
<mgrwt>
<rscale>  1 0.30000000E+03</rscale>
<asrwt>0</asrwt>
<pdfrwt beam="1">  1       21 0.55442214E-02 0.30000000E+03</pdfrwt>
<pdfrwt beam="2">0</pdfrwt>
<totfact> 0.24140285E+04</totfact>
</mgrwt>
</event>
<event>
 6    1  0.1280499E-001  0.3000000E+03  0.7818608E-02  0.1093470E+00
         21   -1    0    0  501  502  0.00000000000E+00  0.00000000000E+00  0.15288685994E+01  0.15288685994E+01  0.00000000000E+00 0. -1.
         13   -1    0    0    0    0 -0.00000000000E+00 -0.00000000000E+00 -0.10000000000E+04  0.10000000000E+04  0.00000000000E+00 0.  1.
    9000005    2    1    2  501    0 -0.13013769677E+02  0.34205674039E+02 -0.67377859856E+03  0.67478029978E+03  0.33862615417E+01 0.  0.
         13    1    3    3    0    0 -0.40586500380E+01  0.13068358920E+02 -0.27783674959E+03  0.27817353229E+03  0.00000000000E+00 0.  1.
          1    1    3    3  501    0 -0.89551196389E+01  0.21137315118E+02 -0.39594184897E+03  0.39660676749E+03  0.00000000000E+00 0.  1.
         -1    1    1    2    0  502  0.13013769677E+02 -0.34205674039E+02 -0.32469253284E+03  0.32674856881E+03  0.00000000000E+00 0. -1.
<mgrwt>
<rscale>  1 0.30000000E+03</rscale>
<asrwt>0</asrwt>
<pdfrwt beam="1">  1       21 0.55595339E-02 0.30000000E+03</pdfrwt>
<pdfrwt beam="2">0</pdfrwt>
<totfact> 0.24026310E+04</totfact>
</mgrwt>
</event>
<event>
 6    1  0.1280499E-001  0.3000000E+03  0.7818608E-02  0.1093470E+00
         21   -1    0    0  501  502  0.00000000000E+00  0.00000000000E+00  0.11055914692E+01  0.11055914692E+01  0.00000000000E+00 0. -1.
         13   -1    0    0    0    0 -0.00000000000E+00 -0.00000000000E+00 -0.10000000000E+04  0.10000000000E+04  0.00000000000E+00 0.  1.
    9000005    2    1    2  501    0  0.12102559319E+02 -0.30696515606E+02 -0.54963546293E+03  0.55063656011E+03  0.35680815159E+01 0.  0.
         13    1    3    3    0    0  0.10924197959E+02 -0.24819063355E+02 -0.46379754929E+03  0.46458959388E+03  0.00000000000E+00 0.  1.
          3    1    3    3  501    0  0.11783613602E+01 -0.58774522508E+01 -0.85837913637E+02  0.86046966233E+02  0.00000000000E+00 0.  1.
         -3    1    1    2    0  502 -0.12102559319E+02  0.30696515606E+02 -0.44925894560E+03  0.45046903136E+03  0.00000000000E+00 0. -1.
<mgrwt>
<rscale>  1 0.30000000E+03</rscale>
<asrwt>0</asrwt>
<pdfrwt beam="1">  1       21 0.40203411E-02 0.30000000E+03</pdfrwt>
<pdfrwt beam="2">0</pdfrwt>
<totfact> 0.41689637E+04</totfact>
</mgrwt>
</event>
<event>
 6    1  0.1280499E-001  0.3000000E+03  0.7818608E-02  0.1093470E+00
         21   -1    0    0  501  502  0.00000000000E+00  0.00000000000E+00  0.15778196621E+01  0.15778196621E+01  0.00000000000E+00 0. -1.
         13   -1    0    0    0    0 -0.00000000000E+00 -0.00000000000E+00 -0.10000000000E+04  0.10000000000E+04  0.00000000000E+00 0.  1.
    9000005    2    1    2  501    0  0.17106723252E+02 -0.24751201200E+02 -0.82574323750E+03  0.82629724675E+03  0.31597098283E+01 0.  0.
         13    1    3    3    0    0  0.13758227028E+02 -0.17491524608E+02 -0.60131420847E+03  0.60172586744E+03  0.00000000000E+00 0.  1.
          1    1    3    3  501    0  0.33484962239E+01 -0.72596765916E+01 -0.22442902903E+03  0.22457137931E+03  0.00000000000E+00 0.  1.
         -3    1    1    2    0  502 -0.17106723252E+02  0.24751201200E+02 -0.17267894284E+03  0.17528057291E+03  0.00000000000E+00 0. -1.
<mgrwt>
<rscale>  1 0.30000000E+03</rscale>
<asrwt>0</asrwt>
<pdfrwt beam="1">  1       21 0.57375381E-02 0.30000000E+03</pdfrwt>
<pdfrwt beam="2">0</pdfrwt>
<totfact> 0.22759840E+04</totfact>
</mgrwt>
</event>
<event>
 6    1  0.1280499E-001  0.3000000E+03  0.7818608E-02  0.1093470E+00
         21   -1    0    0  501  502  0.00000000000E+00  0.00000000000E+00  0.20465316490E+01  0.20465316490E+01  0.00000000000E+00 0. -1.
         13   -1    0    0    0    0 -0.00000000000E+00 -0.00000000000E+00 -0.10000000000E+04  0.10000000000E+04  0.00000000000E+00 0.  1.
    9000005    2    1    2  501    0  0.30317315605E+02 -0.33209838850E+02 -0.45070781221E+03  0.45295651973E+03  0.31691889592E+01 0.  0.
         13    1    3    3    0    0  0.33934387977E+01 -0.40007718148E+01 -0.43326998105E+02  0.43643445863E+02  0.00000000000E+00 0.  1.
          1    1    3    3  501    0  0.26923876807E+02 -0.29209067035E+02 -0.40738081410E+03  0.40931307387E+03  0.00000000000E+00 0.  1.
         -1    1    1    2    0  502 -0.30317315605E+02  0.33209838850E+02 -0.54724565614E+03  0.54909001192E+03  0.00000000000E+00 0. -1.
<mgrwt>
<rscale>  1 0.30000000E+03</rscale>
<asrwt>0</asrwt>
<pdfrwt beam="1">  1       21 0.74419490E-02 0.30000000E+03</pdfrwt>
<pdfrwt beam="2">0</pdfrwt>
<totfact> 0.14500366E+04</totfact>
</mgrwt>
</event>
<event>
 6    1  0.1280499E-001  0.3000000E+03  0.7818608E-02  0.1093470E+00
         21   -1    0    0  501  502  0.00000000000E+00  0.00000000000E+00  0.32761936947E+01  0.32761936947E+01  0.00000000000E+00 0. -1.
         13   -1    0    0    0    0 -0.00000000000E+00 -0.00000000000E+00 -0.10000000000E+04  0.10000000000E+04  0.00000000000E+00 0.  1.
    9000005    2    1    2  501    0 -0.34581153365E+02  0.53260105194E+01 -0.89521648802E+03  0.89590786400E+03  0.37573656005E+01 0.  0.
         13    1    3    3    0    0 -0.69929968195E+01  0.93599938594E+00 -0.22186211593E+03  0.22197427009E+03  0.00000000000E+00 0.  1.
          3    1    3    3  501    0 -0.27588156546E+02  0.43900111335E+01 -0.67335437210E+03  0.67393359391E+03  0.00000000000E+00 0.  1.
         -3    1    1    2    0  502  0.34581153365E+02 -0.53260105194E+01 -0.10150731828E+03  0.10736832969E+03  0.00000000000E+00 0. -1.
<mgrwt>
<rscale>  1 0.30000000E+03</rscale>
<asrwt>0</asrwt>
<pdfrwt beam="1">  1       21 0.11913457E-01 0.30000000E+03</pdfrwt>
<pdfrwt beam="2">0</pdfrwt>
<totfact> 0.62790311E+03</totfact>
</mgrwt>
</event>
<event>
 6    1  0.1280499E-001  0.3000000E+03  0.7818608E-02  0.1093470E+00
         21   -1    0    0  501  502  0.00000000000E+00  0.00000000000E+00  0.26523261831E+01  0.26523261831E+01  0.00000000000E+00 0. -1.
         13   -1    0    0    0    0 -0.00000000000E+00 -0.00000000000E+00 -0.10000000000E+04  0.10000000000E+04  0.00000000000E+00 0.  1.
    9000005    2    1    2  501    0 -0.51205703526E+02 -0.36501236186E+01 -0.46408334537E+03  0.46692273817E+03  0.28538564666E+01 0.  0.
         13    1    3    3    0    0 -0.16695740093E+01  0.71496265202E-01 -0.11377102760E+02  0.11499176332E+02  0.00000000000E+00 0.  1.
          3    1    3    3  501    0 -0.49536129517E+02 -0.37216198838E+01 -0.45270624261E+03  0.45542356184E+03  0.00000000000E+00 0.  1.
         -1    1    1    2    0  502  0.51205703526E+02  0.36501236186E+01 -0.53326432845E+03  0.53572958801E+03  0.00000000000E+00 0. -1.
<mgrwt>
<rscale>  1 0.30000000E+03</rscale>
<asrwt>0</asrwt>
<pdfrwt beam="1">  1       21 0.96448428E-02 0.30000000E+03</pdfrwt>
<pdfrwt beam="2">0</pdfrwt>
<totfact> 0.91768392E+03</totfact>
</mgrwt>
</event>
<event>
 6    1  0.1280499E-001  0.3000000E+03  0.7818608E-02  0.1093470E+00
         21   -1    0    0  501  502  0.00000000000E+00  0.00000000000E+00  0.28723207685E+01  0.28723207685E+01  0.00000000000E+00 0. -1.
         13   -1    0    0    0    0 -0.00000000000E+00 -0.00000000000E+00 -0.10000000000E+04  0.10000000000E+04  0.00000000000E+00 0.  1.
    9000005    2    1    2  501    0  0.29643757262E+02 -0.44594854025E+02 -0.49787962261E+03  0.50076070430E+03  0.31162497715E+01 0.  0.
         13    1    3    3    0    0  0.14860219252E+02 -0.25109549450E+02 -0.26813453138E+03  0.26971733817E+03  0.00000000000E+00 0.  1.
          1    1    3    3  501    0  0.14783538010E+02 -0.19485304576E+02 -0.22974509123E+03  0.23104336613E+03  0.00000000000E+00 0.  1.
         -1    1    1    2    0  502 -0.29643757262E+02  0.44594854025E+02 -0.49924805662E+03  0.50211161647E+03  0.00000000000E+00 0. -1.
<mgrwt>
<rscale>  1 0.30000000E+03</rscale>
<asrwt>0</asrwt>
<pdfrwt beam="1">  1       21 0.10444825E-01 0.30000000E+03</pdfrwt>
<pdfrwt beam="2">0</pdfrwt>
<totfact> 0.79586654E+03</totfact>
</mgrwt>
</event>
<event>
 6    1  0.1280499E-001  0.3000000E+03  0.7818608E-02  0.1093470E+00
         21   -1    0    0  501  502  0.00000000000E+00  0.00000000000E+00  0.27896266012E+01  0.27896266012E+01  0.00000000000E+00 0. -1.
         13   -1    0    0    0    0 -0.00000000000E+00 -0.00000000000E+00 -0.10000000000E+04  0.10000000000E+04  0.00000000000E+00 0.  1.
    9000005    2    1    2  501    0  0.12657732301E+02 -0.51007760708E+02 -0.54188080206E+03  0.54443711120E+03  0.38671140099E+01 0.  0.
         13    1    3    3    0    0  0.42625627933E+01 -0.12503053008E+02 -0.12359319676E+03  0.12429712008E+03  0.00000000000E+00 0.  1.
          1    1    3    3  501    0  0.83951695077E+01 -0.38504707699E+02 -0.41828760531E+03  0.42013999112E+03  0.00000000000E+00 0.  1.
         -1    1    1    2    0  502 -0.12657732301E+02  0.51007760708E+02 -0.45532957134E+03  0.45835251540E+03  0.00000000000E+00 0. -1.
<mgrwt>
<rscale>  1 0.30000000E+03</rscale>
<asrwt>0</asrwt>
<pdfrwt beam="1">  1       21 0.10144118E-01 0.30000000E+03</pdfrwt>
<pdfrwt beam="2">0</pdfrwt>
<totfact> 0.83859284E+03</totfact>
</mgrwt>
</event>
<event>
 6    1  0.1280499E-001  0.3000000E+03  0.7818608E-02  0.1093470E+00
         21   -1    0    0  501  502  0.00000000000E+00  0.00000000000E+00  0.15793707528E+01  0.15793707528E+01  0.00000000000E+00 0. -1.
         13   -1    0    0    0    0 -0.00000000000E+00 -0.00000000000E+00 -0.10000000000E+04  0.10000000000E+04  0.00000000000E+00 0.  1.
    9000005    2    1    2  501    0 -0.23910057777E+02  0.20237648687E+02 -0.80681210290E+03  0.80742716073E+03  0.34054681835E+01 0.  0.
         13    1    3    3    0    0 -0.22744476959E+02  0.18746183378E+02 -0.77346224984E+03  0.77402363178E+03  0.00000000000E+00 0.  1.
          3    1    3    3  501    0 -0.11655808173E+01  0.14914653087E+01 -0.33349853062E+02  0.33403528955E+02  0.00000000000E+00 0.  1.
         -3    1    1    2    0  502  0.23910057777E+02 -0.20237648687E+02 -0.19160852635E+03  0.19415221002E+03  0.00000000000E+00 0. -1.
<mgrwt>
<rscale>  1 0.30000000E+03</rscale>
<asrwt>0</asrwt>
<pdfrwt beam="1">  1       21 0.57431785E-02 0.30000000E+03</pdfrwt>
<pdfrwt beam="2">0</pdfrwt>
<totfact> 0.22721395E+04</totfact>
</mgrwt>
</event>
<event>
 6    1  0.1280499E-001  0.3000000E+03  0.7818608E-02  0.1093470E+00
         21   -1    0    0  501  502  0.00000000000E+00  0.00000000000E+00  0.47886955342E+01  0.47886955342E+01  0.00000000000E+00 0. -1.
         13   -1    0    0    0    0 -0.00000000000E+00 -0.00000000000E+00 -0.10000000000E+04  0.10000000000E+04  0.00000000000E+00 0.  1.
    9000005    2    1    2  501    0 -0.34979199836E+02 -0.39032485067E+02 -0.82547879355E+03  0.82714803416E+03  0.33988972124E+01 0.  0.
         13    1    3    3    0    0 -0.23406162655E+02 -0.27039661486E+02 -0.53956712005E+03  0.54075102291E+03  0.00000000000E+00 0.  1.
          3    1    3    3  501    0 -0.11573037181E+02 -0.11992823581E+02 -0.28591167350E+03  0.28639701125E+03  0.00000000000E+00 0.  1.
         -3    1    1    2    0  502  0.34979199836E+02  0.39032485067E+02 -0.16973251091E+03  0.17764066137E+03  0.00000000000E+00 0. -1.
<mgrwt>
<rscale>  1 0.30000000E+03</rscale>
<asrwt>0</asrwt>
<pdfrwt beam="1">  1       21 0.17413475E-01 0.30000000E+03</pdfrwt>
<pdfrwt beam="2">0</pdfrwt>
<totfact> 0.31178249E+03</totfact>
</mgrwt>
</event>
<event>
 6    1  0.1280499E-001  0.3000000E+03  0.7818608E-02  0.1093470E+00
         21   -1    0    0  501  502  0.00000000000E+00  0.00000000000E+00  0.16086725873E+01  0.16086725873E+01  0.00000000000E+00 0. -1.
         13   -1    0    0    0    0 -0.00000000000E+00 -0.00000000000E+00 -0.10000000000E+04  0.10000000000E+04  0.00000000000E+00 0.  1.
    9000005    2    1    2  501    0 -0.56136672361E+01  0.35064996743E+02 -0.73089548281E+03  0.73176595148E+03  0.34833450479E+01 0.  0.
         13    1    3    3    0    0 -0.58049254143E+01  0.27195977121E+02 -0.56642030761E+03  0.56710253324E+03  0.00000000000E+00 0.  1.
          3    1    3    3  501    0  0.19125817828E+00  0.78690196212E+01 -0.16447517520E+03  0.16466341824E+03  0.00000000000E+00 0.  1.
         -1    1    1    2    0  502  0.56136672361E+01 -0.35064996743E+02 -0.26749584460E+03  0.26984272111E+03  0.00000000000E+00 0. -1.
<mgrwt>
<rscale>  1 0.30000000E+03</rscale>
<asrwt>0</asrwt>
<pdfrwt beam="1">  1       21 0.58497308E-02 0.30000000E+03</pdfrwt>
<pdfrwt beam="2">0</pdfrwt>
<totfact> 0.22013409E+04</totfact>
</mgrwt>
</event>
<event>
 6    1  0.1280499E-001  0.3000000E+03  0.7818608E-02  0.1093470E+00
         21   -1    0    0  501  502  0.00000000000E+00  0.00000000000E+00  0.16539075474E+01  0.16539075474E+01  0.00000000000E+00 0. -1.
         13   -1    0    0    0    0 -0.00000000000E+00 -0.00000000000E+00 -0.10000000000E+04  0.10000000000E+04  0.00000000000E+00 0.  1.
    9000005    2    1    2  501    0  0.25291347913E+02  0.17800957149E+02 -0.82406381843E+03  0.82464871725E+03  0.27935027271E+01 0.  0.
         13    1    3    3    0    0  0.19786847710E+02  0.14317298151E+02 -0.67785568139E+03  0.67829553232E+03  0.00000000000E+00 0.  1.
          1    1    3    3  501    0  0.55045002035E+01  0.34836589977E+01 -0.14620813704E+03  0.14635318493E+03  0.00000000000E+00 0.  1.
         -1    1    1    2    0  502 -0.25291347913E+02 -0.17800957149E+02 -0.17428227402E+03  0.17700519030E+03  0.00000000000E+00 0. -1.
<mgrwt>
<rscale>  1 0.30000000E+03</rscale>
<asrwt>0</asrwt>
<pdfrwt beam="1">  1       21 0.60142219E-02 0.30000000E+03</pdfrwt>
<pdfrwt beam="2">0</pdfrwt>
<totfact> 0.20985799E+04</totfact>
</mgrwt>
</event>
<event>
 6    1  0.1280499E-001  0.3000000E+03  0.7818608E-02  0.1093470E+00
         21   -1    0    0  501  502  0.00000000000E+00  0.00000000000E+00  0.15703079536E+01  0.15703079536E+01  0.00000000000E+00 0. -1.
         13   -1    0    0    0    0 -0.00000000000E+00 -0.00000000000E+00 -0.10000000000E+04  0.10000000000E+04  0.00000000000E+00 0.  1.
    9000005    2    1    2  501    0 -0.39072471977E+02  0.50080802211E+01 -0.54494547167E+03  0.54637839561E+03  0.34706138028E+01 0.  0.
         13    1    3    3    0    0 -0.39003057347E+02  0.51670689601E+01 -0.54078334212E+03  0.54221265219E+03  0.00000000000E+00 0.  1.
          3    1    3    3  501    0 -0.69414630399E-01 -0.15898873896E+00 -0.41621295569E+01  0.41657434221E+01  0.00000000000E+00 0.  1.
         -1    1    1    2    0  502  0.39072471977E+02 -0.50080802211E+01 -0.45348422037E+03  0.45519191234E+03  0.00000000000E+00 0. -1.
<mgrwt>
<rscale>  1 0.30000000E+03</rscale>
<asrwt>0</asrwt>
<pdfrwt beam="1">  1       21 0.57102228E-02 0.30000000E+03</pdfrwt>
<pdfrwt beam="2">0</pdfrwt>
<totfact> 0.22947441E+04</totfact>
</mgrwt>
</event>
<event>
 6    1  0.1280499E-001  0.3000000E+03  0.7818608E-02  0.1093470E+00
         21   -1    0    0  501  502  0.00000000000E+00  0.00000000000E+00  0.19537292416E+01  0.19537292416E+01  0.00000000000E+00 0. -1.
         13   -1    0    0    0    0 -0.00000000000E+00 -0.00000000000E+00 -0.10000000000E+04  0.10000000000E+04  0.00000000000E+00 0.  1.
    9000005    2    1    2  501    0  0.30170919671E+02  0.31184000168E+02 -0.59141927815E+03  0.59301823631E+03  0.33376294288E+01 0.  0.
         13    1    3    3    0    0  0.85793852942E+00  0.16125721902E+01 -0.19561809689E+02  0.19646904232E+02  0.00000000000E+00 0.  1.
          1    1    3    3  501    0  0.29312981142E+02  0.29571427978E+02 -0.57185746846E+03  0.57337133208E+03  0.00000000000E+00 0.  1.
         -1    1    1    2    0  502 -0.30170919671E+02 -0.31184000168E+02 -0.40662699261E+03  0.40893549293E+03  0.00000000000E+00 0. -1.
<mgrwt>
<rscale>  1 0.30000000E+03</rscale>
<asrwt>0</asrwt>
<pdfrwt beam="1">  1       21 0.71044850E-02 0.30000000E+03</pdfrwt>
<pdfrwt beam="2">0</pdfrwt>
<totfact> 0.15724309E+04</totfact>
</mgrwt>
</event>
<event>
 6    1  0.1280499E-001  0.3000000E+03  0.7818608E-02  0.1093470E+00
         21   -1    0    0  501  502  0.00000000000E+00  0.00000000000E+00  0.15287609477E+01  0.15287609477E+01  0.00000000000E+00 0. -1.
         13   -1    0    0    0    0 -0.00000000000E+00 -0.00000000000E+00 -0.10000000000E+04  0.10000000000E+04  0.00000000000E+00 0.  1.
    9000005    2    1    2  501    0 -0.29788974748E+02  0.23075012777E+02 -0.63046202139E+03  0.63159549194E+03  0.32658533469E+01 0.  0.
         13    1    3    3    0    0 -0.25536817382E+02  0.21115674579E+02 -0.54931177948E+03  0.55031030504E+03  0.00000000000E+00 0.  1.
          1    1    3    3  501    0 -0.42521573659E+01  0.19593381974E+01 -0.81150241904E+02  0.81285186901E+02  0.00000000000E+00 0.  1.
         -3    1    1    2    0  502  0.29788974748E+02 -0.23075012777E+02 -0.36800921766E+03  0.36993326900E+03  0.00000000000E+00 0. -1.
<mgrwt>
<rscale>  1 0.30000000E+03</rscale>
<asrwt>0</asrwt>
<pdfrwt beam="1">  1       21 0.55591424E-02 0.30000000E+03</pdfrwt>
<pdfrwt beam="2">0</pdfrwt>
<totfact> 0.24029214E+04</totfact>
</mgrwt>
</event>
<event>
 6    1  0.1280499E-001  0.3000000E+03  0.7818608E-02  0.1093470E+00
         21   -1    0    0  501  502  0.00000000000E+00  0.00000000000E+00  0.16689358357E+01  0.16689358357E+01  0.00000000000E+00 0. -1.
         13   -1    0    0    0    0 -0.00000000000E+00 -0.00000000000E+00 -0.10000000000E+04  0.10000000000E+04  0.00000000000E+00 0.  1.
    9000005    2    1    2  501    0  0.29757536570E+02  0.23873027546E+02 -0.67739894487E+03  0.67847726264E+03  0.25754581325E+01 0.  0.
         13    1    3    3    0    0  0.19784516373E+02  0.14310708538E+02 -0.43643579127E+03  0.43711831735E+03  0.00000000000E+00 0.  1.
          1    1    3    3  501    0  0.99730201960E+01  0.95623190082E+01 -0.24096315360E+03  0.24135894529E+03  0.00000000000E+00 0.  1.
         -3    1    1    2    0  502 -0.29757536570E+02 -0.23873027546E+02 -0.32093211930E+03  0.32319167320E+03  0.00000000000E+00 0. -1.
<mgrwt>
<rscale>  1 0.30000000E+03</rscale>
<asrwt>0</asrwt>
<pdfrwt beam="1">  1       21 0.60688704E-02 0.30000000E+03</pdfrwt>
<pdfrwt beam="2">0</pdfrwt>
<totfact> 0.20660866E+04</totfact>
</mgrwt>
</event>
<event>
 6    1  0.1280499E-001  0.3000000E+03  0.7818608E-02  0.1093470E+00
         21   -1    0    0  501  502  0.00000000000E+00  0.00000000000E+00  0.19889018790E+01  0.19889018790E+01  0.00000000000E+00 0. -1.
         13   -1    0    0    0    0 -0.00000000000E+00 -0.00000000000E+00 -0.10000000000E+04  0.10000000000E+04  0.00000000000E+00 0.  1.
    9000005    2    1    2  501    0  0.42646720360E+02 -0.31292822092E+01 -0.35842494650E+03  0.36097487668E+03  0.24257269911E+01 0.  0.
         13    1    3    3    0    0  0.20665398420E+02 -0.25582742423E+01 -0.17960194006E+03  0.18080503404E+03  0.00000000000E+00 0.  1.
          1    1    3    3  501    0  0.21981321940E+02 -0.57100796688E+00 -0.17882300644E+03  0.18016984264E+03  0.00000000000E+00 0.  1.
         -3    1    1    2    0  502 -0.42646720360E+02  0.31292822092E+01 -0.63958615162E+03  0.64101402520E+03  0.00000000000E+00 0. -1.
<mgrwt>
<rscale>  1 0.30000000E+03</rscale>
<asrwt>0</asrwt>
<pdfrwt beam="1">  1       21 0.72323857E-02 0.30000000E+03</pdfrwt>
<pdfrwt beam="2">0</pdfrwt>
<totfact> 0.15242581E+04</totfact>
</mgrwt>
</event>
<event>
 6    1  0.1280499E-001  0.3000000E+03  0.7818608E-02  0.1093470E+00
         21   -1    0    0  501  502  0.00000000000E+00  0.00000000000E+00  0.71326415033E+01  0.71326415033E+01  0.00000000000E+00 0. -1.
         13   -1    0    0    0    0 -0.00000000000E+00 -0.00000000000E+00 -0.10000000000E+04  0.10000000000E+04  0.00000000000E+00 0.  1.
    9000005    2    1    2  501    0  0.81016694941E+02 -0.19267852615E+02 -0.57913043600E+03  0.58509805046E+03  0.35653529955E+01 0.  0.
         13    1    3    3    0    0  0.25109740920E+02 -0.47716653837E+01 -0.18589201662E+03  0.18764090631E+03  0.00000000000E+00 0.  1.
          1    1    3    3  501    0  0.55906954021E+02 -0.14496187231E+02 -0.39323841939E+03  0.39745714415E+03  0.00000000000E+00 0.  1.
         -1    1    1    2    0  502 -0.81016694941E+02  0.19267852615E+02 -0.41373692249E+03  0.42203459104E+03  0.00000000000E+00 0. -1.
<mgrwt>
<rscale>  1 0.30000000E+03</rscale>
<asrwt>0</asrwt>
<pdfrwt beam="1">  1       21 0.25936933E-01 0.30000000E+03</pdfrwt>
<pdfrwt beam="2">0</pdfrwt>
<totfact> 0.14509339E+03</totfact>
</mgrwt>
</event>
<event>
 6    1  0.1280499E-001  0.3000000E+03  0.7818608E-02  0.1093470E+00
         21   -1    0    0  501  502  0.00000000000E+00  0.00000000000E+00  0.99143351918E+00  0.99143351918E+00  0.00000000000E+00 0. -1.
         13   -1    0    0    0    0 -0.00000000000E+00 -0.00000000000E+00 -0.10000000000E+04  0.10000000000E+04  0.00000000000E+00 0.  1.
    9000005    2    1    2  501    0 -0.26610342121E+02  0.14293113659E+02 -0.36349532579E+03  0.36476075012E+03  0.30248224231E+01 0.  0.
         13    1    3    3    0    0 -0.79094710755E+01  0.50875052447E+01 -0.99211199063E+02  0.99655930390E+02  0.00000000000E+00 0.  1.
          1    1    3    3  501    0 -0.18700871046E+02  0.92056084143E+01 -0.26428412673E+03  0.26510481973E+03  0.00000000000E+00 0.  1.
         -3    1    1    2    0  502  0.26610342121E+02 -0.14293113659E+02 -0.63551324069E+03  0.63623068340E+03  0.00000000000E+00 0. -1.
<mgrwt>
<rscale>  1 0.30000000E+03</rscale>
<asrwt>0</asrwt>
<pdfrwt beam="1">  1       21 0.36052204E-02 0.30000000E+03</pdfrwt>
<pdfrwt beam="2">0</pdfrwt>
<totfact> 0.50068494E+04</totfact>
</mgrwt>
</event>
<event>
 6    1  0.1280499E-001  0.3000000E+03  0.7818608E-02  0.1093470E+00
         21   -1    0    0  501  502  0.00000000000E+00  0.00000000000E+00  0.18723760564E+01  0.18723760564E+01  0.00000000000E+00 0. -1.
         13   -1    0    0    0    0 -0.00000000000E+00 -0.00000000000E+00 -0.10000000000E+04  0.10000000000E+04  0.00000000000E+00 0.  1.
    9000005    2    1    2  501    0  0.41704729363E+02  0.90565648479E+01 -0.41855754179E+03  0.42073316214E+03  0.21615089778E+01 0.  0.
         13    1    3    3    0    0  0.17692898398E+02  0.43887584640E+01 -0.18790499674E+03  0.18878714907E+03  0.00000000000E+00 0.  1.
          3    1    3    3  501    0  0.24011830965E+02  0.46678063838E+01 -0.23065254505E+03  0.23194601307E+03  0.00000000000E+00 0.  1.
         -1    1    1    2    0  502 -0.41704729363E+02 -0.90565648479E+01 -0.57957008216E+03  0.58113921392E+03  0.00000000000E+00 0. -1.
<mgrwt>
<rscale>  1 0.30000000E+03</rscale>
<asrwt>0</asrwt>
<pdfrwt beam="1">  1       21 0.68086546E-02 0.30000000E+03</pdfrwt>
<pdfrwt beam="2">0</pdfrwt>
<totfact> 0.16931756E+04</totfact>
</mgrwt>
</event>
<event>
 6    1  0.1280499E-001  0.3000000E+03  0.7818608E-02  0.1093470E+00
         21   -1    0    0  501  502  0.00000000000E+00  0.00000000000E+00  0.23526988936E+01  0.23526988936E+01  0.00000000000E+00 0. -1.
         13   -1    0    0    0    0 -0.00000000000E+00 -0.00000000000E+00 -0.10000000000E+04  0.10000000000E+04  0.00000000000E+00 0.  1.
    9000005    2    1    2  501    0 -0.32383095674E+02 -0.67510460191E+01 -0.13345622468E+03  0.13752875260E+03  0.30581658171E+01 0.  0.
         13    1    3    3    0    0 -0.13330260280E+01  0.32229570711E+00 -0.59142306130E+01  0.60711577691E+01  0.00000000000E+00 0.  1.
          1    1    3    3  501    0 -0.31050069646E+02 -0.70733417262E+01 -0.12754199407E+03  0.13145759483E+03  0.00000000000E+00 0.  1.
         -3    1    1    2    0  502  0.32383095674E+02  0.67510460191E+01 -0.86419107642E+03  0.86482394629E+03  0.00000000000E+00 0. -1.
<mgrwt>
<rscale>  1 0.30000000E+03</rscale>
<asrwt>0</asrwt>
<pdfrwt beam="1">  1       21 0.85552867E-02 0.30000000E+03</pdfrwt>
<pdfrwt beam="2">0</pdfrwt>
<totfact> 0.11350720E+04</totfact>
</mgrwt>
</event>
<event>
 6    1  0.1280499E-001  0.3000000E+03  0.7818608E-02  0.1093470E+00
         21   -1    0    0  501  502  0.00000000000E+00  0.00000000000E+00  0.15945414684E+01  0.15945414684E+01  0.00000000000E+00 0. -1.
         13   -1    0    0    0    0 -0.00000000000E+00 -0.00000000000E+00 -0.10000000000E+04  0.10000000000E+04  0.00000000000E+00 0.  1.
    9000005    2    1    2  501    0 -0.74553415523E+01 -0.37723403503E+02 -0.63261347439E+03  0.63378696548E+03  0.27335595198E+01 0.  0.
         13    1    3    3    0    0 -0.70588911631E+01 -0.36581557653E+02 -0.61888279285E+03  0.62000318515E+03  0.00000000000E+00 0.  1.
          1    1    3    3  501    0 -0.39645038925E+00 -0.11418458496E+01 -0.13730681533E+02  0.13783780331E+02  0.00000000000E+00 0.  1.
         -3    1    1    2    0  502  0.74553415523E+01  0.37723403503E+02 -0.36579198414E+03  0.36780757599E+03  0.00000000000E+00 0. -1.
<mgrwt>
<rscale>  1 0.30000000E+03</rscale>
<asrwt>0</asrwt>
<pdfrwt beam="1">  1       21 0.57983448E-02 0.30000000E+03</pdfrwt>
<pdfrwt beam="2">0</pdfrwt>
<totfact> 0.22350556E+04</totfact>
</mgrwt>
</event>
<event>
 6    1  0.1280499E-001  0.3000000E+03  0.7818608E-02  0.1093470E+00
         21   -1    0    0  501  502  0.00000000000E+00  0.00000000000E+00  0.11811133012E+01  0.11811133012E+01  0.00000000000E+00 0. -1.
         13   -1    0    0    0    0 -0.00000000000E+00 -0.00000000000E+00 -0.10000000000E+04  0.10000000000E+04  0.00000000000E+00 0.  1.
    9000005    2    1    2  501    0  0.19000393778E+02  0.27906338315E+02 -0.57985950553E+03  0.58086368355E+03  0.50787827260E+01 0.  0.
         13    1    3    3    0    0  0.34325683317E+01  0.59512294520E+01 -0.87624778229E+02  0.87893693841E+02  0.00000000000E+00 0.  1.
          1    1    3    3  501    0  0.15567825446E+02  0.21955108863E+02 -0.49223472730E+03  0.49296998971E+03  0.00000000000E+00 0.  1.
         -3    1    1    2    0  502 -0.19000393778E+02 -0.27906338315E+02 -0.41895938117E+03  0.42031742975E+03  0.00000000000E+00 0. -1.
<mgrwt>
<rscale>  1 0.30000000E+03</rscale>
<asrwt>0</asrwt>
<pdfrwt beam="1">  1       21 0.42949665E-02 0.30000000E+03</pdfrwt>
<pdfrwt beam="2">0</pdfrwt>
<totfact> 0.37290535E+04</totfact>
</mgrwt>
</event>
<event>
 6    1  0.1280499E-001  0.3000000E+03  0.7818608E-02  0.1093470E+00
         21   -1    0    0  501  502  0.00000000000E+00  0.00000000000E+00  0.65110432748E+01  0.65110432748E+01  0.00000000000E+00 0. -1.
         13   -1    0    0    0    0 -0.00000000000E+00 -0.00000000000E+00 -0.10000000000E+04  0.10000000000E+04  0.00000000000E+00 0.  1.
    9000005    2    1    2  501    0  0.41223598522E+02  0.25498089781E+02 -0.89902431317E+03  0.90033615669E+03  0.33078287094E+01 0.  0.
         13    1    3    3    0    0  0.10063363730E+02  0.46197267746E+01 -0.20945999331E+03  0.20975247784E+03  0.00000000000E+00 0.  1.
          3    1    3    3  501    0  0.31160234791E+02  0.20878363006E+02 -0.68956431986E+03  0.69058367885E+03  0.00000000000E+00 0.  1.
         -3    1    1    2    0  502 -0.41223598522E+02 -0.25498089781E+02 -0.94464643559E+02  0.10617488658E+03  0.00000000000E+00 0. -1.
<mgrwt>
<rscale>  1 0.30000000E+03</rscale>
<asrwt>0</asrwt>
<pdfrwt beam="1">  1       21 0.23676571E-01 0.30000000E+03</pdfrwt>
<pdfrwt beam="2">0</pdfrwt>
<totfact> 0.17340401E+03</totfact>
</mgrwt>
</event>
<event>
 6    1  0.1280499E-001  0.3000000E+03  0.7818608E-02  0.1093470E+00
         21   -1    0    0  501  502  0.00000000000E+00  0.00000000000E+00  0.13237277754E+01  0.13237277754E+01  0.00000000000E+00 0. -1.
         13   -1    0    0    0    0 -0.00000000000E+00 -0.00000000000E+00 -0.10000000000E+04  0.10000000000E+04  0.00000000000E+00 0.  1.
    9000005    2    1    2  501    0  0.31397247524E+02 -0.78427608877E+01 -0.72632400126E+03  0.72705550951E+03  0.39828448897E+01 0.  0.
         13    1    3    3    0    0  0.18133519372E+02 -0.29445856401E+01 -0.38254239114E+03  0.38298325829E+03  0.00000000000E+00 0.  1.
          1    1    3    3  501    0  0.13263728152E+02 -0.48981752476E+01 -0.34378161011E+03  0.34407225122E+03  0.00000000000E+00 0.  1.
         -3    1    1    2    0  502 -0.31397247524E+02  0.78427608877E+01 -0.27235227097E+03  0.27426821827E+03  0.00000000000E+00 0. -1.
<mgrwt>
<rscale>  1 0.30000000E+03</rscale>
<asrwt>0</asrwt>
<pdfrwt beam="1">  1       21 0.48135657E-02 0.30000000E+03</pdfrwt>
<pdfrwt beam="2">0</pdfrwt>
<totfact> 0.30730602E+04</totfact>
</mgrwt>
</event>
<event>
 6    1  0.1280499E-001  0.3000000E+03  0.7818608E-02  0.1093470E+00
         21   -1    0    0  501  502  0.00000000000E+00  0.00000000000E+00  0.49532348431E+01  0.49532348431E+01  0.00000000000E+00 0. -1.
         13   -1    0    0    0    0 -0.00000000000E+00 -0.00000000000E+00 -0.10000000000E+04  0.10000000000E+04  0.00000000000E+00 0.  1.
    9000005    2    1    2  501    0 -0.27873373272E+02  0.19779728196E+02 -0.93636961819E+03  0.93704763742E+03  0.10101996907E+02 0.  0.
         13    1    3    3    0    0 -0.71614012904E+01  0.84178187287E+01 -0.40880249718E+03  0.40895186397E+03  0.00000000000E+00 0.  1.
          1    1    3    3  501    0 -0.20711971982E+02  0.11361909467E+02 -0.52756712101E+03  0.52809577346E+03  0.00000000000E+00 0.  1.
         -1    1    1    2    0  502  0.27873373272E+02 -0.19779728196E+02 -0.58677146965E+02  0.67905597421E+02  0.00000000000E+00 0. -1.
<mgrwt>
<rscale>  1 0.30000000E+03</rscale>
<asrwt>0</asrwt>
<pdfrwt beam="1">  1       21 0.18011801E-01 0.30000000E+03</pdfrwt>
<pdfrwt beam="2">0</pdfrwt>
<totfact> 0.29259381E+03</totfact>
</mgrwt>
</event>
<event>
 6    1  0.1280499E-001  0.3000000E+03  0.7818608E-02  0.1093470E+00
         21   -1    0    0  501  502  0.00000000000E+00  0.00000000000E+00  0.15663276977E+01  0.15663276977E+01  0.00000000000E+00 0. -1.
         13   -1    0    0    0    0 -0.00000000000E+00 -0.00000000000E+00 -0.10000000000E+04  0.10000000000E+04  0.00000000000E+00 0.  1.
    9000005    2    1    2  501    0  0.24237935195E+02 -0.28643743256E+02 -0.65573731388E+03  0.65682187799E+03  0.39513362467E+01 0.  0.
         13    1    3    3    0    0  0.17537628469E+02 -0.20337059896E+02 -0.43697306349E+03  0.43779746760E+03  0.00000000000E+00 0.  1.
          3    1    3    3  501    0  0.67003067263E+01 -0.83066833599E+01 -0.21876425039E+03  0.21902441039E+03  0.00000000000E+00 0.  1.
         -1    1    1    2    0  502 -0.24237935195E+02  0.28643743256E+02 -0.34269635842E+03  0.34474444971E+03  0.00000000000E+00 0. -1.
<mgrwt>
<rscale>  1 0.30000000E+03</rscale>
<asrwt>0</asrwt>
<pdfrwt beam="1">  1       21 0.56957491E-02 0.30000000E+03</pdfrwt>
<pdfrwt beam="2">0</pdfrwt>
<totfact> 0.23047807E+04</totfact>
</mgrwt>
</event>
<event>
 6    1  0.1280499E-001  0.3000000E+03  0.7818608E-02  0.1093470E+00
         21   -1    0    0  501  502  0.00000000000E+00  0.00000000000E+00  0.10449820844E+01  0.10449820844E+01  0.00000000000E+00 0. -1.
         13   -1    0    0    0    0 -0.00000000000E+00 -0.00000000000E+00 -0.10000000000E+04  0.10000000000E+04  0.00000000000E+00 0.  1.
    9000005    2    1    2  501    0 -0.30613264971E+02  0.38445724078E+01 -0.64683365786E+03  0.64757446713E+03  0.26375782725E+01 0.  0.
         13    1    3    3    0    0 -0.66216999589E+01  0.19271385907E+01 -0.14120451448E+03  0.14137282513E+03  0.00000000000E+00 0.  1.
          1    1    3    3  501    0 -0.23991565012E+02  0.19174338171E+01 -0.50562914337E+03  0.50620164201E+03  0.00000000000E+00 0.  1.
         -1    1    1    2    0  502  0.30613264971E+02 -0.38445724078E+01 -0.35212136006E+03  0.35347051495E+03  0.00000000000E+00 0. -1.
<mgrwt>
<rscale>  1 0.30000000E+03</rscale>
<asrwt>0</asrwt>
<pdfrwt beam="1">  1       21 0.37999429E-02 0.30000000E+03</pdfrwt>
<pdfrwt beam="2">0</pdfrwt>
<totfact> 0.45837239E+04</totfact>
</mgrwt>
</event>
<event>
 6    1  0.1280499E-001  0.3000000E+03  0.7818608E-02  0.1093470E+00
         21   -1    0    0  501  502  0.00000000000E+00  0.00000000000E+00  0.17957542391E+01  0.17957542391E+01  0.00000000000E+00 0. -1.
         13   -1    0    0    0    0 -0.00000000000E+00 -0.00000000000E+00 -0.10000000000E+04  0.10000000000E+04  0.00000000000E+00 0.  1.
    9000005    2    1    2  501    0  0.16645025105E+02  0.33641710720E+02 -0.73055748245E+03  0.73152993792E+03  0.36046283785E+01 0.  0.
         13    1    3    3    0    0  0.11259377609E+02  0.18754278142E+02 -0.42610440331E+03  0.42666551191E+03  0.00000000000E+00 0.  1.
          1    1    3    3  501    0  0.53856474956E+01  0.14887432578E+02 -0.30445307914E+03  0.30486442601E+03  0.00000000000E+00 0.  1.
         -3    1    1    2    0  502 -0.16645025105E+02 -0.33641710720E+02 -0.26764676331E+03  0.27026581632E+03  0.00000000000E+00 0. -1.
<mgrwt>
<rscale>  1 0.30000000E+03</rscale>
<asrwt>0</asrwt>
<pdfrwt beam="1">  1       21 0.65300292E-02 0.30000000E+03</pdfrwt>
<pdfrwt beam="2">0</pdfrwt>
<totfact> 0.18204167E+04</totfact>
</mgrwt>
</event>
<event>
 6    1  0.1280499E-001  0.3000000E+03  0.7818608E-02  0.1093470E+00
         21   -1    0    0  501  502  0.00000000000E+00  0.00000000000E+00  0.40849297955E+01  0.40849297955E+01  0.00000000000E+00 0. -1.
         13   -1    0    0    0    0 -0.00000000000E+00 -0.00000000000E+00 -0.10000000000E+04  0.10000000000E+04  0.00000000000E+00 0.  1.
    9000005    2    1    2  501    0 -0.27350725883E+02 -0.17076833085E+02 -0.93137906927E+03  0.93194218344E+03  0.30955086251E+01 0.  0.
         13    1    3    3    0    0 -0.20776035220E+02 -0.13442343565E+02 -0.67650683985E+03  0.67695926363E+03  0.00000000000E+00 0.  1.
          1    1    3    3  501    0 -0.65746906631E+01 -0.36344895200E+01 -0.25487222941E+03  0.25498291981E+03  0.00000000000E+00 0.  1.
         -3    1    1    2    0  502  0.27350725883E+02  0.17076833085E+02 -0.64536000939E+02  0.72142746356E+02  0.00000000000E+00 0. -1.
<mgrwt>
<rscale>  1 0.30000000E+03</rscale>
<asrwt>0</asrwt>
<pdfrwt beam="1">  1       21 0.14854321E-01 0.30000000E+03</pdfrwt>
<pdfrwt beam="2">0</pdfrwt>
<totfact> 0.41930544E+03</totfact>
</mgrwt>
</event>
<event>
 6    1  0.1280499E-001  0.3000000E+03  0.7818608E-02  0.1093470E+00
         21   -1    0    0  501  502  0.00000000000E+00  0.00000000000E+00  0.10789889450E+01  0.10789889450E+01  0.00000000000E+00 0. -1.
         13   -1    0    0    0    0 -0.00000000000E+00 -0.00000000000E+00 -0.10000000000E+04  0.10000000000E+04  0.00000000000E+00 0.  1.
    9000005    2    1    2  501    0  0.64386057874E+01  0.31516153312E+02 -0.59603130409E+03  0.59690719435E+03  0.31874210697E+01 0.  0.
         13    1    3    3    0    0  0.37476045712E+00  0.37995474275E+00 -0.59510940799E+01  0.59749754606E+01  0.00000000000E+00 0.  1.
          3    1    3    3  501    0  0.60638453303E+01  0.31136198569E+02 -0.59008021001E+03  0.59093221889E+03  0.00000000000E+00 0.  1.
         -1    1    1    2    0  502 -0.64386057874E+01 -0.31516153312E+02 -0.40288970697E+03  0.40417179459E+03  0.00000000000E+00 0. -1.
<mgrwt>
<rscale>  1 0.30000000E+03</rscale>
<asrwt>0</asrwt>
<pdfrwt beam="1">  1       21 0.39236044E-02 0.30000000E+03</pdfrwt>
<pdfrwt beam="2">0</pdfrwt>
<totfact> 0.43434524E+04</totfact>
</mgrwt>
</event>
<event>
 6    1  0.1280499E-001  0.3000000E+03  0.7818608E-02  0.1093470E+00
         21   -1    0    0  501  502  0.00000000000E+00  0.00000000000E+00  0.19312990417E+01  0.19312990417E+01  0.00000000000E+00 0. -1.
         13   -1    0    0    0    0 -0.00000000000E+00 -0.00000000000E+00 -0.10000000000E+04  0.10000000000E+04  0.00000000000E+00 0.  1.
    9000005    2    1    2  501    0 -0.17769315826E+02 -0.38853493428E+02 -0.61393286481E+03  0.61542685774E+03  0.33633601034E+01 0.  0.
         13    1    3    3    0    0 -0.89162049827E+01 -0.22789700078E+02 -0.33725922144E+03  0.33814590281E+03  0.00000000000E+00 0.  1.
          3    1    3    3  501    0 -0.88531108428E+01 -0.16063793350E+02 -0.27667364337E+03  0.27728095493E+03  0.00000000000E+00 0.  1.
         -3    1    1    2    0  502  0.17769315826E+02  0.38853493428E+02 -0.38413583615E+03  0.38650444130E+03  0.00000000000E+00 0. -1.
<mgrwt>
<rscale>  1 0.30000000E+03</rscale>
<asrwt>0</asrwt>
<pdfrwt beam="1">  1       21 0.70229204E-02 0.30000000E+03</pdfrwt>
<pdfrwt beam="2">0</pdfrwt>
<totfact> 0.16043739E+04</totfact>
</mgrwt>
</event>
<event>
 6    1  0.1280499E-001  0.3000000E+03  0.7818608E-02  0.1093470E+00
         21   -1    0    0  501  502  0.00000000000E+00  0.00000000000E+00  0.21657033003E+01  0.21657033003E+01  0.00000000000E+00 0. -1.
         13   -1    0    0    0    0 -0.00000000000E+00 -0.00000000000E+00 -0.10000000000E+04  0.10000000000E+04  0.00000000000E+00 0.  1.
    9000005    2    1    2  501    0  0.23022101745E+02  0.26185920684E+02 -0.83040843306E+03  0.83114775270E+03  0.35639186275E+01 0.  0.
         13    1    3    3    0    0  0.62921743405E+01  0.59234232417E+01 -0.23804370406E+03  0.23820051101E+03  0.00000000000E+00 0.  1.
          3    1    3    3  501    0  0.16729927404E+02  0.20262497443E+02 -0.59236472900E+03  0.59294724169E+03  0.00000000000E+00 0.  1.
         -1    1    1    2    0  502 -0.23022101745E+02 -0.26185920684E+02 -0.16742586364E+03  0.17101795060E+03  0.00000000000E+00 0. -1.
<mgrwt>
<rscale>  1 0.30000000E+03</rscale>
<asrwt>0</asrwt>
<pdfrwt beam="1">  1       21 0.78753013E-02 0.30000000E+03</pdfrwt>
<pdfrwt beam="2">0</pdfrwt>
<totfact> 0.13131103E+04</totfact>
</mgrwt>
</event>
<event>
 6    1  0.1280499E-001  0.3000000E+03  0.7818608E-02  0.1093470E+00
         21   -1    0    0  501  502  0.00000000000E+00  0.00000000000E+00  0.22061064451E+01  0.22061064451E+01  0.00000000000E+00 0. -1.
         13   -1    0    0    0    0 -0.00000000000E+00 -0.00000000000E+00 -0.10000000000E+04  0.10000000000E+04  0.00000000000E+00 0.  1.
    9000005    2    1    2  501    0  0.19832838233E+02  0.25155837983E+02 -0.86523448026E+03  0.86583105114E+03  0.25584422672E+01 0.  0.
         13    1    3    3    0    0  0.14197122143E+02  0.17509856398E+02 -0.57731169773E+03  0.57775163321E+03  0.00000000000E+00 0.  1.
          1    1    3    3  501    0  0.56357160898E+01  0.76459815848E+01 -0.28792278253E+03  0.28807941792E+03  0.00000000000E+00 0.  1.
         -3    1    1    2    0  502 -0.19832838233E+02 -0.25155837983E+02 -0.13255941330E+03  0.13637505531E+03  0.00000000000E+00 0. -1.
<mgrwt>
<rscale>  1 0.30000000E+03</rscale>
<asrwt>0</asrwt>
<pdfrwt beam="1">  1       21 0.80222222E-02 0.30000000E+03</pdfrwt>
<pdfrwt beam="2">0</pdfrwt>
<totfact> 0.12711777E+04</totfact>
</mgrwt>
</event>
<event>
 6    1  0.1280499E-001  0.3000000E+03  0.7818608E-02  0.1093470E+00
         21   -1    0    0  501  502  0.00000000000E+00  0.00000000000E+00  0.97327201590E+00  0.97327201590E+00  0.00000000000E+00 0. -1.
         13   -1    0    0    0    0 -0.00000000000E+00 -0.00000000000E+00 -0.10000000000E+04  0.10000000000E+04  0.00000000000E+00 0.  1.
    9000005    2    1    2  501    0  0.17565461210E+02  0.24576407797E+02 -0.60772978825E+03  0.60851201240E+03  0.62312495413E+01 0.  0.
         13    1    3    3    0    0  0.13787790716E+02  0.14860512252E+02 -0.37216988003E+03  0.37272155504E+03  0.00000000000E+00 0.  1.
          3    1    3    3  501    0  0.37776704934E+01  0.97158955450E+01 -0.23555990822E+03  0.23579045736E+03  0.00000000000E+00 0.  1.
         -1    1    1    2    0  502 -0.17565461210E+02 -0.24576407797E+02 -0.39129693974E+03  0.39246125961E+03  0.00000000000E+00 0. -1.
<mgrwt>
<rscale>  1 0.30000000E+03</rscale>
<asrwt>0</asrwt>
<pdfrwt beam="1">  1       21 0.35391784E-02 0.30000000E+03</pdfrwt>
<pdfrwt beam="2">0</pdfrwt>
<totfact> 0.51644740E+04</totfact>
</mgrwt>
</event>
<event>
 6    1  0.1280499E-001  0.3000000E+03  0.7818608E-02  0.1093470E+00
         21   -1    0    0  501  502  0.00000000000E+00  0.00000000000E+00  0.59867526145E+01  0.59867526145E+01  0.00000000000E+00 0. -1.
         13   -1    0    0    0    0 -0.00000000000E+00 -0.00000000000E+00 -0.10000000000E+04  0.10000000000E+04  0.00000000000E+00 0.  1.
    9000005    2    1    2  501    0 -0.59584483262E+02 -0.34397886003E+02 -0.26764810963E+03  0.27637052572E+03  0.34105262024E+01 0.  0.
         13    1    3    3    0    0 -0.53102033435E+02 -0.31684000117E+02 -0.24235445752E+03  0.25011874160E+03  0.00000000000E+00 0.  1.
          1    1    3    3  501    0 -0.64824498267E+01 -0.27138858860E+01 -0.25293652108E+02  0.26251784117E+02  0.00000000000E+00 0.  1.
         -1    1    1    2    0  502  0.59584483262E+02  0.34397886003E+02 -0.72636513775E+03  0.72961622690E+03  0.00000000000E+00 0. -1.
<mgrwt>
<rscale>  1 0.30000000E+03</rscale>
<asrwt>0</asrwt>
<pdfrwt beam="1">  1       21 0.21770055E-01 0.30000000E+03</pdfrwt>
<pdfrwt beam="2">0</pdfrwt>
<totfact> 0.20394146E+03</totfact>
</mgrwt>
</event>
<event>
 6    1  0.1280499E-001  0.3000000E+03  0.7818608E-02  0.1093470E+00
         21   -1    0    0  501  502  0.00000000000E+00  0.00000000000E+00  0.11814332550E+01  0.11814332550E+01  0.00000000000E+00 0. -1.
         13   -1    0    0    0    0 -0.00000000000E+00 -0.00000000000E+00 -0.10000000000E+04  0.10000000000E+04  0.00000000000E+00 0.  1.
    9000005    2    1    2  501    0 -0.14998988585E+01 -0.32841881687E+02 -0.64054228055E+03  0.64139992158E+03  0.43136236324E+01 0.  0.
         13    1    3    3    0    0 -0.22714361699E+01 -0.12856845188E+02 -0.27798665820E+03  0.27829308297E+03  0.00000000000E+00 0.  1.
          1    1    3    3  501    0  0.77153731139E+00 -0.19985036499E+02 -0.36255562235E+03  0.36310683861E+03  0.00000000000E+00 0.  1.
         -1    1    1    2    0  502  0.14998988585E+01  0.32841881687E+02 -0.35827628620E+03  0.35978151167E+03  0.00000000000E+00 0. -1.
<mgrwt>
<rscale>  1 0.30000000E+03</rscale>
<asrwt>0</asrwt>
<pdfrwt beam="1">  1       21 0.42961300E-02 0.30000000E+03</pdfrwt>
<pdfrwt beam="2">0</pdfrwt>
<totfact> 0.37273458E+04</totfact>
</mgrwt>
</event>
<event>
 6    1  0.1280499E-001  0.3000000E+03  0.7818608E-02  0.1093470E+00
         21   -1    0    0  501  502  0.00000000000E+00  0.00000000000E+00  0.18110290678E+01  0.18110290678E+01  0.00000000000E+00 0. -1.
         13   -1    0    0    0    0 -0.00000000000E+00 -0.00000000000E+00 -0.10000000000E+04  0.10000000000E+04  0.00000000000E+00 0.  1.
    9000005    2    1    2  501    0  0.32405426118E+02  0.97903070749E+01 -0.80218926540E+03  0.80290942947E+03  0.31579505635E+01 0.  0.
         13    1    3    3    0    0  0.12535170644E+02  0.54038134515E+01 -0.32257868208E+03  0.32286736880E+03  0.00000000000E+00 0.  1.
          3    1    3    3  501    0  0.19870255474E+02  0.43864936234E+01 -0.47961058332E+03  0.48004206066E+03  0.00000000000E+00 0.  1.
         -1    1    1    2    0  502 -0.32405426118E+02 -0.97903070749E+01 -0.19599970554E+03  0.19890159960E+03  0.00000000000E+00 0. -1.
<mgrwt>
<rscale>  1 0.30000000E+03</rscale>
<asrwt>0</asrwt>
<pdfrwt beam="1">  1       21 0.65855741E-02 0.30000000E+03</pdfrwt>
<pdfrwt beam="2">0</pdfrwt>
<totfact> 0.17939010E+04</totfact>
</mgrwt>
</event>
<event>
 6    1  0.1280499E-001  0.3000000E+03  0.7818608E-02  0.1093470E+00
         21   -1    0    0  501  502  0.00000000000E+00  0.00000000000E+00  0.19524848337E+01  0.19524848337E+01  0.00000000000E+00 0. -1.
         13   -1    0    0    0    0 -0.00000000000E+00 -0.00000000000E+00 -0.10000000000E+04  0.10000000000E+04  0.00000000000E+00 0.  1.
    9000005    2    1    2  501    0 -0.37953781644E+02  0.22159485888E+02 -0.46095223365E+03  0.46306207503E+03  0.42416110431E+01 0.  0.
         13    1    3    3    0    0 -0.29043795163E+02  0.17365088386E+02 -0.37213875179E+03  0.37367410790E+03  0.00000000000E+00 0.  1.
          1    1    3    3  501    0 -0.89099864818E+01  0.47943975016E+01 -0.88813481858E+02  0.89387967122E+02  0.00000000000E+00 0.  1.
         -3    1    1    2    0  502  0.37953781644E+02 -0.22159485888E+02 -0.53709528151E+03  0.53889040981E+03  0.00000000000E+00 0. -1.
<mgrwt>
<rscale>  1 0.30000000E+03</rscale>
<asrwt>0</asrwt>
<pdfrwt beam="1">  1       21 0.70999598E-02 0.30000000E+03</pdfrwt>
<pdfrwt beam="2">0</pdfrwt>
<totfact> 0.15741776E+04</totfact>
</mgrwt>
</event>
<event>
 6    1  0.1280499E-001  0.3000000E+03  0.7818608E-02  0.1093470E+00
         21   -1    0    0  501  502  0.00000000000E+00  0.00000000000E+00  0.36686006172E+01  0.36686006172E+01  0.00000000000E+00 0. -1.
         13   -1    0    0    0    0 -0.00000000000E+00 -0.00000000000E+00 -0.10000000000E+04  0.10000000000E+04  0.00000000000E+00 0.  1.
    9000005    2    1    2  501    0 -0.53808197140E+02  0.20550329169E+02 -0.65249056778E+03  0.65503676675E+03  0.34039159785E+01 0.  0.
         13    1    3    3    0    0 -0.12720200780E+02  0.33308889824E+01 -0.14848962200E+03  0.14907067509E+03  0.00000000000E+00 0.  1.
          1    1    3    3  501    0 -0.41087996360E+02  0.17219440186E+02 -0.50400094577E+03  0.50596609166E+03  0.00000000000E+00 0.  1.
         -3    1    1    2    0  502  0.53808197140E+02 -0.20550329169E+02 -0.34384083161E+03  0.34863183387E+03  0.00000000000E+00 0. -1.
<mgrwt>
<rscale>  1 0.30000000E+03</rscale>
<asrwt>0</asrwt>
<pdfrwt beam="1">  1       21 0.13340394E-01 0.30000000E+03</pdfrwt>
<pdfrwt beam="2">0</pdfrwt>
<totfact> 0.51093355E+03</totfact>
</mgrwt>
</event>
<event>
 6    1  0.1280499E-001  0.3000000E+03  0.7818608E-02  0.1093470E+00
         21   -1    0    0  501  502  0.00000000000E+00  0.00000000000E+00  0.11746680872E+01  0.11746680872E+01  0.00000000000E+00 0. -1.
         13   -1    0    0    0    0 -0.00000000000E+00 -0.00000000000E+00 -0.10000000000E+04  0.10000000000E+04  0.00000000000E+00 0.  1.
    9000005    2    1    2  501    0 -0.33413697907E+02 -0.68448425045E+01 -0.52589791275E+03  0.52701892271E+03  0.41234917885E+01 0.  0.
         13    1    3    3    0    0 -0.21081088086E+01 -0.15237612141E+01 -0.39344284649E+02  0.39430175064E+02  0.00000000000E+00 0.  1.
          1    1    3    3  501    0 -0.31305589099E+02 -0.53210812903E+01 -0.48655362810E+03  0.48758874765E+03  0.00000000000E+00 0.  1.
         -3    1    1    2    0  502  0.33413697907E+02  0.68448425045E+01 -0.47292741916E+03  0.47415574537E+03  0.00000000000E+00 0. -1.
<mgrwt>
<rscale>  1 0.30000000E+03</rscale>
<asrwt>0</asrwt>
<pdfrwt beam="1">  1       21 0.42715293E-02 0.30000000E+03</pdfrwt>
<pdfrwt beam="2">0</pdfrwt>
<totfact> 0.37637133E+04</totfact>
</mgrwt>
</event>
<event>
 6    1  0.1280499E-001  0.3000000E+03  0.7818608E-02  0.1093470E+00
         21   -1    0    0  501  502  0.00000000000E+00  0.00000000000E+00  0.97948561712E+00  0.97948561712E+00  0.00000000000E+00 0. -1.
         13   -1    0    0    0    0 -0.00000000000E+00 -0.00000000000E+00 -0.10000000000E+04  0.10000000000E+04  0.00000000000E+00 0.  1.
    9000005    2    1    2  501    0 -0.19645229299E+02  0.22717216612E+02 -0.63662629039E+03  0.63734288055E+03  0.33025446533E+01 0.  0.
         13    1    3    3    0    0 -0.16039577657E+02  0.19075557872E+02 -0.50046095401E+03  0.50108114258E+03  0.00000000000E+00 0.  1.
          1    1    3    3  501    0 -0.36056516419E+01  0.36416587396E+01 -0.13616533638E+03  0.13626173796E+03  0.00000000000E+00 0.  1.
         -3    1    1    2    0  502  0.19645229299E+02 -0.22717216612E+02 -0.36239422399E+03  0.36363660507E+03  0.00000000000E+00 0. -1.
<mgrwt>
<rscale>  1 0.30000000E+03</rscale>
<asrwt>0</asrwt>
<pdfrwt beam="1">  1       21 0.35617734E-02 0.30000000E+03</pdfrwt>
<pdfrwt beam="2">0</pdfrwt>
<totfact> 0.51096760E+04</totfact>
</mgrwt>
</event>
<event>
 6    1  0.1280499E-001  0.3000000E+03  0.7818608E-02  0.1093470E+00
         21   -1    0    0  501  502  0.00000000000E+00  0.00000000000E+00  0.28015451272E+01  0.28015451272E+01  0.00000000000E+00 0. -1.
         13   -1    0    0    0    0 -0.00000000000E+00 -0.00000000000E+00 -0.10000000000E+04  0.10000000000E+04  0.00000000000E+00 0.  1.
    9000005    2    1    2  501    0 -0.13076130948E+01  0.37975767212E+02 -0.84736823455E+03  0.84822805559E+03  0.37470801181E+01 0.  0.
         13    1    3    3    0    0 -0.11100429405E+01  0.34883150971E+02 -0.75193286537E+03  0.75274238651E+03  0.00000000000E+00 0.  1.
          3    1    3    3  501    0 -0.19757015432E+00  0.30926162406E+01 -0.95435369179E+02  0.95485669079E+02  0.00000000000E+00 0.  1.
         -1    1    1    2    0  502  0.13076130948E+01 -0.37975767212E+02 -0.14983022032E+03  0.15457348954E+03  0.00000000000E+00 0. -1.
<mgrwt>
<rscale>  1 0.30000000E+03</rscale>
<asrwt>0</asrwt>
<pdfrwt beam="1">  1       21 0.10187458E-01 0.30000000E+03</pdfrwt>
<pdfrwt beam="2">0</pdfrwt>
<totfact> 0.83222239E+03</totfact>
</mgrwt>
</event>
<event>
 6    1  0.1280499E-001  0.3000000E+03  0.7818608E-02  0.1093470E+00
         21   -1    0    0  501  502  0.00000000000E+00  0.00000000000E+00  0.11710070232E+01  0.11710070232E+01  0.00000000000E+00 0. -1.
         13   -1    0    0    0    0 -0.00000000000E+00 -0.00000000000E+00 -0.10000000000E+04  0.10000000000E+04  0.00000000000E+00 0.  1.
    9000005    2    1    2  501    0 -0.21220201299E+02  0.22416450567E+02 -0.28731690467E+03  0.28898967758E+03  0.33519904690E+01 0.  0.
         13    1    3    3    0    0 -0.19508141578E+02  0.20131250348E+02 -0.26813914038E+03  0.26960050711E+03  0.00000000000E+00 0.  1.
          3    1    3    3  501    0 -0.17120597212E+01  0.22852002190E+01 -0.19177764295E+02  0.19389170480E+02  0.00000000000E+00 0.  1.
         -1    1    1    2    0  502  0.21220201299E+02 -0.22416450567E+02 -0.71151208830E+03  0.71218132944E+03  0.00000000000E+00 0. -1.
<mgrwt>
<rscale>  1 0.30000000E+03</rscale>
<asrwt>0</asrwt>
<pdfrwt beam="1">  1       21 0.42582163E-02 0.30000000E+03</pdfrwt>
<pdfrwt beam="2">0</pdfrwt>
<totfact> 0.37836243E+04</totfact>
</mgrwt>
</event>
<event>
 6    1  0.1280499E-001  0.3000000E+03  0.7818608E-02  0.1093470E+00
         21   -1    0    0  501  502  0.00000000000E+00  0.00000000000E+00  0.81279356116E+01  0.81279356116E+01  0.00000000000E+00 0. -1.
         13   -1    0    0    0    0 -0.00000000000E+00 -0.00000000000E+00 -0.10000000000E+04  0.10000000000E+04  0.00000000000E+00 0.  1.
    9000005    2    1    2  501    0 -0.27217041944E+02  0.66709337785E+02 -0.79881013298E+03  0.80206044065E+03  0.35240300072E+01 0.  0.
         13    1    3    3    0    0 -0.12785716413E+02  0.34725792047E+02 -0.42346544418E+03  0.42507921331E+03  0.00000000000E+00 0.  1.
          1    1    3    3  501    0 -0.14431325531E+02  0.31983545738E+02 -0.37534468880E+03  0.37698122734E+03  0.00000000000E+00 0.  1.
         -3    1    1    2    0  502  0.27217041944E+02 -0.66709337785E+02 -0.19306193141E+03  0.20606749496E+03  0.00000000000E+00 0. -1.
<mgrwt>
<rscale>  1 0.30000000E+03</rscale>
<asrwt>0</asrwt>
<pdfrwt beam="1">  1       21 0.29556192E-01 0.30000000E+03</pdfrwt>
<pdfrwt beam="2">0</pdfrwt>
<totfact> 0.11201495E+03</totfact>
</mgrwt>
</event>
<event>
 6    1  0.1280499E-001  0.3000000E+03  0.7818608E-02  0.1093470E+00
         21   -1    0    0  501  502  0.00000000000E+00  0.00000000000E+00  0.10831321894E+01  0.10831321894E+01  0.00000000000E+00 0. -1.
         13   -1    0    0    0    0 -0.00000000000E+00 -0.00000000000E+00 -0.10000000000E+04  0.10000000000E+04  0.00000000000E+00 0.  1.
    9000005    2    1    2  501    0 -0.47475616787E+01 -0.31706872403E+02 -0.39102226950E+03  0.39234369060E+03  0.27002229440E+01 0.  0.
         13    1    3    3    0    0 -0.51696883849E+00 -0.11294503730E+02 -0.13075493291E+03  0.13124284953E+03  0.00000000000E+00 0.  1.
          1    1    3    3  501    0 -0.42305928402E+01 -0.20412368673E+02 -0.26026733659E+03  0.26110084107E+03  0.00000000000E+00 0.  1.
         -1    1    1    2    0  502  0.47475616787E+01  0.31706872403E+02 -0.60789459831E+03  0.60873944159E+03  0.00000000000E+00 0. -1.
<mgrwt>
<rscale>  1 0.30000000E+03</rscale>
<asrwt>0</asrwt>
<pdfrwt beam="1">  1       21 0.39386708E-02 0.30000000E+03</pdfrwt>
<pdfrwt beam="2">0</pdfrwt>
<totfact> 0.43155328E+04</totfact>
</mgrwt>
</event>
<event>
 6    1  0.1280499E-001  0.3000000E+03  0.7818608E-02  0.1093470E+00
         21   -1    0    0  501  502  0.00000000000E+00  0.00000000000E+00  0.18198748463E+01  0.18198748463E+01  0.00000000000E+00 0. -1.
         13   -1    0    0    0    0 -0.00000000000E+00 -0.00000000000E+00 -0.10000000000E+04  0.10000000000E+04  0.00000000000E+00 0.  1.
    9000005    2    1    2  501    0 -0.42122827936E+02 -0.37960046135E+01 -0.55887917497E+03  0.56048772429E+03  0.34372340532E+01 0.  0.
         13    1    3    3    0    0 -0.36580162814E+02 -0.21312277107E+01 -0.48508448779E+03  0.48646645387E+03  0.00000000000E+00 0.  1.
          1    1    3    3  501    0 -0.55426651214E+01 -0.16647769028E+01 -0.73794687177E+02  0.74021270419E+02  0.00000000000E+00 0.  1.
         -1    1    1    2    0  502  0.42122827936E+02  0.37960046135E+01 -0.43930095019E+03  0.44133215056E+03  0.00000000000E+00 0. -1.
<mgrwt>
<rscale>  1 0.30000000E+03</rscale>
<asrwt>0</asrwt>
<pdfrwt beam="1">  1       21 0.66177407E-02 0.30000000E+03</pdfrwt>
<pdfrwt beam="2">0</pdfrwt>
<totfact> 0.17788167E+04</totfact>
</mgrwt>
</event>
<event>
 6    1  0.1280499E-001  0.3000000E+03  0.7818608E-02  0.1093470E+00
         21   -1    0    0  501  502  0.00000000000E+00  0.00000000000E+00  0.10882222139E+01  0.10882222139E+01  0.00000000000E+00 0. -1.
         13   -1    0    0    0    0 -0.00000000000E+00 -0.00000000000E+00 -0.10000000000E+04  0.10000000000E+04  0.00000000000E+00 0.  1.
    9000005    2    1    2  501    0  0.31766816041E+02  0.79777846781E+01 -0.54987065421E+03  0.55085416496E+03  0.31303420665E+01 0.  0.
         13    1    3    3    0    0  0.74120031071E+01  0.12400558334E+01 -0.14671766642E+03  0.14691000363E+03  0.00000000000E+00 0.  1.
          1    1    3    3  501    0  0.24354812934E+02  0.67377288448E+01 -0.40315298779E+03  0.40394416133E+03  0.00000000000E+00 0.  1.
         -3    1    1    2    0  502 -0.31766816041E+02 -0.79777846781E+01 -0.44904112358E+03  0.45023405726E+03  0.00000000000E+00 0. -1.
<mgrwt>
<rscale>  1 0.30000000E+03</rscale>
<asrwt>0</asrwt>
<pdfrwt beam="1">  1       21 0.39571800E-02 0.30000000E+03</pdfrwt>
<pdfrwt beam="2">0</pdfrwt>
<totfact> 0.42816161E+04</totfact>
</mgrwt>
</event>
<event>
 6    1  0.1280499E-001  0.3000000E+03  0.7818608E-02  0.1093470E+00
         21   -1    0    0  501  502  0.00000000000E+00  0.00000000000E+00  0.49792331818E+01  0.49792331818E+01  0.00000000000E+00 0. -1.
         13   -1    0    0    0    0 -0.00000000000E+00 -0.00000000000E+00 -0.10000000000E+04  0.10000000000E+04  0.00000000000E+00 0.  1.
    9000005    2    1    2  501    0 -0.37954593734E+02  0.20029127732E+02 -0.89631821295E+03  0.89735065295E+03  0.31840751956E+01 0.  0.
         13    1    3    3    0    0 -0.12692084299E+02  0.67948592458E+01 -0.33279232796E+03  0.33310357648E+03  0.00000000000E+00 0.  1.
          3    1    3    3  501    0 -0.25262509435E+02  0.13234268487E+02 -0.56352588500E+03  0.56424707647E+03  0.00000000000E+00 0.  1.
         -1    1    1    2    0  502  0.37954593734E+02 -0.20029127732E+02 -0.98702553865E+02  0.10762858023E+03  0.00000000000E+00 0. -1.
<mgrwt>
<rscale>  1 0.30000000E+03</rscale>
<asrwt>0</asrwt>
<pdfrwt beam="1">  1       21 0.18106341E-01 0.30000000E+03</pdfrwt>
<pdfrwt beam="2">0</pdfrwt>
<totfact> 0.28972208E+03</totfact>
</mgrwt>
</event>
<event>
 6    1  0.1280499E-001  0.3000000E+03  0.7818608E-02  0.1093470E+00
         21   -1    0    0  501  502  0.00000000000E+00  0.00000000000E+00  0.14155814983E+01  0.14155814983E+01  0.00000000000E+00 0. -1.
         13   -1    0    0    0    0 -0.00000000000E+00 -0.00000000000E+00 -0.10000000000E+04  0.10000000000E+04  0.00000000000E+00 0.  1.
    9000005    2    1    2  501    0  0.48207067216E+01 -0.29976779272E+02 -0.79248703698E+03  0.79309376992E+03  0.63385800524E+01 0.  0.
         13    1    3    3    0    0 -0.25193867744E+00 -0.60495766351E+01 -0.22217049007E+03  0.22225298087E+03  0.00000000000E+00 0.  1.
          1    1    3    3  501    0  0.50726453991E+01 -0.23927202637E+02 -0.57031654691E+03  0.57084078905E+03  0.00000000000E+00 0.  1.
         -3    1    1    2    0  502 -0.48207067216E+01  0.29976779272E+02 -0.20609738152E+03  0.20832181158E+03  0.00000000000E+00 0. -1.
<mgrwt>
<rscale>  1 0.30000000E+03</rscale>
<asrwt>0</asrwt>
<pdfrwt beam="1">  1       21 0.51475799E-02 0.30000000E+03</pdfrwt>
<pdfrwt beam="2">0</pdfrwt>
<totfact> 0.27410098E+04</totfact>
</mgrwt>
</event>
<event>
 6    1  0.1280499E-001  0.3000000E+03  0.7818608E-02  0.1093470E+00
         21   -1    0    0  501  502  0.00000000000E+00  0.00000000000E+00  0.19535609787E+01  0.19535609787E+01  0.00000000000E+00 0. -1.
         13   -1    0    0    0    0 -0.00000000000E+00 -0.00000000000E+00 -0.10000000000E+04  0.10000000000E+04  0.00000000000E+00 0.  1.
    9000005    2    1    2  501    0 -0.40030720339E+02  0.17722208920E+02 -0.56421002608E+03  0.56591392006E+03  0.30126611458E+01 0.  0.
         13    1    3    3    0    0 -0.52865280883E+01  0.19226812956E+01 -0.61260672774E+02  0.61518404655E+02  0.00000000000E+00 0.  1.
          1    1    3    3  501    0 -0.34744192250E+02  0.15799527624E+02 -0.50294935330E+03  0.50439551540E+03  0.00000000000E+00 0.  1.
         -1    1    1    2    0  502  0.40030720339E+02 -0.17722208920E+02 -0.43383641294E+03  0.43603964092E+03  0.00000000000E+00 0. -1.
<mgrwt>
<rscale>  1 0.30000000E+03</rscale>
<asrwt>0</asrwt>
<pdfrwt beam="1">  1       21 0.71038731E-02 0.30000000E+03</pdfrwt>
<pdfrwt beam="2">0</pdfrwt>
<totfact> 0.15726669E+04</totfact>
</mgrwt>
</event>
<event>
 6    1  0.1280499E-001  0.3000000E+03  0.7818608E-02  0.1093470E+00
         21   -1    0    0  501  502  0.00000000000E+00  0.00000000000E+00  0.12049596457E+01  0.12049596457E+01  0.00000000000E+00 0. -1.
         13   -1    0    0    0    0 -0.00000000000E+00 -0.00000000000E+00 -0.10000000000E+04  0.10000000000E+04  0.00000000000E+00 0.  1.
    9000005    2    1    2  501    0  0.24684219713E+02 -0.17814449338E+02 -0.73876618473E+03  0.73940031670E+03  0.32691489471E+01 0.  0.
         13    1    3    3    0    0  0.23563973529E+02 -0.17394402352E+02 -0.69327270602E+03  0.69389110888E+03  0.00000000000E+00 0.  1.
          1    1    3    3  501    0  0.11202461848E+01 -0.42004698608E+00 -0.45493478711E+02  0.45509207818E+02  0.00000000000E+00 0.  1.
         -1    1    1    2    0  502 -0.24684219713E+02  0.17814449338E+02 -0.26002885563E+03  0.26180464294E+03  0.00000000000E+00 0. -1.
<mgrwt>
<rscale>  1 0.30000000E+03</rscale>
<asrwt>0</asrwt>
<pdfrwt beam="1">  1       21 0.43816807E-02 0.30000000E+03</pdfrwt>
<pdfrwt beam="2">0</pdfrwt>
<totfact> 0.36050253E+04</totfact>
</mgrwt>
</event>
<event>
 6    1  0.1280499E-001  0.3000000E+03  0.7818608E-02  0.1093470E+00
         21   -1    0    0  501  502  0.00000000000E+00  0.00000000000E+00  0.28487375211E+01  0.28487375211E+01  0.00000000000E+00 0. -1.
         13   -1    0    0    0    0 -0.00000000000E+00 -0.00000000000E+00 -0.10000000000E+04  0.10000000000E+04  0.00000000000E+00 0.  1.
    9000005    2    1    2  501    0  0.70444256705E+01 -0.31077894890E+02 -0.90006784808E+03  0.90066924430E+03  0.82156554394E+01 0.  0.
         13    1    3    3    0    0  0.53003592049E+01 -0.30549403609E+02 -0.83364355293E+03  0.83421995494E+03  0.00000000000E+00 0.  1.
          1    1    3    3  501    0  0.17440664655E+01 -0.52849128045E+00 -0.66424295153E+02  0.66449289367E+02  0.00000000000E+00 0.  1.
         -3    1    1    2    0  502 -0.70444256705E+01  0.31077894890E+02 -0.97083414394E+02  0.10217949322E+03  0.00000000000E+00 0. -1.
<mgrwt>
<rscale>  1 0.30000000E+03</rscale>
<asrwt>0</asrwt>
<pdfrwt beam="1">  1       21 0.10359067E-01 0.30000000E+03</pdfrwt>
<pdfrwt beam="2">0</pdfrwt>
<totfact> 0.80770778E+03</totfact>
</mgrwt>
</event>
<event>
 6    1  0.1280499E-001  0.3000000E+03  0.7818608E-02  0.1093470E+00
         21   -1    0    0  501  502  0.00000000000E+00  0.00000000000E+00  0.13459345981E+01  0.13459345981E+01  0.00000000000E+00 0. -1.
         13   -1    0    0    0    0 -0.00000000000E+00 -0.00000000000E+00 -0.10000000000E+04  0.10000000000E+04  0.00000000000E+00 0.  1.
    9000005    2    1    2  501    0  0.21618780328E+02  0.23987856329E+02 -0.73455021503E+03  0.73527520585E+03  0.47771357837E+01 0.  0.
         13    1    3    3    0    0  0.71415598394E+01  0.53222041710E+01 -0.22983223466E+03  0.23000474740E+03  0.00000000000E+00 0.  1.
          3    1    3    3  501    0  0.14477220489E+02  0.18665652158E+02 -0.50471798037E+03  0.50527045846E+03  0.00000000000E+00 0.  1.
         -1    1    1    2    0  502 -0.21618780328E+02 -0.23987856329E+02 -0.26410385037E+03  0.26607072875E+03  0.00000000000E+00 0. -1.
<mgrwt>
<rscale>  1 0.30000000E+03</rscale>
<asrwt>0</asrwt>
<pdfrwt beam="1">  1       21 0.48943180E-02 0.30000000E+03</pdfrwt>
<pdfrwt beam="2">0</pdfrwt>
<totfact> 0.29872444E+04</totfact>
</mgrwt>
</event>
<event>
 6    1  0.1280499E-001  0.3000000E+03  0.7818608E-02  0.1093470E+00
         21   -1    0    0  501  502  0.00000000000E+00  0.00000000000E+00  0.10530201725E+01  0.10530201725E+01  0.00000000000E+00 0. -1.
         13   -1    0    0    0    0 -0.00000000000E+00 -0.00000000000E+00 -0.10000000000E+04  0.10000000000E+04  0.00000000000E+00 0.  1.
    9000005    2    1    2  501    0  0.11601970485E+02 -0.27908287127E+02 -0.67828260452E+03  0.67896744180E+03  0.40021505679E+01 0.  0.
         13    1    3    3    0    0  0.10356247269E+02 -0.26733181523E+02 -0.62474353163E+03  0.62540098750E+03  0.00000000000E+00 0.  1.
          1    1    3    3  501    0  0.12457232164E+01 -0.11751056041E+01 -0.53539072890E+02  0.53566454292E+02  0.00000000000E+00 0.  1.
         -3    1    1    2    0  502 -0.11601970485E+02  0.27908287127E+02 -0.32066437530E+03  0.32208557838E+03  0.00000000000E+00 0. -1.
<mgrwt>
<rscale>  1 0.30000000E+03</rscale>
<asrwt>0</asrwt>
<pdfrwt beam="1">  1       21 0.38291723E-02 0.30000000E+03</pdfrwt>
<pdfrwt beam="2">0</pdfrwt>
<totfact> 0.45250808E+04</totfact>
</mgrwt>
</event>
<event>
 6    1  0.1280499E-001  0.3000000E+03  0.7818608E-02  0.1093470E+00
         21   -1    0    0  501  502  0.00000000000E+00  0.00000000000E+00  0.12997788219E+02  0.12997788219E+02  0.00000000000E+00 0. -1.
         13   -1    0    0    0    0 -0.00000000000E+00 -0.00000000000E+00 -0.10000000000E+04  0.10000000000E+04  0.00000000000E+00 0.  1.
    9000005    2    1    2  501    0 -0.54212723833E+02 -0.24793706448E+01 -0.93891943646E+03  0.94049178856E+03  0.31511079243E+01 0.  0.
         13    1    3    3    0    0 -0.46470961313E+02 -0.31405549566E+01 -0.79706784978E+03  0.79842756120E+03  0.00000000000E+00 0.  1.
          1    1    3    3  501    0 -0.77417625204E+01  0.66118431179E+00 -0.14185158668E+03  0.14206422736E+03  0.00000000000E+00 0.  1.
         -3    1    1    2    0  502  0.54212723833E+02  0.24793706448E+01 -0.48082775322E+02  0.72505999661E+02  0.00000000000E+00 0. -1.
<mgrwt>
<rscale>  1 0.30000000E+03</rscale>
<asrwt>0</asrwt>
<pdfrwt beam="1">  1       21 0.47264784E-01 0.30000000E+03</pdfrwt>
<pdfrwt beam="2">0</pdfrwt>
<totfact> 0.42417670E+02</totfact>
</mgrwt>
</event>
<event>
 6    1  0.1280499E-001  0.3000000E+03  0.7818608E-02  0.1093470E+00
         21   -1    0    0  501  502  0.00000000000E+00  0.00000000000E+00  0.20804345111E+01  0.20804345111E+01  0.00000000000E+00 0. -1.
         13   -1    0    0    0    0 -0.00000000000E+00 -0.00000000000E+00 -0.10000000000E+04  0.10000000000E+04  0.00000000000E+00 0.  1.
    9000005    2    1    2  501    0  0.17910072137E+02  0.36432967425E+02 -0.72671599749E+03  0.72785514922E+03  0.29741274877E+01 0.  0.
         13    1    3    3    0    0  0.17087989474E+02  0.35553868607E+02 -0.71076462719E+03  0.71185843552E+03  0.00000000000E+00 0.  1.
          1    1    3    3  501    0  0.82208266236E+00  0.87909881798E+00 -0.15951370306E+02  0.15996713702E+02  0.00000000000E+00 0.  1.
         -3    1    1    2    0  502 -0.17910072137E+02 -0.36432967425E+02 -0.27120356799E+03  0.27422528529E+03  0.00000000000E+00 0. -1.
<mgrwt>
<rscale>  1 0.30000000E+03</rscale>
<asrwt>0</asrwt>
<pdfrwt beam="1">  1       21 0.75652324E-02 0.30000000E+03</pdfrwt>
<pdfrwt beam="2">0</pdfrwt>
<totfact> 0.14089166E+04</totfact>
</mgrwt>
</event>
<event>
 6    1  0.1280499E-001  0.3000000E+03  0.7818608E-02  0.1093470E+00
         21   -1    0    0  501  502  0.00000000000E+00  0.00000000000E+00  0.13341903908E+01  0.13341903908E+01  0.00000000000E+00 0. -1.
         13   -1    0    0    0    0 -0.00000000000E+00 -0.00000000000E+00 -0.10000000000E+04  0.10000000000E+04  0.00000000000E+00 0.  1.
    9000005    2    1    2  501    0 -0.32839580548E+02  0.15267940118E+02 -0.46988861025E+03  0.47131827119E+03  0.58359803892E+01 0.  0.
         13    1    3    3    0    0 -0.25276742653E+02  0.13888288973E+02 -0.38747867586E+03  0.38855054051E+03  0.00000000000E+00 0.  1.
          1    1    3    3  501    0 -0.75628378955E+01  0.13796511452E+01 -0.82409934392E+02  0.82767730673E+02  0.00000000000E+00 0.  1.
         -1    1    1    2    0  502  0.32839580548E+02 -0.15267940118E+02 -0.52877719936E+03  0.53001591921E+03  0.00000000000E+00 0. -1.
<mgrwt>
<rscale>  1 0.30000000E+03</rscale>
<asrwt>0</asrwt>
<pdfrwt beam="1">  1       21 0.48516117E-02 0.30000000E+03</pdfrwt>
<pdfrwt beam="2">0</pdfrwt>
<totfact> 0.30321553E+04</totfact>
</mgrwt>
</event>
<event>
 6    1  0.1280499E-001  0.3000000E+03  0.7818608E-02  0.1093470E+00
         21   -1    0    0  501  502  0.00000000000E+00  0.00000000000E+00  0.13531306968E+01  0.13531306968E+01  0.00000000000E+00 0. -1.
         13   -1    0    0    0    0 -0.00000000000E+00 -0.00000000000E+00 -0.10000000000E+04  0.10000000000E+04  0.00000000000E+00 0.  1.
    9000005    2    1    2  501    0  0.19473394587E+02  0.24400938636E+02 -0.76338785246E+03  0.76403177913E+03  0.29878646604E+01 0.  0.
         13    1    3    3    0    0  0.61360605744E+01  0.95098523331E+01 -0.25494054907E+03  0.25519163797E+03  0.00000000000E+00 0.  1.
          1    1    3    3  501    0  0.13337334013E+02  0.14891086303E+02 -0.50844730339E+03  0.50884014116E+03  0.00000000000E+00 0.  1.
         -1    1    1    2    0  502 -0.19473394587E+02 -0.24400938636E+02 -0.23525901684E+03  0.23732135157E+03  0.00000000000E+00 0. -1.
<mgrwt>
<rscale>  1 0.30000000E+03</rscale>
<asrwt>0</asrwt>
<pdfrwt beam="1">  1       21 0.49204856E-02 0.30000000E+03</pdfrwt>
<pdfrwt beam="2">0</pdfrwt>
<totfact> 0.29602368E+04</totfact>
</mgrwt>
</event>
<event>
 6    1  0.1280499E-001  0.3000000E+03  0.7818608E-02  0.1093470E+00
         21   -1    0    0  501  502  0.00000000000E+00  0.00000000000E+00  0.10494168952E+02  0.10494168952E+02  0.00000000000E+00 0. -1.
         13   -1    0    0    0    0 -0.00000000000E+00 -0.00000000000E+00 -0.10000000000E+04  0.10000000000E+04  0.00000000000E+00 0.  1.
    9000005    2    1    2  501    0 -0.63929097762E+02 -0.24526777986E+02 -0.87050620979E+03  0.87320104371E+03  0.32417707576E+01 0.  0.
         13    1    3    3    0    0 -0.22138453031E+02 -0.75263899382E+01 -0.28151169977E+03  0.28248114053E+03  0.00000000000E+00 0.  1.
          1    1    3    3  501    0 -0.41790644730E+02 -0.17000388048E+02 -0.58899451001E+03  0.59071990318E+03  0.00000000000E+00 0.  1.
         -3    1    1    2    0  502  0.63929097762E+02  0.24526777986E+02 -0.11899962126E+03  0.13729312524E+03  0.00000000000E+00 0. -1.
<mgrwt>
<rscale>  1 0.30000000E+03</rscale>
<asrwt>0</asrwt>
<pdfrwt beam="1">  1       21 0.38160695E-01 0.30000000E+03</pdfrwt>
<pdfrwt beam="2">0</pdfrwt>
<totfact> 0.66611850E+02</totfact>
</mgrwt>
</event>
<event>
 6    1  0.1280499E-001  0.3000000E+03  0.7818608E-02  0.1093470E+00
         21   -1    0    0  501  502  0.00000000000E+00  0.00000000000E+00  0.21728576733E+01  0.21728576733E+01  0.00000000000E+00 0. -1.
         13   -1    0    0    0    0 -0.00000000000E+00 -0.00000000000E+00 -0.10000000000E+04  0.10000000000E+04  0.00000000000E+00 0.  1.
    9000005    2    1    2  501    0 -0.36270135546E+02 -0.10619273197E+02 -0.78948231636E+03  0.79042806269E+03  0.81180506119E+01 0.  0.
         13    1    3    3    0    0 -0.28027125634E+02 -0.50386897497E+01 -0.54550444092E+03  0.54624719974E+03  0.00000000000E+00 0.  1.
          1    1    3    3  501    0 -0.82430099121E+01 -0.55805834475E+01 -0.24397787544E+03  0.24418086295E+03  0.00000000000E+00 0.  1.
         -1    1    1    2    0  502  0.36270135546E+02  0.10619273197E+02 -0.20834482596E+03  0.21174479498E+03  0.00000000000E+00 0. -1.
<mgrwt>
<rscale>  1 0.30000000E+03</rscale>
<asrwt>0</asrwt>
<pdfrwt beam="1">  1       21 0.79013173E-02 0.30000000E+03</pdfrwt>
<pdfrwt beam="2">0</pdfrwt>
<totfact> 0.13055314E+04</totfact>
</mgrwt>
</event>
<event>
 6    1  0.1280499E-001  0.3000000E+03  0.7818608E-02  0.1093470E+00
         21   -1    0    0  501  502  0.00000000000E+00  0.00000000000E+00  0.23403591044E+01  0.23403591044E+01  0.00000000000E+00 0. -1.
         13   -1    0    0    0    0 -0.00000000000E+00 -0.00000000000E+00 -0.10000000000E+04  0.10000000000E+04  0.00000000000E+00 0.  1.
    9000005    2    1    2  501    0  0.36578604067E+02  0.28450737971E+01 -0.82518278292E+03  0.82600444314E+03  0.32597770131E+01 0.  0.
         13    1    3    3    0    0  0.22453701999E+02  0.81990302953E+00 -0.47520709931E+03  0.47573798273E+03  0.00000000000E+00 0.  1.
          3    1    3    3  501    0  0.14124902068E+02  0.20251707675E+01 -0.34997568360E+03  0.35026646041E+03  0.00000000000E+00 0.  1.
         -1    1    1    2    0  502 -0.36578604067E+02 -0.28450737971E+01 -0.17247685798E+03  0.17633591596E+03  0.00000000000E+00 0. -1.
<mgrwt>
<rscale>  1 0.30000000E+03</rscale>
<asrwt>0</asrwt>
<pdfrwt beam="1">  1       21 0.85104147E-02 0.30000000E+03</pdfrwt>
<pdfrwt beam="2">0</pdfrwt>
<totfact> 0.11456496E+04</totfact>
</mgrwt>
</event>
<event>
 6    1  0.1280499E-001  0.3000000E+03  0.7818608E-02  0.1093470E+00
         21   -1    0    0  501  502  0.00000000000E+00  0.00000000000E+00  0.28206347749E+01  0.28206347749E+01  0.00000000000E+00 0. -1.
         13   -1    0    0    0    0 -0.00000000000E+00 -0.00000000000E+00 -0.10000000000E+04  0.10000000000E+04  0.00000000000E+00 0.  1.
    9000005    2    1    2  501    0  0.50098383232E+02  0.15844150489E+02 -0.43472464192E+03  0.43791692539E+03  0.49833868415E+01 0.  0.
         13    1    3    3    0    0  0.40439464699E+02  0.12886250591E+02 -0.33363930768E+03  0.33632810378E+03  0.00000000000E+00 0.  1.
          3    1    3    3  501    0  0.96589185335E+01  0.29578998983E+01 -0.10108533424E+03  0.10158882162E+03  0.00000000000E+00 0.  1.
         -1    1    1    2    0  502 -0.50098383232E+02 -0.15844150489E+02 -0.56245472330E+03  0.56490370938E+03  0.00000000000E+00 0. -1.
<mgrwt>
<rscale>  1 0.30000000E+03</rscale>
<asrwt>0</asrwt>
<pdfrwt beam="1">  1       21 0.10256875E-01 0.30000000E+03</pdfrwt>
<pdfrwt beam="2">0</pdfrwt>
<totfact> 0.82217146E+03</totfact>
</mgrwt>
</event>
<event>
 6    1  0.1280499E-001  0.3000000E+03  0.7818608E-02  0.1093470E+00
         21   -1    0    0  501  502  0.00000000000E+00  0.00000000000E+00  0.35571900129E+01  0.35571900129E+01  0.00000000000E+00 0. -1.
         13   -1    0    0    0    0 -0.00000000000E+00 -0.00000000000E+00 -0.10000000000E+04  0.10000000000E+04  0.00000000000E+00 0.  1.
    9000005    2    1    2  501    0 -0.40300993983E+02  0.29230291462E+02 -0.77424094483E+03  0.77584630109E+03  0.31404152837E+01 0.  0.
         13    1    3    3    0    0 -0.30406503681E+02  0.23668700144E+02 -0.59576610531E+03  0.59701090029E+03  0.00000000000E+00 0.  1.
          3    1    3    3  501    0 -0.98944903012E+01  0.55615913183E+01 -0.17847483952E+03  0.17883540080E+03  0.00000000000E+00 0.  1.
         -3    1    1    2    0  502  0.40300993983E+02 -0.29230291462E+02 -0.22220186516E+03  0.22771088892E+03  0.00000000000E+00 0. -1.
<mgrwt>
<rscale>  1 0.30000000E+03</rscale>
<asrwt>0</asrwt>
<pdfrwt beam="1">  1       21 0.12935264E-01 0.30000000E+03</pdfrwt>
<pdfrwt beam="2">0</pdfrwt>
<totfact> 0.54055710E+03</totfact>
</mgrwt>
</event>
<event>
 6    1  0.1280499E-001  0.3000000E+03  0.7818608E-02  0.1093470E+00
         21   -1    0    0  501  502  0.00000000000E+00  0.00000000000E+00  0.23828704926E+01  0.23828704926E+01  0.00000000000E+00 0. -1.
         13   -1    0    0    0    0 -0.00000000000E+00 -0.00000000000E+00 -0.10000000000E+04  0.10000000000E+04  0.00000000000E+00 0.  1.
    9000005    2    1    2  501    0 -0.57369287947E+01 -0.32726341370E+02 -0.86571533913E+03  0.86636078377E+03  0.37461285201E+01 0.  0.
         13    1    3    3    0    0 -0.35991778086E+01 -0.22620841643E+02 -0.55070297778E+03  0.55117912360E+03  0.00000000000E+00 0.  1.
          3    1    3    3  501    0 -0.21377509861E+01 -0.10105499727E+02 -0.31501236136E+03  0.31518166017E+03  0.00000000000E+00 0.  1.
         -3    1    1    2    0  502  0.57369287947E+01  0.32726341370E+02 -0.13190179037E+03  0.13602208672E+03  0.00000000000E+00 0. -1.
<mgrwt>
<rscale>  1 0.30000000E+03</rscale>
<asrwt>0</asrwt>
<pdfrwt beam="1">  1       21 0.86650019E-02 0.30000000E+03</pdfrwt>
<pdfrwt beam="2">0</pdfrwt>
<totfact> 0.11098270E+04</totfact>
</mgrwt>
</event>
<event>
 6    1  0.1280499E-001  0.3000000E+03  0.7818608E-02  0.1093470E+00
         21   -1    0    0  501  502  0.00000000000E+00  0.00000000000E+00  0.26234475736E+01  0.26234475736E+01  0.00000000000E+00 0. -1.
         13   -1    0    0    0    0 -0.00000000000E+00 -0.00000000000E+00 -0.10000000000E+04  0.10000000000E+04  0.00000000000E+00 0.  1.
    9000005    2    1    2  501    0 -0.26213955356E+02 -0.37317262980E+02 -0.72629358250E+03  0.72773123932E+03  0.32617690048E+01 0.  0.
         13    1    3    3    0    0 -0.18188583245E+02 -0.27784439967E+02 -0.54308477951E+03  0.54409914299E+03  0.00000000000E+00 0.  1.
          1    1    3    3  501    0 -0.80253721109E+01 -0.95328230130E+01 -0.18320880299E+03  0.18363209634E+03  0.00000000000E+00 0.  1.
         -1    1    1    2    0  502  0.26213955356E+02  0.37317262980E+02 -0.27108296993E+03  0.27489220825E+03  0.00000000000E+00 0. -1.
<mgrwt>
<rscale>  1 0.30000000E+03</rscale>
<asrwt>0</asrwt>
<pdfrwt beam="1">  1       21 0.95398295E-02 0.30000000E+03</pdfrwt>
<pdfrwt beam="2">0</pdfrwt>
<totfact> 0.93577051E+03</totfact>
</mgrwt>
</event>
<event>
 6    1  0.1280499E-001  0.3000000E+03  0.7818608E-02  0.1093470E+00
         21   -1    0    0  501  502  0.00000000000E+00  0.00000000000E+00  0.18879616583E+01  0.18879616583E+01  0.00000000000E+00 0. -1.
         13   -1    0    0    0    0 -0.00000000000E+00 -0.00000000000E+00 -0.10000000000E+04  0.10000000000E+04  0.00000000000E+00 0.  1.
    9000005    2    1    2  501    0 -0.40000393174E+02 -0.12410817138E+02 -0.63045621611E+03  0.63185436392E+03  0.32919498511E+01 0.  0.
         13    1    3    3    0    0 -0.19230700389E+01  0.15256719148E-01 -0.34677380409E+02  0.34730665746E+02  0.00000000000E+00 0.  1.
          1    1    3    3  501    0 -0.38077323135E+02 -0.12426073857E+02 -0.59577883570E+03  0.59712369817E+03  0.00000000000E+00 0.  1.
         -1    1    1    2    0  502  0.40000393174E+02  0.12410817138E+02 -0.36765582223E+03  0.37003359774E+03  0.00000000000E+00 0. -1.
<mgrwt>
<rscale>  1 0.30000000E+03</rscale>
<asrwt>0</asrwt>
<pdfrwt beam="1">  1       21 0.68653296E-02 0.30000000E+03</pdfrwt>
<pdfrwt beam="2">0</pdfrwt>
<totfact> 0.16689681E+04</totfact>
</mgrwt>
</event>
<event>
 6    1  0.1280499E-001  0.3000000E+03  0.7818608E-02  0.1093470E+00
         21   -1    0    0  501  502  0.00000000000E+00  0.00000000000E+00  0.92005860730E+00  0.92005860730E+00  0.00000000000E+00 0. -1.
         13   -1    0    0    0    0 -0.00000000000E+00 -0.00000000000E+00 -0.10000000000E+04  0.10000000000E+04  0.00000000000E+00 0.  1.
    9000005    2    1    2  501    0  0.29814648348E+02  0.44742392251E+01 -0.47014691921E+03  0.47112852033E+03  0.38762036594E+01 0.  0.
         13    1    3    3    0    0  0.13298568126E+02  0.31828743846E+01 -0.18909231609E+03  0.18958609287E+03  0.00000000000E+00 0.  1.
          3    1    3    3  501    0  0.16516080222E+02  0.12913648406E+01 -0.28105460311E+03  0.28154242746E+03  0.00000000000E+00 0.  1.
         -1    1    1    2    0  502 -0.29814648348E+02 -0.44742392251E+01 -0.52893302219E+03  0.52979153828E+03  0.00000000000E+00 0. -1.
<mgrwt>
<rscale>  1 0.30000000E+03</rscale>
<asrwt>0</asrwt>
<pdfrwt beam="1">  1       21 0.33456747E-02 0.30000000E+03</pdfrwt>
<pdfrwt beam="2">0</pdfrwt>
<totfact> 0.56737052E+04</totfact>
</mgrwt>
</event>
<event>
 6    1  0.1280499E-001  0.3000000E+03  0.7818608E-02  0.1093470E+00
         21   -1    0    0  501  502  0.00000000000E+00  0.00000000000E+00  0.12504316165E+01  0.12504316165E+01  0.00000000000E+00 0. -1.
         13   -1    0    0    0    0 -0.00000000000E+00 -0.00000000000E+00 -0.10000000000E+04  0.10000000000E+04  0.00000000000E+00 0.  1.
    9000005    2    1    2  501    0 -0.28109008068E+02  0.20131688148E+02 -0.60065634513E+03  0.60165862039E+03  0.31063382779E+01 0.  0.
         13    1    3    3    0    0 -0.85560104025E+01  0.46994881923E+01 -0.15599237236E+03  0.15629750713E+03  0.00000000000E+00 0.  1.
          1    1    3    3  501    0 -0.19552997666E+02  0.15432199955E+02 -0.44466397278E+03  0.44536111325E+03  0.00000000000E+00 0.  1.
         -1    1    1    2    0  502  0.28109008068E+02 -0.20131688148E+02 -0.39809322325E+03  0.39959181123E+03  0.00000000000E+00 0. -1.
<mgrwt>
<rscale>  1 0.30000000E+03</rscale>
<asrwt>0</asrwt>
<pdfrwt beam="1">  1       21 0.45470336E-02 0.30000000E+03</pdfrwt>
<pdfrwt beam="2">0</pdfrwt>
<totfact> 0.33855293E+04</totfact>
</mgrwt>
</event>
<event>
 6    1  0.1280499E-001  0.3000000E+03  0.7818608E-02  0.1093470E+00
         21   -1    0    0  501  502  0.00000000000E+00  0.00000000000E+00  0.18029804948E+01  0.18029804948E+01  0.00000000000E+00 0. -1.
         13   -1    0    0    0    0 -0.00000000000E+00 -0.00000000000E+00 -0.10000000000E+04  0.10000000000E+04  0.00000000000E+00 0.  1.
    9000005    2    1    2  501    0  0.29926937157E+02  0.18918988322E+02 -0.77482232376E+03  0.77563975540E+03  0.37211652705E+01 0.  0.
         13    1    3    3    0    0  0.64078004751E+01  0.44619518068E+01 -0.14025227323E+03  0.14046945955E+03  0.00000000000E+00 0.  1.
          3    1    3    3  501    0  0.23519136682E+02  0.14457036516E+02 -0.63457005053E+03  0.63517029585E+03  0.00000000000E+00 0.  1.
         -3    1    1    2    0  502 -0.29926937157E+02 -0.18918988322E+02 -0.22337469575E+03  0.22616322510E+03  0.00000000000E+00 0. -1.
<mgrwt>
<rscale>  1 0.30000000E+03</rscale>
<asrwt>0</asrwt>
<pdfrwt beam="1">  1       21 0.65563065E-02 0.30000000E+03</pdfrwt>
<pdfrwt beam="2">0</pdfrwt>
<totfact> 0.18077978E+04</totfact>
</mgrwt>
</event>
<event>
 6    1  0.1280499E-001  0.3000000E+03  0.7818608E-02  0.1093470E+00
         21   -1    0    0  501  502  0.00000000000E+00  0.00000000000E+00  0.24692865365E+01  0.24692865365E+01  0.00000000000E+00 0. -1.
         13   -1    0    0    0    0 -0.00000000000E+00 -0.00000000000E+00 -0.10000000000E+04  0.10000000000E+04  0.00000000000E+00 0.  1.
    9000005    2    1    2  501    0 -0.28959740255E+02  0.33621894133E+02 -0.72372325593E+03  0.72508936274E+03  0.31834688170E+01 0.  0.
         13    1    3    3    0    0 -0.99402377770E+01  0.96891212266E+01 -0.24002433723E+03  0.24042539354E+03  0.00000000000E+00 0.  1.
          1    1    3    3  501    0 -0.19019502478E+02  0.23932772906E+02 -0.48369891870E+03  0.48466396920E+03  0.00000000000E+00 0.  1.
         -3    1    1    2    0  502  0.28959740255E+02 -0.33621894133E+02 -0.27380745754E+03  0.27737992379E+03  0.00000000000E+00 0. -1.
<mgrwt>
<rscale>  1 0.30000000E+03</rscale>
<asrwt>0</asrwt>
<pdfrwt beam="1">  1       21 0.89792427E-02 0.30000000E+03</pdfrwt>
<pdfrwt beam="2">0</pdfrwt>
<totfact> 0.10420627E+04</totfact>
</mgrwt>
</event>
<event>
 6    1  0.1280499E-001  0.3000000E+03  0.7818608E-02  0.1093470E+00
         21   -1    0    0  501  502  0.00000000000E+00  0.00000000000E+00  0.96219174706E+00  0.96219174706E+00  0.00000000000E+00 0. -1.
         13   -1    0    0    0    0 -0.00000000000E+00 -0.00000000000E+00 -0.10000000000E+04  0.10000000000E+04  0.00000000000E+00 0.  1.
    9000005    2    1    2  501    0  0.28790721721E+02  0.10118874133E+02 -0.57019953367E+03  0.57103945099E+03  0.52200690608E+01 0.  0.
         13    1    3    3    0    0  0.19532707923E+02  0.63576695938E+01 -0.33651157489E+03  0.33713793420E+03  0.00000000000E+00 0.  1.
          3    1    3    3  501    0  0.92580137985E+01  0.37612045389E+01 -0.23368795877E+03  0.23390151679E+03  0.00000000000E+00 0.  1.
         -1    1    1    2    0  502 -0.28790721721E+02 -0.10118874133E+02 -0.42883827459E+03  0.42992274076E+03  0.00000000000E+00 0. -1.
<mgrwt>
<rscale>  1 0.30000000E+03</rscale>
<asrwt>0</asrwt>
<pdfrwt beam="1">  1       21 0.34988865E-02 0.30000000E+03</pdfrwt>
<pdfrwt beam="2">0</pdfrwt>
<totfact> 0.52644850E+04</totfact>
</mgrwt>
</event>
<event>
 6    1  0.1280499E-001  0.3000000E+03  0.7818608E-02  0.1093470E+00
         21   -1    0    0  501  502  0.00000000000E+00  0.00000000000E+00  0.94794016394E+00  0.94794016394E+00  0.00000000000E+00 0. -1.
         13   -1    0    0    0    0 -0.00000000000E+00 -0.00000000000E+00 -0.10000000000E+04  0.10000000000E+04  0.00000000000E+00 0.  1.
    9000005    2    1    2  501    0 -0.30601736263E+02  0.20433533025E+01 -0.52452160087E+03  0.52542738536E+03  0.32227242189E+01 0.  0.
         13    1    3    3    0    0 -0.16351510633E+02  0.44006131874E+00 -0.30439253088E+03  0.30483172147E+03  0.00000000000E+00 0.  1.
          1    1    3    3  501    0 -0.14250225630E+02  0.16032919837E+01 -0.22012906998E+03  0.22059566389E+03  0.00000000000E+00 0.  1.
         -1    1    1    2    0  502  0.30601736263E+02 -0.20433533025E+01 -0.47453045897E+03  0.47552055481E+03  0.00000000000E+00 0. -1.
<mgrwt>
<rscale>  1 0.30000000E+03</rscale>
<asrwt>0</asrwt>
<pdfrwt beam="1">  1       21 0.34470624E-02 0.30000000E+03</pdfrwt>
<pdfrwt beam="2">0</pdfrwt>
<totfact> 0.53976109E+04</totfact>
</mgrwt>
</event>
<event>
 6    1  0.1280499E-001  0.3000000E+03  0.7818608E-02  0.1093470E+00
         21   -1    0    0  501  502  0.00000000000E+00  0.00000000000E+00  0.10780798632E+01  0.10780798632E+01  0.00000000000E+00 0. -1.
         13   -1    0    0    0    0 -0.00000000000E+00 -0.00000000000E+00 -0.10000000000E+04  0.10000000000E+04  0.00000000000E+00 0.  1.
    9000005    2    1    2  501    0  0.15388147909E+02 -0.28855365152E+02 -0.52527162421E+03  0.52630020546E+03  0.34928312023E+01 0.  0.
         13    1    3    3    0    0  0.60225297205E+01 -0.11601001530E+02 -0.18324659487E+03  0.18371218966E+03  0.00000000000E+00 0.  1.
          1    1    3    3  501    0  0.93656181885E+01 -0.17254363622E+02 -0.34202502934E+03  0.34258801579E+03  0.00000000000E+00 0.  1.
         -1    1    1    2    0  502 -0.15388147909E+02  0.28855365152E+02 -0.47365029593E+03  0.47477787441E+03  0.00000000000E+00 0. -1.
<mgrwt>
<rscale>  1 0.30000000E+03</rscale>
<asrwt>0</asrwt>
<pdfrwt beam="1">  1       21 0.39202987E-02 0.30000000E+03</pdfrwt>
<pdfrwt beam="2">0</pdfrwt>
<totfact> 0.43496163E+04</totfact>
</mgrwt>
</event>
<event>
 6    1  0.1280499E-001  0.3000000E+03  0.7818608E-02  0.1093470E+00
         21   -1    0    0  501  502  0.00000000000E+00  0.00000000000E+00  0.36591649870E+01  0.36591649870E+01  0.00000000000E+00 0. -1.
         13   -1    0    0    0    0 -0.00000000000E+00 -0.00000000000E+00 -0.10000000000E+04  0.10000000000E+04  0.00000000000E+00 0.  1.
    9000005    2    1    2  501    0 -0.35025784440E+02 -0.48095158380E+02 -0.57332673127E+03  0.57648135446E+03  0.93413823351E+01 0.  0.
         13    1    3    3    0    0 -0.23077176840E+02 -0.23885829385E+02 -0.32287372048E+03  0.32457746119E+03  0.00000000000E+00 0.  1.
          1    1    3    3  501    0 -0.11948607600E+02 -0.24209328995E+02 -0.25045301079E+03  0.25190389327E+03  0.00000000000E+00 0.  1.
         -1    1    1    2    0  502  0.35025784440E+02  0.48095158380E+02 -0.42301410375E+03  0.42717781052E+03  0.00000000000E+00 0. -1.
<mgrwt>
<rscale>  1 0.30000000E+03</rscale>
<asrwt>0</asrwt>
<pdfrwt beam="1">  1       21 0.13306083E-01 0.30000000E+03</pdfrwt>
<pdfrwt beam="2">0</pdfrwt>
<totfact> 0.51334653E+03</totfact>
</mgrwt>
</event>
<event>
 6    1  0.1280499E-001  0.3000000E+03  0.7818608E-02  0.1093470E+00
         21   -1    0    0  501  502  0.00000000000E+00  0.00000000000E+00  0.12074824386E+01  0.12074824386E+01  0.00000000000E+00 0. -1.
         13   -1    0    0    0    0 -0.00000000000E+00 -0.00000000000E+00 -0.10000000000E+04  0.10000000000E+04  0.00000000000E+00 0.  1.
    9000005    2    1    2  501    0 -0.45637271038E+01  0.29828947692E+02 -0.74678160799E+03  0.74739634740E+03  0.28171532459E+01 0.  0.
         13    1    3    3    0    0 -0.16532149857E+00  0.70142833662E+01 -0.19317137921E+03  0.19329875646E+03  0.00000000000E+00 0.  1.
          1    1    3    3  501    0 -0.43984056052E+01  0.22814664326E+02 -0.55361022878E+03  0.55409759095E+03  0.00000000000E+00 0.  1.
         -1    1    1    2    0  502  0.45637271038E+01 -0.29828947692E+02 -0.25201090957E+03  0.25381113503E+03  0.00000000000E+00 0. -1.
<mgrwt>
<rscale>  1 0.30000000E+03</rscale>
<asrwt>0</asrwt>
<pdfrwt beam="1">  1       21 0.43908545E-02 0.30000000E+03</pdfrwt>
<pdfrwt beam="2">0</pdfrwt>
<totfact> 0.35922786E+04</totfact>
</mgrwt>
</event>
<event>
 6    1  0.1280499E-001  0.3000000E+03  0.7818608E-02  0.1093470E+00
         21   -1    0    0  501  502  0.00000000000E+00  0.00000000000E+00  0.27461187151E+01  0.27461187151E+01  0.00000000000E+00 0. -1.
         13   -1    0    0    0    0 -0.00000000000E+00 -0.00000000000E+00 -0.10000000000E+04  0.10000000000E+04  0.00000000000E+00 0.  1.
    9000005    2    1    2  501    0 -0.24450882987E+02  0.24285207575E+02 -0.87583993847E+03  0.87653612507E+03  0.56889146431E+01 0.  0.
         13    1    3    3    0    0 -0.52610487872E+01  0.25641443944E+01 -0.12486839702E+03  0.12500548006E+03  0.00000000000E+00 0.  1.
          1    1    3    3  501    0 -0.19189834200E+02  0.21721063181E+02 -0.75097154145E+03  0.75153064501E+03  0.00000000000E+00 0.  1.
         -1    1    1    2    0  502  0.24450882987E+02 -0.24285207575E+02 -0.12141394282E+03  0.12620999365E+03  0.00000000000E+00 0. -1.
<mgrwt>
<rscale>  1 0.30000000E+03</rscale>
<asrwt>0</asrwt>
<pdfrwt beam="1">  1       21 0.99859073E-02 0.30000000E+03</pdfrwt>
<pdfrwt beam="2">0</pdfrwt>
<totfact> 0.86249034E+03</totfact>
</mgrwt>
</event>
<event>
 6    1  0.1280499E-001  0.3000000E+03  0.7818608E-02  0.1093470E+00
         21   -1    0    0  501  502  0.00000000000E+00  0.00000000000E+00  0.11567832440E+01  0.11567832440E+01  0.00000000000E+00 0. -1.
         13   -1    0    0    0    0 -0.00000000000E+00 -0.00000000000E+00 -0.10000000000E+04  0.10000000000E+04  0.00000000000E+00 0.  1.
    9000005    2    1    2  501    0 -0.27657420095E+02 -0.12992889894E+02 -0.71746394017E+03  0.71812313618E+03  0.35475638454E+01 0.  0.
         13    1    3    3    0    0 -0.15068905280E+02 -0.78049910232E+01 -0.35943159010E+03  0.35983198545E+03  0.00000000000E+00 0.  1.
          3    1    3    3  501    0 -0.12588514816E+02 -0.51878988706E+01 -0.35803235007E+03  0.35829115074E+03  0.00000000000E+00 0.  1.
         -1    1    1    2    0  502  0.27657420095E+02  0.12992889894E+02 -0.28137927659E+03  0.28303364706E+03  0.00000000000E+00 0. -1.
<mgrwt>
<rscale>  1 0.30000000E+03</rscale>
<asrwt>0</asrwt>
<pdfrwt beam="1">  1       21 0.42064934E-02 0.30000000E+03</pdfrwt>
<pdfrwt beam="2">0</pdfrwt>
<totfact> 0.38625559E+04</totfact>
</mgrwt>
</event>
<event>
 6    1  0.1280499E-001  0.3000000E+03  0.7818608E-02  0.1093470E+00
         21   -1    0    0  501  502  0.00000000000E+00  0.00000000000E+00  0.11505727637E+01  0.11505727637E+01  0.00000000000E+00 0. -1.
         13   -1    0    0    0    0 -0.00000000000E+00 -0.00000000000E+00 -0.10000000000E+04  0.10000000000E+04  0.00000000000E+00 0.  1.
    9000005    2    1    2  501    0  0.15064302609E+02 -0.29032844675E+02 -0.62973436264E+03  0.63058914709E+03  0.27323358682E+01 0.  0.
         13    1    3    3    0    0  0.20782432312E+00 -0.11864751598E+01 -0.17136778745E+02  0.17179059928E+02  0.00000000000E+00 0.  1.
          3    1    3    3  501    0  0.14856478286E+02 -0.27846369515E+02 -0.61259758389E+03  0.61341008717E+03  0.00000000000E+00 0.  1.
         -1    1    1    2    0  502 -0.15064302609E+02  0.29032844675E+02 -0.36911506460E+03  0.37056142567E+03  0.00000000000E+00 0. -1.
<mgrwt>
<rscale>  1 0.30000000E+03</rscale>
<asrwt>0</asrwt>
<pdfrwt beam="1">  1       21 0.41839098E-02 0.30000000E+03</pdfrwt>
<pdfrwt beam="2">0</pdfrwt>
<totfact> 0.38978253E+04</totfact>
</mgrwt>
</event>
<event>
 6    1  0.1280499E-001  0.3000000E+03  0.7818608E-02  0.1093470E+00
         21   -1    0    0  501  502  0.00000000000E+00  0.00000000000E+00  0.20800506027E+01  0.20800506027E+01  0.00000000000E+00 0. -1.
         13   -1    0    0    0    0 -0.00000000000E+00 -0.00000000000E+00 -0.10000000000E+04  0.10000000000E+04  0.00000000000E+00 0.  1.
    9000005    2    1    2  501    0 -0.62068320778E+01 -0.38469140267E+02 -0.24222221558E+03  0.24537834953E+03  0.45313549623E+01 0.  0.
         13    1    3    3    0    0 -0.11355711925E+00 -0.12427694365E+02 -0.83087871980E+02  0.84012230970E+02  0.00000000000E+00 0.  1.
          3    1    3    3  501    0 -0.60932749586E+01 -0.26041445902E+02 -0.15913434360E+03  0.16136611856E+03  0.00000000000E+00 0.  1.
         -3    1    1    2    0  502  0.62068320778E+01  0.38469140267E+02 -0.75569773382E+03  0.75670170108E+03  0.00000000000E+00 0. -1.
<mgrwt>
<rscale>  1 0.30000000E+03</rscale>
<asrwt>0</asrwt>
<pdfrwt beam="1">  1       21 0.75638363E-02 0.30000000E+03</pdfrwt>
<pdfrwt beam="2">0</pdfrwt>
<totfact> 0.14093721E+04</totfact>
</mgrwt>
</event>
<event>
 6    1  0.1280499E-001  0.3000000E+03  0.7818608E-02  0.1093470E+00
         21   -1    0    0  501  502  0.00000000000E+00  0.00000000000E+00  0.37638550877E+01  0.37638550877E+01  0.00000000000E+00 0. -1.
         13   -1    0    0    0    0 -0.00000000000E+00 -0.00000000000E+00 -0.10000000000E+04  0.10000000000E+04  0.00000000000E+00 0.  1.
    9000005    2    1    2  501    0  0.20850153834E+02 -0.39726539827E+02 -0.84031585654E+03  0.84151693460E+03  0.26618761673E+01 0.  0.
         13    1    3    3    0    0  0.13379852758E+02 -0.24699431893E+02 -0.50260122456E+03  0.50338561096E+03  0.00000000000E+00 0.  1.
          1    1    3    3  501    0  0.74703010761E+01 -0.15027107934E+02 -0.33771463199E+03  0.33813132364E+03  0.00000000000E+00 0.  1.
         -3    1    1    2    0  502 -0.20850153834E+02  0.39726539827E+02 -0.15592028837E+03  0.16224692048E+03  0.00000000000E+00 0. -1.
<mgrwt>
<rscale>  1 0.30000000E+03</rscale>
<asrwt>0</asrwt>
<pdfrwt beam="1">  1       21 0.13686775E-01 0.30000000E+03</pdfrwt>
<pdfrwt beam="2">0</pdfrwt>
<totfact> 0.48749938E+03</totfact>
</mgrwt>
</event>
<event>
 6    1  0.1280499E-001  0.3000000E+03  0.7818608E-02  0.1093470E+00
         21   -1    0    0  501  502  0.00000000000E+00  0.00000000000E+00  0.13819279309E+01  0.13819279309E+01  0.00000000000E+00 0. -1.
         13   -1    0    0    0    0 -0.00000000000E+00 -0.00000000000E+00 -0.10000000000E+04  0.10000000000E+04  0.00000000000E+00 0.  1.
    9000005    2    1    2  501    0  0.25443323929E+02 -0.26252434759E+02 -0.58510196349E+03  0.58625288159E+03  0.34030026269E+01 0.  0.
         13    1    3    3    0    0  0.12665598345E+02 -0.14334549121E+02 -0.28249143597E+03  0.28313831969E+03  0.00000000000E+00 0.  1.
          1    1    3    3  501    0  0.12777725584E+02 -0.11917885639E+02 -0.30261052752E+03  0.30311456190E+03  0.00000000000E+00 0.  1.
         -3    1    1    2    0  502 -0.25443323929E+02  0.26252434759E+02 -0.41351610858E+03  0.41512904634E+03  0.00000000000E+00 0. -1.
<mgrwt>
<rscale>  1 0.30000000E+03</rscale>
<asrwt>0</asrwt>
<pdfrwt beam="1">  1       21 0.50252031E-02 0.30000000E+03</pdfrwt>
<pdfrwt beam="2">0</pdfrwt>
<totfact> 0.28558787E+04</totfact>
</mgrwt>
</event>
<event>
 6    1  0.1280499E-001  0.3000000E+03  0.7818608E-02  0.1093470E+00
         21   -1    0    0  501  502  0.00000000000E+00  0.00000000000E+00  0.24210733216E+02  0.24210733216E+02  0.00000000000E+00 0. -1.
         13   -1    0    0    0    0 -0.00000000000E+00 -0.00000000000E+00 -0.10000000000E+04  0.10000000000E+04  0.00000000000E+00 0.  1.
    9000005    2    1    2  501    0  0.35600532684E+02 -0.39812831763E+02 -0.96887427720E+03  0.97035651721E+03  0.46846536400E+01 0.  0.
         13    1    3    3    0    0  0.60816290226E+01 -0.94399529614E+01 -0.21655341845E+03  0.21684437269E+03  0.00000000000E+00 0.  1.
          3    1    3    3  501    0  0.29518903661E+02 -0.30372878801E+02 -0.75232085875E+03  0.75351214452E+03  0.00000000000E+00 0.  1.
         -1    1    1    2    0  502 -0.35600532684E+02  0.39812831763E+02 -0.69149895847E+01  0.53854216003E+02  0.00000000000E+00 0. -1.
<mgrwt>
<rscale>  1 0.30000000E+03</rscale>
<asrwt>0</asrwt>
<pdfrwt beam="1">  1       21 0.88039216E-01 0.30000000E+03</pdfrwt>
<pdfrwt beam="2">0</pdfrwt>
<totfact> 0.10170286E+02</totfact>
</mgrwt>
</event>
<event>
 6    1  0.1280499E-001  0.3000000E+03  0.7818608E-02  0.1093470E+00
         21   -1    0    0  501  502  0.00000000000E+00  0.00000000000E+00  0.22564400932E+01  0.22564400932E+01  0.00000000000E+00 0. -1.
         13   -1    0    0    0    0 -0.00000000000E+00 -0.00000000000E+00 -0.10000000000E+04  0.10000000000E+04  0.00000000000E+00 0.  1.
    9000005    2    1    2  501    0 -0.12704934219E+02 -0.34863945831E+02 -0.81154704017E+03  0.81239845623E+03  0.23965000946E+01 0.  0.
         13    1    3    3    0    0 -0.54358891975E+01 -0.16431582637E+02 -0.40200091037E+03  0.40237330644E+03  0.00000000000E+00 0.  1.
          3    1    3    3  501    0 -0.72690450217E+01 -0.18432363194E+02 -0.40954612980E+03  0.41002514980E+03  0.00000000000E+00 0.  1.
         -3    1    1    2    0  502  0.12704934219E+02  0.34863945831E+02 -0.18619651974E+03  0.18985798386E+03  0.00000000000E+00 0. -1.
<mgrwt>
<rscale>  1 0.30000000E+03</rscale>
<asrwt>0</asrwt>
<pdfrwt beam="1">  1       21 0.82052540E-02 0.30000000E+03</pdfrwt>
<pdfrwt beam="2">0</pdfrwt>
<totfact> 0.12217529E+04</totfact>
</mgrwt>
</event>
<event>
 6    1  0.1280499E-001  0.3000000E+03  0.7818608E-02  0.1093470E+00
         21   -1    0    0  501  502  0.00000000000E+00  0.00000000000E+00  0.17978206310E+01  0.17978206310E+01  0.00000000000E+00 0. -1.
         13   -1    0    0    0    0 -0.00000000000E+00 -0.00000000000E+00 -0.10000000000E+04  0.10000000000E+04  0.00000000000E+00 0.  1.
    9000005    2    1    2  501    0 -0.33391684150E+02 -0.34055715419E+00 -0.80705257459E+03  0.80775325885E+03  0.40433255148E+01 0.  0.
         13    1    3    3    0    0 -0.48930333786E+00  0.51162017363E+00 -0.20951732497E+02  0.20963689265E+02  0.00000000000E+00 0.  1.
          3    1    3    3  501    0 -0.32902380812E+02 -0.85217732782E+00 -0.78610084209E+03  0.78678956958E+03  0.00000000000E+00 0.  1.
         -3    1    1    2    0  502  0.33391684150E+02  0.34055715419E+00 -0.19114960478E+03  0.19404456178E+03  0.00000000000E+00 0. -1.
<mgrwt>
<rscale>  1 0.30000000E+03</rscale>
<asrwt>0</asrwt>
<pdfrwt beam="1">  1       21 0.65375434E-02 0.30000000E+03</pdfrwt>
<pdfrwt beam="2">0</pdfrwt>
<totfact> 0.18167944E+04</totfact>
</mgrwt>
</event>
<event>
 6    1  0.1280499E-001  0.3000000E+03  0.7818608E-02  0.1093470E+00
         21   -1    0    0  501  502  0.00000000000E+00  0.00000000000E+00  0.12170371807E+01  0.12170371807E+01  0.00000000000E+00 0. -1.
         13   -1    0    0    0    0 -0.00000000000E+00 -0.00000000000E+00 -0.10000000000E+04  0.10000000000E+04  0.00000000000E+00 0.  1.
    9000005    2    1    2  501    0 -0.33783465154E+02  0.44098172617E+01 -0.54606072738E+03  0.54721462367E+03  0.10037797214E+02 0.  0.
         13    1    3    3    0    0 -0.31874465669E+02  0.31810491219E+01 -0.53271138957E+03  0.53367361300E+03  0.00000000000E+00 0.  1.
          1    1    3    3  501    0 -0.19089994854E+01  0.12287681398E+01 -0.13349337810E+02  0.13541010676E+02  0.00000000000E+00 0.  1.
         -3    1    1    2    0  502  0.33783465154E+02 -0.44098172617E+01 -0.45272223544E+03  0.45400241351E+03  0.00000000000E+00 0. -1.
<mgrwt>
<rscale>  1 0.30000000E+03</rscale>
<asrwt>0</asrwt>
<pdfrwt beam="1">  1       21 0.44255991E-02 0.30000000E+03</pdfrwt>
<pdfrwt beam="2">0</pdfrwt>
<totfact> 0.35446285E+04</totfact>
</mgrwt>
</event>
<event>
 6    1  0.1280499E-001  0.3000000E+03  0.7818608E-02  0.1093470E+00
         21   -1    0    0  501  502  0.00000000000E+00  0.00000000000E+00  0.32101429594E+01  0.32101429594E+01  0.00000000000E+00 0. -1.
         13   -1    0    0    0    0 -0.00000000000E+00 -0.00000000000E+00 -0.10000000000E+04  0.10000000000E+04  0.00000000000E+00 0.  1.
    9000005    2    1    2  501    0 -0.19642530949E+02  0.38046821871E+02 -0.82657387010E+03  0.82769127820E+03  0.38858201879E+01 0.  0.
         13    1    3    3    0    0 -0.16556220320E+02  0.32594936882E+02 -0.72946440694E+03  0.73037994177E+03  0.00000000000E+00 0.  1.
          3    1    3    3  501    0 -0.30863106291E+01  0.54518849886E+01 -0.97109463156E+02  0.97311336430E+02  0.00000000000E+00 0.  1.
         -1    1    1    2    0  502  0.19642530949E+02 -0.38046821871E+02 -0.17021598694E+03  0.17551886476E+03  0.00000000000E+00 0. -1.
<mgrwt>
<rscale>  1 0.30000000E+03</rscale>
<asrwt>0</asrwt>
<pdfrwt beam="1">  1       21 0.11673272E-01 0.30000000E+03</pdfrwt>
<pdfrwt beam="2">0</pdfrwt>
<totfact> 0.65150013E+03</totfact>
</mgrwt>
</event>
<event>
 6    1  0.1280499E-001  0.3000000E+03  0.7818608E-02  0.1093470E+00
         21   -1    0    0  501  502  0.00000000000E+00  0.00000000000E+00  0.12086718032E+01  0.12086718032E+01  0.00000000000E+00 0. -1.
         13   -1    0    0    0    0 -0.00000000000E+00 -0.00000000000E+00 -0.10000000000E+04  0.10000000000E+04  0.00000000000E+00 0.  1.
    9000005    2    1    2  501    0  0.25113027761E+02  0.17370485369E+02 -0.26327279800E+03  0.26505657734E+03  0.31662433858E+01 0.  0.
         13    1    3    3    0    0  0.51045923242E+01  0.35464522679E+01 -0.65459424089E+02  0.65753862157E+02  0.00000000000E+00 0.  1.
          1    1    3    3  501    0  0.20008435436E+02  0.13824033101E+02 -0.19781337391E+03  0.19930271518E+03  0.00000000000E+00 0.  1.
         -3    1    1    2    0  502 -0.25113027761E+02 -0.17370485369E+02 -0.73551853020E+03  0.73615209447E+03  0.00000000000E+00 0. -1.
<mgrwt>
<rscale>  1 0.30000000E+03</rscale>
<asrwt>0</asrwt>
<pdfrwt beam="1">  1       21 0.43951795E-02 0.30000000E+03</pdfrwt>
<pdfrwt beam="2">0</pdfrwt>
<totfact> 0.35862933E+04</totfact>
</mgrwt>
</event>
<event>
 6    1  0.1280499E-001  0.3000000E+03  0.7818608E-02  0.1093470E+00
         21   -1    0    0  501  502  0.00000000000E+00  0.00000000000E+00  0.16372867716E+01  0.16372867716E+01  0.00000000000E+00 0. -1.
         13   -1    0    0    0    0 -0.00000000000E+00 -0.00000000000E+00 -0.10000000000E+04  0.10000000000E+04  0.00000000000E+00 0.  1.
    9000005    2    1    2  501    0  0.17624382621E+02 -0.31848508864E+02 -0.71649825114E+03  0.71743221755E+03  0.37810740050E+01 0.  0.
         13    1    3    3    0    0  0.14005107676E+02 -0.21816534471E+02 -0.50180021834E+03  0.50246946509E+03  0.00000000000E+00 0.  1.
          3    1    3    3  501    0  0.36192749456E+01 -0.10031974392E+02 -0.21469803279E+03  0.21496275246E+03  0.00000000000E+00 0.  1.
         -3    1    1    2    0  502 -0.17624382621E+02  0.31848508864E+02 -0.28186446209E+03  0.28420506922E+03  0.00000000000E+00 0. -1.
<mgrwt>
<rscale>  1 0.30000000E+03</rscale>
<asrwt>0</asrwt>
<pdfrwt beam="1">  1       21 0.59537826E-02 0.30000000E+03</pdfrwt>
<pdfrwt beam="2">0</pdfrwt>
<totfact> 0.21354520E+04</totfact>
</mgrwt>
</event>
<event>
 6    1  0.1280499E-001  0.3000000E+03  0.7818608E-02  0.1093470E+00
         21   -1    0    0  501  502  0.00000000000E+00  0.00000000000E+00  0.16632199857E+01  0.16632199857E+01  0.00000000000E+00 0. -1.
         13   -1    0    0    0    0 -0.00000000000E+00 -0.00000000000E+00 -0.10000000000E+04  0.10000000000E+04  0.00000000000E+00 0.  1.
    9000005    2    1    2  501    0  0.18148139254E+02  0.24080707594E+02 -0.83350078006E+03  0.83409191481E+03  0.87485174746E+01 0.  0.
         13    1    3    3    0    0  0.29132945129E+01  0.10586543238E+02 -0.26697635250E+03  0.26720204898E+03  0.00000000000E+00 0.  1.
          3    1    3    3  501    0  0.15234844741E+02  0.13494164355E+02 -0.56652442755E+03  0.56688986583E+03  0.00000000000E+00 0.  1.
         -3    1    1    2    0  502 -0.18148139254E+02 -0.24080707594E+02 -0.16483599996E+03  0.16757130518E+03  0.00000000000E+00 0. -1.
<mgrwt>
<rscale>  1 0.30000000E+03</rscale>
<asrwt>0</asrwt>
<pdfrwt beam="1">  1       21 0.60480854E-02 0.30000000E+03</pdfrwt>
<pdfrwt beam="2">0</pdfrwt>
<totfact> 0.20783522E+04</totfact>
</mgrwt>
</event>
<event>
 6    1  0.1280499E-001  0.3000000E+03  0.7818608E-02  0.1093470E+00
         21   -1    0    0  501  502  0.00000000000E+00  0.00000000000E+00  0.40375932545E+01  0.40375932545E+01  0.00000000000E+00 0. -1.
         13   -1    0    0    0    0 -0.00000000000E+00 -0.00000000000E+00 -0.10000000000E+04  0.10000000000E+04  0.00000000000E+00 0.  1.
    9000005    2    1    2  501    0 -0.46212358300E+01  0.35558142183E+02 -0.91237166832E+03  0.91308074169E+03  0.29397952101E+01 0.  0.
         13    1    3    3    0    0 -0.31623126428E+01  0.18196686847E+02 -0.43799948679E+03  0.43838872027E+03  0.00000000000E+00 0.  1.
          1    1    3    3  501    0 -0.14589231872E+01  0.17361455336E+02 -0.47437218153E+03  0.47469202141E+03  0.00000000000E+00 0.  1.
         -3    1    1    2    0  502  0.46212358300E+01 -0.35558142183E+02 -0.83590738430E+02  0.90956851569E+02  0.00000000000E+00 0. -1.
<mgrwt>
<rscale>  1 0.30000000E+03</rscale>
<asrwt>0</asrwt>
<pdfrwt beam="1">  1       21 0.14682188E-01 0.30000000E+03</pdfrwt>
<pdfrwt beam="2">0</pdfrwt>
<totfact> 0.42843285E+03</totfact>
</mgrwt>
</event>
<event>
 6    1  0.1280499E-001  0.3000000E+03  0.7818608E-02  0.1093470E+00
         21   -1    0    0  501  502  0.00000000000E+00  0.00000000000E+00  0.17523433827E+01  0.17523433827E+01  0.00000000000E+00 0. -1.
         13   -1    0    0    0    0 -0.00000000000E+00 -0.00000000000E+00 -0.10000000000E+04  0.10000000000E+04  0.00000000000E+00 0.  1.
    9000005    2    1    2  501    0  0.39993876539E+02 -0.13127857974E+01 -0.35560795871E+03  0.35786802544E+03  0.33570473216E+01 0.  0.
         13    1    3    3    0    0  0.19585066718E+02 -0.22562093968E+01 -0.17048789358E+03  0.17162397029E+03  0.00000000000E+00 0.  1.
          1    1    3    3  501    0  0.20408809821E+02  0.94342359935E+00 -0.18512006513E+03  0.18624405515E+03  0.00000000000E+00 0.  1.
         -3    1    1    2    0  502 -0.39993876539E+02  0.13127857974E+01 -0.64263969791E+03  0.64388431795E+03  0.00000000000E+00 0. -1.
<mgrwt>
<rscale>  1 0.30000000E+03</rscale>
<asrwt>0</asrwt>
<pdfrwt beam="1">  1       21 0.63721712E-02 0.30000000E+03</pdfrwt>
<pdfrwt beam="2">0</pdfrwt>
<totfact> 0.18991687E+04</totfact>
</mgrwt>
</event>
<event>
 6    1  0.1280499E-001  0.3000000E+03  0.7818608E-02  0.1093470E+00
         21   -1    0    0  501  502  0.00000000000E+00  0.00000000000E+00  0.38867715252E+01  0.38867715252E+01  0.00000000000E+00 0. -1.
         13   -1    0    0    0    0 -0.00000000000E+00 -0.00000000000E+00 -0.10000000000E+04  0.10000000000E+04  0.00000000000E+00 0.  1.
    9000005    2    1    2  501    0  0.74074296372E+01  0.36624083747E+02 -0.89977007840E+03  0.90055141411E+03  0.32344957184E+01 0.  0.
         13    1    3    3    0    0  0.62051737795E+01  0.34592557438E+02 -0.84363623186E+03  0.84436795351E+03  0.00000000000E+00 0.  1.
          1    1    3    3  501    0  0.12022558576E+01  0.20315263089E+01 -0.56133846539E+02  0.56183460605E+02  0.00000000000E+00 0.  1.
         -3    1    1    2    0  502 -0.74074296372E+01 -0.36624083747E+02 -0.96343150079E+02  0.10333535741E+03  0.00000000000E+00 0. -1.
<mgrwt>
<rscale>  1 0.30000000E+03</rscale>
<asrwt>0</asrwt>
<pdfrwt beam="1">  1       21 0.14133744E-01 0.30000000E+03</pdfrwt>
<pdfrwt beam="2">0</pdfrwt>
<totfact> 0.45956526E+03</totfact>
</mgrwt>
</event>
<event>
 6    1  0.1280499E-001  0.3000000E+03  0.7818608E-02  0.1093470E+00
         21   -1    0    0  501  502  0.00000000000E+00  0.00000000000E+00  0.21132611139E+01  0.21132611139E+01  0.00000000000E+00 0. -1.
         13   -1    0    0    0    0 -0.00000000000E+00 -0.00000000000E+00 -0.10000000000E+04  0.10000000000E+04  0.00000000000E+00 0.  1.
    9000005    2    1    2  501    0  0.64886877592E+01 -0.40918536116E+02 -0.71536454690E+03  0.71656953656E+03  0.30060105753E+01 0.  0.
         13    1    3    3    0    0  0.66804237306E+01 -0.40230876104E+02 -0.69803861760E+03  0.69922890609E+03  0.00000000000E+00 0.  1.
          1    1    3    3  501    0 -0.19173597143E+00 -0.68766001167E+00 -0.17325929299E+02  0.17340630469E+02  0.00000000000E+00 0.  1.
         -1    1    1    2    0  502 -0.64886877592E+01  0.40918536116E+02 -0.28252219199E+03  0.28554372456E+03  0.00000000000E+00 0. -1.
<mgrwt>
<rscale>  1 0.30000000E+03</rscale>
<asrwt>0</asrwt>
<pdfrwt beam="1">  1       21 0.76846021E-02 0.30000000E+03</pdfrwt>
<pdfrwt beam="2">0</pdfrwt>
<totfact> 0.13707942E+04</totfact>
</mgrwt>
</event>
<event>
 6    1  0.1280499E-001  0.3000000E+03  0.7818608E-02  0.1093470E+00
         21   -1    0    0  501  502  0.00000000000E+00  0.00000000000E+00  0.10966557523E+01  0.10966557523E+01  0.00000000000E+00 0. -1.
         13   -1    0    0    0    0 -0.00000000000E+00 -0.00000000000E+00 -0.10000000000E+04  0.10000000000E+04  0.00000000000E+00 0.  1.
    9000005    2    1    2  501    0 -0.41054013580E+01 -0.32721413250E+02 -0.53285940669E+03  0.53388739114E+03  0.30089723858E+01 0.  0.
         13    1    3    3    0    0 -0.74345643217E+00 -0.18443604100E+01 -0.24890692801E+02  0.24970001620E+02  0.00000000000E+00 0.  1.
          3    1    3    3  501    0 -0.33619449259E+01 -0.30877052840E+02 -0.50796871389E+03  0.50891738952E+03  0.00000000000E+00 0.  1.
         -3    1    1    2    0  502  0.41054013580E+01  0.32721413250E+02 -0.46604393756E+03  0.46720926461E+03  0.00000000000E+00 0. -1.
<mgrwt>
<rscale>  1 0.30000000E+03</rscale>
<asrwt>0</asrwt>
<pdfrwt beam="1">  1       21 0.39878475E-02 0.30000000E+03</pdfrwt>
<pdfrwt beam="2">0</pdfrwt>
<totfact> 0.42263314E+04</totfact>
</mgrwt>
</event>
<event>
 6    1  0.1280499E-001  0.3000000E+03  0.7818608E-02  0.1093470E+00
         21   -1    0    0  501  502  0.00000000000E+00  0.00000000000E+00  0.20623395370E+01  0.20623395370E+01  0.00000000000E+00 0. -1.
         13   -1    0    0    0    0 -0.00000000000E+00 -0.00000000000E+00 -0.10000000000E+04  0.10000000000E+04  0.00000000000E+00 0.  1.
    9000005    2    1    2  501    0 -0.29361566040E+01 -0.45211136261E+02 -0.47815263469E+03  0.48030651458E+03  0.34260808940E+01 0.  0.
         13    1    3    3    0    0  0.51784486666E+00 -0.12150705610E+02 -0.12006198063E+03  0.12067637301E+03  0.00000000000E+00 0.  1.
          3    1    3    3  501    0 -0.34540014706E+01 -0.33060430651E+02 -0.35809065407E+03  0.35963014158E+03  0.00000000000E+00 0.  1.
         -3    1    1    2    0  502  0.29361566040E+01  0.45211136261E+02 -0.51978502577E+03  0.52175582495E+03  0.00000000000E+00 0. -1.
<mgrwt>
<rscale>  1 0.30000000E+03</rscale>
<asrwt>0</asrwt>
<pdfrwt beam="1">  1       21 0.74994323E-02 0.30000000E+03</pdfrwt>
<pdfrwt beam="2">0</pdfrwt>
<totfact> 0.14306359E+04</totfact>
</mgrwt>
</event>
<event>
 6    1  0.1280499E-001  0.3000000E+03  0.7818608E-02  0.1093470E+00
         21   -1    0    0  501  502  0.00000000000E+00  0.00000000000E+00  0.64410464912E+01  0.64410464912E+01  0.00000000000E+00 0. -1.
         13   -1    0    0    0    0 -0.00000000000E+00 -0.00000000000E+00 -0.10000000000E+04  0.10000000000E+04  0.00000000000E+00 0.  1.
    9000005    2    1    2  501    0  0.28307956218E+02 -0.36848917856E+02 -0.90702486482E+03  0.90822021551E+03  0.32667012729E+01 0.  0.
         13    1    3    3    0    0  0.17062169412E+02 -0.20054497979E+02 -0.49456566800E+03  0.49526609058E+03  0.00000000000E+00 0.  1.
          3    1    3    3  501    0  0.11245786806E+02 -0.16794419877E+02 -0.41245919682E+03  0.41295412493E+03  0.00000000000E+00 0.  1.
         -3    1    1    2    0  502 -0.28307956218E+02  0.36848917856E+02 -0.86534088692E+02  0.98220830978E+02  0.00000000000E+00 0. -1.
<mgrwt>
<rscale>  1 0.30000000E+03</rscale>
<asrwt>0</asrwt>
<pdfrwt beam="1">  1       21 0.23422037E-01 0.30000000E+03</pdfrwt>
<pdfrwt beam="2">0</pdfrwt>
<totfact> 0.17707961E+03</totfact>
</mgrwt>
</event>
<event>
 6    1  0.1280499E-001  0.3000000E+03  0.7818608E-02  0.1093470E+00
         21   -1    0    0  501  502  0.00000000000E+00  0.00000000000E+00  0.23611058021E+01  0.23611058021E+01  0.00000000000E+00 0. -1.
         13   -1    0    0    0    0 -0.00000000000E+00 -0.00000000000E+00 -0.10000000000E+04  0.10000000000E+04  0.00000000000E+00 0.  1.
    9000005    2    1    2  501    0  0.42701328684E+01 -0.33225799518E+02 -0.86161922993E+03  0.86227707082E+03  0.34440811506E+01 0.  0.
         13    1    3    3    0    0  0.13243334739E+01 -0.34785357741E+01 -0.80320647136E+02  0.80406843157E+02  0.00000000000E+00 0.  1.
          1    1    3    3  501    0  0.29457993945E+01 -0.29747263744E+02 -0.78129858279E+03  0.78187022766E+03  0.00000000000E+00 0.  1.
         -3    1    1    2    0  502 -0.42701328684E+01  0.33225799518E+02 -0.13601966427E+03  0.14008403498E+03  0.00000000000E+00 0. -1.
<mgrwt>
<rscale>  1 0.30000000E+03</rscale>
<asrwt>0</asrwt>
<pdfrwt beam="1">  1       21 0.85858574E-02 0.30000000E+03</pdfrwt>
<pdfrwt beam="2">0</pdfrwt>
<totfact> 0.11279506E+04</totfact>
</mgrwt>
</event>
<event>
 6    1  0.1280499E-001  0.3000000E+03  0.7818608E-02  0.1093470E+00
         21   -1    0    0  501  502  0.00000000000E+00  0.00000000000E+00  0.22285203624E+01  0.22285203624E+01  0.00000000000E+00 0. -1.
         13   -1    0    0    0    0 -0.00000000000E+00 -0.00000000000E+00 -0.10000000000E+04  0.10000000000E+04  0.00000000000E+00 0.  1.
    9000005    2    1    2  501    0 -0.14893501385E+02 -0.36810173681E+02 -0.76806065347E+03  0.76911080561E+03  0.61203461231E+01 0.  0.
         13    1    3    3    0    0 -0.80391999340E+01 -0.13246399190E+02 -0.32940110170E+03  0.32976534328E+03  0.00000000000E+00 0.  1.
          3    1    3    3  501    0 -0.68543014507E+01 -0.23563774491E+02 -0.43865955177E+03  0.43934546234E+03  0.00000000000E+00 0.  1.
         -3    1    1    2    0  502  0.14893501385E+02  0.36810173681E+02 -0.22971082617E+03  0.23311771475E+03  0.00000000000E+00 0. -1.
<mgrwt>
<rscale>  1 0.30000000E+03</rscale>
<asrwt>0</asrwt>
<pdfrwt beam="1">  1       21 0.81037275E-02 0.30000000E+03</pdfrwt>
<pdfrwt beam="2">0</pdfrwt>
<totfact> 0.12487965E+04</totfact>
</mgrwt>
</event>
<event>
 6    1  0.1280499E-001  0.3000000E+03  0.7818608E-02  0.1093470E+00
         21   -1    0    0  501  502  0.00000000000E+00  0.00000000000E+00  0.10704949140E+01  0.10704949140E+01  0.00000000000E+00 0. -1.
         13   -1    0    0    0    0 -0.00000000000E+00 -0.00000000000E+00 -0.10000000000E+04  0.10000000000E+04  0.00000000000E+00 0.  1.
    9000005    2    1    2  501    0  0.20745248064E+02  0.24211157935E+02 -0.39145535812E+03  0.39276022480E+03  0.25983271012E+01 0.  0.
         13    1    3    3    0    0  0.60636951670E+01  0.53902270852E+01 -0.10262003975E+03  0.10294025212E+03  0.00000000000E+00 0.  1.
          1    1    3    3  501    0  0.14681552897E+02  0.18820930850E+02 -0.28883531836E+03  0.28981997269E+03  0.00000000000E+00 0.  1.
         -3    1    1    2    0  502 -0.20745248064E+02 -0.24211157935E+02 -0.60747414697E+03  0.60831027011E+03  0.00000000000E+00 0. -1.
<mgrwt>
<rscale>  1 0.30000000E+03</rscale>
<asrwt>0</asrwt>
<pdfrwt beam="1">  1       21 0.38927170E-02 0.30000000E+03</pdfrwt>
<pdfrwt beam="2">0</pdfrwt>
<totfact> 0.44015829E+04</totfact>
</mgrwt>
</event>
<event>
 6    1  0.1280499E-001  0.3000000E+03  0.7818608E-02  0.1093470E+00
         21   -1    0    0  501  502  0.00000000000E+00  0.00000000000E+00  0.26779250945E+01  0.26779250945E+01  0.00000000000E+00 0. -1.
         13   -1    0    0    0    0 -0.00000000000E+00 -0.00000000000E+00 -0.10000000000E+04  0.10000000000E+04  0.00000000000E+00 0.  1.
    9000005    2    1    2  501    0  0.13337245654E+02 -0.43378255550E+02 -0.73890948829E+03  0.74031058700E+03  0.36025222764E+01 0.  0.
         13    1    3    3    0    0  0.62078721989E+01 -0.14377455598E+02 -0.25272216719E+03  0.25320691676E+03  0.00000000000E+00 0.  1.
          1    1    3    3  501    0  0.71293734550E+01 -0.29000799952E+02 -0.48618732110E+03  0.48710367024E+03  0.00000000000E+00 0.  1.
         -1    1    1    2    0  502 -0.13337245654E+02  0.43378255550E+02 -0.25841258662E+03  0.26236733809E+03  0.00000000000E+00 0. -1.
<mgrwt>
<rscale>  1 0.30000000E+03</rscale>
<asrwt>0</asrwt>
<pdfrwt beam="1">  1       21 0.97379300E-02 0.30000000E+03</pdfrwt>
<pdfrwt beam="2">0</pdfrwt>
<totfact> 0.90209526E+03</totfact>
</mgrwt>
</event>
<event>
 6    1  0.1280499E-001  0.3000000E+03  0.7818608E-02  0.1093470E+00
         21   -1    0    0  501  502  0.00000000000E+00  0.00000000000E+00  0.31159166009E+01  0.31159166009E+01  0.00000000000E+00 0. -1.
         13   -1    0    0    0    0 -0.00000000000E+00 -0.00000000000E+00 -0.10000000000E+04  0.10000000000E+04  0.00000000000E+00 0.  1.
    9000005    2    1    2  501    0  0.91727437077E+01 -0.41908964696E+02 -0.17883508531E+03  0.18394275797E+03  0.35284447340E+01 0.  0.
         13    1    3    3    0    0  0.19884766086E+01 -0.16898298354E+02 -0.72547062102E+02  0.74515654369E+02  0.00000000000E+00 0.  1.
          3    1    3    3  501    0  0.71842670991E+01 -0.25010666342E+02 -0.10628802321E+03  0.10942710360E+03  0.00000000000E+00 0.  1.
         -3    1    1    2    0  502 -0.91727437077E+01  0.41908964696E+02 -0.81804899809E+03  0.81917315863E+03  0.00000000000E+00 0. -1.
<mgrwt>
<rscale>  1 0.30000000E+03</rscale>
<asrwt>0</asrwt>
<pdfrwt beam="1">  1       21 0.11330630E-01 0.30000000E+03</pdfrwt>
<pdfrwt beam="2">0</pdfrwt>
<totfact> 0.68752647E+03</totfact>
</mgrwt>
</event>
<event>
 6    1  0.1280499E-001  0.3000000E+03  0.7818608E-02  0.1093470E+00
         21   -1    0    0  501  502  0.00000000000E+00  0.00000000000E+00  0.34855235832E+01  0.34855235832E+01  0.00000000000E+00 0. -1.
         13   -1    0    0    0    0 -0.00000000000E+00 -0.00000000000E+00 -0.10000000000E+04  0.10000000000E+04  0.00000000000E+00 0.  1.
    9000005    2    1    2  501    0  0.41557868094E+02 -0.41300717156E+02 -0.49130784797E+03  0.49489281516E+03  0.10133675473E+02 0.  0.
         13    1    3    3    0    0  0.93966879740E+01 -0.62440401578E+01 -0.12509744167E+03  0.12560515792E+03  0.00000000000E+00 0.  1.
          1    1    3    3  501    0  0.32161180120E+02 -0.35056676998E+02 -0.36621040630E+03  0.36928765724E+03  0.00000000000E+00 0.  1.
         -1    1    1    2    0  502 -0.41557868094E+02  0.41300717156E+02 -0.50520662845E+03  0.50859270843E+03  0.00000000000E+00 0. -1.
<mgrwt>
<rscale>  1 0.30000000E+03</rscale>
<asrwt>0</asrwt>
<pdfrwt beam="1">  1       21 0.12674658E-01 0.30000000E+03</pdfrwt>
<pdfrwt beam="2">0</pdfrwt>
<totfact> 0.56100398E+03</totfact>
</mgrwt>
</event>
<event>
 6    1  0.1280499E-001  0.3000000E+03  0.7818608E-02  0.1093470E+00
         21   -1    0    0  501  502  0.00000000000E+00  0.00000000000E+00  0.21725866087E+01  0.21725866087E+01  0.00000000000E+00 0. -1.
         13   -1    0    0    0    0 -0.00000000000E+00 -0.00000000000E+00 -0.10000000000E+04  0.10000000000E+04  0.00000000000E+00 0.  1.
    9000005    2    1    2  501    0 -0.43789317460E+02  0.12023804603E+01 -0.66786170421E+03  0.66931177595E+03  0.44774347024E+01 0.  0.
         13    1    3    3    0    0 -0.33249120917E+02 -0.91973320835E+00 -0.51333329662E+03  0.51440978156E+03  0.00000000000E+00 0.  1.
          1    1    3    3  501    0 -0.10540196542E+02  0.21221136686E+01 -0.15452840759E+03  0.15490199438E+03  0.00000000000E+00 0.  1.
         -3    1    1    2    0  502  0.43789317460E+02 -0.12023804603E+01 -0.32996570918E+03  0.33286081066E+03  0.00000000000E+00 0. -1.
<mgrwt>
<rscale>  1 0.30000000E+03</rscale>
<asrwt>0</asrwt>
<pdfrwt beam="1">  1       21 0.79003316E-02 0.30000000E+03</pdfrwt>
<pdfrwt beam="2">0</pdfrwt>
<totfact> 0.13058174E+04</totfact>
</mgrwt>
</event>
<event>
 6    1  0.1280499E-001  0.3000000E+03  0.7818608E-02  0.1093470E+00
         21   -1    0    0  501  502  0.00000000000E+00  0.00000000000E+00  0.14949631965E+01  0.14949631965E+01  0.00000000000E+00 0. -1.
         13   -1    0    0    0    0 -0.00000000000E+00 -0.00000000000E+00 -0.10000000000E+04  0.10000000000E+04  0.00000000000E+00 0.  1.
    9000005    2    1    2  501    0 -0.29328117104E+02  0.11329681200E+02 -0.78924484994E+03  0.78988606467E+03  0.49052906202E+01 0.  0.
         13    1    3    3    0    0 -0.26388967014E+02  0.11051304973E+02 -0.68048223903E+03  0.68108339178E+03  0.00000000000E+00 0.  1.
          3    1    3    3  501    0 -0.29391500898E+01  0.27837622703E+00 -0.10876261091E+03  0.10880267290E+03  0.00000000000E+00 0.  1.
         -1    1    1    2    0  502  0.29328117104E+02 -0.11329681200E+02 -0.20926018686E+03  0.21160889852E+03  0.00000000000E+00 0. -1.
<mgrwt>
<rscale>  1 0.30000000E+03</rscale>
<asrwt>0</asrwt>
<pdfrwt beam="1">  1       21 0.54362413E-02 0.30000000E+03</pdfrwt>
<pdfrwt beam="2">0</pdfrwt>
<totfact> 0.24968185E+04</totfact>
</mgrwt>
</event>
<event>
 6    1  0.1280499E-001  0.3000000E+03  0.7818608E-02  0.1093470E+00
         21   -1    0    0  501  502  0.00000000000E+00  0.00000000000E+00  0.36341107073E+01  0.36341107073E+01  0.00000000000E+00 0. -1.
         13   -1    0    0    0    0 -0.00000000000E+00 -0.00000000000E+00 -0.10000000000E+04  0.10000000000E+04  0.00000000000E+00 0.  1.
    9000005    2    1    2  501    0  0.20100838727E+02  0.28410474020E+02 -0.90785000253E+03  0.90852227674E+03  0.31466623550E+01 0.  0.
         13    1    3    3    0    0  0.35601514151E+01  0.73177354412E+01 -0.20775030337E+03  0.20790962575E+03  0.00000000000E+00 0.  1.
          3    1    3    3  501    0  0.16540687312E+02  0.21092738579E+02 -0.70009969916E+03  0.70061265099E+03  0.00000000000E+00 0.  1.
         -1    1    1    2    0  502 -0.20100838727E+02 -0.28410474020E+02 -0.88515886761E+02  0.95111833968E+02  0.00000000000E+00 0. -1.
<mgrwt>
<rscale>  1 0.30000000E+03</rscale>
<asrwt>0</asrwt>
<pdfrwt beam="1">  1       21 0.13214976E-01 0.30000000E+03</pdfrwt>
<pdfrwt beam="2">0</pdfrwt>
<totfact> 0.51983750E+03</totfact>
</mgrwt>
</event>
<event>
 6    1  0.1280499E-001  0.3000000E+03  0.7818608E-02  0.1093470E+00
         21   -1    0    0  501  502  0.00000000000E+00  0.00000000000E+00  0.97887332786E+00  0.97887332786E+00  0.00000000000E+00 0. -1.
         13   -1    0    0    0    0 -0.00000000000E+00 -0.00000000000E+00 -0.10000000000E+04  0.10000000000E+04  0.00000000000E+00 0.  1.
    9000005    2    1    2  501    0  0.24433801561E+01  0.31020772468E+02 -0.46621848876E+03  0.46726836248E+03  0.34329105984E+01 0.  0.
         13    1    3    3    0    0  0.59392828496E+00  0.12356287325E+02 -0.16139712851E+03  0.16187051516E+03  0.00000000000E+00 0.  1.
          1    1    3    3  501    0  0.18494518711E+01  0.18664485144E+02 -0.30482136025E+03  0.30539784732E+03  0.00000000000E+00 0.  1.
         -3    1    1    2    0  502 -0.24433801561E+01 -0.31020772468E+02 -0.53280263791E+03  0.53371051085E+03  0.00000000000E+00 0. -1.
<mgrwt>
<rscale>  1 0.30000000E+03</rscale>
<asrwt>0</asrwt>
<pdfrwt beam="1">  1       21 0.35595469E-02 0.30000000E+03</pdfrwt>
<pdfrwt beam="2">0</pdfrwt>
<totfact> 0.51150351E+04</totfact>
</mgrwt>
</event>
<event>
 6    1  0.1280499E-001  0.3000000E+03  0.7818608E-02  0.1093470E+00
         21   -1    0    0  501  502  0.00000000000E+00  0.00000000000E+00  0.14989228210E+01  0.14989228210E+01  0.00000000000E+00 0. -1.
         13   -1    0    0    0    0 -0.00000000000E+00 -0.00000000000E+00 -0.10000000000E+04  0.10000000000E+04  0.00000000000E+00 0.  1.
    9000005    2    1    2  501    0 -0.33076291378E+02  0.91355269203E+01 -0.72994362762E+03  0.73075808250E+03  0.34895178011E+01 0.  0.
         13    1    3    3    0    0 -0.26055505380E+02  0.83552240586E+01 -0.59751914928E+03  0.59814532757E+03  0.00000000000E+00 0.  1.
          3    1    3    3  501    0 -0.70207859981E+01  0.78030286170E+00 -0.13242447834E+03  0.13261275494E+03  0.00000000000E+00 0.  1.
         -1    1    1    2    0  502  0.33076291378E+02 -0.91355269203E+01 -0.26855744956E+03  0.27074084032E+03  0.00000000000E+00 0. -1.
<mgrwt>
<rscale>  1 0.30000000E+03</rscale>
<asrwt>0</asrwt>
<pdfrwt beam="1">  1       21 0.54506399E-02 0.30000000E+03</pdfrwt>
<pdfrwt beam="2">0</pdfrwt>
<totfact> 0.24855281E+04</totfact>
</mgrwt>
</event>
<event>
 6    1  0.1280499E-001  0.3000000E+03  0.7818608E-02  0.1093470E+00
         21   -1    0    0  501  502  0.00000000000E+00  0.00000000000E+00  0.25895324373E+01  0.25895324373E+01  0.00000000000E+00 0. -1.
         13   -1    0    0    0    0 -0.00000000000E+00 -0.00000000000E+00 -0.10000000000E+04  0.10000000000E+04  0.00000000000E+00 0.  1.
    9000005    2    1    2  501    0  0.44140898093E+02 -0.21812064799E+02 -0.62452419249E+03  0.62646673441E+03  0.24325432746E+01 0.  0.
         13    1    3    3    0    0  0.42626511752E+02 -0.20577671856E+02 -0.60198105967E+03  0.60383909801E+03  0.00000000000E+00 0.  1.
          3    1    3    3  501    0  0.15143863419E+01 -0.12343929421E+01 -0.22543132818E+02  0.22627636403E+02  0.00000000000E+00 0.  1.
         -1    1    1    2    0  502 -0.44140898093E+02  0.21812064799E+02 -0.37288627507E+03  0.37612279803E+03  0.00000000000E+00 0. -1.
<mgrwt>
<rscale>  1 0.30000000E+03</rscale>
<asrwt>0</asrwt>
<pdfrwt beam="1">  1       21 0.94165014E-02 0.30000000E+03</pdfrwt>
<pdfrwt beam="2">0</pdfrwt>
<totfact> 0.95770847E+03</totfact>
</mgrwt>
</event>
<event>
 6    1  0.1280499E-001  0.3000000E+03  0.7818608E-02  0.1093470E+00
         21   -1    0    0  501  502  0.00000000000E+00  0.00000000000E+00  0.16911567305E+01  0.16911567305E+01  0.00000000000E+00 0. -1.
         13   -1    0    0    0    0 -0.00000000000E+00 -0.00000000000E+00 -0.10000000000E+04  0.10000000000E+04  0.00000000000E+00 0.  1.
    9000005    2    1    2  501    0 -0.48153140338E+01 -0.32451714735E+02 -0.80069217011E+03  0.80136978855E+03  0.30472428696E+01 0.  0.
         13    1    3    3    0    0 -0.43357932944E+01 -0.25268659203E+02 -0.59637074698E+03  0.59692157951E+03  0.00000000000E+00 0.  1.
          3    1    3    3  501    0 -0.47952073931E+00 -0.71830555319E+01 -0.20432142313E+03  0.20444820904E+03  0.00000000000E+00 0.  1.
         -3    1    1    2    0  502  0.48153140338E+01  0.32451714735E+02 -0.19761667316E+03  0.20032136818E+03  0.00000000000E+00 0. -1.
<mgrwt>
<rscale>  1 0.30000000E+03</rscale>
<asrwt>0</asrwt>
<pdfrwt beam="1">  1       21 0.61496738E-02 0.30000000E+03</pdfrwt>
<pdfrwt beam="2">0</pdfrwt>
<totfact> 0.20194559E+04</totfact>
</mgrwt>
</event>
<event>
 6    1  0.1280499E-001  0.3000000E+03  0.7818608E-02  0.1093470E+00
         21   -1    0    0  501  502  0.00000000000E+00  0.00000000000E+00  0.20208475675E+01  0.20208475675E+01  0.00000000000E+00 0. -1.
         13   -1    0    0    0    0 -0.00000000000E+00 -0.00000000000E+00 -0.10000000000E+04  0.10000000000E+04  0.00000000000E+00 0.  1.
    9000005    2    1    2  501    0 -0.36843729908E+02 -0.25456231261E+02 -0.51920286568E+03  0.52115474053E+03  0.50167419873E+01 0.  0.
         13    1    3    3    0    0 -0.29151719896E+01 -0.53808258470E+00 -0.35525594101E+02  0.35649061654E+02  0.00000000000E+00 0.  1.
          1    1    3    3  501    0 -0.33928557919E+02 -0.24918148676E+02 -0.48367727158E+03  0.48550567888E+03  0.00000000000E+00 0.  1.
         -3    1    1    2    0  502  0.36843729908E+02  0.25456231261E+02 -0.47877628675E+03  0.48086610704E+03  0.00000000000E+00 0. -1.
<mgrwt>
<rscale>  1 0.30000000E+03</rscale>
<asrwt>0</asrwt>
<pdfrwt beam="1">  1       21 0.73485521E-02 0.30000000E+03</pdfrwt>
<pdfrwt beam="2">0</pdfrwt>
<totfact> 0.14824225E+04</totfact>
</mgrwt>
</event>
<event>
 6    1  0.1280499E-001  0.3000000E+03  0.7818608E-02  0.1093470E+00
         21   -1    0    0  501  502  0.00000000000E+00  0.00000000000E+00  0.17080644640E+01  0.17080644640E+01  0.00000000000E+00 0. -1.
         13   -1    0    0    0    0 -0.00000000000E+00 -0.00000000000E+00 -0.10000000000E+04  0.10000000000E+04  0.00000000000E+00 0.  1.
    9000005    2    1    2  501    0  0.13327397342E+02  0.30291934573E+02 -0.79865210727E+03  0.79934383380E+03  0.31867499401E+01 0.  0.
         13    1    3    3    0    0  0.35156565843E+01  0.81123634832E+01 -0.24899620975E+03  0.24915313113E+03  0.00000000000E+00 0.  1.
          1    1    3    3  501    0  0.98117407581E+01  0.22179571090E+02 -0.54965589752E+03  0.55019070268E+03  0.00000000000E+00 0.  1.
         -1    1    1    2    0  502 -0.13327397342E+02 -0.30291934573E+02 -0.19963982827E+03  0.20236423066E+03  0.00000000000E+00 0. -1.
<mgrwt>
<rscale>  1 0.30000000E+03</rscale>
<asrwt>0</asrwt>
<pdfrwt beam="1">  1       21 0.62111566E-02 0.30000000E+03</pdfrwt>
<pdfrwt beam="2">0</pdfrwt>
<totfact> 0.19850606E+04</totfact>
</mgrwt>
</event>
<event>
 6    1  0.1280499E-001  0.3000000E+03  0.7818608E-02  0.1093470E+00
         21   -1    0    0  501  502  0.00000000000E+00  0.00000000000E+00  0.13640656151E+01  0.13640656151E+01  0.00000000000E+00 0. -1.
         13   -1    0    0    0    0 -0.00000000000E+00 -0.00000000000E+00 -0.10000000000E+04  0.10000000000E+04  0.00000000000E+00 0.  1.
    9000005    2    1    2  501    0  0.82608173937E+01  0.31089023855E+02 -0.74032497838E+03  0.74105786419E+03  0.71355417387E+01 0.  0.
         13    1    3    3    0    0  0.73971969778E+01  0.30816001597E+02 -0.73158121023E+03  0.73226730887E+03  0.00000000000E+00 0.  1.
          3    1    3    3  501    0  0.86362041587E+00  0.27302225878E+00 -0.87437681492E+01  0.87905553194E+01  0.00000000000E+00 0.  1.
         -3    1    1    2    0  502 -0.82608173937E+01 -0.31089023855E+02 -0.25831095601E+03  0.26030620143E+03  0.00000000000E+00 0. -1.
<mgrwt>
<rscale>  1 0.30000000E+03</rscale>
<asrwt>0</asrwt>
<pdfrwt beam="1">  1       21 0.49602491E-02 0.30000000E+03</pdfrwt>
<pdfrwt beam="2">0</pdfrwt>
<totfact> 0.29199203E+04</totfact>
</mgrwt>
</event>
<event>
 6    1  0.1280499E-001  0.3000000E+03  0.7818608E-02  0.1093470E+00
         21   -1    0    0  501  502  0.00000000000E+00  0.00000000000E+00  0.50097405412E+01  0.50097405412E+01  0.00000000000E+00 0. -1.
         13   -1    0    0    0    0 -0.00000000000E+00 -0.00000000000E+00 -0.10000000000E+04  0.10000000000E+04  0.00000000000E+00 0.  1.
    9000005    2    1    2  501    0  0.49191035030E+01 -0.36899224778E+02 -0.92483293089E+03  0.92558807397E+03  0.34032712392E+01 0.  0.
         13    1    3    3    0    0  0.41356516485E+00 -0.15766491405E+02 -0.39405128753E+03  0.39436679689E+03  0.00000000000E+00 0.  1.
          3    1    3    3  501    0  0.45055383381E+01 -0.21132733372E+02 -0.53078164336E+03  0.53122127708E+03  0.00000000000E+00 0.  1.
         -3    1    1    2    0  502 -0.49191035030E+01  0.36899224778E+02 -0.70157328568E+02  0.79421666567E+02  0.00000000000E+00 0. -1.
<mgrwt>
<rscale>  1 0.30000000E+03</rscale>
<asrwt>0</asrwt>
<pdfrwt beam="1">  1       21 0.18217277E-01 0.30000000E+03</pdfrwt>
<pdfrwt beam="2">0</pdfrwt>
<totfact> 0.28640492E+03</totfact>
</mgrwt>
</event>
<event>
 6    1  0.1280499E-001  0.3000000E+03  0.7818608E-02  0.1093470E+00
         21   -1    0    0  501  502  0.00000000000E+00  0.00000000000E+00  0.15154059669E+01  0.15154059669E+01  0.00000000000E+00 0. -1.
         13   -1    0    0    0    0 -0.00000000000E+00 -0.00000000000E+00 -0.10000000000E+04  0.10000000000E+04  0.00000000000E+00 0.  1.
    9000005    2    1    2  501    0  0.47064342699E+01  0.34103541487E+02 -0.73210360013E+03  0.73291898756E+03  0.30592392036E+01 0.  0.
         13    1    3    3    0    0  0.37648729628E+01  0.17557463891E+02 -0.36469704445E+03  0.36513884077E+03  0.00000000000E+00 0.  1.
          3    1    3    3  501    0  0.94156130713E+00  0.16546077596E+02 -0.36740655567E+03  0.36778014679E+03  0.00000000000E+00 0.  1.
         -1    1    1    2    0  502 -0.47064342699E+01 -0.34103541487E+02 -0.26638099391E+03  0.26859641841E+03  0.00000000000E+00 0. -1.
<mgrwt>
<rscale>  1 0.30000000E+03</rscale>
<asrwt>0</asrwt>
<pdfrwt beam="1">  1       21 0.55105788E-02 0.30000000E+03</pdfrwt>
<pdfrwt beam="2">0</pdfrwt>
<totfact> 0.24393637E+04</totfact>
</mgrwt>
</event>
<event>
 6    1  0.1280499E-001  0.3000000E+03  0.7818608E-02  0.1093470E+00
         21   -1    0    0  501  502  0.00000000000E+00  0.00000000000E+00  0.12715934014E+01  0.12715934014E+01  0.00000000000E+00 0. -1.
         13   -1    0    0    0    0 -0.00000000000E+00 -0.00000000000E+00 -0.10000000000E+04  0.10000000000E+04  0.00000000000E+00 0.  1.
    9000005    2    1    2  501    0 -0.17808962990E+02 -0.28787954832E+02 -0.65461655644E+03  0.65549873309E+03  0.31380910076E+01 0.  0.
         13    1    3    3    0    0 -0.12495594585E+02 -0.20157023696E+02 -0.42976932526E+03  0.43042318528E+03  0.00000000000E+00 0.  1.
          1    1    3    3  501    0 -0.53133684052E+01 -0.86309311361E+01 -0.22484723118E+03  0.22507554782E+03  0.00000000000E+00 0.  1.
         -1    1    1    2    0  502  0.17808962990E+02  0.28787954832E+02 -0.34411185016E+03  0.34577286031E+03  0.00000000000E+00 0. -1.
<mgrwt>
<rscale>  1 0.30000000E+03</rscale>
<asrwt>0</asrwt>
<pdfrwt beam="1">  1       21 0.46239858E-02 0.30000000E+03</pdfrwt>
<pdfrwt beam="2">0</pdfrwt>
<totfact> 0.32903737E+04</totfact>
</mgrwt>
</event>
<event>
 6    1  0.1280499E-001  0.3000000E+03  0.7818608E-02  0.1093470E+00
         21   -1    0    0  501  502  0.00000000000E+00  0.00000000000E+00  0.16615863583E+02  0.16615863583E+02  0.00000000000E+00 0. -1.
         13   -1    0    0    0    0 -0.00000000000E+00 -0.00000000000E+00 -0.10000000000E+04  0.10000000000E+04  0.00000000000E+00 0.  1.
    9000005    2    1    2  501    0 -0.15394823908E+02  0.10090791146E+03 -0.80200835184E+03  0.80848950189E+03  0.42977967394E+01 0.  0.
         13    1    3    3    0    0 -0.13787369077E+02  0.79033629651E+02 -0.63322764135E+03  0.63828963013E+03  0.00000000000E+00 0.  1.
          3    1    3    3  501    0 -0.16074548314E+01  0.21874281808E+02 -0.16878071049E+03  0.17019987177E+03  0.00000000000E+00 0.  1.
         -1    1    1    2    0  502  0.15394823908E+02 -0.10090791146E+03 -0.18137578458E+03  0.20812636169E+03  0.00000000000E+00 0. -1.
<mgrwt>
<rscale>  1 0.30000000E+03</rscale>
<asrwt>0</asrwt>
<pdfrwt beam="1">  1       21 0.60421450E-01 0.30000000E+03</pdfrwt>
<pdfrwt beam="2">0</pdfrwt>
<totfact> 0.24718823E+02</totfact>
</mgrwt>
</event>
<event>
 6    1  0.1280499E-001  0.3000000E+03  0.7818608E-02  0.1093470E+00
         21   -1    0    0  501  502  0.00000000000E+00  0.00000000000E+00  0.79471480696E+01  0.79471480696E+01  0.00000000000E+00 0. -1.
         13   -1    0    0    0    0 -0.00000000000E+00 -0.00000000000E+00 -0.10000000000E+04  0.10000000000E+04  0.00000000000E+00 0.  1.
    9000005    2    1    2  501    0 -0.50609211380E+02  0.62875473156E+02 -0.70974490570E+03  0.71432767680E+03  0.34031281214E+01 0.  0.
         13    1    3    3    0    0 -0.36868536333E+02  0.43379236525E+02 -0.50292304263E+03  0.50613499576E+03  0.00000000000E+00 0.  1.
          1    1    3    3  501    0 -0.13740675047E+02  0.19496236631E+02 -0.20682186307E+03  0.20819268104E+03  0.00000000000E+00 0.  1.
         -3    1    1    2    0  502  0.50609211380E+02 -0.62875473156E+02 -0.28230794623E+03  0.29361947126E+03  0.00000000000E+00 0. -1.
<mgrwt>
<rscale>  1 0.30000000E+03</rscale>
<asrwt>0</asrwt>
<pdfrwt beam="1">  1       21 0.28898781E-01 0.30000000E+03</pdfrwt>
<pdfrwt beam="2">0</pdfrwt>
<totfact> 0.11715155E+03</totfact>
</mgrwt>
</event>
<event>
 6    1  0.1280499E-001  0.3000000E+03  0.7818608E-02  0.1093470E+00
         21   -1    0    0  501  502  0.00000000000E+00  0.00000000000E+00  0.16265834250E+01  0.16265834250E+01  0.00000000000E+00 0. -1.
         13   -1    0    0    0    0 -0.00000000000E+00 -0.00000000000E+00 -0.10000000000E+04  0.10000000000E+04  0.00000000000E+00 0.  1.
    9000005    2    1    2  501    0 -0.36387523731E+02  0.17246081334E+02 -0.51039243170E+03  0.51198700087E+03  0.29623502610E+01 0.  0.
         13    1    3    3    0    0 -0.22413890450E+01  0.58085310645E+00 -0.36844462065E+02  0.36917145069E+02  0.00000000000E+00 0.  1.
          1    1    3    3  501    0 -0.34146134686E+02  0.16665228228E+02 -0.47354796963E+03  0.47506985580E+03  0.00000000000E+00 0.  1.
         -1    1    1    2    0  502  0.36387523731E+02 -0.17246081334E+02 -0.48798098488E+03  0.48963958256E+03  0.00000000000E+00 0. -1.
<mgrwt>
<rscale>  1 0.30000000E+03</rscale>
<asrwt>0</asrwt>
<pdfrwt beam="1">  1       21 0.59148613E-02 0.30000000E+03</pdfrwt>
<pdfrwt beam="2">0</pdfrwt>
<totfact> 0.21597337E+04</totfact>
</mgrwt>
</event>
<event>
 6    1  0.1280499E-001  0.3000000E+03  0.7818608E-02  0.1093470E+00
         21   -1    0    0  501  502  0.00000000000E+00  0.00000000000E+00  0.13860290671E+01  0.13860290671E+01  0.00000000000E+00 0. -1.
         13   -1    0    0    0    0 -0.00000000000E+00 -0.00000000000E+00 -0.10000000000E+04  0.10000000000E+04  0.00000000000E+00 0.  1.
    9000005    2    1    2  501    0  0.25645388408E+02  0.17935582084E+02 -0.76978935666E+03  0.77043132540E+03  0.30663448931E+01 0.  0.
         13    1    3    3    0    0  0.11110491945E+02  0.59376863955E+01 -0.30933434732E+03  0.30959075823E+03  0.00000000000E+00 0.  1.
          3    1    3    3  501    0  0.14534896463E+02  0.11997895689E+02 -0.46045500934E+03  0.46084056717E+03  0.00000000000E+00 0.  1.
         -3    1    1    2    0  502 -0.25645388408E+02 -0.17935582084E+02 -0.22882461427E+03  0.23095470367E+03  0.00000000000E+00 0. -1.
<mgrwt>
<rscale>  1 0.30000000E+03</rscale>
<asrwt>0</asrwt>
<pdfrwt beam="1">  1       21 0.50401163E-02 0.30000000E+03</pdfrwt>
<pdfrwt beam="2">0</pdfrwt>
<totfact> 0.28414837E+04</totfact>
</mgrwt>
</event>
<event>
 6    1  0.1280499E-001  0.3000000E+03  0.7818608E-02  0.1093470E+00
         21   -1    0    0  501  502  0.00000000000E+00  0.00000000000E+00  0.13924852591E+01  0.13924852591E+01  0.00000000000E+00 0. -1.
         13   -1    0    0    0    0 -0.00000000000E+00 -0.00000000000E+00 -0.10000000000E+04  0.10000000000E+04  0.00000000000E+00 0.  1.
    9000005    2    1    2  501    0  0.81364192154E+01 -0.31839064679E+02 -0.73531549054E+03  0.73605756979E+03  0.34565972996E+01 0.  0.
         13    1    3    3    0    0  0.29008901328E+01 -0.15134352410E+02 -0.37668900106E+03  0.37700406802E+03  0.00000000000E+00 0.  1.
          1    1    3    3  501    0  0.52355290826E+01 -0.16704712269E+02 -0.35862648948E+03  0.35905350177E+03  0.00000000000E+00 0.  1.
         -3    1    1    2    0  502 -0.81364192154E+01  0.31839064679E+02 -0.26329202420E+03  0.26533491547E+03  0.00000000000E+00 0. -1.
<mgrwt>
<rscale>  1 0.30000000E+03</rscale>
<asrwt>0</asrwt>
<pdfrwt beam="1">  1       21 0.50635934E-02 0.30000000E+03</pdfrwt>
<pdfrwt beam="2">0</pdfrwt>
<totfact> 0.28190500E+04</totfact>
</mgrwt>
</event>
<event>
 6    1  0.1280499E-001  0.3000000E+03  0.7818608E-02  0.1093470E+00
         21   -1    0    0  501  502  0.00000000000E+00  0.00000000000E+00  0.24582996318E+01  0.24582996318E+01  0.00000000000E+00 0. -1.
         13   -1    0    0    0    0 -0.00000000000E+00 -0.00000000000E+00 -0.10000000000E+04  0.10000000000E+04  0.00000000000E+00 0.  1.
    9000005    2    1    2  501    0  0.16305328439E+02  0.29512257759E+02 -0.86607727947E+03  0.86673898982E+03  0.31281571568E+01 0.  0.
         13    1    3    3    0    0  0.99247629241E+01  0.16132499042E+02 -0.51818357145E+03  0.51852962515E+03  0.00000000000E+00 0.  1.
          3    1    3    3  501    0  0.63805655147E+01  0.13379758717E+02 -0.34789370803E+03  0.34820936467E+03  0.00000000000E+00 0.  1.
         -3    1    1    2    0  502 -0.16305328439E+02 -0.29512257759E+02 -0.13146442089E+03  0.13571930981E+03  0.00000000000E+00 0. -1.
<mgrwt>
<rscale>  1 0.30000000E+03</rscale>
<asrwt>0</asrwt>
<pdfrwt beam="1">  1       21 0.89392902E-02 0.30000000E+03</pdfrwt>
<pdfrwt beam="2">0</pdfrwt>
<totfact> 0.10503247E+04</totfact>
</mgrwt>
</event>
<event>
 6    1  0.1280499E-001  0.3000000E+03  0.7818608E-02  0.1093470E+00
         21   -1    0    0  501  502  0.00000000000E+00  0.00000000000E+00  0.22319411779E+01  0.22319411779E+01  0.00000000000E+00 0. -1.
         13   -1    0    0    0    0 -0.00000000000E+00 -0.00000000000E+00 -0.10000000000E+04  0.10000000000E+04  0.00000000000E+00 0.  1.
    9000005    2    1    2  501    0  0.35996038949E+02  0.80370772767E+01 -0.80954157268E+03  0.81042599884E+03  0.85107147430E+01 0.  0.
         13    1    3    3    0    0  0.24055119342E+02  0.72552888434E+01 -0.46692798800E+03  0.46760350080E+03  0.00000000000E+00 0.  1.
          1    1    3    3  501    0  0.11940919608E+02  0.78178843326E+00 -0.34261358468E+03  0.34282249804E+03  0.00000000000E+00 0.  1.
         -3    1    1    2    0  502 -0.35996038949E+02 -0.80370772767E+01 -0.18822648614E+03  0.19180594233E+03  0.00000000000E+00 0. -1.
<mgrwt>
<rscale>  1 0.30000000E+03</rscale>
<asrwt>0</asrwt>
<pdfrwt beam="1">  1       21 0.81161669E-02 0.30000000E+03</pdfrwt>
<pdfrwt beam="2">0</pdfrwt>
<totfact> 0.12454339E+04</totfact>
</mgrwt>
</event>
<event>
 6    1  0.1280499E-001  0.3000000E+03  0.7818608E-02  0.1093470E+00
         21   -1    0    0  501  502  0.00000000000E+00  0.00000000000E+00  0.16450767157E+01  0.16450767157E+01  0.00000000000E+00 0. -1.
         13   -1    0    0    0    0 -0.00000000000E+00 -0.00000000000E+00 -0.10000000000E+04  0.10000000000E+04  0.00000000000E+00 0.  1.
    9000005    2    1    2  501    0  0.44854934798E+01  0.33546239785E+02 -0.77447537654E+03  0.77522175348E+03  0.33448981283E+01 0.  0.
         13    1    3    3    0    0  0.31058495596E+01  0.24153705816E+02 -0.52143539773E+03  0.52200375652E+03  0.00000000000E+00 0.  1.
          3    1    3    3  501    0  0.13796439202E+01  0.93925339693E+01 -0.25303997881E+03  0.25321799697E+03  0.00000000000E+00 0.  1.
         -1    1    1    2    0  502 -0.44854934798E+01 -0.33546239785E+02 -0.22387954674E+03  0.22642332323E+03  0.00000000000E+00 0. -1.
<mgrwt>
<rscale>  1 0.30000000E+03</rscale>
<asrwt>0</asrwt>
<pdfrwt beam="1">  1       21 0.59821098E-02 0.30000000E+03</pdfrwt>
<pdfrwt beam="2">0</pdfrwt>
<totfact> 0.21180459E+04</totfact>
</mgrwt>
</event>
<event>
 6    1  0.1280499E-001  0.3000000E+03  0.7818608E-02  0.1093470E+00
         21   -1    0    0  501  502  0.00000000000E+00  0.00000000000E+00  0.10882790575E+01  0.10882790575E+01  0.00000000000E+00 0. -1.
         13   -1    0    0    0    0 -0.00000000000E+00 -0.00000000000E+00 -0.10000000000E+04  0.10000000000E+04  0.00000000000E+00 0.  1.
    9000005    2    1    2  501    0 -0.27844357097E+02  0.12008068822E+02 -0.30756008081E+03  0.30907195537E+03  0.35732825411E+01 0.  0.
         13    1    3    3    0    0 -0.75229294978E+01  0.23788438872E+01 -0.66948269587E+02  0.67411602615E+02  0.00000000000E+00 0.  1.
          1    1    3    3  501    0 -0.20321427600E+02  0.96292249344E+01 -0.24061181122E+03  0.24166035275E+03  0.00000000000E+00 0.  1.
         -1    1    1    2    0  502  0.27844357097E+02 -0.12008068822E+02 -0.69135164013E+03  0.69201632369E+03  0.00000000000E+00 0. -1.
<mgrwt>
<rscale>  1 0.30000000E+03</rscale>
<asrwt>0</asrwt>
<pdfrwt beam="1">  1       21 0.39573867E-02 0.30000000E+03</pdfrwt>
<pdfrwt beam="2">0</pdfrwt>
<totfact> 0.42812397E+04</totfact>
</mgrwt>
</event>
<event>
 6    1  0.1280499E-001  0.3000000E+03  0.7818608E-02  0.1093470E+00
         21   -1    0    0  501  502  0.00000000000E+00  0.00000000000E+00  0.18629479700E+01  0.18629479700E+01  0.00000000000E+00 0. -1.
         13   -1    0    0    0    0 -0.00000000000E+00 -0.00000000000E+00 -0.10000000000E+04  0.10000000000E+04  0.00000000000E+00 0.  1.
    9000005    2    1    2  501    0 -0.30407158412E+02 -0.16032891174E+02 -0.80128601779E+03  0.80203307391E+03  0.40150306883E+01 0.  0.
         13    1    3    3    0    0 -0.30965357307E+01 -0.17848450970E+01 -0.11606638235E+03  0.11612139905E+03  0.00000000000E+00 0.  1.
          1    1    3    3  501    0 -0.27310622681E+02 -0.14248046077E+02 -0.68521963543E+03  0.68591167486E+03  0.00000000000E+00 0.  1.
         -1    1    1    2    0  502  0.30407158412E+02  0.16032891174E+02 -0.19685103424E+03  0.19982987406E+03  0.00000000000E+00 0. -1.
<mgrwt>
<rscale>  1 0.30000000E+03</rscale>
<asrwt>0</asrwt>
<pdfrwt beam="1">  1       21 0.67743705E-02 0.30000000E+03</pdfrwt>
<pdfrwt beam="2">0</pdfrwt>
<totfact> 0.17080818E+04</totfact>
</mgrwt>
</event>
<event>
 6    1  0.1280499E-001  0.3000000E+03  0.7818608E-02  0.1093470E+00
         21   -1    0    0  501  502  0.00000000000E+00  0.00000000000E+00  0.43202645677E+01  0.43202645677E+01  0.00000000000E+00 0. -1.
         13   -1    0    0    0    0 -0.00000000000E+00 -0.00000000000E+00 -0.10000000000E+04  0.10000000000E+04  0.00000000000E+00 0.  1.
    9000005    2    1    2  501    0 -0.32876246418E+02 -0.33941645305E+02 -0.14952151284E+03  0.15684364511E+03  0.32192150235E+01 0.  0.
         13    1    3    3    0    0 -0.29641116339E+02 -0.29484718708E+02 -0.13425205415E+03  0.14061137386E+03  0.00000000000E+00 0.  1.
          3    1    3    3  501    0 -0.32351300787E+01 -0.44569265973E+01 -0.15269458689E+02  0.16232271251E+02  0.00000000000E+00 0.  1.
         -3    1    1    2    0  502  0.32876246418E+02  0.33941645305E+02 -0.84615822259E+03  0.84747661946E+03  0.00000000000E+00 0. -1.
<mgrwt>
<rscale>  1 0.30000000E+03</rscale>
<asrwt>0</asrwt>
<pdfrwt beam="1">  1       21 0.15710086E-01 0.30000000E+03</pdfrwt>
<pdfrwt beam="2">0</pdfrwt>
<totfact> 0.37792216E+03</totfact>
</mgrwt>
</event>
<event>
 6    1  0.1280499E-001  0.3000000E+03  0.7818608E-02  0.1093470E+00
         21   -1    0    0  501  502  0.00000000000E+00  0.00000000000E+00  0.20002470042E+01  0.20002470042E+01  0.00000000000E+00 0. -1.
         13   -1    0    0    0    0 -0.00000000000E+00 -0.00000000000E+00 -0.10000000000E+04  0.10000000000E+04  0.00000000000E+00 0.  1.
    9000005    2    1    2  501    0  0.24417099819E+02 -0.28589569190E+02 -0.76978430051E+03  0.77070854593E+03  0.31992555811E+01 0.  0.
         13    1    3    3    0    0  0.29741661454E+01 -0.22219153212E+01 -0.86227460817E+02  0.86307343667E+02  0.00000000000E+00 0.  1.
          3    1    3    3  501    0  0.21442933674E+02 -0.26367653868E+02 -0.68355683969E+03  0.68440120226E+03  0.00000000000E+00 0.  1.
         -1    1    1    2    0  502 -0.24417099819E+02  0.28589569190E+02 -0.22821545249E+03  0.23129170107E+03  0.00000000000E+00 0. -1.
<mgrwt>
<rscale>  1 0.30000000E+03</rscale>
<asrwt>0</asrwt>
<pdfrwt beam="1">  1       21 0.72736408E-02 0.30000000E+03</pdfrwt>
<pdfrwt beam="2">0</pdfrwt>
<totfact> 0.15091977E+04</totfact>
</mgrwt>
</event>
<event>
 6    1  0.1280499E-001  0.3000000E+03  0.7818608E-02  0.1093470E+00
         21   -1    0    0  501  502  0.00000000000E+00  0.00000000000E+00  0.16635955311E+01  0.16635955311E+01  0.00000000000E+00 0. -1.
         13   -1    0    0    0    0 -0.00000000000E+00 -0.00000000000E+00 -0.10000000000E+04  0.10000000000E+04  0.00000000000E+00 0.  1.
    9000005    2    1    2  501    0  0.15669845509E+02  0.26319594074E+02 -0.17066173171E+03  0.17342230882E+03  0.34066750454E+01 0.  0.
         13    1    3    3    0    0  0.11253894870E+02  0.21174771557E+02 -0.13735530997E+03  0.13943278767E+03  0.00000000000E+00 0.  1.
          3    1    3    3  501    0  0.44159506383E+01  0.51448225167E+01 -0.33306421739E+02  0.33989521147E+02  0.00000000000E+00 0.  1.
         -3    1    1    2    0  502 -0.15669845509E+02 -0.26319594074E+02 -0.82767467276E+03  0.82824128671E+03  0.00000000000E+00 0. -1.
<mgrwt>
<rscale>  1 0.30000000E+03</rscale>
<asrwt>0</asrwt>
<pdfrwt beam="1">  1       21 0.60494511E-02 0.30000000E+03</pdfrwt>
<pdfrwt beam="2">0</pdfrwt>
<totfact> 0.20775428E+04</totfact>
</mgrwt>
</event>
<event>
 6    1  0.1280499E-001  0.3000000E+03  0.7818608E-02  0.1093470E+00
         21   -1    0    0  501  502  0.00000000000E+00  0.00000000000E+00  0.14831450998E+01  0.14831450998E+01  0.00000000000E+00 0. -1.
         13   -1    0    0    0    0 -0.00000000000E+00 -0.00000000000E+00 -0.10000000000E+04  0.10000000000E+04  0.00000000000E+00 0.  1.
    9000005    2    1    2  501    0  0.25843823843E+00 -0.36739625747E+02 -0.35200397902E+03  0.35392715094E+03  0.27856844601E+01 0.  0.
         13    1    3    3    0    0 -0.85663117715E+00 -0.19108958714E+02 -0.17359083664E+03  0.17464153196E+03  0.00000000000E+00 0.  1.
          1    1    3    3  501    0  0.11150694156E+01 -0.17630667033E+02 -0.17841314239E+03  0.17928561899E+03  0.00000000000E+00 0.  1.
         -3    1    1    2    0  502 -0.25843823843E+00  0.36739625747E+02 -0.64651287588E+03  0.64755599416E+03  0.00000000000E+00 0. -1.
<mgrwt>
<rscale>  1 0.30000000E+03</rscale>
<asrwt>0</asrwt>
<pdfrwt beam="1">  1       21 0.53932663E-02 0.30000000E+03</pdfrwt>
<pdfrwt beam="2">0</pdfrwt>
<totfact> 0.25309911E+04</totfact>
</mgrwt>
</event>
<event>
 6    1  0.1280499E-001  0.3000000E+03  0.7818608E-02  0.1093470E+00
         21   -1    0    0  501  502  0.00000000000E+00  0.00000000000E+00  0.10917798354E+01  0.10917798354E+01  0.00000000000E+00 0. -1.
         13   -1    0    0    0    0 -0.00000000000E+00 -0.00000000000E+00 -0.10000000000E+04  0.10000000000E+04  0.00000000000E+00 0.  1.
    9000005    2    1    2  501    0 -0.30676870438E+02 -0.12083096507E+02 -0.48283425607E+03  0.48396567528E+03  0.26046898330E+01 0.  0.
         13    1    3    3    0    0 -0.16925653359E+02 -0.63633449133E+01 -0.24611262693E+03  0.24677600174E+03  0.00000000000E+00 0.  1.
          1    1    3    3  501    0 -0.13751217079E+02 -0.57197515934E+01 -0.23672162914E+03  0.23718967354E+03  0.00000000000E+00 0.  1.
         -3    1    1    2    0  502  0.30676870438E+02  0.12083096507E+02 -0.51607396409E+03  0.51712610456E+03  0.00000000000E+00 0. -1.
<mgrwt>
<rscale>  1 0.30000000E+03</rscale>
<asrwt>0</asrwt>
<pdfrwt beam="1">  1       21 0.39701169E-02 0.30000000E+03</pdfrwt>
<pdfrwt beam="2">0</pdfrwt>
<totfact> 0.42581575E+04</totfact>
</mgrwt>
</event>
<event>
 6    1  0.1280499E-001  0.3000000E+03  0.7818608E-02  0.1093470E+00
         21   -1    0    0  501  502  0.00000000000E+00  0.00000000000E+00  0.15502992852E+01  0.15502992852E+01  0.00000000000E+00 0. -1.
         13   -1    0    0    0    0 -0.00000000000E+00 -0.00000000000E+00 -0.10000000000E+04  0.10000000000E+04  0.00000000000E+00 0.  1.
    9000005    2    1    2  501    0 -0.35247568738E+02  0.12678800183E+02 -0.65162749485E+03  0.65271110201E+03  0.32011816684E+01 0.  0.
         13    1    3    3    0    0 -0.27631726171E+01  0.20633682190E+00 -0.41911333601E+02  0.42002828262E+02  0.00000000000E+00 0.  1.
          3    1    3    3  501    0 -0.32484396121E+02  0.12472463361E+02 -0.60971616125E+03  0.61070827375E+03  0.00000000000E+00 0.  1.
         -1    1    1    2    0  502  0.35247568738E+02 -0.12678800183E+02 -0.34682220587E+03  0.34883919728E+03  0.00000000000E+00 0. -1.
<mgrwt>
<rscale>  1 0.30000000E+03</rscale>
<asrwt>0</asrwt>
<pdfrwt beam="1">  1       21 0.56374638E-02 0.30000000E+03</pdfrwt>
<pdfrwt beam="2">0</pdfrwt>
<totfact> 0.23458872E+04</totfact>
</mgrwt>
</event>
<event>
 6    1  0.1280499E-001  0.3000000E+03  0.7818608E-02  0.1093470E+00
         21   -1    0    0  501  502  0.00000000000E+00  0.00000000000E+00  0.22497231408E+01  0.22497231408E+01  0.00000000000E+00 0. -1.
         13   -1    0    0    0    0 -0.00000000000E+00 -0.00000000000E+00 -0.10000000000E+04  0.10000000000E+04  0.00000000000E+00 0.  1.
    9000005    2    1    2  501    0  0.10026235985E+02  0.44543879683E+02 -0.63232483442E+03  0.63398292230E+03  0.38687089288E+01 0.  0.
         13    1    3    3    0    0  0.53901016177E+01  0.31623196987E+02 -0.43521651043E+03  0.43639717086E+03  0.00000000000E+00 0.  1.
          3    1    3    3  501    0  0.46361343675E+01  0.12920682696E+02 -0.19710832399E+03  0.19758575144E+03  0.00000000000E+00 0.  1.
         -1    1    1    2    0  502 -0.10026235985E+02 -0.44543879683E+02 -0.36542544244E+03  0.36826680084E+03  0.00000000000E+00 0. -1.
<mgrwt>
<rscale>  1 0.30000000E+03</rscale>
<asrwt>0</asrwt>
<pdfrwt beam="1">  1       21 0.81808287E-02 0.30000000E+03</pdfrwt>
<pdfrwt beam="2">0</pdfrwt>
<totfact> 0.12281764E+04</totfact>
</mgrwt>
</event>
<event>
 6    1  0.1280499E-001  0.3000000E+03  0.7818608E-02  0.1093470E+00
         21   -1    0    0  501  502  0.00000000000E+00  0.00000000000E+00  0.25800865191E+01  0.25800865191E+01  0.00000000000E+00 0. -1.
         13   -1    0    0    0    0 -0.00000000000E+00 -0.00000000000E+00 -0.10000000000E+04  0.10000000000E+04  0.00000000000E+00 0.  1.
    9000005    2    1    2  501    0  0.20586676494E+01  0.37031885296E+02 -0.84050952320E+03  0.84134588041E+03  0.55707498468E+01 0.  0.
         13    1    3    3    0    0  0.65742818872E+00  0.52095868338E+00 -0.32273898789E+02  0.32284797549E+02  0.00000000000E+00 0.  1.
          3    1    3    3  501    0  0.14012394607E+01  0.36510926613E+02 -0.80823562441E+03  0.80906108286E+03  0.00000000000E+00 0.  1.
         -3    1    1    2    0  502 -0.20586676494E+01 -0.37031885296E+02 -0.15691039028E+03  0.16123420610E+03  0.00000000000E+00 0. -1.
<mgrwt>
<rscale>  1 0.30000000E+03</rscale>
<asrwt>0</asrwt>
<pdfrwt beam="1">  1       21 0.93821526E-02 0.30000000E+03</pdfrwt>
<pdfrwt beam="2">0</pdfrwt>
<totfact> 0.96395601E+03</totfact>
</mgrwt>
</event>
<event>
 6    1  0.1280499E-001  0.3000000E+03  0.7818608E-02  0.1093470E+00
         21   -1    0    0  501  502  0.00000000000E+00  0.00000000000E+00  0.49296988419E+01  0.49296988419E+01  0.00000000000E+00 0. -1.
         13   -1    0    0    0    0 -0.00000000000E+00 -0.00000000000E+00 -0.10000000000E+04  0.10000000000E+04  0.00000000000E+00 0.  1.
    9000005    2    1    2  501    0  0.36408538509E+02  0.29115653107E+02 -0.87313061750E+03  0.87438243007E+03  0.37756951305E+01 0.  0.
         13    1    3    3    0    0  0.13953728730E+02  0.10040923522E+02 -0.35219491993E+03  0.35261422024E+03  0.00000000000E+00 0.  1.
          1    1    3    3  501    0  0.22454809779E+02  0.19074729585E+02 -0.52093569757E+03  0.52176820983E+03  0.00000000000E+00 0.  1.
         -1    1    1    2    0  502 -0.36408538509E+02 -0.29115653107E+02 -0.12193968366E+03  0.13054726877E+03  0.00000000000E+00 0. -1.
<mgrwt>
<rscale>  1 0.30000000E+03</rscale>
<asrwt>0</asrwt>
<pdfrwt beam="1">  1       21 0.17926215E-01 0.30000000E+03</pdfrwt>
<pdfrwt beam="2">0</pdfrwt>
<totfact> 0.29522988E+03</totfact>
</mgrwt>
</event>
<event>
 6    1  0.1280499E-001  0.3000000E+03  0.7818608E-02  0.1093470E+00
         21   -1    0    0  501  502  0.00000000000E+00  0.00000000000E+00  0.16265321264E+01  0.16265321264E+01  0.00000000000E+00 0. -1.
         13   -1    0    0    0    0 -0.00000000000E+00 -0.00000000000E+00 -0.10000000000E+04  0.10000000000E+04  0.00000000000E+00 0.  1.
    9000005    2    1    2  501    0  0.24048395812E+02  0.25999585793E+02 -0.73817808003E+03  0.73903189460E+03  0.26381047367E+01 0.  0.
         13    1    3    3    0    0  0.22976691965E+01  0.30190852470E+01 -0.65067750138E+02  0.65178265300E+02  0.00000000000E+00 0.  1.
          3    1    3    3  501    0  0.21750726616E+02  0.22980500546E+02 -0.67311032990E+03  0.67385362930E+03  0.00000000000E+00 0.  1.
         -3    1    1    2    0  502 -0.24048395812E+02 -0.25999585793E+02 -0.26019538784E+03  0.26259463752E+03  0.00000000000E+00 0. -1.
<mgrwt>
<rscale>  1 0.30000000E+03</rscale>
<asrwt>0</asrwt>
<pdfrwt beam="1">  1       21 0.59146748E-02 0.30000000E+03</pdfrwt>
<pdfrwt beam="2">0</pdfrwt>
<totfact> 0.21598512E+04</totfact>
</mgrwt>
</event>
<event>
 6    1  0.1280499E-001  0.3000000E+03  0.7818608E-02  0.1093470E+00
         21   -1    0    0  501  502  0.00000000000E+00  0.00000000000E+00  0.15247941624E+01  0.15247941624E+01  0.00000000000E+00 0. -1.
         13   -1    0    0    0    0 -0.00000000000E+00 -0.00000000000E+00 -0.10000000000E+04  0.10000000000E+04  0.00000000000E+00 0.  1.
    9000005    2    1    2  501    0  0.36067580373E+02  0.62080165038E+01 -0.67208937115E+03  0.67309348794E+03  0.33631637201E+01 0.  0.
         13    1    3    3    0    0  0.28543644502E+02  0.51316969897E+01 -0.50619993081E+03  0.50703002269E+03  0.00000000000E+00 0.  1.
          3    1    3    3  501    0  0.75239358718E+01  0.10763195141E+01 -0.16588944034E+03  0.16606346525E+03  0.00000000000E+00 0.  1.
         -3    1    1    2    0  502 -0.36067580373E+02 -0.62080165038E+01 -0.32638583469E+03  0.32843130622E+03  0.00000000000E+00 0. -1.
<mgrwt>
<rscale>  1 0.30000000E+03</rscale>
<asrwt>0</asrwt>
<pdfrwt beam="1">  1       21 0.55447177E-02 0.30000000E+03</pdfrwt>
<pdfrwt beam="2">0</pdfrwt>
<totfact> 0.24136578E+04</totfact>
</mgrwt>
</event>
<event>
 6    1  0.1280499E-001  0.3000000E+03  0.7818608E-02  0.1093470E+00
         21   -1    0    0  501  502  0.00000000000E+00  0.00000000000E+00  0.11465386559E+02  0.11465386559E+02  0.00000000000E+00 0. -1.
         13   -1    0    0    0    0 -0.00000000000E+00 -0.00000000000E+00 -0.10000000000E+04  0.10000000000E+04  0.00000000000E+00 0.  1.
    9000005    2    1    2  501    0 -0.17610030803E+02  0.56924422352E+02 -0.91426192318E+03  0.91624492886E+03  0.89108050853E+01 0.  0.
         13    1    3    3    0    0 -0.85007052881E+01  0.40041310515E+02 -0.64997183414E+03  0.65125951334E+03  0.00000000000E+00 0.  1.
          3    1    3    3  501    0 -0.91093255153E+01  0.16883111837E+02 -0.26429008904E+03  0.26498541552E+03  0.00000000000E+00 0.  1.
         -3    1    1    2    0  502  0.17610030803E+02 -0.56924422352E+02 -0.74272690262E+02  0.95220457696E+02  0.00000000000E+00 0. -1.
<mgrwt>
<rscale>  1 0.30000000E+03</rscale>
<asrwt>0</asrwt>
<pdfrwt beam="1">  1       21 0.41692403E-01 0.30000000E+03</pdfrwt>
<pdfrwt beam="2">0</pdfrwt>
<totfact> 0.55375547E+02</totfact>
</mgrwt>
</event>
<event>
 6    1  0.1280499E-001  0.3000000E+03  0.7818608E-02  0.1093470E+00
         21   -1    0    0  501  502  0.00000000000E+00  0.00000000000E+00  0.10615538095E+01  0.10615538095E+01  0.00000000000E+00 0. -1.
         13   -1    0    0    0    0 -0.00000000000E+00 -0.00000000000E+00 -0.10000000000E+04  0.10000000000E+04  0.00000000000E+00 0.  1.
    9000005    2    1    2  501    0  0.28835252762E+02  0.10341261576E+02 -0.36700569185E+03  0.36838674042E+03  0.87863059313E+01 0.  0.
         13    1    3    3    0    0  0.13279984616E+02  0.40413055226E+00 -0.16986271910E+03  0.17038152673E+03  0.00000000000E+00 0.  1.
          3    1    3    3  501    0  0.15555268146E+02  0.99371310235E+01 -0.19714297275E+03  0.19800521368E+03  0.00000000000E+00 0.  1.
         -3    1    1    2    0  502 -0.28835252762E+02 -0.10341261576E+02 -0.63193275434E+03  0.63267481339E+03  0.00000000000E+00 0. -1.
<mgrwt>
<rscale>  1 0.30000000E+03</rscale>
<asrwt>0</asrwt>
<pdfrwt beam="1">  1       21 0.38602038E-02 0.30000000E+03</pdfrwt>
<pdfrwt beam="2">0</pdfrwt>
<totfact> 0.44641016E+04</totfact>
</mgrwt>
</event>
<event>
 6    1  0.1280499E-001  0.3000000E+03  0.7818608E-02  0.1093470E+00
         21   -1    0    0  501  502  0.00000000000E+00  0.00000000000E+00  0.19096695061E+01  0.19096695061E+01  0.00000000000E+00 0. -1.
         13   -1    0    0    0    0 -0.00000000000E+00 -0.00000000000E+00 -0.10000000000E+04  0.10000000000E+04  0.00000000000E+00 0.  1.
    9000005    2    1    2  501    0  0.46584808425E+01  0.40864502395E+02 -0.66537094206E+03  0.66665782322E+03  0.47490757229E+01 0.  0.
         13    1    3    3    0    0  0.46013031447E+01  0.40974067622E+02 -0.66073311681E+03  0.66201835160E+03  0.00000000000E+00 0.  1.
          3    1    3    3  501    0  0.57177697796E-01 -0.10956522701E+00 -0.46378252461E+01  0.46394716123E+01  0.00000000000E+00 0.  1.
         -1    1    1    2    0  502 -0.46584808425E+01 -0.40864502395E+02 -0.33271938844E+03  0.33525184629E+03  0.00000000000E+00 0. -1.
<mgrwt>
<rscale>  1 0.30000000E+03</rscale>
<asrwt>0</asrwt>
<pdfrwt beam="1">  1       21 0.69442674E-02 0.30000000E+03</pdfrwt>
<pdfrwt beam="2">0</pdfrwt>
<totfact> 0.16361251E+04</totfact>
</mgrwt>
</event>
<event>
 6    1  0.1280499E-001  0.3000000E+03  0.7818608E-02  0.1093470E+00
         21   -1    0    0  501  502  0.00000000000E+00  0.00000000000E+00  0.13950967107E+01  0.13950967107E+01  0.00000000000E+00 0. -1.
         13   -1    0    0    0    0 -0.00000000000E+00 -0.00000000000E+00 -0.10000000000E+04  0.10000000000E+04  0.00000000000E+00 0.  1.
    9000005    2    1    2  501    0 -0.33086775771E+02  0.35591449085E+00 -0.73034346999E+03  0.73110070534E+03  0.34345011625E+01 0.  0.
         13    1    3    3    0    0 -0.10769848828E+02 -0.14834524546E+01 -0.23465892850E+03  0.23491062768E+03  0.00000000000E+00 0.  1.
          1    1    3    3  501    0 -0.22316926943E+02  0.18393669455E+01 -0.49568454149E+03  0.49619007766E+03  0.00000000000E+00 0.  1.
         -3    1    1    2    0  502  0.33086775771E+02 -0.35591449085E+00 -0.26826143330E+03  0.27029439137E+03  0.00000000000E+00 0. -1.
<mgrwt>
<rscale>  1 0.30000000E+03</rscale>
<asrwt>0</asrwt>
<pdfrwt beam="1">  1       21 0.50730896E-02 0.30000000E+03</pdfrwt>
<pdfrwt beam="2">0</pdfrwt>
<totfact> 0.28100540E+04</totfact>
</mgrwt>
</event>
<event>
 6    1  0.1280499E-001  0.3000000E+03  0.7818608E-02  0.1093470E+00
         21   -1    0    0  501  502  0.00000000000E+00  0.00000000000E+00  0.11245592589E+01  0.11245592589E+01  0.00000000000E+00 0. -1.
         13   -1    0    0    0    0 -0.00000000000E+00 -0.00000000000E+00 -0.10000000000E+04  0.10000000000E+04  0.00000000000E+00 0.  1.
    9000005    2    1    2  501    0  0.29589048105E+02  0.74099784541E+01 -0.29460760302E+03  0.29619647300E+03  0.28794638268E+01 0.  0.
         13    1    3    3    0    0  0.10067929043E+02  0.23916186393E+01 -0.87226921035E+02  0.87838595094E+02  0.00000000000E+00 0.  1.
          1    1    3    3  501    0  0.19521119061E+02  0.50183598148E+01 -0.20738068199E+03  0.20835787791E+03  0.00000000000E+00 0.  1.
         -3    1    1    2    0  502 -0.29589048105E+02 -0.74099784541E+01 -0.70426783772E+03  0.70492808626E+03  0.00000000000E+00 0. -1.
<mgrwt>
<rscale>  1 0.30000000E+03</rscale>
<asrwt>0</asrwt>
<pdfrwt beam="1">  1       21 0.40893150E-02 0.30000000E+03</pdfrwt>
<pdfrwt beam="2">0</pdfrwt>
<totfact> 0.40511492E+04</totfact>
</mgrwt>
</event>
<event>
 6    1  0.1280499E-001  0.3000000E+03  0.7818608E-02  0.1093470E+00
         21   -1    0    0  501  502  0.00000000000E+00  0.00000000000E+00  0.30140229143E+01  0.30140229143E+01  0.00000000000E+00 0. -1.
         13   -1    0    0    0    0 -0.00000000000E+00 -0.00000000000E+00 -0.10000000000E+04  0.10000000000E+04  0.00000000000E+00 0.  1.
    9000005    2    1    2  501    0 -0.48160571032E+02  0.42689159225E+00 -0.73873875286E+03  0.74031409589E+03  0.32237799024E+01 0.  0.
         13    1    3    3    0    0 -0.30663063266E+02  0.86307918950E+00 -0.44798697849E+03  0.44903596877E+03  0.00000000000E+00 0.  1.
          3    1    3    3  501    0 -0.17497507766E+02 -0.43618759725E+00 -0.29075177437E+03  0.29127812712E+03  0.00000000000E+00 0.  1.
         -3    1    1    2    0  502  0.48160571032E+02 -0.42689159225E+00 -0.25824722422E+03  0.26269992702E+03  0.00000000000E+00 0. -1.
<mgrwt>
<rscale>  1 0.30000000E+03</rscale>
<asrwt>0</asrwt>
<pdfrwt beam="1">  1       21 0.10960106E-01 0.30000000E+03</pdfrwt>
<pdfrwt beam="2">0</pdfrwt>
<totfact> 0.72995753E+03</totfact>
</mgrwt>
</event>
<event>
 6    1  0.1280499E-001  0.3000000E+03  0.7818608E-02  0.1093470E+00
         21   -1    0    0  501  502  0.00000000000E+00  0.00000000000E+00  0.21603792376E+01  0.21603792376E+01  0.00000000000E+00 0. -1.
         13   -1    0    0    0    0 -0.00000000000E+00 -0.00000000000E+00 -0.10000000000E+04  0.10000000000E+04  0.00000000000E+00 0.  1.
    9000005    2    1    2  501    0  0.31875636447E+02  0.12093593908E+02 -0.83916212944E+03  0.83986171176E+03  0.35077317682E+01 0.  0.
         13    1    3    3    0    0  0.18230327449E+02  0.58656591470E+01 -0.43500499541E+03  0.43542633915E+03  0.00000000000E+00 0.  1.
          3    1    3    3  501    0  0.13645308998E+02  0.62279347608E+01 -0.40415713403E+03  0.40443537261E+03  0.00000000000E+00 0.  1.
         -1    1    1    2    0  502 -0.31875636447E+02 -0.12093593908E+02 -0.15867749132E+03  0.16229866748E+03  0.00000000000E+00 0. -1.
<mgrwt>
<rscale>  1 0.30000000E+03</rscale>
<asrwt>0</asrwt>
<pdfrwt beam="1">  1       21 0.78559411E-02 0.30000000E+03</pdfrwt>
<pdfrwt beam="2">0</pdfrwt>
<totfact> 0.13187943E+04</totfact>
</mgrwt>
</event>
<event>
 6    1  0.1280499E-001  0.3000000E+03  0.7818608E-02  0.1093470E+00
         21   -1    0    0  501  502  0.00000000000E+00  0.00000000000E+00  0.16915239756E+01  0.16915239756E+01  0.00000000000E+00 0. -1.
         13   -1    0    0    0    0 -0.00000000000E+00 -0.00000000000E+00 -0.10000000000E+04  0.10000000000E+04  0.00000000000E+00 0.  1.
    9000005    2    1    2  501    0  0.36015140187E+02  0.91447572972E+01 -0.71164370184E+03  0.71262853833E+03  0.46859762959E+01 0.  0.
         13    1    3    3    0    0  0.28430740029E+02  0.75304210661E+01 -0.59591215070E+03  0.59663749930E+03  0.00000000000E+00 0.  1.
          3    1    3    3  501    0  0.75844001576E+01  0.16143362311E+01 -0.11573155114E+03  0.11599103903E+03  0.00000000000E+00 0.  1.
         -1    1    1    2    0  502 -0.36015140187E+02 -0.91447572972E+01 -0.28666477419E+03  0.28906298564E+03  0.00000000000E+00 0. -1.
<mgrwt>
<rscale>  1 0.30000000E+03</rscale>
<asrwt>0</asrwt>
<pdfrwt beam="1">  1       21 0.61510092E-02 0.30000000E+03</pdfrwt>
<pdfrwt beam="2">0</pdfrwt>
<totfact> 0.20186990E+04</totfact>
</mgrwt>
</event>
<event>
 6    1  0.1280499E-001  0.3000000E+03  0.7818608E-02  0.1093470E+00
         21   -1    0    0  501  502  0.00000000000E+00  0.00000000000E+00  0.14403587359E+01  0.14403587359E+01  0.00000000000E+00 0. -1.
         13   -1    0    0    0    0 -0.00000000000E+00 -0.00000000000E+00 -0.10000000000E+04  0.10000000000E+04  0.00000000000E+00 0.  1.
    9000005    2    1    2  501    0 -0.44743951864E+00  0.35079044464E+02 -0.68880057709E+03  0.68970101666E+03  0.32431178755E+01 0.  0.
         13    1    3    3    0    0  0.11816741997E+01  0.24353913166E+02 -0.47879803539E+03  0.47941846870E+03  0.00000000000E+00 0.  1.
          1    1    3    3  501    0 -0.16291137184E+01  0.10725131298E+02 -0.21000254170E+03  0.21028254796E+03  0.00000000000E+00 0.  1.
         -3    1    1    2    0  502  0.44743951864E+00 -0.35079044464E+02 -0.30975906417E+03  0.31173934208E+03  0.00000000000E+00 0. -1.
<mgrwt>
<rscale>  1 0.30000000E+03</rscale>
<asrwt>0</asrwt>
<pdfrwt beam="1">  1       21 0.52376792E-02 0.30000000E+03</pdfrwt>
<pdfrwt beam="2">0</pdfrwt>
<totfact> 0.26609579E+04</totfact>
</mgrwt>
</event>
<event>
 6    1  0.1280499E-001  0.3000000E+03  0.7818608E-02  0.1093470E+00
         21   -1    0    0  501  502  0.00000000000E+00  0.00000000000E+00  0.11418362536E+01  0.11418362536E+01  0.00000000000E+00 0. -1.
         13   -1    0    0    0    0 -0.00000000000E+00 -0.00000000000E+00 -0.10000000000E+04  0.10000000000E+04  0.00000000000E+00 0.  1.
    9000005    2    1    2  501    0 -0.23509487303E+02  0.18890912514E+02 -0.72378327515E+03  0.72441858659E+03  0.32398517138E+01 0.  0.
         13    1    3    3    0    0 -0.18664570989E+02  0.15801949723E+02 -0.55765942771E+03  0.55819540050E+03  0.00000000000E+00 0.  1.
          1    1    3    3  501    0 -0.48449163149E+01  0.30889627908E+01 -0.16612384744E+03  0.16622318609E+03  0.00000000000E+00 0.  1.
         -3    1    1    2    0  502  0.23509487303E+02 -0.18890912514E+02 -0.27507488859E+03  0.27672324966E+03  0.00000000000E+00 0. -1.
<mgrwt>
<rscale>  1 0.30000000E+03</rscale>
<asrwt>0</asrwt>
<pdfrwt beam="1">  1       21 0.41521406E-02 0.30000000E+03</pdfrwt>
<pdfrwt beam="2">0</pdfrwt>
<totfact> 0.39482951E+04</totfact>
</mgrwt>
</event>
<event>
 6    1  0.1280499E-001  0.3000000E+03  0.7818608E-02  0.1093470E+00
         21   -1    0    0  501  502  0.00000000000E+00  0.00000000000E+00  0.12573252297E+01  0.12573252297E+01  0.00000000000E+00 0. -1.
         13   -1    0    0    0    0 -0.00000000000E+00 -0.00000000000E+00 -0.10000000000E+04  0.10000000000E+04  0.00000000000E+00 0.  1.
    9000005    2    1    2  501    0  0.71245327437E+01 -0.30383336833E+02 -0.73584467639E+03  0.73651355538E+03  0.33050502825E+01 0.  0.
         13    1    3    3    0    0  0.64173604422E+01 -0.29721635378E+02 -0.71028810600E+03  0.71093864127E+03  0.00000000000E+00 0.  1.
          3    1    3    3  501    0  0.70717230151E+00 -0.66170145490E+00 -0.25556570387E+02  0.25574914104E+02  0.00000000000E+00 0.  1.
         -1    1    1    2    0  502 -0.71245327437E+01  0.30383336833E+02 -0.26289799838E+03  0.26474376985E+03  0.00000000000E+00 0. -1.
<mgrwt>
<rscale>  1 0.30000000E+03</rscale>
<asrwt>0</asrwt>
<pdfrwt beam="1">  1       21 0.45721014E-02 0.30000000E+03</pdfrwt>
<pdfrwt beam="2">0</pdfrwt>
<totfact> 0.33540623E+04</totfact>
</mgrwt>
</event>
<event>
 6    1  0.1280499E-001  0.3000000E+03  0.7818608E-02  0.1093470E+00
         21   -1    0    0  501  502  0.00000000000E+00  0.00000000000E+00  0.15946582378E+01  0.15946582378E+01  0.00000000000E+00 0. -1.
         13   -1    0    0    0    0 -0.00000000000E+00 -0.00000000000E+00 -0.10000000000E+04  0.10000000000E+04  0.00000000000E+00 0.  1.
    9000005    2    1    2  501    0 -0.34094385192E+02 -0.14703894409E+02 -0.68213342028E+03  0.68315069153E+03  0.31988540830E+01 0.  0.
         13    1    3    3    0    0 -0.22756205878E+02 -0.84799091820E+01 -0.46139957108E+03  0.46203822132E+03  0.00000000000E+00 0.  1.
          1    1    3    3  501    0 -0.11338179313E+02 -0.62239852267E+01 -0.22073384920E+03  0.22111247021E+03  0.00000000000E+00 0.  1.
         -3    1    1    2    0  502  0.34094385192E+02  0.14703894409E+02 -0.31627192149E+03  0.31844396671E+03  0.00000000000E+00 0. -1.
<mgrwt>
<rscale>  1 0.30000000E+03</rscale>
<asrwt>0</asrwt>
<pdfrwt beam="1">  1       21 0.57987695E-02 0.30000000E+03</pdfrwt>
<pdfrwt beam="2">0</pdfrwt>
<totfact> 0.22347737E+04</totfact>
</mgrwt>
</event>
<event>
 6    1  0.1280499E-001  0.3000000E+03  0.7818608E-02  0.1093470E+00
         21   -1    0    0  501  502  0.00000000000E+00  0.00000000000E+00  0.12906582336E+01  0.12906582336E+01  0.00000000000E+00 0. -1.
         13   -1    0    0    0    0 -0.00000000000E+00 -0.00000000000E+00 -0.10000000000E+04  0.10000000000E+04  0.00000000000E+00 0.  1.
    9000005    2    1    2  501    0  0.11373944925E+02  0.31830267381E+02 -0.33393622497E+03  0.33565875593E+03  0.32962922695E+01 0.  0.
         13    1    3    3    0    0  0.29746403595E+01  0.96496467582E+01 -0.86040691276E+02  0.86631199479E+02  0.00000000000E+00 0.  1.
          3    1    3    3  501    0  0.83993045651E+01  0.22180620623E+02 -0.24789553369E+03  0.24902755646E+03  0.00000000000E+00 0.  1.
         -1    1    1    2    0  502 -0.11373944925E+02 -0.31830267381E+02 -0.66477311680E+03  0.66563190230E+03  0.00000000000E+00 0. -1.
<mgrwt>
<rscale>  1 0.30000000E+03</rscale>
<asrwt>0</asrwt>
<pdfrwt beam="1">  1       21 0.46933126E-02 0.30000000E+03</pdfrwt>
<pdfrwt beam="2">0</pdfrwt>
<totfact> 0.32081904E+04</totfact>
</mgrwt>
</event>
<event>
 6    1  0.1280499E-001  0.3000000E+03  0.7818608E-02  0.1093470E+00
         21   -1    0    0  501  502  0.00000000000E+00  0.00000000000E+00  0.10894788117E+01  0.10894788117E+01  0.00000000000E+00 0. -1.
         13   -1    0    0    0    0 -0.00000000000E+00 -0.00000000000E+00 -0.10000000000E+04  0.10000000000E+04  0.00000000000E+00 0.  1.
    9000005    2    1    2  501    0  0.47649406737E+01  0.32102550961E+02 -0.52835558031E+03  0.52941667822E+03  0.83139334576E+01 0.  0.
         13    1    3    3    0    0  0.47570008889E+01  0.25684285550E+02 -0.46603564245E+03  0.46676710640E+03  0.00000000000E+00 0.  1.
          1    1    3    3  501    0  0.79397848492E-02  0.64182654111E+01 -0.62319937863E+02  0.62649571820E+02  0.00000000000E+00 0.  1.
         -3    1    1    2    0  502 -0.47649406737E+01 -0.32102550961E+02 -0.47055494087E+03  0.47167280059E+03  0.00000000000E+00 0. -1.
<mgrwt>
<rscale>  1 0.30000000E+03</rscale>
<asrwt>0</asrwt>
<pdfrwt beam="1">  1       21 0.39617495E-02 0.30000000E+03</pdfrwt>
<pdfrwt beam="2">0</pdfrwt>
<totfact> 0.42733071E+04</totfact>
</mgrwt>
</event>
<event>
 6    1  0.1280499E-001  0.3000000E+03  0.7818608E-02  0.1093470E+00
         21   -1    0    0  501  502  0.00000000000E+00  0.00000000000E+00  0.32295611886E+01  0.32295611886E+01  0.00000000000E+00 0. -1.
         13   -1    0    0    0    0 -0.00000000000E+00 -0.00000000000E+00 -0.10000000000E+04  0.10000000000E+04  0.00000000000E+00 0.  1.
    9000005    2    1    2  501    0 -0.31849139932E+02  0.17043692128E+02 -0.88553105626E+03  0.88627206726E+03  0.28408532856E+01 0.  0.
         13    1    3    3    0    0 -0.44246179920E+01  0.13313851112E+01 -0.10723312662E+03  0.10733262913E+03  0.00000000000E+00 0.  1.
          1    1    3    3  501    0 -0.27424521940E+02  0.15712307017E+02 -0.77829792964E+03  0.77893943813E+03  0.00000000000E+00 0.  1.
         -3    1    1    2    0  502  0.31849139932E+02 -0.17043692128E+02 -0.11123938255E+03  0.11695749393E+03  0.00000000000E+00 0. -1.
<mgrwt>
<rscale>  1 0.30000000E+03</rscale>
<asrwt>0</asrwt>
<pdfrwt beam="1">  1       21 0.11743884E-01 0.30000000E+03</pdfrwt>
<pdfrwt beam="2">0</pdfrwt>
<totfact> 0.64442740E+03</totfact>
</mgrwt>
</event>
<event>
 6    1  0.1280499E-001  0.3000000E+03  0.7818608E-02  0.1093470E+00
         21   -1    0    0  501  502  0.00000000000E+00  0.00000000000E+00  0.10198224831E+01  0.10198224831E+01  0.00000000000E+00 0. -1.
         13   -1    0    0    0    0 -0.00000000000E+00 -0.00000000000E+00 -0.10000000000E+04  0.10000000000E+04  0.00000000000E+00 0.  1.
    9000005    2    1    2  501    0  0.30302256994E+02  0.72364719069E+01 -0.60426482535E+03  0.60507689409E+03  0.33875223015E+01 0.  0.
         13    1    3    3    0    0  0.17526512904E+02  0.31958194975E+01 -0.37104963703E+03  0.37147708550E+03  0.00000000000E+00 0.  1.
          3    1    3    3  501    0  0.12775744090E+02  0.40406524093E+01 -0.23321518832E+03  0.23359980859E+03  0.00000000000E+00 0.  1.
         -1    1    1    2    0  502 -0.30302256994E+02 -0.72364719069E+01 -0.39471535217E+03  0.39594292839E+03  0.00000000000E+00 0. -1.
<mgrwt>
<rscale>  1 0.30000000E+03</rscale>
<asrwt>0</asrwt>
<pdfrwt beam="1">  1       21 0.37084532E-02 0.30000000E+03</pdfrwt>
<pdfrwt beam="2">0</pdfrwt>
<totfact> 0.47752174E+04</totfact>
</mgrwt>
</event>
<event>
 6    1  0.1280499E-001  0.3000000E+03  0.7818608E-02  0.1093470E+00
         21   -1    0    0  501  502  0.00000000000E+00  0.00000000000E+00  0.10668108759E+01  0.10668108759E+01  0.00000000000E+00 0. -1.
         13   -1    0    0    0    0 -0.00000000000E+00 -0.00000000000E+00 -0.10000000000E+04  0.10000000000E+04  0.00000000000E+00 0.  1.
    9000005    2    1    2  501    0  0.19847718487E+02  0.23196083679E+02 -0.67595263992E+03  0.67664667373E+03  0.25998877211E+01 0.  0.
         13    1    3    3    0    0  0.16155794538E+00  0.79140514959E+00 -0.15712603590E+02  0.15733351031E+02  0.00000000000E+00 0.  1.
          1    1    3    3  501    0  0.19686160542E+02  0.22404678530E+02 -0.66024003633E+03  0.66091332269E+03  0.00000000000E+00 0.  1.
         -1    1    1    2    0  502 -0.19847718487E+02 -0.23196083679E+02 -0.32298054920E+03  0.32442013715E+03  0.00000000000E+00 0. -1.
<mgrwt>
<rscale>  1 0.30000000E+03</rscale>
<asrwt>0</asrwt>
<pdfrwt beam="1">  1       21 0.38793205E-02 0.30000000E+03</pdfrwt>
<pdfrwt beam="2">0</pdfrwt>
<totfact> 0.44271753E+04</totfact>
</mgrwt>
</event>
<event>
 6    1  0.1280499E-001  0.3000000E+03  0.7818608E-02  0.1093470E+00
         21   -1    0    0  501  502  0.00000000000E+00  0.00000000000E+00  0.91258928192E+00  0.91258928192E+00  0.00000000000E+00 0. -1.
         13   -1    0    0    0    0 -0.00000000000E+00 -0.00000000000E+00 -0.10000000000E+04  0.10000000000E+04  0.00000000000E+00 0.  1.
    9000005    2    1    2  501    0  0.29541668825E+02 -0.59187444074E+01 -0.49318031136E+03  0.49410914127E+03  0.30466776209E+01 0.  0.
         13    1    3    3    0    0  0.12377891056E+02 -0.23361013045E+01 -0.18217287972E+03  0.18260785214E+03  0.00000000000E+00 0.  1.
          1    1    3    3  501    0  0.17163777770E+02 -0.35826431028E+01 -0.31100743164E+03  0.31150128913E+03  0.00000000000E+00 0.  1.
         -1    1    1    2    0  502 -0.29541668825E+02  0.59187444074E+01 -0.50590709936E+03  0.50680344801E+03  0.00000000000E+00 0. -1.
<mgrwt>
<rscale>  1 0.30000000E+03</rscale>
<asrwt>0</asrwt>
<pdfrwt beam="1">  1       21 0.33185135E-02 0.30000000E+03</pdfrwt>
<pdfrwt beam="2">0</pdfrwt>
<totfact> 0.57514212E+04</totfact>
</mgrwt>
</event>
<event>
 6    1  0.1280499E-001  0.3000000E+03  0.7818608E-02  0.1093470E+00
         21   -1    0    0  501  502  0.00000000000E+00  0.00000000000E+00  0.32290032874E+01  0.32290032874E+01  0.00000000000E+00 0. -1.
         13   -1    0    0    0    0 -0.00000000000E+00 -0.00000000000E+00 -0.10000000000E+04  0.10000000000E+04  0.00000000000E+00 0.  1.
    9000005    2    1    2  501    0 -0.35863455262E+02 -0.39531039249E+02 -0.66971533450E+03  0.67184660081E+03  0.32148508302E+01 0.  0.
         13    1    3    3    0    0 -0.19065984820E+02 -0.23388128290E+02 -0.37789092703E+03  0.37909374705E+03  0.00000000000E+00 0.  1.
          1    1    3    3  501    0 -0.16797470442E+02 -0.16142910959E+02 -0.29182440748E+03  0.29275285376E+03  0.00000000000E+00 0.  1.
         -1    1    1    2    0  502  0.35863455262E+02  0.39531039249E+02 -0.32705566221E+03  0.33138240248E+03  0.00000000000E+00 0. -1.
<mgrwt>
<rscale>  1 0.30000000E+03</rscale>
<asrwt>0</asrwt>
<pdfrwt beam="1">  1       21 0.11741855E-01 0.30000000E+03</pdfrwt>
<pdfrwt beam="2">0</pdfrwt>
<totfact> 0.64462900E+03</totfact>
</mgrwt>
</event>
<event>
 6    1  0.1280499E-001  0.3000000E+03  0.7818608E-02  0.1093470E+00
         21   -1    0    0  501  502  0.00000000000E+00  0.00000000000E+00  0.49542368795E+01  0.49542368795E+01  0.00000000000E+00 0. -1.
         13   -1    0    0    0    0 -0.00000000000E+00 -0.00000000000E+00 -0.10000000000E+04  0.10000000000E+04  0.00000000000E+00 0.  1.
    9000005    2    1    2  501    0  0.11007664423E+02  0.36705337392E+02 -0.91856886255E+03  0.91941379738E+03  0.91937530238E+01 0.  0.
         13    1    3    3    0    0  0.26112511473E+01  0.12390731882E+01 -0.83351110035E+02  0.83401207899E+02  0.00000000000E+00 0.  1.
          3    1    3    3  501    0  0.83964132753E+01  0.35466264204E+02 -0.83521775252E+03  0.83601258948E+03  0.00000000000E+00 0.  1.
         -1    1    1    2    0  502 -0.11007664423E+02 -0.36705337392E+02 -0.76476900568E+02  0.85540439498E+02  0.00000000000E+00 0. -1.
<mgrwt>
<rscale>  1 0.30000000E+03</rscale>
<asrwt>0</asrwt>
<pdfrwt beam="1">  1       21 0.18015445E-01 0.30000000E+03</pdfrwt>
<pdfrwt beam="2">0</pdfrwt>
<totfact> 0.29248235E+03</totfact>
</mgrwt>
</event>
<event>
 6    1  0.1280499E-001  0.3000000E+03  0.7818608E-02  0.1093470E+00
         21   -1    0    0  501  502  0.00000000000E+00  0.00000000000E+00  0.25083996639E+01  0.25083996639E+01  0.00000000000E+00 0. -1.
         13   -1    0    0    0    0 -0.00000000000E+00 -0.00000000000E+00 -0.10000000000E+04  0.10000000000E+04  0.00000000000E+00 0.  1.
    9000005    2    1    2  501    0 -0.32114168247E+02 -0.31681590904E+02 -0.71577224365E+03  0.71720007708E+03  0.33170436344E+01 0.  0.
         13    1    3    3    0    0 -0.30513156786E+02 -0.28919731115E+02 -0.66449093887E+03  0.66581950364E+03  0.00000000000E+00 0.  1.
          3    1    3    3  501    0 -0.16010114606E+01 -0.27618597892E+01 -0.51281304773E+02  0.51380573434E+02  0.00000000000E+00 0.  1.
         -3    1    1    2    0  502  0.32114168247E+02  0.31681590904E+02 -0.28171935669E+03  0.28530832259E+03  0.00000000000E+00 0. -1.
<mgrwt>
<rscale>  1 0.30000000E+03</rscale>
<asrwt>0</asrwt>
<pdfrwt beam="1">  1       21 0.91214726E-02 0.30000000E+03</pdfrwt>
<pdfrwt beam="2">0</pdfrwt>
<totfact> 0.10134343E+04</totfact>
</mgrwt>
</event>
<event>
 6    1  0.1280499E-001  0.3000000E+03  0.7818608E-02  0.1093470E+00
         21   -1    0    0  501  502  0.00000000000E+00  0.00000000000E+00  0.32503604067E+01  0.32503604067E+01  0.00000000000E+00 0. -1.
         13   -1    0    0    0    0 -0.00000000000E+00 -0.00000000000E+00 -0.10000000000E+04  0.10000000000E+04  0.00000000000E+00 0.  1.
    9000005    2    1    2  501    0 -0.12704967704E+02 -0.34506577950E+02 -0.88159311726E+03  0.88236551950E+03  0.32195447836E+01 0.  0.
         13    1    3    3    0    0 -0.61998752463E+01 -0.15704024945E+02 -0.36776119884E+03  0.36814854912E+03  0.00000000000E+00 0.  1.
          1    1    3    3  501    0 -0.65050924572E+01 -0.18802553005E+02 -0.51383191842E+03  0.51421697037E+03  0.00000000000E+00 0.  1.
         -1    1    1    2    0  502  0.12704967704E+02  0.34506577950E+02 -0.11515652233E+03  0.12088484091E+03  0.00000000000E+00 0. -1.
<mgrwt>
<rscale>  1 0.30000000E+03</rscale>
<asrwt>0</asrwt>
<pdfrwt beam="1">  1       21 0.11819517E-01 0.30000000E+03</pdfrwt>
<pdfrwt beam="2">0</pdfrwt>
<totfact> 0.63697804E+03</totfact>
</mgrwt>
</event>
<event>
 6    1  0.1280499E-001  0.3000000E+03  0.7818608E-02  0.1093470E+00
         21   -1    0    0  501  502  0.00000000000E+00  0.00000000000E+00  0.22650613880E+01  0.22650613880E+01  0.00000000000E+00 0. -1.
         13   -1    0    0    0    0 -0.00000000000E+00 -0.00000000000E+00 -0.10000000000E+04  0.10000000000E+04  0.00000000000E+00 0.  1.
    9000005    2    1    2  501    0  0.19760413178E+02  0.42989894993E+02 -0.54815127375E+03  0.55019860973E+03  0.31758839588E+01 0.  0.
         13    1    3    3    0    0  0.10900197890E+01  0.44032006207E+01 -0.48161649983E+02  0.48374795585E+02  0.00000000000E+00 0.  1.
          1    1    3    3  501    0  0.18670393389E+02  0.38586694372E+02 -0.49998962377E+03  0.50182381415E+03  0.00000000000E+00 0.  1.
         -1    1    1    2    0  502 -0.19760413178E+02 -0.42989894993E+02 -0.44958366486E+03  0.45206645165E+03  0.00000000000E+00 0. -1.
<mgrwt>
<rscale>  1 0.30000000E+03</rscale>
<asrwt>0</asrwt>
<pdfrwt beam="1">  1       21 0.82366042E-02 0.30000000E+03</pdfrwt>
<pdfrwt beam="2">0</pdfrwt>
<totfact> 0.12135833E+04</totfact>
</mgrwt>
</event>
<event>
 6    1  0.1280499E-001  0.3000000E+03  0.7818608E-02  0.1093470E+00
         21   -1    0    0  501  502  0.00000000000E+00  0.00000000000E+00  0.59922297195E+01  0.59922297195E+01  0.00000000000E+00 0. -1.
         13   -1    0    0    0    0 -0.00000000000E+00 -0.00000000000E+00 -0.10000000000E+04  0.10000000000E+04  0.00000000000E+00 0.  1.
    9000005    2    1    2  501    0  0.55211933713E+02 -0.17441257308E+02 -0.83061109596E+03  0.83263990565E+03  0.46759673536E+01 0.  0.
         13    1    3    3    0    0  0.12554240997E+02 -0.30410883407E+01 -0.16146826887E+03  0.16198413205E+03  0.00000000000E+00 0.  1.
          3    1    3    3  501    0  0.42657692717E+02 -0.14400168967E+02 -0.66914282709E+03  0.67065577360E+03  0.00000000000E+00 0.  1.
         -1    1    1    2    0  502 -0.55211933713E+02  0.17441257308E+02 -0.16339667432E+03  0.17335232407E+03  0.00000000000E+00 0. -1.
<mgrwt>
<rscale>  1 0.30000000E+03</rscale>
<asrwt>0</asrwt>
<pdfrwt beam="1">  1       21 0.21789972E-01 0.30000000E+03</pdfrwt>
<pdfrwt beam="2">0</pdfrwt>
<totfact> 0.20358306E+03</totfact>
</mgrwt>
</event>
<event>
 6    1  0.1280499E-001  0.3000000E+03  0.7818608E-02  0.1093470E+00
         21   -1    0    0  501  502  0.00000000000E+00  0.00000000000E+00  0.68213384992E+01  0.68213384992E+01  0.00000000000E+00 0. -1.
         13   -1    0    0    0    0 -0.00000000000E+00 -0.00000000000E+00 -0.10000000000E+04  0.10000000000E+04  0.00000000000E+00 0.  1.
    9000005    2    1    2  501    0  0.66535946553E+02 -0.29381257056E+02 -0.25931341524E+03  0.26936049878E+03  0.46195811267E+01 0.  0.
         13    1    3    3    0    0  0.55935927536E+02 -0.24605778713E+02 -0.22377009576E+03  0.23196406638E+03  0.00000000000E+00 0.  1.
          3    1    3    3  501    0  0.10600019017E+02 -0.47754783429E+01 -0.35543319486E+02  0.37396432405E+02  0.00000000000E+00 0.  1.
         -1    1    1    2    0  502 -0.66535946553E+02  0.29381257056E+02 -0.73386524626E+03  0.73746083972E+03  0.00000000000E+00 0. -1.
<mgrwt>
<rscale>  1 0.30000000E+03</rscale>
<asrwt>0</asrwt>
<pdfrwt beam="1">  1       21 0.24804920E-01 0.30000000E+03</pdfrwt>
<pdfrwt beam="2">0</pdfrwt>
<totfact> 0.15836804E+03</totfact>
</mgrwt>
</event>
<event>
 6    1  0.1280499E-001  0.3000000E+03  0.7818608E-02  0.1093470E+00
         21   -1    0    0  501  502  0.00000000000E+00  0.00000000000E+00  0.30194661454E+01  0.30194661454E+01  0.00000000000E+00 0. -1.
         13   -1    0    0    0    0 -0.00000000000E+00 -0.00000000000E+00 -0.10000000000E+04  0.10000000000E+04  0.00000000000E+00 0.  1.
    9000005    2    1    2  501    0 -0.45867914971E+02 -0.27174123268E+02 -0.37945917900E+03  0.38320100699E+03  0.33829923546E+01 0.  0.
         13    1    3    3    0    0 -0.50636801431E+01 -0.41562242810E+01 -0.43161836746E+02  0.43656147427E+02  0.00000000000E+00 0.  1.
          1    1    3    3  501    0 -0.40804234828E+02 -0.23017898987E+02 -0.33629734225E+03  0.33954485957E+03  0.00000000000E+00 0.  1.
         -1    1    1    2    0  502  0.45867914971E+02  0.27174123268E+02 -0.61752135486E+03  0.61981845915E+03  0.00000000000E+00 0. -1.
<mgrwt>
<rscale>  1 0.30000000E+03</rscale>
<asrwt>0</asrwt>
<pdfrwt beam="1">  1       21 0.10979900E-01 0.30000000E+03</pdfrwt>
<pdfrwt beam="2">0</pdfrwt>
<totfact> 0.72759230E+03</totfact>
</mgrwt>
</event>
<event>
 6    1  0.1280499E-001  0.3000000E+03  0.7818608E-02  0.1093470E+00
         21   -1    0    0  501  502  0.00000000000E+00  0.00000000000E+00  0.30958505096E+01  0.30958505096E+01  0.00000000000E+00 0. -1.
         13   -1    0    0    0    0 -0.00000000000E+00 -0.00000000000E+00 -0.10000000000E+04  0.10000000000E+04  0.00000000000E+00 0.  1.
    9000005    2    1    2  501    0 -0.29017820828E+02  0.12690423827E+02 -0.91071227419E+03  0.91126927401E+03  0.34296684044E+01 0.  0.
         13    1    3    3    0    0 -0.33407542333E+01  0.22153067105E+01 -0.14348655665E+03  0.14354253781E+03  0.00000000000E+00 0.  1.
          1    1    3    3  501    0 -0.25677066595E+02  0.10475117116E+02 -0.76722571754E+03  0.76772673620E+03  0.00000000000E+00 0.  1.
         -3    1    1    2    0  502  0.29017820828E+02 -0.12690423827E+02 -0.86191875305E+02  0.91826576497E+02  0.00000000000E+00 0. -1.
<mgrwt>
<rscale>  1 0.30000000E+03</rscale>
<asrwt>0</asrwt>
<pdfrwt beam="1">  1       21 0.11257662E-01 0.30000000E+03</pdfrwt>
<pdfrwt beam="2">0</pdfrwt>
<totfact> 0.69558386E+03</totfact>
</mgrwt>
</event>
<event>
 6    1  0.1280499E-001  0.3000000E+03  0.7818608E-02  0.1093470E+00
         21   -1    0    0  501  502  0.00000000000E+00  0.00000000000E+00  0.13265775769E+01  0.13265775769E+01  0.00000000000E+00 0. -1.
         13   -1    0    0    0    0 -0.00000000000E+00 -0.00000000000E+00 -0.10000000000E+04  0.10000000000E+04  0.00000000000E+00 0.  1.
    9000005    2    1    2  501    0  0.16352231646E+02 -0.30885947050E+02 -0.63797933542E+03  0.63894340798E+03  0.31159234233E+01 0.  0.
         13    1    3    3    0    0  0.87770087260E+01 -0.13457453864E+02 -0.30190680862E+03  0.30233402065E+03  0.00000000000E+00 0.  1.
          3    1    3    3  501    0  0.75752229200E+01 -0.17428493186E+02 -0.33607252679E+03  0.33660938734E+03  0.00000000000E+00 0.  1.
         -3    1    1    2    0  502 -0.16352231646E+02  0.30885947050E+02 -0.36069408701E+03  0.36238316960E+03  0.00000000000E+00 0. -1.
<mgrwt>
<rscale>  1 0.30000000E+03</rscale>
<asrwt>0</asrwt>
<pdfrwt beam="1">  1       21 0.48239286E-02 0.30000000E+03</pdfrwt>
<pdfrwt beam="2">0</pdfrwt>
<totfact> 0.30618334E+04</totfact>
</mgrwt>
</event>
<event>
 6    1  0.1280499E-001  0.3000000E+03  0.7818608E-02  0.1093470E+00
         21   -1    0    0  501  502  0.00000000000E+00  0.00000000000E+00  0.12008798886E+01  0.12008798886E+01  0.00000000000E+00 0. -1.
         13   -1    0    0    0    0 -0.00000000000E+00 -0.00000000000E+00 -0.10000000000E+04  0.10000000000E+04  0.00000000000E+00 0.  1.
    9000005    2    1    2  501    0 -0.22042659682E+02  0.21467781280E+02 -0.72846508517E+03  0.72912141553E+03  0.31486173409E+01 0.  0.
         13    1    3    3    0    0 -0.11272772772E+02  0.10789671946E+02 -0.33239447330E+03  0.33276054200E+03  0.00000000000E+00 0.  1.
          3    1    3    3  501    0 -0.10769886910E+02  0.10678109333E+02 -0.39607061187E+03  0.39636087354E+03  0.00000000000E+00 0.  1.
         -3    1    1    2    0  502  0.22042659682E+02 -0.21467781280E+02 -0.27033403494E+03  0.27207946436E+03  0.00000000000E+00 0. -1.
<mgrwt>
<rscale>  1 0.30000000E+03</rscale>
<asrwt>0</asrwt>
<pdfrwt beam="1">  1       21 0.43668452E-02 0.30000000E+03</pdfrwt>
<pdfrwt beam="2">0</pdfrwt>
<totfact> 0.36257875E+04</totfact>
</mgrwt>
</event>
<event>
 6    1  0.1280499E-001  0.3000000E+03  0.7818608E-02  0.1093470E+00
         21   -1    0    0  501  502  0.00000000000E+00  0.00000000000E+00  0.12788026579E+01  0.12788026579E+01  0.00000000000E+00 0. -1.
         13   -1    0    0    0    0 -0.00000000000E+00 -0.00000000000E+00 -0.10000000000E+04  0.10000000000E+04  0.00000000000E+00 0.  1.
    9000005    2    1    2  501    0 -0.44090699881E+01  0.33426280161E+02 -0.65429819193E+03  0.65520949925E+03  0.75238183132E+01 0.  0.
         13    1    3    3    0    0 -0.25512039537E+01  0.12372976355E+02 -0.18149012896E+03  0.18192928872E+03  0.00000000000E+00 0.  1.
          1    1    3    3  501    0 -0.18578660344E+01  0.21053303805E+02 -0.47280806297E+03  0.47328021052E+03  0.00000000000E+00 0.  1.
         -3    1    1    2    0  502  0.44090699881E+01 -0.33426280161E+02 -0.34442300541E+03  0.34606930341E+03  0.00000000000E+00 0. -1.
<mgrwt>
<rscale>  1 0.30000000E+03</rscale>
<asrwt>0</asrwt>
<pdfrwt beam="1">  1       21 0.46502013E-02 0.30000000E+03</pdfrwt>
<pdfrwt beam="2">0</pdfrwt>
<totfact> 0.32589125E+04</totfact>
</mgrwt>
</event>
<event>
 6    1  0.1280499E-001  0.3000000E+03  0.7818608E-02  0.1093470E+00
         21   -1    0    0  501  502  0.00000000000E+00  0.00000000000E+00  0.18418456555E+01  0.18418456555E+01  0.00000000000E+00 0. -1.
         13   -1    0    0    0    0 -0.00000000000E+00 -0.00000000000E+00 -0.10000000000E+04  0.10000000000E+04  0.00000000000E+00 0.  1.
    9000005    2    1    2  501    0  0.95127004688E+00 -0.32611763562E+02 -0.82421247752E+03  0.82486294713E+03  0.28707858161E+01 0.  0.
         13    1    3    3    0    0 -0.77748176450E+00 -0.43801102321E+01 -0.12188146012E+03  0.12196261790E+03  0.00000000000E+00 0.  1.
          3    1    3    3  501    0  0.17287518114E+01 -0.28231653329E+02 -0.70233101741E+03  0.70290032924E+03  0.00000000000E+00 0.  1.
         -1    1    1    2    0  502 -0.95127004688E+00  0.32611763562E+02 -0.17394567682E+03  0.17697889852E+03  0.00000000000E+00 0. -1.
<mgrwt>
<rscale>  1 0.30000000E+03</rscale>
<asrwt>0</asrwt>
<pdfrwt beam="1">  1       21 0.66976347E-02 0.30000000E+03</pdfrwt>
<pdfrwt beam="2">0</pdfrwt>
<totfact> 0.17421848E+04</totfact>
</mgrwt>
</event>
<event>
 6    1  0.1280499E-001  0.3000000E+03  0.7818608E-02  0.1093470E+00
         21   -1    0    0  501  502  0.00000000000E+00  0.00000000000E+00  0.23250468949E+01  0.23250468949E+01  0.00000000000E+00 0. -1.
         13   -1    0    0    0    0 -0.00000000000E+00 -0.00000000000E+00 -0.10000000000E+04  0.10000000000E+04  0.00000000000E+00 0.  1.
    9000005    2    1    2  501    0 -0.47252167632E+02  0.97418094461E-01 -0.59609993086E+03  0.59797955685E+03  0.34126224187E+01 0.  0.
         13    1    3    3    0    0 -0.41474574403E+01  0.93539129425E+00 -0.57280970151E+02  0.57438540211E+02  0.00000000000E+00 0.  1.
          3    1    3    3  501    0 -0.43104710191E+02 -0.83797319979E+00 -0.53881896071E+03  0.54054101663E+03  0.00000000000E+00 0.  1.
         -3    1    1    2    0  502  0.47252167632E+02 -0.97418094461E-01 -0.40157502224E+03  0.40434549005E+03  0.00000000000E+00 0. -1.
<mgrwt>
<rscale>  1 0.30000000E+03</rscale>
<asrwt>0</asrwt>
<pdfrwt beam="1">  1       21 0.84547338E-02 0.30000000E+03</pdfrwt>
<pdfrwt beam="2">0</pdfrwt>
<totfact> 0.11589856E+04</totfact>
</mgrwt>
</event>
<event>
 6    1  0.1280499E-001  0.3000000E+03  0.7818608E-02  0.1093470E+00
         21   -1    0    0  501  502  0.00000000000E+00  0.00000000000E+00  0.33059446627E+01  0.33059446627E+01  0.00000000000E+00 0. -1.
         13   -1    0    0    0    0 -0.00000000000E+00 -0.00000000000E+00 -0.10000000000E+04  0.10000000000E+04  0.00000000000E+00 0.  1.
    9000005    2    1    2  501    0 -0.31628037321E+01 -0.31685573330E+02 -0.91595763198E+03  0.91651683854E+03  0.32791559631E+01 0.  0.
         13    1    3    3    0    0 -0.31089311900E+01 -0.15001234599E+02 -0.42888653095E+03  0.42916006212E+03  0.00000000000E+00 0.  1.
          3    1    3    3  501    0 -0.53872542122E-01 -0.16684338732E+02 -0.48707110103E+03  0.48735677642E+03  0.00000000000E+00 0.  1.
         -3    1    1    2    0  502  0.31628037321E+01  0.31685573330E+02 -0.80736423359E+02  0.86789106122E+02  0.00000000000E+00 0. -1.
<mgrwt>
<rscale>  1 0.30000000E+03</rscale>
<asrwt>0</asrwt>
<pdfrwt beam="1">  1       21 0.12021642E-01 0.30000000E+03</pdfrwt>
<pdfrwt beam="2">0</pdfrwt>
<totfact> 0.61768844E+03</totfact>
</mgrwt>
</event>
<event>
 6    1  0.1280499E-001  0.3000000E+03  0.7818608E-02  0.1093470E+00
         21   -1    0    0  501  502  0.00000000000E+00  0.00000000000E+00  0.22650606899E+01  0.22650606899E+01  0.00000000000E+00 0. -1.
         13   -1    0    0    0    0 -0.00000000000E+00 -0.00000000000E+00 -0.10000000000E+04  0.10000000000E+04  0.00000000000E+00 0.  1.
    9000005    2    1    2  501    0 -0.20146767917E+02  0.41839441814E+02 -0.39281459977E+03  0.39556493020E+03  0.34457309532E+01 0.  0.
         13    1    3    3    0    0 -0.39247564592E+01  0.10696000481E+02 -0.10486577726E+03  0.10548288667E+03  0.00000000000E+00 0.  1.
          1    1    3    3  501    0 -0.16222011458E+02  0.31143441333E+02 -0.28794882250E+03  0.29008204352E+03  0.00000000000E+00 0.  1.
         -1    1    1    2    0  502  0.20146767917E+02 -0.41839441814E+02 -0.60492033954E+03  0.60670013049E+03  0.00000000000E+00 0. -1.
<mgrwt>
<rscale>  1 0.30000000E+03</rscale>
<asrwt>0</asrwt>
<pdfrwt beam="1">  1       21 0.82366017E-02 0.30000000E+03</pdfrwt>
<pdfrwt beam="2">0</pdfrwt>
<totfact> 0.12135839E+04</totfact>
</mgrwt>
</event>
<event>
 6    1  0.1280499E-001  0.3000000E+03  0.7818608E-02  0.1093470E+00
         21   -1    0    0  501  502  0.00000000000E+00  0.00000000000E+00  0.16197281229E+01  0.16197281229E+01  0.00000000000E+00 0. -1.
         13   -1    0    0    0    0 -0.00000000000E+00 -0.00000000000E+00 -0.10000000000E+04  0.10000000000E+04  0.00000000000E+00 0.  1.
    9000005    2    1    2  501    0 -0.31096855753E+02 -0.23653495858E+02 -0.38230501682E+03  0.38430682351E+03  0.28471756136E+01 0.  0.
         13    1    3    3    0    0 -0.18374191742E+02 -0.15032937498E+02 -0.22107230267E+03  0.22234334517E+03  0.00000000000E+00 0.  1.
          1    1    3    3  501    0 -0.12722664011E+02 -0.86205583595E+01 -0.16123271415E+03  0.16196347834E+03  0.00000000000E+00 0.  1.
         -1    1    1    2    0  502  0.31096855753E+02  0.23653495858E+02 -0.61607525506E+03  0.61731290461E+03  0.00000000000E+00 0. -1.
<mgrwt>
<rscale>  1 0.30000000E+03</rscale>
<asrwt>0</asrwt>
<pdfrwt beam="1">  1       21 0.58899329E-02 0.30000000E+03</pdfrwt>
<pdfrwt beam="2">0</pdfrwt>
<totfact> 0.21755127E+04</totfact>
</mgrwt>
</event>
<event>
 6    1  0.1280499E-001  0.3000000E+03  0.7818608E-02  0.1093470E+00
         21   -1    0    0  501  502  0.00000000000E+00  0.00000000000E+00  0.15182762861E+01  0.15182762861E+01  0.00000000000E+00 0. -1.
         13   -1    0    0    0    0 -0.00000000000E+00 -0.00000000000E+00 -0.10000000000E+04  0.10000000000E+04  0.00000000000E+00 0.  1.
    9000005    2    1    2  501    0  0.36787306833E+02 -0.76544691654E+01 -0.61154705784E+03  0.61276342744E+03  0.87930210732E+01 0.  0.
         13    1    3    3    0    0  0.66996933688E+01 -0.50506876517E+01 -0.13345848769E+03  0.13372196257E+03  0.00000000000E+00 0.  1.
          1    1    3    3  501    0  0.30087613465E+02 -0.26037815137E+01 -0.47808857015E+03  0.47904146487E+03  0.00000000000E+00 0.  1.
         -3    1    1    2    0  502 -0.36787306833E+02  0.76544691654E+01 -0.38693466588E+03  0.38875484884E+03  0.00000000000E+00 0. -1.
<mgrwt>
<rscale>  1 0.30000000E+03</rscale>
<asrwt>0</asrwt>
<pdfrwt beam="1">  1       21 0.55210163E-02 0.30000000E+03</pdfrwt>
<pdfrwt beam="2">0</pdfrwt>
<totfact> 0.24314599E+04</totfact>
</mgrwt>
</event>
<event>
 6    1  0.1280499E-001  0.3000000E+03  0.7818608E-02  0.1093470E+00
         21   -1    0    0  501  502  0.00000000000E+00  0.00000000000E+00  0.11845100243E+01  0.11845100243E+01  0.00000000000E+00 0. -1.
         13   -1    0    0    0    0 -0.00000000000E+00 -0.00000000000E+00 -0.10000000000E+04  0.10000000000E+04  0.00000000000E+00 0.  1.
    9000005    2    1    2  501    0 -0.23771025754E+02  0.24105830075E+02 -0.58344356140E+03  0.58443519478E+03  0.34575783264E+01 0.  0.
         13    1    3    3    0    0 -0.23614967962E+02  0.23504567534E+02 -0.56533654689E+03  0.56631752812E+03  0.00000000000E+00 0.  1.
          1    1    3    3  501    0 -0.15605779160E+00  0.60126254096E+00 -0.18107014510E+02  0.18117666658E+02  0.00000000000E+00 0.  1.
         -1    1    1    2    0  502  0.23771025754E+02 -0.24105830075E+02 -0.41537192858E+03  0.41674931525E+03  0.00000000000E+00 0. -1.
<mgrwt>
<rscale>  1 0.30000000E+03</rscale>
<asrwt>0</asrwt>
<pdfrwt beam="1">  1       21 0.43073183E-02 0.30000000E+03</pdfrwt>
<pdfrwt beam="2">0</pdfrwt>
<totfact> 0.37109861E+04</totfact>
</mgrwt>
</event>
<event>
 6    1  0.1280499E-001  0.3000000E+03  0.7818608E-02  0.1093470E+00
         21   -1    0    0  501  502  0.00000000000E+00  0.00000000000E+00  0.31771573380E+01  0.31771573380E+01  0.00000000000E+00 0. -1.
         13   -1    0    0    0    0 -0.00000000000E+00 -0.00000000000E+00 -0.10000000000E+04  0.10000000000E+04  0.00000000000E+00 0.  1.
    9000005    2    1    2  501    0  0.41777348426E+02 -0.35576328956E+02 -0.61211768117E+03  0.61457828536E+03  0.27186784286E+01 0.  0.
         13    1    3    3    0    0  0.32471231584E+02 -0.27828549601E+02 -0.48915530280E+03  0.49102109864E+03  0.00000000000E+00 0.  1.
          3    1    3    3  501    0  0.93061168416E+01 -0.77477793546E+01 -0.12296237837E+03  0.12355718672E+03  0.00000000000E+00 0.  1.
         -1    1    1    2    0  502 -0.41777348426E+02  0.35576328956E+02 -0.38470516150E+03  0.38859887198E+03  0.00000000000E+00 0. -1.
<mgrwt>
<rscale>  1 0.30000000E+03</rscale>
<asrwt>0</asrwt>
<pdfrwt beam="1">  1       21 0.11553324E-01 0.30000000E+03</pdfrwt>
<pdfrwt beam="2">0</pdfrwt>
<totfact> 0.66378327E+03</totfact>
</mgrwt>
</event>
<event>
 6    1  0.1280499E-001  0.3000000E+03  0.7818608E-02  0.1093470E+00
         21   -1    0    0  501  502  0.00000000000E+00  0.00000000000E+00  0.18286256751E+01  0.18286256751E+01  0.00000000000E+00 0. -1.
         13   -1    0    0    0    0 -0.00000000000E+00 -0.00000000000E+00 -0.10000000000E+04  0.10000000000E+04  0.00000000000E+00 0.  1.
    9000005    2    1    2  501    0  0.40049174859E+02 -0.51517938003E+01 -0.66220685158E+03  0.66344624149E+03  0.35388806531E+01 0.  0.
         13    1    3    3    0    0  0.10160602079E+02 -0.72249158371E+00 -0.19135107637E+03  0.19162200880E+03  0.00000000000E+00 0.  1.
          1    1    3    3  501    0  0.29888572779E+02 -0.44293022166E+01 -0.47085577522E+03  0.47182423269E+03  0.00000000000E+00 0.  1.
         -3    1    1    2    0  502 -0.40049174859E+02  0.51517938003E+01 -0.33596452274E+03  0.33838238419E+03  0.00000000000E+00 0. -1.
<mgrwt>
<rscale>  1 0.30000000E+03</rscale>
<asrwt>0</asrwt>
<pdfrwt beam="1">  1       21 0.66495619E-02 0.30000000E+03</pdfrwt>
<pdfrwt beam="2">0</pdfrwt>
<totfact> 0.17640857E+04</totfact>
</mgrwt>
</event>
<event>
 6    1  0.1280499E-001  0.3000000E+03  0.7818608E-02  0.1093470E+00
         21   -1    0    0  501  502  0.00000000000E+00  0.00000000000E+00  0.17426249510E+01  0.17426249510E+01  0.00000000000E+00 0. -1.
         13   -1    0    0    0    0 -0.00000000000E+00 -0.00000000000E+00 -0.10000000000E+04  0.10000000000E+04  0.00000000000E+00 0.  1.
    9000005    2    1    2  501    0 -0.38488482658E+02 -0.15273730843E+02 -0.44734482765E+03  0.44927607843E+03  0.41169972753E+01 0.  0.
         13    1    3    3    0    0 -0.16271255544E+01 -0.15006303465E+01 -0.19393823746E+02  0.19519729212E+02  0.00000000000E+00 0.  1.
          1    1    3    3  501    0 -0.36861357104E+02 -0.13773100496E+02 -0.42795100391E+03  0.42975634921E+03  0.00000000000E+00 0.  1.
         -1    1    1    2    0  502  0.38488482658E+02  0.15273730843E+02 -0.55091254740E+03  0.55246654652E+03  0.00000000000E+00 0. -1.
<mgrwt>
<rscale>  1 0.30000000E+03</rscale>
<asrwt>0</asrwt>
<pdfrwt beam="1">  1       21 0.63368314E-02 0.30000000E+03</pdfrwt>
<pdfrwt beam="2">0</pdfrwt>
<totfact> 0.19175207E+04</totfact>
</mgrwt>
</event>
<event>
 6    1  0.1280499E-001  0.3000000E+03  0.7818608E-02  0.1093470E+00
         21   -1    0    0  501  502  0.00000000000E+00  0.00000000000E+00  0.19327709488E+01  0.19327709488E+01  0.00000000000E+00 0. -1.
         13   -1    0    0    0    0 -0.00000000000E+00 -0.00000000000E+00 -0.10000000000E+04  0.10000000000E+04  0.00000000000E+00 0.  1.
    9000005    2    1    2  501    0 -0.43002781753E+02 -0.86151411824E+01 -0.47872079260E+03  0.48073781611E+03  0.34337549955E+01 0.  0.
         13    1    3    3    0    0 -0.32320736137E+02 -0.61871501512E+01 -0.34249454991E+03  0.34407183484E+03  0.00000000000E+00 0.  1.
          1    1    3    3  501    0 -0.10682045616E+02 -0.24279910313E+01 -0.13622624269E+03  0.13666598127E+03  0.00000000000E+00 0.  1.
         -1    1    1    2    0  502  0.43002781753E+02  0.86151411824E+01 -0.51934643645E+03  0.52119495484E+03  0.00000000000E+00 0. -1.
<mgrwt>
<rscale>  1 0.30000000E+03</rscale>
<asrwt>0</asrwt>
<pdfrwt beam="1">  1       21 0.70282728E-02 0.30000000E+03</pdfrwt>
<pdfrwt beam="2">0</pdfrwt>
<totfact> 0.16022475E+04</totfact>
</mgrwt>
</event>
<event>
 6    1  0.1280499E-001  0.3000000E+03  0.7818608E-02  0.1093470E+00
         21   -1    0    0  501  502  0.00000000000E+00  0.00000000000E+00  0.12016572273E+01  0.12016572273E+01  0.00000000000E+00 0. -1.
         13   -1    0    0    0    0 -0.00000000000E+00 -0.00000000000E+00 -0.10000000000E+04  0.10000000000E+04  0.00000000000E+00 0.  1.
    9000005    2    1    2  501    0 -0.94997641668E+00 -0.30924804035E+02 -0.72416544813E+03  0.72483148376E+03  0.27995770796E+01 0.  0.
         13    1    3    3    0    0 -0.61508205563E+00 -0.26168314909E+02 -0.63386391622E+03  0.63440414825E+03  0.00000000000E+00 0.  1.
          1    1    3    3  501    0 -0.33489436105E+00 -0.47564891257E+01 -0.90301531915E+02  0.90427335519E+02  0.00000000000E+00 0.  1.
         -1    1    1    2    0  502  0.94997641668E+00  0.30924804035E+02 -0.27463289464E+03  0.27637017346E+03  0.00000000000E+00 0. -1.
<mgrwt>
<rscale>  1 0.30000000E+03</rscale>
<asrwt>0</asrwt>
<pdfrwt beam="1">  1       21 0.43696719E-02 0.30000000E+03</pdfrwt>
<pdfrwt beam="2">0</pdfrwt>
<totfact> 0.36218173E+04</totfact>
</mgrwt>
</event>
<event>
 6    1  0.1280499E-001  0.3000000E+03  0.7818608E-02  0.1093470E+00
         21   -1    0    0  501  502  0.00000000000E+00  0.00000000000E+00  0.12628962075E+01  0.12628962075E+01  0.00000000000E+00 0. -1.
         13   -1    0    0    0    0 -0.00000000000E+00 -0.00000000000E+00 -0.10000000000E+04  0.10000000000E+04  0.00000000000E+00 0.  1.
    9000005    2    1    2  501    0  0.26700120686E+02 -0.20212820109E+02 -0.66551008296E+03  0.66635738423E+03  0.26530081175E+01 0.  0.
         13    1    3    3    0    0  0.26367742331E+02 -0.19935131554E+02 -0.66115536610E+03  0.66198118208E+03  0.00000000000E+00 0.  1.
          1    1    3    3  501    0  0.33237835499E+00 -0.27768855453E+00 -0.43547168618E+01  0.43762021492E+01  0.00000000000E+00 0.  1.
         -3    1    1    2    0  502 -0.26700120686E+02  0.20212820109E+02 -0.33322702083E+03  0.33490551198E+03  0.00000000000E+00 0. -1.
<mgrwt>
<rscale>  1 0.30000000E+03</rscale>
<asrwt>0</asrwt>
<pdfrwt beam="1">  1       21 0.45923595E-02 0.30000000E+03</pdfrwt>
<pdfrwt beam="2">0</pdfrwt>
<totfact> 0.33289668E+04</totfact>
</mgrwt>
</event>
<event>
 6    1  0.1280499E-001  0.3000000E+03  0.7818608E-02  0.1093470E+00
         21   -1    0    0  501  502  0.00000000000E+00  0.00000000000E+00  0.34868601548E+01  0.34868601548E+01  0.00000000000E+00 0. -1.
         13   -1    0    0    0    0 -0.00000000000E+00 -0.00000000000E+00 -0.10000000000E+04  0.10000000000E+04  0.00000000000E+00 0.  1.
    9000005    2    1    2  501    0  0.25657371175E+01 -0.55950581734E+02 -0.34243584411E+03  0.34701587116E+03  0.45449860573E+01 0.  0.
         13    1    3    3    0    0  0.35892398890E+01 -0.28774457855E+02 -0.17753812740E+03  0.17989062996E+03  0.00000000000E+00 0.  1.
          3    1    3    3  501    0 -0.10235027715E+01 -0.27176123879E+02 -0.16489771672E+03  0.16712524120E+03  0.00000000000E+00 0.  1.
         -1    1    1    2    0  502 -0.25657371175E+01  0.55950581734E+02 -0.65407729573E+03  0.65647098900E+03  0.00000000000E+00 0. -1.
<mgrwt>
<rscale>  1 0.30000000E+03</rscale>
<asrwt>0</asrwt>
<pdfrwt beam="1">  1       21 0.12679518E-01 0.30000000E+03</pdfrwt>
<pdfrwt beam="2">0</pdfrwt>
<totfact> 0.56061202E+03</totfact>
</mgrwt>
</event>
<event>
 6    1  0.1280499E-001  0.3000000E+03  0.7818608E-02  0.1093470E+00
         21   -1    0    0  501  502  0.00000000000E+00  0.00000000000E+00  0.18515344027E+01  0.18515344027E+01  0.00000000000E+00 0. -1.
         13   -1    0    0    0    0 -0.00000000000E+00 -0.00000000000E+00 -0.10000000000E+04  0.10000000000E+04  0.00000000000E+00 0.  1.
    9000005    2    1    2  501    0 -0.78958624526E+01  0.33663548927E+02 -0.79669932179E+03  0.79745648380E+03  0.33845300045E+01 0.  0.
         13    1    3    3    0    0 -0.70883182098E+01  0.32747616020E+02 -0.77273375993E+03  0.77345983370E+03  0.00000000000E+00 0.  1.
          1    1    3    3  501    0 -0.80754424282E+00  0.91593290697E+00 -0.23965561860E+02  0.23996650101E+02  0.00000000000E+00 0.  1.
         -1    1    1    2    0  502  0.78958624526E+01 -0.33663548927E+02 -0.20144914381E+03  0.20439505060E+03  0.00000000000E+00 0. -1.
<mgrwt>
<rscale>  1 0.30000000E+03</rscale>
<asrwt>0</asrwt>
<pdfrwt beam="1">  1       21 0.67328666E-02 0.30000000E+03</pdfrwt>
<pdfrwt beam="2">0</pdfrwt>
<totfact> 0.17263983E+04</totfact>
</mgrwt>
</event>
<event>
 6    1  0.1280499E-001  0.3000000E+03  0.7818608E-02  0.1093470E+00
         21   -1    0    0  501  502  0.00000000000E+00  0.00000000000E+00  0.11912962503E+02  0.11912962503E+02  0.00000000000E+00 0. -1.
         13   -1    0    0    0    0 -0.00000000000E+00 -0.00000000000E+00 -0.10000000000E+04  0.10000000000E+04  0.00000000000E+00 0.  1.
    9000005    2    1    2  501    0 -0.37077840939E+02 -0.42539660035E+01 -0.96949439394E+03  0.97021705251E+03  0.29810393818E+01 0.  0.
         13    1    3    3    0    0 -0.26208979150E+02 -0.22829849411E+01 -0.71183438060E+03  0.71232036894E+03  0.00000000000E+00 0.  1.
          1    1    3    3  501    0 -0.10868861789E+02 -0.19709810624E+01 -0.25766001334E+03  0.25789668357E+03  0.00000000000E+00 0.  1.
         -3    1    1    2    0  502  0.37077840939E+02  0.42539660035E+01 -0.18592643561E+02  0.41695909992E+02  0.00000000000E+00 0. -1.
<mgrwt>
<rscale>  1 0.30000000E+03</rscale>
<asrwt>0</asrwt>
<pdfrwt beam="1">  1       21 0.43319955E-01 0.30000000E+03</pdfrwt>
<pdfrwt beam="2">0</pdfrwt>
<totfact> 0.51072376E+02</totfact>
</mgrwt>
</event>
<event>
 6    1  0.1280499E-001  0.3000000E+03  0.7818608E-02  0.1093470E+00
         21   -1    0    0  501  502  0.00000000000E+00  0.00000000000E+00  0.13616283478E+01  0.13616283478E+01  0.00000000000E+00 0. -1.
         13   -1    0    0    0    0 -0.00000000000E+00 -0.00000000000E+00 -0.10000000000E+04  0.10000000000E+04  0.00000000000E+00 0.  1.
    9000005    2    1    2  501    0  0.29606381138E+02  0.82115916925E+01 -0.77574824340E+03  0.77636390099E+03  0.34061100901E+01 0.  0.
         13    1    3    3    0    0  0.17817268329E+02  0.59679165536E+01 -0.43920324732E+03  0.43960500854E+03  0.00000000000E+00 0.  1.
          1    1    3    3  501    0  0.11789112809E+02  0.22436751389E+01 -0.33654499608E+03  0.33675889245E+03  0.00000000000E+00 0.  1.
         -1    1    1    2    0  502 -0.29606381138E+02 -0.82115916925E+01 -0.22289012825E+03  0.22499772736E+03  0.00000000000E+00 0. -1.
<mgrwt>
<rscale>  1 0.30000000E+03</rscale>
<asrwt>0</asrwt>
<pdfrwt beam="1">  1       21 0.49513863E-02 0.30000000E+03</pdfrwt>
<pdfrwt beam="2">0</pdfrwt>
<totfact> 0.29288319E+04</totfact>
</mgrwt>
</event>
<event>
 6    1  0.1280499E-001  0.3000000E+03  0.7818608E-02  0.1093470E+00
         21   -1    0    0  501  502  0.00000000000E+00  0.00000000000E+00  0.35439543239E+01  0.35439543239E+01  0.00000000000E+00 0. -1.
         13   -1    0    0    0    0 -0.00000000000E+00 -0.00000000000E+00 -0.10000000000E+04  0.10000000000E+04  0.00000000000E+00 0.  1.
    9000005    2    1    2  501    0  0.23380177447E+02  0.23705431847E+02 -0.91408817985E+03  0.91470114079E+03  0.35208262958E+01 0.  0.
         13    1    3    3    0    0  0.15263624894E+01  0.13400831622E+01 -0.83136973041E+02  0.83161781437E+02  0.00000000000E+00 0.  1.
          3    1    3    3  501    0  0.21853814958E+02  0.22365348684E+02 -0.83095120681E+03  0.83153935935E+03  0.00000000000E+00 0.  1.
         -3    1    1    2    0  502 -0.23380177447E+02 -0.23705431847E+02 -0.82367865824E+02  0.88842813535E+02  0.00000000000E+00 0. -1.
<mgrwt>
<rscale>  1 0.30000000E+03</rscale>
<asrwt>0</asrwt>
<pdfrwt beam="1">  1       21 0.12887134E-01 0.30000000E+03</pdfrwt>
<pdfrwt beam="2">0</pdfrwt>
<totfact> 0.54424766E+03</totfact>
</mgrwt>
</event>
<event>
 6    1  0.1280499E-001  0.3000000E+03  0.7818608E-02  0.1093470E+00
         21   -1    0    0  501  502  0.00000000000E+00  0.00000000000E+00  0.70072591442E+01  0.70072591442E+01  0.00000000000E+00 0. -1.
         13   -1    0    0    0    0 -0.00000000000E+00 -0.00000000000E+00 -0.10000000000E+04  0.10000000000E+04  0.00000000000E+00 0.  1.
    9000005    2    1    2  501    0  0.30386119848E+02 -0.50636040687E+02 -0.85327561675E+03  0.85532271918E+03  0.32172828284E+01 0.  0.
         13    1    3    3    0    0  0.55258891058E+01 -0.69811227178E+01 -0.12962788531E+03  0.12993329125E+03  0.00000000000E+00 0.  1.
          1    1    3    3  501    0  0.24860230742E+02 -0.43654917970E+02 -0.72364773144E+03  0.72538942793E+03  0.00000000000E+00 0.  1.
         -1    1    1    2    0  502 -0.30386119848E+02  0.50636040687E+02 -0.13971712411E+03  0.15168453997E+03  0.00000000000E+00 0. -1.
<mgrwt>
<rscale>  1 0.30000000E+03</rscale>
<asrwt>0</asrwt>
<pdfrwt beam="1">  1       21 0.25480996E-01 0.30000000E+03</pdfrwt>
<pdfrwt beam="2">0</pdfrwt>
<totfact> 0.15024106E+03</totfact>
</mgrwt>
</event>
<event>
 6    1  0.1280499E-001  0.3000000E+03  0.7818608E-02  0.1093470E+00
         21   -1    0    0  501  502  0.00000000000E+00  0.00000000000E+00  0.33752620259E+01  0.33752620259E+01  0.00000000000E+00 0. -1.
         13   -1    0    0    0    0 -0.00000000000E+00 -0.00000000000E+00 -0.10000000000E+04  0.10000000000E+04  0.00000000000E+00 0.  1.
    9000005    2    1    2  501    0  0.91438722531E+01 -0.36699714900E+02 -0.87873283913E+03  0.87956500685E+03  0.57200731409E+01 0.  0.
         13    1    3    3    0    0  0.54238710333E+01 -0.16152429959E+02 -0.33811438477E+03  0.33854343379E+03  0.00000000000E+00 0.  1.
          1    1    3    3  501    0  0.37200012199E+01 -0.20547284941E+02 -0.54061845436E+03  0.54102157307E+03  0.00000000000E+00 0.  1.
         -1    1    1    2    0  502 -0.91438722531E+01  0.36699714900E+02 -0.11789189884E+03  0.12381025517E+03  0.00000000000E+00 0. -1.
<mgrwt>
<rscale>  1 0.30000000E+03</rscale>
<asrwt>0</asrwt>
<pdfrwt beam="1">  1       21 0.12273706E-01 0.30000000E+03</pdfrwt>
<pdfrwt beam="2">0</pdfrwt>
<totfact> 0.59482628E+03</totfact>
</mgrwt>
</event>
<event>
 6    1  0.1280499E-001  0.3000000E+03  0.7818608E-02  0.1093470E+00
         21   -1    0    0  501  502  0.00000000000E+00  0.00000000000E+00  0.11207059009E+01  0.11207059009E+01  0.00000000000E+00 0. -1.
         13   -1    0    0    0    0 -0.00000000000E+00 -0.00000000000E+00 -0.10000000000E+04  0.10000000000E+04  0.00000000000E+00 0.  1.
    9000005    2    1    2  501    0 -0.82218497776E+01 -0.32269674136E+02 -0.53195702960E+03  0.53301245799E+03  0.38817963657E+01 0.  0.
         13    1    3    3    0    0 -0.67575849049E+01 -0.21039589123E+02 -0.33143797895E+03  0.33217384478E+03  0.00000000000E+00 0.  1.
          3    1    3    3  501    0 -0.14642648727E+01 -0.11230085013E+02 -0.20051905065E+03  0.20083861321E+03  0.00000000000E+00 0.  1.
         -1    1    1    2    0  502  0.82218497776E+01  0.32269674136E+02 -0.46692226450E+03  0.46810824791E+03  0.00000000000E+00 0. -1.
<mgrwt>
<rscale>  1 0.30000000E+03</rscale>
<asrwt>0</asrwt>
<pdfrwt beam="1">  1       21 0.40753028E-02 0.30000000E+03</pdfrwt>
<pdfrwt beam="2">0</pdfrwt>
<totfact> 0.40746592E+04</totfact>
</mgrwt>
</event>
<event>
 6    1  0.1280499E-001  0.3000000E+03  0.7818608E-02  0.1093470E+00
         21   -1    0    0  501  502  0.00000000000E+00  0.00000000000E+00  0.57996690355E+01  0.57996690355E+01  0.00000000000E+00 0. -1.
         13   -1    0    0    0    0 -0.00000000000E+00 -0.00000000000E+00 -0.10000000000E+04  0.10000000000E+04  0.00000000000E+00 0.  1.
    9000005    2    1    2  501    0  0.12565540513E+02 -0.42553625291E+02 -0.90576134469E+03  0.90685444112E+03  0.35580911121E+01 0.  0.
         13    1    3    3    0    0  0.61169536332E+00 -0.53995332879E+01 -0.12535452056E+03  0.12547224776E+03  0.00000000000E+00 0.  1.
          3    1    3    3  501    0  0.11953845149E+02 -0.37154092003E+02 -0.78040682413E+03  0.78138219337E+03  0.00000000000E+00 0.  1.
         -1    1    1    2    0  502 -0.12565540513E+02  0.42553625291E+02 -0.88438986272E+02  0.98945227912E+02  0.00000000000E+00 0. -1.
<mgrwt>
<rscale>  1 0.30000000E+03</rscale>
<asrwt>0</asrwt>
<pdfrwt beam="1">  1       21 0.21089750E-01 0.30000000E+03</pdfrwt>
<pdfrwt beam="2">0</pdfrwt>
<totfact> 0.21676266E+03</totfact>
</mgrwt>
</event>
<event>
 6    1  0.1280499E-001  0.3000000E+03  0.7818608E-02  0.1093470E+00
         21   -1    0    0  501  502  0.00000000000E+00  0.00000000000E+00  0.15708389298E+01  0.15708389298E+01  0.00000000000E+00 0. -1.
         13   -1    0    0    0    0 -0.00000000000E+00 -0.00000000000E+00 -0.10000000000E+04  0.10000000000E+04  0.00000000000E+00 0.  1.
    9000005    2    1    2  501    0  0.38762230120E+02 -0.25787506205E+01 -0.40386411443E+03  0.40573801412E+03  0.28200596256E+01 0.  0.
         13    1    3    3    0    0  0.38168489320E+02 -0.23591706250E+01 -0.39981927488E+03  0.40164393663E+03  0.00000000000E+00 0.  1.
          1    1    3    3  501    0  0.59374080045E+00 -0.21957999547E+00 -0.40448395522E+01  0.40940774926E+01  0.00000000000E+00 0.  1.
         -1    1    1    2    0  502 -0.38762230120E+02  0.25787506205E+01 -0.59456504664E+03  0.59583282481E+03  0.00000000000E+00 0. -1.
<mgrwt>
<rscale>  1 0.30000000E+03</rscale>
<asrwt>0</asrwt>
<pdfrwt beam="1">  1       21 0.57121536E-02 0.30000000E+03</pdfrwt>
<pdfrwt beam="2">0</pdfrwt>
<totfact> 0.22934102E+04</totfact>
</mgrwt>
</event>
<event>
 6    1  0.1280499E-001  0.3000000E+03  0.7818608E-02  0.1093470E+00
         21   -1    0    0  501  502  0.00000000000E+00  0.00000000000E+00  0.49896567127E+01  0.49896567127E+01  0.00000000000E+00 0. -1.
         13   -1    0    0    0    0 -0.00000000000E+00 -0.00000000000E+00 -0.10000000000E+04  0.10000000000E+04  0.00000000000E+00 0.  1.
    9000005    2    1    2  501    0  0.67030844514E+02 -0.20986029815E+02 -0.52652187013E+03  0.53126505629E+03  0.91505599123E+01 0.  0.
         13    1    3    3    0    0  0.27216990856E+02 -0.12975072914E+02 -0.23604829173E+03  0.23796620167E+03  0.00000000000E+00 0.  1.
          3    1    3    3  501    0  0.39813853658E+02 -0.80109569009E+01 -0.29047357840E+03  0.29329885462E+03  0.00000000000E+00 0.  1.
         -3    1    1    2    0  502 -0.67030844514E+02  0.20986029815E+02 -0.46848847316E+03  0.47372460042E+03  0.00000000000E+00 0. -1.
<mgrwt>
<rscale>  1 0.30000000E+03</rscale>
<asrwt>0</asrwt>
<pdfrwt beam="1">  1       21 0.18144244E-01 0.30000000E+03</pdfrwt>
<pdfrwt beam="2">0</pdfrwt>
<totfact> 0.28858237E+03</totfact>
</mgrwt>
</event>
<event>
 6    1  0.1280499E-001  0.3000000E+03  0.7818608E-02  0.1093470E+00
         21   -1    0    0  501  502  0.00000000000E+00  0.00000000000E+00  0.11544349421E+01  0.11544349421E+01  0.00000000000E+00 0. -1.
         13   -1    0    0    0    0 -0.00000000000E+00 -0.00000000000E+00 -0.10000000000E+04  0.10000000000E+04  0.00000000000E+00 0.  1.
    9000005    2    1    2  501    0  0.34713963691E+01 -0.29868144494E+02 -0.72981850123E+03  0.73045216727E+03  0.46007924167E+01 0.  0.
         13    1    3    3    0    0  0.35018667562E+00 -0.21095533997E+02 -0.51462483334E+03  0.51505714564E+03  0.00000000000E+00 0.  1.
          1    1    3    3  501    0  0.31212096935E+01 -0.87726104963E+01 -0.21519366788E+03  0.21539502163E+03  0.00000000000E+00 0.  1.
         -1    1    1    2    0  502 -0.34713963691E+01  0.29868144494E+02 -0.26902706383E+03  0.27070226767E+03  0.00000000000E+00 0. -1.
<mgrwt>
<rscale>  1 0.30000000E+03</rscale>
<asrwt>0</asrwt>
<pdfrwt beam="1">  1       21 0.41979541E-02 0.30000000E+03</pdfrwt>
<pdfrwt beam="2">0</pdfrwt>
<totfact> 0.38758334E+04</totfact>
</mgrwt>
</event>
<event>
 6    1  0.1280499E-001  0.3000000E+03  0.7818608E-02  0.1093470E+00
         21   -1    0    0  501  502  0.00000000000E+00  0.00000000000E+00  0.40058206033E+01  0.40058206033E+01  0.00000000000E+00 0. -1.
         13   -1    0    0    0    0 -0.00000000000E+00 -0.00000000000E+00 -0.10000000000E+04  0.10000000000E+04  0.00000000000E+00 0.  1.
    9000005    2    1    2  501    0  0.40666945155E+02  0.55352762986E+01 -0.88004512788E+03  0.88100735615E+03  0.31772252972E+01 0.  0.
         13    1    3    3    0    0  0.38500477747E+02  0.54023669961E+01 -0.81629512503E+03  0.81722041305E+03  0.00000000000E+00 0.  1.
          3    1    3    3  501    0  0.21664674085E+01  0.13290930252E+00 -0.63750002848E+02  0.63786943092E+02  0.00000000000E+00 0.  1.
         -1    1    1    2    0  502 -0.40666945155E+02 -0.55352762986E+01 -0.11594905151E+03  0.12299846446E+03  0.00000000000E+00 0. -1.
<mgrwt>
<rscale>  1 0.30000000E+03</rscale>
<asrwt>0</asrwt>
<pdfrwt beam="1">  1       21 0.14566651E-01 0.30000000E+03</pdfrwt>
<pdfrwt beam="2">0</pdfrwt>
<totfact> 0.43472524E+03</totfact>
</mgrwt>
</event>
<event>
 6    1  0.1280499E-001  0.3000000E+03  0.7818608E-02  0.1093470E+00
         21   -1    0    0  501  502  0.00000000000E+00  0.00000000000E+00  0.13726277648E+01  0.13726277648E+01  0.00000000000E+00 0. -1.
         13   -1    0    0    0    0 -0.00000000000E+00 -0.00000000000E+00 -0.10000000000E+04  0.10000000000E+04  0.00000000000E+00 0.  1.
    9000005    2    1    2  501    0  0.98069216934E+01  0.29674189303E+02 -0.76763934686E+03  0.76827994000E+03  0.26769630199E+01 0.  0.
         13    1    3    3    0    0  0.29963496920E+01  0.84545500859E+01 -0.25076733549E+03  0.25092770687E+03  0.00000000000E+00 0.  1.
          1    1    3    3  501    0  0.68105720014E+01  0.21219639217E+02 -0.51687201137E+03  0.51735223313E+03  0.00000000000E+00 0.  1.
         -3    1    1    2    0  502 -0.98069216934E+01 -0.29674189303E+02 -0.23098802537E+03  0.23309268776E+03  0.00000000000E+00 0. -1.
<mgrwt>
<rscale>  1 0.30000000E+03</rscale>
<asrwt>0</asrwt>
<pdfrwt beam="1">  1       21 0.49913842E-02 0.30000000E+03</pdfrwt>
<pdfrwt beam="2">0</pdfrwt>
<totfact> 0.28889463E+04</totfact>
</mgrwt>
</event>
<event>
 6    1  0.1280499E-001  0.3000000E+03  0.7818608E-02  0.1093470E+00
         21   -1    0    0  501  502  0.00000000000E+00  0.00000000000E+00  0.11068688236E+01  0.11068688236E+01  0.00000000000E+00 0. -1.
         13   -1    0    0    0    0 -0.00000000000E+00 -0.00000000000E+00 -0.10000000000E+04  0.10000000000E+04  0.00000000000E+00 0.  1.
    9000005    2    1    2  501    0 -0.23012765397E+02 -0.21673619986E+02 -0.65142541839E+03  0.65220409640E+03  0.39717079952E+01 0.  0.
         13    1    3    3    0    0 -0.56603051105E+01 -0.33803180038E+01 -0.15103495100E+03  0.15117877505E+03  0.00000000000E+00 0.  1.
          3    1    3    3  501    0 -0.17352460286E+02 -0.18293301982E+02 -0.50039046739E+03  0.50102532135E+03  0.00000000000E+00 0.  1.
         -1    1    1    2    0  502  0.23012765397E+02  0.21673619986E+02 -0.34746771279E+03  0.34890277243E+03  0.00000000000E+00 0. -1.
<mgrwt>
<rscale>  1 0.30000000E+03</rscale>
<asrwt>0</asrwt>
<pdfrwt beam="1">  1       21 0.40249860E-02 0.30000000E+03</pdfrwt>
<pdfrwt beam="2">0</pdfrwt>
<totfact> 0.41608625E+04</totfact>
</mgrwt>
</event>
<event>
 6    1  0.1280499E-001  0.3000000E+03  0.7818608E-02  0.1093470E+00
         21   -1    0    0  501  502  0.00000000000E+00  0.00000000000E+00  0.13330231400E+01  0.13330231400E+01  0.00000000000E+00 0. -1.
         13   -1    0    0    0    0 -0.00000000000E+00 -0.00000000000E+00 -0.10000000000E+04  0.10000000000E+04  0.00000000000E+00 0.  1.
    9000005    2    1    2  501    0 -0.63039426335E+01 -0.34327875989E+02 -0.64417107828E+03  0.64512313435E+03  0.30557514203E+01 0.  0.
         13    1    3    3    0    0 -0.54091436603E+01 -0.31437777639E+02 -0.60117695632E+03  0.60202269518E+03  0.00000000000E+00 0.  1.
          3    1    3    3  501    0 -0.89479897315E+00 -0.28900983499E+01 -0.42994121960E+02  0.43100439172E+02  0.00000000000E+00 0.  1.
         -3    1    1    2    0  502  0.63039426335E+01  0.34327875989E+02 -0.35449589858E+03  0.35620988879E+03  0.00000000000E+00 0. -1.
<mgrwt>
<rscale>  1 0.30000000E+03</rscale>
<asrwt>0</asrwt>
<pdfrwt beam="1">  1       21 0.48473671E-02 0.30000000E+03</pdfrwt>
<pdfrwt beam="2">0</pdfrwt>
<totfact> 0.30366765E+04</totfact>
</mgrwt>
</event>
<event>
 6    1  0.1280499E-001  0.3000000E+03  0.7818608E-02  0.1093470E+00
         21   -1    0    0  501  502  0.00000000000E+00  0.00000000000E+00  0.30346443023E+01  0.30346443023E+01  0.00000000000E+00 0. -1.
         13   -1    0    0    0    0 -0.00000000000E+00 -0.00000000000E+00 -0.10000000000E+04  0.10000000000E+04  0.00000000000E+00 0.  1.
    9000005    2    1    2  501    0 -0.24219006012E+02  0.38713030097E+02 -0.77857544623E+03  0.77992164265E+03  0.35755057264E+01 0.  0.
         13    1    3    3    0    0 -0.19389675368E+02  0.32311667082E+02 -0.66072684364E+03  0.66180054794E+03  0.00000000000E+00 0.  1.
          1    1    3    3  501    0 -0.48293306437E+01  0.64013630154E+01 -0.11784860259E+03  0.11812109471E+03  0.00000000000E+00 0.  1.
         -3    1    1    2    0  502  0.24219006012E+02 -0.38713030097E+02 -0.21838990947E+03  0.22311300166E+03  0.00000000000E+00 0. -1.
<mgrwt>
<rscale>  1 0.30000000E+03</rscale>
<asrwt>0</asrwt>
<pdfrwt beam="1">  1       21 0.11035093E-01 0.30000000E+03</pdfrwt>
<pdfrwt beam="2">0</pdfrwt>
<totfact> 0.72105771E+03</totfact>
</mgrwt>
</event>
<event>
 6    1  0.1280499E-001  0.3000000E+03  0.7818608E-02  0.1093470E+00
         21   -1    0    0  501  502  0.00000000000E+00  0.00000000000E+00  0.14282865097E+01  0.14282865097E+01  0.00000000000E+00 0. -1.
         13   -1    0    0    0    0 -0.00000000000E+00 -0.00000000000E+00 -0.10000000000E+04  0.10000000000E+04  0.00000000000E+00 0.  1.
    9000005    2    1    2  501    0  0.32944645236E+02  0.16243268543E+02 -0.39591162174E+03  0.39764986721E+03  0.54964753478E+01 0.  0.
         13    1    3    3    0    0  0.88107145654E+01  0.71157059667E+01 -0.12561813487E+03  0.12612762494E+03  0.00000000000E+00 0.  1.
          3    1    3    3  501    0  0.24133930670E+02  0.91275625763E+01 -0.27029348687E+03  0.27152224228E+03  0.00000000000E+00 0.  1.
         -3    1    1    2    0  502 -0.32944645236E+02 -0.16243268543E+02 -0.60266009175E+03  0.60377841930E+03  0.00000000000E+00 0. -1.
<mgrwt>
<rscale>  1 0.30000000E+03</rscale>
<asrwt>0</asrwt>
<pdfrwt beam="1">  1       21 0.51937801E-02 0.30000000E+03</pdfrwt>
<pdfrwt beam="2">0</pdfrwt>
<totfact> 0.26995019E+04</totfact>
</mgrwt>
</event>
<event>
 6    1  0.1280499E-001  0.3000000E+03  0.7818608E-02  0.1093470E+00
         21   -1    0    0  501  502  0.00000000000E+00  0.00000000000E+00  0.14160536866E+02  0.14160536866E+02  0.00000000000E+00 0. -1.
         13   -1    0    0    0    0 -0.00000000000E+00 -0.00000000000E+00 -0.10000000000E+04  0.10000000000E+04  0.00000000000E+00 0.  1.
    9000005    2    1    2  501    0 -0.19683157251E+02  0.29042231746E+02 -0.97745258016E+03  0.97808814146E+03  0.34623837299E+01 0.  0.
         13    1    3    3    0    0 -0.12789408128E+02  0.20144590942E+02 -0.70302596144E+03  0.70343078975E+03  0.00000000000E+00 0.  1.
          3    1    3    3  501    0 -0.68937491235E+01  0.88976408036E+01 -0.27442661872E+03  0.27465735171E+03  0.00000000000E+00 0.  1.
         -1    1    1    2    0  502  0.19683157251E+02 -0.29042231746E+02 -0.83868829713E+01  0.36072395403E+02  0.00000000000E+00 0. -1.
<mgrwt>
<rscale>  1 0.30000000E+03</rscale>
<asrwt>0</asrwt>
<pdfrwt beam="1">  1       21 0.51492970E-01 0.30000000E+03</pdfrwt>
<pdfrwt beam="2">0</pdfrwt>
<totfact> 0.35243543E+02</totfact>
</mgrwt>
</event>
<event>
 6    1  0.1280499E-001  0.3000000E+03  0.7818608E-02  0.1093470E+00
         21   -1    0    0  501  502  0.00000000000E+00  0.00000000000E+00  0.96092767504E+00  0.96092767504E+00  0.00000000000E+00 0. -1.
         13   -1    0    0    0    0 -0.00000000000E+00 -0.00000000000E+00 -0.10000000000E+04  0.10000000000E+04  0.00000000000E+00 0.  1.
    9000005    2    1    2  501    0  0.21151964784E+02 -0.21558981518E+02 -0.60642825774E+03  0.60719012247E+03  0.35238825388E+01 0.  0.
         13    1    3    3    0    0  0.47868970981E+00 -0.13751968875E+01 -0.38304315922E+02  0.38331983102E+02  0.00000000000E+00 0.  1.
          1    1    3    3  501    0  0.20673275074E+02 -0.20183784630E+02 -0.56812394181E+03  0.56885813937E+03  0.00000000000E+00 0.  1.
         -3    1    1    2    0  502 -0.21151964784E+02  0.21558981518E+02 -0.39261081459E+03  0.39377080520E+03  0.00000000000E+00 0. -1.
<mgrwt>
<rscale>  1 0.30000000E+03</rscale>
<asrwt>0</asrwt>
<pdfrwt beam="1">  1       21 0.34942898E-02 0.30000000E+03</pdfrwt>
<pdfrwt beam="2">0</pdfrwt>
<totfact> 0.52760855E+04</totfact>
</mgrwt>
</event>
<event>
 6    1  0.1280499E-001  0.3000000E+03  0.7818608E-02  0.1093470E+00
         21   -1    0    0  501  502  0.00000000000E+00  0.00000000000E+00  0.12395061330E+01  0.12395061330E+01  0.00000000000E+00 0. -1.
         13   -1    0    0    0    0 -0.00000000000E+00 -0.00000000000E+00 -0.10000000000E+04  0.10000000000E+04  0.00000000000E+00 0.  1.
    9000005    2    1    2  501    0 -0.19824055357E+02  0.25490286566E+02 -0.69599237004E+03  0.69675422786E+03  0.42810051623E+01 0.  0.
         13    1    3    3    0    0 -0.65788065990E+00  0.93334190942E+00 -0.12403273986E+02  0.12455727183E+02  0.00000000000E+00 0.  1.
          3    1    3    3  501    0 -0.19166174698E+02  0.24556944656E+02 -0.68358909605E+03  0.68429850067E+03  0.00000000000E+00 0.  1.
         -1    1    1    2    0  502  0.19824055357E+02 -0.25490286566E+02 -0.30276812383E+03  0.30448527828E+03  0.00000000000E+00 0. -1.
<mgrwt>
<rscale>  1 0.30000000E+03</rscale>
<asrwt>0</asrwt>
<pdfrwt beam="1">  1       21 0.45073045E-02 0.30000000E+03</pdfrwt>
<pdfrwt beam="2">0</pdfrwt>
<totfact> 0.34363476E+04</totfact>
</mgrwt>
</event>
<event>
 6    1  0.1280499E-001  0.3000000E+03  0.7818608E-02  0.1093470E+00
         21   -1    0    0  501  502  0.00000000000E+00  0.00000000000E+00  0.19424798104E+01  0.19424798104E+01  0.00000000000E+00 0. -1.
         13   -1    0    0    0    0 -0.00000000000E+00 -0.00000000000E+00 -0.10000000000E+04  0.10000000000E+04  0.00000000000E+00 0.  1.
    9000005    2    1    2  501    0  0.38771818899E+02  0.48431573080E+01 -0.73046277099E+03  0.73151012244E+03  0.21188008386E+01 0.  0.
         13    1    3    3    0    0  0.19450202893E+02  0.17719732043E+01 -0.38052100293E+03  0.38102189432E+03  0.00000000000E+00 0.  1.
          1    1    3    3  501    0  0.19321616006E+02  0.30711841037E+01 -0.34994176806E+03  0.35048822812E+03  0.00000000000E+00 0.  1.
         -1    1    1    2    0  502 -0.38771818899E+02 -0.48431573080E+01 -0.26759474920E+03  0.27043235737E+03  0.00000000000E+00 0. -1.
<mgrwt>
<rscale>  1 0.30000000E+03</rscale>
<asrwt>0</asrwt>
<pdfrwt beam="1">  1       21 0.70635778E-02 0.30000000E+03</pdfrwt>
<pdfrwt beam="2">0</pdfrwt>
<totfact> 0.15883288E+04</totfact>
</mgrwt>
</event>
<event>
 6    1  0.1280499E-001  0.3000000E+03  0.7818608E-02  0.1093470E+00
         21   -1    0    0  501  502  0.00000000000E+00  0.00000000000E+00  0.16928797056E+01  0.16928797056E+01  0.00000000000E+00 0. -1.
         13   -1    0    0    0    0 -0.00000000000E+00 -0.00000000000E+00 -0.10000000000E+04  0.10000000000E+04  0.00000000000E+00 0.  1.
    9000005    2    1    2  501    0 -0.26373249850E+02 -0.31372843740E+02 -0.53338730123E+03  0.53497000498E+03  0.33300877594E+01 0.  0.
         13    1    3    3    0    0 -0.14526056768E+02 -0.17498432947E+02 -0.27431539489E+03  0.27525649376E+03  0.00000000000E+00 0.  1.
          1    1    3    3  501    0 -0.11847193082E+02 -0.13874410793E+02 -0.25907190633E+03  0.25971351122E+03  0.00000000000E+00 0.  1.
         -3    1    1    2    0  502  0.26373249850E+02  0.31372843740E+02 -0.46491981907E+03  0.46672287473E+03  0.00000000000E+00 0. -1.
<mgrwt>
<rscale>  1 0.30000000E+03</rscale>
<asrwt>0</asrwt>
<pdfrwt beam="1">  1       21 0.61559392E-02 0.30000000E+03</pdfrwt>
<pdfrwt beam="2">0</pdfrwt>
<totfact> 0.20159087E+04</totfact>
</mgrwt>
</event>
<event>
 6    1  0.1280499E-001  0.3000000E+03  0.7818608E-02  0.1093470E+00
         21   -1    0    0  501  502  0.00000000000E+00  0.00000000000E+00  0.26709230860E+01  0.26709230860E+01  0.00000000000E+00 0. -1.
         13   -1    0    0    0    0 -0.00000000000E+00 -0.00000000000E+00 -0.10000000000E+04  0.10000000000E+04  0.00000000000E+00 0.  1.
    9000005    2    1    2  501    0 -0.39000188937E+02  0.25195954781E+02 -0.71805080593E+03  0.71955927811E+03  0.35698669512E+01 0.  0.
         13    1    3    3    0    0 -0.11760127884E+02  0.66007960151E+01 -0.23048486569E+03  0.23087906884E+03  0.00000000000E+00 0.  1.
          1    1    3    3  501    0 -0.27240061052E+02  0.18595158766E+02 -0.48756594024E+03  0.48868020928E+03  0.00000000000E+00 0.  1.
         -1    1    1    2    0  502  0.39000188937E+02 -0.25195954781E+02 -0.27927827099E+03  0.28311164497E+03  0.00000000000E+00 0. -1.
<mgrwt>
<rscale>  1 0.30000000E+03</rscale>
<asrwt>0</asrwt>
<pdfrwt beam="1">  1       21 0.97124681E-02 0.30000000E+03</pdfrwt>
<pdfrwt beam="2">0</pdfrwt>
<totfact> 0.90631866E+03</totfact>
</mgrwt>
</event>
<event>
 6    1  0.1280499E-001  0.3000000E+03  0.7818608E-02  0.1093470E+00
         21   -1    0    0  501  502  0.00000000000E+00  0.00000000000E+00  0.11312007951E+01  0.11312007951E+01  0.00000000000E+00 0. -1.
         13   -1    0    0    0    0 -0.00000000000E+00 -0.00000000000E+00 -0.10000000000E+04  0.10000000000E+04  0.00000000000E+00 0.  1.
    9000005    2    1    2  501    0 -0.19906348120E+02  0.26636393872E+02 -0.43416272084E+03  0.43544691154E+03  0.33142757558E+01 0.  0.
         13    1    3    3    0    0 -0.33746898906E+01  0.68274382501E+01 -0.97676606122E+02  0.97973066852E+02  0.00000000000E+00 0.  1.
          1    1    3    3  501    0 -0.16531658229E+02  0.19808955622E+02 -0.33648611472E+03  0.33747384469E+03  0.00000000000E+00 0.  1.
         -1    1    1    2    0  502  0.19906348120E+02 -0.26636393872E+02 -0.56470607836E+03  0.56568428926E+03  0.00000000000E+00 0. -1.
<mgrwt>
<rscale>  1 0.30000000E+03</rscale>
<asrwt>0</asrwt>
<pdfrwt beam="1">  1       21 0.41134661E-02 0.30000000E+03</pdfrwt>
<pdfrwt beam="2">0</pdfrwt>
<totfact> 0.40111216E+04</totfact>
</mgrwt>
</event>
<event>
 6    1  0.1280499E-001  0.3000000E+03  0.7818608E-02  0.1093470E+00
         21   -1    0    0  501  502  0.00000000000E+00  0.00000000000E+00  0.29665702704E+01  0.29665702704E+01  0.00000000000E+00 0. -1.
         13   -1    0    0    0    0 -0.00000000000E+00 -0.00000000000E+00 -0.10000000000E+04  0.10000000000E+04  0.00000000000E+00 0.  1.
    9000005    2    1    2  501    0  0.29628159552E+01 -0.51302374704E+02 -0.66403722409E+03  0.66602861620E+03  0.28232392509E+01 0.  0.
         13    1    3    3    0    0  0.28574713565E+01 -0.30358270131E+02 -0.38268746856E+03  0.38390036246E+03  0.00000000000E+00 0.  1.
          3    1    3    3  501    0  0.10534459868E+00 -0.20944104573E+02 -0.28134975553E+03  0.28212825373E+03  0.00000000000E+00 0.  1.
         -1    1    1    2    0  502 -0.29628159552E+01  0.51302374704E+02 -0.33299620564E+03  0.33693795408E+03  0.00000000000E+00 0. -1.
<mgrwt>
<rscale>  1 0.30000000E+03</rscale>
<asrwt>0</asrwt>
<pdfrwt beam="1">  1       21 0.10787551E-01 0.30000000E+03</pdfrwt>
<pdfrwt beam="2">0</pdfrwt>
<totfact> 0.75107805E+03</totfact>
</mgrwt>
</event>
<event>
 6    1  0.1280499E-001  0.3000000E+03  0.7818608E-02  0.1093470E+00
         21   -1    0    0  501  502  0.00000000000E+00  0.00000000000E+00  0.27611266966E+01  0.27611266966E+01  0.00000000000E+00 0. -1.
         13   -1    0    0    0    0 -0.00000000000E+00 -0.00000000000E+00 -0.10000000000E+04  0.10000000000E+04  0.00000000000E+00 0.  1.
    9000005    2    1    2  501    0 -0.33800814235E+02 -0.29864252239E+01 -0.88130424599E+03  0.88196273437E+03  0.31107937417E+01 0.  0.
         13    1    3    3    0    0 -0.85334201898E+01 -0.15420267286E+01 -0.25474394852E+03  0.25489149930E+03  0.00000000000E+00 0.  1.
          1    1    3    3  501    0 -0.25267394045E+02 -0.14443984953E+01 -0.62656029747E+03  0.62707123507E+03  0.00000000000E+00 0.  1.
         -1    1    1    2    0  502  0.33800814235E+02  0.29864252239E+01 -0.11593462731E+03  0.12079839233E+03  0.00000000000E+00 0. -1.
<mgrwt>
<rscale>  1 0.30000000E+03</rscale>
<asrwt>0</asrwt>
<pdfrwt beam="1">  1       21 0.10040482E-01 0.30000000E+03</pdfrwt>
<pdfrwt beam="2">0</pdfrwt>
<totfact> 0.85413087E+03</totfact>
</mgrwt>
</event>
<event>
 6    1  0.1280499E-001  0.3000000E+03  0.7818608E-02  0.1093470E+00
         21   -1    0    0  501  502  0.00000000000E+00  0.00000000000E+00  0.11365838320E+01  0.11365838320E+01  0.00000000000E+00 0. -1.
         13   -1    0    0    0    0 -0.00000000000E+00 -0.00000000000E+00 -0.10000000000E+04  0.10000000000E+04  0.00000000000E+00 0.  1.
    9000005    2    1    2  501    0  0.17489344254E+02  0.28675950015E+02 -0.52540576249E+03  0.52648899129E+03  0.33549111740E+01 0.  0.
         13    1    3    3    0    0  0.38856922560E+01  0.84887371080E+01 -0.13027797787E+03  0.13061205449E+03  0.00000000000E+00 0.  1.
          1    1    3    3  501    0  0.13603651998E+02  0.20187212907E+02 -0.39512778462E+03  0.39587693680E+03  0.00000000000E+00 0.  1.
         -1    1    1    2    0  502 -0.17489344254E+02 -0.28675950015E+02 -0.47345765368E+03  0.47464759254E+03  0.00000000000E+00 0. -1.
<mgrwt>
<rscale>  1 0.30000000E+03</rscale>
<asrwt>0</asrwt>
<pdfrwt beam="1">  1       21 0.41330408E-02 0.30000000E+03</pdfrwt>
<pdfrwt beam="2">0</pdfrwt>
<totfact> 0.39791294E+04</totfact>
</mgrwt>
</event>
<event>
 6    1  0.1280499E-001  0.3000000E+03  0.7818608E-02  0.1093470E+00
         21   -1    0    0  501  502  0.00000000000E+00  0.00000000000E+00  0.55992963940E+01  0.55992963940E+01  0.00000000000E+00 0. -1.
         13   -1    0    0    0    0 -0.00000000000E+00 -0.00000000000E+00 -0.10000000000E+04  0.10000000000E+04  0.00000000000E+00 0.  1.
    9000005    2    1    2  501    0  0.59473882816E+02 -0.36292419812E+02 -0.31496827017E+03  0.32260389811E+03  0.37391695067E+01 0.  0.
         13    1    3    3    0    0  0.40901392912E+01 -0.36675976454E+01 -0.24421936051E+02  0.25032208700E+02  0.00000000000E+00 0.  1.
          3    1    3    3  501    0  0.55383743524E+02 -0.32624822167E+02 -0.29054633411E+03  0.29757168941E+03  0.00000000000E+00 0.  1.
         -1    1    1    2    0  502 -0.59473882816E+02  0.36292419812E+02 -0.67943243344E+03  0.68299539829E+03  0.00000000000E+00 0. -1.
<mgrwt>
<rscale>  1 0.30000000E+03</rscale>
<asrwt>0</asrwt>
<pdfrwt beam="1">  1       21 0.20361121E-01 0.30000000E+03</pdfrwt>
<pdfrwt beam="2">0</pdfrwt>
<totfact> 0.23185785E+03</totfact>
</mgrwt>
</event>
<event>
 6    1  0.1280499E-001  0.3000000E+03  0.7818608E-02  0.1093470E+00
         21   -1    0    0  501  502  0.00000000000E+00  0.00000000000E+00  0.24823048219E+01  0.24823048219E+01  0.00000000000E+00 0. -1.
         13   -1    0    0    0    0 -0.00000000000E+00 -0.00000000000E+00 -0.10000000000E+04  0.10000000000E+04  0.00000000000E+00 0.  1.
    9000005    2    1    2  501    0 -0.23008039148E+02  0.21083295001E+02 -0.88762270782E+03  0.88824227926E+03  0.11242777101E+02 0.  0.
         13    1    3    3    0    0 -0.18527356435E+02  0.21454781811E+02 -0.80302163561E+03  0.80352182164E+03  0.00000000000E+00 0.  1.
          3    1    3    3  501    0 -0.44806827129E+01 -0.37148681018E+00 -0.84601072215E+02  0.84720457624E+02  0.00000000000E+00 0.  1.
         -3    1    1    2    0  502  0.23008039148E+02 -0.21083295001E+02 -0.10989498736E+03  0.11424002556E+03  0.00000000000E+00 0. -1.
<mgrwt>
<rscale>  1 0.30000000E+03</rscale>
<asrwt>0</asrwt>
<pdfrwt beam="1">  1       21 0.90265820E-02 0.30000000E+03</pdfrwt>
<pdfrwt beam="2">0</pdfrwt>
<totfact> 0.10323998E+04</totfact>
</mgrwt>
</event>
<event>
 6    1  0.1280499E-001  0.3000000E+03  0.7818608E-02  0.1093470E+00
         21   -1    0    0  501  502  0.00000000000E+00  0.00000000000E+00  0.17598363200E+01  0.17598363200E+01  0.00000000000E+00 0. -1.
         13   -1    0    0    0    0 -0.00000000000E+00 -0.00000000000E+00 -0.10000000000E+04  0.10000000000E+04  0.00000000000E+00 0.  1.
    9000005    2    1    2  501    0 -0.89482772199E+01  0.32373411870E+02 -0.79284707451E+03  0.79363864437E+03  0.11300655365E+02 0.  0.
         13    1    3    3    0    0  0.32407661065E+00  0.17286708856E+02 -0.45408922848E+03  0.45441826851E+03  0.00000000000E+00 0.  1.
          1    1    3    3  501    0 -0.92723538305E+01  0.15086703014E+02 -0.33875784603E+03  0.33922037586E+03  0.00000000000E+00 0.  1.
         -3    1    1    2    0  502  0.89482772199E+01 -0.32373411870E+02 -0.20539308917E+03  0.20812119195E+03  0.00000000000E+00 0. -1.
<mgrwt>
<rscale>  1 0.30000000E+03</rscale>
<asrwt>0</asrwt>
<pdfrwt beam="1">  1       21 0.63994183E-02 0.30000000E+03</pdfrwt>
<pdfrwt beam="2">0</pdfrwt>
<totfact> 0.18852041E+04</totfact>
</mgrwt>
</event>
<event>
 6    1  0.1280499E-001  0.3000000E+03  0.7818608E-02  0.1093470E+00
         21   -1    0    0  501  502  0.00000000000E+00  0.00000000000E+00  0.10254631444E+01  0.10254631444E+01  0.00000000000E+00 0. -1.
         13   -1    0    0    0    0 -0.00000000000E+00 -0.00000000000E+00 -0.10000000000E+04  0.10000000000E+04  0.00000000000E+00 0.  1.
    9000005    2    1    2  501    0 -0.16617558716E+02  0.26850121556E+02 -0.42454167551E+03  0.42572538103E+03  0.30648856985E+01 0.  0.
         13    1    3    3    0    0 -0.12146999116E+02  0.21790285475E+02 -0.32689999516E+03  0.32785053449E+03  0.00000000000E+00 0.  1.
          1    1    3    3  501    0 -0.44705596000E+01  0.50598360813E+01 -0.97641680348E+02  0.97874846541E+02  0.00000000000E+00 0.  1.
         -3    1    1    2    0  502  0.16617558716E+02 -0.26850121556E+02 -0.57443286135E+03  0.57530008212E+03  0.00000000000E+00 0. -1.
<mgrwt>
<rscale>  1 0.30000000E+03</rscale>
<asrwt>0</asrwt>
<pdfrwt beam="1">  1       21 0.37289648E-02 0.30000000E+03</pdfrwt>
<pdfrwt beam="2">0</pdfrwt>
<totfact> 0.47312045E+04</totfact>
</mgrwt>
</event>
<event>
 6    1  0.1280499E-001  0.3000000E+03  0.7818608E-02  0.1093470E+00
         21   -1    0    0  501  502  0.00000000000E+00  0.00000000000E+00  0.13024073723E+01  0.13024073723E+01  0.00000000000E+00 0. -1.
         13   -1    0    0    0    0 -0.00000000000E+00 -0.00000000000E+00 -0.10000000000E+04  0.10000000000E+04  0.00000000000E+00 0.  1.
    9000005    2    1    2  501    0 -0.22687629353E+02  0.21046372698E+02 -0.75587455287E+03  0.75651534283E+03  0.33831838962E+01 0.  0.
         13    1    3    3    0    0 -0.19639732366E+02  0.19451702661E+02 -0.65798988424E+03  0.65857025106E+03  0.00000000000E+00 0.  1.
          3    1    3    3  501    0 -0.30478969868E+01  0.15946700378E+01 -0.97884668628E+02  0.97945091766E+02  0.00000000000E+00 0.  1.
         -3    1    1    2    0  502  0.22687629353E+02 -0.21046372698E+02 -0.24282303976E+03  0.24478706454E+03  0.00000000000E+00 0. -1.
<mgrwt>
<rscale>  1 0.30000000E+03</rscale>
<asrwt>0</asrwt>
<pdfrwt beam="1">  1       21 0.47360368E-02 0.30000000E+03</pdfrwt>
<pdfrwt beam="2">0</pdfrwt>
<totfact> 0.31591335E+04</totfact>
</mgrwt>
</event>
<event>
 6    1  0.1280499E-001  0.3000000E+03  0.7818608E-02  0.1093470E+00
         21   -1    0    0  501  502  0.00000000000E+00  0.00000000000E+00  0.12397971802E+01  0.12397971802E+01  0.00000000000E+00 0. -1.
         13   -1    0    0    0    0 -0.00000000000E+00 -0.00000000000E+00 -0.10000000000E+04  0.10000000000E+04  0.00000000000E+00 0.  1.
    9000005    2    1    2  501    0  0.33058862472E+02  0.64090995249E+01 -0.64307380232E+03  0.64396290114E+03  0.32152554769E+01 0.  0.
         13    1    3    3    0    0  0.24318066465E+02  0.59646401228E+01 -0.48929895099E+03  0.48993918881E+03  0.00000000000E+00 0.  1.
          1    1    3    3  501    0  0.87407960070E+01  0.44445940206E+00 -0.15377485134E+03  0.15402371234E+03  0.00000000000E+00 0.  1.
         -1    1    1    2    0  502 -0.33058862472E+02 -0.64090995249E+01 -0.35568640050E+03  0.35727689604E+03  0.00000000000E+00 0. -1.
<mgrwt>
<rscale>  1 0.30000000E+03</rscale>
<asrwt>0</asrwt>
<pdfrwt beam="1">  1       21 0.45083629E-02 0.30000000E+03</pdfrwt>
<pdfrwt beam="2">0</pdfrwt>
<totfact> 0.34349787E+04</totfact>
</mgrwt>
</event>
<event>
 6    1  0.1280499E-001  0.3000000E+03  0.7818608E-02  0.1093470E+00
         21   -1    0    0  501  502  0.00000000000E+00  0.00000000000E+00  0.12803025054E+01  0.12803025054E+01  0.00000000000E+00 0. -1.
         13   -1    0    0    0    0 -0.00000000000E+00 -0.00000000000E+00 -0.10000000000E+04  0.10000000000E+04  0.00000000000E+00 0.  1.
    9000005    2    1    2  501    0 -0.62003875253E+01  0.31003735696E+02 -0.26840012770E+03  0.27027664283E+03  0.33404607399E+01 0.  0.
         13    1    3    3    0    0 -0.59016104099E+01  0.30860533730E+02 -0.26671175230E+03  0.26855606558E+03  0.00000000000E+00 0.  1.
          3    1    3    3  501    0 -0.29877711541E+00  0.14320196589E+00 -0.16883754015E+01  0.17205772473E+01  0.00000000000E+00 0.  1.
         -3    1    1    2    0  502  0.62003875253E+01 -0.31003735696E+02 -0.73031956979E+03  0.73100365967E+03  0.00000000000E+00 0. -1.
<mgrwt>
<rscale>  1 0.30000000E+03</rscale>
<asrwt>0</asrwt>
<pdfrwt beam="1">  1       21 0.46556553E-02 0.30000000E+03</pdfrwt>
<pdfrwt beam="2">0</pdfrwt>
<totfact> 0.32524265E+04</totfact>
</mgrwt>
</event>
<event>
 6    1  0.1280499E-001  0.3000000E+03  0.7818608E-02  0.1093470E+00
         21   -1    0    0  501  502  0.00000000000E+00  0.00000000000E+00  0.95462860287E+00  0.95462860287E+00  0.00000000000E+00 0. -1.
         13   -1    0    0    0    0 -0.00000000000E+00 -0.00000000000E+00 -0.10000000000E+04  0.10000000000E+04  0.00000000000E+00 0.  1.
    9000005    2    1    2  501    0 -0.30175327014E+02  0.58971994825E+01 -0.52219105013E+03  0.52311012353E+03  0.39218842556E+01 0.  0.
         13    1    3    3    0    0 -0.28572621740E+02  0.63447114405E+01 -0.50072040809E+03  0.50157509622E+03  0.00000000000E+00 0.  1.
          1    1    3    3  501    0 -0.16027052739E+01 -0.44751195798E+00 -0.21470642043E+02  0.21535027302E+02  0.00000000000E+00 0.  1.
         -3    1    1    2    0  502  0.30175327014E+02 -0.58971994825E+01 -0.47685432127E+03  0.47784450508E+03  0.00000000000E+00 0. -1.
<mgrwt>
<rscale>  1 0.30000000E+03</rscale>
<asrwt>0</asrwt>
<pdfrwt beam="1">  1       21 0.34713841E-02 0.30000000E+03</pdfrwt>
<pdfrwt beam="2">0</pdfrwt>
<totfact> 0.53344891E+04</totfact>
</mgrwt>
</event>
<event>
 6    1  0.1280499E-001  0.3000000E+03  0.7818608E-02  0.1093470E+00
         21   -1    0    0  501  502  0.00000000000E+00  0.00000000000E+00  0.19969899899E+01  0.19969899899E+01  0.00000000000E+00 0. -1.
         13   -1    0    0    0    0 -0.00000000000E+00 -0.00000000000E+00 -0.10000000000E+04  0.10000000000E+04  0.00000000000E+00 0.  1.
    9000005    2    1    2  501    0 -0.24146568979E+00 -0.41179856414E+02 -0.69240064167E+03  0.69363251990E+03  0.34037031258E+01 0.  0.
         13    1    3    3    0    0 -0.27376400076E+00 -0.43068159808E+00 -0.52684474891E+01  0.52931061120E+01  0.00000000000E+00 0.  1.
          1    1    3    3  501    0  0.32298310975E-01 -0.40749174816E+02 -0.68713219419E+03  0.68833941379E+03  0.00000000000E+00 0.  1.
         -3    1    1    2    0  502  0.24146568979E+00  0.41179856414E+02 -0.30560236834E+03  0.30836447009E+03  0.00000000000E+00 0. -1.
<mgrwt>
<rscale>  1 0.30000000E+03</rscale>
<asrwt>0</asrwt>
<pdfrwt beam="1">  1       21 0.72617971E-02 0.30000000E+03</pdfrwt>
<pdfrwt beam="2">0</pdfrwt>
<totfact> 0.15134981E+04</totfact>
</mgrwt>
</event>
<event>
 6    1  0.1280499E-001  0.3000000E+03  0.7818608E-02  0.1093470E+00
         21   -1    0    0  501  502  0.00000000000E+00  0.00000000000E+00  0.13856043002E+01  0.13856043002E+01  0.00000000000E+00 0. -1.
         13   -1    0    0    0    0 -0.00000000000E+00 -0.00000000000E+00 -0.10000000000E+04  0.10000000000E+04  0.00000000000E+00 0.  1.
    9000005    2    1    2  501    0 -0.24963431470E+02 -0.20768925154E+02 -0.74258267656E+03  0.74330274479E+03  0.39265424389E+01 0.  0.
         13    1    3    3    0    0 -0.21528593377E+02 -0.16065144986E+02 -0.59913829703E+03  0.59974016723E+03  0.00000000000E+00 0.  1.
          3    1    3    3  501    0 -0.34348380927E+01 -0.47037801685E+01 -0.14344437952E+03  0.14356257757E+03  0.00000000000E+00 0.  1.
         -1    1    1    2    0  502  0.24963431470E+02  0.20768925154E+02 -0.25603171914E+03  0.25808285951E+03  0.00000000000E+00 0. -1.
<mgrwt>
<rscale>  1 0.30000000E+03</rscale>
<asrwt>0</asrwt>
<pdfrwt beam="1">  1       21 0.50385717E-02 0.30000000E+03</pdfrwt>
<pdfrwt beam="2">0</pdfrwt>
<totfact> 0.28429693E+04</totfact>
</mgrwt>
</event>
<event>
 6    1  0.1280499E-001  0.3000000E+03  0.7818608E-02  0.1093470E+00
         21   -1    0    0  501  502  0.00000000000E+00  0.00000000000E+00  0.18171736360E+01  0.18171736360E+01  0.00000000000E+00 0. -1.
         13   -1    0    0    0    0 -0.00000000000E+00 -0.00000000000E+00 -0.10000000000E+04  0.10000000000E+04  0.00000000000E+00 0.  1.
    9000005    2    1    2  501    0  0.74602763677E+00  0.32454504709E+02 -0.82338344582E+03  0.82402888698E+03  0.30751090422E+01 0.  0.
         13    1    3    3    0    0 -0.87495844838E+00  0.34804088290E+01 -0.89533934985E+02  0.89605827443E+02  0.00000000000E+00 0.  1.
          1    1    3    3  501    0  0.16209860852E+01  0.28974095881E+02 -0.73384951083E+03  0.73442305953E+03  0.00000000000E+00 0.  1.
         -1    1    1    2    0  502 -0.74602763677E+00 -0.32454504709E+02 -0.17479938055E+03  0.17778828666E+03  0.00000000000E+00 0. -1.
<mgrwt>
<rscale>  1 0.30000000E+03</rscale>
<asrwt>0</asrwt>
<pdfrwt beam="1">  1       21 0.66079181E-02 0.30000000E+03</pdfrwt>
<pdfrwt beam="2">0</pdfrwt>
<totfact> 0.17834022E+04</totfact>
</mgrwt>
</event>
<event>
 6    1  0.1280499E-001  0.3000000E+03  0.7818608E-02  0.1093470E+00
         21   -1    0    0  501  502  0.00000000000E+00  0.00000000000E+00  0.28908125053E+01  0.28908125053E+01  0.00000000000E+00 0. -1.
         13   -1    0    0    0    0 -0.00000000000E+00 -0.00000000000E+00 -0.10000000000E+04  0.10000000000E+04  0.00000000000E+00 0.  1.
    9000005    2    1    2  501    0 -0.35284018465E+02 -0.16851034446E+01 -0.87531214908E+03  0.87607472481E+03  0.93682220869E+01 0.  0.
         13    1    3    3    0    0 -0.15367771646E+02 -0.36925333590E+01 -0.30208644324E+03  0.30249962380E+03  0.00000000000E+00 0.  1.
          3    1    3    3  501    0 -0.19916246819E+02  0.20074299145E+01 -0.57322570584E+03  0.57357510101E+03  0.00000000000E+00 0.  1.
         -1    1    1    2    0  502  0.35284018465E+02  0.16851034446E+01 -0.12179703841E+03  0.12681608770E+03  0.00000000000E+00 0. -1.
<mgrwt>
<rscale>  1 0.30000000E+03</rscale>
<asrwt>0</asrwt>
<pdfrwt beam="1">  1       21 0.10512068E-01 0.30000000E+03</pdfrwt>
<pdfrwt beam="2">0</pdfrwt>
<totfact> 0.78676519E+03</totfact>
</mgrwt>
</event>
<event>
 6    1  0.1280499E-001  0.3000000E+03  0.7818608E-02  0.1093470E+00
         21   -1    0    0  501  502  0.00000000000E+00  0.00000000000E+00  0.22656378088E+01  0.22656378088E+01  0.00000000000E+00 0. -1.
         13   -1    0    0    0    0 -0.00000000000E+00 -0.00000000000E+00 -0.10000000000E+04  0.10000000000E+04  0.00000000000E+00 0.  1.
    9000005    2    1    2  501    0  0.43882897881E+02 -0.14816863446E+02 -0.39745141771E+03  0.40019848076E+03  0.67783766203E+01 0.  0.
         13    1    3    3    0    0  0.22175359653E+02 -0.68611224117E+01 -0.22764452197E+03  0.22882493300E+03  0.00000000000E+00 0.  1.
          1    1    3    3  501    0  0.21707538228E+02 -0.79557410340E+01 -0.16980689574E+03  0.17137354776E+03  0.00000000000E+00 0.  1.
         -3    1    1    2    0  502 -0.43882897881E+02  0.14816863446E+02 -0.60028294448E+03  0.60206715705E+03  0.00000000000E+00 0. -1.
<mgrwt>
<rscale>  1 0.30000000E+03</rscale>
<asrwt>0</asrwt>
<pdfrwt beam="1">  1       21 0.82387003E-02 0.30000000E+03</pdfrwt>
<pdfrwt beam="2">0</pdfrwt>
<totfact> 0.12130401E+04</totfact>
</mgrwt>
</event>
<event>
 6    1  0.1280499E-001  0.3000000E+03  0.7818608E-02  0.1093470E+00
         21   -1    0    0  501  502  0.00000000000E+00  0.00000000000E+00  0.16587389846E+01  0.16587389846E+01  0.00000000000E+00 0. -1.
         13   -1    0    0    0    0 -0.00000000000E+00 -0.00000000000E+00 -0.10000000000E+04  0.10000000000E+04  0.00000000000E+00 0.  1.
    9000005    2    1    2  501    0 -0.24390298347E+02 -0.23113405484E+02 -0.77971516688E+03  0.78046541810E+03  0.64351552138E+01 0.  0.
         13    1    3    3    0    0 -0.20304549573E+02 -0.19957377818E+02 -0.59858640238E+03  0.59926309145E+03  0.00000000000E+00 0.  1.
          3    1    3    3  501    0 -0.40857487734E+01 -0.31560276665E+01 -0.18112876450E+03  0.18120232665E+03  0.00000000000E+00 0.  1.
         -1    1    1    2    0  502  0.24390298347E+02  0.23113405484E+02 -0.21862609413E+03  0.22119332088E+03  0.00000000000E+00 0. -1.
<mgrwt>
<rscale>  1 0.30000000E+03</rscale>
<asrwt>0</asrwt>
<pdfrwt beam="1">  1       21 0.60317908E-02 0.30000000E+03</pdfrwt>
<pdfrwt beam="2">0</pdfrwt>
<totfact> 0.20880474E+04</totfact>
</mgrwt>
</event>
<event>
 6    1  0.1280499E-001  0.3000000E+03  0.7818608E-02  0.1093470E+00
         21   -1    0    0  501  502  0.00000000000E+00  0.00000000000E+00  0.55921644641E+01  0.55921644641E+01  0.00000000000E+00 0. -1.
         13   -1    0    0    0    0 -0.00000000000E+00 -0.00000000000E+00 -0.10000000000E+04  0.10000000000E+04  0.00000000000E+00 0.  1.
    9000005    2    1    2  501    0 -0.53677987898E+02 -0.33124009107E+02 -0.76705502294E+03  0.76965185897E+03  0.34712282094E+01 0.  0.
         13    1    3    3    0    0 -0.42557208363E+02 -0.24805893112E+02 -0.60707416525E+03  0.60906936422E+03  0.00000000000E+00 0.  1.
          3    1    3    3  501    0 -0.11120779535E+02 -0.83181159951E+01 -0.15998085770E+03  0.16058249475E+03  0.00000000000E+00 0.  1.
         -3    1    1    2    0  502  0.53677987898E+02  0.33124009107E+02 -0.22735281259E+03  0.23594030550E+03  0.00000000000E+00 0. -1.
<mgrwt>
<rscale>  1 0.30000000E+03</rscale>
<asrwt>0</asrwt>
<pdfrwt beam="1">  1       21 0.20335186E-01 0.30000000E+03</pdfrwt>
<pdfrwt beam="2">0</pdfrwt>
<totfact> 0.23242352E+03</totfact>
</mgrwt>
</event>
<event>
 6    1  0.1280499E-001  0.3000000E+03  0.7818608E-02  0.1093470E+00
         21   -1    0    0  501  502  0.00000000000E+00  0.00000000000E+00  0.31522780019E+01  0.31522780019E+01  0.00000000000E+00 0. -1.
         13   -1    0    0    0    0 -0.00000000000E+00 -0.00000000000E+00 -0.10000000000E+04  0.10000000000E+04  0.00000000000E+00 0.  1.
    9000005    2    1    2  501    0 -0.47664336909E+02 -0.92995718143E+01 -0.74972752250E+03  0.75130557056E+03  0.32142359865E+01 0.  0.
         13    1    3    3    0    0 -0.37413022390E+02 -0.65782112806E+01 -0.60277641499E+03  0.60397219603E+03  0.00000000000E+00 0.  1.
          1    1    3    3  501    0 -0.10251314519E+02 -0.27213605337E+01 -0.14695110751E+03  0.14733337453E+03  0.00000000000E+00 0.  1.
         -1    1    1    2    0  502  0.47664336909E+02  0.92995718143E+01 -0.24712019950E+03  0.25184670744E+03  0.00000000000E+00 0. -1.
<mgrwt>
<rscale>  1 0.30000000E+03</rscale>
<asrwt>0</asrwt>
<pdfrwt beam="1">  1       21 0.11462853E-01 0.30000000E+03</pdfrwt>
<pdfrwt beam="2">0</pdfrwt>
<totfact> 0.67327853E+03</totfact>
</mgrwt>
</event>
<event>
 6    1  0.1280499E-001  0.3000000E+03  0.7818608E-02  0.1093470E+00
         21   -1    0    0  501  502  0.00000000000E+00  0.00000000000E+00  0.17159997243E+01  0.17159997243E+01  0.00000000000E+00 0. -1.
         13   -1    0    0    0    0 -0.00000000000E+00 -0.00000000000E+00 -0.10000000000E+04  0.10000000000E+04  0.00000000000E+00 0.  1.
    9000005    2    1    2  501    0 -0.12837354709E+02 -0.38357175987E+02 -0.60416056469E+03  0.60552241938E+03  0.33677624176E+01 0.  0.
         13    1    3    3    0    0 -0.48194391856E+01 -0.13044752313E+02 -0.23125891726E+03  0.23167666989E+03  0.00000000000E+00 0.  1.
          3    1    3    3  501    0 -0.80179155237E+01 -0.25312423674E+02 -0.37290164742E+03  0.37384574949E+03  0.00000000000E+00 0.  1.
         -3    1    1    2    0  502  0.12837354709E+02  0.38357175987E+02 -0.39412343559E+03  0.39619358034E+03  0.00000000000E+00 0. -1.
<mgrwt>
<rscale>  1 0.30000000E+03</rscale>
<asrwt>0</asrwt>
<pdfrwt beam="1">  1       21 0.62400122E-02 0.30000000E+03</pdfrwt>
<pdfrwt beam="2">0</pdfrwt>
<totfact> 0.19692305E+04</totfact>
</mgrwt>
</event>
<event>
 6    1  0.1280499E-001  0.3000000E+03  0.7818608E-02  0.1093470E+00
         21   -1    0    0  501  502  0.00000000000E+00  0.00000000000E+00  0.11832295757E+01  0.11832295757E+01  0.00000000000E+00 0. -1.
         13   -1    0    0    0    0 -0.00000000000E+00 -0.00000000000E+00 -0.10000000000E+04  0.10000000000E+04  0.00000000000E+00 0.  1.
    9000005    2    1    2  501    0  0.22998408003E+02  0.21660230839E+02 -0.69541204055E+03  0.69613811410E+03  0.35036236153E+01 0.  0.
         13    1    3    3    0    0  0.20644574471E+01  0.75324863676E+00 -0.50429555695E+02  0.50477415303E+02  0.00000000000E+00 0.  1.
          3    1    3    3  501    0  0.20933950556E+02  0.20906982202E+02 -0.64498248486E+03  0.64566069879E+03  0.00000000000E+00 0.  1.
         -3    1    1    2    0  502 -0.22998408003E+02 -0.21660230839E+02 -0.30340472987E+03  0.30504511548E+03  0.00000000000E+00 0. -1.
<mgrwt>
<rscale>  1 0.30000000E+03</rscale>
<asrwt>0</asrwt>
<pdfrwt beam="1">  1       21 0.43026621E-02 0.30000000E+03</pdfrwt>
<pdfrwt beam="2">0</pdfrwt>
<totfact> 0.37177809E+04</totfact>
</mgrwt>
</event>
<event>
 6    1  0.1280499E-001  0.3000000E+03  0.7818608E-02  0.1093470E+00
         21   -1    0    0  501  502  0.00000000000E+00  0.00000000000E+00  0.88942050987E+01  0.88942050987E+01  0.00000000000E+00 0. -1.
         13   -1    0    0    0    0 -0.00000000000E+00 -0.00000000000E+00 -0.10000000000E+04  0.10000000000E+04  0.00000000000E+00 0.  1.
    9000005    2    1    2  501    0  0.31873269607E+02  0.50508396215E+02 -0.88590127590E+03  0.88791902491E+03  0.34814868940E+01 0.  0.
         13    1    3    3    0    0  0.26742315868E+02  0.39813972965E+02 -0.70685547746E+03  0.70848074774E+03  0.00000000000E+00 0.  1.
          1    1    3    3  501    0  0.51309537385E+01  0.10694423250E+02 -0.17904579843E+03  0.17943827716E+03  0.00000000000E+00 0.  1.
         -1    1    1    2    0  502 -0.31873269607E+02 -0.50508396215E+02 -0.10520451900E+03  0.12097518019E+03  0.00000000000E+00 0. -1.
<mgrwt>
<rscale>  1 0.30000000E+03</rscale>
<asrwt>0</asrwt>
<pdfrwt beam="1">  1       21 0.32342632E-01 0.30000000E+03</pdfrwt>
<pdfrwt beam="2">0</pdfrwt>
<totfact> 0.93460864E+02</totfact>
</mgrwt>
</event>
<event>
 6    1  0.1280499E-001  0.3000000E+03  0.7818608E-02  0.1093470E+00
         21   -1    0    0  501  502  0.00000000000E+00  0.00000000000E+00  0.11459953857E+01  0.11459953857E+01  0.00000000000E+00 0. -1.
         13   -1    0    0    0    0 -0.00000000000E+00 -0.00000000000E+00 -0.10000000000E+04  0.10000000000E+04  0.00000000000E+00 0.  1.
    9000005    2    1    2  501    0  0.94555714007E+01 -0.31271155203E+02 -0.62801425603E+03  0.62887000622E+03  0.28785360302E+01 0.  0.
         13    1    3    3    0    0  0.20987211955E+01 -0.11350220830E+02 -0.23103529000E+03  0.23132344751E+03  0.00000000000E+00 0.  1.
          1    1    3    3  501    0  0.73568502052E+01 -0.19920934373E+02 -0.39697896603E+03  0.39754655871E+03  0.00000000000E+00 0.  1.
         -1    1    1    2    0  502 -0.94555714007E+01  0.31271155203E+02 -0.37083974859E+03  0.37227598917E+03  0.00000000000E+00 0. -1.
<mgrwt>
<rscale>  1 0.30000000E+03</rscale>
<asrwt>0</asrwt>
<pdfrwt beam="1">  1       21 0.41672647E-02 0.30000000E+03</pdfrwt>
<pdfrwt beam="2">0</pdfrwt>
<totfact> 0.39241422E+04</totfact>
</mgrwt>
</event>
<event>
 6    1  0.1280499E-001  0.3000000E+03  0.7818608E-02  0.1093470E+00
         21   -1    0    0  501  502  0.00000000000E+00  0.00000000000E+00  0.29115050020E+01  0.29115050020E+01  0.00000000000E+00 0. -1.
         13   -1    0    0    0    0 -0.00000000000E+00 -0.00000000000E+00 -0.10000000000E+04  0.10000000000E+04  0.00000000000E+00 0.  1.
    9000005    2    1    2  501    0 -0.35806505195E+02 -0.26756400979E+02 -0.77919406369E+03  0.78047950639E+03  0.26192004832E+01 0.  0.
         13    1    3    3    0    0 -0.35545695370E+02 -0.26730497740E+02 -0.77652971153E+03  0.77780229420E+03  0.00000000000E+00 0.  1.
          3    1    3    3  501    0 -0.26080982507E+00 -0.25903238882E-01 -0.26643521556E+01  0.26772121977E+01  0.00000000000E+00 0.  1.
         -3    1    1    2    0  502  0.35806505195E+02  0.26756400979E+02 -0.21789443131E+03  0.22243199861E+03  0.00000000000E+00 0. -1.
<mgrwt>
<rscale>  1 0.30000000E+03</rscale>
<asrwt>0</asrwt>
<pdfrwt beam="1">  1       21 0.10587313E-01 0.30000000E+03</pdfrwt>
<pdfrwt beam="2">0</pdfrwt>
<totfact> 0.77676663E+03</totfact>
</mgrwt>
</event>
<event>
 6    1  0.1280499E-001  0.3000000E+03  0.7818608E-02  0.1093470E+00
         21   -1    0    0  501  502  0.00000000000E+00  0.00000000000E+00  0.94450028413E+00  0.94450028413E+00  0.00000000000E+00 0. -1.
         13   -1    0    0    0    0 -0.00000000000E+00 -0.00000000000E+00 -0.10000000000E+04  0.10000000000E+04  0.00000000000E+00 0.  1.
    9000005    2    1    2  501    0  0.10306187292E+02  0.28188548691E+02 -0.45772085501E+03  0.45877846545E+03  0.82757157808E+01 0.  0.
         13    1    3    3    0    0  0.66197625155E+01  0.24288708043E+02 -0.40605997478E+03  0.40683960687E+03  0.00000000000E+00 0.  1.
          3    1    3    3  501    0  0.36864247767E+01  0.38998406475E+01 -0.51660880231E+02  0.51938858583E+02  0.00000000000E+00 0.  1.
         -3    1    1    2    0  502 -0.10306187292E+02 -0.28188548691E+02 -0.54133464470E+03  0.54216603484E+03  0.00000000000E+00 0. -1.
<mgrwt>
<rscale>  1 0.30000000E+03</rscale>
<asrwt>0</asrwt>
<pdfrwt beam="1">  1       21 0.34345537E-02 0.30000000E+03</pdfrwt>
<pdfrwt beam="2">0</pdfrwt>
<totfact> 0.54305284E+04</totfact>
</mgrwt>
</event>
<event>
 6    1  0.1280499E-001  0.3000000E+03  0.7818608E-02  0.1093470E+00
         21   -1    0    0  501  502  0.00000000000E+00  0.00000000000E+00  0.55464302915E+01  0.55464302915E+01  0.00000000000E+00 0. -1.
         13   -1    0    0    0    0 -0.00000000000E+00 -0.00000000000E+00 -0.10000000000E+04  0.10000000000E+04  0.00000000000E+00 0.  1.
    9000005    2    1    2  501    0  0.26266623587E+02  0.36816645415E+02 -0.89659887666E+03  0.89774595791E+03  0.35858637889E+01 0.  0.
         13    1    3    3    0    0  0.12714114976E+02  0.20444640665E+02 -0.49472162243E+03  0.49530709237E+03  0.00000000000E+00 0.  1.
          1    1    3    3  501    0  0.13552508611E+02  0.16372004750E+02 -0.40187725423E+03  0.40243886554E+03  0.00000000000E+00 0.  1.
         -1    1    1    2    0  502 -0.26266623587E+02 -0.36816645415E+02 -0.97854693048E+02  0.10780047238E+03  0.00000000000E+00 0. -1.
<mgrwt>
<rscale>  1 0.30000000E+03</rscale>
<asrwt>0</asrwt>
<pdfrwt beam="1">  1       21 0.20168880E-01 0.30000000E+03</pdfrwt>
<pdfrwt beam="2">0</pdfrwt>
<totfact> 0.23609998E+03</totfact>
</mgrwt>
</event>
<event>
 6    1  0.1280499E-001  0.3000000E+03  0.7818608E-02  0.1093470E+00
         21   -1    0    0  501  502  0.00000000000E+00  0.00000000000E+00  0.70304509080E+01  0.70304509080E+01  0.00000000000E+00 0. -1.
         13   -1    0    0    0    0 -0.00000000000E+00 -0.00000000000E+00 -0.10000000000E+04  0.10000000000E+04  0.00000000000E+00 0.  1.
    9000005    2    1    2  501    0 -0.38276341410E+02 -0.36014844278E+02 -0.88875709575E+03  0.89031548720E+03  0.32162393838E+01 0.  0.
         13    1    3    3    0    0 -0.15293826262E+01 -0.17794038164E+01 -0.30469759176E+02  0.30559965860E+02  0.00000000000E+00 0.  1.
          3    1    3    3  501    0 -0.36746958784E+02 -0.34235440462E+02 -0.85828733657E+03  0.85975552134E+03  0.00000000000E+00 0.  1.
         -3    1    1    2    0  502  0.38276341410E+02  0.36014844278E+02 -0.10421245335E+03  0.11671496370E+03  0.00000000000E+00 0. -1.
<mgrwt>
<rscale>  1 0.30000000E+03</rscale>
<asrwt>0</asrwt>
<pdfrwt beam="1">  1       21 0.25565330E-01 0.30000000E+03</pdfrwt>
<pdfrwt beam="2">0</pdfrwt>
<totfact> 0.14926929E+03</totfact>
</mgrwt>
</event>
<event>
 6    1  0.1280499E-001  0.3000000E+03  0.7818608E-02  0.1093470E+00
         21   -1    0    0  501  502  0.00000000000E+00  0.00000000000E+00  0.38556808918E+01  0.38556808918E+01  0.00000000000E+00 0. -1.
         13   -1    0    0    0    0 -0.00000000000E+00 -0.00000000000E+00 -0.10000000000E+04  0.10000000000E+04  0.00000000000E+00 0.  1.
    9000005    2    1    2  501    0 -0.42928718353E+02  0.10414184464E+02 -0.85064914964E+03  0.85180248482E+03  0.34881602800E+01 0.  0.
         13    1    3    3    0    0 -0.18087613823E+02  0.61336607578E+01 -0.36046181492E+03  0.36096745502E+03  0.00000000000E+00 0.  1.
          1    1    3    3  501    0 -0.24841104530E+02  0.42805237064E+01 -0.49018733473E+03  0.49083502981E+03  0.00000000000E+00 0.  1.
         -3    1    1    2    0  502  0.42928718353E+02 -0.10414184464E+02 -0.14549516946E+03  0.15205319607E+03  0.00000000000E+00 0. -1.
<mgrwt>
<rscale>  1 0.30000000E+03</rscale>
<asrwt>0</asrwt>
<pdfrwt beam="1">  1       21 0.14020687E-01 0.30000000E+03</pdfrwt>
<pdfrwt beam="2">0</pdfrwt>
<totfact> 0.46640055E+03</totfact>
</mgrwt>
</event>
<event>
 6    1  0.1280499E-001  0.3000000E+03  0.7818608E-02  0.1093470E+00
         21   -1    0    0  501  502  0.00000000000E+00  0.00000000000E+00  0.17348189910E+01  0.17348189910E+01  0.00000000000E+00 0. -1.
         13   -1    0    0    0    0 -0.00000000000E+00 -0.00000000000E+00 -0.10000000000E+04  0.10000000000E+04  0.00000000000E+00 0.  1.
    9000005    2    1    2  501    0 -0.34235841100E+02 -0.13550941432E+02 -0.73249268866E+03  0.73342392000E+03  0.30637646674E+01 0.  0.
         13    1    3    3    0    0 -0.21006071887E+02 -0.68224913028E+01 -0.44944400770E+03  0.44998635257E+03  0.00000000000E+00 0.  1.
          1    1    3    3  501    0 -0.13229769213E+02 -0.67284501293E+01 -0.28304868097E+03  0.28343756743E+03  0.00000000000E+00 0.  1.
         -3    1    1    2    0  502  0.34235841100E+02  0.13550941432E+02 -0.26577249235E+03  0.26831089899E+03  0.00000000000E+00 0. -1.
<mgrwt>
<rscale>  1 0.30000000E+03</rscale>
<asrwt>0</asrwt>
<pdfrwt beam="1">  1       21 0.63084460E-02 0.30000000E+03</pdfrwt>
<pdfrwt beam="2">0</pdfrwt>
<totfact> 0.19324609E+04</totfact>
</mgrwt>
</event>
<event>
 6    1  0.1280499E-001  0.3000000E+03  0.7818608E-02  0.1093470E+00
         21   -1    0    0  501  502  0.00000000000E+00  0.00000000000E+00  0.13531255896E+01  0.13531255896E+01  0.00000000000E+00 0. -1.
         13   -1    0    0    0    0 -0.00000000000E+00 -0.00000000000E+00 -0.10000000000E+04  0.10000000000E+04  0.00000000000E+00 0.  1.
    9000005    2    1    2  501    0  0.20735433146E+02 -0.24147703336E+02 -0.74937242546E+03  0.75005485528E+03  0.31912561475E+01 0.  0.
         13    1    3    3    0    0  0.20846678476E+02 -0.23887658180E+02 -0.74232451298E+03  0.74300126971E+03  0.00000000000E+00 0.  1.
          1    1    3    3  501    0 -0.11124533050E+00 -0.26004515680E+00 -0.70479124820E+01  0.70535855678E+01  0.00000000000E+00 0.  1.
         -1    1    1    2    0  502 -0.20735433146E+02  0.24147703336E+02 -0.24927444895E+03  0.25129827031E+03  0.00000000000E+00 0. -1.
<mgrwt>
<rscale>  1 0.30000000E+03</rscale>
<asrwt>0</asrwt>
<pdfrwt beam="1">  1       21 0.49204671E-02 0.30000000E+03</pdfrwt>
<pdfrwt beam="2">0</pdfrwt>
<totfact> 0.29602559E+04</totfact>
</mgrwt>
</event>
<event>
 6    1  0.1280499E-001  0.3000000E+03  0.7818608E-02  0.1093470E+00
         21   -1    0    0  501  502  0.00000000000E+00  0.00000000000E+00  0.14208185652E+01  0.14208185652E+01  0.00000000000E+00 0. -1.
         13   -1    0    0    0    0 -0.00000000000E+00 -0.00000000000E+00 -0.10000000000E+04  0.10000000000E+04  0.00000000000E+00 0.  1.
    9000005    2    1    2  501    0  0.56089645166E+01 -0.34543689249E+02 -0.68352666256E+03  0.68443057172E+03  0.34325086177E+01 0.  0.
         13    1    3    3    0    0  0.48277499812E+01 -0.19117501549E+02 -0.38493363546E+03  0.38543830861E+03  0.00000000000E+00 0.  1.
          3    1    3    3  501    0  0.78121453538E+00 -0.15426187700E+02 -0.29859302710E+03  0.29899226311E+03  0.00000000000E+00 0.  1.
         -3    1    1    2    0  502 -0.56089645166E+01  0.34543689249E+02 -0.31505251887E+03  0.31699024685E+03  0.00000000000E+00 0. -1.
<mgrwt>
<rscale>  1 0.30000000E+03</rscale>
<asrwt>0</asrwt>
<pdfrwt beam="1">  1       21 0.51666239E-02 0.30000000E+03</pdfrwt>
<pdfrwt beam="2">0</pdfrwt>
<totfact> 0.27237808E+04</totfact>
</mgrwt>
</event>
<event>
 6    1  0.1280499E-001  0.3000000E+03  0.7818608E-02  0.1093470E+00
         21   -1    0    0  501  502  0.00000000000E+00  0.00000000000E+00  0.43475566876E+01  0.43475566876E+01  0.00000000000E+00 0. -1.
         13   -1    0    0    0    0 -0.00000000000E+00 -0.00000000000E+00 -0.10000000000E+04  0.10000000000E+04  0.00000000000E+00 0.  1.
    9000005    2    1    2  501    0 -0.41808755064E+02  0.13829385465E+02 -0.87143798863E+03  0.87255812368E+03  0.37798488129E+01 0.  0.
         13    1    3    3    0    0 -0.24883412517E+02  0.10048043385E+02 -0.54219788325E+03  0.54286157720E+03  0.00000000000E+00 0.  1.
          3    1    3    3  501    0 -0.16925342547E+02  0.37813420794E+01 -0.32924010538E+03  0.32969654648E+03  0.00000000000E+00 0.  1.
         -1    1    1    2    0  502  0.41808755064E+02 -0.13829385465E+02 -0.12421445468E+03  0.13178943301E+03  0.00000000000E+00 0. -1.
<mgrwt>
<rscale>  1 0.30000000E+03</rscale>
<asrwt>0</asrwt>
<pdfrwt beam="1">  1       21 0.15809330E-01 0.30000000E+03</pdfrwt>
<pdfrwt beam="2">0</pdfrwt>
<totfact> 0.37351679E+03</totfact>
</mgrwt>
</event>
<event>
 6    1  0.1280499E-001  0.3000000E+03  0.7818608E-02  0.1093470E+00
         21   -1    0    0  501  502  0.00000000000E+00  0.00000000000E+00  0.13099712988E+01  0.13099712988E+01  0.00000000000E+00 0. -1.
         13   -1    0    0    0    0 -0.00000000000E+00 -0.00000000000E+00 -0.10000000000E+04  0.10000000000E+04  0.00000000000E+00 0.  1.
    9000005    2    1    2  501    0  0.31040963126E+02  0.17759559632E+02 -0.43053109880E+03  0.43202663853E+03  0.33235537095E+01 0.  0.
         13    1    3    3    0    0  0.24942180024E+02  0.15728864967E+02 -0.35223392909E+03  0.35346605260E+03  0.00000000000E+00 0.  1.
          1    1    3    3  501    0  0.60987831025E+01  0.20306946654E+01 -0.78297169714E+02  0.78560585929E+02  0.00000000000E+00 0.  1.
         -3    1    1    2    0  502 -0.31040963126E+02 -0.17759559632E+02 -0.56815892990E+03  0.56928333277E+03  0.00000000000E+00 0. -1.
<mgrwt>
<rscale>  1 0.30000000E+03</rscale>
<asrwt>0</asrwt>
<pdfrwt beam="1">  1       21 0.47635420E-02 0.30000000E+03</pdfrwt>
<pdfrwt beam="2">0</pdfrwt>
<totfact> 0.31281699E+04</totfact>
</mgrwt>
</event>
<event>
 6    1  0.1280499E-001  0.3000000E+03  0.7818608E-02  0.1093470E+00
         21   -1    0    0  501  502  0.00000000000E+00  0.00000000000E+00  0.33092042161E+01  0.33092042161E+01  0.00000000000E+00 0. -1.
         13   -1    0    0    0    0 -0.00000000000E+00 -0.00000000000E+00 -0.10000000000E+04  0.10000000000E+04  0.00000000000E+00 0.  1.
    9000005    2    1    2  501    0 -0.48007275741E+02  0.90614767921E+00 -0.77423154687E+03  0.77572704969E+03  0.35281492201E+01 0.  0.
         13    1    3    3    0    0 -0.43161611159E+02  0.15497019815E+00 -0.68066989111E+03  0.68203698533E+03  0.00000000000E+00 0.  1.
          3    1    3    3  501    0 -0.48456645827E+01  0.75117748106E+00 -0.93561655751E+02  0.93690064360E+02  0.00000000000E+00 0.  1.
         -3    1    1    2    0  502  0.48007275741E+02 -0.90614767921E+00 -0.22245924892E+03  0.22758215452E+03  0.00000000000E+00 0. -1.
<mgrwt>
<rscale>  1 0.30000000E+03</rscale>
<asrwt>0</asrwt>
<pdfrwt beam="1">  1       21 0.12033495E-01 0.30000000E+03</pdfrwt>
<pdfrwt beam="2">0</pdfrwt>
<totfact> 0.61658435E+03</totfact>
</mgrwt>
</event>
<event>
 6    1  0.1280499E-001  0.3000000E+03  0.7818608E-02  0.1093470E+00
         21   -1    0    0  501  502  0.00000000000E+00  0.00000000000E+00  0.10008498246E+01  0.10008498246E+01  0.00000000000E+00 0. -1.
         13   -1    0    0    0    0 -0.00000000000E+00 -0.00000000000E+00 -0.10000000000E+04  0.10000000000E+04  0.00000000000E+00 0.  1.
    9000005    2    1    2  501    0  0.29325956237E+02 -0.84715305145E+01 -0.62651596231E+03  0.62726898901E+03  0.35149705282E+01 0.  0.
         13    1    3    3    0    0  0.12657005863E+02 -0.21993612771E+01 -0.28367492647E+03  0.28396566851E+03  0.00000000000E+00 0.  1.
          1    1    3    3  501    0  0.16668950374E+02 -0.62721692374E+01 -0.34284103584E+03  0.34330332050E+03  0.00000000000E+00 0.  1.
         -1    1    1    2    0  502 -0.29325956237E+02  0.84715305145E+01 -0.37248318787E+03  0.37373186081E+03  0.00000000000E+00 0. -1.
<mgrwt>
<rscale>  1 0.30000000E+03</rscale>
<asrwt>0</asrwt>
<pdfrwt beam="1">  1       21 0.36394616E-02 0.30000000E+03</pdfrwt>
<pdfrwt beam="2">0</pdfrwt>
<totfact> 0.49280917E+04</totfact>
</mgrwt>
</event>
<event>
 6    1  0.1280499E-001  0.3000000E+03  0.7818608E-02  0.1093470E+00
         21   -1    0    0  501  502  0.00000000000E+00  0.00000000000E+00  0.11812099524E+01  0.11812099524E+01  0.00000000000E+00 0. -1.
         13   -1    0    0    0    0 -0.00000000000E+00 -0.00000000000E+00 -0.10000000000E+04  0.10000000000E+04  0.00000000000E+00 0.  1.
    9000005    2    1    2  501    0 -0.19365063586E+02  0.26921470133E+02 -0.62818147576E+03  0.62906323137E+03  0.29683887802E+01 0.  0.
         13    1    3    3    0    0 -0.42645571247E+00  0.95157102733E-01 -0.60789824013E+01  0.60946654038E+01  0.00000000000E+00 0.  1.
          3    1    3    3  501    0 -0.18938607873E+02  0.26826313031E+02 -0.62210249336E+03  0.62296856597E+03  0.00000000000E+00 0.  1.
         -3    1    1    2    0  502  0.19365063586E+02 -0.26921470133E+02 -0.37063731429E+03  0.37211797858E+03  0.00000000000E+00 0. -1.
<mgrwt>
<rscale>  1 0.30000000E+03</rscale>
<asrwt>0</asrwt>
<pdfrwt beam="1">  1       21 0.42953180E-02 0.30000000E+03</pdfrwt>
<pdfrwt beam="2">0</pdfrwt>
<totfact> 0.37285375E+04</totfact>
</mgrwt>
</event>
<event>
 6    1  0.1280499E-001  0.3000000E+03  0.7818608E-02  0.1093470E+00
         21   -1    0    0  501  502  0.00000000000E+00  0.00000000000E+00  0.10731994140E+01  0.10731994140E+01  0.00000000000E+00 0. -1.
         13   -1    0    0    0    0 -0.00000000000E+00 -0.00000000000E+00 -0.10000000000E+04  0.10000000000E+04  0.00000000000E+00 0.  1.
    9000005    2    1    2  501    0  0.29615535162E+01 -0.32545271915E+02 -0.51617056238E+03  0.51721211289E+03  0.28904552455E+01 0.  0.
         13    1    3    3    0    0 -0.36884489883E+00 -0.74149733729E+00 -0.13822647457E+02  0.13847434693E+02  0.00000000000E+00 0.  1.
          3    1    3    3  501    0  0.33303984150E+01 -0.31803774577E+02 -0.50234791492E+03  0.50336467820E+03  0.00000000000E+00 0.  1.
         -3    1    1    2    0  502 -0.29615535162E+01  0.32545271915E+02 -0.48275623821E+03  0.48386108653E+03  0.00000000000E+00 0. -1.
<mgrwt>
<rscale>  1 0.30000000E+03</rscale>
<asrwt>0</asrwt>
<pdfrwt beam="1">  1       21 0.39025516E-02 0.30000000E+03</pdfrwt>
<pdfrwt beam="2">0</pdfrwt>
<totfact> 0.43829425E+04</totfact>
</mgrwt>
</event>
<event>
 6    1  0.1280499E-001  0.3000000E+03  0.7818608E-02  0.1093470E+00
         21   -1    0    0  501  502  0.00000000000E+00  0.00000000000E+00  0.16072715267E+02  0.16072715267E+02  0.00000000000E+00 0. -1.
         13   -1    0    0    0    0 -0.00000000000E+00 -0.00000000000E+00 -0.10000000000E+04  0.10000000000E+04  0.00000000000E+00 0.  1.
    9000005    2    1    2  501    0 -0.67442415760E+02  0.62499088751E+02 -0.84168867349E+03  0.84670200332E+03  0.31374833510E+01 0.  0.
         13    1    3    3    0    0 -0.48728511753E+02  0.45396847511E+02 -0.59660792005E+03  0.60031354465E+03  0.00000000000E+00 0.  1.
          3    1    3    3  501    0 -0.18713904006E+02  0.17102241240E+02 -0.24508075344E+03  0.24638845867E+03  0.00000000000E+00 0.  1.
         -1    1    1    2    0  502  0.67442415760E+02 -0.62499088751E+02 -0.14223861124E+03  0.16937071195E+03  0.00000000000E+00 0. -1.
<mgrwt>
<rscale>  1 0.30000000E+03</rscale>
<asrwt>0</asrwt>
<pdfrwt beam="1">  1       21 0.58446361E-01 0.30000000E+03</pdfrwt>
<pdfrwt beam="2">0</pdfrwt>
<totfact> 0.26632719E+02</totfact>
</mgrwt>
</event>
<event>
 6    1  0.1280499E-001  0.3000000E+03  0.7818608E-02  0.1093470E+00
         21   -1    0    0  501  502  0.00000000000E+00  0.00000000000E+00  0.95562638760E+00  0.95562638760E+00  0.00000000000E+00 0. -1.
         13   -1    0    0    0    0 -0.00000000000E+00 -0.00000000000E+00 -0.10000000000E+04  0.10000000000E+04  0.00000000000E+00 0.  1.
    9000005    2    1    2  501    0 -0.18283083492E+02  0.23895762927E+02 -0.39344303792E+03  0.39460733009E+03  0.34988922513E+01 0.  0.
         13    1    3    3    0    0 -0.14738088701E+02  0.16732389038E+02 -0.29054856565E+03  0.29140290511E+03  0.00000000000E+00 0.  1.
          1    1    3    3  501    0 -0.35449947905E+01  0.71633738888E+01 -0.10289447227E+03  0.10320442499E+03  0.00000000000E+00 0.  1.
         -3    1    1    2    0  502  0.18283083492E+02 -0.23895762927E+02 -0.60560133569E+03  0.60634829630E+03  0.00000000000E+00 0. -1.
<mgrwt>
<rscale>  1 0.30000000E+03</rscale>
<asrwt>0</asrwt>
<pdfrwt beam="1">  1       21 0.34750124E-02 0.30000000E+03</pdfrwt>
<pdfrwt beam="2">0</pdfrwt>
<totfact> 0.53251711E+04</totfact>
</mgrwt>
</event>
<event>
 6    1  0.1280499E-001  0.3000000E+03  0.7818608E-02  0.1093470E+00
         21   -1    0    0  501  502  0.00000000000E+00  0.00000000000E+00  0.55809648315E+01  0.55809648315E+01  0.00000000000E+00 0. -1.
         13   -1    0    0    0    0 -0.00000000000E+00 -0.00000000000E+00 -0.10000000000E+04  0.10000000000E+04  0.00000000000E+00 0.  1.
    9000005    2    1    2  501    0 -0.47570416597E+02 -0.57173638846E+02 -0.54242450594E+03  0.54750801871E+03  0.29860334318E+01 0.  0.
         13    1    3    3    0    0 -0.18653495088E+02 -0.20271917633E+02 -0.19754703167E+03  0.19945860033E+03  0.00000000000E+00 0.  1.
          3    1    3    3  501    0 -0.28916921509E+02 -0.36901721212E+02 -0.34487747427E+03  0.34804941838E+03  0.00000000000E+00 0.  1.
         -3    1    1    2    0  502  0.47570416597E+02  0.57173638846E+02 -0.45199452923E+03  0.45807294612E+03  0.00000000000E+00 0. -1.
<mgrwt>
<rscale>  1 0.30000000E+03</rscale>
<asrwt>0</asrwt>
<pdfrwt beam="1">  1       21 0.20294460E-01 0.30000000E+03</pdfrwt>
<pdfrwt beam="2">0</pdfrwt>
<totfact> 0.23331594E+03</totfact>
</mgrwt>
</event>
<event>
 6    1  0.1280499E-001  0.3000000E+03  0.7818608E-02  0.1093470E+00
         21   -1    0    0  501  502  0.00000000000E+00  0.00000000000E+00  0.11984671482E+01  0.11984671482E+01  0.00000000000E+00 0. -1.
         13   -1    0    0    0    0 -0.00000000000E+00 -0.00000000000E+00 -0.10000000000E+04  0.10000000000E+04  0.00000000000E+00 0.  1.
    9000005    2    1    2  501    0  0.31285655194E+02 -0.13801508359E+02 -0.43850068742E+03  0.43985515754E+03  0.45202754341E+01 0.  0.
         13    1    3    3    0    0  0.20039744813E+02 -0.67138150639E+01 -0.28209863842E+03  0.28288921592E+03  0.00000000000E+00 0.  1.
          1    1    3    3  501    0  0.11245910381E+02 -0.70876932952E+01 -0.15640204900E+03  0.15696594162E+03  0.00000000000E+00 0.  1.
         -1    1    1    2    0  502 -0.31285655194E+02  0.13801508359E+02 -0.56030084543E+03  0.56134330961E+03  0.00000000000E+00 0. -1.
<mgrwt>
<rscale>  1 0.30000000E+03</rscale>
<asrwt>0</asrwt>
<pdfrwt beam="1">  1       21 0.43580715E-02 0.30000000E+03</pdfrwt>
<pdfrwt beam="2">0</pdfrwt>
<totfact> 0.36381533E+04</totfact>
</mgrwt>
</event>
<event>
 6    1  0.1280499E-001  0.3000000E+03  0.7818608E-02  0.1093470E+00
         21   -1    0    0  501  502  0.00000000000E+00  0.00000000000E+00  0.21837780650E+01  0.21837780650E+01  0.00000000000E+00 0. -1.
         13   -1    0    0    0    0 -0.00000000000E+00 -0.00000000000E+00 -0.10000000000E+04  0.10000000000E+04  0.00000000000E+00 0.  1.
    9000005    2    1    2  501    0  0.36386693285E+02 -0.51481308182E+01 -0.80803549261E+03  0.80887775146E+03  0.33711702066E+01 0.  0.
         13    1    3    3    0    0  0.35486109079E+01  0.47064118657E+00 -0.73442182240E+02  0.73529370151E+02  0.00000000000E+00 0.  1.
          1    1    3    3  501    0  0.32838082377E+02 -0.56187720048E+01 -0.73459331037E+03  0.73534838130E+03  0.00000000000E+00 0.  1.
         -1    1    1    2    0  502 -0.36386693285E+02  0.51481308182E+01 -0.18978072933E+03  0.19330602661E+03  0.00000000000E+00 0. -1.
<mgrwt>
<rscale>  1 0.30000000E+03</rscale>
<asrwt>0</asrwt>
<pdfrwt beam="1">  1       21 0.79410279E-02 0.30000000E+03</pdfrwt>
<pdfrwt beam="2">0</pdfrwt>
<totfact> 0.12940923E+04</totfact>
</mgrwt>
</event>
<event>
 6    1  0.1280499E-001  0.3000000E+03  0.7818608E-02  0.1093470E+00
         21   -1    0    0  501  502  0.00000000000E+00  0.00000000000E+00  0.18570400428E+01  0.18570400428E+01  0.00000000000E+00 0. -1.
         13   -1    0    0    0    0 -0.00000000000E+00 -0.00000000000E+00 -0.10000000000E+04  0.10000000000E+04  0.00000000000E+00 0.  1.
    9000005    2    1    2  501    0  0.12887228112E+02  0.32987722935E+02 -0.78394559659E+03  0.78475157953E+03  0.31737427021E+01 0.  0.
         13    1    3    3    0    0  0.12131396334E+02  0.28031129312E+02 -0.67388424686E+03  0.67457608404E+03  0.00000000000E+00 0.  1.
          3    1    3    3  501    0  0.75583177734E+00  0.49565936230E+01 -0.11006134974E+03  0.11017549549E+03  0.00000000000E+00 0.  1.
         -1    1    1    2    0  502 -0.12887228112E+02 -0.32987722935E+02 -0.21419736336E+03  0.21710546051E+03  0.00000000000E+00 0. -1.
<mgrwt>
<rscale>  1 0.30000000E+03</rscale>
<asrwt>0</asrwt>
<pdfrwt beam="1">  1       21 0.67528871E-02 0.30000000E+03</pdfrwt>
<pdfrwt beam="2">0</pdfrwt>
<totfact> 0.17175254E+04</totfact>
</mgrwt>
</event>
<event>
 6    1  0.1280499E-001  0.3000000E+03  0.7818608E-02  0.1093470E+00
         21   -1    0    0  501  502  0.00000000000E+00  0.00000000000E+00  0.39065002711E+01  0.39065002711E+01  0.00000000000E+00 0. -1.
         13   -1    0    0    0    0 -0.00000000000E+00 -0.00000000000E+00 -0.10000000000E+04  0.10000000000E+04  0.00000000000E+00 0.  1.
    9000005    2    1    2  501    0  0.13224609118E+02 -0.36958004071E+02 -0.88857418539E+03  0.88944608219E+03  0.30766591997E+01 0.  0.
         13    1    3    3    0    0  0.75827397745E+01 -0.23219291293E+02 -0.58202369356E+03  0.58253601888E+03  0.00000000000E+00 0.  1.
          1    1    3    3  501    0  0.56418693436E+01 -0.13738712778E+02 -0.30655049182E+03  0.30691006330E+03  0.00000000000E+00 0.  1.
         -1    1    1    2    0  502 -0.13224609118E+02  0.36958004071E+02 -0.10751931434E+03  0.11446041809E+03  0.00000000000E+00 0. -1.
<mgrwt>
<rscale>  1 0.30000000E+03</rscale>
<asrwt>0</asrwt>
<pdfrwt beam="1">  1       21 0.14205485E-01 0.30000000E+03</pdfrwt>
<pdfrwt beam="2">0</pdfrwt>
<totfact> 0.45530507E+03</totfact>
</mgrwt>
</event>
<event>
 6    1  0.1280499E-001  0.3000000E+03  0.7818608E-02  0.1093470E+00
         21   -1    0    0  501  502  0.00000000000E+00  0.00000000000E+00  0.36578829113E+01  0.36578829113E+01  0.00000000000E+00 0. -1.
         13   -1    0    0    0    0 -0.00000000000E+00 -0.00000000000E+00 -0.10000000000E+04  0.10000000000E+04  0.00000000000E+00 0.  1.
    9000005    2    1    2  501    0 -0.33629383062E+01  0.31745040433E+02 -0.92434724340E+03  0.92490308125E+03  0.29709243903E+01 0.  0.
         13    1    3    3    0    0 -0.91753329744E+00  0.20542853539E+02 -0.61277711025E+03  0.61312204132E+03  0.00000000000E+00 0.  1.
          3    1    3    3  501    0 -0.24454050088E+01  0.11202186894E+02 -0.31157013315E+03  0.31178103994E+03  0.00000000000E+00 0.  1.
         -1    1    1    2    0  502  0.33629383062E+01 -0.31745040433E+02 -0.71994873692E+02  0.78754801657E+02  0.00000000000E+00 0. -1.
<mgrwt>
<rscale>  1 0.30000000E+03</rscale>
<asrwt>0</asrwt>
<pdfrwt beam="1">  1       21 0.13301420E-01 0.30000000E+03</pdfrwt>
<pdfrwt beam="2">0</pdfrwt>
<totfact> 0.51367572E+03</totfact>
</mgrwt>
</event>
<event>
 6    1  0.1280499E-001  0.3000000E+03  0.7818608E-02  0.1093470E+00
         21   -1    0    0  501  502  0.00000000000E+00  0.00000000000E+00  0.27892097951E+01  0.27892097951E+01  0.00000000000E+00 0. -1.
         13   -1    0    0    0    0 -0.00000000000E+00 -0.00000000000E+00 -0.10000000000E+04  0.10000000000E+04  0.00000000000E+00 0.  1.
    9000005    2    1    2  501    0 -0.25438838457E+02 -0.38069214687E+02 -0.74726411952E+03  0.74868344875E+03  0.51809752136E+01 0.  0.
         13    1    3    3    0    0 -0.12102526071E+02 -0.17249026680E+02 -0.38541420531E+03  0.38598977929E+03  0.00000000000E+00 0.  1.
          3    1    3    3  501    0 -0.13336312386E+02 -0.20820188007E+02 -0.36184991421E+03  0.36269366946E+03  0.00000000000E+00 0.  1.
         -3    1    1    2    0  502  0.25438838457E+02  0.38069214687E+02 -0.24994667069E+03  0.25410576104E+03  0.00000000000E+00 0. -1.
<mgrwt>
<rscale>  1 0.30000000E+03</rscale>
<asrwt>0</asrwt>
<pdfrwt beam="1">  1       21 0.10142602E-01 0.30000000E+03</pdfrwt>
<pdfrwt beam="2">0</pdfrwt>
<totfact> 0.83881697E+03</totfact>
</mgrwt>
</event>
<event>
 6    1  0.1280499E-001  0.3000000E+03  0.7818608E-02  0.1093470E+00
         21   -1    0    0  501  502  0.00000000000E+00  0.00000000000E+00  0.15203203081E+01  0.15203203081E+01  0.00000000000E+00 0. -1.
         13   -1    0    0    0    0 -0.00000000000E+00 -0.00000000000E+00 -0.10000000000E+04  0.10000000000E+04  0.00000000000E+00 0.  1.
    9000005    2    1    2  501    0 -0.21532742653E+02  0.21340162658E+02 -0.81368657947E+03  0.81425699918E+03  0.30902368511E+01 0.  0.
         13    1    3    3    0    0 -0.19539409042E+02  0.18131900982E+02 -0.72564400246E+03  0.72613343998E+03  0.00000000000E+00 0.  1.
          1    1    3    3  501    0 -0.19933336102E+01  0.32082616765E+01 -0.88042577003E+02  0.88123559206E+02  0.00000000000E+00 0.  1.
         -1    1    1    2    0  502  0.21532742653E+02 -0.21340162658E+02 -0.18479310023E+03  0.18726332113E+03  0.00000000000E+00 0. -1.
<mgrwt>
<rscale>  1 0.30000000E+03</rscale>
<asrwt>0</asrwt>
<pdfrwt beam="1">  1       21 0.55284491E-02 0.30000000E+03</pdfrwt>
<pdfrwt beam="2">0</pdfrwt>
<totfact> 0.24258554E+04</totfact>
</mgrwt>
</event>
<event>
 6    1  0.1280499E-001  0.3000000E+03  0.7818608E-02  0.1093470E+00
         21   -1    0    0  501  502  0.00000000000E+00  0.00000000000E+00  0.16509983597E+01  0.16509983597E+01  0.00000000000E+00 0. -1.
         13   -1    0    0    0    0 -0.00000000000E+00 -0.00000000000E+00 -0.10000000000E+04  0.10000000000E+04  0.00000000000E+00 0.  1.
    9000005    2    1    2  501    0 -0.20591825770E+02 -0.29950851039E+02 -0.27834250910E+03  0.28072768339E+03  0.35218011020E+01 0.  0.
         13    1    3    3    0    0 -0.18760968739E+02 -0.28157838632E+02 -0.26381001203E+03  0.26597097637E+03  0.00000000000E+00 0.  1.
          1    1    3    3  501    0 -0.18308570313E+01 -0.17930124065E+01 -0.14532497069E+02  0.14756707018E+02  0.00000000000E+00 0.  1.
         -3    1    1    2    0  502  0.20591825770E+02  0.29950851039E+02 -0.72000649254E+03  0.72092331497E+03  0.00000000000E+00 0. -1.
<mgrwt>
<rscale>  1 0.30000000E+03</rscale>
<asrwt>0</asrwt>
<pdfrwt beam="1">  1       21 0.60036431E-02 0.30000000E+03</pdfrwt>
<pdfrwt beam="2">0</pdfrwt>
<totfact> 0.21049618E+04</totfact>
</mgrwt>
</event>
<event>
 6    1  0.1280499E-001  0.3000000E+03  0.7818608E-02  0.1093470E+00
         21   -1    0    0  501  502  0.00000000000E+00  0.00000000000E+00  0.12690680687E+01  0.12690680687E+01  0.00000000000E+00 0. -1.
         13   -1    0    0    0    0 -0.00000000000E+00 -0.00000000000E+00 -0.10000000000E+04  0.10000000000E+04  0.00000000000E+00 0.  1.
    9000005    2    1    2  501    0 -0.30342243672E+02 -0.18482806011E+02 -0.48291487820E+03  0.48423090008E+03  0.32433219575E+01 0.  0.
         13    1    3    3    0    0 -0.23165749434E+01 -0.24975694908E+01 -0.48699446331E+02  0.48818443705E+02  0.00000000000E+00 0.  1.
          1    1    3    3  501    0 -0.28025668729E+02 -0.15985236520E+02 -0.43421543187E+03  0.43541245637E+03  0.00000000000E+00 0.  1.
         -3    1    1    2    0  502  0.30342243672E+02  0.18482806011E+02 -0.51581605373E+03  0.51703816799E+03  0.00000000000E+00 0. -1.
<mgrwt>
<rscale>  1 0.30000000E+03</rscale>
<asrwt>0</asrwt>
<pdfrwt beam="1">  1       21 0.46148027E-02 0.30000000E+03</pdfrwt>
<pdfrwt beam="2">0</pdfrwt>
<totfact> 0.33015070E+04</totfact>
</mgrwt>
</event>
<event>
 6    1  0.1280499E-001  0.3000000E+03  0.7818608E-02  0.1093470E+00
         21   -1    0    0  501  502  0.00000000000E+00  0.00000000000E+00  0.23712098569E+01  0.23712098569E+01  0.00000000000E+00 0. -1.
         13   -1    0    0    0    0 -0.00000000000E+00 -0.00000000000E+00 -0.10000000000E+04  0.10000000000E+04  0.00000000000E+00 0.  1.
    9000005    2    1    2  501    0 -0.13105109550E+02  0.46252907252E+02 -0.57679479825E+03  0.57880029010E+03  0.25418917305E+01 0.  0.
         13    1    3    3    0    0 -0.11698089097E+02  0.43404191751E+02 -0.53559231804E+03  0.53747548808E+03  0.00000000000E+00 0.  1.
          1    1    3    3  501    0 -0.14070204527E+01  0.28487155004E+01 -0.41202480211E+02  0.41324802021E+02  0.00000000000E+00 0.  1.
         -1    1    1    2    0  502  0.13105109550E+02 -0.46252907252E+02 -0.42083399190E+03  0.42357091975E+03  0.00000000000E+00 0. -1.
<mgrwt>
<rscale>  1 0.30000000E+03</rscale>
<asrwt>0</asrwt>
<pdfrwt beam="1">  1       21 0.86225995E-02 0.30000000E+03</pdfrwt>
<pdfrwt beam="2">0</pdfrwt>
<totfact> 0.11194813E+04</totfact>
</mgrwt>
</event>
<event>
 6    1  0.1280499E-001  0.3000000E+03  0.7818608E-02  0.1093470E+00
         21   -1    0    0  501  502  0.00000000000E+00  0.00000000000E+00  0.13758229480E+01  0.13758229480E+01  0.00000000000E+00 0. -1.
         13   -1    0    0    0    0 -0.00000000000E+00 -0.00000000000E+00 -0.10000000000E+04  0.10000000000E+04  0.00000000000E+00 0.  1.
    9000005    2    1    2  501    0  0.67542713641E+01 -0.31131723252E+02 -0.74580533881E+03  0.74655790885E+03  0.10406896632E+02 0.  0.
         13    1    3    3    0    0 -0.74944532725E-01 -0.45502741107E+01 -0.21078642179E+03  0.21083554308E+03  0.00000000000E+00 0.  1.
          3    1    3    3  501    0  0.68292158968E+01 -0.26581449141E+02 -0.53501891701E+03  0.53572236577E+03  0.00000000000E+00 0.  1.
         -3    1    1    2    0  502 -0.67542713641E+01  0.31131723252E+02 -0.25281883825E+03  0.25481791410E+03  0.00000000000E+00 0. -1.
<mgrwt>
<rscale>  1 0.30000000E+03</rscale>
<asrwt>0</asrwt>
<pdfrwt beam="1">  1       21 0.50030031E-02 0.30000000E+03</pdfrwt>
<pdfrwt beam="2">0</pdfrwt>
<totfact> 0.28775186E+04</totfact>
</mgrwt>
</event>
<event>
 6    1  0.1280499E-001  0.3000000E+03  0.7818608E-02  0.1093470E+00
         21   -1    0    0  501  502  0.00000000000E+00  0.00000000000E+00  0.13984085241E+01  0.13984085241E+01  0.00000000000E+00 0. -1.
         13   -1    0    0    0    0 -0.00000000000E+00 -0.00000000000E+00 -0.10000000000E+04  0.10000000000E+04  0.00000000000E+00 0.  1.
    9000005    2    1    2  501    0 -0.31100724617E+02  0.48545446793E+01 -0.76902173077E+03  0.76967069305E+03  0.27805885027E+01 0.  0.
         13    1    3    3    0    0 -0.12643655633E+02  0.33558202685E+01 -0.32080576703E+03  0.32107236523E+03  0.00000000000E+00 0.  1.
          3    1    3    3  501    0 -0.18457068984E+02  0.14987244108E+01 -0.44821596374E+03  0.44859832782E+03  0.00000000000E+00 0.  1.
         -1    1    1    2    0  502  0.31100724617E+02 -0.48545446793E+01 -0.22957986071E+03  0.23172771547E+03  0.00000000000E+00 0. -1.
<mgrwt>
<rscale>  1 0.30000000E+03</rscale>
<asrwt>0</asrwt>
<pdfrwt beam="1">  1       21 0.50851326E-02 0.30000000E+03</pdfrwt>
<pdfrwt beam="2">0</pdfrwt>
<totfact> 0.27987095E+04</totfact>
</mgrwt>
</event>
<event>
 6    1  0.1280499E-001  0.3000000E+03  0.7818608E-02  0.1093470E+00
         21   -1    0    0  501  502  0.00000000000E+00  0.00000000000E+00  0.25385804575E+01  0.25385804575E+01  0.00000000000E+00 0. -1.
         13   -1    0    0    0    0 -0.00000000000E+00 -0.00000000000E+00 -0.10000000000E+04  0.10000000000E+04  0.00000000000E+00 0.  1.
    9000005    2    1    2  501    0  0.29124795930E+02 -0.13939968038E+02 -0.88330514899E+03  0.88390371815E+03  0.39013190920E+01 0.  0.
         13    1    3    3    0    0  0.14018867464E+02 -0.79777766889E+01 -0.39721978117E+03  0.39754713949E+03  0.00000000000E+00 0.  1.
          3    1    3    3  501    0  0.15105928467E+02 -0.59621913494E+01 -0.48608536782E+03  0.48635657866E+03  0.00000000000E+00 0.  1.
         -3    1    1    2    0  502 -0.29124795930E+02  0.13939968038E+02 -0.11415627055E+03  0.11863486230E+03  0.00000000000E+00 0. -1.
<mgrwt>
<rscale>  1 0.30000000E+03</rscale>
<asrwt>0</asrwt>
<pdfrwt beam="1">  1       21 0.92312211E-02 0.30000000E+03</pdfrwt>
<pdfrwt beam="2">0</pdfrwt>
<totfact> 0.99214770E+03</totfact>
</mgrwt>
</event>
<event>
 6    1  0.1280499E-001  0.3000000E+03  0.7818608E-02  0.1093470E+00
         21   -1    0    0  501  502  0.00000000000E+00  0.00000000000E+00  0.67545105106E+01  0.67545105106E+01  0.00000000000E+00 0. -1.
         13   -1    0    0    0    0 -0.00000000000E+00 -0.00000000000E+00 -0.10000000000E+04  0.10000000000E+04  0.00000000000E+00 0.  1.
    9000005    2    1    2  501    0  0.75082649239E+02 -0.25309541060E+02 -0.62903765392E+03  0.63402763386E+03  0.49692421139E+01 0.  0.
         13    1    3    3    0    0  0.54729150687E+02 -0.16170573580E+02 -0.44764011075E+03  0.45126315619E+03  0.00000000000E+00 0.  1.
          3    1    3    3  501    0  0.20353498552E+02 -0.91389674795E+01 -0.18139754317E+03  0.18276447767E+03  0.00000000000E+00 0.  1.
         -3    1    1    2    0  502 -0.75082649239E+02  0.25309541060E+02 -0.36420783557E+03  0.37272687665E+03  0.00000000000E+00 0. -1.
<mgrwt>
<rscale>  1 0.30000000E+03</rscale>
<asrwt>0</asrwt>
<pdfrwt beam="1">  1       21 0.24561908E-01 0.30000000E+03</pdfrwt>
<pdfrwt beam="2">0</pdfrwt>
<totfact> 0.16144322E+03</totfact>
</mgrwt>
</event>
<event>
 6    1  0.1280499E-001  0.3000000E+03  0.7818608E-02  0.1093470E+00
         21   -1    0    0  501  502  0.00000000000E+00  0.00000000000E+00  0.21756986022E+01  0.21756986022E+01  0.00000000000E+00 0. -1.
         13   -1    0    0    0    0 -0.00000000000E+00 -0.00000000000E+00 -0.10000000000E+04  0.10000000000E+04  0.00000000000E+00 0.  1.
    9000005    2    1    2  501    0  0.20985563944E+02  0.41124120710E+02 -0.53537769409E+03  0.53743012110E+03  0.83828716509E+01 0.  0.
         13    1    3    3    0    0  0.25230030817E+01  0.10406489847E+02 -0.96768654293E+02  0.97359298627E+02  0.00000000000E+00 0.  1.
          1    1    3    3  501    0  0.18462560862E+02  0.30717630864E+02 -0.43860903980E+03  0.44007082247E+03  0.00000000000E+00 0.  1.
         -1    1    1    2    0  502 -0.20985563944E+02 -0.41124120710E+02 -0.46244660730E+03  0.46474557750E+03  0.00000000000E+00 0. -1.
<mgrwt>
<rscale>  1 0.30000000E+03</rscale>
<asrwt>0</asrwt>
<pdfrwt beam="1">  1       21 0.79116480E-02 0.30000000E+03</pdfrwt>
<pdfrwt beam="2">0</pdfrwt>
<totfact> 0.13025406E+04</totfact>
</mgrwt>
</event>
<event>
 6    1  0.1280499E-001  0.3000000E+03  0.7818608E-02  0.1093470E+00
         21   -1    0    0  501  502  0.00000000000E+00  0.00000000000E+00  0.38310593990E+01  0.38310593990E+01  0.00000000000E+00 0. -1.
         13   -1    0    0    0    0 -0.00000000000E+00 -0.00000000000E+00 -0.10000000000E+04  0.10000000000E+04  0.00000000000E+00 0.  1.
    9000005    2    1    2  501    0 -0.14753899396E+02 -0.45113898864E+02 -0.82003631810E+03  0.82141493586E+03  0.31610808365E+01 0.  0.
         13    1    3    3    0    0  0.10835933720E+00 -0.11856356043E+01 -0.22548123035E+02  0.22579533342E+02  0.00000000000E+00 0.  1.
          1    1    3    3  501    0 -0.14862258734E+02 -0.43928263259E+02 -0.79748819507E+03  0.79883540252E+03  0.00000000000E+00 0.  1.
         -3    1    1    2    0  502  0.14753899396E+02  0.45113898864E+02 -0.17613262250E+03  0.18241612354E+03  0.00000000000E+00 0. -1.
<mgrwt>
<rscale>  1 0.30000000E+03</rscale>
<asrwt>0</asrwt>
<pdfrwt beam="1">  1       21 0.13931154E-01 0.30000000E+03</pdfrwt>
<pdfrwt beam="2">0</pdfrwt>
<totfact> 0.47192184E+03</totfact>
</mgrwt>
</event>
<event>
 6    1  0.1280499E-001  0.3000000E+03  0.7818608E-02  0.1093470E+00
         21   -1    0    0  501  502  0.00000000000E+00  0.00000000000E+00  0.23989360731E+01  0.23989360731E+01  0.00000000000E+00 0. -1.
         13   -1    0    0    0    0 -0.00000000000E+00 -0.00000000000E+00 -0.10000000000E+04  0.10000000000E+04  0.00000000000E+00 0.  1.
    9000005    2    1    2  501    0  0.35347515116E+02 -0.24268541202E+02 -0.73854263511E+03  0.73981622823E+03  0.66647401215E+01 0.  0.
         13    1    3    3    0    0  0.21660672707E+02 -0.15089749475E+02 -0.50791134450E+03  0.50859691225E+03  0.00000000000E+00 0.  1.
          1    1    3    3  501    0  0.13686842409E+02 -0.91787917270E+01 -0.23063129061E+03  0.23121931598E+03  0.00000000000E+00 0.  1.
         -3    1    1    2    0  502 -0.35347515116E+02  0.24268541202E+02 -0.25905842882E+03  0.26258270784E+03  0.00000000000E+00 0. -1.
<mgrwt>
<rscale>  1 0.30000000E+03</rscale>
<asrwt>0</asrwt>
<pdfrwt beam="1">  1       21 0.87234223E-02 0.30000000E+03</pdfrwt>
<pdfrwt beam="2">0</pdfrwt>
<totfact> 0.10967318E+04</totfact>
</mgrwt>
</event>
<event>
 6    1  0.1280499E-001  0.3000000E+03  0.7818608E-02  0.1093470E+00
         21   -1    0    0  501  502  0.00000000000E+00  0.00000000000E+00  0.15442810840E+01  0.15442810840E+01  0.00000000000E+00 0. -1.
         13   -1    0    0    0    0 -0.00000000000E+00 -0.00000000000E+00 -0.10000000000E+04  0.10000000000E+04  0.00000000000E+00 0.  1.
    9000005    2    1    2  501    0 -0.32693018557E+02  0.57688664899E+00 -0.77587197220E+03  0.77657163705E+03  0.41260111406E+01 0.  0.
         13    1    3    3    0    0 -0.22322378363E+01 -0.55825740979E+00 -0.37289342877E+02  0.37360268057E+02  0.00000000000E+00 0.  1.
          1    1    3    3  501    0 -0.30460780720E+02  0.11351440588E+01 -0.73858262932E+03  0.73921136899E+03  0.00000000000E+00 0.  1.
         -1    1    1    2    0  502  0.32693018557E+02 -0.57688664899E+00 -0.22258374672E+03  0.22497264403E+03  0.00000000000E+00 0. -1.
<mgrwt>
<rscale>  1 0.30000000E+03</rscale>
<asrwt>0</asrwt>
<pdfrwt beam="1">  1       21 0.56155794E-02 0.30000000E+03</pdfrwt>
<pdfrwt beam="2">0</pdfrwt>
<totfact> 0.23616125E+04</totfact>
</mgrwt>
</event>
<event>
 6    1  0.1280499E-001  0.3000000E+03  0.7818608E-02  0.1093470E+00
         21   -1    0    0  501  502  0.00000000000E+00  0.00000000000E+00  0.11395404922E+01  0.11395404922E+01  0.00000000000E+00 0. -1.
         13   -1    0    0    0    0 -0.00000000000E+00 -0.00000000000E+00 -0.10000000000E+04  0.10000000000E+04  0.00000000000E+00 0.  1.
    9000005    2    1    2  501    0  0.15747190890E+02 -0.28424458845E+02 -0.63184150443E+03  0.63268487941E+03  0.32474668880E+01 0.  0.
         13    1    3    3    0    0  0.30555825618E+01 -0.32382225428E+01 -0.88126260270E+02  0.88238656037E+02  0.00000000000E+00 0.  1.
          3    1    3    3  501    0  0.12691608328E+02 -0.25186236302E+02 -0.54371524416E+03  0.54444622338E+03  0.00000000000E+00 0.  1.
         -1    1    1    2    0  502 -0.15747190890E+02  0.28424458845E+02 -0.36701895508E+03  0.36845466108E+03  0.00000000000E+00 0. -1.
<mgrwt>
<rscale>  1 0.30000000E+03</rscale>
<asrwt>0</asrwt>
<pdfrwt beam="1">  1       21 0.41437923E-02 0.30000000E+03</pdfrwt>
<pdfrwt beam="2">0</pdfrwt>
<totfact> 0.39617264E+04</totfact>
</mgrwt>
</event>
<event>
 6    1  0.1280499E-001  0.3000000E+03  0.7818608E-02  0.1093470E+00
         21   -1    0    0  501  502  0.00000000000E+00  0.00000000000E+00  0.23280219740E+01  0.23280219740E+01  0.00000000000E+00 0. -1.
         13   -1    0    0    0    0 -0.00000000000E+00 -0.00000000000E+00 -0.10000000000E+04  0.10000000000E+04  0.00000000000E+00 0.  1.
    9000005    2    1    2  501    0 -0.21275703275E+02  0.30418149851E+02 -0.81868931899E+03  0.81953657900E+03  0.31755149032E+01 0.  0.
         13    1    3    3    0    0 -0.37887697710E+00  0.93397753861E+00 -0.14034793276E+02  0.14070937571E+02  0.00000000000E+00 0.  1.
          1    1    3    3  501    0 -0.20896826298E+02  0.29484172312E+02 -0.80465452571E+03  0.80546564143E+03  0.00000000000E+00 0.  1.
         -1    1    1    2    0  502  0.21275703275E+02 -0.30418149851E+02 -0.17898265904E+03  0.18279144298E+03  0.00000000000E+00 0. -1.
<mgrwt>
<rscale>  1 0.30000000E+03</rscale>
<asrwt>0</asrwt>
<pdfrwt beam="1">  1       21 0.84655523E-02 0.30000000E+03</pdfrwt>
<pdfrwt beam="2">0</pdfrwt>
<totfact> 0.11563760E+04</totfact>
</mgrwt>
</event>
<event>
 6    1  0.1280499E-001  0.3000000E+03  0.7818608E-02  0.1093470E+00
         21   -1    0    0  501  502  0.00000000000E+00  0.00000000000E+00  0.95377954075E+00  0.95377954075E+00  0.00000000000E+00 0. -1.
         13   -1    0    0    0    0 -0.00000000000E+00 -0.00000000000E+00 -0.10000000000E+04  0.10000000000E+04  0.00000000000E+00 0.  1.
    9000005    2    1    2  501    0  0.21465014100E+02 -0.21775781079E+02 -0.44836526723E+03  0.44942459290E+03  0.40150179677E+01 0.  0.
         13    1    3    3    0    0  0.84757640617E+00 -0.10067299995E+01 -0.10445753586E+02  0.10528326507E+02  0.00000000000E+00 0.  1.
          3    1    3    3  501    0  0.20617437693E+02 -0.20769051080E+02 -0.43791951365E+03  0.43889626639E+03  0.00000000000E+00 0.  1.
         -3    1    1    2    0  502 -0.21465014100E+02  0.21775781079E+02 -0.55068095323E+03  0.55152918664E+03  0.00000000000E+00 0. -1.
<mgrwt>
<rscale>  1 0.30000000E+03</rscale>
<asrwt>0</asrwt>
<pdfrwt beam="1">  1       21 0.34682966E-02 0.30000000E+03</pdfrwt>
<pdfrwt beam="2">0</pdfrwt>
<totfact> 0.53424383E+04</totfact>
</mgrwt>
</event>
<event>
 6    1  0.1280499E-001  0.3000000E+03  0.7818608E-02  0.1093470E+00
         21   -1    0    0  501  502  0.00000000000E+00  0.00000000000E+00  0.44196039307E+01  0.44196039307E+01  0.00000000000E+00 0. -1.
         13   -1    0    0    0    0 -0.00000000000E+00 -0.00000000000E+00 -0.10000000000E+04  0.10000000000E+04  0.00000000000E+00 0.  1.
    9000005    2    1    2  501    0 -0.35436659139E+02 -0.20546579737E+02 -0.89271126897E+03  0.89369482775E+03  0.88947542615E+01 0.  0.
         13    1    3    3    0    0 -0.44405649033E+01 -0.15539421065E+01 -0.17532827710E+03  0.17539138549E+03  0.00000000000E+00 0.  1.
          3    1    3    3  501    0 -0.30996094235E+02 -0.18992637630E+02 -0.71738299187E+03  0.71830344226E+03  0.00000000000E+00 0.  1.
         -3    1    1    2    0  502  0.35436659139E+02  0.20546579737E+02 -0.10286912710E+03  0.11072477618E+03  0.00000000000E+00 0. -1.
<mgrwt>
<rscale>  1 0.30000000E+03</rscale>
<asrwt>0</asrwt>
<pdfrwt beam="1">  1       21 0.16071321E-01 0.30000000E+03</pdfrwt>
<pdfrwt beam="2">0</pdfrwt>
<totfact> 0.36225041E+03</totfact>
</mgrwt>
</event>
<event>
 6    1  0.1280499E-001  0.3000000E+03  0.7818608E-02  0.1093470E+00
         21   -1    0    0  501  502  0.00000000000E+00  0.00000000000E+00  0.14566794734E+01  0.14566794734E+01  0.00000000000E+00 0. -1.
         13   -1    0    0    0    0 -0.00000000000E+00 -0.00000000000E+00 -0.10000000000E+04  0.10000000000E+04  0.00000000000E+00 0.  1.
    9000005    2    1    2  501    0 -0.32147045753E+02 -0.96899134668E+01 -0.27700444015E+03  0.27913702526E+03  0.76610725296E+01 0.  0.
         13    1    3    3    0    0 -0.23152183059E+02 -0.97731391419E+01 -0.21938869827E+03  0.22082332023E+03  0.00000000000E+00 0.  1.
          1    1    3    3  501    0 -0.89948626940E+01  0.83225675150E-01 -0.57615741878E+02  0.58313705024E+02  0.00000000000E+00 0.  1.
         -3    1    1    2    0  502  0.32147045753E+02  0.96899134668E+01 -0.72153888038E+03  0.72231965422E+03  0.00000000000E+00 0. -1.
<mgrwt>
<rscale>  1 0.30000000E+03</rscale>
<asrwt>0</asrwt>
<pdfrwt beam="1">  1       21 0.52970274E-02 0.30000000E+03</pdfrwt>
<pdfrwt beam="2">0</pdfrwt>
<totfact> 0.26101897E+04</totfact>
</mgrwt>
</event>
<event>
 6    1  0.1280499E-001  0.3000000E+03  0.7818608E-02  0.1093470E+00
         21   -1    0    0  501  502  0.00000000000E+00  0.00000000000E+00  0.10239741135E+01  0.10239741135E+01  0.00000000000E+00 0. -1.
         13   -1    0    0    0    0 -0.00000000000E+00 -0.00000000000E+00 -0.10000000000E+04  0.10000000000E+04  0.00000000000E+00 0.  1.
    9000005    2    1    2  501    0  0.27104389389E+02 -0.13917963449E+02 -0.64909262691E+03  0.64981641368E+03  0.34315506746E+01 0.  0.
         13    1    3    3    0    0  0.17318707898E+01 -0.63377442132E+00 -0.59541659636E+02  0.59570213015E+02  0.00000000000E+00 0.  1.
          1    1    3    3  501    0  0.25372518599E+02 -0.13284189028E+02 -0.58955096728E+03  0.59024620066E+03  0.00000000000E+00 0.  1.
         -1    1    1    2    0  502 -0.27104389389E+02  0.13917963449E+02 -0.34988339897E+03  0.35120756044E+03  0.00000000000E+00 0. -1.
<mgrwt>
<rscale>  1 0.30000000E+03</rscale>
<asrwt>0</asrwt>
<pdfrwt beam="1">  1       21 0.37235501E-02 0.30000000E+03</pdfrwt>
<pdfrwt beam="2">0</pdfrwt>
<totfact> 0.47427609E+04</totfact>
</mgrwt>
</event>
<event>
 6    1  0.1280499E-001  0.3000000E+03  0.7818608E-02  0.1093470E+00
         21   -1    0    0  501  502  0.00000000000E+00  0.00000000000E+00  0.14601747376E+01  0.14601747376E+01  0.00000000000E+00 0. -1.
         13   -1    0    0    0    0 -0.00000000000E+00 -0.00000000000E+00 -0.10000000000E+04  0.10000000000E+04  0.00000000000E+00 0.  1.
    9000005    2    1    2  501    0  0.30878502873E+02 -0.19433095977E+02 -0.64608055764E+03  0.64711759687E+03  0.31575394936E+01 0.  0.
         13    1    3    3    0    0  0.13236270307E+02 -0.93340801976E+01 -0.30998909093E+03  0.31041192052E+03  0.00000000000E+00 0.  1.
          3    1    3    3  501    0  0.17642232567E+02 -0.10099015780E+02 -0.33609146671E+03  0.33670567635E+03  0.00000000000E+00 0.  1.
         -3    1    1    2    0  502 -0.30878502873E+02  0.19433095977E+02 -0.35245926762E+03  0.35434257787E+03  0.00000000000E+00 0. -1.
<mgrwt>
<rscale>  1 0.30000000E+03</rscale>
<asrwt>0</asrwt>
<pdfrwt beam="1">  1       21 0.53097375E-02 0.30000000E+03</pdfrwt>
<pdfrwt beam="2">0</pdfrwt>
<totfact> 0.25995121E+04</totfact>
</mgrwt>
</event>
<event>
 6    1  0.1280499E-001  0.3000000E+03  0.7818608E-02  0.1093470E+00
         21   -1    0    0  501  502  0.00000000000E+00  0.00000000000E+00  0.24868637112E+01  0.24868637112E+01  0.00000000000E+00 0. -1.
         13   -1    0    0    0    0 -0.00000000000E+00 -0.00000000000E+00 -0.10000000000E+04  0.10000000000E+04  0.00000000000E+00 0.  1.
    9000005    2    1    2  501    0 -0.30983096785E+02  0.26882253396E+02 -0.78023365886E+03  0.78136929510E+03  0.95291700821E+01 0.  0.
         13    1    3    3    0    0 -0.31645047208E+02  0.26443538638E+02 -0.75744676934E+03  0.75856857181E+03  0.00000000000E+00 0.  1.
          1    1    3    3  501    0  0.66195042282E+00  0.43871475836E+00 -0.22786889514E+02  0.22800723294E+02  0.00000000000E+00 0.  1.
         -1    1    1    2    0  502  0.30983096785E+02 -0.26882253396E+02 -0.21727947743E+03  0.22111756861E+03  0.00000000000E+00 0. -1.
<mgrwt>
<rscale>  1 0.30000000E+03</rscale>
<asrwt>0</asrwt>
<pdfrwt beam="1">  1       21 0.90431598E-02 0.30000000E+03</pdfrwt>
<pdfrwt beam="2">0</pdfrwt>
<totfact> 0.10290480E+04</totfact>
</mgrwt>
</event>
<event>
 6    1  0.1280499E-001  0.3000000E+03  0.7818608E-02  0.1093470E+00
         21   -1    0    0  501  502  0.00000000000E+00  0.00000000000E+00  0.10287936782E+01  0.10287936782E+01  0.00000000000E+00 0. -1.
         13   -1    0    0    0    0 -0.00000000000E+00 -0.00000000000E+00 -0.10000000000E+04  0.10000000000E+04  0.00000000000E+00 0.  1.
    9000005    2    1    2  501    0  0.27773673709E+02  0.12348375415E+02 -0.63828821709E+03  0.63906736197E+03  0.84490074184E+01 0.  0.
         13    1    3    3    0    0  0.14317969889E+02  0.63834665351E+01 -0.24294399134E+03  0.24344924694E+03  0.00000000000E+00 0.  1.
          3    1    3    3  501    0  0.13455703820E+02  0.59649088799E+01 -0.39534422575E+03  0.39561811503E+03  0.00000000000E+00 0.  1.
         -3    1    1    2    0  502 -0.27773673709E+02 -0.12348375415E+02 -0.36068298923E+03  0.36196143171E+03  0.00000000000E+00 0. -1.
<mgrwt>
<rscale>  1 0.30000000E+03</rscale>
<asrwt>0</asrwt>
<pdfrwt beam="1">  1       21 0.37410758E-02 0.30000000E+03</pdfrwt>
<pdfrwt beam="2">0</pdfrwt>
<totfact> 0.47055161E+04</totfact>
</mgrwt>
</event>
<event>
 6    1  0.1280499E-001  0.3000000E+03  0.7818608E-02  0.1093470E+00
         21   -1    0    0  501  502  0.00000000000E+00  0.00000000000E+00  0.40443730787E+01  0.40443730787E+01  0.00000000000E+00 0. -1.
         13   -1    0    0    0    0 -0.00000000000E+00 -0.00000000000E+00 -0.10000000000E+04  0.10000000000E+04  0.00000000000E+00 0.  1.
    9000005    2    1    2  501    0 -0.35565510457E+02 -0.26211883225E+02 -0.85892988437E+03  0.86007207547E+03  0.33853194650E+01 0.  0.
         13    1    3    3    0    0 -0.20811299517E+02 -0.13519099103E+02 -0.49731923999E+03  0.49793805106E+03  0.00000000000E+00 0.  1.
          3    1    3    3  501    0 -0.14754210940E+02 -0.12692784121E+02 -0.36161064438E+03  0.36213402441E+03  0.00000000000E+00 0.  1.
         -1    1    1    2    0  502  0.35565510457E+02  0.26211883225E+02 -0.13702574255E+03  0.14397229761E+03  0.00000000000E+00 0. -1.
<mgrwt>
<rscale>  1 0.30000000E+03</rscale>
<asrwt>0</asrwt>
<pdfrwt beam="1">  1       21 0.14706842E-01 0.30000000E+03</pdfrwt>
<pdfrwt beam="2">0</pdfrwt>
<totfact> 0.42710762E+03</totfact>
</mgrwt>
</event>
<event>
 6    1  0.1280499E-001  0.3000000E+03  0.7818608E-02  0.1093470E+00
         21   -1    0    0  501  502  0.00000000000E+00  0.00000000000E+00  0.25731664349E+01  0.25731664349E+01  0.00000000000E+00 0. -1.
         13   -1    0    0    0    0 -0.00000000000E+00 -0.00000000000E+00 -0.10000000000E+04  0.10000000000E+04  0.00000000000E+00 0.  1.
    9000005    2    1    2  501    0  0.18052973944E+02 -0.30724139945E+02 -0.85519899180E+03  0.85594901557E+03  0.36768242818E+01 0.  0.
         13    1    3    3    0    0  0.91319406280E+01 -0.19050606550E+02 -0.51228659060E+03  0.51272201909E+03  0.00000000000E+00 0.  1.
          3    1    3    3  501    0  0.89210333159E+01 -0.11673533395E+02 -0.34291240119E+03  0.34322699648E+03  0.00000000000E+00 0.  1.
         -3    1    1    2    0  502 -0.18052973944E+02  0.30724139945E+02 -0.14222784177E+03  0.14662415087E+03  0.00000000000E+00 0. -1.
<mgrwt>
<rscale>  1 0.30000000E+03</rscale>
<asrwt>0</asrwt>
<pdfrwt beam="1">  1       21 0.93569886E-02 0.30000000E+03</pdfrwt>
<pdfrwt beam="2">0</pdfrwt>
<totfact> 0.96857190E+03</totfact>
</mgrwt>
</event>
<event>
 6    1  0.1280499E-001  0.3000000E+03  0.7818608E-02  0.1093470E+00
         21   -1    0    0  501  502  0.00000000000E+00  0.00000000000E+00  0.48264202188E+01  0.48264202188E+01  0.00000000000E+00 0. -1.
         13   -1    0    0    0    0 -0.00000000000E+00 -0.00000000000E+00 -0.10000000000E+04  0.10000000000E+04  0.00000000000E+00 0.  1.
    9000005    2    1    2  501    0 -0.45517173027E+02  0.36580815642E+02 -0.76947885410E+03  0.77169967720E+03  0.35659163965E+01 0.  0.
         13    1    3    3    0    0 -0.29102691834E+02  0.24639389117E+02 -0.52021329622E+03  0.52160899123E+03  0.00000000000E+00 0.  1.
          3    1    3    3  501    0 -0.16414481193E+02  0.11941426524E+02 -0.24926555789E+03  0.25009068597E+03  0.00000000000E+00 0.  1.
         -1    1    1    2    0  502  0.45517173027E+02 -0.36580815642E+02 -0.22569472568E+03  0.23312674302E+03  0.00000000000E+00 0. -1.
<mgrwt>
<rscale>  1 0.30000000E+03</rscale>
<asrwt>0</asrwt>
<pdfrwt beam="1">  1       21 0.17550656E-01 0.30000000E+03</pdfrwt>
<pdfrwt beam="2">0</pdfrwt>
<totfact> 0.30722201E+03</totfact>
</mgrwt>
</event>
<event>
 6    1  0.1280499E-001  0.3000000E+03  0.7818608E-02  0.1093470E+00
         21   -1    0    0  501  502  0.00000000000E+00  0.00000000000E+00  0.34129947256E+01  0.34129947256E+01  0.00000000000E+00 0. -1.
         13   -1    0    0    0    0 -0.00000000000E+00 -0.00000000000E+00 -0.10000000000E+04  0.10000000000E+04  0.00000000000E+00 0.  1.
    9000005    2    1    2  501    0  0.53674016440E+02 -0.18745756668E+02 -0.60919690019E+03  0.61187321775E+03  0.59722667053E+01 0.  0.
         13    1    3    3    0    0  0.48226829259E+02 -0.17820875693E+02 -0.53189839135E+03  0.53437749708E+03  0.00000000000E+00 0.  1.
          1    1    3    3  501    0  0.54471871801E+01 -0.92488097494E+00 -0.77298508837E+02  0.77495720665E+02  0.00000000000E+00 0.  1.
         -1    1    1    2    0  502 -0.53674016440E+02  0.18745756668E+02 -0.38739010509E+03  0.39153977698E+03  0.00000000000E+00 0. -1.
<mgrwt>
<rscale>  1 0.30000000E+03</rscale>
<asrwt>0</asrwt>
<pdfrwt beam="1">  1       21 0.12410916E-01 0.30000000E+03</pdfrwt>
<pdfrwt beam="2">0</pdfrwt>
<totfact> 0.58291207E+03</totfact>
</mgrwt>
</event>
<event>
 6    1  0.1280499E-001  0.3000000E+03  0.7818608E-02  0.1093470E+00
         21   -1    0    0  501  502  0.00000000000E+00  0.00000000000E+00  0.22567404564E+01  0.22567404564E+01  0.00000000000E+00 0. -1.
         13   -1    0    0    0    0 -0.00000000000E+00 -0.00000000000E+00 -0.10000000000E+04  0.10000000000E+04  0.00000000000E+00 0.  1.
    9000005    2    1    2  501    0  0.42871043020E+02  0.20295238362E+02 -0.49232920635E+03  0.49462184391E+03  0.35913805641E+01 0.  0.
         13    1    3    3    0    0  0.19729339462E+02  0.97731881827E+01 -0.24676930521E+03  0.24774957525E+03  0.00000000000E+00 0.  1.
          1    1    3    3  501    0  0.23141703557E+02  0.10522050179E+02 -0.24555990114E+03  0.24687226865E+03  0.00000000000E+00 0.  1.
         -3    1    1    2    0  502 -0.42871043020E+02 -0.20295238362E+02 -0.50541405319E+03  0.50763489655E+03  0.00000000000E+00 0. -1.
<mgrwt>
<rscale>  1 0.30000000E+03</rscale>
<asrwt>0</asrwt>
<pdfrwt beam="1">  1       21 0.82063462E-02 0.30000000E+03</pdfrwt>
<pdfrwt beam="2">0</pdfrwt>
<totfact> 0.12214668E+04</totfact>
</mgrwt>
</event>
<event>
 6    1  0.1280499E-001  0.3000000E+03  0.7818608E-02  0.1093470E+00
         21   -1    0    0  501  502  0.00000000000E+00  0.00000000000E+00  0.82787399931E+01  0.82787399931E+01  0.00000000000E+00 0. -1.
         13   -1    0    0    0    0 -0.00000000000E+00 -0.00000000000E+00 -0.10000000000E+04  0.10000000000E+04  0.00000000000E+00 0.  1.
    9000005    2    1    2  501    0  0.16329681095E+02 -0.81135760695E+02 -0.70507401767E+03  0.70992272499E+03  0.33518528710E+01 0.  0.
         13    1    3    3    0    0  0.57638047208E+01 -0.32490820272E+02 -0.26869449057E+03  0.27071313989E+03  0.00000000000E+00 0.  1.
          3    1    3    3  501    0  0.10565876375E+02 -0.48644940424E+02 -0.43637952710E+03  0.43920958510E+03  0.00000000000E+00 0.  1.
         -1    1    1    2    0  502 -0.16329681095E+02  0.81135760695E+02 -0.28664724234E+03  0.29835601500E+03  0.00000000000E+00 0. -1.
<mgrwt>
<rscale>  1 0.30000000E+03</rscale>
<asrwt>0</asrwt>
<pdfrwt beam="1">  1       21 0.30104573E-01 0.30000000E+03</pdfrwt>
<pdfrwt beam="2">0</pdfrwt>
<totfact> 0.10797353E+03</totfact>
</mgrwt>
</event>
<event>
 6    1  0.1280499E-001  0.3000000E+03  0.7818608E-02  0.1093470E+00
         21   -1    0    0  501  502  0.00000000000E+00  0.00000000000E+00  0.13192090153E+02  0.13192090153E+02  0.00000000000E+00 0. -1.
         13   -1    0    0    0    0 -0.00000000000E+00 -0.00000000000E+00 -0.10000000000E+04  0.10000000000E+04  0.00000000000E+00 0.  1.
    9000005    2    1    2  501    0 -0.92536412241E+02  0.12748973557E+02 -0.78806910030E+03  0.79359555480E+03  0.39336802064E+01 0.  0.
         13    1    3    3    0    0 -0.84677005126E+02  0.10559846299E+02 -0.72067708471E+03  0.72571148948E+03  0.00000000000E+00 0.  1.
          3    1    3    3  501    0 -0.78594071150E+01  0.21891272586E+01 -0.67392015590E+02  0.67884065315E+02  0.00000000000E+00 0.  1.
         -3    1    1    2    0  502  0.92536412241E+02 -0.12748973557E+02 -0.19873880955E+03  0.21959653535E+03  0.00000000000E+00 0. -1.
<mgrwt>
<rscale>  1 0.30000000E+03</rscale>
<asrwt>0</asrwt>
<pdfrwt beam="1">  1       21 0.47971338E-01 0.30000000E+03</pdfrwt>
<pdfrwt beam="2">0</pdfrwt>
<totfact> 0.41087218E+02</totfact>
</mgrwt>
</event>
<event>
 6    1  0.1280499E-001  0.3000000E+03  0.7818608E-02  0.1093470E+00
         21   -1    0    0  501  502  0.00000000000E+00  0.00000000000E+00  0.30272251898E+01  0.30272251898E+01  0.00000000000E+00 0. -1.
         13   -1    0    0    0    0 -0.00000000000E+00 -0.00000000000E+00 -0.10000000000E+04  0.10000000000E+04  0.00000000000E+00 0.  1.
    9000005    2    1    2  501    0  0.40342800567E+02 -0.18405140318E+02 -0.79463628241E+03  0.79588875241E+03  0.50787938352E+01 0.  0.
         13    1    3    3    0    0 -0.47371677895E-01 -0.28146768917E+00 -0.24722661204E+01  0.24886879889E+01  0.00000000000E+00 0.  1.
          3    1    3    3  501    0  0.40390172245E+02 -0.18123672629E+02 -0.79216401629E+03  0.79340006442E+03  0.00000000000E+00 0.  1.
         -3    1    1    2    0  502 -0.40342800567E+02  0.18405140318E+02 -0.20233649240E+03  0.20713847278E+03  0.00000000000E+00 0. -1.
<mgrwt>
<rscale>  1 0.30000000E+03</rscale>
<asrwt>0</asrwt>
<pdfrwt beam="1">  1       21 0.11008115E-01 0.30000000E+03</pdfrwt>
<pdfrwt beam="2">0</pdfrwt>
<totfact> 0.72424072E+03</totfact>
</mgrwt>
</event>
<event>
 6    1  0.1280499E-001  0.3000000E+03  0.7818608E-02  0.1093470E+00
         21   -1    0    0  501  502  0.00000000000E+00  0.00000000000E+00  0.33467706540E+01  0.33467706540E+01  0.00000000000E+00 0. -1.
         13   -1    0    0    0    0 -0.00000000000E+00 -0.00000000000E+00 -0.10000000000E+04  0.10000000000E+04  0.00000000000E+00 0.  1.
    9000005    2    1    2  501    0 -0.26387330656E+02 -0.27687970373E+02 -0.87458844594E+03  0.87542989815E+03  0.31051386040E+01 0.  0.
         13    1    3    3    0    0 -0.12522056756E+02 -0.15356839169E+02 -0.45756383611E+03  0.45799268393E+03  0.00000000000E+00 0.  1.
          1    1    3    3  501    0 -0.13865273901E+02 -0.12331131203E+02 -0.41702460983E+03  0.41743721422E+03  0.00000000000E+00 0.  1.
         -3    1    1    2    0  502  0.26387330656E+02  0.27687970373E+02 -0.12206478341E+03  0.12791687250E+03  0.00000000000E+00 0. -1.
<mgrwt>
<rscale>  1 0.30000000E+03</rscale>
<asrwt>0</asrwt>
<pdfrwt beam="1">  1       21 0.12170101E-01 0.30000000E+03</pdfrwt>
<pdfrwt beam="2">0</pdfrwt>
<totfact> 0.60406847E+03</totfact>
</mgrwt>
</event>
<event>
 6    1  0.1280499E-001  0.3000000E+03  0.7818608E-02  0.1093470E+00
         21   -1    0    0  501  502  0.00000000000E+00  0.00000000000E+00  0.41129274629E+01  0.41129274629E+01  0.00000000000E+00 0. -1.
         13   -1    0    0    0    0 -0.00000000000E+00 -0.00000000000E+00 -0.10000000000E+04  0.10000000000E+04  0.00000000000E+00 0.  1.
    9000005    2    1    2  501    0  0.33384839999E+02  0.37894357509E+02 -0.80714277879E+03  0.80872884854E+03  0.35150024930E+01 0.  0.
         13    1    3    3    0    0  0.22591122682E+02  0.25660820305E+02 -0.57198024234E+03  0.57300107692E+03  0.00000000000E+00 0.  1.
          1    1    3    3  501    0  0.10793717317E+02  0.12233537204E+02 -0.23516253645E+03  0.23572777163E+03  0.00000000000E+00 0.  1.
         -1    1    1    2    0  502 -0.33384839999E+02 -0.37894357509E+02 -0.18874429375E+03  0.19538407892E+03  0.00000000000E+00 0. -1.
<mgrwt>
<rscale>  1 0.30000000E+03</rscale>
<asrwt>0</asrwt>
<pdfrwt beam="1">  1       21 0.14956131E-01 0.30000000E+03</pdfrwt>
<pdfrwt beam="2">0</pdfrwt>
<totfact> 0.41404166E+03</totfact>
</mgrwt>
</event>
<event>
 6    1  0.1280499E-001  0.3000000E+03  0.7818608E-02  0.1093470E+00
         21   -1    0    0  501  502  0.00000000000E+00  0.00000000000E+00  0.16430140623E+01  0.16430140623E+01  0.00000000000E+00 0. -1.
         13   -1    0    0    0    0 -0.00000000000E+00 -0.00000000000E+00 -0.10000000000E+04  0.10000000000E+04  0.00000000000E+00 0.  1.
    9000005    2    1    2  501    0 -0.34728620996E+00  0.34937360481E+02 -0.75185228341E+03  0.75267452583E+03  0.40430183406E+01 0.  0.
         13    1    3    3    0    0  0.57807134695E+00  0.10326612166E+02 -0.18737436895E+03  0.18765960467E+03  0.00000000000E+00 0.  1.
          3    1    3    3  501    0 -0.92535755691E+00  0.24610748315E+02 -0.56447791446E+03  0.56501492116E+03  0.00000000000E+00 0.  1.
         -1    1    1    2    0  502  0.34728620996E+00 -0.34937360481E+02 -0.24650470253E+03  0.24896848823E+03  0.00000000000E+00 0. -1.
<mgrwt>
<rscale>  1 0.30000000E+03</rscale>
<asrwt>0</asrwt>
<pdfrwt beam="1">  1       21 0.59746092E-02 0.30000000E+03</pdfrwt>
<pdfrwt beam="2">0</pdfrwt>
<totfact> 0.21226332E+04</totfact>
</mgrwt>
</event>
<event>
 6    1  0.1280499E-001  0.3000000E+03  0.7818608E-02  0.1093470E+00
         21   -1    0    0  501  502  0.00000000000E+00  0.00000000000E+00  0.19848496427E+01  0.19848496427E+01  0.00000000000E+00 0. -1.
         13   -1    0    0    0    0 -0.00000000000E+00 -0.00000000000E+00 -0.10000000000E+04  0.10000000000E+04  0.00000000000E+00 0.  1.
    9000005    2    1    2  501    0 -0.42868967122E+02 -0.24438234790E+01 -0.63042268249E+03  0.63189304611E+03  0.35131892567E+01 0.  0.
         13    1    3    3    0    0 -0.26506562919E+02 -0.57688394464E+00 -0.40951748664E+03  0.41037483175E+03  0.00000000000E+00 0.  1.
          3    1    3    3  501    0 -0.16362404204E+02 -0.18669395343E+01 -0.22090519585E+03  0.22151821435E+03  0.00000000000E+00 0.  1.
         -1    1    1    2    0  502  0.42868967122E+02  0.24438234790E+01 -0.36759246786E+03  0.37009180354E+03  0.00000000000E+00 0. -1.
<mgrwt>
<rscale>  1 0.30000000E+03</rscale>
<asrwt>0</asrwt>
<pdfrwt beam="1">  1       21 0.72176503E-02 0.30000000E+03</pdfrwt>
<pdfrwt beam="2">0</pdfrwt>
<totfact> 0.15296928E+04</totfact>
</mgrwt>
</event>
<event>
 6    1  0.1280499E-001  0.3000000E+03  0.7818608E-02  0.1093470E+00
         21   -1    0    0  501  502  0.00000000000E+00  0.00000000000E+00  0.21320851106E+01  0.21320851106E+01  0.00000000000E+00 0. -1.
         13   -1    0    0    0    0 -0.00000000000E+00 -0.00000000000E+00 -0.10000000000E+04  0.10000000000E+04  0.00000000000E+00 0.  1.
    9000005    2    1    2  501    0  0.14522186726E+01  0.41723812899E+02 -0.71206790917E+03  0.71329886546E+03  0.34027490842E+01 0.  0.
         13    1    3    3    0    0  0.18694768267E+01  0.36428517274E+02 -0.60389521990E+03  0.60499584167E+03  0.00000000000E+00 0.  1.
          3    1    3    3  501    0 -0.41725815409E+00  0.52952956249E+01 -0.10817268926E+03  0.10830302379E+03  0.00000000000E+00 0.  1.
         -3    1    1    2    0  502 -0.14522186726E+01 -0.41723812899E+02 -0.28580000572E+03  0.28883321965E+03  0.00000000000E+00 0. -1.
<mgrwt>
<rscale>  1 0.30000000E+03</rscale>
<asrwt>0</asrwt>
<pdfrwt beam="1">  1       21 0.77530531E-02 0.30000000E+03</pdfrwt>
<pdfrwt beam="2">0</pdfrwt>
<totfact> 0.13496470E+04</totfact>
</mgrwt>
</event>
<event>
 6    1  0.1280499E-001  0.3000000E+03  0.7818608E-02  0.1093470E+00
         21   -1    0    0  501  502  0.00000000000E+00  0.00000000000E+00  0.67283287438E+01  0.67283287438E+01  0.00000000000E+00 0. -1.
         13   -1    0    0    0    0 -0.00000000000E+00 -0.00000000000E+00 -0.10000000000E+04  0.10000000000E+04  0.00000000000E+00 0.  1.
    9000005    2    1    2  501    0  0.50259687033E+02 -0.53982837103E+02 -0.71664132944E+03  0.72043384948E+03  0.31549287652E+01 0.  0.
         13    1    3    3    0    0  0.14137631007E+02 -0.17298488928E+02 -0.21530989600E+03  0.21646584406E+03  0.00000000000E+00 0.  1.
          1    1    3    3  501    0  0.36122056026E+02 -0.36684348175E+02 -0.50133143344E+03  0.50396800542E+03  0.00000000000E+00 0.  1.
         -3    1    1    2    0  502 -0.50259687033E+02  0.53982837103E+02 -0.27663034182E+03  0.28629447926E+03  0.00000000000E+00 0. -1.
<mgrwt>
<rscale>  1 0.30000000E+03</rscale>
<asrwt>0</asrwt>
<pdfrwt beam="1">  1       21 0.24466702E-01 0.30000000E+03</pdfrwt>
<pdfrwt beam="2">0</pdfrwt>
<totfact> 0.16267140E+03</totfact>
</mgrwt>
</event>
<event>
 6    1  0.1280499E-001  0.3000000E+03  0.7818608E-02  0.1093470E+00
         21   -1    0    0  501  502  0.00000000000E+00  0.00000000000E+00  0.12564267010E+01  0.12564267010E+01  0.00000000000E+00 0. -1.
         13   -1    0    0    0    0 -0.00000000000E+00 -0.00000000000E+00 -0.10000000000E+04  0.10000000000E+04  0.00000000000E+00 0.  1.
    9000005    2    1    2  501    0  0.28656422651E+02 -0.10912509894E+02 -0.74929380467E+03  0.74992902966E+03  0.34742463496E+01 0.  0.
         13    1    3    3    0    0  0.31727884746E+01 -0.74444152210E+00 -0.58698760200E+02  0.58789159110E+02  0.00000000000E+00 0.  1.
          1    1    3    3  501    0  0.25483634176E+02 -0.10168068372E+02 -0.69059504447E+03  0.69113987055E+03  0.00000000000E+00 0.  1.
         -3    1    1    2    0  502 -0.28656422651E+02  0.10912509894E+02 -0.24944976863E+03  0.25132739704E+03  0.00000000000E+00 0. -1.
<mgrwt>
<rscale>  1 0.30000000E+03</rscale>
<asrwt>0</asrwt>
<pdfrwt beam="1">  1       21 0.45688340E-02 0.30000000E+03</pdfrwt>
<pdfrwt beam="2">0</pdfrwt>
<totfact> 0.33581377E+04</totfact>
</mgrwt>
</event>
<event>
 6    1  0.1280499E-001  0.3000000E+03  0.7818608E-02  0.1093470E+00
         21   -1    0    0  501  502  0.00000000000E+00  0.00000000000E+00  0.25244126289E+01  0.25244126289E+01  0.00000000000E+00 0. -1.
         13   -1    0    0    0    0 -0.00000000000E+00 -0.00000000000E+00 -0.10000000000E+04  0.10000000000E+04  0.00000000000E+00 0.  1.
    9000005    2    1    2  501    0  0.37675293877E+02 -0.30487364768E+02 -0.62917685247E+03  0.63105050330E+03  0.35098229525E+01 0.  0.
         13    1    3    3    0    0  0.22981922006E+02 -0.20752543511E+02 -0.40352337778E+03  0.40470971476E+03  0.00000000000E+00 0.  1.
          1    1    3    3  501    0  0.14693371871E+02 -0.97348212566E+01 -0.22565347469E+03  0.22634078855E+03  0.00000000000E+00 0.  1.
         -1    1    1    2    0  502 -0.37675293877E+02  0.30487364768E+02 -0.36829873490E+03  0.37147390932E+03  0.00000000000E+00 0. -1.
<mgrwt>
<rscale>  1 0.30000000E+03</rscale>
<asrwt>0</asrwt>
<pdfrwt beam="1">  1       21 0.91797016E-02 0.30000000E+03</pdfrwt>
<pdfrwt beam="2">0</pdfrwt>
<totfact> 0.10020555E+04</totfact>
</mgrwt>
</event>
<event>
 6    1  0.1280499E-001  0.3000000E+03  0.7818608E-02  0.1093470E+00
         21   -1    0    0  501  502  0.00000000000E+00  0.00000000000E+00  0.22277327177E+01  0.22277327177E+01  0.00000000000E+00 0. -1.
         13   -1    0    0    0    0 -0.00000000000E+00 -0.00000000000E+00 -0.10000000000E+04  0.10000000000E+04  0.00000000000E+00 0.  1.
    9000005    2    1    2  501    0 -0.32149950275E+02  0.17625888121E+02 -0.81412926064E+03  0.81496042344E+03  0.31221005283E+01 0.  0.
         13    1    3    3    0    0 -0.14728149608E+02  0.80448400293E+01 -0.33844439900E+03  0.33886022053E+03  0.00000000000E+00 0.  1.
          3    1    3    3  501    0 -0.17421800667E+02  0.95810480922E+01 -0.47568486164E+03  0.47610020291E+03  0.00000000000E+00 0.  1.
         -1    1    1    2    0  502  0.32149950275E+02 -0.17625888121E+02 -0.18364300665E+03  0.18726730928E+03  0.00000000000E+00 0. -1.
<mgrwt>
<rscale>  1 0.30000000E+03</rscale>
<asrwt>0</asrwt>
<pdfrwt beam="1">  1       21 0.81008633E-02 0.30000000E+03</pdfrwt>
<pdfrwt beam="2">0</pdfrwt>
<totfact> 0.12495727E+04</totfact>
</mgrwt>
</event>
<event>
 6    1  0.1280499E-001  0.3000000E+03  0.7818608E-02  0.1093470E+00
         21   -1    0    0  501  502  0.00000000000E+00  0.00000000000E+00  0.20839161651E+01  0.20839161651E+01  0.00000000000E+00 0. -1.
         13   -1    0    0    0    0 -0.00000000000E+00 -0.00000000000E+00 -0.10000000000E+04  0.10000000000E+04  0.00000000000E+00 0.  1.
    9000005    2    1    2  501    0 -0.25576580039E+02  0.22726661725E+02 -0.83038895144E+03  0.83109852881E+03  0.28794654354E+01 0.  0.
         13    1    3    3    0    0 -0.17088216562E+02  0.13424249768E+02 -0.51497391876E+03  0.51543220178E+03  0.00000000000E+00 0.  1.
          1    1    3    3  501    0 -0.84883634768E+01  0.93024119567E+01 -0.31541503268E+03  0.31566632703E+03  0.00000000000E+00 0.  1.
         -1    1    1    2    0  502  0.25576580039E+02 -0.22726661725E+02 -0.16752713239E+03  0.17098538735E+03  0.00000000000E+00 0. -1.
<mgrwt>
<rscale>  1 0.30000000E+03</rscale>
<asrwt>0</asrwt>
<pdfrwt beam="1">  1       21 0.75778929E-02 0.30000000E+03</pdfrwt>
<pdfrwt beam="2">0</pdfrwt>
<totfact> 0.14047961E+04</totfact>
</mgrwt>
</event>
<event>
 6    1  0.1280499E-001  0.3000000E+03  0.7818608E-02  0.1093470E+00
         21   -1    0    0  501  502  0.00000000000E+00  0.00000000000E+00  0.35262041665E+01  0.35262041665E+01  0.00000000000E+00 0. -1.
         13   -1    0    0    0    0 -0.00000000000E+00 -0.00000000000E+00 -0.10000000000E+04  0.10000000000E+04  0.00000000000E+00 0.  1.
    9000005    2    1    2  501    0 -0.19011336418E+02 -0.34363649195E+02 -0.87446013498E+03  0.87534810645E+03  0.33894696377E+01 0.  0.
         13    1    3    3    0    0 -0.11306238194E+02 -0.17748731397E+02 -0.49143269561E+03  0.49188305806E+03  0.00000000000E+00 0.  1.
          1    1    3    3  501    0 -0.77050982240E+01 -0.16614917798E+02 -0.38302743936E+03  0.38346504839E+03  0.00000000000E+00 0.  1.
         -1    1    1    2    0  502  0.19011336418E+02  0.34363649195E+02 -0.12201366086E+03  0.12817809772E+03  0.00000000000E+00 0. -1.
<mgrwt>
<rscale>  1 0.30000000E+03</rscale>
<asrwt>0</asrwt>
<pdfrwt beam="1">  1       21 0.12822588E-01 0.30000000E+03</pdfrwt>
<pdfrwt beam="2">0</pdfrwt>
<totfact> 0.54925704E+03</totfact>
</mgrwt>
</event>
<event>
 6    1  0.1280499E-001  0.3000000E+03  0.7818608E-02  0.1093470E+00
         21   -1    0    0  501  502  0.00000000000E+00  0.00000000000E+00  0.33097014743E+01  0.33097014743E+01  0.00000000000E+00 0. -1.
         13   -1    0    0    0    0 -0.00000000000E+00 -0.00000000000E+00 -0.10000000000E+04  0.10000000000E+04  0.00000000000E+00 0.  1.
    9000005    2    1    2  501    0 -0.32682500957E+02  0.26131769803E+02 -0.84209706945E+03  0.84315327251E+03  0.53806421693E+01 0.  0.
         13    1    3    3    0    0 -0.19713815310E+02  0.13029190980E+02 -0.50477726917E+03  0.50533007609E+03  0.00000000000E+00 0.  1.
          1    1    3    3  501    0 -0.12968685647E+02  0.13102578823E+02 -0.33731980028E+03  0.33782319642E+03  0.00000000000E+00 0.  1.
         -3    1    1    2    0  502  0.32682500957E+02 -0.26131769803E+02 -0.15459322908E+03  0.16015642896E+03  0.00000000000E+00 0. -1.
<mgrwt>
<rscale>  1 0.30000000E+03</rscale>
<asrwt>0</asrwt>
<pdfrwt beam="1">  1       21 0.12035303E-01 0.30000000E+03</pdfrwt>
<pdfrwt beam="2">0</pdfrwt>
<totfact> 0.61641617E+03</totfact>
</mgrwt>
</event>
<event>
 6    1  0.1280499E-001  0.3000000E+03  0.7818608E-02  0.1093470E+00
         21   -1    0    0  501  502  0.00000000000E+00  0.00000000000E+00  0.23685798439E+01  0.23685798439E+01  0.00000000000E+00 0. -1.
         13   -1    0    0    0    0 -0.00000000000E+00 -0.00000000000E+00 -0.10000000000E+04  0.10000000000E+04  0.00000000000E+00 0.  1.
    9000005    2    1    2  501    0 -0.19574684926E+02  0.43851209991E+02 -0.57663995076E+03  0.57864707436E+03  0.35646797849E+01 0.  0.
         13    1    3    3    0    0 -0.59517081449E+01  0.17534762893E+02 -0.21851726704E+03  0.21930044855E+03  0.00000000000E+00 0.  1.
          1    1    3    3  501    0 -0.13622976782E+02  0.26316447097E+02 -0.35812268372E+03  0.35934662581E+03  0.00000000000E+00 0.  1.
         -1    1    1    2    0  502  0.19574684926E+02 -0.43851209991E+02 -0.42099146939E+03  0.42372150548E+03  0.00000000000E+00 0. -1.
<mgrwt>
<rscale>  1 0.30000000E+03</rscale>
<asrwt>0</asrwt>
<pdfrwt beam="1">  1       21 0.86130358E-02 0.30000000E+03</pdfrwt>
<pdfrwt beam="2">0</pdfrwt>
<totfact> 0.11216764E+04</totfact>
</mgrwt>
</event>
<event>
 6    1  0.1280499E-001  0.3000000E+03  0.7818608E-02  0.1093470E+00
         21   -1    0    0  501  502  0.00000000000E+00  0.00000000000E+00  0.77280979132E+01  0.77280979132E+01  0.00000000000E+00 0. -1.
         13   -1    0    0    0    0 -0.00000000000E+00 -0.00000000000E+00 -0.10000000000E+04  0.10000000000E+04  0.00000000000E+00 0.  1.
    9000005    2    1    2  501    0  0.71158273283E+02 -0.42376821697E+01 -0.79087631601E+03  0.79408905677E+03  0.32596103489E+01 0.  0.
         13    1    3    3    0    0  0.21454660344E+01  0.18622154864E+00 -0.29570838613E+02  0.29649151746E+02  0.00000000000E+00 0.  1.
          1    1    3    3  501    0  0.69012807248E+02 -0.44239037183E+01 -0.76130547739E+03  0.76443990503E+03  0.00000000000E+00 0.  1.
         -3    1    1    2    0  502 -0.71158273283E+02  0.42376821697E+01 -0.20139558608E+03  0.21363904114E+03  0.00000000000E+00 0. -1.
<mgrwt>
<rscale>  1 0.30000000E+03</rscale>
<asrwt>0</asrwt>
<pdfrwt beam="1">  1       21 0.28102233E-01 0.30000000E+03</pdfrwt>
<pdfrwt beam="2">0</pdfrwt>
<totfact> 0.12384160E+03</totfact>
</mgrwt>
</event>
<event>
 6    1  0.1280499E-001  0.3000000E+03  0.7818608E-02  0.1093470E+00
         21   -1    0    0  501  502  0.00000000000E+00  0.00000000000E+00  0.10474147230E+01  0.10474147230E+01  0.00000000000E+00 0. -1.
         13   -1    0    0    0    0 -0.00000000000E+00 -0.00000000000E+00 -0.10000000000E+04  0.10000000000E+04  0.00000000000E+00 0.  1.
    9000005    2    1    2  501    0  0.22796540950E+02  0.20903731404E+02 -0.64427613706E+03  0.64502489973E+03  0.29550319890E+01 0.  0.
         13    1    3    3    0    0  0.23751949580E+01  0.12702677741E+01 -0.66952753026E+02  0.67006912099E+02  0.00000000000E+00 0.  1.
          3    1    3    3  501    0  0.20421345992E+02  0.19633463630E+02 -0.57732338403E+03  0.57801798763E+03  0.00000000000E+00 0.  1.
         -3    1    1    2    0  502 -0.22796540950E+02 -0.20903731404E+02 -0.35467644822E+03  0.35602251500E+03  0.00000000000E+00 0. -1.
<mgrwt>
<rscale>  1 0.30000000E+03</rscale>
<asrwt>0</asrwt>
<pdfrwt beam="1">  1       21 0.38087888E-02 0.30000000E+03</pdfrwt>
<pdfrwt beam="2">0</pdfrwt>
<totfact> 0.45658508E+04</totfact>
</mgrwt>
</event>
<event>
 6    1  0.1280499E-001  0.3000000E+03  0.7818608E-02  0.1093470E+00
         21   -1    0    0  501  502  0.00000000000E+00  0.00000000000E+00  0.47855107865E+01  0.47855107865E+01  0.00000000000E+00 0. -1.
         13   -1    0    0    0    0 -0.00000000000E+00 -0.00000000000E+00 -0.10000000000E+04  0.10000000000E+04  0.00000000000E+00 0.  1.
    9000005    2    1    2  501    0  0.34532021948E+02  0.19110175056E+02 -0.91007891371E+03  0.91094668329E+03  0.47509239392E+01 0.  0.
         13    1    3    3    0    0  0.32789998246E+02  0.18293256046E+02 -0.88390817991E+03  0.88470531688E+03  0.00000000000E+00 0.  1.
          1    1    3    3  501    0  0.17420237025E+01  0.81691900937E+00 -0.26170733802E+02  0.26241366408E+02  0.00000000000E+00 0.  1.
         -1    1    1    2    0  502 -0.34532021948E+02 -0.19110175056E+02 -0.85135575502E+02  0.93838827500E+02  0.00000000000E+00 0. -1.
<mgrwt>
<rscale>  1 0.30000000E+03</rscale>
<asrwt>0</asrwt>
<pdfrwt beam="1">  1       21 0.17401894E-01 0.30000000E+03</pdfrwt>
<pdfrwt beam="2">0</pdfrwt>
<totfact> 0.31217207E+03</totfact>
</mgrwt>
</event>
<event>
 6    1  0.1280499E-001  0.3000000E+03  0.7818608E-02  0.1093470E+00
         21   -1    0    0  501  502  0.00000000000E+00  0.00000000000E+00  0.13314690221E+01  0.13314690221E+01  0.00000000000E+00 0. -1.
         13   -1    0    0    0    0 -0.00000000000E+00 -0.00000000000E+00 -0.10000000000E+04  0.10000000000E+04  0.00000000000E+00 0.  1.
    9000005    2    1    2  501    0 -0.32072695416E+02 -0.13542271734E+02 -0.35354468493E+03  0.35526891195E+03  0.31787794163E+01 0.  0.
         13    1    3    3    0    0 -0.15282052444E+02 -0.81759428240E+01 -0.17451896288E+03  0.17537746598E+03  0.00000000000E+00 0.  1.
          1    1    3    3  501    0 -0.16790642973E+02 -0.53663289104E+01 -0.17902572205E+03  0.17989144597E+03  0.00000000000E+00 0.  1.
         -3    1    1    2    0  502  0.32072695416E+02  0.13542271734E+02 -0.64512384605E+03  0.64606255708E+03  0.00000000000E+00 0. -1.
<mgrwt>
<rscale>  1 0.30000000E+03</rscale>
<asrwt>0</asrwt>
<pdfrwt beam="1">  1       21 0.48417157E-02 0.30000000E+03</pdfrwt>
<pdfrwt beam="2">0</pdfrwt>
<totfact> 0.30427126E+04</totfact>
</mgrwt>
</event>
<event>
 6    1  0.1280499E-001  0.3000000E+03  0.7818608E-02  0.1093470E+00
         21   -1    0    0  501  502  0.00000000000E+00  0.00000000000E+00  0.12201371006E+01  0.12201371006E+01  0.00000000000E+00 0. -1.
         13   -1    0    0    0    0 -0.00000000000E+00 -0.00000000000E+00 -0.10000000000E+04  0.10000000000E+04  0.00000000000E+00 0.  1.
    9000005    2    1    2  501    0 -0.32289721123E+02 -0.62888248522E+01 -0.33666140657E+03  0.33828497766E+03  0.36943239892E+01 0.  0.
         13    1    3    3    0    0 -0.62598775370E+01 -0.12517858529E+01 -0.81595854718E+02  0.81845198648E+02  0.00000000000E+00 0.  1.
          3    1    3    3  501    0 -0.26029843586E+02 -0.50370389994E+01 -0.25506555185E+03  0.25643977901E+03  0.00000000000E+00 0.  1.
         -1    1    1    2    0  502  0.32289721123E+02  0.62888248522E+01 -0.66211845633E+03  0.66293515944E+03  0.00000000000E+00 0. -1.
<mgrwt>
<rscale>  1 0.30000000E+03</rscale>
<asrwt>0</asrwt>
<pdfrwt beam="1">  1       21 0.44368715E-02 0.30000000E+03</pdfrwt>
<pdfrwt beam="2">0</pdfrwt>
<totfact> 0.35293787E+04</totfact>
</mgrwt>
</event>
<event>
 6    1  0.1280499E-001  0.3000000E+03  0.7818608E-02  0.1093470E+00
         21   -1    0    0  501  502  0.00000000000E+00  0.00000000000E+00  0.18199000829E+01  0.18199000829E+01  0.00000000000E+00 0. -1.
         13   -1    0    0    0    0 -0.00000000000E+00 -0.00000000000E+00 -0.10000000000E+04  0.10000000000E+04  0.00000000000E+00 0.  1.
    9000005    2    1    2  501    0 -0.30153358457E+02 -0.13906378593E+02 -0.81299723437E+03  0.81368349721E+03  0.37038027850E+01 0.  0.
         13    1    3    3    0    0 -0.13125761208E+02 -0.52461167493E+01 -0.38723572943E+03  0.38749363543E+03  0.00000000000E+00 0.  1.
          3    1    3    3  501    0 -0.17027597248E+02 -0.86602618437E+01 -0.42576150494E+03  0.42618986179E+03  0.00000000000E+00 0.  1.
         -3    1    1    2    0  502  0.30153358457E+02  0.13906378593E+02 -0.18518286555E+03  0.18813640287E+03  0.00000000000E+00 0. -1.
<mgrwt>
<rscale>  1 0.30000000E+03</rscale>
<asrwt>0</asrwt>
<pdfrwt beam="1">  1       21 0.66178324E-02 0.30000000E+03</pdfrwt>
<pdfrwt beam="2">0</pdfrwt>
<totfact> 0.17787739E+04</totfact>
</mgrwt>
</event>
<event>
 6    1  0.1280499E-001  0.3000000E+03  0.7818608E-02  0.1093470E+00
         21   -1    0    0  501  502  0.00000000000E+00  0.00000000000E+00  0.56896344583E+01  0.56896344583E+01  0.00000000000E+00 0. -1.
         13   -1    0    0    0    0 -0.00000000000E+00 -0.00000000000E+00 -0.10000000000E+04  0.10000000000E+04  0.00000000000E+00 0.  1.
    9000005    2    1    2  501    0 -0.41865241234E+02  0.29787994663E+02 -0.86515835436E+03  0.86669227822E+03  0.40625057473E+01 0.  0.
         13    1    3    3    0    0 -0.39123399223E+02  0.28209196941E+02 -0.82552251312E+03  0.82693035912E+03  0.00000000000E+00 0.  1.
          1    1    3    3  501    0 -0.27418420109E+01  0.15787977216E+01 -0.39635841239E+02  0.39761919101E+02  0.00000000000E+00 0.  1.
         -1    1    1    2    0  502  0.41865241234E+02 -0.29787994663E+02 -0.12915201118E+03  0.13899735624E+03  0.00000000000E+00 0. -1.
<mgrwt>
<rscale>  1 0.30000000E+03</rscale>
<asrwt>0</asrwt>
<pdfrwt beam="1">  1       21 0.20689623E-01 0.30000000E+03</pdfrwt>
<pdfrwt beam="2">0</pdfrwt>
<totfact> 0.22486581E+03</totfact>
</mgrwt>
</event>
<event>
 6    1  0.1280499E-001  0.3000000E+03  0.7818608E-02  0.1093470E+00
         21   -1    0    0  501  502  0.00000000000E+00  0.00000000000E+00  0.23239021986E+01  0.23239021986E+01  0.00000000000E+00 0. -1.
         13   -1    0    0    0    0 -0.00000000000E+00 -0.00000000000E+00 -0.10000000000E+04  0.10000000000E+04  0.00000000000E+00 0.  1.
    9000005    2    1    2  501    0 -0.41757036327E+02  0.36506800106E+01 -0.74523198890E+03  0.74642351989E+03  0.45140021756E+01 0.  0.
         13    1    3    3    0    0 -0.76557096066E+01  0.24196197855E+01 -0.14702490031E+03  0.14724396680E+03  0.00000000000E+00 0.  1.
          1    1    3    3  501    0 -0.34101326721E+02  0.12310602250E+01 -0.59820708860E+03  0.59917955309E+03  0.00000000000E+00 0.  1.
         -1    1    1    2    0  502  0.41757036327E+02 -0.36506800106E+01 -0.25244410890E+03  0.25590038231E+03  0.00000000000E+00 0. -1.
<mgrwt>
<rscale>  1 0.30000000E+03</rscale>
<asrwt>0</asrwt>
<pdfrwt beam="1">  1       21 0.84505713E-02 0.30000000E+03</pdfrwt>
<pdfrwt beam="2">0</pdfrwt>
<totfact> 0.11599921E+04</totfact>
</mgrwt>
</event>
<event>
 6    1  0.1280499E-001  0.3000000E+03  0.7818608E-02  0.1093470E+00
         21   -1    0    0  501  502  0.00000000000E+00  0.00000000000E+00  0.37653194897E+01  0.37653194897E+01  0.00000000000E+00 0. -1.
         13   -1    0    0    0    0 -0.00000000000E+00 -0.00000000000E+00 -0.10000000000E+04  0.10000000000E+04  0.00000000000E+00 0.  1.
    9000005    2    1    2  501    0 -0.28576980591E+02  0.35478845241E+02 -0.83412396334E+03  0.83537506769E+03  0.36503729575E+01 0.  0.
         13    1    3    3    0    0 -0.14195266601E+02  0.14844648350E+02 -0.36569500018E+03  0.36627135069E+03  0.00000000000E+00 0.  1.
          3    1    3    3  501    0 -0.14381713990E+02  0.20634196892E+02 -0.46842896316E+03  0.46910371700E+03  0.00000000000E+00 0.  1.
         -1    1    1    2    0  502  0.28576980591E+02 -0.35478845241E+02 -0.16211071717E+03  0.16839025180E+03  0.00000000000E+00 0. -1.
<mgrwt>
<rscale>  1 0.30000000E+03</rscale>
<asrwt>0</asrwt>
<pdfrwt beam="1">  1       21 0.13692100E-01 0.30000000E+03</pdfrwt>
<pdfrwt beam="2">0</pdfrwt>
<totfact> 0.48715179E+03</totfact>
</mgrwt>
</event>
<event>
 6    1  0.1280499E-001  0.3000000E+03  0.7818608E-02  0.1093470E+00
         21   -1    0    0  501  502  0.00000000000E+00  0.00000000000E+00  0.69864825337E+01  0.69864825337E+01  0.00000000000E+00 0. -1.
         13   -1    0    0    0    0 -0.00000000000E+00 -0.00000000000E+00 -0.10000000000E+04  0.10000000000E+04  0.00000000000E+00 0.  1.
    9000005    2    1    2  501    0  0.61469023294E+02 -0.34093393476E+02 -0.76879130747E+03  0.77200478163E+03  0.32416224960E+01 0.  0.
         13    1    3    3    0    0  0.25085490642E+02 -0.15718693169E+02 -0.32057229769E+03  0.32193626264E+03  0.00000000000E+00 0.  1.
          1    1    3    3  501    0  0.36383532652E+02 -0.18374700307E+02 -0.44821900978E+03  0.45006851899E+03  0.00000000000E+00 0.  1.
         -1    1    1    2    0  502 -0.61469023294E+02  0.34093393476E+02 -0.22422221000E+03  0.23498170090E+03  0.00000000000E+00 0. -1.
<mgrwt>
<rscale>  1 0.30000000E+03</rscale>
<asrwt>0</asrwt>
<pdfrwt beam="1">  1       21 0.25405445E-01 0.30000000E+03</pdfrwt>
<pdfrwt beam="2">0</pdfrwt>
<totfact> 0.15111931E+03</totfact>
</mgrwt>
</event>
<event>
 6    1  0.1280499E-001  0.3000000E+03  0.7818608E-02  0.1093470E+00
         21   -1    0    0  501  502  0.00000000000E+00  0.00000000000E+00  0.11344391846E+01  0.11344391846E+01  0.00000000000E+00 0. -1.
         13   -1    0    0    0    0 -0.00000000000E+00 -0.00000000000E+00 -0.10000000000E+04  0.10000000000E+04  0.00000000000E+00 0.  1.
    9000005    2    1    2  501    0  0.18190420831E+02 -0.24514726067E+02 -0.70837936977E+03  0.70904868056E+03  0.41032525760E+01 0.  0.
         13    1    3    3    0    0  0.36466099323E+01 -0.77992015019E+01 -0.18353503309E+03  0.18373685988E+03  0.00000000000E+00 0.  1.
          1    1    3    3  501    0  0.14543810899E+02 -0.16715524565E+02 -0.52484433668E+03  0.52531182068E+03  0.00000000000E+00 0.  1.
         -1    1    1    2    0  502 -0.18190420831E+02  0.24514726067E+02 -0.29048619105E+03  0.29208575863E+03  0.00000000000E+00 0. -1.
<mgrwt>
<rscale>  1 0.30000000E+03</rscale>
<asrwt>0</asrwt>
<pdfrwt beam="1">  1       21 0.41252421E-02 0.30000000E+03</pdfrwt>
<pdfrwt beam="2">0</pdfrwt>
<totfact> 0.39918275E+04</totfact>
</mgrwt>
</event>
<event>
 6    1  0.1280499E-001  0.3000000E+03  0.7818608E-02  0.1093470E+00
         21   -1    0    0  501  502  0.00000000000E+00  0.00000000000E+00  0.12803405570E+01  0.12803405570E+01  0.00000000000E+00 0. -1.
         13   -1    0    0    0    0 -0.00000000000E+00 -0.00000000000E+00 -0.10000000000E+04  0.10000000000E+04  0.00000000000E+00 0.  1.
    9000005    2    1    2  501    0  0.13055920303E+02  0.29407882038E+02 -0.71528599408E+03  0.71602620256E+03  0.49182161752E+01 0.  0.
         13    1    3    3    0    0  0.10366963052E+02  0.27065413273E+02 -0.63583633204E+03  0.63649654489E+03  0.00000000000E+00 0.  1.
          1    1    3    3  501    0  0.26889572515E+01  0.23424687655E+01 -0.79449662044E+02  0.79529657675E+02  0.00000000000E+00 0.  1.
         -1    1    1    2    0  502 -0.13055920303E+02 -0.29407882038E+02 -0.28343366536E+03  0.28525413799E+03  0.00000000000E+00 0. -1.
<mgrwt>
<rscale>  1 0.30000000E+03</rscale>
<asrwt>0</asrwt>
<pdfrwt beam="1">  1       21 0.46557937E-02 0.30000000E+03</pdfrwt>
<pdfrwt beam="2">0</pdfrwt>
<totfact> 0.32522622E+04</totfact>
</mgrwt>
</event>
<event>
 6    1  0.1280499E-001  0.3000000E+03  0.7818608E-02  0.1093470E+00
         21   -1    0    0  501  502  0.00000000000E+00  0.00000000000E+00  0.10359865453E+01  0.10359865453E+01  0.00000000000E+00 0. -1.
         13   -1    0    0    0    0 -0.00000000000E+00 -0.00000000000E+00 -0.10000000000E+04  0.10000000000E+04  0.00000000000E+00 0.  1.
    9000005    2    1    2  501    0  0.14776612678E+02 -0.28428643001E+02 -0.52026580127E+03  0.52126675621E+03  0.39988918826E+01 0.  0.
         13    1    3    3    0    0  0.15017882500E+02 -0.27557361227E+02 -0.50533171857E+03  0.50630533352E+03  0.00000000000E+00 0.  1.
          3    1    3    3  501    0 -0.24126982173E+00 -0.87128177392E+00 -0.14934082694E+02  0.14961422692E+02  0.00000000000E+00 0.  1.
         -1    1    1    2    0  502 -0.14776612678E+02  0.28428643001E+02 -0.47869821219E+03  0.47976923034E+03  0.00000000000E+00 0. -1.
<mgrwt>
<rscale>  1 0.30000000E+03</rscale>
<asrwt>0</asrwt>
<pdfrwt beam="1">  1       21 0.37672317E-02 0.30000000E+03</pdfrwt>
<pdfrwt beam="2">0</pdfrwt>
<totfact> 0.46507805E+04</totfact>
</mgrwt>
</event>
<event>
 6    1  0.1280499E-001  0.3000000E+03  0.7818608E-02  0.1093470E+00
         21   -1    0    0  501  502  0.00000000000E+00  0.00000000000E+00  0.12797747726E+01  0.12797747726E+01  0.00000000000E+00 0. -1.
         13   -1    0    0    0    0 -0.00000000000E+00 -0.00000000000E+00 -0.10000000000E+04  0.10000000000E+04  0.00000000000E+00 0.  1.
    9000005    2    1    2  501    0  0.34646304023E+02  0.73004997313E+01 -0.56109341895E+03  0.56222296154E+03  0.38948694552E+01 0.  0.
         13    1    3    3    0    0  0.19666884795E+02  0.61037111124E+01 -0.32671861173E+03  0.32736690868E+03  0.00000000000E+00 0.  1.
          1    1    3    3  501    0  0.14979419228E+02  0.11967886189E+01 -0.23437480722E+03  0.23485605286E+03  0.00000000000E+00 0.  1.
         -1    1    1    2    0  502 -0.34646304023E+02 -0.73004997313E+01 -0.43762680627E+03  0.43905681324E+03  0.00000000000E+00 0. -1.
<mgrwt>
<rscale>  1 0.30000000E+03</rscale>
<asrwt>0</asrwt>
<pdfrwt beam="1">  1       21 0.46537363E-02 0.30000000E+03</pdfrwt>
<pdfrwt beam="2">0</pdfrwt>
<totfact> 0.32547063E+04</totfact>
</mgrwt>
</event>
<event>
 6    1  0.1280499E-001  0.3000000E+03  0.7818608E-02  0.1093470E+00
         21   -1    0    0  501  502  0.00000000000E+00  0.00000000000E+00  0.60381026519E+01  0.60381026519E+01  0.00000000000E+00 0. -1.
         13   -1    0    0    0    0 -0.00000000000E+00 -0.00000000000E+00 -0.10000000000E+04  0.10000000000E+04  0.00000000000E+00 0.  1.
    9000005    2    1    2  501    0 -0.90821729104E+01  0.76604107111E+02 -0.55577532741E+03  0.56111322678E+03  0.33412010254E+01 0.  0.
         13    1    3    3    0    0 -0.38000732919E+00  0.81376832416E+01 -0.52796748509E+02  0.53421558825E+02  0.00000000000E+00 0.  1.
          3    1    3    3  501    0 -0.87021655812E+01  0.68466423870E+02 -0.50297857890E+03  0.50769166796E+03  0.00000000000E+00 0.  1.
         -1    1    1    2    0  502  0.90821729104E+01 -0.76604107111E+02 -0.43818656994E+03  0.44492487587E+03  0.00000000000E+00 0. -1.
<mgrwt>
<rscale>  1 0.30000000E+03</rscale>
<asrwt>0</asrwt>
<pdfrwt beam="1">  1       21 0.21956783E-01 0.30000000E+03</pdfrwt>
<pdfrwt beam="2">0</pdfrwt>
<totfact> 0.20061733E+03</totfact>
</mgrwt>
</event>
<event>
 6    1  0.1280499E-001  0.3000000E+03  0.7818608E-02  0.1093470E+00
         21   -1    0    0  501  502  0.00000000000E+00  0.00000000000E+00  0.32173482046E+01  0.32173482046E+01  0.00000000000E+00 0. -1.
         13   -1    0    0    0    0 -0.00000000000E+00 -0.00000000000E+00 -0.10000000000E+04  0.10000000000E+04  0.00000000000E+00 0.  1.
    9000005    2    1    2  501    0  0.10278981098E+02  0.39853997052E+02 -0.84319026013E+03  0.84420596084E+03  0.44599338588E+01 0.  0.
         13    1    3    3    0    0  0.95291040864E+00  0.11673969500E+02 -0.24333305345E+03  0.24361478712E+03  0.00000000000E+00 0.  1.
          3    1    3    3  501    0  0.93260706892E+01  0.28180027552E+02 -0.59985720668E+03  0.60059117372E+03  0.00000000000E+00 0.  1.
         -3    1    1    2    0  502 -0.10278981098E+02 -0.39853997052E+02 -0.15359239167E+03  0.15901138737E+03  0.00000000000E+00 0. -1.
<mgrwt>
<rscale>  1 0.30000000E+03</rscale>
<asrwt>0</asrwt>
<pdfrwt beam="1">  1       21 0.11699473E-01 0.30000000E+03</pdfrwt>
<pdfrwt beam="2">0</pdfrwt>
<totfact> 0.64886228E+03</totfact>
</mgrwt>
</event>
<event>
 6    1  0.1280499E-001  0.3000000E+03  0.7818608E-02  0.1093470E+00
         21   -1    0    0  501  502  0.00000000000E+00  0.00000000000E+00  0.19293632814E+01  0.19293632814E+01  0.00000000000E+00 0. -1.
         13   -1    0    0    0    0 -0.00000000000E+00 -0.00000000000E+00 -0.10000000000E+04  0.10000000000E+04  0.00000000000E+00 0.  1.
    9000005    2    1    2  501    0  0.14570458843E+02 -0.33847986667E+02 -0.76925521680E+03  0.77016551609E+03  0.65840054915E+01 0.  0.
         13    1    3    3    0    0  0.12699719730E+02 -0.30245694481E+02 -0.71840467376E+03  0.71915322443E+03  0.00000000000E+00 0.  1.
          1    1    3    3  501    0  0.18707391130E+01 -0.36022921860E+01 -0.50850543036E+02  0.51012291665E+02  0.00000000000E+00 0.  1.
         -1    1    1    2    0  502 -0.14570458843E+02  0.33847986667E+02 -0.22881541992E+03  0.23176384719E+03  0.00000000000E+00 0. -1.
<mgrwt>
<rscale>  1 0.30000000E+03</rscale>
<asrwt>0</asrwt>
<pdfrwt beam="1">  1       21 0.70158813E-02 0.30000000E+03</pdfrwt>
<pdfrwt beam="2">0</pdfrwt>
<totfact> 0.16071770E+04</totfact>
</mgrwt>
</event>
<event>
 6    1  0.1280499E-001  0.3000000E+03  0.7818608E-02  0.1093470E+00
         21   -1    0    0  501  502  0.00000000000E+00  0.00000000000E+00  0.17082683338E+01  0.17082683338E+01  0.00000000000E+00 0. -1.
         13   -1    0    0    0    0 -0.00000000000E+00 -0.00000000000E+00 -0.10000000000E+04  0.10000000000E+04  0.00000000000E+00 0.  1.
    9000005    2    1    2  501    0 -0.16809383692E+02 -0.27760846371E+02 -0.80794827368E+03  0.80861799936E+03  0.54254942015E+01 0.  0.
         13    1    3    3    0    0 -0.65642767067E+01 -0.12632420050E+02 -0.29292492253E+03  0.29327065657E+03  0.00000000000E+00 0.  1.
          1    1    3    3  501    0 -0.10245106986E+02 -0.15128426320E+02 -0.51502335115E+03  0.51534734280E+03  0.00000000000E+00 0.  1.
         -3    1    1    2    0  502  0.16809383692E+02  0.27760846371E+02 -0.19034345799E+03  0.19309026897E+03  0.00000000000E+00 0. -1.
<mgrwt>
<rscale>  1 0.30000000E+03</rscale>
<asrwt>0</asrwt>
<pdfrwt beam="1">  1       21 0.62118979E-02 0.30000000E+03</pdfrwt>
<pdfrwt beam="2">0</pdfrwt>
<totfact> 0.19846514E+04</totfact>
</mgrwt>
</event>
<event>
 6    1  0.1280499E-001  0.3000000E+03  0.7818608E-02  0.1093470E+00
         21   -1    0    0  501  502  0.00000000000E+00  0.00000000000E+00  0.11065097390E+01  0.11065097390E+01  0.00000000000E+00 0. -1.
         13   -1    0    0    0    0 -0.00000000000E+00 -0.00000000000E+00 -0.10000000000E+04  0.10000000000E+04  0.00000000000E+00 0.  1.
    9000005    2    1    2  501    0 -0.40538007122E+01 -0.32566347188E+02 -0.57396361794E+03  0.57491125324E+03  0.34225891614E+01 0.  0.
         13    1    3    3    0    0 -0.96862645345E+00 -0.17287234358E+01 -0.39895733733E+02  0.39944915722E+02  0.00000000000E+00 0.  1.
          1    1    3    3  501    0 -0.30851742588E+01 -0.30837623752E+02 -0.53406788420E+03  0.53496633752E+03  0.00000000000E+00 0.  1.
         -3    1    1    2    0  502  0.40538007122E+01  0.32566347188E+02 -0.42492987233E+03  0.42619525650E+03  0.00000000000E+00 0. -1.
<mgrwt>
<rscale>  1 0.30000000E+03</rscale>
<asrwt>0</asrwt>
<pdfrwt beam="1">  1       21 0.40236803E-02 0.30000000E+03</pdfrwt>
<pdfrwt beam="2">0</pdfrwt>
<totfact> 0.41631374E+04</totfact>
</mgrwt>
</event>
<event>
 6    1  0.1280499E-001  0.3000000E+03  0.7818608E-02  0.1093470E+00
         21   -1    0    0  501  502  0.00000000000E+00  0.00000000000E+00  0.52371557889E+01  0.52371557889E+01  0.00000000000E+00 0. -1.
         13   -1    0    0    0    0 -0.00000000000E+00 -0.00000000000E+00 -0.10000000000E+04  0.10000000000E+04  0.00000000000E+00 0.  1.
    9000005    2    1    2  501    0 -0.66382843390E+02  0.67566811083E+01 -0.69149967895E+03  0.69472003542E+03  0.34332192168E+01 0.  0.
         13    1    3    3    0    0 -0.23333607995E+02  0.74282359376E+00 -0.23949004501E+03  0.24062520796E+03  0.00000000000E+00 0.  1.
          1    1    3    3  501    0 -0.43049235394E+02  0.60138575145E+01 -0.45200963394E+03  0.45409482746E+03  0.00000000000E+00 0.  1.
         -3    1    1    2    0  502  0.66382843390E+02 -0.67566811083E+01 -0.30326316526E+03  0.31051712037E+03  0.00000000000E+00 0. -1.
<mgrwt>
<rscale>  1 0.30000000E+03</rscale>
<asrwt>0</asrwt>
<pdfrwt beam="1">  1       21 0.19044243E-01 0.30000000E+03</pdfrwt>
<pdfrwt beam="2">0</pdfrwt>
<totfact> 0.26334520E+03</totfact>
</mgrwt>
</event>
<event>
 6    1  0.1280499E-001  0.3000000E+03  0.7818608E-02  0.1093470E+00
         21   -1    0    0  501  502  0.00000000000E+00  0.00000000000E+00  0.19002621541E+02  0.19002621541E+02  0.00000000000E+00 0. -1.
         13   -1    0    0    0    0 -0.00000000000E+00 -0.00000000000E+00 -0.10000000000E+04  0.10000000000E+04  0.00000000000E+00 0.  1.
    9000005    2    1    2  501    0 -0.46383735089E+02  0.35538128776E+02 -0.95195010705E+03  0.95374809331E+03  0.34655029508E+01 0.  0.
         13    1    3    3    0    0 -0.37429657795E+02  0.27906058672E+02 -0.77987558619E+03  0.78127182038E+03  0.00000000000E+00 0.  1.
          1    1    3    3  501    0 -0.89540772945E+01  0.76320701048E+01 -0.17207452086E+03  0.17247627293E+03  0.00000000000E+00 0.  1.
         -3    1    1    2    0  502  0.46383735089E+02 -0.35538128776E+02 -0.29047271410E+02  0.65254528227E+02  0.00000000000E+00 0. -1.
<mgrwt>
<rscale>  1 0.30000000E+03</rscale>
<asrwt>0</asrwt>
<pdfrwt beam="1">  1       21 0.69100588E-01 0.30000000E+03</pdfrwt>
<pdfrwt beam="2">0</pdfrwt>
<totfact> 0.18181882E+02</totfact>
</mgrwt>
</event>
<event>
 6    1  0.1280499E-001  0.3000000E+03  0.7818608E-02  0.1093470E+00
         21   -1    0    0  501  502  0.00000000000E+00  0.00000000000E+00  0.11729173580E+01  0.11729173580E+01  0.00000000000E+00 0. -1.
         13   -1    0    0    0    0 -0.00000000000E+00 -0.00000000000E+00 -0.10000000000E+04  0.10000000000E+04  0.00000000000E+00 0.  1.
    9000005    2    1    2  501    0 -0.13533031784E+02  0.29134261172E+02 -0.67086673744E+03  0.67164304595E+03  0.32021321090E+01 0.  0.
         13    1    3    3    0    0 -0.71743497408E+01  0.18973390505E+02 -0.43052483281E+03  0.43100242750E+03  0.00000000000E+00 0.  1.
          3    1    3    3  501    0 -0.63586820432E+01  0.10160870667E+02 -0.24034190463E+03  0.24064061846E+03  0.00000000000E+00 0.  1.
         -1    1    1    2    0  502  0.13533031784E+02 -0.29134261172E+02 -0.32796034520E+03  0.32952987140E+03  0.00000000000E+00 0. -1.
<mgrwt>
<rscale>  1 0.30000000E+03</rscale>
<asrwt>0</asrwt>
<pdfrwt beam="1">  1       21 0.42651630E-02 0.30000000E+03</pdfrwt>
<pdfrwt beam="2">0</pdfrwt>
<totfact> 0.37732144E+04</totfact>
</mgrwt>
</event>
<event>
 6    1  0.1280499E-001  0.3000000E+03  0.7818608E-02  0.1093470E+00
         21   -1    0    0  501  502  0.00000000000E+00  0.00000000000E+00  0.20917590168E+01  0.20917590168E+01  0.00000000000E+00 0. -1.
         13   -1    0    0    0    0 -0.00000000000E+00 -0.00000000000E+00 -0.10000000000E+04  0.10000000000E+04  0.00000000000E+00 0.  1.
    9000005    2    1    2  501    0 -0.21338373920E+02 -0.40105028178E+02 -0.55183664680E+03  0.55371289397E+03  0.32472613619E+01 0.  0.
         13    1    3    3    0    0 -0.14289452522E+02 -0.24248256476E+02 -0.35331125571E+03  0.35443054299E+03  0.00000000000E+00 0.  1.
          1    1    3    3  501    0 -0.70489213987E+01 -0.15856771703E+02 -0.19852539109E+03  0.19928235097E+03  0.00000000000E+00 0.  1.
         -1    1    1    2    0  502  0.21338373920E+02  0.40105028178E+02 -0.44607159418E+03  0.44837886505E+03  0.00000000000E+00 0. -1.
<mgrwt>
<rscale>  1 0.30000000E+03</rscale>
<asrwt>0</asrwt>
<pdfrwt beam="1">  1       21 0.76064125E-02 0.30000000E+03</pdfrwt>
<pdfrwt beam="2">0</pdfrwt>
<totfact> 0.13955821E+04</totfact>
</mgrwt>
</event>
<event>
 6    1  0.1280499E-001  0.3000000E+03  0.7818608E-02  0.1093470E+00
         21   -1    0    0  501  502  0.00000000000E+00  0.00000000000E+00  0.23902285654E+01  0.23902285654E+01  0.00000000000E+00 0. -1.
         13   -1    0    0    0    0 -0.00000000000E+00 -0.00000000000E+00 -0.10000000000E+04  0.10000000000E+04  0.00000000000E+00 0.  1.
    9000005    2    1    2  501    0 -0.32886035210E+02 -0.34972650723E+02 -0.59146163403E+03  0.59341481716E+03  0.31149790977E+01 0.  0.
         13    1    3    3    0    0 -0.24281131615E+02 -0.25998602022E+02 -0.45446714360E+03  0.45585730801E+03  0.00000000000E+00 0.  1.
          1    1    3    3  501    0 -0.86049035955E+01 -0.89740487009E+01 -0.13699449043E+03  0.13755750915E+03  0.00000000000E+00 0.  1.
         -3    1    1    2    0  502  0.32886035210E+02  0.34972650723E+02 -0.40614813741E+03  0.40897541140E+03  0.00000000000E+00 0. -1.
<mgrwt>
<rscale>  1 0.30000000E+03</rscale>
<asrwt>0</asrwt>
<pdfrwt beam="1">  1       21 0.86917586E-02 0.30000000E+03</pdfrwt>
<pdfrwt beam="2">0</pdfrwt>
<totfact> 0.11038000E+04</totfact>
</mgrwt>
</event>
<event>
 6    1  0.1280499E-001  0.3000000E+03  0.7818608E-02  0.1093470E+00
         21   -1    0    0  501  502  0.00000000000E+00  0.00000000000E+00  0.16544792557E+01  0.16544792557E+01  0.00000000000E+00 0. -1.
         13   -1    0    0    0    0 -0.00000000000E+00 -0.00000000000E+00 -0.10000000000E+04  0.10000000000E+04  0.00000000000E+00 0.  1.
    9000005    2    1    2  501    0 -0.38266152304E+02  0.50192817164E+01 -0.65486348713E+03  0.65601102276E+03  0.38449457660E+01 0.  0.
         13    1    3    3    0    0 -0.35485378807E+02  0.56518928496E+01 -0.60757701579E+03  0.60863863344E+03  0.00000000000E+00 0.  1.
          1    1    3    3  501    0 -0.27807734967E+01 -0.63261113318E+00 -0.47286471339E+02  0.47372389319E+02  0.00000000000E+00 0.  1.
         -3    1    1    2    0  502  0.38266152304E+02 -0.50192817164E+01 -0.34348203361E+03  0.34564345649E+03  0.00000000000E+00 0. -1.
<mgrwt>
<rscale>  1 0.30000000E+03</rscale>
<asrwt>0</asrwt>
<pdfrwt beam="1">  1       21 0.60163009E-02 0.30000000E+03</pdfrwt>
<pdfrwt beam="2">0</pdfrwt>
<totfact> 0.20973292E+04</totfact>
</mgrwt>
</event>
<event>
 6    1  0.1280499E-001  0.3000000E+03  0.7818608E-02  0.1093470E+00
         21   -1    0    0  501  502  0.00000000000E+00  0.00000000000E+00  0.89425806410E+01  0.89425806410E+01  0.00000000000E+00 0. -1.
         13   -1    0    0    0    0 -0.00000000000E+00 -0.00000000000E+00 -0.10000000000E+04  0.10000000000E+04  0.00000000000E+00 0.  1.
    9000005    2    1    2  501    0  0.89464405708E+01 -0.71422846550E+02 -0.82247679350E+03  0.82563767285E+03  0.53131122088E+01 0.  0.
         13    1    3    3    0    0  0.20165098772E+01 -0.87195014492E+01 -0.86279404548E+02  0.86742329153E+02  0.00000000000E+00 0.  1.
          1    1    3    3  501    0  0.69299306935E+01 -0.62703345101E+02 -0.73619738896E+03  0.73889534369E+03  0.00000000000E+00 0.  1.
         -3    1    1    2    0  502 -0.89464405708E+01  0.71422846550E+02 -0.16858062585E+03  0.18330490780E+03  0.00000000000E+00 0. -1.
<mgrwt>
<rscale>  1 0.30000000E+03</rscale>
<asrwt>0</asrwt>
<pdfrwt beam="1">  1       21 0.32518544E-01 0.30000000E+03</pdfrwt>
<pdfrwt beam="2">0</pdfrwt>
<totfact> 0.92439211E+02</totfact>
</mgrwt>
</event>
<event>
 6    1  0.1280499E-001  0.3000000E+03  0.7818608E-02  0.1093470E+00
         21   -1    0    0  501  502  0.00000000000E+00  0.00000000000E+00  0.15371906894E+01  0.15371906894E+01  0.00000000000E+00 0. -1.
         13   -1    0    0    0    0 -0.00000000000E+00 -0.00000000000E+00 -0.10000000000E+04  0.10000000000E+04  0.00000000000E+00 0.  1.
    9000005    2    1    2  501    0 -0.33750367902E+02 -0.19010459865E+02 -0.43796093300E+03  0.43969838973E+03  0.49406656998E+01 0.  0.
         13    1    3    3    0    0 -0.51572746150E+01 -0.31127497202E+01 -0.90691388890E+02  0.90891224610E+02  0.00000000000E+00 0.  1.
          1    1    3    3  501    0 -0.28593093287E+02 -0.15897710145E+02 -0.34726954411E+03  0.34880716512E+03  0.00000000000E+00 0.  1.
         -3    1    1    2    0  502  0.33750367902E+02  0.19010459865E+02 -0.56050187631E+03  0.56183880096E+03  0.00000000000E+00 0. -1.
<mgrwt>
<rscale>  1 0.30000000E+03</rscale>
<asrwt>0</asrwt>
<pdfrwt beam="1">  1       21 0.55897961E-02 0.30000000E+03</pdfrwt>
<pdfrwt beam="2">0</pdfrwt>
<totfact> 0.23803480E+04</totfact>
</mgrwt>
</event>
<event>
 6    1  0.1280499E-001  0.3000000E+03  0.7818608E-02  0.1093470E+00
         21   -1    0    0  501  502  0.00000000000E+00  0.00000000000E+00  0.11180469398E+01  0.11180469398E+01  0.00000000000E+00 0. -1.
         13   -1    0    0    0    0 -0.00000000000E+00 -0.00000000000E+00 -0.10000000000E+04  0.10000000000E+04  0.00000000000E+00 0.  1.
    9000005    2    1    2  501    0 -0.29849503646E+02  0.52914844921E+01 -0.70845443073E+03  0.70911267301E+03  0.37563184964E+01 0.  0.
         13    1    3    3    0    0 -0.21309441618E+02  0.22163582514E+01 -0.51489197716E+03  0.51533751337E+03  0.00000000000E+00 0.  1.
          3    1    3    3  501    0 -0.85400620276E+01  0.30751262407E+01 -0.19356245357E+03  0.19377515964E+03  0.00000000000E+00 0.  1.
         -1    1    1    2    0  502  0.29849503646E+02 -0.52914844921E+01 -0.29042752233E+03  0.29200537393E+03  0.00000000000E+00 0. -1.
<mgrwt>
<rscale>  1 0.30000000E+03</rscale>
<asrwt>0</asrwt>
<pdfrwt beam="1">  1       21 0.40656338E-02 0.30000000E+03</pdfrwt>
<pdfrwt beam="2">0</pdfrwt>
<totfact> 0.40910065E+04</totfact>
</mgrwt>
</event>
<event>
 6    1  0.1280499E-001  0.3000000E+03  0.7818608E-02  0.1093470E+00
         21   -1    0    0  501  502  0.00000000000E+00  0.00000000000E+00  0.30152135559E+01  0.30152135559E+01  0.00000000000E+00 0. -1.
         13   -1    0    0    0    0 -0.00000000000E+00 -0.00000000000E+00 -0.10000000000E+04  0.10000000000E+04  0.00000000000E+00 0.  1.
    9000005    2    1    2  501    0 -0.12514521391E+02 -0.46664822169E+02 -0.73591276493E+03  0.73751037501E+03  0.44426103541E+01 0.  0.
         13    1    3    3    0    0 -0.12221231472E+02 -0.39936238225E+02 -0.64051597763E+03  0.64187614010E+03  0.00000000000E+00 0.  1.
          1    1    3    3  501    0 -0.29328991958E+00 -0.67285839440E+01 -0.95396787301E+02  0.95634234917E+02  0.00000000000E+00 0.  1.
         -1    1    1    2    0  502  0.12514521391E+02  0.46664822169E+02 -0.26107202151E+03  0.26550483854E+03  0.00000000000E+00 0. -1.
<mgrwt>
<rscale>  1 0.30000000E+03</rscale>
<asrwt>0</asrwt>
<pdfrwt beam="1">  1       21 0.10964436E-01 0.30000000E+03</pdfrwt>
<pdfrwt beam="2">0</pdfrwt>
<totfact> 0.72943917E+03</totfact>
</mgrwt>
</event>
<event>
 6    1  0.1280499E-001  0.3000000E+03  0.7818608E-02  0.1093470E+00
         21   -1    0    0  501  502  0.00000000000E+00  0.00000000000E+00  0.12116715102E+01  0.12116715102E+01  0.00000000000E+00 0. -1.
         13   -1    0    0    0    0 -0.00000000000E+00 -0.00000000000E+00 -0.10000000000E+04  0.10000000000E+04  0.00000000000E+00 0.  1.
    9000005    2    1    2  501    0  0.27188410799E+02  0.21090209665E+02 -0.56812985895E+03  0.56918074205E+03  0.33427327750E+01 0.  0.
         13    1    3    3    0    0  0.10308188153E+02  0.66229234241E+01 -0.18291783924E+03  0.18332773323E+03  0.00000000000E+00 0.  1.
          3    1    3    3  501    0  0.16880222646E+02  0.14467286241E+02 -0.38521201971E+03  0.38585300882E+03  0.00000000000E+00 0.  1.
         -1    1    1    2    0  502 -0.27188410799E+02 -0.21090209665E+02 -0.43065846954E+03  0.43203092946E+03  0.00000000000E+00 0. -1.
<mgrwt>
<rscale>  1 0.30000000E+03</rscale>
<asrwt>0</asrwt>
<pdfrwt beam="1">  1       21 0.44060875E-02 0.30000000E+03</pdfrwt>
<pdfrwt beam="2">0</pdfrwt>
<totfact> 0.35712662E+04</totfact>
</mgrwt>
</event>
<event>
 6    1  0.1280499E-001  0.3000000E+03  0.7818608E-02  0.1093470E+00
         21   -1    0    0  501  502  0.00000000000E+00  0.00000000000E+00  0.17924095247E+01  0.17924095247E+01  0.00000000000E+00 0. -1.
         13   -1    0    0    0    0 -0.00000000000E+00 -0.00000000000E+00 -0.10000000000E+04  0.10000000000E+04  0.00000000000E+00 0.  1.
    9000005    2    1    2  501    0 -0.11073046992E+02  0.29129799745E+02 -0.83748782021E+03  0.83807923914E+03  0.44502221050E+01 0.  0.
         13    1    3    3    0    0 -0.16818241187E+01  0.25502081793E+01 -0.11764614198E+03  0.11768579700E+03  0.00000000000E+00 0.  1.
          1    1    3    3  501    0 -0.93912228728E+01  0.26579591566E+02 -0.71984167823E+03  0.72039344213E+03  0.00000000000E+00 0.  1.
         -3    1    1    2    0  502  0.11073046992E+02 -0.29129799745E+02 -0.16071977027E+03  0.16371317039E+03  0.00000000000E+00 0. -1.
<mgrwt>
<rscale>  1 0.30000000E+03</rscale>
<asrwt>0</asrwt>
<pdfrwt beam="1">  1       21 0.65178666E-02 0.30000000E+03</pdfrwt>
<pdfrwt beam="2">0</pdfrwt>
<totfact> 0.18263035E+04</totfact>
</mgrwt>
</event>
<event>
 6    1  0.1280499E-001  0.3000000E+03  0.7818608E-02  0.1093470E+00
         21   -1    0    0  501  502  0.00000000000E+00  0.00000000000E+00  0.12468249591E+01  0.12468249591E+01  0.00000000000E+00 0. -1.
         13   -1    0    0    0    0 -0.00000000000E+00 -0.00000000000E+00 -0.10000000000E+04  0.10000000000E+04  0.00000000000E+00 0.  1.
    9000005    2    1    2  501    0  0.22786277246E+02 -0.25786267930E+02 -0.58885678411E+03  0.58990852460E+03  0.74571548473E+01 0.  0.
         13    1    3    3    0    0  0.14612372504E+02 -0.19841150687E+02 -0.45772758973E+03  0.45839037849E+03  0.00000000000E+00 0.  1.
          1    1    3    3  501    0  0.81739047413E+01 -0.59451172435E+01 -0.13112919439E+03  0.13151814612E+03  0.00000000000E+00 0.  1.
         -3    1    1    2    0  502 -0.22786277246E+02  0.25786267930E+02 -0.40989639093E+03  0.41133830036E+03  0.00000000000E+00 0. -1.
<mgrwt>
<rscale>  1 0.30000000E+03</rscale>
<asrwt>0</asrwt>
<pdfrwt beam="1">  1       21 0.45339185E-02 0.30000000E+03</pdfrwt>
<pdfrwt beam="2">0</pdfrwt>
<totfact> 0.34021764E+04</totfact>
</mgrwt>
</event>
<event>
 6    1  0.1280499E-001  0.3000000E+03  0.7818608E-02  0.1093470E+00
         21   -1    0    0  501  502  0.00000000000E+00  0.00000000000E+00  0.21692411330E+01  0.21692411330E+01  0.00000000000E+00 0. -1.
         13   -1    0    0    0    0 -0.00000000000E+00 -0.00000000000E+00 -0.10000000000E+04  0.10000000000E+04  0.00000000000E+00 0.  1.
    9000005    2    1    2  501    0 -0.33417685256E+02 -0.14316309724E+02 -0.81176561584E+03  0.81258565571E+03  0.32147153273E+01 0.  0.
         13    1    3    3    0    0 -0.82070457850E+01 -0.33690831770E+01 -0.23031808263E+03  0.23048888370E+03  0.00000000000E+00 0.  1.
          3    1    3    3  501    0 -0.25210639471E+02 -0.10947226547E+02 -0.58144753320E+03  0.58209677201E+03  0.00000000000E+00 0.  1.
         -1    1    1    2    0  502  0.33417685256E+02  0.14316309724E+02 -0.18606514303E+03  0.18958358543E+03  0.00000000000E+00 0. -1.
<mgrwt>
<rscale>  1 0.30000000E+03</rscale>
<asrwt>0</asrwt>
<pdfrwt beam="1">  1       21 0.78881662E-02 0.30000000E+03</pdfrwt>
<pdfrwt beam="2">0</pdfrwt>
<totfact> 0.13093541E+04</totfact>
</mgrwt>
</event>
<event>
 6    1  0.1280499E-001  0.3000000E+03  0.7818608E-02  0.1093470E+00
         21   -1    0    0  501  502  0.00000000000E+00  0.00000000000E+00  0.10639346212E+01  0.10639346212E+01  0.00000000000E+00 0. -1.
         13   -1    0    0    0    0 -0.00000000000E+00 -0.00000000000E+00 -0.10000000000E+04  0.10000000000E+04  0.00000000000E+00 0.  1.
    9000005    2    1    2  501    0  0.18947188551E+02 -0.26447013116E+02 -0.51903051063E+03  0.52005688484E+03  0.28376137780E+01 0.  0.
         13    1    3    3    0    0  0.14492851816E+02 -0.21959464904E+02 -0.41044942922E+03  0.41129186085E+03  0.00000000000E+00 0.  1.
          1    1    3    3  501    0  0.44543367354E+01 -0.44875482119E+01 -0.10858108141E+03  0.10876502399E+03  0.00000000000E+00 0.  1.
         -3    1    1    2    0  502 -0.18947188551E+02  0.26447013116E+02 -0.47990555475E+03  0.48100704978E+03  0.00000000000E+00 0. -1.
<mgrwt>
<rscale>  1 0.30000000E+03</rscale>
<asrwt>0</asrwt>
<pdfrwt beam="1">  1       21 0.38688613E-02 0.30000000E+03</pdfrwt>
<pdfrwt beam="2">0</pdfrwt>
<totfact> 0.44473189E+04</totfact>
</mgrwt>
</event>
<event>
 6    1  0.1280499E-001  0.3000000E+03  0.7818608E-02  0.1093470E+00
         21   -1    0    0  501  502  0.00000000000E+00  0.00000000000E+00  0.65302355303E+01  0.65302355303E+01  0.00000000000E+00 0. -1.
         13   -1    0    0    0    0 -0.00000000000E+00 -0.00000000000E+00 -0.10000000000E+04  0.10000000000E+04  0.00000000000E+00 0.  1.
    9000005    2    1    2  501    0  0.25363053989E+02 -0.23351789137E+02 -0.95186746681E+03  0.95249930240E+03  0.38283356258E+01 0.  0.
         13    1    3    3    0    0  0.29329778934E+00 -0.11318664543E+01 -0.26867869531E+02  0.26893299507E+02  0.00000000000E+00 0.  1.
          3    1    3    3  501    0  0.25069756199E+02 -0.22219922683E+02 -0.92499959728E+03  0.92560600290E+03  0.00000000000E+00 0.  1.
         -3    1    1    2    0  502 -0.25363053989E+02  0.23351789137E+02 -0.41602297663E+02  0.54030933126E+02  0.00000000000E+00 0. -1.
<mgrwt>
<rscale>  1 0.30000000E+03</rscale>
<asrwt>0</asrwt>
<pdfrwt beam="1">  1       21 0.23746361E-01 0.30000000E+03</pdfrwt>
<pdfrwt beam="2">0</pdfrwt>
<totfact> 0.17241551E+03</totfact>
</mgrwt>
</event>
<event>
 6    1  0.1280499E-001  0.3000000E+03  0.7818608E-02  0.1093470E+00
         21   -1    0    0  501  502  0.00000000000E+00  0.00000000000E+00  0.58773156725E+02  0.58773156725E+02  0.00000000000E+00 0. -1.
         13   -1    0    0    0    0 -0.00000000000E+00 -0.00000000000E+00 -0.10000000000E+04  0.10000000000E+04  0.00000000000E+00 0.  1.
    9000005    2    1    2  501    0  0.62933746446E+02  0.65568012909E+02 -0.96136210140E+03  0.96568583547E+03  0.84983567823E+01 0.  0.
         13    1    3    3    0    0  0.26434183414E+02  0.33264729668E+02 -0.43187262686E+03  0.43395768702E+03  0.00000000000E+00 0.  1.
          1    1    3    3  501    0  0.36499563033E+02  0.32303283242E+02 -0.52948947453E+03  0.53172814845E+03  0.00000000000E+00 0.  1.
         -1    1    1    2    0  502 -0.62933746446E+02 -0.65568012909E+02  0.20135258122E+02  0.93087321254E+02  0.00000000000E+00 0. -1.
<mgrwt>
<rscale>  1 0.30000000E+03</rscale>
<asrwt>0</asrwt>
<pdfrwt beam="1">  1       21 0.21372102E+00 0.30000000E+03</pdfrwt>
<pdfrwt beam="2">0</pdfrwt>
<totfact> 0.74744240E+00</totfact>
</mgrwt>
</event>
<event>
 6    1  0.1280499E-001  0.3000000E+03  0.7818608E-02  0.1093470E+00
         21   -1    0    0  501  502  0.00000000000E+00  0.00000000000E+00  0.21631465420E+01  0.21631465420E+01  0.00000000000E+00 0. -1.
         13   -1    0    0    0    0 -0.00000000000E+00 -0.00000000000E+00 -0.10000000000E+04  0.10000000000E+04  0.00000000000E+00 0.  1.
    9000005    2    1    2  501    0 -0.27627374169E+02  0.35261100785E+02 -0.62910165899E+03  0.63071697188E+03  0.53276862459E+01 0.  0.
         13    1    3    3    0    0 -0.26689448031E+02  0.32140595671E+02 -0.59216524153E+03  0.59363710953E+03  0.00000000000E+00 0.  1.
          3    1    3    3  501    0 -0.93792613806E+00  0.31205051144E+01 -0.36936417460E+02  0.37079862357E+02  0.00000000000E+00 0.  1.
         -3    1    1    2    0  502  0.27627374169E+02 -0.35261100785E+02 -0.36873519447E+03  0.37144617466E+03  0.00000000000E+00 0. -1.
<mgrwt>
<rscale>  1 0.30000000E+03</rscale>
<asrwt>0</asrwt>
<pdfrwt beam="1">  1       21 0.78660040E-02 0.30000000E+03</pdfrwt>
<pdfrwt beam="2">0</pdfrwt>
<totfact> 0.13158352E+04</totfact>
</mgrwt>
</event>
<event>
 6    1  0.1280499E-001  0.3000000E+03  0.7818608E-02  0.1093470E+00
         21   -1    0    0  501  502  0.00000000000E+00  0.00000000000E+00  0.14277943973E+01  0.14277943973E+01  0.00000000000E+00 0. -1.
         13   -1    0    0    0    0 -0.00000000000E+00 -0.00000000000E+00 -0.10000000000E+04  0.10000000000E+04  0.00000000000E+00 0.  1.
    9000005    2    1    2  501    0  0.17395904855E+02  0.31051756904E+02 -0.66487210929E+03  0.66583491099E+03  0.37918165366E+01 0.  0.
         13    1    3    3    0    0  0.14331243013E+02  0.25024798579E+02 -0.50906421670E+03  0.50988037989E+03  0.00000000000E+00 0.  1.
          1    1    3    3  501    0  0.30646618419E+01  0.60269583260E+01 -0.15580789259E+03  0.15595453110E+03  0.00000000000E+00 0.  1.
         -3    1    1    2    0  502 -0.17395904855E+02 -0.31051756904E+02 -0.33370009632E+03  0.33559288341E+03  0.00000000000E+00 0. -1.
<mgrwt>
<rscale>  1 0.30000000E+03</rscale>
<asrwt>0</asrwt>
<pdfrwt beam="1">  1       21 0.51919906E-02 0.30000000E+03</pdfrwt>
<pdfrwt beam="2">0</pdfrwt>
<totfact> 0.27010915E+04</totfact>
</mgrwt>
</event>
<event>
 6    1  0.1280499E-001  0.3000000E+03  0.7818608E-02  0.1093470E+00
         21   -1    0    0  501  502  0.00000000000E+00  0.00000000000E+00  0.26459505795E+01  0.26459505795E+01  0.00000000000E+00 0. -1.
         13   -1    0    0    0    0 -0.00000000000E+00 -0.00000000000E+00 -0.10000000000E+04  0.10000000000E+04  0.00000000000E+00 0.  1.
    9000005    2    1    2  501    0 -0.41395333653E+02  0.18392555876E+02 -0.73476562375E+03  0.73617917768E+03  0.52345061348E+01 0.  0.
         13    1    3    3    0    0 -0.64862744936E+01  0.32007857054E+01 -0.89763117663E+02  0.90054061977E+02  0.00000000000E+00 0.  1.
          3    1    3    3  501    0 -0.34909059160E+02  0.15191770171E+02 -0.64500250608E+03  0.64612511571E+03  0.00000000000E+00 0.  1.
         -1    1    1    2    0  502  0.41395333653E+02 -0.18392555876E+02 -0.26258842567E+03  0.26646677290E+03  0.00000000000E+00 0. -1.
<mgrwt>
<rscale>  1 0.30000000E+03</rscale>
<asrwt>0</asrwt>
<pdfrwt beam="1">  1       21 0.96216588E-02 0.30000000E+03</pdfrwt>
<pdfrwt beam="2">0</pdfrwt>
<totfact> 0.92163059E+03</totfact>
</mgrwt>
</event>
<event>
 6    1  0.1280499E-001  0.3000000E+03  0.7818608E-02  0.1093470E+00
         21   -1    0    0  501  502  0.00000000000E+00  0.00000000000E+00  0.14554668401E+01  0.14554668401E+01  0.00000000000E+00 0. -1.
         13   -1    0    0    0    0 -0.00000000000E+00 -0.00000000000E+00 -0.10000000000E+04  0.10000000000E+04  0.00000000000E+00 0.  1.
    9000005    2    1    2  501    0 -0.37513571402E+01 -0.36140417478E+02 -0.65094612796E+03  0.65196318688E+03  0.22210541864E+01 0.  0.
         13    1    3    3    0    0 -0.36120372924E+01 -0.25339300327E+02 -0.46263334520E+03  0.46334084543E+03  0.00000000000E+00 0.  1.
          1    1    3    3  501    0 -0.13931984787E+00 -0.10801117151E+02 -0.18831278277E+03  0.18862234145E+03  0.00000000000E+00 0.  1.
         -3    1    1    2    0  502  0.37513571402E+01  0.36140417478E+02 -0.34759840520E+03  0.34949227996E+03  0.00000000000E+00 0. -1.
<mgrwt>
<rscale>  1 0.30000000E+03</rscale>
<asrwt>0</asrwt>
<pdfrwt beam="1">  1       21 0.52926179E-02 0.30000000E+03</pdfrwt>
<pdfrwt beam="2">0</pdfrwt>
<totfact> 0.26139100E+04</totfact>
</mgrwt>
</event>
<event>
 6    1  0.1280499E-001  0.3000000E+03  0.7818608E-02  0.1093470E+00
         21   -1    0    0  501  502  0.00000000000E+00  0.00000000000E+00  0.36514841397E+01  0.36514841397E+01  0.00000000000E+00 0. -1.
         13   -1    0    0    0    0 -0.00000000000E+00 -0.00000000000E+00 -0.10000000000E+04  0.10000000000E+04  0.00000000000E+00 0.  1.
    9000005    2    1    2  501    0  0.32515120887E+02 -0.32082336776E+02 -0.82508266652E+03  0.82639883798E+03  0.93339920955E+01 0.  0.
         13    1    3    3    0    0  0.23421589850E+02 -0.17647307121E+02 -0.56057791318E+03  0.56134445313E+03  0.00000000000E+00 0.  1.
          1    1    3    3  501    0  0.90935310368E+01 -0.14435029655E+02 -0.26450475334E+03  0.26505438485E+03  0.00000000000E+00 0.  1.
         -1    1    1    2    0  502 -0.32515120887E+02  0.32082336776E+02 -0.17126584934E+03  0.17725264616E+03  0.00000000000E+00 0. -1.
<mgrwt>
<rscale>  1 0.30000000E+03</rscale>
<asrwt>0</asrwt>
<pdfrwt beam="1">  1       21 0.13278152E-01 0.30000000E+03</pdfrwt>
<pdfrwt beam="2">0</pdfrwt>
<totfact> 0.51532343E+03</totfact>
</mgrwt>
</event>
<event>
 6    1  0.1280499E-001  0.3000000E+03  0.7818608E-02  0.1093470E+00
         21   -1    0    0  501  502  0.00000000000E+00  0.00000000000E+00  0.14306013792E+02  0.14306013792E+02  0.00000000000E+00 0. -1.
         13   -1    0    0    0    0 -0.00000000000E+00 -0.00000000000E+00 -0.10000000000E+04  0.10000000000E+04  0.00000000000E+00 0.  1.
    9000005    2    1    2  501    0 -0.34690575035E+02  0.11442960501E+03 -0.50114676072E+03  0.51522327092E+03  0.30614745185E+01 0.  0.
         13    1    3    3    0    0 -0.11357782213E+02  0.38438918614E+02 -0.16193378087E+03  0.16682055948E+03  0.00000000000E+00 0.  1.
          3    1    3    3  501    0 -0.23332792822E+02  0.75990686392E+02 -0.33921297985E+03  0.34840271144E+03  0.00000000000E+00 0.  1.
         -3    1    1    2    0  502  0.34690575035E+02 -0.11442960501E+03 -0.48454722549E+03  0.49908274287E+03  0.00000000000E+00 0. -1.
<mgrwt>
<rscale>  1 0.30000000E+03</rscale>
<asrwt>0</asrwt>
<pdfrwt beam="1">  1       21 0.52021978E-01 0.30000000E+03</pdfrwt>
<pdfrwt beam="2">0</pdfrwt>
<totfact> 0.34465273E+02</totfact>
</mgrwt>
</event>
<event>
 6    1  0.1280499E-001  0.3000000E+03  0.7818608E-02  0.1093470E+00
         21   -1    0    0  501  502  0.00000000000E+00  0.00000000000E+00  0.24245108894E+01  0.24245108894E+01  0.00000000000E+00 0. -1.
         13   -1    0    0    0    0 -0.00000000000E+00 -0.00000000000E+00 -0.10000000000E+04  0.10000000000E+04  0.00000000000E+00 0.  1.
    9000005    2    1    2  501    0 -0.24896087600E+01 -0.40528111169E+02 -0.21668716505E+03  0.22048122612E+03  0.31492262496E+01 0.  0.
         13    1    3    3    0    0 -0.20328443840E+01 -0.39852854315E+02 -0.21176073711E+03  0.21548780066E+03  0.00000000000E+00 0.  1.
          3    1    3    3  501    0 -0.45676437601E+00 -0.67525685405E+00 -0.49264279412E+01  0.49934254549E+01  0.00000000000E+00 0.  1.
         -3    1    1    2    0  502  0.24896087600E+01  0.40528111169E+02 -0.78088832406E+03  0.78194328477E+03  0.00000000000E+00 0. -1.
<mgrwt>
<rscale>  1 0.30000000E+03</rscale>
<asrwt>0</asrwt>
<pdfrwt beam="1">  1       21 0.88164218E-02 0.30000000E+03</pdfrwt>
<pdfrwt beam="2">0</pdfrwt>
<totfact> 0.10763648E+04</totfact>
</mgrwt>
</event>
<event>
 6    1  0.1280499E-001  0.3000000E+03  0.7818608E-02  0.1093470E+00
         21   -1    0    0  501  502  0.00000000000E+00  0.00000000000E+00  0.12332895496E+01  0.12332895496E+01  0.00000000000E+00 0. -1.
         13   -1    0    0    0    0 -0.00000000000E+00 -0.00000000000E+00 -0.10000000000E+04  0.10000000000E+04  0.00000000000E+00 0.  1.
    9000005    2    1    2  501    0  0.34282837040E+02 -0.63788142263E+01 -0.54980050579E+03  0.55091489651E+03  0.32595764212E+01 0.  0.
         13    1    3    3    0    0  0.15141834089E+02 -0.28145203719E+01 -0.26856509853E+03  0.26900633601E+03  0.00000000000E+00 0.  1.
          3    1    3    3  501    0  0.19141002952E+02 -0.35642938544E+01 -0.28123540726E+03  0.28190856050E+03  0.00000000000E+00 0.  1.
         -3    1    1    2    0  502 -0.34282837040E+02  0.63788142263E+01 -0.44896620466E+03  0.45031839304E+03  0.00000000000E+00 0. -1.
<mgrwt>
<rscale>  1 0.30000000E+03</rscale>
<asrwt>0</asrwt>
<pdfrwt beam="1">  1       21 0.44846987E-02 0.30000000E+03</pdfrwt>
<pdfrwt beam="2">0</pdfrwt>
<totfact> 0.34657899E+04</totfact>
</mgrwt>
</event>
<event>
 6    1  0.1280499E-001  0.3000000E+03  0.7818608E-02  0.1093470E+00
         21   -1    0    0  501  502  0.00000000000E+00  0.00000000000E+00  0.12290222476E+01  0.12290222476E+01  0.00000000000E+00 0. -1.
         13   -1    0    0    0    0 -0.00000000000E+00 -0.00000000000E+00 -0.10000000000E+04  0.10000000000E+04  0.00000000000E+00 0.  1.
    9000005    2    1    2  501    0 -0.92067839695E+01 -0.29786162458E+02 -0.72713943106E+03  0.72781417718E+03  0.31215310884E+01 0.  0.
         13    1    3    3    0    0 -0.39072291108E+01 -0.10839859033E+02 -0.23664840967E+03  0.23692876310E+03  0.00000000000E+00 0.  1.
          1    1    3    3  501    0 -0.52995548587E+01 -0.18946303425E+02 -0.49049102139E+03  0.49088541408E+03  0.00000000000E+00 0.  1.
         -3    1    1    2    0  502  0.92067839695E+01  0.29786162458E+02 -0.27163154669E+03  0.27341484506E+03  0.00000000000E+00 0. -1.
<mgrwt>
<rscale>  1 0.30000000E+03</rscale>
<asrwt>0</asrwt>
<pdfrwt beam="1">  1       21 0.44691812E-02 0.30000000E+03</pdfrwt>
<pdfrwt beam="2">0</pdfrwt>
<totfact> 0.34862261E+04</totfact>
</mgrwt>
</event>
<event>
 6    1  0.1280499E-001  0.3000000E+03  0.7818608E-02  0.1093470E+00
         21   -1    0    0  501  502  0.00000000000E+00  0.00000000000E+00  0.15193949801E+01  0.15193949801E+01  0.00000000000E+00 0. -1.
         13   -1    0    0    0    0 -0.00000000000E+00 -0.00000000000E+00 -0.10000000000E+04  0.10000000000E+04  0.00000000000E+00 0.  1.
    9000005    2    1    2  501    0 -0.35225353858E+02 -0.67688037074E+01 -0.69222207775E+03  0.69316744058E+03  0.48014055122E+01 0.  0.
         13    1    3    3    0    0 -0.35231334657E+02 -0.64139101513E+01 -0.68242283557E+03  0.68336177219E+03  0.00000000000E+00 0.  1.
          3    1    3    3  501    0  0.59807991246E-02 -0.35489355610E+00 -0.97992421846E+01  0.98056683913E+01  0.00000000000E+00 0.  1.
         -1    1    1    2    0  502  0.35225353858E+02  0.67688037074E+01 -0.30625852727E+03  0.30835195440E+03  0.00000000000E+00 0. -1.
<mgrwt>
<rscale>  1 0.30000000E+03</rscale>
<asrwt>0</asrwt>
<pdfrwt beam="1">  1       21 0.55250843E-02 0.30000000E+03</pdfrwt>
<pdfrwt beam="2">0</pdfrwt>
<totfact> 0.24283901E+04</totfact>
</mgrwt>
</event>
<event>
 6    1  0.1280499E-001  0.3000000E+03  0.7818608E-02  0.1093470E+00
         21   -1    0    0  501  502  0.00000000000E+00  0.00000000000E+00  0.11367606599E+01  0.11367606599E+01  0.00000000000E+00 0. -1.
         13   -1    0    0    0    0 -0.00000000000E+00 -0.00000000000E+00 -0.10000000000E+04  0.10000000000E+04  0.00000000000E+00 0.  1.
    9000005    2    1    2  501    0  0.69088719817E+01  0.30233808428E+02 -0.69369847871E+03  0.69440015245E+03  0.34895096127E+01 0.  0.
         13    1    3    3    0    0  0.78922911949E+00  0.68263834287E+01 -0.18281289289E+03  0.18294200229E+03  0.00000000000E+00 0.  1.
          3    1    3    3  501    0  0.61196428622E+01  0.23407424999E+02 -0.51088558582E+03  0.51145815016E+03  0.00000000000E+00 0.  1.
         -3    1    1    2    0  502 -0.69088719817E+01 -0.30233808428E+02 -0.30516476063E+03  0.30673660821E+03  0.00000000000E+00 0. -1.
<mgrwt>
<rscale>  1 0.30000000E+03</rscale>
<asrwt>0</asrwt>
<pdfrwt beam="1">  1       21 0.41336838E-02 0.30000000E+03</pdfrwt>
<pdfrwt beam="2">0</pdfrwt>
<totfact> 0.39780852E+04</totfact>
</mgrwt>
</event>
<event>
 6    1  0.1280499E-001  0.3000000E+03  0.7818608E-02  0.1093470E+00
         21   -1    0    0  501  502  0.00000000000E+00  0.00000000000E+00  0.20196560742E+01  0.20196560742E+01  0.00000000000E+00 0. -1.
         13   -1    0    0    0    0 -0.00000000000E+00 -0.00000000000E+00 -0.10000000000E+04  0.10000000000E+04  0.00000000000E+00 0.  1.
    9000005    2    1    2  501    0  0.71504027166E+01  0.42725504888E+02 -0.63060081072E+03  0.63209490907E+03  0.31614182977E+01 0.  0.
         13    1    3    3    0    0  0.41142630623E+01  0.16679393116E+02 -0.26177276719E+03  0.26233587432E+03  0.00000000000E+00 0.  1.
          3    1    3    3  501    0  0.30361396542E+01  0.26046111772E+02 -0.36882804353E+03  0.36975903474E+03  0.00000000000E+00 0.  1.
         -1    1    1    2    0  502 -0.71504027166E+01 -0.42725504888E+02 -0.36737953321E+03  0.36992474701E+03  0.00000000000E+00 0. -1.
<mgrwt>
<rscale>  1 0.30000000E+03</rscale>
<asrwt>0</asrwt>
<pdfrwt beam="1">  1       21 0.73442194E-02 0.30000000E+03</pdfrwt>
<pdfrwt beam="2">0</pdfrwt>
<totfact> 0.14839514E+04</totfact>
</mgrwt>
</event>
<event>
 6    1  0.1280499E-001  0.3000000E+03  0.7818608E-02  0.1093470E+00
         21   -1    0    0  501  502  0.00000000000E+00  0.00000000000E+00  0.13213898960E+01  0.13213898960E+01  0.00000000000E+00 0. -1.
         13   -1    0    0    0    0 -0.00000000000E+00 -0.00000000000E+00 -0.10000000000E+04  0.10000000000E+04  0.00000000000E+00 0.  1.
    9000005    2    1    2  501    0 -0.26857568139E+02  0.17626305340E+02 -0.73025534753E+03  0.73098259598E+03  0.55378172736E+01 0.  0.
         13    1    3    3    0    0 -0.85810209825E+01  0.46269099024E+01 -0.17095906070E+03  0.17123680285E+03  0.00000000000E+00 0.  1.
          3    1    3    3  501    0 -0.18276547156E+02  0.12999395437E+02 -0.55929628684E+03  0.55974579313E+03  0.00000000000E+00 0.  1.
         -3    1    1    2    0  502  0.26857568139E+02 -0.17626305340E+02 -0.26842326257E+03  0.27033879391E+03  0.00000000000E+00 0. -1.
<mgrwt>
<rscale>  1 0.30000000E+03</rscale>
<asrwt>0</asrwt>
<pdfrwt beam="1">  1       21 0.48050643E-02 0.30000000E+03</pdfrwt>
<pdfrwt beam="2">0</pdfrwt>
<totfact> 0.30823183E+04</totfact>
</mgrwt>
</event>
<event>
 6    1  0.1280499E-001  0.3000000E+03  0.7818608E-02  0.1093470E+00
         21   -1    0    0  501  502  0.00000000000E+00  0.00000000000E+00  0.18024308617E+01  0.18024308617E+01  0.00000000000E+00 0. -1.
         13   -1    0    0    0    0 -0.00000000000E+00 -0.00000000000E+00 -0.10000000000E+04  0.10000000000E+04  0.00000000000E+00 0.  1.
    9000005    2    1    2  501    0 -0.34915414389E+02  0.23989211598E+02 -0.52927041534E+03  0.53096568208E+03  0.16776639163E+01 0.  0.
         13    1    3    3    0    0 -0.20966743058E+02  0.13769709584E+02 -0.32122493264E+03  0.32220283451E+03  0.00000000000E+00 0.  1.
          3    1    3    3  501    0 -0.13948671331E+02  0.10219502014E+02 -0.20804548270E+03  0.20876284757E+03  0.00000000000E+00 0.  1.
         -1    1    1    2    0  502  0.34915414389E+02 -0.23989211598E+02 -0.46892715379E+03  0.47083674878E+03  0.00000000000E+00 0. -1.
<mgrwt>
<rscale>  1 0.30000000E+03</rscale>
<asrwt>0</asrwt>
<pdfrwt beam="1">  1       21 0.65543079E-02 0.30000000E+03</pdfrwt>
<pdfrwt beam="2">0</pdfrwt>
<totfact> 0.18087529E+04</totfact>
</mgrwt>
</event>
<event>
 6    1  0.1280499E-001  0.3000000E+03  0.7818608E-02  0.1093470E+00
         21   -1    0    0  501  502  0.00000000000E+00  0.00000000000E+00  0.38992029897E+01  0.38992029897E+01  0.00000000000E+00 0. -1.
         13   -1    0    0    0    0 -0.00000000000E+00 -0.00000000000E+00 -0.10000000000E+04  0.10000000000E+04  0.00000000000E+00 0.  1.
    9000005    2    1    2  501    0  0.30558348497E+02 -0.23702332441E+02 -0.89206941767E+03  0.89291208160E+03  0.29199839658E+01 0.  0.
         13    1    3    3    0    0  0.39876514167E+01 -0.20057786066E+01 -0.94836479015E+02  0.94941467566E+02  0.00000000000E+00 0.  1.
          1    1    3    3  501    0  0.26570697081E+02 -0.21696553835E+02 -0.79723293865E+03  0.79797061404E+03  0.00000000000E+00 0.  1.
         -1    1    1    2    0  502 -0.30558348497E+02  0.23702332441E+02 -0.10403137934E+03  0.11098712139E+03  0.00000000000E+00 0. -1.
<mgrwt>
<rscale>  1 0.30000000E+03</rscale>
<asrwt>0</asrwt>
<pdfrwt beam="1">  1       21 0.14178950E-01 0.30000000E+03</pdfrwt>
<pdfrwt beam="2">0</pdfrwt>
<totfact> 0.45687395E+03</totfact>
</mgrwt>
</event>
<event>
 6    1  0.1280499E-001  0.3000000E+03  0.7818608E-02  0.1093470E+00
         21   -1    0    0  501  502  0.00000000000E+00  0.00000000000E+00  0.29528064605E+01  0.29528064605E+01  0.00000000000E+00 0. -1.
         13   -1    0    0    0    0 -0.00000000000E+00 -0.00000000000E+00 -0.10000000000E+04  0.10000000000E+04  0.00000000000E+00 0.  1.
    9000005    2    1    2  501    0  0.76877050808E+01 -0.52511399509E+02 -0.60408936384E+03  0.60642739264E+03  0.36979920316E+01 0.  0.
         13    1    3    3    0    0  0.52697488060E+01 -0.24123980117E+02 -0.28808815315E+03  0.28914446330E+03  0.00000000000E+00 0.  1.
          3    1    3    3  501    0  0.24179562748E+01 -0.28387419392E+02 -0.31600121069E+03  0.31728292934E+03  0.00000000000E+00 0.  1.
         -1    1    1    2    0  502 -0.76877050808E+01  0.52511399509E+02 -0.39295782970E+03  0.39652541383E+03  0.00000000000E+00 0. -1.
<mgrwt>
<rscale>  1 0.30000000E+03</rscale>
<asrwt>0</asrwt>
<pdfrwt beam="1">  1       21 0.10737501E-01 0.30000000E+03</pdfrwt>
<pdfrwt beam="2">0</pdfrwt>
<totfact> 0.75737712E+03</totfact>
</mgrwt>
</event>
<event>
 6    1  0.1280499E-001  0.3000000E+03  0.7818608E-02  0.1093470E+00
         21   -1    0    0  501  502  0.00000000000E+00  0.00000000000E+00  0.46380718101E+01  0.46380718101E+01  0.00000000000E+00 0. -1.
         13   -1    0    0    0    0 -0.00000000000E+00 -0.00000000000E+00 -0.10000000000E+04  0.10000000000E+04  0.00000000000E+00 0.  1.
    9000005    2    1    2  501    0  0.38248947987E+02 -0.19713307239E+01 -0.91297268667E+03  0.91378183765E+03  0.33544078496E+01 0.  0.
         13    1    3    3    0    0  0.20705270073E+02 -0.13621339965E+01 -0.53339403960E+03  0.53379749447E+03  0.00000000000E+00 0.  1.
          1    1    3    3  501    0  0.17543677915E+02 -0.60919672739E+00 -0.37957864707E+03  0.37998434319E+03  0.00000000000E+00 0.  1.
         -1    1    1    2    0  502 -0.38248947987E+02  0.19713307239E+01 -0.82389241519E+02  0.90856234156E+02  0.00000000000E+00 0. -1.
<mgrwt>
<rscale>  1 0.30000000E+03</rscale>
<asrwt>0</asrwt>
<pdfrwt beam="1">  1       21 0.16865751E-01 0.30000000E+03</pdfrwt>
<pdfrwt beam="2">0</pdfrwt>
<totfact> 0.33102968E+03</totfact>
</mgrwt>
</event>
<event>
 6    1  0.1280499E-001  0.3000000E+03  0.7818608E-02  0.1093470E+00
         21   -1    0    0  501  502  0.00000000000E+00  0.00000000000E+00  0.33064432117E+01  0.33064432117E+01  0.00000000000E+00 0. -1.
         13   -1    0    0    0    0 -0.00000000000E+00 -0.00000000000E+00 -0.10000000000E+04  0.10000000000E+04  0.00000000000E+00 0.  1.
    9000005    2    1    2  501    0  0.19615949970E+01 -0.46305580198E+02 -0.79512589546E+03  0.79647903520E+03  0.23683889130E+01 0.  0.
         13    1    3    3    0    0  0.21090275754E+01 -0.45587544005E+02 -0.77783840234E+03  0.77917600856E+03  0.00000000000E+00 0.  1.
          1    1    3    3  501    0 -0.14743257840E+00 -0.71803619333E+00 -0.17287493122E+02  0.17303026637E+02  0.00000000000E+00 0.  1.
         -1    1    1    2    0  502 -0.19615949970E+01  0.46305580198E+02 -0.20156766133E+03  0.20682740802E+03  0.00000000000E+00 0. -1.
<mgrwt>
<rscale>  1 0.30000000E+03</rscale>
<asrwt>0</asrwt>
<pdfrwt beam="1">  1       21 0.12023455E-01 0.30000000E+03</pdfrwt>
<pdfrwt beam="2">0</pdfrwt>
<totfact> 0.61751938E+03</totfact>
</mgrwt>
</event>
<event>
 6    1  0.1280499E-001  0.3000000E+03  0.7818608E-02  0.1093470E+00
         21   -1    0    0  501  502  0.00000000000E+00  0.00000000000E+00  0.51016879617E+01  0.51016879617E+01  0.00000000000E+00 0. -1.
         13   -1    0    0    0    0 -0.00000000000E+00 -0.00000000000E+00 -0.10000000000E+04  0.10000000000E+04  0.00000000000E+00 0.  1.
    9000005    2    1    2  501    0  0.58830145525E+02  0.70405987804E+01 -0.77789664064E+03  0.78015662479E+03  0.32587786678E+01 0.  0.
         13    1    3    3    0    0  0.13743386590E+02  0.38221740773E+00 -0.17297596925E+03  0.17352150502E+03  0.00000000000E+00 0.  1.
          1    1    3    3  501    0  0.45086758934E+02  0.66583813726E+01 -0.60492067139E+03  0.60663511977E+03  0.00000000000E+00 0.  1.
         -3    1    1    2    0  502 -0.58830145525E+02 -0.70405987804E+01 -0.21700167140E+03  0.22494506317E+03  0.00000000000E+00 0. -1.
<mgrwt>
<rscale>  1 0.30000000E+03</rscale>
<asrwt>0</asrwt>
<pdfrwt beam="1">  1       21 0.18551632E-01 0.30000000E+03</pdfrwt>
<pdfrwt beam="2">0</pdfrwt>
<totfact> 0.27673819E+03</totfact>
</mgrwt>
</event>
<event>
 6    1  0.1280499E-001  0.3000000E+03  0.7818608E-02  0.1093470E+00
         21   -1    0    0  501  502  0.00000000000E+00  0.00000000000E+00  0.21470195003E+01  0.21470195003E+01  0.00000000000E+00 0. -1.
         13   -1    0    0    0    0 -0.00000000000E+00 -0.00000000000E+00 -0.10000000000E+04  0.10000000000E+04  0.00000000000E+00 0.  1.
    9000005    2    1    2  501    0  0.94196294631E+01  0.29333644800E+02 -0.87294813631E+03  0.87349861400E+03  0.34911074330E+01 0.  0.
         13    1    3    3    0    0  0.65542271182E+01  0.24724915812E+02 -0.72178002277E+03  0.72223312069E+03  0.00000000000E+00 0.  1.
          1    1    3    3  501    0  0.28654023450E+01  0.46087289879E+01 -0.15116811354E+03  0.15126549331E+03  0.00000000000E+00 0.  1.
         -1    1    1    2    0  502 -0.94196294631E+01 -0.29333644800E+02 -0.12490484419E+03  0.12864840550E+03  0.00000000000E+00 0. -1.
<mgrwt>
<rscale>  1 0.30000000E+03</rscale>
<asrwt>0</asrwt>
<pdfrwt beam="1">  1       21 0.78073601E-02 0.30000000E+03</pdfrwt>
<pdfrwt beam="2">0</pdfrwt>
<totfact> 0.13332252E+04</totfact>
</mgrwt>
</event>
<event>
 6    1  0.1280499E-001  0.3000000E+03  0.7818608E-02  0.1093470E+00
         21   -1    0    0  501  502  0.00000000000E+00  0.00000000000E+00  0.28895978608E+01  0.28895978608E+01  0.00000000000E+00 0. -1.
         13   -1    0    0    0    0 -0.00000000000E+00 -0.00000000000E+00 -0.10000000000E+04  0.10000000000E+04  0.00000000000E+00 0.  1.
    9000005    2    1    2  501    0  0.39619684842E+02  0.10251496540E+02 -0.82350456568E+03  0.82452536641E+03  0.27381654174E+01 0.  0.
         13    1    3    3    0    0  0.21070422187E+01 -0.63936252848E-01 -0.44531452642E+02  0.44581318836E+02  0.00000000000E+00 0.  1.
          1    1    3    3  501    0  0.37512642623E+02  0.10315432793E+02 -0.77897311304E+03  0.77994404757E+03  0.00000000000E+00 0.  1.
         -1    1    1    2    0  502 -0.39619684842E+02 -0.10251496540E+02 -0.17360583646E+03  0.17836423145E+03  0.00000000000E+00 0. -1.
<mgrwt>
<rscale>  1 0.30000000E+03</rscale>
<asrwt>0</asrwt>
<pdfrwt beam="1">  1       21 0.10507651E-01 0.30000000E+03</pdfrwt>
<pdfrwt beam="2">0</pdfrwt>
<totfact> 0.78735816E+03</totfact>
</mgrwt>
</event>
<event>
 6    1  0.1280499E-001  0.3000000E+03  0.7818608E-02  0.1093470E+00
         21   -1    0    0  501  502  0.00000000000E+00  0.00000000000E+00  0.11266812583E+01  0.11266812583E+01  0.00000000000E+00 0. -1.
         13   -1    0    0    0    0 -0.00000000000E+00 -0.00000000000E+00 -0.10000000000E+04  0.10000000000E+04  0.00000000000E+00 0.  1.
    9000005    2    1    2  501    0  0.17726028966E+02 -0.24628309578E+02 -0.70648975613E+03  0.70717275047E+03  0.66901245674E+01 0.  0.
         13    1    3    3    0    0  0.15813965569E+01 -0.45587617289E+01 -0.16528176006E+03  0.16535217970E+03  0.00000000000E+00 0.  1.
          3    1    3    3  501    0  0.16144632409E+02 -0.20069547849E+02 -0.54120799607E+03  0.54182057078E+03  0.00000000000E+00 0.  1.
         -3    1    1    2    0  502 -0.17726028966E+02  0.24628309578E+02 -0.29238356261E+03  0.29395393078E+03  0.00000000000E+00 0. -1.
<mgrwt>
<rscale>  1 0.30000000E+03</rscale>
<asrwt>0</asrwt>
<pdfrwt beam="1">  1       21 0.40970314E-02 0.30000000E+03</pdfrwt>
<pdfrwt beam="2">0</pdfrwt>
<totfact> 0.40382927E+04</totfact>
</mgrwt>
</event>
<event>
 6    1  0.1280499E-001  0.3000000E+03  0.7818608E-02  0.1093470E+00
         21   -1    0    0  501  502  0.00000000000E+00  0.00000000000E+00  0.13805078816E+01  0.13805078816E+01  0.00000000000E+00 0. -1.
         13   -1    0    0    0    0 -0.00000000000E+00 -0.00000000000E+00 -0.10000000000E+04  0.10000000000E+04  0.00000000000E+00 0.  1.
    9000005    2    1    2  501    0 -0.20957088782E+02 -0.26144224437E+02 -0.71457504708E+03  0.71536658025E+03  0.30209582444E+01 0.  0.
         13    1    3    3    0    0 -0.43301633363E+01 -0.39360523656E+01 -0.13971692796E+03  0.13983941784E+03  0.00000000000E+00 0.  1.
          1    1    3    3  501    0 -0.16626925446E+02 -0.22208172072E+02 -0.57485811912E+03  0.57552716241E+03  0.00000000000E+00 0.  1.
         -3    1    1    2    0  502  0.20957088782E+02  0.26144224437E+02 -0.28404444504E+03  0.28601392763E+03  0.00000000000E+00 0. -1.
<mgrwt>
<rscale>  1 0.30000000E+03</rscale>
<asrwt>0</asrwt>
<pdfrwt beam="1">  1       21 0.50200392E-02 0.30000000E+03</pdfrwt>
<pdfrwt beam="2">0</pdfrwt>
<totfact> 0.28608896E+04</totfact>
</mgrwt>
</event>
<event>
 6    1  0.1280499E-001  0.3000000E+03  0.7818608E-02  0.1093470E+00
         21   -1    0    0  501  502  0.00000000000E+00  0.00000000000E+00  0.16561868885E+02  0.16561868885E+02  0.00000000000E+00 0. -1.
         13   -1    0    0    0    0 -0.00000000000E+00 -0.00000000000E+00 -0.10000000000E+04  0.10000000000E+04  0.00000000000E+00 0.  1.
    9000005    2    1    2  501    0 -0.54294786236E+02  0.16554796074E+02 -0.94787558482E+03  0.94957918617E+03  0.32436723761E+01 0.  0.
         13    1    3    3    0    0 -0.34135705903E+02  0.88609832306E+01 -0.59698269228E+03  0.59802349312E+03  0.00000000000E+00 0.  1.
          3    1    3    3  501    0 -0.20159080333E+02  0.76938128436E+01 -0.35089289254E+03  0.35155569305E+03  0.00000000000E+00 0.  1.
         -1    1    1    2    0  502  0.54294786236E+02 -0.16554796074E+02 -0.35562546293E+02  0.66982682720E+02  0.00000000000E+00 0. -1.
<mgrwt>
<rscale>  1 0.30000000E+03</rscale>
<asrwt>0</asrwt>
<pdfrwt beam="1">  1       21 0.60225105E-01 0.30000000E+03</pdfrwt>
<pdfrwt beam="2">0</pdfrwt>
<totfact> 0.24900562E+02</totfact>
</mgrwt>
</event>
<event>
 6    1  0.1280499E-001  0.3000000E+03  0.7818608E-02  0.1093470E+00
         21   -1    0    0  501  502  0.00000000000E+00  0.00000000000E+00  0.23484043448E+01  0.23484043448E+01  0.00000000000E+00 0. -1.
         13   -1    0    0    0    0 -0.00000000000E+00 -0.00000000000E+00 -0.10000000000E+04  0.10000000000E+04  0.00000000000E+00 0.  1.
    9000005    2    1    2  501    0 -0.35602456118E+02 -0.32589237957E+02 -0.46067386735E+03  0.46320586845E+03  0.31098549355E+01 0.  0.
         13    1    3    3    0    0 -0.35103175342E+02 -0.32355348504E+02 -0.45189895930E+03  0.45441365617E+03  0.00000000000E+00 0.  1.
          1    1    3    3  501    0 -0.49928077570E+00 -0.23388945322E+00 -0.87749080476E+01  0.87922122821E+01  0.00000000000E+00 0.  1.
         -1    1    1    2    0  502  0.35602456118E+02  0.32589237957E+02 -0.53697772831E+03  0.53914253589E+03  0.00000000000E+00 0. -1.
<mgrwt>
<rscale>  1 0.30000000E+03</rscale>
<asrwt>0</asrwt>
<pdfrwt beam="1">  1       21 0.85396702E-02 0.30000000E+03</pdfrwt>
<pdfrwt beam="2">0</pdfrwt>
<totfact> 0.11387363E+04</totfact>
</mgrwt>
</event>
<event>
 6    1  0.1280499E-001  0.3000000E+03  0.7818608E-02  0.1093470E+00
         21   -1    0    0  501  502  0.00000000000E+00  0.00000000000E+00  0.41316968881E+01  0.41316968881E+01  0.00000000000E+00 0. -1.
         13   -1    0    0    0    0 -0.00000000000E+00 -0.00000000000E+00 -0.10000000000E+04  0.10000000000E+04  0.00000000000E+00 0.  1.
    9000005    2    1    2  501    0 -0.30980328378E+02 -0.24215946210E+02 -0.89498401896E+03  0.89585505312E+03  0.36998927563E+01 0.  0.
         13    1    3    3    0    0 -0.26055001815E+02 -0.18864229593E+02 -0.74750268574E+03  0.74819448506E+03  0.00000000000E+00 0.  1.
          3    1    3    3  501    0 -0.49253265632E+01 -0.53517166170E+01 -0.14748133321E+03  0.14766056806E+03  0.00000000000E+00 0.  1.
         -3    1    1    2    0  502  0.30980328378E+02  0.24215946210E+02 -0.10088428415E+03  0.10827664377E+03  0.00000000000E+00 0. -1.
<mgrwt>
<rscale>  1 0.30000000E+03</rscale>
<asrwt>0</asrwt>
<pdfrwt beam="1">  1       21 0.15024384E-01 0.30000000E+03</pdfrwt>
<pdfrwt beam="2">0</pdfrwt>
<totfact> 0.41056731E+03</totfact>
</mgrwt>
</event>
<event>
 6    1  0.1280499E-001  0.3000000E+03  0.7818608E-02  0.1093470E+00
         21   -1    0    0  501  502  0.00000000000E+00  0.00000000000E+00  0.86809287886E+01  0.86809287886E+01  0.00000000000E+00 0. -1.
         13   -1    0    0    0    0 -0.00000000000E+00 -0.00000000000E+00 -0.10000000000E+04  0.10000000000E+04  0.00000000000E+00 0.  1.
    9000005    2    1    2  501    0 -0.67460916058E+02 -0.52460450405E+01 -0.84227546114E+03  0.84499680039E+03  0.36254738800E+01 0.  0.
         13    1    3    3    0    0 -0.14316271536E+02 -0.61112168715E+00 -0.19634844069E+03  0.19687061554E+03  0.00000000000E+00 0.  1.
          1    1    3    3  501    0 -0.53144644521E+02 -0.46349233533E+01 -0.64592702045E+03  0.64812618486E+03  0.00000000000E+00 0.  1.
         -1    1    1    2    0  502  0.67460916058E+02  0.52460450405E+01 -0.14904361008E+03  0.16368412839E+03  0.00000000000E+00 0. -1.
<mgrwt>
<rscale>  1 0.30000000E+03</rscale>
<asrwt>0</asrwt>
<pdfrwt beam="1">  1       21 0.31567080E-01 0.30000000E+03</pdfrwt>
<pdfrwt beam="2">0</pdfrwt>
<totfact> 0.98159404E+02</totfact>
</mgrwt>
</event>
<event>
 6    1  0.1280499E-001  0.3000000E+03  0.7818608E-02  0.1093470E+00
         21   -1    0    0  501  502  0.00000000000E+00  0.00000000000E+00  0.11888420448E+01  0.11888420448E+01  0.00000000000E+00 0. -1.
         13   -1    0    0    0    0 -0.00000000000E+00 -0.00000000000E+00 -0.10000000000E+04  0.10000000000E+04  0.00000000000E+00 0.  1.
    9000005    2    1    2  501    0  0.27563471100E+02  0.18841705516E+02 -0.38685943486E+03  0.38832697652E+03  0.47815848055E+01 0.  0.
         13    1    3    3    0    0  0.15316428508E+02  0.81649809362E+01 -0.21640766356E+03  0.21710259497E+03  0.00000000000E+00 0.  1.
          1    1    3    3  501    0  0.12247042592E+02  0.10676724580E+02 -0.17045177130E+03  0.17122438155E+03  0.00000000000E+00 0.  1.
         -3    1    1    2    0  502 -0.27563471100E+02 -0.18841705516E+02 -0.61195172310E+03  0.61286186552E+03  0.00000000000E+00 0. -1.
<mgrwt>
<rscale>  1 0.30000000E+03</rscale>
<asrwt>0</asrwt>
<pdfrwt beam="1">  1       21 0.43230711E-02 0.30000000E+03</pdfrwt>
<pdfrwt beam="2">0</pdfrwt>
<totfact> 0.36881401E+04</totfact>
</mgrwt>
</event>
<event>
 6    1  0.1280499E-001  0.3000000E+03  0.7818608E-02  0.1093470E+00
         21   -1    0    0  501  502  0.00000000000E+00  0.00000000000E+00  0.28820669082E+01  0.28820669082E+01  0.00000000000E+00 0. -1.
         13   -1    0    0    0    0 -0.00000000000E+00 -0.00000000000E+00 -0.10000000000E+04  0.10000000000E+04  0.00000000000E+00 0.  1.
    9000005    2    1    2  501    0  0.19572477734E+02  0.31500904800E+02 -0.86092507399E+03  0.86173007876E+03  0.33699743576E+01 0.  0.
         13    1    3    3    0    0  0.53253058834E+01  0.62347924686E+01 -0.20528919499E+03  0.20545287805E+03  0.00000000000E+00 0.  1.
          3    1    3    3  501    0  0.14247171850E+02  0.25266112332E+02 -0.65563587900E+03  0.65627720071E+03  0.00000000000E+00 0.  1.
         -1    1    1    2    0  502 -0.19572477734E+02 -0.31500904800E+02 -0.13619285910E+03  0.14115198815E+03  0.00000000000E+00 0. -1.
<mgrwt>
<rscale>  1 0.30000000E+03</rscale>
<asrwt>0</asrwt>
<pdfrwt beam="1">  1       21 0.10480265E-01 0.30000000E+03</pdfrwt>
<pdfrwt beam="2">0</pdfrwt>
<totfact> 0.79104983E+03</totfact>
</mgrwt>
</event>
<event>
 6    1  0.1280499E-001  0.3000000E+03  0.7818608E-02  0.1093470E+00
         21   -1    0    0  501  502  0.00000000000E+00  0.00000000000E+00  0.18483346526E+01  0.18483346526E+01  0.00000000000E+00 0. -1.
         13   -1    0    0    0    0 -0.00000000000E+00 -0.00000000000E+00 -0.10000000000E+04  0.10000000000E+04  0.00000000000E+00 0.  1.
    9000005    2    1    2  501    0 -0.30888549841E+02  0.56245877542E+01 -0.84085794239E+03  0.84145178300E+03  0.36449064976E+01 0.  0.
         13    1    3    3    0    0 -0.25690869952E+02  0.49046661287E+01 -0.66083399301E+03  0.66135137625E+03  0.00000000000E+00 0.  1.
          1    1    3    3  501    0 -0.51976798883E+01  0.71992162551E+00 -0.18002394937E+03  0.18010040675E+03  0.00000000000E+00 0.  1.
         -3    1    1    2    0  502  0.30888549841E+02 -0.56245877542E+01 -0.15729372296E+03  0.16039655165E+03  0.00000000000E+00 0. -1.
<mgrwt>
<rscale>  1 0.30000000E+03</rscale>
<asrwt>0</asrwt>
<pdfrwt beam="1">  1       21 0.67212311E-02 0.30000000E+03</pdfrwt>
<pdfrwt beam="2">0</pdfrwt>
<totfact> 0.17315875E+04</totfact>
</mgrwt>
</event>
<event>
 6    1  0.1280499E-001  0.3000000E+03  0.7818608E-02  0.1093470E+00
         21   -1    0    0  501  502  0.00000000000E+00  0.00000000000E+00  0.22430518786E+01  0.22430518786E+01  0.00000000000E+00 0. -1.
         13   -1    0    0    0    0 -0.00000000000E+00 -0.00000000000E+00 -0.10000000000E+04  0.10000000000E+04  0.00000000000E+00 0.  1.
    9000005    2    1    2  501    0 -0.34266796787E+02 -0.14173114482E+02 -0.81022742014E+03  0.81108234880E+03  0.33186825611E+01 0.  0.
         13    1    3    3    0    0 -0.31132096787E+02 -0.11890305956E+02 -0.73477758243E+03  0.73553292412E+03  0.00000000000E+00 0.  1.
          3    1    3    3  501    0 -0.31346999998E+01 -0.22828085267E+01 -0.75449837711E+02  0.75549424680E+02  0.00000000000E+00 0.  1.
         -1    1    1    2    0  502  0.34266796787E+02  0.14173114482E+02 -0.18752952798E+03  0.19116070308E+03  0.00000000000E+00 0. -1.
<mgrwt>
<rscale>  1 0.30000000E+03</rscale>
<asrwt>0</asrwt>
<pdfrwt beam="1">  1       21 0.81565695E-02 0.30000000E+03</pdfrwt>
<pdfrwt beam="2">0</pdfrwt>
<totfact> 0.12346077E+04</totfact>
</mgrwt>
</event>
<event>
 6    1  0.1280499E-001  0.3000000E+03  0.7818608E-02  0.1093470E+00
         21   -1    0    0  501  502  0.00000000000E+00  0.00000000000E+00  0.14093828362E+01  0.14093828362E+01  0.00000000000E+00 0. -1.
         13   -1    0    0    0    0 -0.00000000000E+00 -0.00000000000E+00 -0.10000000000E+04  0.10000000000E+04  0.00000000000E+00 0.  1.
    9000005    2    1    2  501    0 -0.49047497251E+01 -0.36787116720E+02 -0.56863514761E+03  0.56985515180E+03  0.34079918790E+01 0.  0.
         13    1    3    3    0    0 -0.29810966006E+01 -0.10933527414E+02 -0.17942223133E+03  0.17977977098E+03  0.00000000000E+00 0.  1.
          1    1    3    3  501    0 -0.19236531245E+01 -0.25853589305E+02 -0.38921291628E+03  0.39007538082E+03  0.00000000000E+00 0.  1.
         -1    1    1    2    0  502  0.49047497251E+01  0.36787116720E+02 -0.42995546955E+03  0.43155423103E+03  0.00000000000E+00 0. -1.
<mgrwt>
<rscale>  1 0.30000000E+03</rscale>
<asrwt>0</asrwt>
<pdfrwt beam="1">  1       21 0.51250393E-02 0.30000000E+03</pdfrwt>
<pdfrwt beam="2">0</pdfrwt>
<totfact> 0.27616218E+04</totfact>
</mgrwt>
</event>
<event>
 6    1  0.1280499E-001  0.3000000E+03  0.7818608E-02  0.1093470E+00
         21   -1    0    0  501  502  0.00000000000E+00  0.00000000000E+00  0.38151242314E+01  0.38151242314E+01  0.00000000000E+00 0. -1.
         13   -1    0    0    0    0 -0.00000000000E+00 -0.00000000000E+00 -0.10000000000E+04  0.10000000000E+04  0.00000000000E+00 0.  1.
    9000005    2    1    2  501    0 -0.47974577540E+02  0.35358077791E+02 -0.62900152921E+03  0.63182673228E+03  0.32159169894E+01 0.  0.
         13    1    3    3    0    0 -0.24537379284E+02  0.18783796011E+02 -0.31012575633E+03  0.31166151304E+03  0.00000000000E+00 0.  1.
          1    1    3    3  501    0 -0.23437198257E+02  0.16574281780E+02 -0.31887577288E+03  0.32016521924E+03  0.00000000000E+00 0.  1.
         -1    1    1    2    0  502  0.47974577540E+02 -0.35358077791E+02 -0.36718334656E+03  0.37198839195E+03  0.00000000000E+00 0. -1.
<mgrwt>
<rscale>  1 0.30000000E+03</rscale>
<asrwt>0</asrwt>
<pdfrwt beam="1">  1       21 0.13873208E-01 0.30000000E+03</pdfrwt>
<pdfrwt beam="2">0</pdfrwt>
<totfact> 0.47554746E+03</totfact>
</mgrwt>
</event>
<event>
 6    1  0.1280499E-001  0.3000000E+03  0.7818608E-02  0.1093470E+00
         21   -1    0    0  501  502  0.00000000000E+00  0.00000000000E+00  0.14065604498E+01  0.14065604498E+01  0.00000000000E+00 0. -1.
         13   -1    0    0    0    0 -0.00000000000E+00 -0.00000000000E+00 -0.10000000000E+04  0.10000000000E+04  0.00000000000E+00 0.  1.
    9000005    2    1    2  501    0  0.18401227166E+02 -0.24137543822E+02 -0.79318976939E+03  0.79377252206E+03  0.18921757339E+01 0.  0.
         13    1    3    3    0    0  0.12033061644E+02 -0.16706985120E+02 -0.51944493309E+03  0.51985282189E+03  0.00000000000E+00 0.  1.
          3    1    3    3  501    0  0.63681655227E+01 -0.74305587013E+01 -0.27374483630E+03  0.27391970016E+03  0.00000000000E+00 0.  1.
         -1    1    1    2    0  502 -0.18401227166E+02  0.24137543822E+02 -0.20540367016E+03  0.20763403839E+03  0.00000000000E+00 0. -1.
<mgrwt>
<rscale>  1 0.30000000E+03</rscale>
<asrwt>0</asrwt>
<pdfrwt beam="1">  1       21 0.51147761E-02 0.30000000E+03</pdfrwt>
<pdfrwt beam="2">0</pdfrwt>
<totfact> 0.27710868E+04</totfact>
</mgrwt>
</event>
<event>
 6    1  0.1280499E-001  0.3000000E+03  0.7818608E-02  0.1093470E+00
         21   -1    0    0  501  502  0.00000000000E+00  0.00000000000E+00  0.40174553887E+01  0.40174553887E+01  0.00000000000E+00 0. -1.
         13   -1    0    0    0    0 -0.00000000000E+00 -0.00000000000E+00 -0.10000000000E+04  0.10000000000E+04  0.00000000000E+00 0.  1.
    9000005    2    1    2  501    0  0.16518606889E+02  0.44653846902E+02 -0.16829924223E+03  0.17496590123E+03  0.46477134572E+01 0.  0.
         13    1    3    3    0    0  0.89464976011E+01  0.28401105048E+02 -0.98673919920E+02  0.10306893353E+03  0.00000000000E+00 0.  1.
          3    1    3    3  501    0  0.75721092882E+01  0.16252741853E+02 -0.69625322310E+02  0.71896967694E+02  0.00000000000E+00 0.  1.
         -1    1    1    2    0  502 -0.16518606889E+02 -0.44653846902E+02 -0.82768330238E+03  0.82905155416E+03  0.00000000000E+00 0. -1.
<mgrwt>
<rscale>  1 0.30000000E+03</rscale>
<asrwt>0</asrwt>
<pdfrwt beam="1">  1       21 0.14608959E-01 0.30000000E+03</pdfrwt>
<pdfrwt beam="2">0</pdfrwt>
<totfact> 0.43240523E+03</totfact>
</mgrwt>
</event>
<event>
 6    1  0.1280499E-001  0.3000000E+03  0.7818608E-02  0.1093470E+00
         21   -1    0    0  501  502  0.00000000000E+00  0.00000000000E+00  0.20289076717E+01  0.20289076717E+01  0.00000000000E+00 0. -1.
         13   -1    0    0    0    0 -0.00000000000E+00 -0.00000000000E+00 -0.10000000000E+04  0.10000000000E+04  0.00000000000E+00 0.  1.
    9000005    2    1    2  501    0 -0.23921756293E+02  0.26213382701E+02 -0.80662651655E+03  0.80742125485E+03  0.48325693042E+01 0.  0.
         13    1    3    3    0    0 -0.16632863885E+02  0.17498223313E+02 -0.49631545010E+03  0.49690227006E+03  0.00000000000E+00 0.  1.
          3    1    3    3  501    0 -0.72888924073E+01  0.87151593876E+01 -0.31031106645E+03  0.31051898479E+03  0.00000000000E+00 0.  1.
         -3    1    1    2    0  502  0.23921756293E+02 -0.26213382701E+02 -0.19134457578E+03  0.19460765282E+03  0.00000000000E+00 0. -1.
<mgrwt>
<rscale>  1 0.30000000E+03</rscale>
<asrwt>0</asrwt>
<pdfrwt beam="1">  1       21 0.73778616E-02 0.30000000E+03</pdfrwt>
<pdfrwt beam="2">0</pdfrwt>
<totfact> 0.14721423E+04</totfact>
</mgrwt>
</event>
<event>
 6    1  0.1280499E-001  0.3000000E+03  0.7818608E-02  0.1093470E+00
         21   -1    0    0  501  502  0.00000000000E+00  0.00000000000E+00  0.19792098235E+01  0.19792098235E+01  0.00000000000E+00 0. -1.
         13   -1    0    0    0    0 -0.00000000000E+00 -0.00000000000E+00 -0.10000000000E+04  0.10000000000E+04  0.00000000000E+00 0.  1.
    9000005    2    1    2  501    0 -0.30907436017E+02  0.20351671961E+02 -0.77636963943E+03  0.77726006783E+03  0.37330759060E+01 0.  0.
         13    1    3    3    0    0 -0.28931538417E+02  0.19283608245E+02 -0.70752017176E+03  0.70837397250E+03  0.00000000000E+00 0.  1.
          3    1    3    3  501    0 -0.19758975999E+01  0.10680637154E+01 -0.68849467668E+02  0.68886095328E+02  0.00000000000E+00 0.  1.
         -3    1    1    2    0  502  0.30907436017E+02 -0.20351671961E+02 -0.22165115074E+03  0.22471914200E+03  0.00000000000E+00 0. -1.
<mgrwt>
<rscale>  1 0.30000000E+03</rscale>
<asrwt>0</asrwt>
<pdfrwt beam="1">  1       21 0.71971418E-02 0.30000000E+03</pdfrwt>
<pdfrwt beam="2">0</pdfrwt>
<totfact> 0.15373058E+04</totfact>
</mgrwt>
</event>
<event>
 6    1  0.1280499E-001  0.3000000E+03  0.7818608E-02  0.1093470E+00
         21   -1    0    0  501  502  0.00000000000E+00  0.00000000000E+00  0.47272472166E+01  0.47272472166E+01  0.00000000000E+00 0. -1.
         13   -1    0    0    0    0 -0.00000000000E+00 -0.00000000000E+00 -0.10000000000E+04  0.10000000000E+04  0.00000000000E+00 0.  1.
    9000005    2    1    2  501    0 -0.14587255056E+02 -0.34597233792E+02 -0.91839976089E+03  0.91917484527E+03  0.38103514844E+01 0.  0.
         13    1    3    3    0    0 -0.63012310763E+01 -0.15809006560E+02 -0.37116281320E+03  0.37155277432E+03  0.00000000000E+00 0.  1.
          1    1    3    3  501    0 -0.82860239797E+01 -0.18788227232E+02 -0.54723694769E+03  0.54762207095E+03  0.00000000000E+00 0.  1.
         -3    1    1    2    0  502  0.14587255056E+02  0.34597233792E+02 -0.76872991890E+02  0.85552401943E+02  0.00000000000E+00 0. -1.
<mgrwt>
<rscale>  1 0.30000000E+03</rscale>
<asrwt>0</asrwt>
<pdfrwt beam="1">  1       21 0.17190026E-01 0.30000000E+03</pdfrwt>
<pdfrwt beam="2">0</pdfrwt>
<totfact> 0.31942859E+03</totfact>
</mgrwt>
</event>
<event>
 6    1  0.1280499E-001  0.3000000E+03  0.7818608E-02  0.1093470E+00
         21   -1    0    0  501  502  0.00000000000E+00  0.00000000000E+00  0.12690113540E+02  0.12690113540E+02  0.00000000000E+00 0. -1.
         13   -1    0    0    0    0 -0.00000000000E+00 -0.00000000000E+00 -0.10000000000E+04  0.10000000000E+04  0.00000000000E+00 0.  1.
    9000005    2    1    2  501    0  0.10057564880E+02  0.10077917948E+03 -0.71521654552E+03  0.72235860679E+03  0.31067977106E+01 0.  0.
         13    1    3    3    0    0  0.86132003202E+01  0.89346544565E+02 -0.64030776705E+03  0.64656865745E+03  0.00000000000E+00 0.  1.
          3    1    3    3  501    0  0.14443645603E+01  0.11432634914E+02 -0.74908778466E+02  0.75789949342E+02  0.00000000000E+00 0.  1.
         -1    1    1    2    0  502 -0.10057564880E+02 -0.10077917948E+03 -0.27209334094E+03  0.29033150675E+03  0.00000000000E+00 0. -1.
<mgrwt>
<rscale>  1 0.30000000E+03</rscale>
<asrwt>0</asrwt>
<pdfrwt beam="1">  1       21 0.46145965E-01 0.30000000E+03</pdfrwt>
<pdfrwt beam="2">0</pdfrwt>
<totfact> 0.44649642E+02</totfact>
</mgrwt>
</event>
<event>
 6    1  0.1280499E-001  0.3000000E+03  0.7818608E-02  0.1093470E+00
         21   -1    0    0  501  502  0.00000000000E+00  0.00000000000E+00  0.29964065731E+01  0.29964065731E+01  0.00000000000E+00 0. -1.
         13   -1    0    0    0    0 -0.00000000000E+00 -0.00000000000E+00 -0.10000000000E+04  0.10000000000E+04  0.00000000000E+00 0.  1.
    9000005    2    1    2  501    0  0.51347879779E+02 -0.35740854215E+01 -0.66821682134E+03  0.67020499992E+03  0.34121471673E+01 0.  0.
         13    1    3    3    0    0  0.16712364260E+02 -0.24721823013E+01 -0.20712519935E+03  0.20781304822E+03  0.00000000000E+00 0.  1.
          1    1    3    3  501    0  0.34635515519E+02 -0.11019031203E+01 -0.46109162199E+03  0.46239195170E+03  0.00000000000E+00 0.  1.
         -3    1    1    2    0  502 -0.51347879779E+02  0.35740854215E+01 -0.32878677209E+03  0.33279140665E+03  0.00000000000E+00 0. -1.
<mgrwt>
<rscale>  1 0.30000000E+03</rscale>
<asrwt>0</asrwt>
<pdfrwt beam="1">  1       21 0.10896047E-01 0.30000000E+03</pdfrwt>
<pdfrwt beam="2">0</pdfrwt>
<totfact> 0.73769238E+03</totfact>
</mgrwt>
</event>
<event>
 6    1  0.1280499E-001  0.3000000E+03  0.7818608E-02  0.1093470E+00
         21   -1    0    0  501  502  0.00000000000E+00  0.00000000000E+00  0.24899731640E+01  0.24899731640E+01  0.00000000000E+00 0. -1.
         13   -1    0    0    0    0 -0.00000000000E+00 -0.00000000000E+00 -0.10000000000E+04  0.10000000000E+04  0.00000000000E+00 0.  1.
    9000005    2    1    2  501    0 -0.10905147723E+02 -0.31467302850E+02 -0.87172041663E+03  0.87236641868E+03  0.41916914426E+01 0.  0.
         13    1    3    3    0    0 -0.11657899082E+01 -0.88150130295E+01 -0.24352450625E+03  0.24368678393E+03  0.00000000000E+00 0.  1.
          1    1    3    3  501    0 -0.97393578146E+01 -0.22652289820E+02 -0.62819591038E+03  0.62867963475E+03  0.00000000000E+00 0.  1.
         -3    1    1    2    0  502  0.10905147723E+02  0.31467302850E+02 -0.12578961021E+03  0.13012355448E+03  0.00000000000E+00 0. -1.
<mgrwt>
<rscale>  1 0.30000000E+03</rscale>
<asrwt>0</asrwt>
<pdfrwt beam="1">  1       21 0.90544670E-02 0.30000000E+03</pdfrwt>
<pdfrwt beam="2">0</pdfrwt>
<totfact> 0.10267713E+04</totfact>
</mgrwt>
</event>
<event>
 6    1  0.1280499E-001  0.3000000E+03  0.7818608E-02  0.1093470E+00
         21   -1    0    0  501  502  0.00000000000E+00  0.00000000000E+00  0.48060414972E+01  0.48060414972E+01  0.00000000000E+00 0. -1.
         13   -1    0    0    0    0 -0.00000000000E+00 -0.00000000000E+00 -0.10000000000E+04  0.10000000000E+04  0.00000000000E+00 0.  1.
    9000005    2    1    2  501    0 -0.18987460834E+02 -0.48756074921E+02 -0.82700686843E+03  0.82866809619E+03  0.35741710026E+01 0.  0.
         13    1    3    3    0    0 -0.43331237302E+01 -0.97907092455E+01 -0.14871247677E+03  0.14909740003E+03  0.00000000000E+00 0.  1.
          3    1    3    3  501    0 -0.14654337104E+02 -0.38965365676E+02 -0.67829439166E+03  0.67957069616E+03  0.00000000000E+00 0.  1.
         -3    1    1    2    0  502  0.18987460834E+02  0.48756074921E+02 -0.16818709007E+03  0.17613794531E+03  0.00000000000E+00 0. -1.
<mgrwt>
<rscale>  1 0.30000000E+03</rscale>
<asrwt>0</asrwt>
<pdfrwt beam="1">  1       21 0.17476551E-01 0.30000000E+03</pdfrwt>
<pdfrwt beam="2">0</pdfrwt>
<totfact> 0.30967320E+03</totfact>
</mgrwt>
</event>
<event>
 6    1  0.1280499E-001  0.3000000E+03  0.7818608E-02  0.1093470E+00
         21   -1    0    0  501  502  0.00000000000E+00  0.00000000000E+00  0.14232174189E+01  0.14232174189E+01  0.00000000000E+00 0. -1.
         13   -1    0    0    0    0 -0.00000000000E+00 -0.00000000000E+00 -0.10000000000E+04  0.10000000000E+04  0.00000000000E+00 0.  1.
    9000005    2    1    2  501    0 -0.13853358374E+02 -0.27166794908E+02 -0.79306749225E+03  0.79366369611E+03  0.40081128706E+01 0.  0.
         13    1    3    3    0    0 -0.63862695597E+01 -0.12655456671E+02 -0.31756043223E+03  0.31787666341E+03  0.00000000000E+00 0.  1.
          1    1    3    3  501    0 -0.74670888141E+01 -0.14511338237E+02 -0.47550706002E+03  0.47578703270E+03  0.00000000000E+00 0.  1.
         -1    1    1    2    0  502  0.13853358374E+02  0.27166794908E+02 -0.20550929033E+03  0.20775952131E+03  0.00000000000E+00 0. -1.
<mgrwt>
<rscale>  1 0.30000000E+03</rscale>
<asrwt>0</asrwt>
<pdfrwt beam="1">  1       21 0.51753470E-02 0.30000000E+03</pdfrwt>
<pdfrwt beam="2">0</pdfrwt>
<totfact> 0.27159452E+04</totfact>
</mgrwt>
</event>
<event>
 6    1  0.1280499E-001  0.3000000E+03  0.7818608E-02  0.1093470E+00
         21   -1    0    0  501  502  0.00000000000E+00  0.00000000000E+00  0.23158105825E+01  0.23158105825E+01  0.00000000000E+00 0. -1.
         13   -1    0    0    0    0 -0.00000000000E+00 -0.00000000000E+00 -0.10000000000E+04  0.10000000000E+04  0.00000000000E+00 0.  1.
    9000005    2    1    2  501    0 -0.24416689986E+02  0.32255088303E+02 -0.76967522162E+03  0.77074583224E+03  0.35532626684E+01 0.  0.
         13    1    3    3    0    0 -0.20875344183E+01  0.36277156689E+01 -0.63314047309E+02  0.63452239579E+02  0.00000000000E+00 0.  1.
          3    1    3    3  501    0 -0.22329155568E+02  0.28627372634E+02 -0.70636117431E+03  0.70729359266E+03  0.00000000000E+00 0.  1.
         -1    1    1    2    0  502  0.24416689986E+02 -0.32255088303E+02 -0.22800896780E+03  0.23156997834E+03  0.00000000000E+00 0. -1.
<mgrwt>
<rscale>  1 0.30000000E+03</rscale>
<asrwt>0</asrwt>
<pdfrwt beam="1">  1       21 0.84211471E-02 0.30000000E+03</pdfrwt>
<pdfrwt beam="2">0</pdfrwt>
<totfact> 0.11671449E+04</totfact>
</mgrwt>
</event>
<event>
 6    1  0.1280499E-001  0.3000000E+03  0.7818608E-02  0.1093470E+00
         21   -1    0    0  501  502  0.00000000000E+00  0.00000000000E+00  0.32404117025E+01  0.32404117025E+01  0.00000000000E+00 0. -1.
         13   -1    0    0    0    0 -0.00000000000E+00 -0.00000000000E+00 -0.10000000000E+04  0.10000000000E+04  0.00000000000E+00 0.  1.
    9000005    2    1    2  501    0  0.11938734289E+01  0.35491359665E+02 -0.89013250461E+03  0.89085537301E+03  0.51339970722E+01 0.  0.
         13    1    3    3    0    0 -0.16788119376E+01  0.22854147496E+02 -0.57589940823E+03  0.57635514995E+03  0.00000000000E+00 0.  1.
          1    1    3    3  501    0  0.28726853665E+01  0.12637212169E+02 -0.31423309637E+03  0.31450022307E+03  0.00000000000E+00 0.  1.
         -3    1    1    2    0  502 -0.11938734289E+01 -0.35491359665E+02 -0.10662708369E+03  0.11238503869E+03  0.00000000000E+00 0. -1.
<mgrwt>
<rscale>  1 0.30000000E+03</rscale>
<asrwt>0</asrwt>
<pdfrwt beam="1">  1       21 0.11783340E-01 0.30000000E+03</pdfrwt>
<pdfrwt beam="2">0</pdfrwt>
<totfact> 0.64052511E+03</totfact>
</mgrwt>
</event>
<event>
 6    1  0.1280499E-001  0.3000000E+03  0.7818608E-02  0.1093470E+00
         21   -1    0    0  501  502  0.00000000000E+00  0.00000000000E+00  0.16042855816E+01  0.16042855816E+01  0.00000000000E+00 0. -1.
         13   -1    0    0    0    0 -0.00000000000E+00 -0.00000000000E+00 -0.10000000000E+04  0.10000000000E+04  0.00000000000E+00 0.  1.
    9000005    2    1    2  501    0 -0.93504693303E+01  0.32041021317E+02 -0.77538142688E+03  0.77610610206E+03  0.32040889535E+01 0.  0.
         13    1    3    3    0    0 -0.44882561112E+01  0.18942703799E+02 -0.42269788319E+03  0.42314592155E+03  0.00000000000E+00 0.  1.
          3    1    3    3  501    0 -0.48622132191E+01  0.13098317517E+02 -0.35268354369E+03  0.35296018051E+03  0.00000000000E+00 0.  1.
         -1    1    1    2    0  502  0.93504693303E+01 -0.32041021317E+02 -0.22301428754E+03  0.22549818352E+03  0.00000000000E+00 0. -1.
<mgrwt>
<rscale>  1 0.30000000E+03</rscale>
<asrwt>0</asrwt>
<pdfrwt beam="1">  1       21 0.58337781E-02 0.30000000E+03</pdfrwt>
<pdfrwt beam="2">0</pdfrwt>
<totfact> 0.22117228E+04</totfact>
</mgrwt>
</event>
<event>
 6    1  0.1280499E-001  0.3000000E+03  0.7818608E-02  0.1093470E+00
         21   -1    0    0  501  502  0.00000000000E+00  0.00000000000E+00  0.11821585795E+01  0.11821585795E+01  0.00000000000E+00 0. -1.
         13   -1    0    0    0    0 -0.00000000000E+00 -0.00000000000E+00 -0.10000000000E+04  0.10000000000E+04  0.00000000000E+00 0.  1.
    9000005    2    1    2  501    0 -0.33895367199E+02 -0.43648215510E+01 -0.54119362066E+03  0.54228361313E+03  0.36103250149E+01 0.  0.
         13    1    3    3    0    0 -0.29009120245E+02 -0.46949087844E+01 -0.44988107718E+03  0.45083983279E+03  0.00000000000E+00 0.  1.
          3    1    3    3  501    0 -0.48862469540E+01  0.33008723340E+00 -0.91312543478E+02  0.91443780342E+02  0.00000000000E+00 0.  1.
         -3    1    1    2    0  502  0.33895367199E+02  0.43648215510E+01 -0.45762422076E+03  0.45889854544E+03  0.00000000000E+00 0. -1.
<mgrwt>
<rscale>  1 0.30000000E+03</rscale>
<asrwt>0</asrwt>
<pdfrwt beam="1">  1       21 0.42987675E-02 0.30000000E+03</pdfrwt>
<pdfrwt beam="2">0</pdfrwt>
<totfact> 0.37234791E+04</totfact>
</mgrwt>
</event>
<event>
 6    1  0.1280499E-001  0.3000000E+03  0.7818608E-02  0.1093470E+00
         21   -1    0    0  501  502  0.00000000000E+00  0.00000000000E+00  0.17982746083E+01  0.17982746083E+01  0.00000000000E+00 0. -1.
         13   -1    0    0    0    0 -0.00000000000E+00 -0.00000000000E+00 -0.10000000000E+04  0.10000000000E+04  0.00000000000E+00 0.  1.
    9000005    2    1    2  501    0 -0.37879169630E+02  0.76254979873E+01 -0.29535912925E+03  0.29789437871E+03  0.33265482989E+01 0.  0.
         13    1    3    3    0    0 -0.27304234667E+02  0.42134523145E+01 -0.21683344587E+03  0.21858640776E+03  0.00000000000E+00 0.  1.
          3    1    3    3  501    0 -0.10574934963E+02  0.34120456728E+01 -0.78525683380E+02  0.79307970945E+02  0.00000000000E+00 0.  1.
         -1    1    1    2    0  502  0.37879169630E+02 -0.76254979873E+01 -0.70284259614E+03  0.70390389590E+03  0.00000000000E+00 0. -1.
<mgrwt>
<rscale>  1 0.30000000E+03</rscale>
<asrwt>0</asrwt>
<pdfrwt beam="1">  1       21 0.65391942E-02 0.30000000E+03</pdfrwt>
<pdfrwt beam="2">0</pdfrwt>
<totfact> 0.18160001E+04</totfact>
</mgrwt>
</event>
<event>
 6    1  0.1280499E-001  0.3000000E+03  0.7818608E-02  0.1093470E+00
         21   -1    0    0  501  502  0.00000000000E+00  0.00000000000E+00  0.12722999542E+02  0.12722999542E+02  0.00000000000E+00 0. -1.
         13   -1    0    0    0    0 -0.00000000000E+00 -0.00000000000E+00 -0.10000000000E+04  0.10000000000E+04  0.00000000000E+00 0.  1.
    9000005    2    1    2  501    0 -0.44106362325E+02 -0.88536441305E+02 -0.73686895597E+03  0.74348655814E+03  0.35115837970E+01 0.  0.
         13    1    3    3    0    0 -0.41249926791E+02 -0.84228888864E+02 -0.69484177072E+03  0.70114274475E+03  0.00000000000E+00 0.  1.
          1    1    3    3  501    0 -0.28564355343E+01 -0.43075524415E+01 -0.42027185253E+02  0.42343813389E+02  0.00000000000E+00 0.  1.
         -3    1    1    2    0  502  0.44106362325E+02  0.88536441305E+02 -0.25040804449E+03  0.26923644141E+03  0.00000000000E+00 0. -1.
<mgrwt>
<rscale>  1 0.30000000E+03</rscale>
<asrwt>0</asrwt>
<pdfrwt beam="1">  1       21 0.46265550E-01 0.30000000E+03</pdfrwt>
<pdfrwt beam="2">0</pdfrwt>
<totfact> 0.44403383E+02</totfact>
</mgrwt>
</event>
<event>
 6    1  0.1280499E-001  0.3000000E+03  0.7818608E-02  0.1093470E+00
         21   -1    0    0  501  502  0.00000000000E+00  0.00000000000E+00  0.11094299524E+01  0.11094299524E+01  0.00000000000E+00 0. -1.
         13   -1    0    0    0    0 -0.00000000000E+00 -0.00000000000E+00 -0.10000000000E+04  0.10000000000E+04  0.00000000000E+00 0.  1.
    9000005    2    1    2  501    0 -0.24896806947E+02  0.18695881820E+02 -0.67598024886E+03  0.67670156550E+03  0.25149353081E+01 0.  0.
         13    1    3    3    0    0 -0.14107888802E+02  0.92276563696E+01 -0.35175274073E+03  0.35215646065E+03  0.00000000000E+00 0.  1.
          1    1    3    3  501    0 -0.10788918145E+02  0.94682254504E+01 -0.32422750813E+03  0.32454510484E+03  0.00000000000E+00 0.  1.
         -3    1    1    2    0  502  0.24896806947E+02 -0.18695881820E+02 -0.32291032118E+03  0.32440786446E+03  0.00000000000E+00 0. -1.
<mgrwt>
<rscale>  1 0.30000000E+03</rscale>
<asrwt>0</asrwt>
<pdfrwt beam="1">  1       21 0.40342992E-02 0.30000000E+03</pdfrwt>
<pdfrwt beam="2">0</pdfrwt>
<totfact> 0.41446934E+04</totfact>
</mgrwt>
</event>
<event>
 6    1  0.1280499E-001  0.3000000E+03  0.7818608E-02  0.1093470E+00
         21   -1    0    0  501  502  0.00000000000E+00  0.00000000000E+00  0.36909919534E+01  0.36909919534E+01  0.00000000000E+00 0. -1.
         13   -1    0    0    0    0 -0.00000000000E+00 -0.00000000000E+00 -0.10000000000E+04  0.10000000000E+04  0.00000000000E+00 0.  1.
    9000005    2    1    2  501    0  0.59322802126E+02 -0.12920981825E+02 -0.50365341210E+03  0.50730839472E+03  0.29834887658E+01 0.  0.
         13    1    3    3    0    0  0.58087332898E+02 -0.13056042288E+02 -0.49216185135E+03  0.49574982240E+03  0.00000000000E+00 0.  1.
          3    1    3    3  501    0  0.12354692278E+01  0.13506046269E+00 -0.11491560751E+02  0.11558572318E+02  0.00000000000E+00 0.  1.
         -1    1    1    2    0  502 -0.59322802126E+02  0.12920981825E+02 -0.49265559595E+03  0.49638259724E+03  0.00000000000E+00 0. -1.
<mgrwt>
<rscale>  1 0.30000000E+03</rscale>
<asrwt>0</asrwt>
<pdfrwt beam="1">  1       21 0.13421817E-01 0.30000000E+03</pdfrwt>
<pdfrwt beam="2">0</pdfrwt>
<totfact> 0.50527519E+03</totfact>
</mgrwt>
</event>
<event>
 6    1  0.1280499E-001  0.3000000E+03  0.7818608E-02  0.1093470E+00
         21   -1    0    0  501  502  0.00000000000E+00  0.00000000000E+00  0.21868955447E+01  0.21868955447E+01  0.00000000000E+00 0. -1.
         13   -1    0    0    0    0 -0.00000000000E+00 -0.00000000000E+00 -0.10000000000E+04  0.10000000000E+04  0.00000000000E+00 0.  1.
    9000005    2    1    2  501    0 -0.43427402049E+02  0.36940182486E+01 -0.67937654445E+03  0.68078150080E+03  0.33730802701E+01 0.  0.
         13    1    3    3    0    0 -0.23232493729E+02  0.33710895921E+01 -0.37988498926E+03  0.38060966629E+03  0.00000000000E+00 0.  1.
          3    1    3    3  501    0 -0.20194908320E+02  0.32292865658E+00 -0.29949155518E+03  0.30017183451E+03  0.00000000000E+00 0.  1.
         -3    1    1    2    0  502  0.43427402049E+02 -0.36940182486E+01 -0.31843656001E+03  0.32140539474E+03  0.00000000000E+00 0. -1.
<mgrwt>
<rscale>  1 0.30000000E+03</rscale>
<asrwt>0</asrwt>
<pdfrwt beam="1">  1       21 0.79523642E-02 0.30000000E+03</pdfrwt>
<pdfrwt beam="2">0</pdfrwt>
<totfact> 0.12908550E+04</totfact>
</mgrwt>
</event>
<event>
 6    1  0.1280499E-001  0.3000000E+03  0.7818608E-02  0.1093470E+00
         21   -1    0    0  501  502  0.00000000000E+00  0.00000000000E+00  0.41669116542E+01  0.41669116542E+01  0.00000000000E+00 0. -1.
         13   -1    0    0    0    0 -0.00000000000E+00 -0.00000000000E+00 -0.10000000000E+04  0.10000000000E+04  0.00000000000E+00 0.  1.
    9000005    2    1    2  501    0  0.19333544072E+02  0.25771436841E+02 -0.93293892185E+03  0.93350129723E+03  0.34186455987E+01 0.  0.
         13    1    3    3    0    0  0.16158558693E+02  0.21012690423E+02 -0.80083728568E+03  0.80127585158E+03  0.00000000000E+00 0.  1.
          1    1    3    3  501    0  0.31749853789E+01  0.47587464176E+01 -0.13210163617E+03  0.13222544565E+03  0.00000000000E+00 0.  1.
         -1    1    1    2    0  502 -0.19333544072E+02 -0.25771436841E+02 -0.62894166496E+02  0.70665614428E+02  0.00000000000E+00 0. -1.
<mgrwt>
<rscale>  1 0.30000000E+03</rscale>
<asrwt>0</asrwt>
<pdfrwt beam="1">  1       21 0.15152438E-01 0.30000000E+03</pdfrwt>
<pdfrwt beam="2">0</pdfrwt>
<totfact> 0.40416382E+03</totfact>
</mgrwt>
</event>
<event>
 6    1  0.1280499E-001  0.3000000E+03  0.7818608E-02  0.1093470E+00
         21   -1    0    0  501  502  0.00000000000E+00  0.00000000000E+00  0.26661217537E+01  0.26661217537E+01  0.00000000000E+00 0. -1.
         13   -1    0    0    0    0 -0.00000000000E+00 -0.00000000000E+00 -0.10000000000E+04  0.10000000000E+04  0.00000000000E+00 0.  1.
    9000005    2    1    2  501    0 -0.35974929224E+02 -0.71265763441E+01 -0.85136556815E+03  0.85216120098E+03  0.32246257090E+01 0.  0.
         13    1    3    3    0    0 -0.11402778396E+02 -0.10584612877E+01 -0.24442429693E+03  0.24469242045E+03  0.00000000000E+00 0.  1.
          3    1    3    3  501    0 -0.24572150828E+02 -0.60681150564E+01 -0.60694127121E+03  0.60746878053E+03  0.00000000000E+00 0.  1.
         -3    1    1    2    0  502  0.35974929224E+02  0.71265763441E+01 -0.14596831010E+03  0.15050492077E+03  0.00000000000E+00 0. -1.
<mgrwt>
<rscale>  1 0.30000000E+03</rscale>
<asrwt>0</asrwt>
<pdfrwt beam="1">  1       21 0.96950086E-02 0.30000000E+03</pdfrwt>
<pdfrwt beam="2">0</pdfrwt>
<totfact> 0.90923221E+03</totfact>
</mgrwt>
</event>
<event>
 6    1  0.1280499E-001  0.3000000E+03  0.7818608E-02  0.1093470E+00
         21   -1    0    0  501  502  0.00000000000E+00  0.00000000000E+00  0.10104818312E+01  0.10104818312E+01  0.00000000000E+00 0. -1.
         13   -1    0    0    0    0 -0.00000000000E+00 -0.00000000000E+00 -0.10000000000E+04  0.10000000000E+04  0.00000000000E+00 0.  1.
    9000005    2    1    2  501    0 -0.31553358683E+02  0.52415603237E+00 -0.54237492943E+03  0.54330667823E+03  0.39614831951E+01 0.  0.
         13    1    3    3    0    0 -0.38010354949E+01 -0.11429080776E+01 -0.76493274135E+02  0.76596182004E+02  0.00000000000E+00 0.  1.
          1    1    3    3  501    0 -0.27752323188E+02  0.16670641100E+01 -0.46588165530E+03  0.46671049623E+03  0.00000000000E+00 0.  1.
         -1    1    1    2    0  502  0.31553358683E+02 -0.52415603237E+00 -0.45661458874E+03  0.45770380360E+03  0.00000000000E+00 0. -1.
<mgrwt>
<rscale>  1 0.30000000E+03</rscale>
<asrwt>0</asrwt>
<pdfrwt beam="1">  1       21 0.36744871E-02 0.30000000E+03</pdfrwt>
<pdfrwt beam="2">0</pdfrwt>
<totfact> 0.48495323E+04</totfact>
</mgrwt>
</event>
<event>
 6    1  0.1280499E-001  0.3000000E+03  0.7818608E-02  0.1093470E+00
         21   -1    0    0  501  502  0.00000000000E+00  0.00000000000E+00  0.19716138398E+01  0.19716138398E+01  0.00000000000E+00 0. -1.
         13   -1    0    0    0    0 -0.00000000000E+00 -0.00000000000E+00 -0.10000000000E+04  0.10000000000E+04  0.00000000000E+00 0.  1.
    9000005    2    1    2  501    0  0.67095216496E+01  0.41768531058E+02 -0.64942819370E+03  0.65081392554E+03  0.34869813684E+01 0.  0.
         13    1    3    3    0    0  0.10332910006E+01  0.31439305763E+01 -0.63990122787E+02  0.64075641269E+02  0.00000000000E+00 0.  1.
          3    1    3    3  501    0  0.56762306490E+01  0.38624600482E+02 -0.58543807092E+03  0.58673828428E+03  0.00000000000E+00 0.  1.
         -1    1    1    2    0  502 -0.67095216496E+01 -0.41768531058E+02 -0.34860019246E+03  0.35115768829E+03  0.00000000000E+00 0. -1.
<mgrwt>
<rscale>  1 0.30000000E+03</rscale>
<asrwt>0</asrwt>
<pdfrwt beam="1">  1       21 0.71695200E-02 0.30000000E+03</pdfrwt>
<pdfrwt beam="2">0</pdfrwt>
<totfact> 0.15476509E+04</totfact>
</mgrwt>
</event>
<event>
 6    1  0.1280499E-001  0.3000000E+03  0.7818608E-02  0.1093470E+00
         21   -1    0    0  501  502  0.00000000000E+00  0.00000000000E+00  0.27370133091E+01  0.27370133091E+01  0.00000000000E+00 0. -1.
         13   -1    0    0    0    0 -0.00000000000E+00 -0.00000000000E+00 -0.10000000000E+04  0.10000000000E+04  0.00000000000E+00 0.  1.
    9000005    2    1    2  501    0 -0.62904968642E+01  0.51752820611E+02 -0.53175092597E+03  0.53431476420E+03  0.39109041124E+01 0.  0.
         13    1    3    3    0    0 -0.57946410713E+01  0.39422614719E+02 -0.39190359182E+03  0.39392403544E+03  0.00000000000E+00 0.  1.
          3    1    3    3  501    0 -0.49585579290E+00  0.12330205892E+02 -0.13984733416E+03  0.14039072876E+03  0.00000000000E+00 0.  1.
         -1    1    1    2    0  502  0.62904968642E+01 -0.51752820611E+02 -0.46551206072E+03  0.46842224911E+03  0.00000000000E+00 0. -1.
<mgrwt>
<rscale>  1 0.30000000E+03</rscale>
<asrwt>0</asrwt>
<pdfrwt beam="1">  1       21 0.99527967E-02 0.30000000E+03</pdfrwt>
<pdfrwt beam="2">0</pdfrwt>
<totfact> 0.86762309E+03</totfact>
</mgrwt>
</event>
<event>
 6    1  0.1280499E-001  0.3000000E+03  0.7818608E-02  0.1093470E+00
         21   -1    0    0  501  502  0.00000000000E+00  0.00000000000E+00  0.13602548516E+01  0.13602548516E+01  0.00000000000E+00 0. -1.
         13   -1    0    0    0    0 -0.00000000000E+00 -0.00000000000E+00 -0.10000000000E+04  0.10000000000E+04  0.00000000000E+00 0.  1.
    9000005    2    1    2  501    0 -0.29976050863E+02 -0.79518545926E+01 -0.76932582482E+03  0.76995872142E+03  0.35231155365E+01 0.  0.
         13    1    3    3    0    0 -0.16711387526E+02 -0.38602796909E+01 -0.46573234730E+03  0.46604805713E+03  0.00000000000E+00 0.  1.
          3    1    3    3  501    0 -0.13264663337E+02 -0.40915749017E+01 -0.30359347752E+03  0.30391066429E+03  0.00000000000E+00 0.  1.
         -1    1    1    2    0  502  0.29976050863E+02  0.79518545926E+01 -0.22931392033E+03  0.23140153343E+03  0.00000000000E+00 0. -1.
<mgrwt>
<rscale>  1 0.30000000E+03</rscale>
<asrwt>0</asrwt>
<pdfrwt beam="1">  1       21 0.49463917E-02 0.30000000E+03</pdfrwt>
<pdfrwt beam="2">0</pdfrwt>
<totfact> 0.29338727E+04</totfact>
</mgrwt>
</event>
<event>
 6    1  0.1280499E-001  0.3000000E+03  0.7818608E-02  0.1093470E+00
         21   -1    0    0  501  502  0.00000000000E+00  0.00000000000E+00  0.98283967641E+00  0.98283967641E+00  0.00000000000E+00 0. -1.
         13   -1    0    0    0    0 -0.00000000000E+00 -0.00000000000E+00 -0.10000000000E+04  0.10000000000E+04  0.00000000000E+00 0.  1.
    9000005    2    1    2  501    0  0.13883808556E+02  0.27657467776E+02 -0.56064888893E+03  0.56152358443E+03  0.48850322690E+01 0.  0.
         13    1    3    3    0    0  0.11153253397E+02  0.20748581202E+02 -0.45864255319E+03  0.45924709066E+03  0.00000000000E+00 0.  1.
          3    1    3    3  501    0  0.27305551590E+01  0.69088865748E+01 -0.10200633574E+03  0.10227649376E+03  0.00000000000E+00 0.  1.
         -1    1    1    2    0  502 -0.13883808556E+02 -0.27657467776E+02 -0.43836827139E+03  0.43945925525E+03  0.00000000000E+00 0. -1.
<mgrwt>
<rscale>  1 0.30000000E+03</rscale>
<asrwt>0</asrwt>
<pdfrwt beam="1">  1       21 0.35739700E-02 0.30000000E+03</pdfrwt>
<pdfrwt beam="2">0</pdfrwt>
<totfact> 0.50804759E+04</totfact>
</mgrwt>
</event>
<event>
 6    1  0.1280499E-001  0.3000000E+03  0.7818608E-02  0.1093470E+00
         21   -1    0    0  501  502  0.00000000000E+00  0.00000000000E+00  0.23561009150E+01  0.23561009150E+01  0.00000000000E+00 0. -1.
         13   -1    0    0    0    0 -0.00000000000E+00 -0.00000000000E+00 -0.10000000000E+04  0.10000000000E+04  0.00000000000E+00 0.  1.
    9000005    2    1    2  501    0 -0.21668412368E+02 -0.23069010228E+02 -0.87861780099E+03  0.87919396649E+03  0.33303415972E+01 0.  0.
         13    1    3    3    0    0 -0.93786651621E+01 -0.12416279625E+02 -0.42899547374E+03  0.42927757902E+03  0.00000000000E+00 0.  1.
          3    1    3    3  501    0 -0.12289747206E+02 -0.10652730604E+02 -0.44962232725E+03  0.44991638747E+03  0.00000000000E+00 0.  1.
         -1    1    1    2    0  502  0.21668412368E+02  0.23069010228E+02 -0.11902609810E+03  0.12316213442E+03  0.00000000000E+00 0. -1.
<mgrwt>
<rscale>  1 0.30000000E+03</rscale>
<asrwt>0</asrwt>
<pdfrwt beam="1">  1       21 0.85676578E-02 0.30000000E+03</pdfrwt>
<pdfrwt beam="2">0</pdfrwt>
<totfact> 0.11321819E+04</totfact>
</mgrwt>
</event>
<event>
 6    1  0.1280499E-001  0.3000000E+03  0.7818608E-02  0.1093470E+00
         21   -1    0    0  501  502  0.00000000000E+00  0.00000000000E+00  0.83276763786E+01  0.83276763786E+01  0.00000000000E+00 0. -1.
         13   -1    0    0    0    0 -0.00000000000E+00 -0.00000000000E+00 -0.10000000000E+04  0.10000000000E+04  0.00000000000E+00 0.  1.
    9000005    2    1    2  501    0 -0.21650155034E+02  0.43485382474E+02 -0.92259742035E+03  0.92388213201E+03  0.35335688631E+01 0.  0.
         13    1    3    3    0    0 -0.19082412205E+02  0.35765760737E+02 -0.78043595896E+03  0.78148807677E+03  0.00000000000E+00 0.  1.
          3    1    3    3  501    0 -0.25677428291E+01  0.77196217371E+01 -0.14216146139E+03  0.14239405524E+03  0.00000000000E+00 0.  1.
         -1    1    1    2    0  502  0.21650155034E+02 -0.43485382474E+02 -0.69074903275E+02  0.84445544372E+02  0.00000000000E+00 0. -1.
<mgrwt>
<rscale>  1 0.30000000E+03</rscale>
<asrwt>0</asrwt>
<pdfrwt beam="1">  1       21 0.30282523E-01 0.30000000E+03</pdfrwt>
<pdfrwt beam="2">0</pdfrwt>
<totfact> 0.10670681E+03</totfact>
</mgrwt>
</event>
<event>
 6    1  0.1280499E-001  0.3000000E+03  0.7818608E-02  0.1093470E+00
         21   -1    0    0  501  502  0.00000000000E+00  0.00000000000E+00  0.25377060835E+01  0.25377060835E+01  0.00000000000E+00 0. -1.
         13   -1    0    0    0    0 -0.00000000000E+00 -0.00000000000E+00 -0.10000000000E+04  0.10000000000E+04  0.00000000000E+00 0.  1.
    9000005    2    1    2  501    0  0.25910497209E+02  0.30740292844E+02 -0.80038254070E+03  0.80139907579E+03  0.34565510031E+01 0.  0.
         13    1    3    3    0    0  0.12896059579E+02  0.14015987891E+02 -0.34889657339E+03  0.34941604885E+03  0.00000000000E+00 0.  1.
          1    1    3    3  501    0  0.13014437630E+02  0.16724304953E+02 -0.45148596731E+03  0.45198302694E+03  0.00000000000E+00 0.  1.
         -1    1    1    2    0  502 -0.25910497209E+02 -0.30740292844E+02 -0.19707975322E+03  0.20113863030E+03  0.00000000000E+00 0. -1.
<mgrwt>
<rscale>  1 0.30000000E+03</rscale>
<asrwt>0</asrwt>
<pdfrwt beam="1">  1       21 0.92280416E-02 0.30000000E+03</pdfrwt>
<pdfrwt beam="2">0</pdfrwt>
<totfact> 0.99275488E+03</totfact>
</mgrwt>
</event>
<event>
 6    1  0.1280499E-001  0.3000000E+03  0.7818608E-02  0.1093470E+00
         21   -1    0    0  501  502  0.00000000000E+00  0.00000000000E+00  0.13487609168E+01  0.13487609168E+01  0.00000000000E+00 0. -1.
         13   -1    0    0    0    0 -0.00000000000E+00 -0.00000000000E+00 -0.10000000000E+04  0.10000000000E+04  0.00000000000E+00 0.  1.
    9000005    2    1    2  501    0  0.15945136267E+01 -0.30650016589E+02 -0.77345623490E+03  0.77407193434E+03  0.32933620569E+01 0.  0.
         13    1    3    3    0    0  0.23291705574E+01 -0.28449322871E+02 -0.71237281725E+03  0.71294447173E+03  0.00000000000E+00 0.  1.
          1    1    3    3  501    0 -0.73465693066E+00 -0.22006937177E+01 -0.61083417649E+02  0.61127462611E+02  0.00000000000E+00 0.  1.
         -3    1    1    2    0  502 -0.15945136267E+01  0.30650016589E+02 -0.22519500418E+03  0.22727682658E+03  0.00000000000E+00 0. -1.
<mgrwt>
<rscale>  1 0.30000000E+03</rscale>
<asrwt>0</asrwt>
<pdfrwt beam="1">  1       21 0.49045955E-02 0.30000000E+03</pdfrwt>
<pdfrwt beam="2">0</pdfrwt>
<totfact> 0.29765913E+04</totfact>
</mgrwt>
</event>
<event>
 6    1  0.1280499E-001  0.3000000E+03  0.7818608E-02  0.1093470E+00
         21   -1    0    0  501  502  0.00000000000E+00  0.00000000000E+00  0.94293511057E+00  0.94293511057E+00  0.00000000000E+00 0. -1.
         13   -1    0    0    0    0 -0.00000000000E+00 -0.00000000000E+00 -0.10000000000E+04  0.10000000000E+04  0.00000000000E+00 0.  1.
    9000005    2    1    2  501    0  0.20492162906E+02  0.21989085696E+02 -0.59615609701E+03  0.59692234337E+03  0.32777102747E+01 0.  0.
         13    1    3    3    0    0  0.18905295179E+02  0.18830869827E+02 -0.53270862573E+03  0.53337650095E+03  0.00000000000E+00 0.  1.
          3    1    3    3  501    0  0.15868677266E+01  0.31582158694E+01 -0.63447471284E+02  0.63545842421E+02  0.00000000000E+00 0.  1.
         -1    1    1    2    0  502 -0.20492162906E+02 -0.21989085696E+02 -0.40290096788E+03  0.40402059174E+03  0.00000000000E+00 0. -1.
<mgrwt>
<rscale>  1 0.30000000E+03</rscale>
<asrwt>0</asrwt>
<pdfrwt beam="1">  1       21 0.34288622E-02 0.30000000E+03</pdfrwt>
<pdfrwt beam="2">0</pdfrwt>
<totfact> 0.54456097E+04</totfact>
</mgrwt>
</event>
<event>
 6    1  0.1280499E-001  0.3000000E+03  0.7818608E-02  0.1093470E+00
         21   -1    0    0  501  502  0.00000000000E+00  0.00000000000E+00  0.64668591487E+01  0.64668591487E+01  0.00000000000E+00 0. -1.
         13   -1    0    0    0    0 -0.00000000000E+00 -0.00000000000E+00 -0.10000000000E+04  0.10000000000E+04  0.00000000000E+00 0.  1.
    9000005    2    1    2  501    0 -0.50787008411E+02  0.14070924565E+02 -0.87680030919E+03  0.87838928450E+03  0.34120050258E+01 0.  0.
         13    1    3    3    0    0 -0.39013209390E+02  0.94809548485E+01 -0.67820527389E+03  0.67939260560E+03  0.00000000000E+00 0.  1.
          1    1    3    3  501    0 -0.11773799021E+02  0.45899697162E+01 -0.19859503531E+03  0.19899667890E+03  0.00000000000E+00 0.  1.
         -1    1    1    2    0  502  0.50787008411E+02 -0.14070924565E+02 -0.11673283166E+03  0.12807757465E+03  0.00000000000E+00 0. -1.
<mgrwt>
<rscale>  1 0.30000000E+03</rscale>
<asrwt>0</asrwt>
<pdfrwt beam="1">  1       21 0.23515901E-01 0.30000000E+03</pdfrwt>
<pdfrwt beam="2">0</pdfrwt>
<totfact> 0.17571114E+03</totfact>
</mgrwt>
</event>
<event>
 6    1  0.1280499E-001  0.3000000E+03  0.7818608E-02  0.1093470E+00
         21   -1    0    0  501  502  0.00000000000E+00  0.00000000000E+00  0.18382538690E+01  0.18382538690E+01  0.00000000000E+00 0. -1.
         13   -1    0    0    0    0 -0.00000000000E+00 -0.00000000000E+00 -0.10000000000E+04  0.10000000000E+04  0.00000000000E+00 0.  1.
    9000005    2    1    2  501    0 -0.18765991907E+02  0.31204834357E+02 -0.76255861217E+03  0.76343787452E+03  0.39808446311E+01 0.  0.
         13    1    3    3    0    0 -0.11119034272E+02  0.21335047345E+02 -0.52622990506E+03  0.52677958402E+03  0.00000000000E+00 0.  1.
          3    1    3    3  501    0 -0.76469576345E+01  0.98697870119E+01 -0.23632870711E+03  0.23665829050E+03  0.00000000000E+00 0.  1.
         -3    1    1    2    0  502  0.18765991907E+02 -0.31204834357E+02 -0.23560313396E+03  0.23840037934E+03  0.00000000000E+00 0. -1.
<mgrwt>
<rscale>  1 0.30000000E+03</rscale>
<asrwt>0</asrwt>
<pdfrwt beam="1">  1       21 0.66845736E-02 0.30000000E+03</pdfrwt>
<pdfrwt beam="2">0</pdfrwt>
<totfact> 0.17480936E+04</totfact>
</mgrwt>
</event>
<event>
 6    1  0.1280499E-001  0.3000000E+03  0.7818608E-02  0.1093470E+00
         21   -1    0    0  501  502  0.00000000000E+00  0.00000000000E+00  0.16662816160E+01  0.16662816160E+01  0.00000000000E+00 0. -1.
         13   -1    0    0    0    0 -0.00000000000E+00 -0.00000000000E+00 -0.10000000000E+04  0.10000000000E+04  0.00000000000E+00 0.  1.
    9000005    2    1    2  501    0 -0.37765814707E+02  0.14865229176E+02 -0.54496746293E+03  0.54648698356E+03  0.33549580881E+01 0.  0.
         13    1    3    3    0    0 -0.23393585354E+01  0.23500975641E+00 -0.38035208510E+02  0.38107806475E+02  0.00000000000E+00 0.  1.
          1    1    3    3  501    0 -0.35426456172E+02  0.14630219419E+02 -0.50693225442E+03  0.50837917708E+03  0.00000000000E+00 0.  1.
         -1    1    1    2    0  502  0.37765814707E+02 -0.14865229176E+02 -0.45336625545E+03  0.45517929806E+03  0.00000000000E+00 0. -1.
<mgrwt>
<rscale>  1 0.30000000E+03</rscale>
<asrwt>0</asrwt>
<pdfrwt beam="1">  1       21 0.60592187E-02 0.30000000E+03</pdfrwt>
<pdfrwt beam="2">0</pdfrwt>
<totfact> 0.20717682E+04</totfact>
</mgrwt>
</event>
<event>
 6    1  0.1280499E-001  0.3000000E+03  0.7818608E-02  0.1093470E+00
         21   -1    0    0  501  502  0.00000000000E+00  0.00000000000E+00  0.11974599312E+01  0.11974599312E+01  0.00000000000E+00 0. -1.
         13   -1    0    0    0    0 -0.00000000000E+00 -0.00000000000E+00 -0.10000000000E+04  0.10000000000E+04  0.00000000000E+00 0.  1.
    9000005    2    1    2  501    0 -0.17632456790E+02  0.24909706929E+02 -0.73450589395E+03  0.73514461898E+03  0.27028739410E+01 0.  0.
         13    1    3    3    0    0 -0.16251689984E+02  0.23809677342E+02 -0.68176967049E+03  0.68237885501E+03  0.00000000000E+00 0.  1.
          1    1    3    3  501    0 -0.13807668056E+01  0.11000295864E+01 -0.52736223459E+02  0.52765763965E+02  0.00000000000E+00 0.  1.
         -1    1    1    2    0  502  0.17632456790E+02 -0.24909706929E+02 -0.26429664612E+03  0.26605284096E+03  0.00000000000E+00 0. -1.
<mgrwt>
<rscale>  1 0.30000000E+03</rscale>
<asrwt>0</asrwt>
<pdfrwt beam="1">  1       21 0.43544089E-02 0.30000000E+03</pdfrwt>
<pdfrwt beam="2">0</pdfrwt>
<totfact> 0.36433348E+04</totfact>
</mgrwt>
</event>
<event>
 6    1  0.1280499E-001  0.3000000E+03  0.7818608E-02  0.1093470E+00
         21   -1    0    0  501  502  0.00000000000E+00  0.00000000000E+00  0.21073037764E+01  0.21073037764E+01  0.00000000000E+00 0. -1.
         13   -1    0    0    0    0 -0.00000000000E+00 -0.00000000000E+00 -0.10000000000E+04  0.10000000000E+04  0.00000000000E+00 0.  1.
    9000005    2    1    2  501    0 -0.43482791269E+02  0.84681698419E+00 -0.34183162620E+03  0.34460627881E+03  0.36271872079E+01 0.  0.
         13    1    3    3    0    0 -0.27247765444E+02  0.22500927952E+01 -0.21141118880E+03  0.21317174857E+03  0.00000000000E+00 0.  1.
          3    1    3    3  501    0 -0.16235025825E+02 -0.14032758110E+01 -0.13042043741E+03  0.13143453024E+03  0.00000000000E+00 0.  1.
         -3    1    1    2    0  502  0.43482791269E+02 -0.84681698419E+00 -0.65606107002E+03  0.65750102496E+03  0.00000000000E+00 0. -1.
<mgrwt>
<rscale>  1 0.30000000E+03</rscale>
<asrwt>0</asrwt>
<pdfrwt beam="1">  1       21 0.76629390E-02 0.30000000E+03</pdfrwt>
<pdfrwt beam="2">0</pdfrwt>
<totfact> 0.13775934E+04</totfact>
</mgrwt>
</event>
<event>
 6    1  0.1280499E-001  0.3000000E+03  0.7818608E-02  0.1093470E+00
         21   -1    0    0  501  502  0.00000000000E+00  0.00000000000E+00  0.27538276633E+01  0.27538276633E+01  0.00000000000E+00 0. -1.
         13   -1    0    0    0    0 -0.00000000000E+00 -0.00000000000E+00 -0.10000000000E+04  0.10000000000E+04  0.00000000000E+00 0.  1.
    9000005    2    1    2  501    0  0.35635634536E+02 -0.37956967361E+02 -0.46771641229E+03  0.47067075464E+03  0.78541155007E+01 0.  0.
         13    1    3    3    0    0  0.33302519418E+02 -0.34545151005E+02 -0.40809851407E+03  0.41090974976E+03  0.00000000000E+00 0.  1.
          3    1    3    3  501    0  0.23331151178E+01 -0.34118163558E+01 -0.59617898215E+02  0.59761004883E+02  0.00000000000E+00 0.  1.
         -1    1    1    2    0  502 -0.35635634536E+02  0.37956967361E+02 -0.52952976005E+03  0.53208307302E+03  0.00000000000E+00 0. -1.
<mgrwt>
<rscale>  1 0.30000000E+03</rscale>
<asrwt>0</asrwt>
<pdfrwt beam="1">  1       21 0.10013940E-01 0.30000000E+03</pdfrwt>
<pdfrwt beam="2">0</pdfrwt>
<totfact> 0.85818092E+03</totfact>
</mgrwt>
</event>
<event>
 6    1  0.1280499E-001  0.3000000E+03  0.7818608E-02  0.1093470E+00
         21   -1    0    0  501  502  0.00000000000E+00  0.00000000000E+00  0.99052623803E+00  0.99052623803E+00  0.00000000000E+00 0. -1.
         13   -1    0    0    0    0 -0.00000000000E+00 -0.00000000000E+00 -0.10000000000E+04  0.10000000000E+04  0.00000000000E+00 0.  1.
    9000005    2    1    2  501    0  0.30641971431E+02  0.38068694783E+01 -0.59145537451E+03  0.59226841223E+03  0.29982346831E+01 0.  0.
         13    1    3    3    0    0  0.17708003698E+02  0.35190352957E+01 -0.35757854871E+03  0.35803404238E+03  0.00000000000E+00 0.  1.
          1    1    3    3  501    0  0.12933967733E+02  0.28783418260E+00 -0.23387682581E+03  0.23423436985E+03  0.00000000000E+00 0.  1.
         -1    1    1    2    0  502 -0.30641971431E+02 -0.38068694783E+01 -0.40755409925E+03  0.40872211401E+03  0.00000000000E+00 0. -1.
<mgrwt>
<rscale>  1 0.30000000E+03</rscale>
<asrwt>0</asrwt>
<pdfrwt beam="1">  1       21 0.36019212E-02 0.30000000E+03</pdfrwt>
<pdfrwt beam="2">0</pdfrwt>
<totfact> 0.50145426E+04</totfact>
</mgrwt>
</event>
<event>
 6    1  0.1280499E-001  0.3000000E+03  0.7818608E-02  0.1093470E+00
         21   -1    0    0  501  502  0.00000000000E+00  0.00000000000E+00  0.15062218783E+01  0.15062218783E+01  0.00000000000E+00 0. -1.
         13   -1    0    0    0    0 -0.00000000000E+00 -0.00000000000E+00 -0.10000000000E+04  0.10000000000E+04  0.00000000000E+00 0.  1.
    9000005    2    1    2  501    0  0.24889661325E+02 -0.27711731453E+02 -0.36521953114E+03  0.36713747487E+03  0.41453854789E+01 0.  0.
         13    1    3    3    0    0  0.23278058843E+02 -0.25773536986E+02 -0.32825311017E+03  0.33008521258E+03  0.00000000000E+00 0.  1.
          3    1    3    3  501    0  0.16116024814E+01 -0.19381944670E+01 -0.36966420977E+02  0.37052262282E+02  0.00000000000E+00 0.  1.
         -3    1    1    2    0  502 -0.24889661325E+02  0.27711731453E+02 -0.63327424698E+03  0.63436874701E+03  0.00000000000E+00 0. -1.
<mgrwt>
<rscale>  1 0.30000000E+03</rscale>
<asrwt>0</asrwt>
<pdfrwt beam="1">  1       21 0.54771820E-02 0.30000000E+03</pdfrwt>
<pdfrwt beam="2">0</pdfrwt>
<totfact> 0.24649210E+04</totfact>
</mgrwt>
</event>
<event>
 6    1  0.1280499E-001  0.3000000E+03  0.7818608E-02  0.1093470E+00
         21   -1    0    0  501  502  0.00000000000E+00  0.00000000000E+00  0.15588737053E+02  0.15588737053E+02  0.00000000000E+00 0. -1.
         13   -1    0    0    0    0 -0.00000000000E+00 -0.00000000000E+00 -0.10000000000E+04  0.10000000000E+04  0.00000000000E+00 0.  1.
    9000005    2    1    2  501    0  0.61940928576E+01 -0.76864435246E+02 -0.89155121326E+03  0.89488456554E+03  0.28829828035E+01 0.  0.
         13    1    3    3    0    0  0.57743444876E+00 -0.66437465917E+01 -0.68215913448E+02  0.68541109175E+02  0.00000000000E+00 0.  1.
          3    1    3    3  501    0  0.56166584088E+01 -0.70220688654E+02 -0.82333529981E+03  0.82634345637E+03  0.00000000000E+00 0.  1.
         -3    1    1    2    0  502 -0.61940928576E+01  0.76864435246E+02 -0.92860049688E+02  0.12070417151E+03  0.00000000000E+00 0. -1.
<mgrwt>
<rscale>  1 0.30000000E+03</rscale>
<asrwt>0</asrwt>
<pdfrwt beam="1">  1       21 0.56686436E-01 0.30000000E+03</pdfrwt>
<pdfrwt beam="2">0</pdfrwt>
<totfact> 0.28512456E+02</totfact>
</mgrwt>
</event>
<event>
 6    1  0.1280499E-001  0.3000000E+03  0.7818608E-02  0.1093470E+00
         21   -1    0    0  501  502  0.00000000000E+00  0.00000000000E+00  0.28093421546E+01  0.28093421546E+01  0.00000000000E+00 0. -1.
         13   -1    0    0    0    0 -0.00000000000E+00 -0.00000000000E+00 -0.10000000000E+04  0.10000000000E+04  0.00000000000E+00 0.  1.
    9000005    2    1    2  501    0 -0.36648495379E+02  0.28619709177E+02 -0.73881540215E+03  0.74028320493E+03  0.29707053750E+01 0.  0.
         13    1    3    3    0    0 -0.33740279742E+02  0.26679625924E+02 -0.67036020111E+03  0.67173879458E+03  0.00000000000E+00 0.  1.
          3    1    3    3  501    0 -0.29082156372E+01  0.19400832527E+01 -0.68455201039E+02  0.68544410352E+02  0.00000000000E+00 0.  1.
         -3    1    1    2    0  502  0.36648495379E+02 -0.28619709177E+02 -0.25837525570E+03  0.26252613722E+03  0.00000000000E+00 0. -1.
<mgrwt>
<rscale>  1 0.30000000E+03</rscale>
<asrwt>0</asrwt>
<pdfrwt beam="1">  1       21 0.10215811E-01 0.30000000E+03</pdfrwt>
<pdfrwt beam="2">0</pdfrwt>
<totfact> 0.82809468E+03</totfact>
</mgrwt>
</event>
<event>
 6    1  0.1280499E-001  0.3000000E+03  0.7818608E-02  0.1093470E+00
         21   -1    0    0  501  502  0.00000000000E+00  0.00000000000E+00  0.11001057236E+01  0.11001057236E+01  0.00000000000E+00 0. -1.
         13   -1    0    0    0    0 -0.00000000000E+00 -0.00000000000E+00 -0.10000000000E+04  0.10000000000E+04  0.00000000000E+00 0.  1.
    9000005    2    1    2  501    0  0.22801659934E+01  0.32921341340E+02 -0.49373907179E+03  0.49486254247E+03  0.46530695838E+01 0.  0.
         13    1    3    3    0    0 -0.89213909710E+00  0.20132500235E+01 -0.26329638267E+02  0.26421562011E+02  0.00000000000E+00 0.  1.
          1    1    3    3  501    0  0.31723050905E+01  0.30908091316E+02 -0.46740943352E+03  0.46844098046E+03  0.00000000000E+00 0.  1.
         -3    1    1    2    0  502 -0.22801659934E+01 -0.32921341340E+02 -0.50516082249E+03  0.50623756325E+03  0.00000000000E+00 0. -1.
<mgrwt>
<rscale>  1 0.30000000E+03</rscale>
<asrwt>0</asrwt>
<pdfrwt beam="1">  1       21 0.40003929E-02 0.30000000E+03</pdfrwt>
<pdfrwt beam="2">0</pdfrwt>
<totfact> 0.42040369E+04</totfact>
</mgrwt>
</event>
<event>
 6    1  0.1280499E-001  0.3000000E+03  0.7818608E-02  0.1093470E+00
         21   -1    0    0  501  502  0.00000000000E+00  0.00000000000E+00  0.24829300225E+01  0.24829300225E+01  0.00000000000E+00 0. -1.
         13   -1    0    0    0    0 -0.00000000000E+00 -0.00000000000E+00 -0.10000000000E+04  0.10000000000E+04  0.00000000000E+00 0.  1.
    9000005    2    1    2  501    0 -0.30494561728E+02  0.37773763916E+02 -0.38887337174E+03  0.39190621335E+03  0.33474289246E+01 0.  0.
         13    1    3    3    0    0 -0.20555265974E+02  0.22980479486E+02 -0.24308534598E+03  0.24503286887E+03  0.00000000000E+00 0.  1.
          1    1    3    3  501    0 -0.99392957546E+01  0.14793284430E+02 -0.14578802576E+03  0.14687334448E+03  0.00000000000E+00 0.  1.
         -3    1    1    2    0  502  0.30494561728E+02 -0.37773763916E+02 -0.60864369824E+03  0.61057671667E+03  0.00000000000E+00 0. -1.
<mgrwt>
<rscale>  1 0.30000000E+03</rscale>
<asrwt>0</asrwt>
<pdfrwt beam="1">  1       21 0.90288555E-02 0.30000000E+03</pdfrwt>
<pdfrwt beam="2">0</pdfrwt>
<totfact> 0.10319392E+04</totfact>
</mgrwt>
</event>
<event>
 6    1  0.1280499E-001  0.3000000E+03  0.7818608E-02  0.1093470E+00
         21   -1    0    0  501  502  0.00000000000E+00  0.00000000000E+00  0.23134159205E+01  0.23134159205E+01  0.00000000000E+00 0. -1.
         13   -1    0    0    0    0 -0.00000000000E+00 -0.00000000000E+00 -0.10000000000E+04  0.10000000000E+04  0.00000000000E+00 0.  1.
    9000005    2    1    2  501    0  0.13556249379E+01  0.42589453716E+02 -0.73055535584E+03  0.73180501977E+03  0.34292460151E+01 0.  0.
         13    1    3    3    0    0  0.18379101520E+01  0.21305249569E+02 -0.34445738834E+03  0.34512053540E+03  0.00000000000E+00 0.  1.
          3    1    3    3  501    0 -0.48228521411E+00  0.21284204147E+02 -0.38609796751E+03  0.38668448438E+03  0.00000000000E+00 0.  1.
         -3    1    1    2    0  502 -0.13556249379E+01 -0.42589453716E+02 -0.26713122824E+03  0.27050839615E+03  0.00000000000E+00 0. -1.
<mgrwt>
<rscale>  1 0.30000000E+03</rscale>
<asrwt>0</asrwt>
<pdfrwt beam="1">  1       21 0.84124393E-02 0.30000000E+03</pdfrwt>
<pdfrwt beam="2">0</pdfrwt>
<totfact> 0.11692746E+04</totfact>
</mgrwt>
</event>
<event>
 6    1  0.1280499E-001  0.3000000E+03  0.7818608E-02  0.1093470E+00
         21   -1    0    0  501  502  0.00000000000E+00  0.00000000000E+00  0.25576676221E+01  0.25576676221E+01  0.00000000000E+00 0. -1.
         13   -1    0    0    0    0 -0.00000000000E+00 -0.00000000000E+00 -0.10000000000E+04  0.10000000000E+04  0.00000000000E+00 0.  1.
    9000005    2    1    2  501    0 -0.16115403054E+02  0.28721692914E+02 -0.11950672090E+03  0.12400455042E+03  0.32604176238E+01 0.  0.
         13    1    3    3    0    0 -0.24768642936E+01  0.35304337467E+01 -0.19804712468E+02  0.20268829644E+02  0.00000000000E+00 0.  1.
          1    1    3    3  501    0 -0.13638538760E+02  0.25191259167E+02 -0.99702008437E+02  0.10373572077E+03  0.00000000000E+00 0.  1.
         -3    1    1    2    0  502  0.16115403054E+02 -0.28721692914E+02 -0.87793561147E+03  0.87855311721E+03  0.00000000000E+00 0. -1.
<mgrwt>
<rscale>  1 0.30000000E+03</rscale>
<asrwt>0</asrwt>
<pdfrwt beam="1">  1       21 0.93006291E-02 0.30000000E+03</pdfrwt>
<pdfrwt beam="2">0</pdfrwt>
<totfact> 0.97903138E+03</totfact>
</mgrwt>
</event>
<event>
 6    1  0.1280499E-001  0.3000000E+03  0.7818608E-02  0.1093470E+00
         21   -1    0    0  501  502  0.00000000000E+00  0.00000000000E+00  0.13701775856E+01  0.13701775856E+01  0.00000000000E+00 0. -1.
         13   -1    0    0    0    0 -0.00000000000E+00 -0.00000000000E+00 -0.10000000000E+04  0.10000000000E+04  0.00000000000E+00 0.  1.
    9000005    2    1    2  501    0  0.16277359417E+02 -0.25482173236E+02 -0.78746149226E+03  0.78804798642E+03  0.31198605604E+01 0.  0.
         13    1    3    3    0    0  0.10562186395E+02 -0.15230905724E+02 -0.44645815470E+03  0.44684272867E+03  0.00000000000E+00 0.  1.
          1    1    3    3  501    0  0.57151730215E+01 -0.10251267512E+02 -0.34100333757E+03  0.34120525775E+03  0.00000000000E+00 0.  1.
         -3    1    1    2    0  502 -0.16277359417E+02  0.25482173236E+02 -0.21116833015E+03  0.21332219116E+03  0.00000000000E+00 0. -1.
<mgrwt>
<rscale>  1 0.30000000E+03</rscale>
<asrwt>0</asrwt>
<pdfrwt beam="1">  1       21 0.49824745E-02 0.30000000E+03</pdfrwt>
<pdfrwt beam="2">0</pdfrwt>
<totfact> 0.28977575E+04</totfact>
</mgrwt>
</event>
<event>
 6    1  0.1280499E-001  0.3000000E+03  0.7818608E-02  0.1093470E+00
         21   -1    0    0  501  502  0.00000000000E+00  0.00000000000E+00  0.94320151022E+00  0.94320151022E+00  0.00000000000E+00 0. -1.
         13   -1    0    0    0    0 -0.00000000000E+00 -0.00000000000E+00 -0.10000000000E+04  0.10000000000E+04  0.00000000000E+00 0.  1.
    9000005    2    1    2  501    0  0.30586338599E+02  0.10750618642E+01 -0.48745592068E+03  0.48842770122E+03  0.34153830585E+01 0.  0.
         13    1    3    3    0    0  0.21945943796E+02  0.19975733341E+01 -0.33439864217E+03  0.33512395712E+03  0.00000000000E+00 0.  1.
          1    1    3    3  501    0  0.86403948039E+01 -0.92251146988E+00 -0.15305727851E+03  0.15330374410E+03  0.00000000000E+00 0.  1.
         -1    1    1    2    0  502 -0.30586338599E+02 -0.10750618642E+01 -0.51160087781E+03  0.51251550029E+03  0.00000000000E+00 0. -1.
<mgrwt>
<rscale>  1 0.30000000E+03</rscale>
<asrwt>0</asrwt>
<pdfrwt beam="1">  1       21 0.34298309E-02 0.30000000E+03</pdfrwt>
<pdfrwt beam="2">0</pdfrwt>
<totfact> 0.54430382E+04</totfact>
</mgrwt>
</event>
<event>
 6    1  0.1280499E-001  0.3000000E+03  0.7818608E-02  0.1093470E+00
         21   -1    0    0  501  502  0.00000000000E+00  0.00000000000E+00  0.17511728033E+01  0.17511728033E+01  0.00000000000E+00 0. -1.
         13   -1    0    0    0    0 -0.00000000000E+00 -0.00000000000E+00 -0.10000000000E+04  0.10000000000E+04  0.00000000000E+00 0.  1.
    9000005    2    1    2  501    0 -0.41768368834E+02 -0.11003386224E+01 -0.49121159793E+03  0.49299527924E+03  0.31151283803E+01 0.  0.
         13    1    3    3    0    0 -0.34222739748E+02 -0.13367053998E+01 -0.41489908932E+03  0.41631026533E+03  0.00000000000E+00 0.  1.
          3    1    3    3  501    0 -0.75456290866E+01  0.23636677738E+00 -0.76312508615E+02  0.76685013912E+02  0.00000000000E+00 0.  1.
         -1    1    1    2    0  502  0.41768368834E+02  0.11003386224E+01 -0.50703722926E+03  0.50875589357E+03  0.00000000000E+00 0. -1.
<mgrwt>
<rscale>  1 0.30000000E+03</rscale>
<asrwt>0</asrwt>
<pdfrwt beam="1">  1       21 0.63679145E-02 0.30000000E+03</pdfrwt>
<pdfrwt beam="2">0</pdfrwt>
<totfact> 0.19013647E+04</totfact>
</mgrwt>
</event>
<event>
 6    1  0.1280499E-001  0.3000000E+03  0.7818608E-02  0.1093470E+00
         21   -1    0    0  501  502  0.00000000000E+00  0.00000000000E+00  0.39571755930E+01  0.39571755930E+01  0.00000000000E+00 0. -1.
         13   -1    0    0    0    0 -0.00000000000E+00 -0.00000000000E+00 -0.10000000000E+04  0.10000000000E+04  0.00000000000E+00 0.  1.
    9000005    2    1    2  501    0  0.48463224003E+02 -0.97668850443E+01 -0.80819818541E+03  0.80971587071E+03  0.33776099944E+01 0.  0.
         13    1    3    3    0    0  0.19269252831E+02 -0.22918976167E+01 -0.30790708530E+03  0.30851795747E+03  0.00000000000E+00 0.  1.
          3    1    3    3  501    0  0.29193971171E+02 -0.74749874275E+01 -0.50029110011E+03  0.50119791324E+03  0.00000000000E+00 0.  1.
         -1    1    1    2    0  502 -0.48463224003E+02  0.97668850443E+01 -0.18784463900E+03  0.19424130489E+03  0.00000000000E+00 0. -1.
<mgrwt>
<rscale>  1 0.30000000E+03</rscale>
<asrwt>0</asrwt>
<pdfrwt beam="1">  1       21 0.14389760E-01 0.30000000E+03</pdfrwt>
<pdfrwt beam="2">0</pdfrwt>
<totfact> 0.44462807E+03</totfact>
</mgrwt>
</event>
<event>
 6    1  0.1280499E-001  0.3000000E+03  0.7818608E-02  0.1093470E+00
         21   -1    0    0  501  502  0.00000000000E+00  0.00000000000E+00  0.16144026844E+01  0.16144026844E+01  0.00000000000E+00 0. -1.
         13   -1    0    0    0    0 -0.00000000000E+00 -0.00000000000E+00 -0.10000000000E+04  0.10000000000E+04  0.00000000000E+00 0.  1.
    9000005    2    1    2  501    0 -0.19216419961E+02 -0.31365626069E+02 -0.30097349245E+03  0.30323290428E+03  0.34753112374E+01 0.  0.
         13    1    3    3    0    0 -0.18768736482E+02 -0.31046039975E+02 -0.29864015981E+03  0.30083561478E+03  0.00000000000E+00 0.  1.
          3    1    3    3  501    0 -0.44768347856E+00 -0.31958609439E+00 -0.23333326345E+01  0.23972895010E+01  0.00000000000E+00 0.  1.
         -1    1    1    2    0  502  0.19216419961E+02  0.31365626069E+02 -0.69741210487E+03  0.69838149840E+03  0.00000000000E+00 0. -1.
<mgrwt>
<rscale>  1 0.30000000E+03</rscale>
<asrwt>0</asrwt>
<pdfrwt beam="1">  1       21 0.58705676E-02 0.30000000E+03</pdfrwt>
<pdfrwt beam="2">0</pdfrwt>
<totfact> 0.21878948E+04</totfact>
</mgrwt>
</event>
<event>
 6    1  0.1280499E-001  0.3000000E+03  0.7818608E-02  0.1093470E+00
         21   -1    0    0  501  502  0.00000000000E+00  0.00000000000E+00  0.39135916973E+01  0.39135916973E+01  0.00000000000E+00 0. -1.
         13   -1    0    0    0    0 -0.00000000000E+00 -0.00000000000E+00 -0.10000000000E+04  0.10000000000E+04  0.00000000000E+00 0.  1.
    9000005    2    1    2  501    0  0.25538180029E+02  0.23551399283E+02 -0.91541721916E+03  0.91608201921E+03  0.32731867574E+01 0.  0.
         13    1    3    3    0    0  0.18764010120E+02  0.15281657340E+02 -0.62831417981E+03  0.62878002964E+03  0.00000000000E+00 0.  1.
          3    1    3    3  501    0  0.67741699089E+01  0.82697419430E+01 -0.28710303935E+03  0.28730198958E+03  0.00000000000E+00 0.  1.
         -3    1    1    2    0  502 -0.25538180029E+02 -0.23551399283E+02 -0.80669189145E+02  0.87831572482E+02  0.00000000000E+00 0. -1.
<mgrwt>
<rscale>  1 0.30000000E+03</rscale>
<asrwt>0</asrwt>
<pdfrwt beam="1">  1       21 0.14231273E-01 0.30000000E+03</pdfrwt>
<pdfrwt beam="2">0</pdfrwt>
<totfact> 0.45378812E+03</totfact>
</mgrwt>
</event>
<event>
 6    1  0.1280499E-001  0.3000000E+03  0.7818608E-02  0.1093470E+00
         21   -1    0    0  501  502  0.00000000000E+00  0.00000000000E+00  0.51973895774E+01  0.51973895774E+01  0.00000000000E+00 0. -1.
         13   -1    0    0    0    0 -0.00000000000E+00 -0.00000000000E+00 -0.10000000000E+04  0.10000000000E+04  0.00000000000E+00 0.  1.
    9000005    2    1    2  501    0 -0.47522006856E+02  0.93443873446E+01 -0.86958321327E+03  0.87093810263E+03  0.35433158200E+01 0.  0.
         13    1    3    3    0    0 -0.21472317337E+02  0.57741760342E+01 -0.38246462111E+03  0.38311041218E+03  0.00000000000E+00 0.  1.
          3    1    3    3  501    0 -0.26049689519E+02  0.35702113103E+01 -0.48711859216E+03  0.48782769045E+03  0.00000000000E+00 0.  1.
         -3    1    1    2    0  502  0.47522006856E+02 -0.93443873446E+01 -0.12521939715E+03  0.13425928695E+03  0.00000000000E+00 0. -1.
<mgrwt>
<rscale>  1 0.30000000E+03</rscale>
<asrwt>0</asrwt>
<pdfrwt beam="1">  1       21 0.18899638E-01 0.30000000E+03</pdfrwt>
<pdfrwt beam="2">0</pdfrwt>
<totfact> 0.26717659E+03</totfact>
</mgrwt>
</event>
<event>
 6    1  0.1280499E-001  0.3000000E+03  0.7818608E-02  0.1093470E+00
         21   -1    0    0  501  502  0.00000000000E+00  0.00000000000E+00  0.16449677255E+01  0.16449677255E+01  0.00000000000E+00 0. -1.
         13   -1    0    0    0    0 -0.00000000000E+00 -0.00000000000E+00 -0.10000000000E+04  0.10000000000E+04  0.00000000000E+00 0.  1.
    9000005    2    1    2  501    0  0.38201838507E+02 -0.99954135242E+01 -0.61040426639E+03  0.61168973247E+03  0.34163751290E+01 0.  0.
         13    1    3    3    0    0  0.19102041570E+02 -0.58366578661E+01 -0.33167420551E+03  0.33227508659E+03  0.00000000000E+00 0.  1.
          3    1    3    3  501    0  0.19099796937E+02 -0.41587556581E+01 -0.27873006089E+03  0.27941464588E+03  0.00000000000E+00 0.  1.
         -1    1    1    2    0  502 -0.38201838507E+02  0.99954135242E+01 -0.38795076588E+03  0.38995523526E+03  0.00000000000E+00 0. -1.
<mgrwt>
<rscale>  1 0.30000000E+03</rscale>
<asrwt>0</asrwt>
<pdfrwt beam="1">  1       21 0.59817134E-02 0.30000000E+03</pdfrwt>
<pdfrwt beam="2">0</pdfrwt>
<totfact> 0.21182879E+04</totfact>
</mgrwt>
</event>
<event>
 6    1  0.1280499E-001  0.3000000E+03  0.7818608E-02  0.1093470E+00
         21   -1    0    0  501  502  0.00000000000E+00  0.00000000000E+00  0.17750733232E+01  0.17750733232E+01  0.00000000000E+00 0. -1.
         13   -1    0    0    0    0 -0.00000000000E+00 -0.00000000000E+00 -0.10000000000E+04  0.10000000000E+04  0.00000000000E+00 0.  1.
    9000005    2    1    2  501    0  0.29140342531E+02  0.13285761286E+02 -0.82418225901E+03  0.82481032773E+03  0.31638015349E+01 0.  0.
         13    1    3    3    0    0  0.26554862959E+02  0.11050625705E+02 -0.73385910268E+03  0.73442253482E+03  0.00000000000E+00 0.  1.
          1    1    3    3  501    0  0.25854795727E+01  0.22351355810E+01 -0.90323156339E+02  0.90387792908E+02  0.00000000000E+00 0.  1.
         -3    1    1    2    0  502 -0.29140342531E+02 -0.13285761286E+02 -0.17404266766E+03  0.17696474559E+03  0.00000000000E+00 0. -1.
<mgrwt>
<rscale>  1 0.30000000E+03</rscale>
<asrwt>0</asrwt>
<pdfrwt beam="1">  1       21 0.64548257E-02 0.30000000E+03</pdfrwt>
<pdfrwt beam="2">0</pdfrwt>
<totfact> 0.18572920E+04</totfact>
</mgrwt>
</event>
<event>
 6    1  0.1280499E-001  0.3000000E+03  0.7818608E-02  0.1093470E+00
         21   -1    0    0  501  502  0.00000000000E+00  0.00000000000E+00  0.24320579569E+01  0.24320579569E+01  0.00000000000E+00 0. -1.
         13   -1    0    0    0    0 -0.00000000000E+00 -0.00000000000E+00 -0.10000000000E+04  0.10000000000E+04  0.00000000000E+00 0.  1.
    9000005    2    1    2  501    0  0.32580465277E+01 -0.35830580389E+02 -0.83879127585E+03  0.83963010746E+03  0.10652114949E+02 0.  0.
         13    1    3    3    0    0  0.12822722671E+01 -0.26697701879E+02 -0.70860775544E+03  0.70911167144E+03  0.00000000000E+00 0.  1.
          3    1    3    3  501    0  0.19757742606E+01 -0.91328785104E+01 -0.13018352041E+03  0.13051843602E+03  0.00000000000E+00 0.  1.
         -3    1    1    2    0  502 -0.32580465277E+01  0.35830580389E+02 -0.15877666619E+03  0.16280195050E+03  0.00000000000E+00 0. -1.
<mgrwt>
<rscale>  1 0.30000000E+03</rscale>
<asrwt>0</asrwt>
<pdfrwt beam="1">  1       21 0.88438658E-02 0.30000000E+03</pdfrwt>
<pdfrwt beam="2">0</pdfrwt>
<totfact> 0.10704642E+04</totfact>
</mgrwt>
</event>
<event>
 6    1  0.1280499E-001  0.3000000E+03  0.7818608E-02  0.1093470E+00
         21   -1    0    0  501  502  0.00000000000E+00  0.00000000000E+00  0.13028721512E+01  0.13028721512E+01  0.00000000000E+00 0. -1.
         13   -1    0    0    0    0 -0.00000000000E+00 -0.00000000000E+00 -0.10000000000E+04  0.10000000000E+04  0.00000000000E+00 0.  1.
    9000005    2    1    2  501    0  0.34941564730E+02 -0.72633433353E+01 -0.56825676557E+03  0.56938554838E+03  0.32375880199E+01 0.  0.
         13    1    3    3    0    0  0.23936409766E+02 -0.57344319634E+01 -0.37016828729E+03  0.37098570907E+03  0.00000000000E+00 0.  1.
          1    1    3    3  501    0  0.11005154964E+02 -0.15289113720E+01 -0.19808847829E+03  0.19839983931E+03  0.00000000000E+00 0.  1.
         -3    1    1    2    0  502 -0.34941564730E+02  0.72633433353E+01 -0.43044036227E+03  0.43191732378E+03  0.00000000000E+00 0. -1.
<mgrwt>
<rscale>  1 0.30000000E+03</rscale>
<asrwt>0</asrwt>
<pdfrwt beam="1">  1       21 0.47377269E-02 0.30000000E+03</pdfrwt>
<pdfrwt beam="2">0</pdfrwt>
<totfact> 0.31572171E+04</totfact>
</mgrwt>
</event>
<event>
 6    1  0.1280499E-001  0.3000000E+03  0.7818608E-02  0.1093470E+00
         21   -1    0    0  501  502  0.00000000000E+00  0.00000000000E+00  0.32151488961E+01  0.32151488961E+01  0.00000000000E+00 0. -1.
         13   -1    0    0    0    0 -0.00000000000E+00 -0.00000000000E+00 -0.10000000000E+04  0.10000000000E+04  0.00000000000E+00 0.  1.
    9000005    2    1    2  501    0 -0.26692025961E+02 -0.21501375725E+02 -0.89786594556E+03  0.89852645188E+03  0.34285758621E+01 0.  0.
         13    1    3    3    0    0 -0.18022161988E+02 -0.16511281401E+02 -0.63920323754E+03  0.63967038357E+03  0.00000000000E+00 0.  1.
          3    1    3    3  501    0 -0.86698639724E+01 -0.49900943237E+01 -0.25866270802E+03  0.25885606831E+03  0.00000000000E+00 0.  1.
         -1    1    1    2    0  502  0.26692025961E+02  0.21501375725E+02 -0.98918905549E+02  0.10468869702E+03  0.00000000000E+00 0. -1.
<mgrwt>
<rscale>  1 0.30000000E+03</rscale>
<asrwt>0</asrwt>
<pdfrwt beam="1">  1       21 0.11691475E-01 0.30000000E+03</pdfrwt>
<pdfrwt beam="2">0</pdfrwt>
<totfact> 0.64966576E+03</totfact>
</mgrwt>
</event>
<event>
 6    1  0.1280499E-001  0.3000000E+03  0.7818608E-02  0.1093470E+00
         21   -1    0    0  501  502  0.00000000000E+00  0.00000000000E+00  0.14559003405E+01  0.14559003405E+01  0.00000000000E+00 0. -1.
         13   -1    0    0    0    0 -0.00000000000E+00 -0.00000000000E+00 -0.10000000000E+04  0.10000000000E+04  0.00000000000E+00 0.  1.
    9000005    2    1    2  501    0 -0.19315623621E+02 -0.23060932812E+02 -0.80676572939E+03  0.80733263218E+03  0.31838540565E+01 0.  0.
         13    1    3    3    0    0 -0.56073632631E+01 -0.85240836847E+01 -0.29842265905E+03  0.29859702939E+03  0.00000000000E+00 0.  1.
          3    1    3    3  501    0 -0.13708260358E+02 -0.14536849128E+02 -0.50834307034E+03  0.50873560279E+03  0.00000000000E+00 0.  1.
         -1    1    1    2    0  502  0.19315623621E+02  0.23060932812E+02 -0.19177837027E+03  0.19412326816E+03  0.00000000000E+00 0. -1.
<mgrwt>
<rscale>  1 0.30000000E+03</rscale>
<asrwt>0</asrwt>
<pdfrwt beam="1">  1       21 0.52941942E-02 0.30000000E+03</pdfrwt>
<pdfrwt beam="2">0</pdfrwt>
<totfact> 0.26125791E+04</totfact>
</mgrwt>
</event>
<event>
 6    1  0.1280499E-001  0.3000000E+03  0.7818608E-02  0.1093470E+00
         21   -1    0    0  501  502  0.00000000000E+00  0.00000000000E+00  0.16512971658E+01  0.16512971658E+01  0.00000000000E+00 0. -1.
         13   -1    0    0    0    0 -0.00000000000E+00 -0.00000000000E+00 -0.10000000000E+04  0.10000000000E+04  0.00000000000E+00 0.  1.
    9000005    2    1    2  501    0  0.90509531102E+01 -0.38802540118E+02 -0.59520721085E+03  0.59654560796E+03  0.27352606060E+01 0.  0.
         13    1    3    3    0    0  0.45201624393E+01 -0.18310681671E+02 -0.26171961703E+03  0.26239830577E+03  0.00000000000E+00 0.  1.
          1    1    3    3  501    0  0.45307906709E+01 -0.20491858448E+02 -0.33348759383E+03  0.33414730219E+03  0.00000000000E+00 0.  1.
         -1    1    1    2    0  502 -0.90509531102E+01  0.38802540118E+02 -0.40314149198E+03  0.40510568921E+03  0.00000000000E+00 0. -1.
<mgrwt>
<rscale>  1 0.30000000E+03</rscale>
<asrwt>0</asrwt>
<pdfrwt beam="1">  1       21 0.60047296E-02 0.30000000E+03</pdfrwt>
<pdfrwt beam="2">0</pdfrwt>
<totfact> 0.21043049E+04</totfact>
</mgrwt>
</event>
<event>
 6    1  0.1280499E-001  0.3000000E+03  0.7818608E-02  0.1093470E+00
         21   -1    0    0  501  502  0.00000000000E+00  0.00000000000E+00  0.14923516144E+01  0.14923516144E+01  0.00000000000E+00 0. -1.
         13   -1    0    0    0    0 -0.00000000000E+00 -0.00000000000E+00 -0.10000000000E+04  0.10000000000E+04  0.00000000000E+00 0.  1.
    9000005    2    1    2  501    0 -0.42258771671E+01  0.29723967404E+02 -0.81395337677E+03  0.81451200118E+03  0.28858688283E+01 0.  0.
         13    1    3    3    0    0 -0.98390071136E+00  0.19564333040E+01 -0.52761819573E+02  0.52807246629E+02  0.00000000000E+00 0.  1.
          1    1    3    3  501    0 -0.32419764558E+01  0.27767534100E+02 -0.76119155720E+03  0.76170475455E+03  0.00000000000E+00 0.  1.
         -3    1    1    2    0  502  0.42258771671E+01 -0.29723967404E+02 -0.18455427162E+03  0.18698035043E+03  0.00000000000E+00 0. -1.
<mgrwt>
<rscale>  1 0.30000000E+03</rscale>
<asrwt>0</asrwt>
<pdfrwt beam="1">  1       21 0.54267446E-02 0.30000000E+03</pdfrwt>
<pdfrwt beam="2">0</pdfrwt>
<totfact> 0.25043085E+04</totfact>
</mgrwt>
</event>
<event>
 6    1  0.1280499E-001  0.3000000E+03  0.7818608E-02  0.1093470E+00
         21   -1    0    0  501  502  0.00000000000E+00  0.00000000000E+00  0.16692792742E+01  0.16692792742E+01  0.00000000000E+00 0. -1.
         13   -1    0    0    0    0 -0.00000000000E+00 -0.00000000000E+00 -0.10000000000E+04  0.10000000000E+04  0.00000000000E+00 0.  1.
    9000005    2    1    2  501    0 -0.97343041091E+01 -0.38743904928E+02 -0.59876630021E+03  0.60011284116E+03  0.43003508363E+01 0.  0.
         13    1    3    3    0    0 -0.96029688459E+01 -0.36270421084E+02 -0.57326334903E+03  0.57448988485E+03  0.00000000000E+00 0.  1.
          3    1    3    3  501    0 -0.13133526320E+00 -0.24734838442E+01 -0.25502951181E+02  0.25622956313E+02  0.00000000000E+00 0.  1.
         -3    1    1    2    0  502  0.97343041091E+01  0.38743904928E+02 -0.39956442052E+03  0.40155643811E+03  0.00000000000E+00 0. -1.
<mgrwt>
<rscale>  1 0.30000000E+03</rscale>
<asrwt>0</asrwt>
<pdfrwt beam="1">  1       21 0.60701193E-02 0.30000000E+03</pdfrwt>
<pdfrwt beam="2">0</pdfrwt>
<totfact> 0.20653532E+04</totfact>
</mgrwt>
</event>
<event>
 6    1  0.1280499E-001  0.3000000E+03  0.7818608E-02  0.1093470E+00
         21   -1    0    0  501  502  0.00000000000E+00  0.00000000000E+00  0.34170627627E+01  0.34170627627E+01  0.00000000000E+00 0. -1.
         13   -1    0    0    0    0 -0.00000000000E+00 -0.00000000000E+00 -0.10000000000E+04  0.10000000000E+04  0.00000000000E+00 0.  1.
    9000005    2    1    2  501    0  0.40083567512E+02 -0.48493072005E+01 -0.86099644176E+03  0.86194655021E+03  0.26027944046E+01 0.  0.
         13    1    3    3    0    0  0.14061974676E+02 -0.73908003600E+00 -0.28328284137E+03  0.28363260318E+03  0.00000000000E+00 0.  1.
          1    1    3    3  501    0  0.26021592836E+02 -0.41102271645E+01 -0.57771360039E+03  0.57831394703E+03  0.00000000000E+00 0.  1.
         -3    1    1    2    0  502 -0.40083567512E+02  0.48493072005E+01 -0.13558649548E+03  0.14147051255E+03  0.00000000000E+00 0. -1.
<mgrwt>
<rscale>  1 0.30000000E+03</rscale>
<asrwt>0</asrwt>
<pdfrwt beam="1">  1       21 0.12425709E-01 0.30000000E+03</pdfrwt>
<pdfrwt beam="2">0</pdfrwt>
<totfact> 0.58164923E+03</totfact>
</mgrwt>
</event>
<event>
 6    1  0.1280499E-001  0.3000000E+03  0.7818608E-02  0.1093470E+00
         21   -1    0    0  501  502  0.00000000000E+00  0.00000000000E+00  0.29502067082E+01  0.29502067082E+01  0.00000000000E+00 0. -1.
         13   -1    0    0    0    0 -0.00000000000E+00 -0.00000000000E+00 -0.10000000000E+04  0.10000000000E+04  0.00000000000E+00 0.  1.
    9000005    2    1    2  501    0 -0.40309670096E+01 -0.34757855428E+02 -0.88180355392E+03  0.88250913025E+03  0.45276992202E+01 0.  0.
         13    1    3    3    0    0 -0.14563728165E+01 -0.72216865652E+01 -0.23290121232E+03  0.23301769992E+03  0.00000000000E+00 0.  1.
          1    1    3    3  501    0 -0.25745941931E+01 -0.27536168862E+02 -0.64890234161E+03  0.64949143033E+03  0.00000000000E+00 0.  1.
         -1    1    1    2    0  502  0.40309670096E+01  0.34757855428E+02 -0.11524623937E+03  0.12044107646E+03  0.00000000000E+00 0. -1.
<mgrwt>
<rscale>  1 0.30000000E+03</rscale>
<asrwt>0</asrwt>
<pdfrwt beam="1">  1       21 0.10728047E-01 0.30000000E+03</pdfrwt>
<pdfrwt beam="2">0</pdfrwt>
<totfact> 0.75857588E+03</totfact>
</mgrwt>
</event>
<event>
 6    1  0.1280499E-001  0.3000000E+03  0.7818608E-02  0.1093470E+00
         21   -1    0    0  501  502  0.00000000000E+00  0.00000000000E+00  0.11391368373E+01  0.11391368373E+01  0.00000000000E+00 0. -1.
         13   -1    0    0    0    0 -0.00000000000E+00 -0.00000000000E+00 -0.10000000000E+04  0.10000000000E+04  0.00000000000E+00 0.  1.
    9000005    2    1    2  501    0  0.22268486608E+02 -0.24009346166E+02 -0.58711554899E+03  0.58809369388E+03  0.87858251821E+01 0.  0.
         13    1    3    3    0    0  0.17123169924E+02 -0.22391948129E+02 -0.51899597266E+03  0.51976092766E+03  0.00000000000E+00 0.  1.
          1    1    3    3  501    0  0.51453166840E+01 -0.16173980374E+01 -0.68119576330E+02  0.68332766222E+02  0.00000000000E+00 0.  1.
         -1    1    1    2    0  502 -0.22268486608E+02  0.24009346166E+02 -0.41174531418E+03  0.41304544295E+03  0.00000000000E+00 0. -1.
<mgrwt>
<rscale>  1 0.30000000E+03</rscale>
<asrwt>0</asrwt>
<pdfrwt beam="1">  1       21 0.41423245E-02 0.30000000E+03</pdfrwt>
<pdfrwt beam="2">0</pdfrwt>
<totfact> 0.39640953E+04</totfact>
</mgrwt>
</event>
<event>
 6    1  0.1280499E-001  0.3000000E+03  0.7818608E-02  0.1093470E+00
         21   -1    0    0  501  502  0.00000000000E+00  0.00000000000E+00  0.45699887111E+01  0.45699887111E+01  0.00000000000E+00 0. -1.
         13   -1    0    0    0    0 -0.00000000000E+00 -0.00000000000E+00 -0.10000000000E+04  0.10000000000E+04  0.00000000000E+00 0.  1.
    9000005    2    1    2  501    0  0.35760997796E+02 -0.80609423390E+00 -0.92386206997E+03  0.92456080814E+03  0.34734513794E+01 0.  0.
         13    1    3    3    0    0  0.63448621582E+01  0.86561626308E+00 -0.18840908929E+03  0.18851788110E+03  0.00000000000E+00 0.  1.
          1    1    3    3  501    0  0.29416135638E+02 -0.16717104970E+01 -0.73545298068E+03  0.73604292704E+03  0.00000000000E+00 0.  1.
         -1    1    1    2    0  502 -0.35760997796E+02  0.80609423390E+00 -0.71567941317E+02  0.80009180571E+02  0.00000000000E+00 0. -1.
<mgrwt>
<rscale>  1 0.30000000E+03</rscale>
<asrwt>0</asrwt>
<pdfrwt beam="1">  1       21 0.16618176E-01 0.30000000E+03</pdfrwt>
<pdfrwt beam="2">0</pdfrwt>
<totfact> 0.34031402E+03</totfact>
</mgrwt>
</event>
<event>
 6    1  0.1280499E-001  0.3000000E+03  0.7818608E-02  0.1093470E+00
         21   -1    0    0  501  502  0.00000000000E+00  0.00000000000E+00  0.28552044766E+01  0.28552044766E+01  0.00000000000E+00 0. -1.
         13   -1    0    0    0    0 -0.00000000000E+00 -0.00000000000E+00 -0.10000000000E+04  0.10000000000E+04  0.00000000000E+00 0.  1.
    9000005    2    1    2  501    0  0.30185438323E+02  0.33558718825E+02 -0.23226450379E+03  0.23664426160E+03  0.40445683722E+01 0.  0.
         13    1    3    3    0    0  0.24452031753E+02  0.28718781257E+02 -0.19914661107E+03  0.20268705670E+03  0.00000000000E+00 0.  1.
          3    1    3    3  501    0  0.57334065698E+01  0.48399375681E+01 -0.33117892725E+02  0.33957204907E+02  0.00000000000E+00 0.  1.
         -1    1    1    2    0  502 -0.30185438323E+02 -0.33558718825E+02 -0.76488029173E+03  0.76621094287E+03  0.00000000000E+00 0. -1.
<mgrwt>
<rscale>  1 0.30000000E+03</rscale>
<asrwt>0</asrwt>
<pdfrwt beam="1">  1       21 0.10382584E-01 0.30000000E+03</pdfrwt>
<pdfrwt beam="2">0</pdfrwt>
<totfact> 0.80443419E+03</totfact>
</mgrwt>
</event>
<event>
 6    1  0.1280499E-001  0.3000000E+03  0.7818608E-02  0.1093470E+00
         21   -1    0    0  501  502  0.00000000000E+00  0.00000000000E+00  0.12499329391E+01  0.12499329391E+01  0.00000000000E+00 0. -1.
         13   -1    0    0    0    0 -0.00000000000E+00 -0.00000000000E+00 -0.10000000000E+04  0.10000000000E+04  0.00000000000E+00 0.  1.
    9000005    2    1    2  501    0 -0.21778671731E+02 -0.27061028157E+02 -0.41283412583E+03  0.41430521665E+03  0.31917564103E+01 0.  0.
         13    1    3    3    0    0 -0.68461868225E+01 -0.62634210854E+01 -0.11075634847E+03  0.11114436307E+03  0.00000000000E+00 0.  1.
          1    1    3    3  501    0 -0.14932484909E+02 -0.20797607072E+02 -0.30207777736E+03  0.30316085357E+03  0.00000000000E+00 0.  1.
         -3    1    1    2    0  502  0.21778671731E+02  0.27061028157E+02 -0.58591594124E+03  0.58694471629E+03  0.00000000000E+00 0. -1.
<mgrwt>
<rscale>  1 0.30000000E+03</rscale>
<asrwt>0</asrwt>
<pdfrwt beam="1">  1       21 0.45452203E-02 0.30000000E+03</pdfrwt>
<pdfrwt beam="2">0</pdfrwt>
<totfact> 0.33878236E+04</totfact>
</mgrwt>
</event>
<event>
 6    1  0.1280499E-001  0.3000000E+03  0.7818608E-02  0.1093470E+00
         21   -1    0    0  501  502  0.00000000000E+00  0.00000000000E+00  0.21024980957E+01  0.21024980957E+01  0.00000000000E+00 0. -1.
         13   -1    0    0    0    0 -0.00000000000E+00 -0.00000000000E+00 -0.10000000000E+04  0.10000000000E+04  0.00000000000E+00 0.  1.
    9000005    2    1    2  501    0  0.24346956172E+01 -0.44856296854E+02 -0.40432411216E+03  0.40683164871E+03  0.39984511704E+01 0.  0.
         13    1    3    3    0    0  0.10258227772E+01 -0.70990528595E+01 -0.53473175750E+02  0.53952102727E+02  0.00000000000E+00 0.  1.
          3    1    3    3  501    0  0.14088728401E+01 -0.37757243994E+02 -0.35085093641E+03  0.35287954599E+03  0.00000000000E+00 0.  1.
         -1    1    1    2    0  502 -0.24346956172E+01  0.44856296854E+02 -0.59357338975E+03  0.59527084938E+03  0.00000000000E+00 0. -1.
<mgrwt>
<rscale>  1 0.30000000E+03</rscale>
<asrwt>0</asrwt>
<pdfrwt beam="1">  1       21 0.76454637E-02 0.30000000E+03</pdfrwt>
<pdfrwt beam="2">0</pdfrwt>
<totfact> 0.13831162E+04</totfact>
</mgrwt>
</event>
<event>
 6    1  0.1280499E-001  0.3000000E+03  0.7818608E-02  0.1093470E+00
         21   -1    0    0  501  502  0.00000000000E+00  0.00000000000E+00  0.39030179554E+01  0.39030179554E+01  0.00000000000E+00 0. -1.
         13   -1    0    0    0    0 -0.00000000000E+00 -0.00000000000E+00 -0.10000000000E+04  0.10000000000E+04  0.00000000000E+00 0.  1.
    9000005    2    1    2  501    0  0.10230341133E+02 -0.44448668571E+02 -0.84080357739E+03  0.84205004286E+03  0.41563101856E+01 0.  0.
         13    1    3    3    0    0  0.53182804550E+01 -0.19397752251E+02 -0.40559414015E+03  0.40609255524E+03  0.00000000000E+00 0.  1.
          3    1    3    3  501    0  0.49120606781E+01 -0.25050916320E+02 -0.43520943724E+03  0.43595748762E+03  0.00000000000E+00 0.  1.
         -3    1    1    2    0  502 -0.10230341133E+02  0.44448668571E+02 -0.15529340466E+03  0.16185297510E+03  0.00000000000E+00 0. -1.
<mgrwt>
<rscale>  1 0.30000000E+03</rscale>
<asrwt>0</asrwt>
<pdfrwt beam="1">  1       21 0.14192822E-01 0.30000000E+03</pdfrwt>
<pdfrwt beam="2">0</pdfrwt>
<totfact> 0.45605274E+03</totfact>
</mgrwt>
</event>
<event>
 6    1  0.1280499E-001  0.3000000E+03  0.7818608E-02  0.1093470E+00
         21   -1    0    0  501  502  0.00000000000E+00  0.00000000000E+00  0.29762453015E+01  0.29762453015E+01  0.00000000000E+00 0. -1.
         13   -1    0    0    0    0 -0.00000000000E+00 -0.00000000000E+00 -0.10000000000E+04  0.10000000000E+04  0.00000000000E+00 0.  1.
    9000005    2    1    2  501    0 -0.32282347633E+02 -0.25524943425E+02 -0.82721890002E+03  0.82825543550E+03  0.47207179895E+01 0.  0.
         13    1    3    3    0    0 -0.32175134540E+02 -0.25704531207E+02 -0.82481780865E+03  0.82584525165E+03  0.00000000000E+00 0.  1.
          3    1    3    3  501    0 -0.10721309306E+00  0.17958778214E+00 -0.24010913724E+01  0.24101838514E+01  0.00000000000E+00 0.  1.
         -1    1    1    2    0  502  0.32282347633E+02  0.25524943425E+02 -0.16980485468E+03  0.17472080980E+03  0.00000000000E+00 0. -1.
<mgrwt>
<rscale>  1 0.30000000E+03</rscale>
<asrwt>0</asrwt>
<pdfrwt beam="1">  1       21 0.10822733E-01 0.30000000E+03</pdfrwt>
<pdfrwt beam="2">0</pdfrwt>
<totfact> 0.74669753E+03</totfact>
</mgrwt>
</event>
<event>
 6    1  0.1280499E-001  0.3000000E+03  0.7818608E-02  0.1093470E+00
         21   -1    0    0  501  502  0.00000000000E+00  0.00000000000E+00  0.16091022852E+01  0.16091022852E+01  0.00000000000E+00 0. -1.
         13   -1    0    0    0    0 -0.00000000000E+00 -0.00000000000E+00 -0.10000000000E+04  0.10000000000E+04  0.00000000000E+00 0.  1.
    9000005    2    1    2  501    0  0.12217741581E+02 -0.27700186695E+02 -0.82732758547E+03  0.82788739855E+03  0.31681930158E+01 0.  0.
         13    1    3    3    0    0  0.37188523813E+01 -0.97455375022E+01 -0.24774195859E+03  0.24796145549E+03  0.00000000000E+00 0.  1.
          3    1    3    3  501    0  0.84988892000E+01 -0.17954649193E+02 -0.57958562688E+03  0.57992594306E+03  0.00000000000E+00 0.  1.
         -1    1    1    2    0  502 -0.12217741581E+02  0.27700186695E+02 -0.17106331224E+03  0.17372170373E+03  0.00000000000E+00 0. -1.
<mgrwt>
<rscale>  1 0.30000000E+03</rscale>
<asrwt>0</asrwt>
<pdfrwt beam="1">  1       21 0.58512934E-02 0.30000000E+03</pdfrwt>
<pdfrwt beam="2">0</pdfrwt>
<totfact> 0.22003282E+04</totfact>
</mgrwt>
</event>
<event>
 6    1  0.1280499E-001  0.3000000E+03  0.7818608E-02  0.1093470E+00
         21   -1    0    0  501  502  0.00000000000E+00  0.00000000000E+00  0.12539014053E+01  0.12539014053E+01  0.00000000000E+00 0. -1.
         13   -1    0    0    0    0 -0.00000000000E+00 -0.00000000000E+00 -0.10000000000E+04  0.10000000000E+04  0.00000000000E+00 0.  1.
    9000005    2    1    2  501    0 -0.32756378916E+02  0.18672291588E+01 -0.68569210857E+03  0.68648530771E+03  0.34558713335E+01 0.  0.
         13    1    3    3    0    0 -0.18789533919E+02  0.11654856070E+01 -0.42839202819E+03  0.42880547426E+03  0.00000000000E+00 0.  1.
          1    1    3    3  501    0 -0.13966844997E+02  0.70174355189E+00 -0.25730008038E+03  0.25767983345E+03  0.00000000000E+00 0.  1.
         -3    1    1    2    0  502  0.32756378916E+02 -0.18672291588E+01 -0.31305399003E+03  0.31476859369E+03  0.00000000000E+00 0. -1.
<mgrwt>
<rscale>  1 0.30000000E+03</rscale>
<asrwt>0</asrwt>
<pdfrwt beam="1">  1       21 0.45596511E-02 0.30000000E+03</pdfrwt>
<pdfrwt beam="2">0</pdfrwt>
<totfact> 0.33696332E+04</totfact>
</mgrwt>
</event>
<event>
 6    1  0.1280499E-001  0.3000000E+03  0.7818608E-02  0.1093470E+00
         21   -1    0    0  501  502  0.00000000000E+00  0.00000000000E+00  0.35932053933E+01  0.35932053933E+01  0.00000000000E+00 0. -1.
         13   -1    0    0    0    0 -0.00000000000E+00 -0.00000000000E+00 -0.10000000000E+04  0.10000000000E+04  0.00000000000E+00 0.  1.
    9000005    2    1    2  501    0  0.31832115628E+02 -0.15707406976E+02 -0.90249917715E+03  0.90320074135E+03  0.26092545508E+01 0.  0.
         13    1    3    3    0    0  0.43887989394E+00 -0.28906362044E+00 -0.23754463825E+02  0.23760276197E+02  0.00000000000E+00 0.  1.
          1    1    3    3  501    0  0.31393235734E+02 -0.15418343356E+02 -0.87874471332E+03  0.87944046515E+03  0.00000000000E+00 0.  1.
         -3    1    1    2    0  502 -0.31832115628E+02  0.15707406976E+02 -0.93907617460E+02  0.10039246404E+03  0.00000000000E+00 0. -1.
<mgrwt>
<rscale>  1 0.30000000E+03</rscale>
<asrwt>0</asrwt>
<pdfrwt beam="1">  1       21 0.13066229E-01 0.30000000E+03</pdfrwt>
<pdfrwt beam="2">0</pdfrwt>
<totfact> 0.53070380E+03</totfact>
</mgrwt>
</event>
<event>
 6    1  0.1280499E-001  0.3000000E+03  0.7818608E-02  0.1093470E+00
         21   -1    0    0  501  502  0.00000000000E+00  0.00000000000E+00  0.12758106366E+02  0.12758106366E+02  0.00000000000E+00 0. -1.
         13   -1    0    0    0    0 -0.00000000000E+00 -0.00000000000E+00 -0.10000000000E+04  0.10000000000E+04  0.00000000000E+00 0.  1.
    9000005    2    1    2  501    0  0.22108825433E+02  0.26820817793E+02 -0.97542015189E+03  0.97604421244E+03  0.31105466812E+01 0.  0.
         13    1    3    3    0    0  0.15048274332E+02  0.19290512695E+02 -0.71998960803E+03  0.72040517080E+03  0.00000000000E+00 0.  1.
          3    1    3    3  501    0  0.70605511015E+01  0.75303050977E+01 -0.25543054386E+03  0.25563904165E+03  0.00000000000E+00 0.  1.
         -3    1    1    2    0  502 -0.22108825433E+02 -0.26820817793E+02 -0.11821741742E+02  0.36713893922E+02  0.00000000000E+00 0. -1.
<mgrwt>
<rscale>  1 0.30000000E+03</rscale>
<asrwt>0</asrwt>
<pdfrwt beam="1">  1       21 0.46393212E-01 0.30000000E+03</pdfrwt>
<pdfrwt beam="2">0</pdfrwt>
<totfact> 0.44142578E+02</totfact>
</mgrwt>
</event>
<event>
 6    1  0.1280499E-001  0.3000000E+03  0.7818608E-02  0.1093470E+00
         21   -1    0    0  501  502  0.00000000000E+00  0.00000000000E+00  0.15609812931E+01  0.15609812931E+01  0.00000000000E+00 0. -1.
         13   -1    0    0    0    0 -0.00000000000E+00 -0.00000000000E+00 -0.10000000000E+04  0.10000000000E+04  0.00000000000E+00 0.  1.
    9000005    2    1    2  501    0  0.81302248892E+01 -0.36906530607E+02 -0.64314665901E+03  0.64426439103E+03  0.32845074171E+01 0.  0.
         13    1    3    3    0    0  0.59127166633E+01 -0.19588526392E+02 -0.35543810996E+03  0.35602657288E+03  0.00000000000E+00 0.  1.
          1    1    3    3  501    0  0.22175082259E+01 -0.17318004215E+02 -0.28770854905E+03  0.28823781815E+03  0.00000000000E+00 0.  1.
         -3    1    1    2    0  502 -0.81302248892E+01  0.36906530607E+02 -0.35529235970E+03  0.35729659027E+03  0.00000000000E+00 0. -1.
<mgrwt>
<rscale>  1 0.30000000E+03</rscale>
<asrwt>0</asrwt>
<pdfrwt beam="1">  1       21 0.56763076E-02 0.30000000E+03</pdfrwt>
<pdfrwt beam="2">0</pdfrwt>
<totfact> 0.23183685E+04</totfact>
</mgrwt>
</event>
<event>
 6    1  0.1280499E-001  0.3000000E+03  0.7818608E-02  0.1093470E+00
         21   -1    0    0  501  502  0.00000000000E+00  0.00000000000E+00  0.13934732322E+01  0.13934732322E+01  0.00000000000E+00 0. -1.
         13   -1    0    0    0    0 -0.00000000000E+00 -0.00000000000E+00 -0.10000000000E+04  0.10000000000E+04  0.00000000000E+00 0.  1.
    9000005    2    1    2  501    0 -0.98998949526E+01  0.34493189157E+02 -0.63507932694E+03  0.63609932733E+03  0.29689561007E+01 0.  0.
         13    1    3    3    0    0 -0.23972326547E+01  0.58288695334E+01 -0.12797938741E+03  0.12813448422E+03  0.00000000000E+00 0.  1.
          1    1    3    3  501    0 -0.75026622979E+01  0.28664319624E+02 -0.50709993953E+03  0.50796484311E+03  0.00000000000E+00 0.  1.
         -1    1    1    2    0  502  0.98998949526E+01 -0.34493189157E+02 -0.36352719982E+03  0.36529414590E+03  0.00000000000E+00 0. -1.
<mgrwt>
<rscale>  1 0.30000000E+03</rscale>
<asrwt>0</asrwt>
<pdfrwt beam="1">  1       21 0.50671861E-02 0.30000000E+03</pdfrwt>
<pdfrwt beam="2">0</pdfrwt>
<totfact> 0.28156414E+04</totfact>
</mgrwt>
</event>
<event>
 6    1  0.1280499E-001  0.3000000E+03  0.7818608E-02  0.1093470E+00
         21   -1    0    0  501  502  0.00000000000E+00  0.00000000000E+00  0.10476753571E+01  0.10476753571E+01  0.00000000000E+00 0. -1.
         13   -1    0    0    0    0 -0.00000000000E+00 -0.00000000000E+00 -0.10000000000E+04  0.10000000000E+04  0.00000000000E+00 0.  1.
    9000005    2    1    2  501    0  0.31154396808E+02 -0.67925420715E+01 -0.42028142362E+03  0.42149893128E+03  0.28528868892E+01 0.  0.
         13    1    3    3    0    0  0.71065770261E+01 -0.92634504370E+00 -0.10852523507E+03  0.10876161179E+03  0.00000000000E+00 0.  1.
          1    1    3    3  501    0  0.24047819782E+02 -0.58661970278E+01 -0.31175618854E+03  0.31273731949E+03  0.00000000000E+00 0.  1.
         -1    1    1    2    0  502 -0.31154396808E+02  0.67925420715E+01 -0.57867090103E+03  0.57954874408E+03  0.00000000000E+00 0. -1.
<mgrwt>
<rscale>  1 0.30000000E+03</rscale>
<asrwt>0</asrwt>
<pdfrwt beam="1">  1       21 0.38097366E-02 0.30000000E+03</pdfrwt>
<pdfrwt beam="2">0</pdfrwt>
<totfact> 0.45639424E+04</totfact>
</mgrwt>
</event>
<event>
 6    1  0.1280499E-001  0.3000000E+03  0.7818608E-02  0.1093470E+00
         21   -1    0    0  501  502  0.00000000000E+00  0.00000000000E+00  0.13693380532E+01  0.13693380532E+01  0.00000000000E+00 0. -1.
         13   -1    0    0    0    0 -0.00000000000E+00 -0.00000000000E+00 -0.10000000000E+04  0.10000000000E+04  0.00000000000E+00 0.  1.
    9000005    2    1    2  501    0  0.38912393980E+01 -0.33362052742E+02 -0.69751364986E+03  0.69838481159E+03  0.93747006946E+01 0.  0.
         13    1    3    3    0    0  0.23517583599E+01 -0.33242703908E+02 -0.66815388701E+03  0.66898447280E+03  0.00000000000E+00 0.  1.
          1    1    3    3  501    0  0.15394810381E+01 -0.11934883393E+00 -0.29359762851E+02  0.29400338785E+02  0.00000000000E+00 0.  1.
         -1    1    1    2    0  502 -0.38912393980E+01  0.33362052742E+02 -0.30111701209E+03  0.30298452646E+03  0.00000000000E+00 0. -1.
<mgrwt>
<rscale>  1 0.30000000E+03</rscale>
<asrwt>0</asrwt>
<pdfrwt beam="1">  1       21 0.49794216E-02 0.30000000E+03</pdfrwt>
<pdfrwt beam="2">0</pdfrwt>
<totfact> 0.29007862E+04</totfact>
</mgrwt>
</event>
<event>
 6    1  0.1280499E-001  0.3000000E+03  0.7818608E-02  0.1093470E+00
         21   -1    0    0  501  502  0.00000000000E+00  0.00000000000E+00  0.42680529367E+01  0.42680529367E+01  0.00000000000E+00 0. -1.
         13   -1    0    0    0    0 -0.00000000000E+00 -0.00000000000E+00 -0.10000000000E+04  0.10000000000E+04  0.00000000000E+00 0.  1.
    9000005    2    1    2  501    0 -0.34115608549E+02  0.28616151475E+02 -0.86517699229E+03  0.86632837377E+03  0.32961104453E+01 0.  0.
         13    1    3    3    0    0 -0.86816861056E+01  0.91002472291E+01 -0.23408124104E+03  0.23441888486E+03  0.00000000000E+00 0.  1.
          1    1    3    3  501    0 -0.25433922443E+02  0.19515904246E+02 -0.63109575126E+03  0.63190948892E+03  0.00000000000E+00 0.  1.
         -1    1    1    2    0  502  0.34115608549E+02 -0.28616151475E+02 -0.13055495477E+03  0.13793967916E+03  0.00000000000E+00 0. -1.
<mgrwt>
<rscale>  1 0.30000000E+03</rscale>
<asrwt>0</asrwt>
<pdfrwt beam="1">  1       21 0.15520225E-01 0.30000000E+03</pdfrwt>
<pdfrwt beam="2">0</pdfrwt>
<totfact> 0.38656829E+03</totfact>
</mgrwt>
</event>
<event>
 6    1  0.1280499E-001  0.3000000E+03  0.7818608E-02  0.1093470E+00
         21   -1    0    0  501  502  0.00000000000E+00  0.00000000000E+00  0.15284244156E+01  0.15284244156E+01  0.00000000000E+00 0. -1.
         13   -1    0    0    0    0 -0.00000000000E+00 -0.00000000000E+00 -0.10000000000E+04  0.10000000000E+04  0.00000000000E+00 0.  1.
    9000005    2    1    2  501    0  0.24376316673E+02  0.20388286346E+02 -0.79034808261E+03  0.79099273774E+03  0.30874654581E+01 0.  0.
         13    1    3    3    0    0  0.68615535858E+01  0.40711056260E+01 -0.18826394788E+03  0.18843292942E+03  0.00000000000E+00 0.  1.
          3    1    3    3  501    0  0.17514763087E+02  0.16317180721E+02 -0.60208413473E+03  0.60255980832E+03  0.00000000000E+00 0.  1.
         -1    1    1    2    0  502 -0.24376316673E+02 -0.20388286346E+02 -0.20812349298E+03  0.21053568667E+03  0.00000000000E+00 0. -1.
<mgrwt>
<rscale>  1 0.30000000E+03</rscale>
<asrwt>0</asrwt>
<pdfrwt beam="1">  1       21 0.55579187E-02 0.30000000E+03</pdfrwt>
<pdfrwt beam="2">0</pdfrwt>
<totfact> 0.24038293E+04</totfact>
</mgrwt>
</event>
<event>
 6    1  0.1280499E-001  0.3000000E+03  0.7818608E-02  0.1093470E+00
         21   -1    0    0  501  502  0.00000000000E+00  0.00000000000E+00  0.14385534100E+02  0.14385534100E+02  0.00000000000E+00 0. -1.
         13   -1    0    0    0    0 -0.00000000000E+00 -0.00000000000E+00 -0.10000000000E+04  0.10000000000E+04  0.00000000000E+00 0.  1.
    9000005    2    1    2  501    0  0.99233866097E+02 -0.39052795279E+02 -0.72462744852E+03  0.73245166909E+03  0.52940911762E+01 0.  0.
         13    1    3    3    0    0  0.64661443719E+02 -0.22911355792E+02 -0.47200039295E+03  0.47695954070E+03  0.00000000000E+00 0.  1.
          3    1    3    3  501    0  0.34572422377E+02 -0.16141439487E+02 -0.25262705558E+03  0.25549212839E+03  0.00000000000E+00 0.  1.
         -3    1    1    2    0  502 -0.99233866097E+02  0.39052795279E+02 -0.26098701738E+03  0.28193386501E+03  0.00000000000E+00 0. -1.
<mgrwt>
<rscale>  1 0.30000000E+03</rscale>
<asrwt>0</asrwt>
<pdfrwt beam="1">  1       21 0.52311143E-01 0.30000000E+03</pdfrwt>
<pdfrwt beam="2">0</pdfrwt>
<totfact> 0.34049626E+02</totfact>
</mgrwt>
</event>
<event>
 6    1  0.1280499E-001  0.3000000E+03  0.7818608E-02  0.1093470E+00
         21   -1    0    0  501  502  0.00000000000E+00  0.00000000000E+00  0.22475428651E+01  0.22475428651E+01  0.00000000000E+00 0. -1.
         13   -1    0    0    0    0 -0.00000000000E+00 -0.00000000000E+00 -0.10000000000E+04  0.10000000000E+04  0.00000000000E+00 0.  1.
    9000005    2    1    2  501    0 -0.37595272457E+02 -0.28290581063E+02 -0.44129189166E+03  0.44380137498E+03  0.27139101799E+01 0.  0.
         13    1    3    3    0    0 -0.31655904526E+02 -0.23570892902E+02 -0.36044868954E+03  0.36260300754E+03  0.00000000000E+00 0.  1.
          3    1    3    3  501    0 -0.59393679307E+01 -0.47196881608E+01 -0.80843202116E+02  0.81198367447E+02  0.00000000000E+00 0.  1.
         -3    1    1    2    0  502  0.37595272457E+02  0.28290581063E+02 -0.55646056548E+03  0.55844616788E+03  0.00000000000E+00 0. -1.
<mgrwt>
<rscale>  1 0.30000000E+03</rscale>
<asrwt>0</asrwt>
<pdfrwt beam="1">  1       21 0.81729004E-02 0.30000000E+03</pdfrwt>
<pdfrwt beam="2">0</pdfrwt>
<totfact> 0.12302726E+04</totfact>
</mgrwt>
</event>
<event>
 6    1  0.1280499E-001  0.3000000E+03  0.7818608E-02  0.1093470E+00
         21   -1    0    0  501  502  0.00000000000E+00  0.00000000000E+00  0.21084234156E+01  0.21084234156E+01  0.00000000000E+00 0. -1.
         13   -1    0    0    0    0 -0.00000000000E+00 -0.00000000000E+00 -0.10000000000E+04  0.10000000000E+04  0.00000000000E+00 0.  1.
    9000005    2    1    2  501    0  0.35722484649E+02 -0.27830112067E+02 -0.57023120618E+03  0.57205725964E+03  0.59387509084E+01 0.  0.
         13    1    3    3    0    0  0.15555178012E+02 -0.15725318868E+02 -0.28694499219E+03  0.28779624348E+03  0.00000000000E+00 0.  1.
          1    1    3    3  501    0  0.20167306637E+02 -0.12104793199E+02 -0.28328621399E+03  0.28426101616E+03  0.00000000000E+00 0.  1.
         -3    1    1    2    0  502 -0.35722484649E+02  0.27830112067E+02 -0.42766037041E+03  0.43005116378E+03  0.00000000000E+00 0. -1.
<mgrwt>
<rscale>  1 0.30000000E+03</rscale>
<asrwt>0</asrwt>
<pdfrwt beam="1">  1       21 0.76670104E-02 0.30000000E+03</pdfrwt>
<pdfrwt beam="2">0</pdfrwt>
<totfact> 0.13763116E+04</totfact>
</mgrwt>
</event>
<event>
 6    1  0.1280499E-001  0.3000000E+03  0.7818608E-02  0.1093470E+00
         21   -1    0    0  501  502  0.00000000000E+00  0.00000000000E+00  0.15047850388E+01  0.15047850388E+01  0.00000000000E+00 0. -1.
         13   -1    0    0    0    0 -0.00000000000E+00 -0.00000000000E+00 -0.10000000000E+04  0.10000000000E+04  0.00000000000E+00 0.  1.
    9000005    2    1    2  501    0  0.11643613198E+02 -0.31770963290E+02 -0.74319886298E+03  0.74397576692E+03  0.32286216353E+01 0.  0.
         13    1    3    3    0    0  0.99198841529E+01 -0.29333433222E+02 -0.68739758505E+03  0.68809468414E+03  0.00000000000E+00 0.  1.
          3    1    3    3  501    0  0.17237290447E+01 -0.24375300677E+01 -0.55801277926E+02  0.55881082782E+02  0.00000000000E+00 0.  1.
         -1    1    1    2    0  502 -0.11643613198E+02  0.31770963290E+02 -0.25529635198E+03  0.25752901812E+03  0.00000000000E+00 0. -1.
<mgrwt>
<rscale>  1 0.30000000E+03</rscale>
<asrwt>0</asrwt>
<pdfrwt beam="1">  1       21 0.54719571E-02 0.30000000E+03</pdfrwt>
<pdfrwt beam="2">0</pdfrwt>
<totfact> 0.24689567E+04</totfact>
</mgrwt>
</event>
<event>
 6    1  0.1280499E-001  0.3000000E+03  0.7818608E-02  0.1093470E+00
         21   -1    0    0  501  502  0.00000000000E+00  0.00000000000E+00  0.22515944312E+01  0.22515944312E+01  0.00000000000E+00 0. -1.
         13   -1    0    0    0    0 -0.00000000000E+00 -0.00000000000E+00 -0.10000000000E+04  0.10000000000E+04  0.00000000000E+00 0.  1.
    9000005    2    1    2  501    0  0.28162618008E+02  0.20537881185E+02 -0.83866125891E+03  0.83939074018E+03  0.30281810341E+01 0.  0.
         13    1    3    3    0    0  0.20559790955E+02  0.13695369111E+02 -0.61398115084E+03  0.61447792615E+03  0.00000000000E+00 0.  1.
          1    1    3    3  501    0  0.76028270529E+01  0.68425120735E+01 -0.22468010807E+03  0.22491281402E+03  0.00000000000E+00 0.  1.
         -3    1    1    2    0  502 -0.28162618008E+02 -0.20537881185E+02 -0.15908714666E+03  0.16286085425E+03  0.00000000000E+00 0. -1.
<mgrwt>
<rscale>  1 0.30000000E+03</rscale>
<asrwt>0</asrwt>
<pdfrwt beam="1">  1       21 0.81876334E-02 0.30000000E+03</pdfrwt>
<pdfrwt beam="2">0</pdfrwt>
<totfact> 0.12263817E+04</totfact>
</mgrwt>
</event>
<event>
 6    1  0.1280499E-001  0.3000000E+03  0.7818608E-02  0.1093470E+00
         21   -1    0    0  501  502  0.00000000000E+00  0.00000000000E+00  0.37377966036E+01  0.37377966036E+01  0.00000000000E+00 0. -1.
         13   -1    0    0    0    0 -0.00000000000E+00 -0.00000000000E+00 -0.10000000000E+04  0.10000000000E+04  0.00000000000E+00 0.  1.
    9000005    2    1    2  501    0  0.22106568304E+02 -0.44011314464E+02 -0.20207162240E+03  0.20802153115E+03  0.37842674118E+01 0.  0.
         13    1    3    3    0    0  0.22997782679E+01 -0.36634935913E+01 -0.13969852912E+02  0.14624190773E+02  0.00000000000E+00 0.  1.
          1    1    3    3  501    0  0.19806790036E+02 -0.40347820873E+02 -0.18810176948E+03  0.19339734037E+03  0.00000000000E+00 0.  1.
         -3    1    1    2    0  502 -0.22106568304E+02  0.44011314464E+02 -0.79419058100E+03  0.79571626546E+03  0.00000000000E+00 0. -1.
<mgrwt>
<rscale>  1 0.30000000E+03</rscale>
<asrwt>0</asrwt>
<pdfrwt beam="1">  1       21 0.13592016E-01 0.30000000E+03</pdfrwt>
<pdfrwt beam="2">0</pdfrwt>
<totfact> 0.49374734E+03</totfact>
</mgrwt>
</event>
<event>
 6    1  0.1280499E-001  0.3000000E+03  0.7818608E-02  0.1093470E+00
         21   -1    0    0  501  502  0.00000000000E+00  0.00000000000E+00  0.28081174962E+01  0.28081174962E+01  0.00000000000E+00 0. -1.
         13   -1    0    0    0    0 -0.00000000000E+00 -0.00000000000E+00 -0.10000000000E+04  0.10000000000E+04  0.00000000000E+00 0.  1.
    9000005    2    1    2  501    0 -0.23755969370E+02  0.35102766516E+02 -0.79932966191E+03  0.80045691628E+03  0.26107669236E+01 0.  0.
         13    1    3    3    0    0 -0.13371731753E+02  0.18241314280E+02 -0.40753167507E+03  0.40815881093E+03  0.00000000000E+00 0.  1.
          3    1    3    3  501    0 -0.10384237617E+02  0.16861452236E+02 -0.39179798684E+03  0.39229810534E+03  0.00000000000E+00 0.  1.
         -3    1    1    2    0  502  0.23755969370E+02 -0.35102766516E+02 -0.19786222059E+03  0.20235120122E+03  0.00000000000E+00 0. -1.
<mgrwt>
<rscale>  1 0.30000000E+03</rscale>
<asrwt>0</asrwt>
<pdfrwt beam="1">  1       21 0.10211358E-01 0.30000000E+03</pdfrwt>
<pdfrwt beam="2">0</pdfrwt>
<totfact> 0.82874094E+03</totfact>
</mgrwt>
</event>
<event>
 6    1  0.1280499E-001  0.3000000E+03  0.7818608E-02  0.1093470E+00
         21   -1    0    0  501  502  0.00000000000E+00  0.00000000000E+00  0.24836184846E+01  0.24836184846E+01  0.00000000000E+00 0. -1.
         13   -1    0    0    0    0 -0.00000000000E+00 -0.00000000000E+00 -0.10000000000E+04  0.10000000000E+04  0.00000000000E+00 0.  1.
    9000005    2    1    2  501    0 -0.47170713068E+02 -0.11697424783E+02 -0.39164062160E+03  0.39466181699E+03  0.36969427260E+01 0.  0.
         13    1    3    3    0    0 -0.13208360312E+01  0.10053673156E+00 -0.76784533275E+01  0.77918778839E+01  0.00000000000E+00 0.  1.
          3    1    3    3  501    0 -0.45849877037E+02 -0.11797961514E+02 -0.38396216828E+03  0.38686993911E+03  0.00000000000E+00 0.  1.
         -3    1    1    2    0  502  0.47170713068E+02  0.11697424783E+02 -0.60587575991E+03  0.60782180149E+03  0.00000000000E+00 0. -1.
<mgrwt>
<rscale>  1 0.30000000E+03</rscale>
<asrwt>0</asrwt>
<pdfrwt beam="1">  1       21 0.90313590E-02 0.30000000E+03</pdfrwt>
<pdfrwt beam="2">0</pdfrwt>
<totfact> 0.10314323E+04</totfact>
</mgrwt>
</event>
<event>
 6    1  0.1280499E-001  0.3000000E+03  0.7818608E-02  0.1093470E+00
         21   -1    0    0  501  502  0.00000000000E+00  0.00000000000E+00  0.47333766590E+01  0.47333766590E+01  0.00000000000E+00 0. -1.
         13   -1    0    0    0    0 -0.00000000000E+00 -0.00000000000E+00 -0.10000000000E+04  0.10000000000E+04  0.00000000000E+00 0.  1.
    9000005    2    1    2  501    0 -0.45547572644E+02 -0.72476857942E+01 -0.87028842814E+03  0.87151678761E+03  0.35288244165E+01 0.  0.
         13    1    3    3    0    0 -0.25250922954E+02 -0.24043121720E+01 -0.49133733606E+03  0.49199163370E+03  0.00000000000E+00 0.  1.
          1    1    3    3  501    0 -0.20296649691E+02 -0.48433736222E+01 -0.37895109208E+03  0.37952515390E+03  0.00000000000E+00 0.  1.
         -1    1    1    2    0  502  0.45547572644E+02  0.72476857942E+01 -0.12497819520E+03  0.13321658905E+03  0.00000000000E+00 0. -1.
<mgrwt>
<rscale>  1 0.30000000E+03</rscale>
<asrwt>0</asrwt>
<pdfrwt beam="1">  1       21 0.17212315E-01 0.30000000E+03</pdfrwt>
<pdfrwt beam="2">0</pdfrwt>
<totfact> 0.31865348E+03</totfact>
</mgrwt>
</event>
<event>
 6    1  0.1280499E-001  0.3000000E+03  0.7818608E-02  0.1093470E+00
         21   -1    0    0  501  502  0.00000000000E+00  0.00000000000E+00  0.27620345374E+01  0.27620345374E+01  0.00000000000E+00 0. -1.
         13   -1    0    0    0    0 -0.00000000000E+00 -0.00000000000E+00 -0.10000000000E+04  0.10000000000E+04  0.00000000000E+00 0.  1.
    9000005    2    1    2  501    0  0.27193158325E+02  0.36547162591E+02 -0.74828286348E+03  0.74967350110E+03  0.28198446915E+01 0.  0.
         13    1    3    3    0    0  0.17770989080E+02  0.22091735694E+02 -0.45105237977E+03  0.45194258721E+03  0.00000000000E+00 0.  1.
          3    1    3    3  501    0  0.94221692449E+01  0.14455426897E+02 -0.29723048371E+03  0.29773091389E+03  0.00000000000E+00 0.  1.
         -3    1    1    2    0  502 -0.27193158325E+02 -0.36547162591E+02 -0.24895510198E+03  0.25308853344E+03  0.00000000000E+00 0. -1.
<mgrwt>
<rscale>  1 0.30000000E+03</rscale>
<asrwt>0</asrwt>
<pdfrwt beam="1">  1       21 0.10043783E-01 0.30000000E+03</pdfrwt>
<pdfrwt beam="2">0</pdfrwt>
<totfact> 0.85362917E+03</totfact>
</mgrwt>
</event>
<event>
 6    1  0.1280499E-001  0.3000000E+03  0.7818608E-02  0.1093470E+00
         21   -1    0    0  501  502  0.00000000000E+00  0.00000000000E+00  0.26969695948E+01  0.26969695948E+01  0.00000000000E+00 0. -1.
         13   -1    0    0    0    0 -0.00000000000E+00 -0.00000000000E+00 -0.10000000000E+04  0.10000000000E+04  0.00000000000E+00 0.  1.
    9000005    2    1    2  501    0  0.25959680835E+02  0.37544542323E+02 -0.73683253409E+03  0.73825722761E+03  0.42488993884E+01 0.  0.
         13    1    3    3    0    0  0.20437550836E+02  0.26300170714E+02 -0.52925511661E+03  0.53030215059E+03  0.00000000000E+00 0.  1.
          1    1    3    3  501    0  0.55221299995E+01  0.11244371609E+02 -0.20757741748E+03  0.20795507702E+03  0.00000000000E+00 0.  1.
         -3    1    1    2    0  502 -0.25959680835E+02 -0.37544542323E+02 -0.26047049632E+03  0.26443974198E+03  0.00000000000E+00 0. -1.
<mgrwt>
<rscale>  1 0.30000000E+03</rscale>
<asrwt>0</asrwt>
<pdfrwt beam="1">  1       21 0.98071828E-02 0.30000000E+03</pdfrwt>
<pdfrwt beam="2">0</pdfrwt>
<totfact> 0.89075932E+03</totfact>
</mgrwt>
</event>
<event>
 6    1  0.1280499E-001  0.3000000E+03  0.7818608E-02  0.1093470E+00
         21   -1    0    0  501  502  0.00000000000E+00  0.00000000000E+00  0.94933045838E+01  0.94933045838E+01  0.00000000000E+00 0. -1.
         13   -1    0    0    0    0 -0.00000000000E+00 -0.00000000000E+00 -0.10000000000E+04  0.10000000000E+04  0.00000000000E+00 0.  1.
    9000005    2    1    2  501    0 -0.55465629584E+02  0.65440797079E+02 -0.73444000560E+03  0.73943945140E+03  0.31058764795E+01 0.  0.
         13    1    3    3    0    0 -0.55103856395E+02  0.64886035391E+02 -0.72606907634E+03  0.73104236279E+03  0.00000000000E+00 0.  1.
          1    1    3    3  501    0 -0.36177318902E+00  0.55476168831E+00 -0.83709292603E+01  0.83970886057E+01  0.00000000000E+00 0.  1.
         -1    1    1    2    0  502  0.55465629584E+02 -0.65440797079E+02 -0.25606668981E+03  0.27005385318E+03  0.00000000000E+00 0. -1.
<mgrwt>
<rscale>  1 0.30000000E+03</rscale>
<asrwt>0</asrwt>
<pdfrwt beam="1">  1       21 0.34521180E-01 0.30000000E+03</pdfrwt>
<pdfrwt beam="2">0</pdfrwt>
<totfact> 0.81851703E+02</totfact>
</mgrwt>
</event>
<event>
 6    1  0.1280499E-001  0.3000000E+03  0.7818608E-02  0.1093470E+00
         21   -1    0    0  501  502  0.00000000000E+00  0.00000000000E+00  0.12623317645E+01  0.12623317645E+01  0.00000000000E+00 0. -1.
         13   -1    0    0    0    0 -0.00000000000E+00 -0.00000000000E+00 -0.10000000000E+04  0.10000000000E+04  0.00000000000E+00 0.  1.
    9000005    2    1    2  501    0  0.64363569011E+01  0.33244905028E+02 -0.35255177385E+03  0.35418980066E+03  0.33183203485E+01 0.  0.
         13    1    3    3    0    0  0.67994491726E+01  0.32320056117E+02 -0.34305645698E+03  0.34464264277E+03  0.00000000000E+00 0.  1.
          1    1    3    3  501    0 -0.36309227147E+00  0.92484891054E+00 -0.94953168688E+01  0.95471578987E+01  0.00000000000E+00 0.  1.
         -3    1    1    2    0  502 -0.64363569011E+01 -0.33244905028E+02 -0.64618589439E+03  0.64707253110E+03  0.00000000000E+00 0. -1.
<mgrwt>
<rscale>  1 0.30000000E+03</rscale>
<asrwt>0</asrwt>
<pdfrwt beam="1">  1       21 0.45903070E-02 0.30000000E+03</pdfrwt>
<pdfrwt beam="2">0</pdfrwt>
<totfact> 0.33314960E+04</totfact>
</mgrwt>
</event>
<event>
 6    1  0.1280499E-001  0.3000000E+03  0.7818608E-02  0.1093470E+00
         21   -1    0    0  501  502  0.00000000000E+00  0.00000000000E+00  0.14627339183E+01  0.14627339183E+01  0.00000000000E+00 0. -1.
         13   -1    0    0    0    0 -0.00000000000E+00 -0.00000000000E+00 -0.10000000000E+04  0.10000000000E+04  0.00000000000E+00 0.  1.
    9000005    2    1    2  501    0  0.37810687517E+02  0.85533512872E+00 -0.56794378330E+03  0.56921150246E+03  0.33487083475E+01 0.  0.
         13    1    3    3    0    0  0.16762469468E+02 -0.10169059899E+01 -0.23800054591E+03  0.23859227635E+03  0.00000000000E+00 0.  1.
          1    1    3    3  501    0  0.21048218049E+02  0.18722411186E+01 -0.32994323739E+03  0.33061922610E+03  0.00000000000E+00 0.  1.
         -3    1    1    2    0  502 -0.37810687517E+02 -0.85533512872E+00 -0.43059348278E+03  0.43225123146E+03  0.00000000000E+00 0. -1.
<mgrwt>
<rscale>  1 0.30000000E+03</rscale>
<asrwt>0</asrwt>
<pdfrwt beam="1">  1       21 0.53190436E-02 0.30000000E+03</pdfrwt>
<pdfrwt beam="2">0</pdfrwt>
<totfact> 0.25917369E+04</totfact>
</mgrwt>
</event>
<event>
 6    1  0.1280499E-001  0.3000000E+03  0.7818608E-02  0.1093470E+00
         21   -1    0    0  501  502  0.00000000000E+00  0.00000000000E+00  0.19642024449E+01  0.19642024449E+01  0.00000000000E+00 0. -1.
         13   -1    0    0    0    0 -0.00000000000E+00 -0.00000000000E+00 -0.10000000000E+04  0.10000000000E+04  0.00000000000E+00 0.  1.
    9000005    2    1    2  501    0 -0.28939912119E+02 -0.21156884591E+02 -0.79088405322E+03  0.79173343053E+03  0.76881142853E+01 0.  0.
         13    1    3    3    0    0 -0.57381755047E+01 -0.84916157156E+00 -0.13723891060E+03  0.13736144407E+03  0.00000000000E+00 0.  1.
          1    1    3    3  501    0 -0.23201736615E+02 -0.20307723020E+02 -0.65364514262E+03  0.65437198646E+03  0.00000000000E+00 0.  1.
         -1    1    1    2    0  502  0.28939912119E+02  0.21156884591E+02 -0.20715174434E+03  0.21023077192E+03  0.00000000000E+00 0. -1.
<mgrwt>
<rscale>  1 0.30000000E+03</rscale>
<asrwt>0</asrwt>
<pdfrwt beam="1">  1       21 0.71425694E-02 0.30000000E+03</pdfrwt>
<pdfrwt beam="2">0</pdfrwt>
<totfact> 0.15578471E+04</totfact>
</mgrwt>
</event>
<event>
 6    1  0.1280499E-001  0.3000000E+03  0.7818608E-02  0.1093470E+00
         21   -1    0    0  501  502  0.00000000000E+00  0.00000000000E+00  0.26438507870E+01  0.26438507870E+01  0.00000000000E+00 0. -1.
         13   -1    0    0    0    0 -0.00000000000E+00 -0.00000000000E+00 -0.10000000000E+04  0.10000000000E+04  0.00000000000E+00 0.  1.
    9000005    2    1    2  501    0 -0.37139544281E+02 -0.23214269681E+02 -0.76063820455E+03  0.76190824189E+03  0.39297290497E+01 0.  0.
         13    1    3    3    0    0 -0.13710366752E+02 -0.10551306284E+02 -0.31577448378E+03  0.31624804952E+03  0.00000000000E+00 0.  1.
          1    1    3    3  501    0 -0.23429177529E+02 -0.12662963398E+02 -0.44486372078E+03  0.44566019237E+03  0.00000000000E+00 0.  1.
         -1    1    1    2    0  502  0.37139544281E+02  0.23214269681E+02 -0.23671794466E+03  0.24073560889E+03  0.00000000000E+00 0. -1.
<mgrwt>
<rscale>  1 0.30000000E+03</rscale>
<asrwt>0</asrwt>
<pdfrwt beam="1">  1       21 0.96140231E-02 0.30000000E+03</pdfrwt>
<pdfrwt beam="2">0</pdfrwt>
<totfact> 0.92293611E+03</totfact>
</mgrwt>
</event>
<event>
 6    1  0.1280499E-001  0.3000000E+03  0.7818608E-02  0.1093470E+00
         21   -1    0    0  501  502  0.00000000000E+00  0.00000000000E+00  0.94615545514E+00  0.94615545514E+00  0.00000000000E+00 0. -1.
         13   -1    0    0    0    0 -0.00000000000E+00 -0.00000000000E+00 -0.10000000000E+04  0.10000000000E+04  0.00000000000E+00 0.  1.
    9000005    2    1    2  501    0 -0.18485656672E+02  0.23861305670E+02 -0.40893336746E+03  0.41005423735E+03  0.26262393282E+01 0.  0.
         13    1    3    3    0    0 -0.11169791050E+01  0.72425304323E+00 -0.14306448924E+02  0.14368252003E+02  0.00000000000E+00 0.  1.
          3    1    3    3  501    0 -0.17368677567E+02  0.23137052627E+02 -0.39462691854E+03  0.39568598534E+03  0.00000000000E+00 0.  1.
         -3    1    1    2    0  502  0.18485656672E+02 -0.23861305670E+02 -0.59012047708E+03  0.59089191811E+03  0.00000000000E+00 0. -1.
<mgrwt>
<rscale>  1 0.30000000E+03</rscale>
<asrwt>0</asrwt>
<pdfrwt beam="1">  1       21 0.34405725E-02 0.30000000E+03</pdfrwt>
<pdfrwt beam="2">0</pdfrwt>
<totfact> 0.54146506E+04</totfact>
</mgrwt>
</event>
<event>
 6    1  0.1280499E-001  0.3000000E+03  0.7818608E-02  0.1093470E+00
         21   -1    0    0  501  502  0.00000000000E+00  0.00000000000E+00  0.43005725121E+01  0.43005725121E+01  0.00000000000E+00 0. -1.
         13   -1    0    0    0    0 -0.00000000000E+00 -0.00000000000E+00 -0.10000000000E+04  0.10000000000E+04  0.00000000000E+00 0.  1.
    9000005    2    1    2  501    0  0.54608292762E+02 -0.46771736138E+01 -0.77335711545E+03  0.77530265699E+03  0.30067134603E+01 0.  0.
         13    1    3    3    0    0  0.32140454767E+02 -0.21637190965E+01 -0.47344951154E+03  0.47454412913E+03  0.00000000000E+00 0.  1.
          3    1    3    3  501    0  0.22467837996E+02 -0.25134545172E+01 -0.29990760391E+03  0.30075852786E+03  0.00000000000E+00 0.  1.
         -3    1    1    2    0  502 -0.54608292762E+02  0.46771736138E+01 -0.22234231203E+03  0.22899791552E+03  0.00000000000E+00 0. -1.
<mgrwt>
<rscale>  1 0.30000000E+03</rscale>
<asrwt>0</asrwt>
<pdfrwt beam="1">  1       21 0.15638478E-01 0.30000000E+03</pdfrwt>
<pdfrwt beam="2">0</pdfrwt>
<totfact> 0.38114936E+03</totfact>
</mgrwt>
</event>
<event>
 6    1  0.1280499E-001  0.3000000E+03  0.7818608E-02  0.1093470E+00
         21   -1    0    0  501  502  0.00000000000E+00  0.00000000000E+00  0.20254523398E+01  0.20254523398E+01  0.00000000000E+00 0. -1.
         13   -1    0    0    0    0 -0.00000000000E+00 -0.00000000000E+00 -0.10000000000E+04  0.10000000000E+04  0.00000000000E+00 0.  1.
    9000005    2    1    2  501    0 -0.21920303689E+02 -0.34546381284E+02 -0.70702143616E+03  0.70820975285E+03  0.27911775240E+01 0.  0.
         13    1    3    3    0    0 -0.11344745197E+02 -0.15911612428E+02 -0.32152612737E+03  0.32211943940E+03  0.00000000000E+00 0.  1.
          1    1    3    3  501    0 -0.10575558491E+02 -0.18634768856E+02 -0.38549530879E+03  0.38609031345E+03  0.00000000000E+00 0.  1.
         -1    1    1    2    0  502  0.21920303689E+02  0.34546381284E+02 -0.29095311150E+03  0.29381569949E+03  0.00000000000E+00 0. -1.
<mgrwt>
<rscale>  1 0.30000000E+03</rscale>
<asrwt>0</asrwt>
<pdfrwt beam="1">  1       21 0.73652968E-02 0.30000000E+03</pdfrwt>
<pdfrwt beam="2">0</pdfrwt>
<totfact> 0.14765361E+04</totfact>
</mgrwt>
</event>
<event>
 6    1  0.1280499E-001  0.3000000E+03  0.7818608E-02  0.1093470E+00
         21   -1    0    0  501  502  0.00000000000E+00  0.00000000000E+00  0.17412445123E+01  0.17412445123E+01  0.00000000000E+00 0. -1.
         13   -1    0    0    0    0 -0.00000000000E+00 -0.00000000000E+00 -0.10000000000E+04  0.10000000000E+04  0.00000000000E+00 0.  1.
    9000005    2    1    2  501    0 -0.17921579750E+02 -0.26040569226E+02 -0.82567651904E+03  0.82628776747E+03  0.32351695997E+01 0.  0.
         13    1    3    3    0    0 -0.56358809420E+01 -0.10700205038E+02 -0.33196997192E+03  0.33219018619E+03  0.00000000000E+00 0.  1.
          3    1    3    3  501    0 -0.12285698808E+02 -0.15340364188E+02 -0.49370654711E+03  0.49409758128E+03  0.00000000000E+00 0.  1.
         -1    1    1    2    0  502  0.17921579750E+02  0.26040569226E+02 -0.17258223645E+03  0.17545347704E+03  0.00000000000E+00 0. -1.
<mgrwt>
<rscale>  1 0.30000000E+03</rscale>
<asrwt>0</asrwt>
<pdfrwt beam="1">  1       21 0.63318116E-02 0.30000000E+03</pdfrwt>
<pdfrwt beam="2">0</pdfrwt>
<totfact> 0.19201497E+04</totfact>
</mgrwt>
</event>
<event>
 6    1  0.1280499E-001  0.3000000E+03  0.7818608E-02  0.1093470E+00
         21   -1    0    0  501  502  0.00000000000E+00  0.00000000000E+00  0.12153235852E+01  0.12153235852E+01  0.00000000000E+00 0. -1.
         13   -1    0    0    0    0 -0.00000000000E+00 -0.00000000000E+00 -0.10000000000E+04  0.10000000000E+04  0.00000000000E+00 0.  1.
    9000005    2    1    2  501    0 -0.13204620563E+02 -0.32058036825E+02 -0.53885515954E+03  0.53998084935E+03  0.35149642938E+01 0.  0.
         13    1    3    3    0    0 -0.63462590895E+01 -0.15406128846E+02 -0.28627894448E+03  0.28676341793E+03  0.00000000000E+00 0.  1.
          3    1    3    3  501    0 -0.68583614733E+01 -0.16651907979E+02 -0.25257621505E+03  0.25321743141E+03  0.00000000000E+00 0.  1.
         -1    1    1    2    0  502  0.13204620563E+02  0.32058036825E+02 -0.45992951688E+03  0.46123447424E+03  0.00000000000E+00 0. -1.
<mgrwt>
<rscale>  1 0.30000000E+03</rscale>
<asrwt>0</asrwt>
<pdfrwt beam="1">  1       21 0.44193678E-02 0.30000000E+03</pdfrwt>
<pdfrwt beam="2">0</pdfrwt>
<totfact> 0.35531021E+04</totfact>
</mgrwt>
</event>
<event>
 6    1  0.1280499E-001  0.3000000E+03  0.7818608E-02  0.1093470E+00
         21   -1    0    0  501  502  0.00000000000E+00  0.00000000000E+00  0.20562002306E+01  0.20562002306E+01  0.00000000000E+00 0. -1.
         13   -1    0    0    0    0 -0.00000000000E+00 -0.00000000000E+00 -0.10000000000E+04  0.10000000000E+04  0.00000000000E+00 0.  1.
    9000005    2    1    2  501    0 -0.84623892221E+01  0.31787181353E+02 -0.84323709591E+03  0.84389109299E+03  0.46195213806E+01 0.  0.
         13    1    3    3    0    0 -0.45237777439E+01  0.24442272304E+02 -0.64550884159E+03  0.64598727062E+03  0.00000000000E+00 0.  1.
          3    1    3    3  501    0 -0.39386114782E+01  0.73449090489E+01 -0.19772825432E+03  0.19790382236E+03  0.00000000000E+00 0.  1.
         -3    1    1    2    0  502  0.84623892221E+01 -0.31787181353E+02 -0.15470670386E+03  0.15816510724E+03  0.00000000000E+00 0. -1.
<mgrwt>
<rscale>  1 0.30000000E+03</rscale>
<asrwt>0</asrwt>
<pdfrwt beam="1">  1       21 0.74771075E-02 0.30000000E+03</pdfrwt>
<pdfrwt beam="2">0</pdfrwt>
<totfact> 0.14381227E+04</totfact>
</mgrwt>
</event>
<event>
 6    1  0.1280499E-001  0.3000000E+03  0.7818608E-02  0.1093470E+00
         21   -1    0    0  501  502  0.00000000000E+00  0.00000000000E+00  0.18452668586E+01  0.18452668586E+01  0.00000000000E+00 0. -1.
         13   -1    0    0    0    0 -0.00000000000E+00 -0.00000000000E+00 -0.10000000000E+04  0.10000000000E+04  0.00000000000E+00 0.  1.
    9000005    2    1    2  501    0  0.32259434669E+02  0.14498985617E+02 -0.22140968194E+03  0.22429541876E+03  0.59410362473E+01 0.  0.
         13    1    3    3    0    0  0.23232230036E+02  0.93243333565E+01 -0.17103750703E+03  0.17285979439E+03  0.00000000000E+00 0.  1.
          1    1    3    3  501    0  0.90272046334E+01  0.51746522608E+01 -0.50372174901E+02  0.51435624364E+02  0.00000000000E+00 0.  1.
         -1    1    1    2    0  502 -0.32259434669E+02 -0.14498985617E+02 -0.77674505121E+03  0.77754984810E+03  0.00000000000E+00 0. -1.
<mgrwt>
<rscale>  1 0.30000000E+03</rscale>
<asrwt>0</asrwt>
<pdfrwt beam="1">  1       21 0.67100755E-02 0.30000000E+03</pdfrwt>
<pdfrwt beam="2">0</pdfrwt>
<totfact> 0.17365852E+04</totfact>
</mgrwt>
</event>
<event>
 6    1  0.1280499E-001  0.3000000E+03  0.7818608E-02  0.1093470E+00
         21   -1    0    0  501  502  0.00000000000E+00  0.00000000000E+00  0.11228602412E+01  0.11228602412E+01  0.00000000000E+00 0. -1.
         13   -1    0    0    0    0 -0.00000000000E+00 -0.00000000000E+00 -0.10000000000E+04  0.10000000000E+04  0.00000000000E+00 0.  1.
    9000005    2    1    2  501    0 -0.71372051939E+01 -0.29386974446E+02 -0.71034985606E+03  0.71101507440E+03  0.55663326889E+01 0.  0.
         13    1    3    3    0    0 -0.40637967373E+01 -0.11077417502E+02 -0.22334146272E+03  0.22365292887E+03  0.00000000000E+00 0.  1.
          1    1    3    3  501    0 -0.30734084566E+01 -0.18309556944E+02 -0.48700839334E+03  0.48736214553E+03  0.00000000000E+00 0.  1.
         -1    1    1    2    0  502  0.71372051939E+01  0.29386974446E+02 -0.28852728370E+03  0.29010778584E+03  0.00000000000E+00 0. -1.
<mgrwt>
<rscale>  1 0.30000000E+03</rscale>
<asrwt>0</asrwt>
<pdfrwt beam="1">  1       21 0.40831368E-02 0.30000000E+03</pdfrwt>
<pdfrwt beam="2">0</pdfrwt>
<totfact> 0.40614890E+04</totfact>
</mgrwt>
</event>
<event>
 6    1  0.1280499E-001  0.3000000E+03  0.7818608E-02  0.1093470E+00
         21   -1    0    0  501  502  0.00000000000E+00  0.00000000000E+00  0.25592930927E+01  0.25592930927E+01  0.00000000000E+00 0. -1.
         13   -1    0    0    0    0 -0.00000000000E+00 -0.00000000000E+00 -0.10000000000E+04  0.10000000000E+04  0.00000000000E+00 0.  1.
    9000005    2    1    2  501    0  0.32988706843E+02 -0.21579172401E+01 -0.87801432518E+03  0.87864169128E+03  0.30257316317E+01 0.  0.
         13    1    3    3    0    0  0.32628313790E+02 -0.21694371846E+01 -0.87390148640E+03  0.87451307666E+03  0.00000000000E+00 0.  1.
          1    1    3    3  501    0  0.36039305391E+00  0.11519944477E-01 -0.41128387812E+01  0.41286146227E+01  0.00000000000E+00 0.  1.
         -3    1    1    2    0  502 -0.32988706843E+02  0.21579172401E+01 -0.11942638173E+03  0.12391760181E+03  0.00000000000E+00 0. -1.
<mgrwt>
<rscale>  1 0.30000000E+03</rscale>
<asrwt>0</asrwt>
<pdfrwt beam="1">  1       21 0.93065400E-02 0.30000000E+03</pdfrwt>
<pdfrwt beam="2">0</pdfrwt>
<totfact> 0.97792646E+03</totfact>
</mgrwt>
</event>
<event>
 6    1  0.1280499E-001  0.3000000E+03  0.7818608E-02  0.1093470E+00
         21   -1    0    0  501  502  0.00000000000E+00  0.00000000000E+00  0.91390588216E+00  0.91390588216E+00  0.00000000000E+00 0. -1.
         13   -1    0    0    0    0 -0.00000000000E+00 -0.00000000000E+00 -0.10000000000E+04  0.10000000000E+04  0.00000000000E+00 0.  1.
    9000005    2    1    2  501    0 -0.22613435766E+02 -0.19847375722E+02 -0.52137046634E+03  0.52225170054E+03  0.37933816989E+01 0.  0.
         13    1    3    3    0    0 -0.16631767630E+02 -0.13114768188E+02 -0.38778115249E+03  0.38835915731E+03  0.00000000000E+00 0.  1.
          3    1    3    3  501    0 -0.59816681364E+01 -0.67326075342E+01 -0.13358931385E+03  0.13389254323E+03  0.00000000000E+00 0.  1.
         -1    1    1    2    0  502  0.22613435766E+02  0.19847375722E+02 -0.47771562778E+03  0.47866220535E+03  0.00000000000E+00 0. -1.
<mgrwt>
<rscale>  1 0.30000000E+03</rscale>
<asrwt>0</asrwt>
<pdfrwt beam="1">  1       21 0.33233011E-02 0.30000000E+03</pdfrwt>
<pdfrwt beam="2">0</pdfrwt>
<totfact> 0.57376021E+04</totfact>
</mgrwt>
</event>
<event>
 6    1  0.1280499E-001  0.3000000E+03  0.7818608E-02  0.1093470E+00
         21   -1    0    0  501  502  0.00000000000E+00  0.00000000000E+00  0.21145312721E+01  0.21145312721E+01  0.00000000000E+00 0. -1.
         13   -1    0    0    0    0 -0.00000000000E+00 -0.00000000000E+00 -0.10000000000E+04  0.10000000000E+04  0.00000000000E+00 0.  1.
    9000005    2    1    2  501    0 -0.26038665303E+02 -0.24287676155E+02 -0.18337646884E+03  0.18682757921E+03  0.31163641651E+01 0.  0.
         13    1    3    3    0    0 -0.18959579600E+02 -0.19498270255E+02 -0.13924149609E+03  0.14187262750E+03  0.00000000000E+00 0.  1.
          1    1    3    3  501    0 -0.70790857030E+01 -0.47894058994E+01 -0.44134972752E+02  0.44954951708E+02  0.00000000000E+00 0.  1.
         -1    1    1    2    0  502  0.26038665303E+02  0.24287676155E+02 -0.81450899989E+03  0.81528695206E+03  0.00000000000E+00 0. -1.
<mgrwt>
<rscale>  1 0.30000000E+03</rscale>
<asrwt>0</asrwt>
<pdfrwt beam="1">  1       21 0.76892208E-02 0.30000000E+03</pdfrwt>
<pdfrwt beam="2">0</pdfrwt>
<totfact> 0.13693512E+04</totfact>
</mgrwt>
</event>
<event>
 6    1  0.1280499E-001  0.3000000E+03  0.7818608E-02  0.1093470E+00
         21   -1    0    0  501  502  0.00000000000E+00  0.00000000000E+00  0.25485000493E+01  0.25485000493E+01  0.00000000000E+00 0. -1.
         13   -1    0    0    0    0 -0.00000000000E+00 -0.00000000000E+00 -0.10000000000E+04  0.10000000000E+04  0.00000000000E+00 0.  1.
    9000005    2    1    2  501    0  0.32633618108E+02 -0.34870873531E+02 -0.66010587475E+03  0.66183894383E+03  0.31766097245E+01 0.  0.
         13    1    3    3    0    0  0.22087283641E+02 -0.24191770478E+02 -0.47181160977E+03  0.47294744419E+03  0.00000000000E+00 0.  1.
          1    1    3    3  501    0  0.10546334468E+02 -0.10679103053E+02 -0.18829426498E+03  0.18889149964E+03  0.00000000000E+00 0.  1.
         -3    1    1    2    0  502 -0.32633618108E+02  0.34870873531E+02 -0.33734562520E+03  0.34070955622E+03  0.00000000000E+00 0. -1.
<mgrwt>
<rscale>  1 0.30000000E+03</rscale>
<asrwt>0</asrwt>
<pdfrwt beam="1">  1       21 0.92672924E-02 0.30000000E+03</pdfrwt>
<pdfrwt beam="2">0</pdfrwt>
<totfact> 0.98529836E+03</totfact>
</mgrwt>
</event>
<event>
 6    1  0.1280499E-001  0.3000000E+03  0.7818608E-02  0.1093470E+00
         21   -1    0    0  501  502  0.00000000000E+00  0.00000000000E+00  0.23369949273E+01  0.23369949273E+01  0.00000000000E+00 0. -1.
         13   -1    0    0    0    0 -0.00000000000E+00 -0.00000000000E+00 -0.10000000000E+04  0.10000000000E+04  0.00000000000E+00 0.  1.
    9000005    2    1    2  501    0 -0.42855191869E+02  0.10989062386E+02 -0.69987211979E+03  0.70127763480E+03  0.34655519734E+01 0.  0.
         13    1    3    3    0    0 -0.58327228494E+01  0.26615768280E+01 -0.94247318064E+02  0.94465134358E+02  0.00000000000E+00 0.  1.
          3    1    3    3  501    0 -0.37022469019E+02  0.83274855578E+01 -0.60562480172E+03  0.60681250044E+03  0.00000000000E+00 0.  1.
         -3    1    1    2    0  502  0.42855191869E+02 -0.10989062386E+02 -0.29779088528E+03  0.30105936013E+03  0.00000000000E+00 0. -1.
<mgrwt>
<rscale>  1 0.30000000E+03</rscale>
<asrwt>0</asrwt>
<pdfrwt beam="1">  1       21 0.84981813E-02 0.30000000E+03</pdfrwt>
<pdfrwt beam="2">0</pdfrwt>
<totfact> 0.11485595E+04</totfact>
</mgrwt>
</event>
<event>
 6    1  0.1280499E-001  0.3000000E+03  0.7818608E-02  0.1093470E+00
         21   -1    0    0  501  502  0.00000000000E+00  0.00000000000E+00  0.15381009681E+01  0.15381009681E+01  0.00000000000E+00 0. -1.
         13   -1    0    0    0    0 -0.00000000000E+00 -0.00000000000E+00 -0.10000000000E+04  0.10000000000E+04  0.00000000000E+00 0.  1.
    9000005    2    1    2  501    0  0.25142575820E+02 -0.20438763843E+02 -0.78048994870E+03  0.78117099064E+03  0.36965385656E+01 0.  0.
         13    1    3    3    0    0  0.21232439907E+01 -0.57903854889E+00 -0.48226709911E+02  0.48276899233E+02  0.00000000000E+00 0.  1.
          3    1    3    3  501    0  0.23019331829E+02 -0.19859725294E+02 -0.73226323879E+03  0.73289409140E+03  0.00000000000E+00 0.  1.
         -1    1    1    2    0  502 -0.25142575820E+02  0.20438763843E+02 -0.21797195033E+03  0.22036711033E+03  0.00000000000E+00 0. -1.
<mgrwt>
<rscale>  1 0.30000000E+03</rscale>
<asrwt>0</asrwt>
<pdfrwt beam="1">  1       21 0.55931062E-02 0.30000000E+03</pdfrwt>
<pdfrwt beam="2">0</pdfrwt>
<totfact> 0.23779299E+04</totfact>
</mgrwt>
</event>
<event>
 6    1  0.1280499E-001  0.3000000E+03  0.7818608E-02  0.1093470E+00
         21   -1    0    0  501  502  0.00000000000E+00  0.00000000000E+00  0.12569397619E+02  0.12569397619E+02  0.00000000000E+00 0. -1.
         13   -1    0    0    0    0 -0.00000000000E+00 -0.00000000000E+00 -0.10000000000E+04  0.10000000000E+04  0.00000000000E+00 0.  1.
    9000005    2    1    2  501    0 -0.76189175125E+02 -0.15802795275E+02 -0.85788669954E+03  0.86145307981E+03  0.87920829557E+01 0.  0.
         13    1    3    3    0    0 -0.96316863119E+01 -0.28154783845E+01 -0.82888326752E+02  0.83493538741E+02  0.00000000000E+00 0.  1.
          1    1    3    3  501    0 -0.66557488813E+02 -0.12987316891E+02 -0.77499837279E+03  0.77795954107E+03  0.00000000000E+00 0.  1.
         -3    1    1    2    0  502  0.76189175125E+02  0.15802795275E+02 -0.12954390284E+03  0.15111631781E+03  0.00000000000E+00 0. -1.
<mgrwt>
<rscale>  1 0.30000000E+03</rscale>
<asrwt>0</asrwt>
<pdfrwt beam="1">  1       21 0.45706997E-01 0.30000000E+03</pdfrwt>
<pdfrwt beam="2">0</pdfrwt>
<totfact> 0.45570113E+02</totfact>
</mgrwt>
</event>
<event>
 6    1  0.1280499E-001  0.3000000E+03  0.7818608E-02  0.1093470E+00
         21   -1    0    0  501  502  0.00000000000E+00  0.00000000000E+00  0.24039199475E+01  0.24039199475E+01  0.00000000000E+00 0. -1.
         13   -1    0    0    0    0 -0.00000000000E+00 -0.00000000000E+00 -0.10000000000E+04  0.10000000000E+04  0.00000000000E+00 0.  1.
    9000005    2    1    2  501    0  0.30297938963E+02 -0.35039866391E+02 -0.33663053425E+03  0.33981716330E+03  0.31353698483E+01 0.  0.
         13    1    3    3    0    0  0.29205780583E+02 -0.32935556158E+02 -0.32221058536E+03  0.32520361283E+03  0.00000000000E+00 0.  1.
          1    1    3    3  501    0  0.10921583797E+01 -0.21043102332E+01 -0.14419948884E+02  0.14613550468E+02  0.00000000000E+00 0.  1.
         -3    1    1    2    0  502 -0.30297938963E+02  0.35039866391E+02 -0.66096554580E+03  0.66258675665E+03  0.00000000000E+00 0. -1.
<mgrwt>
<rscale>  1 0.30000000E+03</rscale>
<asrwt>0</asrwt>
<pdfrwt beam="1">  1       21 0.87415455E-02 0.30000000E+03</pdfrwt>
<pdfrwt beam="2">0</pdfrwt>
<totfact> 0.10927171E+04</totfact>
</mgrwt>
</event>
<event>
 6    1  0.1280499E-001  0.3000000E+03  0.7818608E-02  0.1093470E+00
         21   -1    0    0  501  502  0.00000000000E+00  0.00000000000E+00  0.30653830548E+01  0.30653830548E+01  0.00000000000E+00 0. -1.
         13   -1    0    0    0    0 -0.00000000000E+00 -0.00000000000E+00 -0.10000000000E+04  0.10000000000E+04  0.00000000000E+00 0.  1.
    9000005    2    1    2  501    0 -0.34239900461E+02 -0.35611614446E+02 -0.72352550504E+03  0.72522891975E+03  0.52222347957E+01 0.  0.
         13    1    3    3    0    0 -0.13376419604E+02 -0.10726493856E+02 -0.23370405193E+03  0.23433217910E+03  0.00000000000E+00 0.  1.
          3    1    3    3  501    0 -0.20863480857E+02 -0.24885120590E+02 -0.48982145311E+03  0.49089674065E+03  0.00000000000E+00 0.  1.
         -1    1    1    2    0  502  0.34239900461E+02  0.35611614446E+02 -0.27340911191E+03  0.27783646330E+03  0.00000000000E+00 0. -1.
<mgrwt>
<rscale>  1 0.30000000E+03</rscale>
<asrwt>0</asrwt>
<pdfrwt beam="1">  1       21 0.11146871E-01 0.30000000E+03</pdfrwt>
<pdfrwt beam="2">0</pdfrwt>
<totfact> 0.70809195E+03</totfact>
</mgrwt>
</event>
<event>
 6    1  0.1280499E-001  0.3000000E+03  0.7818608E-02  0.1093470E+00
         21   -1    0    0  501  502  0.00000000000E+00  0.00000000000E+00  0.20125954863E+01  0.20125954863E+01  0.00000000000E+00 0. -1.
         13   -1    0    0    0    0 -0.00000000000E+00 -0.00000000000E+00 -0.10000000000E+04  0.10000000000E+04  0.00000000000E+00 0.  1.
    9000005    2    1    2  501    0  0.16563938427E+02  0.36516102206E+02 -0.27712320440E+03  0.28003407449E+03  0.37446870722E+01 0.  0.
         13    1    3    3    0    0  0.15417472354E+02  0.31996084690E+02 -0.25054688910E+03  0.25305175661E+03  0.00000000000E+00 0.  1.
          3    1    3    3  501    0  0.11464660724E+01  0.45200175160E+01 -0.26576315303E+02  0.26982317875E+02  0.00000000000E+00 0.  1.
         -1    1    1    2    0  502 -0.16563938427E+02 -0.36516102206E+02 -0.72086420011E+03  0.72197852100E+03  0.00000000000E+00 0. -1.
<mgrwt>
<rscale>  1 0.30000000E+03</rscale>
<asrwt>0</asrwt>
<pdfrwt beam="1">  1       21 0.73185445E-02 0.30000000E+03</pdfrwt>
<pdfrwt beam="2">0</pdfrwt>
<totfact> 0.14930608E+04</totfact>
</mgrwt>
</event>
<event>
 6    1  0.1280499E-001  0.3000000E+03  0.7818608E-02  0.1093470E+00
         21   -1    0    0  501  502  0.00000000000E+00  0.00000000000E+00  0.19991590653E+01  0.19991590653E+01  0.00000000000E+00 0. -1.
         13   -1    0    0    0    0 -0.00000000000E+00 -0.00000000000E+00 -0.10000000000E+04  0.10000000000E+04  0.00000000000E+00 0.  1.
    9000005    2    1    2  501    0  0.34748276397E+02 -0.26573704758E+02 -0.59919460658E+03  0.60080093243E+03  0.37388974595E+01 0.  0.
         13    1    3    3    0    0  0.52851433028E+01 -0.51239420342E+01 -0.11669077422E+03  0.11692272794E+03  0.00000000000E+00 0.  1.
          1    1    3    3  501    0  0.29463133094E+02 -0.21449762724E+02 -0.48250383236E+03  0.48387820449E+03  0.00000000000E+00 0.  1.
         -3    1    1    2    0  502 -0.34748276397E+02  0.26573704758E+02 -0.39880623435E+03  0.40119822664E+03  0.00000000000E+00 0. -1.
<mgrwt>
<rscale>  1 0.30000000E+03</rscale>
<asrwt>0</asrwt>
<pdfrwt beam="1">  1       21 0.72696847E-02 0.30000000E+03</pdfrwt>
<pdfrwt beam="2">0</pdfrwt>
<totfact> 0.15106321E+04</totfact>
</mgrwt>
</event>
<event>
 6    1  0.1280499E-001  0.3000000E+03  0.7818608E-02  0.1093470E+00
         21   -1    0    0  501  502  0.00000000000E+00  0.00000000000E+00  0.26863107524E+01  0.26863107524E+01  0.00000000000E+00 0. -1.
         13   -1    0    0    0    0 -0.00000000000E+00 -0.00000000000E+00 -0.10000000000E+04  0.10000000000E+04  0.00000000000E+00 0.  1.
    9000005    2    1    2  501    0  0.21810882580E+02  0.38327692567E+02 -0.76137120256E+03  0.76265801317E+03  0.40509686603E+01 0.  0.
         13    1    3    3    0    0  0.21462617414E+02  0.36255365328E+02 -0.73226009689E+03  0.73347116164E+03  0.00000000000E+00 0.  1.
          3    1    3    3  501    0  0.34826516588E+00  0.20723272387E+01 -0.29111105665E+02  0.29186851523E+02  0.00000000000E+00 0.  1.
         -3    1    1    2    0  502 -0.21810882580E+02 -0.38327692567E+02 -0.23594248669E+03  0.24002829759E+03  0.00000000000E+00 0. -1.
<mgrwt>
<rscale>  1 0.30000000E+03</rscale>
<asrwt>0</asrwt>
<pdfrwt beam="1">  1       21 0.97684233E-02 0.30000000E+03</pdfrwt>
<pdfrwt beam="2">0</pdfrwt>
<totfact> 0.89707678E+03</totfact>
</mgrwt>
</event>
<event>
 6    1  0.1280499E-001  0.3000000E+03  0.7818608E-02  0.1093470E+00
         21   -1    0    0  501  502  0.00000000000E+00  0.00000000000E+00  0.24226423165E+01  0.24226423165E+01  0.00000000000E+00 0. -1.
         13   -1    0    0    0    0 -0.00000000000E+00 -0.00000000000E+00 -0.10000000000E+04  0.10000000000E+04  0.00000000000E+00 0.  1.
    9000005    2    1    2  501    0  0.21295287639E+02  0.22859805267E+02 -0.88592542420E+03  0.88648207899E+03  0.32494868898E+01 0.  0.
         13    1    3    3    0    0  0.15472408948E+02  0.18603276642E+02 -0.68557636086E+03  0.68600322442E+03  0.00000000000E+00 0.  1.
          1    1    3    3  501    0  0.58228786908E+01  0.42565286250E+01 -0.20034906333E+03  0.20047885457E+03  0.00000000000E+00 0.  1.
         -1    1    1    2    0  502 -0.21295287639E+02 -0.22859805267E+02 -0.11165193349E+03  0.11594056332E+03  0.00000000000E+00 0. -1.
<mgrwt>
<rscale>  1 0.30000000E+03</rscale>
<asrwt>0</asrwt>
<pdfrwt beam="1">  1       21 0.88096270E-02 0.30000000E+03</pdfrwt>
<pdfrwt beam="2">0</pdfrwt>
<totfact> 0.10778334E+04</totfact>
</mgrwt>
</event>
<event>
 6    1  0.1280499E-001  0.3000000E+03  0.7818608E-02  0.1093470E+00
         21   -1    0    0  501  502  0.00000000000E+00  0.00000000000E+00  0.59139806319E+01  0.59139806319E+01  0.00000000000E+00 0. -1.
         13   -1    0    0    0    0 -0.00000000000E+00 -0.00000000000E+00 -0.10000000000E+04  0.10000000000E+04  0.00000000000E+00 0.  1.
    9000005    2    1    2  501    0 -0.14852410509E+02  0.69900206132E+02 -0.31202305945E+03  0.32011771773E+03  0.32141347604E+01 0.  0.
         13    1    3    3    0    0 -0.33720433567E+01  0.18447097091E+02 -0.76139985124E+02  0.78415326322E+02  0.00000000000E+00 0.  1.
          1    1    3    3  501    0 -0.11480367152E+02  0.51453109040E+02 -0.23588307433E+03  0.24170239141E+03  0.00000000000E+00 0.  1.
         -3    1    1    2    0  502  0.14852410509E+02 -0.69900206132E+02 -0.68206295992E+03  0.68579626290E+03  0.00000000000E+00 0. -1.
<mgrwt>
<rscale>  1 0.30000000E+03</rscale>
<asrwt>0</asrwt>
<pdfrwt beam="1">  1       21 0.21505429E-01 0.30000000E+03</pdfrwt>
<pdfrwt beam="2">0</pdfrwt>
<totfact> 0.20879258E+03</totfact>
</mgrwt>
</event>
<event>
 6    1  0.1280499E-001  0.3000000E+03  0.7818608E-02  0.1093470E+00
         21   -1    0    0  501  502  0.00000000000E+00  0.00000000000E+00  0.13185815496E+01  0.13185815496E+01  0.00000000000E+00 0. -1.
         13   -1    0    0    0    0 -0.00000000000E+00 -0.00000000000E+00 -0.10000000000E+04  0.10000000000E+04  0.00000000000E+00 0.  1.
    9000005    2    1    2  501    0 -0.16642405577E+02  0.27823889355E+02 -0.72309114803E+03  0.72382779678E+03  0.38383001753E+01 0.  0.
         13    1    3    3    0    0  0.13094931665E+00  0.16315892383E+00 -0.11301400298E+02  0.11303336554E+02  0.00000000000E+00 0.  1.
          3    1    3    3  501    0 -0.16773354894E+02  0.27660730431E+02 -0.71178974773E+03  0.71252446023E+03  0.00000000000E+00 0.  1.
         -3    1    1    2    0  502  0.16642405577E+02 -0.27823889355E+02 -0.27559027042E+03  0.27749078477E+03  0.00000000000E+00 0. -1.
<mgrwt>
<rscale>  1 0.30000000E+03</rscale>
<asrwt>0</asrwt>
<pdfrwt beam="1">  1       21 0.47948521E-02 0.30000000E+03</pdfrwt>
<pdfrwt beam="2">0</pdfrwt>
<totfact> 0.30934974E+04</totfact>
</mgrwt>
</event>
<event>
 6    1  0.1280499E-001  0.3000000E+03  0.7818608E-02  0.1093470E+00
         21   -1    0    0  501  502  0.00000000000E+00  0.00000000000E+00  0.28499703284E+01  0.28499703284E+01  0.00000000000E+00 0. -1.
         13   -1    0    0    0    0 -0.00000000000E+00 -0.00000000000E+00 -0.10000000000E+04  0.10000000000E+04  0.00000000000E+00 0.  1.
    9000005    2    1    2  501    0 -0.37369726593E+02 -0.17078860794E+02 -0.81837783742E+03  0.81941692893E+03  0.36925190351E+01 0.  0.
         13    1    3    3    0    0 -0.15840773320E+02 -0.67454546697E+01 -0.30827291543E+03  0.30875333463E+03  0.00000000000E+00 0.  1.
          3    1    3    3  501    0 -0.21528953272E+02 -0.10333406124E+02 -0.51010492198E+03  0.51066359430E+03  0.00000000000E+00 0.  1.
         -1    1    1    2    0  502  0.37369726593E+02  0.17078860794E+02 -0.17877219226E+03  0.18343304140E+03  0.00000000000E+00 0. -1.
<mgrwt>
<rscale>  1 0.30000000E+03</rscale>
<asrwt>0</asrwt>
<pdfrwt beam="1">  1       21 0.10363550E-01 0.30000000E+03</pdfrwt>
<pdfrwt beam="2">0</pdfrwt>
<totfact> 0.80708217E+03</totfact>
</mgrwt>
</event>
<event>
 6    1  0.1280499E-001  0.3000000E+03  0.7818608E-02  0.1093470E+00
         21   -1    0    0  501  502  0.00000000000E+00  0.00000000000E+00  0.23684680172E+01  0.23684680172E+01  0.00000000000E+00 0. -1.
         13   -1    0    0    0    0 -0.00000000000E+00 -0.00000000000E+00 -0.10000000000E+04  0.10000000000E+04  0.00000000000E+00 0.  1.
    9000005    2    1    2  501    0  0.21409490095E+02 -0.28082750947E+02 -0.84342641104E+03  0.84417167130E+03  0.32699567793E+01 0.  0.
         13    1    3    3    0    0  0.19272303349E+02 -0.25602097950E+02 -0.78470439623E+03  0.78535843954E+03  0.00000000000E+00 0.  1.
          1    1    3    3  501    0  0.21371867453E+01 -0.24806529964E+01 -0.58722014813E+02  0.58813231761E+02  0.00000000000E+00 0.  1.
         -3    1    1    2    0  502 -0.21409490095E+02  0.28082750947E+02 -0.15420512094E+03  0.15819679671E+03  0.00000000000E+00 0. -1.
<mgrwt>
<rscale>  1 0.30000000E+03</rscale>
<asrwt>0</asrwt>
<pdfrwt beam="1">  1       21 0.86126291E-02 0.30000000E+03</pdfrwt>
<pdfrwt beam="2">0</pdfrwt>
<totfact> 0.11217699E+04</totfact>
</mgrwt>
</event>
<event>
 6    1  0.1280499E-001  0.3000000E+03  0.7818608E-02  0.1093470E+00
         21   -1    0    0  501  502  0.00000000000E+00  0.00000000000E+00  0.13105487374E+01  0.13105487374E+01  0.00000000000E+00 0. -1.
         13   -1    0    0    0    0 -0.00000000000E+00 -0.00000000000E+00 -0.10000000000E+04  0.10000000000E+04  0.00000000000E+00 0.  1.
    9000005    2    1    2  501    0  0.33996970989E+02  0.93208367580E+00 -0.66568236861E+03  0.66657127720E+03  0.52525123378E+01 0.  0.
         13    1    3    3    0    0  0.23408023421E+02 -0.14493521425E+01 -0.42992356400E+03  0.43056277947E+03  0.00000000000E+00 0.  1.
          3    1    3    3  501    0  0.10588947568E+02  0.23814358183E+01 -0.23575880462E+03  0.23600849773E+03  0.00000000000E+00 0.  1.
         -3    1    1    2    0  502 -0.33996970989E+02 -0.93208367580E+00 -0.33300708265E+03  0.33473927154E+03  0.00000000000E+00 0. -1.
<mgrwt>
<rscale>  1 0.30000000E+03</rscale>
<asrwt>0</asrwt>
<pdfrwt beam="1">  1       21 0.47656418E-02 0.30000000E+03</pdfrwt>
<pdfrwt beam="2">0</pdfrwt>
<totfact> 0.31258256E+04</totfact>
</mgrwt>
</event>
<event>
 6    1  0.1280499E-001  0.3000000E+03  0.7818608E-02  0.1093470E+00
         21   -1    0    0  501  502  0.00000000000E+00  0.00000000000E+00  0.31488451825E+01  0.31488451825E+01  0.00000000000E+00 0. -1.
         13   -1    0    0    0    0 -0.00000000000E+00 -0.00000000000E+00 -0.10000000000E+04  0.10000000000E+04  0.00000000000E+00 0.  1.
    9000005    2    1    2  501    0  0.31772539528E+02  0.12996173925E+02 -0.89382133715E+03  0.89455078750E+03  0.11230933148E+02 0.  0.
         13    1    3    3    0    0  0.12286830960E+02  0.11062784161E+02 -0.40297086713E+03  0.40330989470E+03  0.00000000000E+00 0.  1.
          1    1    3    3  501    0  0.19485708569E+02  0.19333897635E+01 -0.49085047003E+03  0.49124089280E+03  0.00000000000E+00 0.  1.
         -3    1    1    2    0  502 -0.31772539528E+02 -0.12996173925E+02 -0.10302981767E+03  0.10859805769E+03  0.00000000000E+00 0. -1.
<mgrwt>
<rscale>  1 0.30000000E+03</rscale>
<asrwt>0</asrwt>
<pdfrwt beam="1">  1       21 0.11450370E-01 0.30000000E+03</pdfrwt>
<pdfrwt beam="2">0</pdfrwt>
<totfact> 0.67460464E+03</totfact>
</mgrwt>
</event>
<event>
 6    1  0.1280499E-001  0.3000000E+03  0.7818608E-02  0.1093470E+00
         21   -1    0    0  501  502  0.00000000000E+00  0.00000000000E+00  0.17769142713E+01  0.17769142713E+01  0.00000000000E+00 0. -1.
         13   -1    0    0    0    0 -0.00000000000E+00 -0.00000000000E+00 -0.10000000000E+04  0.10000000000E+04  0.00000000000E+00 0.  1.
    9000005    2    1    2  501    0  0.24298619294E+02 -0.19358996076E+02 -0.83728357059E+03  0.83786620333E+03  0.32868635122E+01 0.  0.
         13    1    3    3    0    0  0.11361519251E+02 -0.10737994223E+02 -0.44610018126E+03  0.44637401399E+03  0.00000000000E+00 0.  1.
          1    1    3    3  501    0  0.12937100043E+02 -0.86210018530E+01 -0.39118338933E+03  0.39149218934E+03  0.00000000000E+00 0.  1.
         -1    1    1    2    0  502 -0.24298619294E+02  0.19358996076E+02 -0.16093951514E+03  0.16391071094E+03  0.00000000000E+00 0. -1.
<mgrwt>
<rscale>  1 0.30000000E+03</rscale>
<asrwt>0</asrwt>
<pdfrwt beam="1">  1       21 0.64615201E-02 0.30000000E+03</pdfrwt>
<pdfrwt beam="2">0</pdfrwt>
<totfact> 0.18539629E+04</totfact>
</mgrwt>
</event>
<event>
 6    1  0.1280499E-001  0.3000000E+03  0.7818608E-02  0.1093470E+00
         21   -1    0    0  501  502  0.00000000000E+00  0.00000000000E+00  0.34529300495E+01  0.34529300495E+01  0.00000000000E+00 0. -1.
         13   -1    0    0    0    0 -0.00000000000E+00 -0.00000000000E+00 -0.10000000000E+04  0.10000000000E+04  0.00000000000E+00 0.  1.
    9000005    2    1    2  501    0  0.73759039452E+01 -0.36587422891E+02 -0.88568457478E+03  0.88647628149E+03  0.31604062618E+01 0.  0.
         13    1    3    3    0    0 -0.15646539362E-01 -0.54950604141E+01 -0.13403190352E+03  0.13414450080E+03  0.00000000000E+00 0.  1.
          3    1    3    3  501    0  0.73915504845E+01 -0.31092362477E+02 -0.75165267126E+03  0.75233178069E+03  0.00000000000E+00 0.  1.
         -1    1    1    2    0  502 -0.73759039452E+01  0.36587422891E+02 -0.11086249517E+03  0.11697664856E+03  0.00000000000E+00 0. -1.
<mgrwt>
<rscale>  1 0.30000000E+03</rscale>
<asrwt>0</asrwt>
<pdfrwt beam="1">  1       21 0.12556136E-01 0.30000000E+03</pdfrwt>
<pdfrwt beam="2">0</pdfrwt>
<totfact> 0.57069215E+03</totfact>
</mgrwt>
</event>
<event>
 6    1  0.1280499E-001  0.3000000E+03  0.7818608E-02  0.1093470E+00
         21   -1    0    0  501  502  0.00000000000E+00  0.00000000000E+00  0.99585400631E+00  0.99585400631E+00  0.00000000000E+00 0. -1.
         13   -1    0    0    0    0 -0.00000000000E+00 -0.00000000000E+00 -0.10000000000E+04  0.10000000000E+04  0.00000000000E+00 0.  1.
    9000005    2    1    2  501    0 -0.30979426473E+02  0.35903381764E+01 -0.56940618342E+03  0.57026737243E+03  0.29763987514E+01 0.  0.
         13    1    3    3    0    0 -0.17240904673E+02  0.34051725125E+01 -0.31084371143E+03  0.31134009849E+03  0.00000000000E+00 0.  1.
          3    1    3    3  501    0 -0.13738521800E+02  0.18516566393E+00 -0.25856247199E+03  0.25892727394E+03  0.00000000000E+00 0.  1.
         -3    1    1    2    0  502  0.30979426473E+02 -0.35903381764E+01 -0.42959796258E+03  0.43072848158E+03  0.00000000000E+00 0. -1.
<mgrwt>
<rscale>  1 0.30000000E+03</rscale>
<asrwt>0</asrwt>
<pdfrwt beam="1">  1       21 0.36212949E-02 0.30000000E+03</pdfrwt>
<pdfrwt beam="2">0</pdfrwt>
<totfact> 0.49696312E+04</totfact>
</mgrwt>
</event>
<event>
 6    1  0.1280499E-001  0.3000000E+03  0.7818608E-02  0.1093470E+00
         21   -1    0    0  501  502  0.00000000000E+00  0.00000000000E+00  0.11589182062E+01  0.11589182062E+01  0.00000000000E+00 0. -1.
         13   -1    0    0    0    0 -0.00000000000E+00 -0.00000000000E+00 -0.10000000000E+04  0.10000000000E+04  0.00000000000E+00 0.  1.
    9000005    2    1    2  501    0 -0.26241146209E+02  0.18377327431E+02 -0.66645033995E+03  0.66722789362E+03  0.32684074038E+01 0.  0.
         13    1    3    3    0    0 -0.49865208640E+01  0.32293519443E+01 -0.99644830107E+02  0.99821772531E+02  0.00000000000E+00 0.  1.
          1    1    3    3  501    0 -0.21254625345E+02  0.15147975487E+02 -0.56680550984E+03  0.56740612109E+03  0.00000000000E+00 0.  1.
         -1    1    1    2    0  502  0.26241146209E+02 -0.18377327431E+02 -0.33239074184E+03  0.33393102459E+03  0.00000000000E+00 0. -1.
<mgrwt>
<rscale>  1 0.30000000E+03</rscale>
<asrwt>0</asrwt>
<pdfrwt beam="1">  1       21 0.42142569E-02 0.30000000E+03</pdfrwt>
<pdfrwt beam="2">0</pdfrwt>
<totfact> 0.38505461E+04</totfact>
</mgrwt>
</event>
<event>
 6    1  0.1280499E-001  0.3000000E+03  0.7818608E-02  0.1093470E+00
         21   -1    0    0  501  502  0.00000000000E+00  0.00000000000E+00  0.63826107260E+01  0.63826107260E+01  0.00000000000E+00 0. -1.
         13   -1    0    0    0    0 -0.00000000000E+00 -0.00000000000E+00 -0.10000000000E+04  0.10000000000E+04  0.00000000000E+00 0.  1.
    9000005    2    1    2  501    0 -0.10740229660E+02  0.65145517070E+02 -0.21407249686E+03  0.22404666613E+03  0.32532694417E+01 0.  0.
         13    1    3    3    0    0 -0.10288713355E+02  0.61605417490E+02 -0.20474283183E+03  0.21405773116E+03  0.00000000000E+00 0.  1.
          3    1    3    3  501    0 -0.45151630464E+00  0.35400995803E+01 -0.93296650363E+01  0.99889349633E+01  0.00000000000E+00 0.  1.
         -3    1    1    2    0  502  0.10740229660E+02 -0.65145517070E+02 -0.77954489241E+03  0.78233594460E+03  0.00000000000E+00 0. -1.
<mgrwt>
<rscale>  1 0.30000000E+03</rscale>
<asrwt>0</asrwt>
<pdfrwt beam="1">  1       21 0.23209542E-01 0.30000000E+03</pdfrwt>
<pdfrwt beam="2">0</pdfrwt>
<totfact> 0.18023529E+03</totfact>
</mgrwt>
</event>
<event>
 6    1  0.1280499E-001  0.3000000E+03  0.7818608E-02  0.1093470E+00
         21   -1    0    0  501  502  0.00000000000E+00  0.00000000000E+00  0.14201700637E+01  0.14201700637E+01  0.00000000000E+00 0. -1.
         13   -1    0    0    0    0 -0.00000000000E+00 -0.00000000000E+00 -0.10000000000E+04  0.10000000000E+04  0.00000000000E+00 0.  1.
    9000005    2    1    2  501    0  0.27158223933E+02 -0.23738544334E+02 -0.64217280691E+03  0.64319251385E+03  0.30997295070E+01 0.  0.
         13    1    3    3    0    0  0.11541058652E+02 -0.93038420834E+01 -0.28911339801E+03  0.28949320272E+03  0.00000000000E+00 0.  1.
          1    1    3    3  501    0  0.15617165280E+02 -0.14434702251E+02 -0.35305940891E+03  0.35369931113E+03  0.00000000000E+00 0.  1.
         -3    1    1    2    0  502 -0.27158223933E+02  0.23738544334E+02 -0.35640702302E+03  0.35822765621E+03  0.00000000000E+00 0. -1.
<mgrwt>
<rscale>  1 0.30000000E+03</rscale>
<asrwt>0</asrwt>
<pdfrwt beam="1">  1       21 0.51642657E-02 0.30000000E+03</pdfrwt>
<pdfrwt beam="2">0</pdfrwt>
<totfact> 0.27259052E+04</totfact>
</mgrwt>
</event>
<event>
 6    1  0.1280499E-001  0.3000000E+03  0.7818608E-02  0.1093470E+00
         21   -1    0    0  501  502  0.00000000000E+00  0.00000000000E+00  0.28226675111E+01  0.28226675111E+01  0.00000000000E+00 0. -1.
         13   -1    0    0    0    0 -0.00000000000E+00 -0.00000000000E+00 -0.10000000000E+04  0.10000000000E+04  0.00000000000E+00 0.  1.
    9000005    2    1    2  501    0 -0.36297873037E+02  0.19387260841E+01 -0.86423702556E+03  0.86500242425E+03  0.15044488192E+01 0.  0.
         13    1    3    3    0    0 -0.11021501456E+02  0.59571656152E-01 -0.25143445731E+03  0.25167590938E+03  0.00000000000E+00 0.  1.
          3    1    3    3  501    0 -0.25276371581E+02  0.18791544280E+01 -0.61280256826E+03  0.61332651487E+03  0.00000000000E+00 0.  1.
         -1    1    1    2    0  502  0.36297873037E+02 -0.19387260841E+01 -0.13294030693E+03  0.13782024326E+03  0.00000000000E+00 0. -1.
<mgrwt>
<rscale>  1 0.30000000E+03</rscale>
<asrwt>0</asrwt>
<pdfrwt beam="1">  1       21 0.10264267E-01 0.30000000E+03</pdfrwt>
<pdfrwt beam="2">0</pdfrwt>
<totfact> 0.82111209E+03</totfact>
</mgrwt>
</event>
<event>
 6    1  0.1280499E-001  0.3000000E+03  0.7818608E-02  0.1093470E+00
         21   -1    0    0  501  502  0.00000000000E+00  0.00000000000E+00  0.98362207912E+00  0.98362207912E+00  0.00000000000E+00 0. -1.
         13   -1    0    0    0    0 -0.00000000000E+00 -0.00000000000E+00 -0.10000000000E+04  0.10000000000E+04  0.00000000000E+00 0.  1.
    9000005    2    1    2  501    0  0.29042399392E+02 -0.89807026266E+01 -0.60818098335E+03  0.60896778103E+03  0.57910141553E+01 0.  0.
         13    1    3    3    0    0  0.12113266268E+02 -0.19227975742E+01 -0.20093025368E+03  0.20130423546E+03  0.00000000000E+00 0.  1.
          1    1    3    3  501    0  0.16929133124E+02 -0.70579050524E+01 -0.40725072967E+03  0.40766354557E+03  0.00000000000E+00 0.  1.
         -1    1    1    2    0  502 -0.29042399392E+02  0.89807026266E+01 -0.39083539457E+03  0.39201584105E+03  0.00000000000E+00 0. -1.
<mgrwt>
<rscale>  1 0.30000000E+03</rscale>
<asrwt>0</asrwt>
<pdfrwt beam="1">  1       21 0.35768151E-02 0.30000000E+03</pdfrwt>
<pdfrwt beam="2">0</pdfrwt>
<totfact> 0.50737023E+04</totfact>
</mgrwt>
</event>
<event>
 6    1  0.1280499E-001  0.3000000E+03  0.7818608E-02  0.1093470E+00
         21   -1    0    0  501  502  0.00000000000E+00  0.00000000000E+00  0.16403861172E+01  0.16403861172E+01  0.00000000000E+00 0. -1.
         13   -1    0    0    0    0 -0.00000000000E+00 -0.00000000000E+00 -0.10000000000E+04  0.10000000000E+04  0.00000000000E+00 0.  1.
    9000005    2    1    2  501    0  0.16242251943E+02 -0.26414747461E+02 -0.82091175078E+03  0.82150351107E+03  0.32197052843E+01 0.  0.
         13    1    3    3    0    0  0.93980465836E+01 -0.12600257437E+02 -0.39375900560E+03  0.39407263830E+03  0.00000000000E+00 0.  1.
          3    1    3    3  501    0  0.68442053591E+01 -0.13814490024E+02 -0.42715274518E+03  0.42743087277E+03  0.00000000000E+00 0.  1.
         -1    1    1    2    0  502 -0.16242251943E+02  0.26414747461E+02 -0.17744786310E+03  0.18013687505E+03  0.00000000000E+00 0. -1.
<mgrwt>
<rscale>  1 0.30000000E+03</rscale>
<asrwt>0</asrwt>
<pdfrwt beam="1">  1       21 0.59650530E-02 0.30000000E+03</pdfrwt>
<pdfrwt beam="2">0</pdfrwt>
<totfact> 0.21285001E+04</totfact>
</mgrwt>
</event>
<event>
 6    1  0.1280499E-001  0.3000000E+03  0.7818608E-02  0.1093470E+00
         21   -1    0    0  501  502  0.00000000000E+00  0.00000000000E+00  0.90954240277E+00  0.90954240277E+00  0.00000000000E+00 0. -1.
         13   -1    0    0    0    0 -0.00000000000E+00 -0.00000000000E+00 -0.10000000000E+04  0.10000000000E+04  0.00000000000E+00 0.  1.
    9000005    2    1    2  501    0 -0.29811090416E+02 -0.36714367661E+01 -0.51634380208E+03  0.51722936504E+03  0.36212642061E+01 0.  0.
         13    1    3    3    0    0 -0.20746105081E+02 -0.22452756906E+01 -0.38530400714E+03  0.38586865648E+03  0.00000000000E+00 0.  1.
          1    1    3    3  501    0 -0.90649853350E+01 -0.14261610754E+01 -0.13103979494E+03  0.13136070855E+03  0.00000000000E+00 0.  1.
         -3    1    1    2    0  502  0.29811090416E+02  0.36714367661E+01 -0.48274665552E+03  0.48368017736E+03  0.00000000000E+00 0. -1.
<mgrwt>
<rscale>  1 0.30000000E+03</rscale>
<asrwt>0</asrwt>
<pdfrwt beam="1">  1       21 0.33074339E-02 0.30000000E+03</pdfrwt>
<pdfrwt beam="2">0</pdfrwt>
<totfact> 0.57836018E+04</totfact>
</mgrwt>
</event>
<event>
 6    1  0.1280499E-001  0.3000000E+03  0.7818608E-02  0.1093470E+00
         21   -1    0    0  501  502  0.00000000000E+00  0.00000000000E+00  0.16724936226E+01  0.16724936226E+01  0.00000000000E+00 0. -1.
         13   -1    0    0    0    0 -0.00000000000E+00 -0.00000000000E+00 -0.10000000000E+04  0.10000000000E+04  0.00000000000E+00 0.  1.
    9000005    2    1    2  501    0  0.26602655873E+02  0.24869435792E+02 -0.27316812052E+03  0.27559927071E+03  0.28188313813E+01 0.  0.
         13    1    3    3    0    0  0.14687286977E+02  0.13258765757E+02 -0.15860048822E+03  0.15982999134E+03  0.00000000000E+00 0.  1.
          1    1    3    3  501    0  0.11915368896E+02  0.11610670035E+02 -0.11456763230E+03  0.11576927937E+03  0.00000000000E+00 0.  1.
         -1    1    1    2    0  502 -0.26602655873E+02 -0.24869435792E+02 -0.72515938586E+03  0.72607322291E+03  0.00000000000E+00 0. -1.
<mgrwt>
<rscale>  1 0.30000000E+03</rscale>
<asrwt>0</asrwt>
<pdfrwt beam="1">  1       21 0.60818078E-02 0.30000000E+03</pdfrwt>
<pdfrwt beam="2">0</pdfrwt>
<totfact> 0.20585087E+04</totfact>
</mgrwt>
</event>
<event>
 6    1  0.1280499E-001  0.3000000E+03  0.7818608E-02  0.1093470E+00
         21   -1    0    0  501  502  0.00000000000E+00  0.00000000000E+00  0.95531104919E+00  0.95531104919E+00  0.00000000000E+00 0. -1.
         13   -1    0    0    0    0 -0.00000000000E+00 -0.00000000000E+00 -0.10000000000E+04  0.10000000000E+04  0.00000000000E+00 0.  1.
    9000005    2    1    2  501    0  0.26630066344E+02 -0.15509838124E+02 -0.51902842642E+03  0.51995081231E+03  0.29367122761E+01 0.  0.
         13    1    3    3    0    0  0.25889189400E+02 -0.15573037466E+02 -0.50577602821E+03  0.50667757039E+03  0.00000000000E+00 0.  1.
          1    1    3    3  501    0  0.74087694358E+00  0.63199341753E-01 -0.13252398208E+02  0.13273241920E+02  0.00000000000E+00 0.  1.
         -1    1    1    2    0  502 -0.26630066344E+02  0.15509838124E+02 -0.48001626253E+03  0.48100449874E+03  0.00000000000E+00 0. -1.
<mgrwt>
<rscale>  1 0.30000000E+03</rscale>
<asrwt>0</asrwt>
<pdfrwt beam="1">  1       21 0.34738657E-02 0.30000000E+03</pdfrwt>
<pdfrwt beam="2">0</pdfrwt>
<totfact> 0.53281132E+04</totfact>
</mgrwt>
</event>
<event>
 6    1  0.1280499E-001  0.3000000E+03  0.7818608E-02  0.1093470E+00
         21   -1    0    0  501  502  0.00000000000E+00  0.00000000000E+00  0.30693891274E+01  0.30693891274E+01  0.00000000000E+00 0. -1.
         13   -1    0    0    0    0 -0.00000000000E+00 -0.00000000000E+00 -0.10000000000E+04  0.10000000000E+04  0.00000000000E+00 0.  1.
    9000005    2    1    2  501    0 -0.13678246952E+02 -0.34458963492E+02 -0.12649265880E+03  0.13184224136E+03  0.27329967183E+01 0.  0.
         13    1    3    3    0    0 -0.20698131905E+01 -0.38227837000E+01 -0.17524922132E+02  0.18056043243E+02  0.00000000000E+00 0.  1.
          1    1    3    3  501    0 -0.11608433762E+02 -0.30636179792E+02 -0.10896773667E+03  0.11378619811E+03  0.00000000000E+00 0.  1.
         -1    1    1    2    0  502  0.13678246952E+02  0.34458963492E+02 -0.87043795207E+03  0.87122714777E+03  0.00000000000E+00 0. -1.
<mgrwt>
<rscale>  1 0.30000000E+03</rscale>
<asrwt>0</asrwt>
<pdfrwt beam="1">  1       21 0.11161439E-01 0.30000000E+03</pdfrwt>
<pdfrwt beam="2">0</pdfrwt>
<totfact> 0.70642806E+03</totfact>
</mgrwt>
</event>
<event>
 6    1  0.1280499E-001  0.3000000E+03  0.7818608E-02  0.1093470E+00
         21   -1    0    0  501  502  0.00000000000E+00  0.00000000000E+00  0.40133622680E+01  0.40133622680E+01  0.00000000000E+00 0. -1.
         13   -1    0    0    0    0 -0.00000000000E+00 -0.00000000000E+00 -0.10000000000E+04  0.10000000000E+04  0.00000000000E+00 0.  1.
    9000005    2    1    2  501    0  0.34981914652E+02 -0.21593020263E+02 -0.87985598739E+03  0.88082115137E+03  0.30576592119E+01 0.  0.
         13    1    3    3    0    0  0.27172453849E+02 -0.15295311637E+02 -0.67354120606E+03  0.67426259355E+03  0.00000000000E+00 0.  1.
          3    1    3    3  501    0  0.78094608030E+01 -0.62977086258E+01 -0.20631478133E+03  0.20655855782E+03  0.00000000000E+00 0.  1.
         -3    1    1    2    0  502 -0.34981914652E+02  0.21593020263E+02 -0.11613065034E+03  0.12319221090E+03  0.00000000000E+00 0. -1.
<mgrwt>
<rscale>  1 0.30000000E+03</rscale>
<asrwt>0</asrwt>
<pdfrwt beam="1">  1       21 0.14594075E-01 0.30000000E+03</pdfrwt>
<pdfrwt beam="2">0</pdfrwt>
<totfact> 0.43321931E+03</totfact>
</mgrwt>
</event>
<event>
 6    1  0.1280499E-001  0.3000000E+03  0.7818608E-02  0.1093470E+00
         21   -1    0    0  501  502  0.00000000000E+00  0.00000000000E+00  0.23081186633E+01  0.23081186633E+01  0.00000000000E+00 0. -1.
         13   -1    0    0    0    0 -0.00000000000E+00 -0.00000000000E+00 -0.10000000000E+04  0.10000000000E+04  0.00000000000E+00 0.  1.
    9000005    2    1    2  501    0 -0.24687546388E+02  0.35582498095E+02 -0.70814911981E+03  0.70954439162E+03  0.10123175401E+02 0.  0.
         13    1    3    3    0    0 -0.13369347802E+02  0.25272204051E+02 -0.51268532673E+03  0.51348190621E+03  0.00000000000E+00 0.  1.
          1    1    3    3  501    0 -0.11318198587E+02  0.10310294044E+02 -0.19546379308E+03  0.19606248542E+03  0.00000000000E+00 0.  1.
         -1    1    1    2    0  502  0.24687546388E+02 -0.35582498095E+02 -0.28954276153E+03  0.29276372704E+03  0.00000000000E+00 0. -1.
<mgrwt>
<rscale>  1 0.30000000E+03</rscale>
<asrwt>0</asrwt>
<pdfrwt beam="1">  1       21 0.83931765E-02 0.30000000E+03</pdfrwt>
<pdfrwt beam="2">0</pdfrwt>
<totfact> 0.11740069E+04</totfact>
</mgrwt>
</event>
<event>
 6    1  0.1280499E-001  0.3000000E+03  0.7818608E-02  0.1093470E+00
         21   -1    0    0  501  502  0.00000000000E+00  0.00000000000E+00  0.59783775990E+01  0.59783775990E+01  0.00000000000E+00 0. -1.
         13   -1    0    0    0    0 -0.00000000000E+00 -0.00000000000E+00 -0.10000000000E+04  0.10000000000E+04  0.00000000000E+00 0.  1.
    9000005    2    1    2  501    0  0.29255638121E+02 -0.28187744062E+02 -0.92493002840E+03  0.92582795877E+03  0.33779467987E+01 0.  0.
         13    1    3    3    0    0  0.41683262569E+01 -0.57496161614E+01 -0.15499420483E+03  0.15515681281E+03  0.00000000000E+00 0.  1.
          3    1    3    3  501    0  0.25087311864E+02 -0.22438127900E+02 -0.76993582356E+03  0.77067114595E+03  0.00000000000E+00 0.  1.
         -3    1    1    2    0  502 -0.29255638121E+02  0.28187744062E+02 -0.69091594004E+02  0.80150418834E+02  0.00000000000E+00 0. -1.
<mgrwt>
<rscale>  1 0.30000000E+03</rscale>
<asrwt>0</asrwt>
<pdfrwt beam="1">  1       21 0.21739601E-01 0.30000000E+03</pdfrwt>
<pdfrwt beam="2">0</pdfrwt>
<totfact> 0.20449127E+03</totfact>
</mgrwt>
</event>
<event>
 6    1  0.1280499E-001  0.3000000E+03  0.7818608E-02  0.1093470E+00
         21   -1    0    0  501  502  0.00000000000E+00  0.00000000000E+00  0.54003777406E+01  0.54003777406E+01  0.00000000000E+00 0. -1.
         13   -1    0    0    0    0 -0.00000000000E+00 -0.00000000000E+00 -0.10000000000E+04  0.10000000000E+04  0.00000000000E+00 0.  1.
    9000005    2    1    2  501    0  0.34376829989E+02 -0.37650705551E+02 -0.85917244445E+03  0.86069425293E+03  0.42385910401E+01 0.  0.
         13    1    3    3    0    0  0.52617489888E+01 -0.48473137562E+01 -0.14477869378E+03  0.14495534700E+03  0.00000000000E+00 0.  1.
          1    1    3    3  501    0  0.29115081000E+02 -0.32803391795E+02 -0.71439375068E+03  0.71573890593E+03  0.00000000000E+00 0.  1.
         -1    1    1    2    0  502 -0.34376829989E+02  0.37650705551E+02 -0.13542717781E+03  0.14470612481E+03  0.00000000000E+00 0. -1.
<mgrwt>
<rscale>  1 0.30000000E+03</rscale>
<asrwt>0</asrwt>
<pdfrwt beam="1">  1       21 0.19637779E-01 0.30000000E+03</pdfrwt>
<pdfrwt beam="2">0</pdfrwt>
<totfact> 0.24842935E+03</totfact>
</mgrwt>
</event>
<event>
 6    1  0.1280499E-001  0.3000000E+03  0.7818608E-02  0.1093470E+00
         21   -1    0    0  501  502  0.00000000000E+00  0.00000000000E+00  0.21803495460E+01  0.21803495460E+01  0.00000000000E+00 0. -1.
         13   -1    0    0    0    0 -0.00000000000E+00 -0.00000000000E+00 -0.10000000000E+04  0.10000000000E+04  0.00000000000E+00 0.  1.
    9000005    2    1    2  501    0  0.33468646967E+02  0.30683872419E+02 -0.61325633716E+03  0.61494580526E+03  0.36548575822E+01 0.  0.
         13    1    3    3    0    0  0.25796970183E+01  0.24233816576E+01 -0.36147367995E+02  0.36320239926E+02  0.00000000000E+00 0.  1.
          3    1    3    3  501    0  0.30888949949E+02  0.28260490761E+02 -0.57710896916E+03  0.57862556533E+03  0.00000000000E+00 0.  1.
         -3    1    1    2    0  502 -0.33468646967E+02 -0.30683872419E+02 -0.38456331330E+03  0.38723454429E+03  0.00000000000E+00 0. -1.
<mgrwt>
<rscale>  1 0.30000000E+03</rscale>
<asrwt>0</asrwt>
<pdfrwt beam="1">  1       21 0.79285605E-02 0.30000000E+03</pdfrwt>
<pdfrwt beam="2">0</pdfrwt>
<totfact> 0.12976670E+04</totfact>
</mgrwt>
</event>
<event>
 6    1  0.1280499E-001  0.3000000E+03  0.7818608E-02  0.1093470E+00
         21   -1    0    0  501  502  0.00000000000E+00  0.00000000000E+00  0.20554388355E+01  0.20554388355E+01  0.00000000000E+00 0. -1.
         13   -1    0    0    0    0 -0.00000000000E+00 -0.00000000000E+00 -0.10000000000E+04  0.10000000000E+04  0.00000000000E+00 0.  1.
    9000005    2    1    2  501    0 -0.31579068075E+02  0.11002908643E+02 -0.83699845395E+03  0.83767189049E+03  0.30793933596E+01 0.  0.
         13    1    3    3    0    0 -0.29438182906E+02  0.10448886905E+02 -0.76001486242E+03  0.76065654336E+03  0.00000000000E+00 0.  1.
          1    1    3    3  501    0 -0.21408851690E+01  0.55402173877E+00 -0.76983591532E+02  0.77015347136E+02  0.00000000000E+00 0.  1.
         -3    1    1    2    0  502  0.31579068075E+02 -0.11002908643E+02 -0.16094610721E+03  0.16438354834E+03  0.00000000000E+00 0. -1.
<mgrwt>
<rscale>  1 0.30000000E+03</rscale>
<asrwt>0</asrwt>
<pdfrwt beam="1">  1       21 0.74743388E-02 0.30000000E+03</pdfrwt>
<pdfrwt beam="2">0</pdfrwt>
<totfact> 0.14390554E+04</totfact>
</mgrwt>
</event>
<event>
 6    1  0.1280499E-001  0.3000000E+03  0.7818608E-02  0.1093470E+00
         21   -1    0    0  501  502  0.00000000000E+00  0.00000000000E+00  0.22964550817E+01  0.22964550817E+01  0.00000000000E+00 0. -1.
         13   -1    0    0    0    0 -0.00000000000E+00 -0.00000000000E+00 -0.10000000000E+04  0.10000000000E+04  0.00000000000E+00 0.  1.
    9000005    2    1    2  501    0 -0.91494070798E+01 -0.32125961151E+02 -0.85789818740E+03  0.85855597011E+03  0.36420918588E+01 0.  0.
         13    1    3    3    0    0 -0.94644178071E+01 -0.30333705038E+02 -0.81489638537E+03  0.81551568210E+03  0.00000000000E+00 0.  1.
          3    1    3    3  501    0  0.31501072730E+00 -0.17922561133E+01 -0.43001802035E+02  0.43040288010E+02  0.00000000000E+00 0.  1.
         -1    1    1    2    0  502  0.91494070798E+01  0.32125961151E+02 -0.13980535752E+03  0.14374048497E+03  0.00000000000E+00 0. -1.
<mgrwt>
<rscale>  1 0.30000000E+03</rscale>
<asrwt>0</asrwt>
<pdfrwt beam="1">  1       21 0.83507634E-02 0.30000000E+03</pdfrwt>
<pdfrwt beam="2">0</pdfrwt>
<totfact> 0.11845304E+04</totfact>
</mgrwt>
</event>
<event>
 6    1  0.1280499E-001  0.3000000E+03  0.7818608E-02  0.1093470E+00
         21   -1    0    0  501  502  0.00000000000E+00  0.00000000000E+00  0.11678823247E+01  0.11678823247E+01  0.00000000000E+00 0. -1.
         13   -1    0    0    0    0 -0.00000000000E+00 -0.00000000000E+00 -0.10000000000E+04  0.10000000000E+04  0.00000000000E+00 0.  1.
    9000005    2    1    2  501    0 -0.30716278836E+02  0.11189124996E+02 -0.35908411142E+03  0.36058518055E+03  0.34039763777E+01 0.  0.
         13    1    3    3    0    0 -0.29170250470E+02  0.10094769378E+02 -0.34412667072E+03  0.34550828265E+03  0.00000000000E+00 0.  1.
          1    1    3    3  501    0 -0.15460283664E+01  0.10943556180E+01 -0.14957440695E+02  0.15076897893E+02  0.00000000000E+00 0.  1.
         -1    1    1    2    0  502  0.30716278836E+02 -0.11189124996E+02 -0.63974800626E+03  0.64058270178E+03  0.00000000000E+00 0. -1.
<mgrwt>
<rscale>  1 0.30000000E+03</rscale>
<asrwt>0</asrwt>
<pdfrwt beam="1">  1       21 0.42468538E-02 0.30000000E+03</pdfrwt>
<pdfrwt beam="2">0</pdfrwt>
<totfact> 0.38007479E+04</totfact>
</mgrwt>
</event>
<event>
 6    1  0.1280499E-001  0.3000000E+03  0.7818608E-02  0.1093470E+00
         21   -1    0    0  501  502  0.00000000000E+00  0.00000000000E+00  0.56136018816E+01  0.56136018816E+01  0.00000000000E+00 0. -1.
         13   -1    0    0    0    0 -0.00000000000E+00 -0.00000000000E+00 -0.10000000000E+04  0.10000000000E+04  0.00000000000E+00 0.  1.
    9000005    2    1    2  501    0  0.58469455433E+02  0.11648020375E+02 -0.80156268411E+03  0.80378362819E+03  0.33212630364E+01 0.  0.
         13    1    3    3    0    0  0.51037530197E+02  0.94236961697E+01 -0.70819961965E+03  0.71009882187E+03  0.00000000000E+00 0.  1.
          1    1    3    3  501    0  0.74319252360E+01  0.22243242055E+01 -0.93363064454E+02  0.93684806320E+02  0.00000000000E+00 0.  1.
         -1    1    1    2    0  502 -0.58469455433E+02 -0.11648020375E+02 -0.19282371401E+03  0.20182997370E+03  0.00000000000E+00 0. -1.
<mgrwt>
<rscale>  1 0.30000000E+03</rscale>
<asrwt>0</asrwt>
<pdfrwt beam="1">  1       21 0.20413141E-01 0.30000000E+03</pdfrwt>
<pdfrwt beam="2">0</pdfrwt>
<totfact> 0.23072936E+03</totfact>
</mgrwt>
</event>
<event>
 6    1  0.1280499E-001  0.3000000E+03  0.7818608E-02  0.1093470E+00
         21   -1    0    0  501  502  0.00000000000E+00  0.00000000000E+00  0.21307038993E+01  0.21307038993E+01  0.00000000000E+00 0. -1.
         13   -1    0    0    0    0 -0.00000000000E+00 -0.00000000000E+00 -0.10000000000E+04  0.10000000000E+04  0.00000000000E+00 0.  1.
    9000005    2    1    2  501    0 -0.27285133552E+02 -0.36600183019E+02 -0.43063192517E+03  0.43305927878E+03  0.35259111612E+01 0.  0.
         13    1    3    3    0    0 -0.16945093747E+02 -0.24450555131E+02 -0.26748822326E+03  0.26913735421E+03  0.00000000000E+00 0.  1.
          1    1    3    3  501    0 -0.10340039805E+02 -0.12149627888E+02 -0.16314370191E+03  0.16392192456E+03  0.00000000000E+00 0.  1.
         -1    1    1    2    0  502  0.27285133552E+02  0.36600183019E+02 -0.56723737093E+03  0.56907142512E+03  0.00000000000E+00 0. -1.
<mgrwt>
<rscale>  1 0.30000000E+03</rscale>
<asrwt>0</asrwt>
<pdfrwt beam="1">  1       21 0.77480305E-02 0.30000000E+03</pdfrwt>
<pdfrwt beam="2">0</pdfrwt>
<totfact> 0.13511815E+04</totfact>
</mgrwt>
</event>
<event>
 6    1  0.1280499E-001  0.3000000E+03  0.7818608E-02  0.1093470E+00
         21   -1    0    0  501  502  0.00000000000E+00  0.00000000000E+00  0.14183968506E+01  0.14183968506E+01  0.00000000000E+00 0. -1.
         13   -1    0    0    0    0 -0.00000000000E+00 -0.00000000000E+00 -0.10000000000E+04  0.10000000000E+04  0.00000000000E+00 0.  1.
    9000005    2    1    2  501    0 -0.31606278935E+02 -0.20310385394E+02 -0.50633727321E+03  0.50774244140E+03  0.36720489999E+01 0.  0.
         13    1    3    3    0    0 -0.14327670086E+02 -0.72552344519E+01 -0.22608869148E+03  0.22665837062E+03  0.00000000000E+00 0.  1.
          1    1    3    3  501    0 -0.17278608849E+02 -0.13055150943E+02 -0.28024858172E+03  0.28108407078E+03  0.00000000000E+00 0.  1.
         -1    1    1    2    0  502  0.31606278935E+02  0.20310385394E+02 -0.49224432994E+03  0.49367595545E+03  0.00000000000E+00 0. -1.
<mgrwt>
<rscale>  1 0.30000000E+03</rscale>
<asrwt>0</asrwt>
<pdfrwt beam="1">  1       21 0.51578176E-02 0.30000000E+03</pdfrwt>
<pdfrwt beam="2">0</pdfrwt>
<totfact> 0.27317269E+04</totfact>
</mgrwt>
</event>
<event>
 6    1  0.1280499E-001  0.3000000E+03  0.7818608E-02  0.1093470E+00
         21   -1    0    0  501  502  0.00000000000E+00  0.00000000000E+00  0.17192579350E+01  0.17192579350E+01  0.00000000000E+00 0. -1.
         13   -1    0    0    0    0 -0.00000000000E+00 -0.00000000000E+00 -0.10000000000E+04  0.10000000000E+04  0.00000000000E+00 0.  1.
    9000005    2    1    2  501    0 -0.21704072009E+02  0.24101745653E+02 -0.81070260131E+03  0.81135770779E+03  0.32651693429E+01 0.  0.
         13    1    3    3    0    0 -0.47344202687E+01  0.36190514418E+01 -0.16448415084E+03  0.16459206587E+03  0.00000000000E+00 0.  1.
          1    1    3    3  501    0 -0.16969651740E+02  0.20482694211E+02 -0.64621845046E+03  0.64676564191E+03  0.00000000000E+00 0.  1.
         -1    1    1    2    0  502  0.21704072009E+02 -0.24101745653E+02 -0.18757814076E+03  0.19036155015E+03  0.00000000000E+00 0. -1.
<mgrwt>
<rscale>  1 0.30000000E+03</rscale>
<asrwt>0</asrwt>
<pdfrwt beam="1">  1       21 0.62518602E-02 0.30000000E+03</pdfrwt>
<pdfrwt beam="2">0</pdfrwt>
<totfact> 0.19627873E+04</totfact>
</mgrwt>
</event>
<event>
 6    1  0.1280499E-001  0.3000000E+03  0.7818608E-02  0.1093470E+00
         21   -1    0    0  501  502  0.00000000000E+00  0.00000000000E+00  0.26551831365E+01  0.26551831365E+01  0.00000000000E+00 0. -1.
         13   -1    0    0    0    0 -0.00000000000E+00 -0.00000000000E+00 -0.10000000000E+04  0.10000000000E+04  0.00000000000E+00 0.  1.
    9000005    2    1    2  501    0  0.15300838670E+02 -0.45315427323E+02 -0.68436612301E+03  0.68604301277E+03  0.32282240625E+01 0.  0.
         13    1    3    3    0    0  0.14510667996E+02 -0.43557260554E+02 -0.64670461739E+03  0.64833221159E+03  0.00000000000E+00 0.  1.
          3    1    3    3  501    0  0.79017067375E+00 -0.17581667683E+01 -0.37661505615E+02  0.37710801176E+02  0.00000000000E+00 0.  1.
         -1    1    1    2    0  502 -0.15300838670E+02  0.45315427323E+02 -0.31297869386E+03  0.31661217037E+03  0.00000000000E+00 0. -1.
<mgrwt>
<rscale>  1 0.30000000E+03</rscale>
<asrwt>0</asrwt>
<pdfrwt beam="1">  1       21 0.96552318E-02 0.30000000E+03</pdfrwt>
<pdfrwt beam="2">0</pdfrwt>
<totfact> 0.91592379E+03</totfact>
</mgrwt>
</event>
<event>
 6    1  0.1280499E-001  0.3000000E+03  0.7818608E-02  0.1093470E+00
         21   -1    0    0  501  502  0.00000000000E+00  0.00000000000E+00  0.97352753207E+00  0.97352753207E+00  0.00000000000E+00 0. -1.
         13   -1    0    0    0    0 -0.00000000000E+00 -0.00000000000E+00 -0.10000000000E+04  0.10000000000E+04  0.00000000000E+00 0.  1.
    9000005    2    1    2  501    0 -0.23146727032E+02  0.19425340099E+02 -0.38440876557E+03  0.38561343747E+03  0.38091074020E+01 0.  0.
         13    1    3    3    0    0 -0.35582720914E+01  0.48708469538E+01 -0.70624170263E+02  0.70881308366E+02  0.00000000000E+00 0.  1.
          1    1    3    3  501    0 -0.19588454940E+02  0.14554493145E+02 -0.31378459531E+03  0.31473212910E+03  0.00000000000E+00 0.  1.
         -1    1    1    2    0  502  0.23146727032E+02 -0.19425340099E+02 -0.61461770690E+03  0.61536009006E+03  0.00000000000E+00 0. -1.
<mgrwt>
<rscale>  1 0.30000000E+03</rscale>
<asrwt>0</asrwt>
<pdfrwt beam="1">  1       21 0.35401076E-02 0.30000000E+03</pdfrwt>
<pdfrwt beam="2">0</pdfrwt>
<totfact> 0.51622026E+04</totfact>
</mgrwt>
</event>
<event>
 6    1  0.1280499E-001  0.3000000E+03  0.7818608E-02  0.1093470E+00
         21   -1    0    0  501  502  0.00000000000E+00  0.00000000000E+00  0.40077439356E+01  0.40077439356E+01  0.00000000000E+00 0. -1.
         13   -1    0    0    0    0 -0.00000000000E+00 -0.00000000000E+00 -0.10000000000E+04  0.10000000000E+04  0.00000000000E+00 0.  1.
    9000005    2    1    2  501    0 -0.17305511700E+02  0.29788250777E+02 -0.91899188008E+03  0.91965207713E+03  0.52006449738E+01 0.  0.
         13    1    3    3    0    0 -0.70328287092E+01  0.85243249302E+01 -0.33746553620E+03  0.33764643182E+03  0.00000000000E+00 0.  1.
          1    1    3    3  501    0 -0.10272682991E+02  0.21263925846E+02 -0.58152634387E+03  0.58200564532E+03  0.00000000000E+00 0.  1.
         -1    1    1    2    0  502  0.17305511700E+02 -0.29788250777E+02 -0.77000375989E+02  0.84355666804E+02  0.00000000000E+00 0. -1.
<mgrwt>
<rscale>  1 0.30000000E+03</rscale>
<asrwt>0</asrwt>
<pdfrwt beam="1">  1       21 0.14573645E-01 0.30000000E+03</pdfrwt>
<pdfrwt beam="2">0</pdfrwt>
<totfact> 0.43434045E+03</totfact>
</mgrwt>
</event>
<event>
 6    1  0.1280499E-001  0.3000000E+03  0.7818608E-02  0.1093470E+00
         21   -1    0    0  501  502  0.00000000000E+00  0.00000000000E+00  0.15758310563E+01  0.15758310563E+01  0.00000000000E+00 0. -1.
         13   -1    0    0    0    0 -0.00000000000E+00 -0.00000000000E+00 -0.10000000000E+04  0.10000000000E+04  0.00000000000E+00 0.  1.
    9000005    2    1    2  501    0  0.19679643889E+02  0.24276176233E+02 -0.80612296427E+03  0.80675187351E+03  0.61425375600E+01 0.  0.
         13    1    3    3    0    0  0.27910198329E+00  0.85616597517E+00 -0.63601678453E+02  0.63608053107E+02  0.00000000000E+00 0.  1.
          1    1    3    3  501    0  0.19400541906E+02  0.23420010258E+02 -0.74252128582E+03  0.74314382040E+03  0.00000000000E+00 0.  1.
         -1    1    1    2    0  502 -0.19679643889E+02 -0.24276176233E+02 -0.19230120467E+03  0.19482395754E+03  0.00000000000E+00 0. -1.
<mgrwt>
<rscale>  1 0.30000000E+03</rscale>
<asrwt>0</asrwt>
<pdfrwt beam="1">  1       21 0.57303068E-02 0.30000000E+03</pdfrwt>
<pdfrwt beam="2">0</pdfrwt>
<totfact> 0.22809275E+04</totfact>
</mgrwt>
</event>
<event>
 6    1  0.1280499E-001  0.3000000E+03  0.7818608E-02  0.1093470E+00
         21   -1    0    0  501  502  0.00000000000E+00  0.00000000000E+00  0.16939790916E+01  0.16939790916E+01  0.00000000000E+00 0. -1.
         13   -1    0    0    0    0 -0.00000000000E+00 -0.00000000000E+00 -0.10000000000E+04  0.10000000000E+04  0.00000000000E+00 0.  1.
    9000005    2    1    2  501    0  0.84924325244E+01 -0.30961105064E+02 -0.81230452982E+03  0.81294211519E+03  0.23499055586E+01 0.  0.
         13    1    3    3    0    0  0.69647506050E+01 -0.27900869002E+02 -0.73287659150E+03  0.73344056652E+03  0.00000000000E+00 0.  1.
          3    1    3    3  501    0  0.15276819195E+01 -0.30602360622E+01 -0.79427938318E+02  0.79501548678E+02  0.00000000000E+00 0.  1.
         -1    1    1    2    0  502 -0.84924325244E+01  0.30961105064E+02 -0.18600149109E+03  0.18875186390E+03  0.00000000000E+00 0. -1.
<mgrwt>
<rscale>  1 0.30000000E+03</rscale>
<asrwt>0</asrwt>
<pdfrwt beam="1">  1       21 0.61599370E-02 0.30000000E+03</pdfrwt>
<pdfrwt beam="2">0</pdfrwt>
<totfact> 0.20136503E+04</totfact>
</mgrwt>
</event>
<event>
 6    1  0.1280499E-001  0.3000000E+03  0.7818608E-02  0.1093470E+00
         21   -1    0    0  501  502  0.00000000000E+00  0.00000000000E+00  0.23078936088E+01  0.23078936088E+01  0.00000000000E+00 0. -1.
         13   -1    0    0    0    0 -0.00000000000E+00 -0.00000000000E+00 -0.10000000000E+04  0.10000000000E+04  0.00000000000E+00 0.  1.
    9000005    2    1    2  501    0  0.20460938742E+02 -0.43385774007E+02 -0.48784180497E+03  0.49020604313E+03  0.33708527681E+01 0.  0.
         13    1    3    3    0    0  0.36904237734E+01 -0.11190965961E+02 -0.12153875340E+03  0.12210866278E+03  0.00000000000E+00 0.  1.
          1    1    3    3  501    0  0.16770514968E+02 -0.32194808046E+02 -0.36630305156E+03  0.36809738035E+03  0.00000000000E+00 0.  1.
         -3    1    1    2    0  502 -0.20460938742E+02  0.43385774007E+02 -0.50985030143E+03  0.51210185048E+03  0.00000000000E+00 0. -1.
<mgrwt>
<rscale>  1 0.30000000E+03</rscale>
<asrwt>0</asrwt>
<pdfrwt beam="1">  1       21 0.83923581E-02 0.30000000E+03</pdfrwt>
<pdfrwt beam="2">0</pdfrwt>
<totfact> 0.11742086E+04</totfact>
</mgrwt>
</event>
<event>
 6    1  0.1280499E-001  0.3000000E+03  0.7818608E-02  0.1093470E+00
         21   -1    0    0  501  502  0.00000000000E+00  0.00000000000E+00  0.37837325260E+01  0.37837325260E+01  0.00000000000E+00 0. -1.
         13   -1    0    0    0    0 -0.00000000000E+00 -0.00000000000E+00 -0.10000000000E+04  0.10000000000E+04  0.00000000000E+00 0.  1.
    9000005    2    1    2  501    0 -0.61273072386E+02 -0.48118102817E+01 -0.50799663858E+03  0.51171061911E+03  0.31032200960E+01 0.  0.
         13    1    3    3    0    0 -0.61249387110E+02 -0.47137122488E+01 -0.50673954109E+03  0.51044947743E+03  0.00000000000E+00 0.  1.
          3    1    3    3  501    0 -0.23685276195E-01 -0.98098032833E-01 -0.12570974958E+01  0.12611416773E+01  0.00000000000E+00 0.  1.
         -1    1    1    2    0  502  0.61273072386E+02  0.48118102817E+01 -0.48821962889E+03  0.49207311342E+03  0.00000000000E+00 0. -1.
<mgrwt>
<rscale>  1 0.30000000E+03</rscale>
<asrwt>0</asrwt>
<pdfrwt beam="1">  1       21 0.13759056E-01 0.30000000E+03</pdfrwt>
<pdfrwt beam="2">0</pdfrwt>
<totfact> 0.48281273E+03</totfact>
</mgrwt>
</event>
<event>
 6    1  0.1280499E-001  0.3000000E+03  0.7818608E-02  0.1093470E+00
         21   -1    0    0  501  502  0.00000000000E+00  0.00000000000E+00  0.14622590984E+01  0.14622590984E+01  0.00000000000E+00 0. -1.
         13   -1    0    0    0    0 -0.00000000000E+00 -0.00000000000E+00 -0.10000000000E+04  0.10000000000E+04  0.00000000000E+00 0.  1.
    9000005    2    1    2  501    0 -0.19566929714E+02  0.28030537203E+02 -0.72212598962E+03  0.72294469771E+03  0.38098963760E+01 0.  0.
         13    1    3    3    0    0 -0.88796811942E+01  0.99675769721E+01 -0.26036798494E+03  0.26070997086E+03  0.00000000000E+00 0.  1.
          3    1    3    3  501    0 -0.10687248520E+02  0.18062960231E+02 -0.46175800469E+03  0.46223472685E+03  0.00000000000E+00 0.  1.
         -1    1    1    2    0  502  0.19566929714E+02 -0.28030537203E+02 -0.27641175128E+03  0.27851756139E+03  0.00000000000E+00 0. -1.
<mgrwt>
<rscale>  1 0.30000000E+03</rscale>
<asrwt>0</asrwt>
<pdfrwt beam="1">  1       21 0.53173170E-02 0.30000000E+03</pdfrwt>
<pdfrwt beam="2">0</pdfrwt>
<totfact> 0.25931768E+04</totfact>
</mgrwt>
</event>
<event>
 6    1  0.1280499E-001  0.3000000E+03  0.7818608E-02  0.1093470E+00
         21   -1    0    0  501  502  0.00000000000E+00  0.00000000000E+00  0.19105231265E+01  0.19105231265E+01  0.00000000000E+00 0. -1.
         13   -1    0    0    0    0 -0.00000000000E+00 -0.00000000000E+00 -0.10000000000E+04  0.10000000000E+04  0.00000000000E+00 0.  1.
    9000005    2    1    2  501    0 -0.36920017932E+02 -0.97117834203E+01 -0.74185293034E+03  0.74284571610E+03  0.40720031556E+01 0.  0.
         13    1    3    3    0    0 -0.17060981069E+02 -0.65549571557E+01 -0.34600899395E+03  0.34649136848E+03  0.00000000000E+00 0.  1.
          3    1    3    3  501    0 -0.19859036863E+02 -0.31568262646E+01 -0.39584393640E+03  0.39635434762E+03  0.00000000000E+00 0.  1.
         -3    1    1    2    0  502  0.36920017932E+02  0.97117834203E+01 -0.25623654653E+03  0.25906480702E+03  0.00000000000E+00 0. -1.
<mgrwt>
<rscale>  1 0.30000000E+03</rscale>
<asrwt>0</asrwt>
<pdfrwt beam="1">  1       21 0.69473715E-02 0.30000000E+03</pdfrwt>
<pdfrwt beam="2">0</pdfrwt>
<totfact> 0.16348539E+04</totfact>
</mgrwt>
</event>
<event>
 6    1  0.1280499E-001  0.3000000E+03  0.7818608E-02  0.1093470E+00
         21   -1    0    0  501  502  0.00000000000E+00  0.00000000000E+00  0.25019694441E+01  0.25019694441E+01  0.00000000000E+00 0. -1.
         13   -1    0    0    0    0 -0.00000000000E+00 -0.00000000000E+00 -0.10000000000E+04  0.10000000000E+04  0.00000000000E+00 0.  1.
    9000005    2    1    2  501    0  0.13108620437E+02  0.33561777571E+02 -0.84620765950E+03  0.84698025000E+03  0.31483418236E+01 0.  0.
         13    1    3    3    0    0  0.11507598559E+02  0.26779369890E+02 -0.70014605300E+03  0.70075249197E+03  0.00000000000E+00 0.  1.
          3    1    3    3  501    0  0.16010218773E+01  0.67824076811E+01 -0.14606160650E+03  0.14622775803E+03  0.00000000000E+00 0.  1.
         -3    1    1    2    0  502 -0.13108620437E+02 -0.33561777571E+02 -0.15129037106E+03  0.15552171944E+03  0.00000000000E+00 0. -1.
<mgrwt>
<rscale>  1 0.30000000E+03</rscale>
<asrwt>0</asrwt>
<pdfrwt beam="1">  1       21 0.90980899E-02 0.30000000E+03</pdfrwt>
<pdfrwt beam="2">0</pdfrwt>
<totfact> 0.10180586E+04</totfact>
</mgrwt>
</event>
<event>
 6    1  0.1280499E-001  0.3000000E+03  0.7818608E-02  0.1093470E+00
         21   -1    0    0  501  502  0.00000000000E+00  0.00000000000E+00  0.45424268822E+01  0.45424268822E+01  0.00000000000E+00 0. -1.
         13   -1    0    0    0    0 -0.00000000000E+00 -0.00000000000E+00 -0.10000000000E+04  0.10000000000E+04  0.00000000000E+00 0.  1.
    9000005    2    1    2  501    0 -0.62516146172E+02  0.20407222496E+02 -0.59507802562E+03  0.59879804267E+03  0.10794261059E+02 0.  0.
         13    1    3    3    0    0 -0.42501748269E+02  0.17185359690E+02 -0.37614760401E+03  0.37893106918E+03  0.00000000000E+00 0.  1.
          1    1    3    3  501    0 -0.20014397904E+02  0.32218628062E+01 -0.21893042161E+03  0.21986697349E+03  0.00000000000E+00 0.  1.
         -1    1    1    2    0  502  0.62516146172E+02 -0.20407222496E+02 -0.40037954750E+03  0.40574438421E+03  0.00000000000E+00 0. -1.
<mgrwt>
<rscale>  1 0.30000000E+03</rscale>
<asrwt>0</asrwt>
<pdfrwt beam="1">  1       21 0.16517951E-01 0.30000000E+03</pdfrwt>
<pdfrwt beam="2">0</pdfrwt>
<totfact> 0.34418325E+03</totfact>
</mgrwt>
</event>
<event>
 6    1  0.1280499E-001  0.3000000E+03  0.7818608E-02  0.1093470E+00
         21   -1    0    0  501  502  0.00000000000E+00  0.00000000000E+00  0.10634753258E+01  0.10634753258E+01  0.00000000000E+00 0. -1.
         13   -1    0    0    0    0 -0.00000000000E+00 -0.00000000000E+00 -0.10000000000E+04  0.10000000000E+04  0.00000000000E+00 0.  1.
    9000005    2    1    2  501    0  0.27370184382E+02  0.14338961118E+02 -0.37248081244E+03  0.37384621457E+03  0.80189596213E+01 0.  0.
         13    1    3    3    0    0  0.12956419619E+02  0.36498936381E+01 -0.19367430088E+03  0.19414150858E+03  0.00000000000E+00 0.  1.
          3    1    3    3  501    0  0.14413764763E+02  0.10689067480E+02 -0.17880651156E+03  0.17970470599E+03  0.00000000000E+00 0.  1.
         -1    1    1    2    0  502 -0.27370184382E+02 -0.14338961118E+02 -0.62645571223E+03  0.62721726076E+03  0.00000000000E+00 0. -1.
<mgrwt>
<rscale>  1 0.30000000E+03</rscale>
<asrwt>0</asrwt>
<pdfrwt beam="1">  1       21 0.38671912E-02 0.30000000E+03</pdfrwt>
<pdfrwt beam="2">0</pdfrwt>
<totfact> 0.44505488E+04</totfact>
</mgrwt>
</event>
<event>
 6    1  0.1280499E-001  0.3000000E+03  0.7818608E-02  0.1093470E+00
         21   -1    0    0  501  502  0.00000000000E+00  0.00000000000E+00  0.12485603735E+01  0.12485603735E+01  0.00000000000E+00 0. -1.
         13   -1    0    0    0    0 -0.00000000000E+00 -0.00000000000E+00 -0.10000000000E+04  0.10000000000E+04  0.00000000000E+00 0.  1.
    9000005    2    1    2  501    0 -0.19361585922E+02  0.23228670464E+02 -0.75762934900E+03  0.75823764554E+03  0.27666775262E+01 0.  0.
         13    1    3    3    0    0 -0.74731270252E+01  0.84155485112E+01 -0.25042254071E+03  0.25067532383E+03  0.00000000000E+00 0.  1.
          1    1    3    3  501    0 -0.11888458897E+02  0.14813121953E+02 -0.50720680829E+03  0.50756232170E+03  0.00000000000E+00 0.  1.
         -3    1    1    2    0  502  0.19361585922E+02 -0.23228670464E+02 -0.24112209063E+03  0.24301091484E+03  0.00000000000E+00 0. -1.
<mgrwt>
<rscale>  1 0.30000000E+03</rscale>
<asrwt>0</asrwt>
<pdfrwt beam="1">  1       21 0.45402291E-02 0.30000000E+03</pdfrwt>
<pdfrwt beam="2">0</pdfrwt>
<totfact> 0.33941506E+04</totfact>
</mgrwt>
</event>
<event>
 6    1  0.1280499E-001  0.3000000E+03  0.7818608E-02  0.1093470E+00
         21   -1    0    0  501  502  0.00000000000E+00  0.00000000000E+00  0.96990127725E+00  0.96990127725E+00  0.00000000000E+00 0. -1.
         13   -1    0    0    0    0 -0.00000000000E+00 -0.00000000000E+00 -0.10000000000E+04  0.10000000000E+04  0.00000000000E+00 0.  1.
    9000005    2    1    2  501    0  0.50053594936E+01  0.29650687242E+02 -0.62776850351E+03  0.62849253423E+03  0.23140256039E+01 0.  0.
         13    1    3    3    0    0  0.15280359038E+01  0.63886423379E+01 -0.15553263780E+03  0.15567129172E+03  0.00000000000E+00 0.  1.
          1    1    3    3  501    0  0.34773235898E+01  0.23262044904E+02 -0.47223586570E+03  0.47282124251E+03  0.00000000000E+00 0.  1.
         -1    1    1    2    0  502 -0.50053594936E+01 -0.29650687242E+02 -0.37126159522E+03  0.37247736704E+03  0.00000000000E+00 0. -1.
<mgrwt>
<rscale>  1 0.30000000E+03</rscale>
<asrwt>0</asrwt>
<pdfrwt beam="1">  1       21 0.35269212E-02 0.30000000E+03</pdfrwt>
<pdfrwt beam="2">0</pdfrwt>
<totfact> 0.51945841E+04</totfact>
</mgrwt>
</event>
<event>
 6    1  0.1280499E-001  0.3000000E+03  0.7818608E-02  0.1093470E+00
         21   -1    0    0  501  502  0.00000000000E+00  0.00000000000E+00  0.25645116428E+01  0.25645116428E+01  0.00000000000E+00 0. -1.
         13   -1    0    0    0    0 -0.00000000000E+00 -0.00000000000E+00 -0.10000000000E+04  0.10000000000E+04  0.00000000000E+00 0.  1.
    9000005    2    1    2  501    0  0.28254568973E+02  0.15390999758E+02 -0.88572892494E+03  0.88631667359E+03  0.25127410068E+01 0.  0.
         13    1    3    3    0    0  0.23410326226E+02  0.13496753320E+02 -0.72390278170E+03  0.72440695958E+03  0.00000000000E+00 0.  1.
          1    1    3    3  501    0  0.48442427463E+01  0.18942464378E+01 -0.16182614324E+03  0.16190971402E+03  0.00000000000E+00 0.  1.
         -1    1    1    2    0  502 -0.28254568973E+02 -0.15390999758E+02 -0.11170656342E+03  0.11624783805E+03  0.00000000000E+00 0. -1.
<mgrwt>
<rscale>  1 0.30000000E+03</rscale>
<asrwt>0</asrwt>
<pdfrwt beam="1">  1       21 0.93255165E-02 0.30000000E+03</pdfrwt>
<pdfrwt beam="2">0</pdfrwt>
<totfact> 0.97439181E+03</totfact>
</mgrwt>
</event>
<event>
 6    1  0.1280499E-001  0.3000000E+03  0.7818608E-02  0.1093470E+00
         21   -1    0    0  501  502  0.00000000000E+00  0.00000000000E+00  0.30004267883E+01  0.30004267883E+01  0.00000000000E+00 0. -1.
         13   -1    0    0    0    0 -0.00000000000E+00 -0.00000000000E+00 -0.10000000000E+04  0.10000000000E+04  0.00000000000E+00 0.  1.
    9000005    2    1    2  501    0  0.14684302773E+02 -0.51653158374E+02 -0.40272461749E+03  0.40630418873E+03  0.35069541201E+01 0.  0.
         13    1    3    3    0    0  0.10695453712E+02 -0.42312283505E+02 -0.33028636997E+03  0.33315733259E+03  0.00000000000E+00 0.  1.
          1    1    3    3  501    0  0.39888490604E+01 -0.93408748683E+01 -0.72438247516E+02  0.73146856141E+02  0.00000000000E+00 0.  1.
         -1    1    1    2    0  502 -0.14684302773E+02  0.51653158374E+02 -0.59427495572E+03  0.59669623806E+03  0.00000000000E+00 0. -1.
<mgrwt>
<rscale>  1 0.30000000E+03</rscale>
<asrwt>0</asrwt>
<pdfrwt beam="1">  1       21 0.10910666E-01 0.30000000E+03</pdfrwt>
<pdfrwt beam="2">0</pdfrwt>
<totfact> 0.73591635E+03</totfact>
</mgrwt>
</event>
<event>
 6    1  0.1280499E-001  0.3000000E+03  0.7818608E-02  0.1093470E+00
         21   -1    0    0  501  502  0.00000000000E+00  0.00000000000E+00  0.15845358787E+01  0.15845358787E+01  0.00000000000E+00 0. -1.
         13   -1    0    0    0    0 -0.00000000000E+00 -0.00000000000E+00 -0.10000000000E+04  0.10000000000E+04  0.00000000000E+00 0.  1.
    9000005    2    1    2  501    0 -0.26477771946E+02 -0.17985021158E+02 -0.79596061758E+03  0.79661503014E+03  0.42033461934E+01 0.  0.
         13    1    3    3    0    0 -0.11462312640E+02 -0.67849859704E+01 -0.37859854137E+03  0.37883278128E+03  0.00000000000E+00 0.  1.
          1    1    3    3  501    0 -0.15015459305E+02 -0.11200035187E+02 -0.41736207621E+03  0.41778224886E+03  0.00000000000E+00 0.  1.
         -1    1    1    2    0  502  0.26477771946E+02  0.17985021158E+02 -0.20245484654E+03  0.20496950574E+03  0.00000000000E+00 0. -1.
<mgrwt>
<rscale>  1 0.30000000E+03</rscale>
<asrwt>0</asrwt>
<pdfrwt beam="1">  1       21 0.57619608E-02 0.30000000E+03</pdfrwt>
<pdfrwt beam="2">0</pdfrwt>
<totfact> 0.22594086E+04</totfact>
</mgrwt>
</event>
<event>
 6    1  0.1280499E-001  0.3000000E+03  0.7818608E-02  0.1093470E+00
         21   -1    0    0  501  502  0.00000000000E+00  0.00000000000E+00  0.49919029053E+01  0.49919029053E+01  0.00000000000E+00 0. -1.
         13   -1    0    0    0    0 -0.00000000000E+00 -0.00000000000E+00 -0.10000000000E+04  0.10000000000E+04  0.00000000000E+00 0.  1.
    9000005    2    1    2  501    0 -0.98541929507E+01  0.30856896706E+02 -0.94405147896E+03  0.94461119303E+03  0.28031914756E+01 0.  0.
         13    1    3    3    0    0 -0.92938802512E+01  0.27983018250E+02 -0.83514669259E+03  0.83566705312E+03  0.00000000000E+00 0.  1.
          3    1    3    3  501    0 -0.56031269953E+00  0.28738784561E+01 -0.10890478637E+03  0.10894413992E+03  0.00000000000E+00 0.  1.
         -3    1    1    2    0  502  0.98541929507E+01 -0.30856896706E+02 -0.50956618134E+02  0.60380709872E+02  0.00000000000E+00 0. -1.
<mgrwt>
<rscale>  1 0.30000000E+03</rscale>
<asrwt>0</asrwt>
<pdfrwt beam="1">  1       21 0.18152412E-01 0.30000000E+03</pdfrwt>
<pdfrwt beam="2">0</pdfrwt>
<totfact> 0.28833763E+03</totfact>
</mgrwt>
</event>
<event>
 6    1  0.1280499E-001  0.3000000E+03  0.7818608E-02  0.1093470E+00
         21   -1    0    0  501  502  0.00000000000E+00  0.00000000000E+00  0.10951778317E+01  0.10951778317E+01  0.00000000000E+00 0. -1.
         13   -1    0    0    0    0 -0.00000000000E+00 -0.00000000000E+00 -0.10000000000E+04  0.10000000000E+04  0.00000000000E+00 0.  1.
    9000005    2    1    2  501    0  0.12100283298E+02  0.27907195353E+02 -0.69096317720E+03  0.69165490070E+03  0.55822039799E+01 0.  0.
         13    1    3    3    0    0  0.67579479937E+01  0.19363628793E+02 -0.41259371854E+03  0.41310313065E+03  0.00000000000E+00 0.  1.
          1    1    3    3  501    0  0.53423353047E+01  0.85435665600E+01 -0.27836945867E+03  0.27855177005E+03  0.00000000000E+00 0.  1.
         -1    1    1    2    0  502 -0.12100283298E+02 -0.27907195353E+02 -0.30794164496E+03  0.30944027713E+03  0.00000000000E+00 0. -1.
<mgrwt>
<rscale>  1 0.30000000E+03</rscale>
<asrwt>0</asrwt>
<pdfrwt beam="1">  1       21 0.39824732E-02 0.30000000E+03</pdfrwt>
<pdfrwt beam="2">0</pdfrwt>
<totfact> 0.42359386E+04</totfact>
</mgrwt>
</event>
<event>
 6    1  0.1280499E-001  0.3000000E+03  0.7818608E-02  0.1093470E+00
         21   -1    0    0  501  502  0.00000000000E+00  0.00000000000E+00  0.17288800536E+01  0.17288800536E+01  0.00000000000E+00 0. -1.
         13   -1    0    0    0    0 -0.00000000000E+00 -0.00000000000E+00 -0.10000000000E+04  0.10000000000E+04  0.00000000000E+00 0.  1.
    9000005    2    1    2  501    0  0.25526912679E+02 -0.26815881341E+02 -0.72613812488E+03  0.72708896713E+03  0.33279070288E+01 0.  0.
         13    1    3    3    0    0  0.17958614935E+02 -0.18144980958E+02 -0.52804554187E+03  0.52866231800E+03  0.00000000000E+00 0.  1.
          3    1    3    3  501    0  0.75682977437E+01 -0.86709003827E+01 -0.19809258301E+03  0.19842664914E+03  0.00000000000E+00 0.  1.
         -1    1    1    2    0  502 -0.25526912679E+02  0.26815881341E+02 -0.27213299507E+03  0.27463991292E+03  0.00000000000E+00 0. -1.
<mgrwt>
<rscale>  1 0.30000000E+03</rscale>
<asrwt>0</asrwt>
<pdfrwt beam="1">  1       21 0.62868498E-02 0.30000000E+03</pdfrwt>
<pdfrwt beam="2">0</pdfrwt>
<totfact> 0.19439488E+04</totfact>
</mgrwt>
</event>
<event>
 6    1  0.1280499E-001  0.3000000E+03  0.7818608E-02  0.1093470E+00
         21   -1    0    0  501  502  0.00000000000E+00  0.00000000000E+00  0.11334631985E+01  0.11334631985E+01  0.00000000000E+00 0. -1.
         13   -1    0    0    0    0 -0.00000000000E+00 -0.00000000000E+00 -0.10000000000E+04  0.10000000000E+04  0.00000000000E+00 0.  1.
    9000005    2    1    2  501    0  0.32835796793E+02  0.36099937281E+01 -0.59268594107E+03  0.59361180984E+03  0.26710364649E+01 0.  0.
         13    1    3    3    0    0  0.15118912937E+02  0.29917737609E+01 -0.27864394212E+03  0.27906984559E+03  0.00000000000E+00 0.  1.
          1    1    3    3  501    0  0.17716883857E+02  0.61821996715E+00 -0.31404199895E+03  0.31454196425E+03  0.00000000000E+00 0.  1.
         -1    1    1    2    0  502 -0.32835796793E+02 -0.36099937281E+01 -0.40618059573E+03  0.40752165335E+03  0.00000000000E+00 0. -1.
<mgrwt>
<rscale>  1 0.30000000E+03</rscale>
<asrwt>0</asrwt>
<pdfrwt beam="1">  1       21 0.41216930E-02 0.30000000E+03</pdfrwt>
<pdfrwt beam="2">0</pdfrwt>
<totfact> 0.39976271E+04</totfact>
</mgrwt>
</event>
<event>
 6    1  0.1280499E-001  0.3000000E+03  0.7818608E-02  0.1093470E+00
         21   -1    0    0  501  502  0.00000000000E+00  0.00000000000E+00  0.10008702316E+01  0.10008702316E+01  0.00000000000E+00 0. -1.
         13   -1    0    0    0    0 -0.00000000000E+00 -0.00000000000E+00 -0.10000000000E+04  0.10000000000E+04  0.00000000000E+00 0.  1.
    9000005    2    1    2  501    0  0.19874673682E+02  0.22778964565E+02 -0.64412771225E+03  0.64484415353E+03  0.30965742271E+01 0.  0.
         13    1    3    3    0    0  0.45624280692E+01  0.34057446374E+01 -0.12314758073E+03  0.12327912023E+03  0.00000000000E+00 0.  1.
          1    1    3    3  501    0  0.15312245613E+02  0.19373219928E+02 -0.52098013152E+03  0.52156503329E+03  0.00000000000E+00 0.  1.
         -1    1    1    2    0  502 -0.19874673682E+02 -0.22778964565E+02 -0.35487141752E+03  0.35615671670E+03  0.00000000000E+00 0. -1.
<mgrwt>
<rscale>  1 0.30000000E+03</rscale>
<asrwt>0</asrwt>
<pdfrwt beam="1">  1       21 0.36395358E-02 0.30000000E+03</pdfrwt>
<pdfrwt beam="2">0</pdfrwt>
<totfact> 0.49279231E+04</totfact>
</mgrwt>
</event>
<event>
 6    1  0.1280499E-001  0.3000000E+03  0.7818608E-02  0.1093470E+00
         21   -1    0    0  501  502  0.00000000000E+00  0.00000000000E+00  0.21137023649E+01  0.21137023649E+01  0.00000000000E+00 0. -1.
         13   -1    0    0    0    0 -0.00000000000E+00 -0.00000000000E+00 -0.10000000000E+04  0.10000000000E+04  0.00000000000E+00 0.  1.
    9000005    2    1    2  501    0 -0.12593750582E+02  0.33631382791E+02 -0.81026916836E+03  0.81109051094E+03  0.64822288521E+01 0.  0.
         13    1    3    3    0    0 -0.12155064108E+02  0.24593070532E+02 -0.60077479707E+03  0.60140079938E+03  0.00000000000E+00 0.  1.
          1    1    3    3  501    0 -0.43868647390E+00  0.90383122592E+01 -0.20949437128E+03  0.20968971156E+03  0.00000000000E+00 0.  1.
         -3    1    1    2    0  502  0.12593750582E+02 -0.33631382791E+02 -0.18761712928E+03  0.19102319142E+03  0.00000000000E+00 0. -1.
<mgrwt>
<rscale>  1 0.30000000E+03</rscale>
<asrwt>0</asrwt>
<pdfrwt beam="1">  1       21 0.76862066E-02 0.30000000E+03</pdfrwt>
<pdfrwt beam="2">0</pdfrwt>
<totfact> 0.13702927E+04</totfact>
</mgrwt>
</event>
<event>
 6    1  0.1280499E-001  0.3000000E+03  0.7818608E-02  0.1093470E+00
         21   -1    0    0  501  502  0.00000000000E+00  0.00000000000E+00  0.42660845697E+01  0.42660845697E+01  0.00000000000E+00 0. -1.
         13   -1    0    0    0    0 -0.00000000000E+00 -0.00000000000E+00 -0.10000000000E+04  0.10000000000E+04  0.00000000000E+00 0.  1.
    9000005    2    1    2  501    0  0.22635914710E+02  0.45486535355E+02 -0.81320815016E+03  0.81480087795E+03  0.34008354632E+01 0.  0.
         13    1    3    3    0    0  0.13107625577E+02  0.24187425628E+02 -0.41755147397E+03  0.41845677772E+03  0.00000000000E+00 0.  1.
          1    1    3    3  501    0  0.95282891332E+01  0.21299109727E+02 -0.39565667619E+03  0.39634410023E+03  0.00000000000E+00 0.  1.
         -1    1    1    2    0  502 -0.22635914710E+02 -0.45486535355E+02 -0.18252576527E+03  0.18946520662E+03  0.00000000000E+00 0. -1.
<mgrwt>
<rscale>  1 0.30000000E+03</rscale>
<asrwt>0</asrwt>
<pdfrwt beam="1">  1       21 0.15513068E-01 0.30000000E+03</pdfrwt>
<pdfrwt beam="2">0</pdfrwt>
<totfact> 0.38689990E+03</totfact>
</mgrwt>
</event>
<event>
 6    1  0.1280499E-001  0.3000000E+03  0.7818608E-02  0.1093470E+00
         21   -1    0    0  501  502  0.00000000000E+00  0.00000000000E+00  0.81375898590E+01  0.81375898590E+01  0.00000000000E+00 0. -1.
         13   -1    0    0    0    0 -0.00000000000E+00 -0.00000000000E+00 -0.10000000000E+04  0.10000000000E+04  0.00000000000E+00 0.  1.
    9000005    2    1    2  501    0  0.26019440335E+02 -0.74807510667E+02 -0.73701842416E+03  0.74126939746E+03  0.33146826067E+01 0.  0.
         13    1    3    3    0    0  0.99318337749E+01 -0.32252355366E+02 -0.30363128566E+03  0.30550092206E+03  0.00000000000E+00 0.  1.
          1    1    3    3  501    0  0.16087606560E+02 -0.42555155301E+02 -0.43338713850E+03  0.43576847539E+03  0.00000000000E+00 0.  1.
         -3    1    1    2    0  502 -0.26019440335E+02  0.74807510667E+02 -0.25484398598E+03  0.26686819240E+03  0.00000000000E+00 0. -1.
<mgrwt>
<rscale>  1 0.30000000E+03</rscale>
<asrwt>0</asrwt>
<pdfrwt beam="1">  1       21 0.29591298E-01 0.30000000E+03</pdfrwt>
<pdfrwt beam="2">0</pdfrwt>
<totfact> 0.11174980E+03</totfact>
</mgrwt>
</event>
<event>
 6    1  0.1280499E-001  0.3000000E+03  0.7818608E-02  0.1093470E+00
         21   -1    0    0  501  502  0.00000000000E+00  0.00000000000E+00  0.42623720512E+01  0.42623720512E+01  0.00000000000E+00 0. -1.
         13   -1    0    0    0    0 -0.00000000000E+00 -0.00000000000E+00 -0.10000000000E+04  0.10000000000E+04  0.00000000000E+00 0.  1.
    9000005    2    1    2  501    0  0.58869148253E+02  0.85189424457E+01 -0.70440940317E+03  0.70692370395E+03  0.32197722383E+01 0.  0.
         13    1    3    3    0    0  0.17142384381E+02  0.38290744327E+01 -0.20057214192E+03  0.20133978064E+03  0.00000000000E+00 0.  1.
          3    1    3    3  501    0  0.41726763871E+02  0.46898680130E+01 -0.50383726125E+03  0.50558392331E+03  0.00000000000E+00 0.  1.
         -1    1    1    2    0  502 -0.58869148253E+02 -0.85189424457E+01 -0.29132822478E+03  0.29733866810E+03  0.00000000000E+00 0. -1.
<mgrwt>
<rscale>  1 0.30000000E+03</rscale>
<asrwt>0</asrwt>
<pdfrwt beam="1">  1       21 0.15499567E-01 0.30000000E+03</pdfrwt>
<pdfrwt beam="2">0</pdfrwt>
<totfact> 0.38752649E+03</totfact>
</mgrwt>
</event>
<event>
 6    1  0.1280499E-001  0.3000000E+03  0.7818608E-02  0.1093470E+00
         21   -1    0    0  501  502  0.00000000000E+00  0.00000000000E+00  0.68079680428E+01  0.68079680428E+01  0.00000000000E+00 0. -1.
         13   -1    0    0    0    0 -0.00000000000E+00 -0.00000000000E+00 -0.10000000000E+04  0.10000000000E+04  0.00000000000E+00 0.  1.
    9000005    2    1    2  501    0  0.57982611542E+02 -0.17016202476E+02 -0.83921067537E+03  0.84139396451E+03  0.42085000719E+01 0.  0.
         13    1    3    3    0    0  0.44735593410E+02 -0.13374075099E+02 -0.67164087199E+03  0.67326191050E+03  0.00000000000E+00 0.  1.
          1    1    3    3  501    0  0.13247018133E+02 -0.36421273773E+01 -0.16756980338E+03  0.16813205401E+03  0.00000000000E+00 0.  1.
         -3    1    1    2    0  502 -0.57982611542E+02  0.17016202476E+02 -0.15398135659E+03  0.16541400354E+03  0.00000000000E+00 0. -1.
<mgrwt>
<rscale>  1 0.30000000E+03</rscale>
<asrwt>0</asrwt>
<pdfrwt beam="1">  1       21 0.24756300E-01 0.30000000E+03</pdfrwt>
<pdfrwt beam="2">0</pdfrwt>
<totfact> 0.15897654E+03</totfact>
</mgrwt>
</event>
<event>
 6    1  0.1280499E-001  0.3000000E+03  0.7818608E-02  0.1093470E+00
         21   -1    0    0  501  502  0.00000000000E+00  0.00000000000E+00  0.23651592227E+01  0.23651592227E+01  0.00000000000E+00 0. -1.
         13   -1    0    0    0    0 -0.00000000000E+00 -0.00000000000E+00 -0.10000000000E+04  0.10000000000E+04  0.00000000000E+00 0.  1.
    9000005    2    1    2  501    0 -0.28537957867E+02  0.37702606906E+02 -0.61463275837E+03  0.61645519986E+03  0.27720329108E+01 0.  0.
         13    1    3    3    0    0 -0.94790621095E+01  0.13229552533E+02 -0.22802272376E+03  0.22860279139E+03  0.00000000000E+00 0.  1.
          1    1    3    3  501    0 -0.19058895757E+02  0.24473054373E+02 -0.38661003461E+03  0.38785240848E+03  0.00000000000E+00 0.  1.
         -1    1    1    2    0  502  0.28537957867E+02 -0.37702606906E+02 -0.38300208241E+03  0.38590995936E+03  0.00000000000E+00 0. -1.
<mgrwt>
<rscale>  1 0.30000000E+03</rscale>
<asrwt>0</asrwt>
<pdfrwt beam="1">  1       21 0.86005971E-02 0.30000000E+03</pdfrwt>
<pdfrwt beam="2">0</pdfrwt>
<totfact> 0.11245413E+04</totfact>
</mgrwt>
</event>
<event>
 6    1  0.1280499E-001  0.3000000E+03  0.7818608E-02  0.1093470E+00
         21   -1    0    0  501  502  0.00000000000E+00  0.00000000000E+00  0.38758772198E+01  0.38758772198E+01  0.00000000000E+00 0. -1.
         13   -1    0    0    0    0 -0.00000000000E+00 -0.00000000000E+00 -0.10000000000E+04  0.10000000000E+04  0.00000000000E+00 0.  1.
    9000005    2    1    2  501    0 -0.25624300610E+01  0.36414751091E+02 -0.90459460683E+03  0.90533526409E+03  0.28173682777E+01 0.  0.
         13    1    3    3    0    0 -0.75164823533E+00  0.20258156927E+02 -0.53214595773E+03  0.53253195042E+03  0.00000000000E+00 0.  1.
          1    1    3    3  501    0 -0.18107818256E+01  0.16156594164E+02 -0.37244864910E+03  0.37280331367E+03  0.00000000000E+00 0.  1.
         -3    1    1    2    0  502  0.25624300610E+01 -0.36414751091E+02 -0.91529515952E+02  0.98540613126E+02  0.00000000000E+00 0. -1.
<mgrwt>
<rscale>  1 0.30000000E+03</rscale>
<asrwt>0</asrwt>
<pdfrwt beam="1">  1       21 0.14094129E-01 0.30000000E+03</pdfrwt>
<pdfrwt beam="2">0</pdfrwt>
<totfact> 0.46194327E+03</totfact>
</mgrwt>
</event>
<event>
 6    1  0.1280499E-001  0.3000000E+03  0.7818608E-02  0.1093470E+00
         21   -1    0    0  501  502  0.00000000000E+00  0.00000000000E+00  0.10975422654E+01  0.10975422654E+01  0.00000000000E+00 0. -1.
         13   -1    0    0    0    0 -0.00000000000E+00 -0.00000000000E+00 -0.10000000000E+04  0.10000000000E+04  0.00000000000E+00 0.  1.
    9000005    2    1    2  501    0  0.22773043168E+02  0.19929781592E+02 -0.70119560493E+03  0.70185653923E+03  0.33937590528E+01 0.  0.
         13    1    3    3    0    0  0.13802361419E+02  0.98406760690E+01 -0.39187723901E+03  0.39224369280E+03  0.00000000000E+00 0.  1.
          3    1    3    3  501    0  0.89706817494E+01  0.10089105523E+02 -0.30931836592E+03  0.30961284643E+03  0.00000000000E+00 0.  1.
         -1    1    1    2    0  502 -0.22773043168E+02 -0.19929781592E+02 -0.29770685280E+03  0.29924100303E+03  0.00000000000E+00 0. -1.
<mgrwt>
<rscale>  1 0.30000000E+03</rscale>
<asrwt>0</asrwt>
<pdfrwt beam="1">  1       21 0.39910712E-02 0.30000000E+03</pdfrwt>
<pdfrwt beam="2">0</pdfrwt>
<totfact> 0.42205849E+04</totfact>
</mgrwt>
</event>
<event>
 6    1  0.1280499E-001  0.3000000E+03  0.7818608E-02  0.1093470E+00
         21   -1    0    0  501  502  0.00000000000E+00  0.00000000000E+00  0.35660703336E+01  0.35660703336E+01  0.00000000000E+00 0. -1.
         13   -1    0    0    0    0 -0.00000000000E+00 -0.00000000000E+00 -0.10000000000E+04  0.10000000000E+04  0.00000000000E+00 0.  1.
    9000005    2    1    2  501    0 -0.23319512764E+02  0.48842612345E+02 -0.70982307832E+03  0.71188957048E+03  0.29253356838E+01 0.  0.
         13    1    3    3    0    0 -0.17249784204E+02  0.33077032539E+02 -0.49281310695E+03  0.49422303014E+03  0.00000000000E+00 0.  1.
          3    1    3    3  501    0 -0.60697285600E+01  0.15765579807E+02 -0.21700997136E+03  0.21766654034E+03  0.00000000000E+00 0.  1.
         -1    1    1    2    0  502  0.23319512764E+02 -0.48842612345E+02 -0.28661085135E+03  0.29167649985E+03  0.00000000000E+00 0. -1.
<mgrwt>
<rscale>  1 0.30000000E+03</rscale>
<asrwt>0</asrwt>
<pdfrwt beam="1">  1       21 0.12967556E-01 0.30000000E+03</pdfrwt>
<pdfrwt beam="2">0</pdfrwt>
<totfact> 0.53810209E+03</totfact>
</mgrwt>
</event>
<event>
 6    1  0.1280499E-001  0.3000000E+03  0.7818608E-02  0.1093470E+00
         21   -1    0    0  501  502  0.00000000000E+00  0.00000000000E+00  0.30525287397E+01  0.30525287397E+01  0.00000000000E+00 0. -1.
         13   -1    0    0    0    0 -0.00000000000E+00 -0.00000000000E+00 -0.10000000000E+04  0.10000000000E+04  0.00000000000E+00 0.  1.
    9000005    2    1    2  501    0  0.15244959083E+02  0.52854268831E+02 -0.54094971731E+03  0.54374877944E+03  0.31868442008E+01 0.  0.
         13    1    3    3    0    0  0.55968561447E+01  0.24281454242E+02 -0.23657530956E+03  0.23788398624E+03  0.00000000000E+00 0.  1.
          3    1    3    3  501    0  0.96481029384E+01  0.28572814589E+02 -0.30437440775E+03  0.30586479320E+03  0.00000000000E+00 0.  1.
         -3    1    1    2    0  502 -0.15244959083E+02 -0.52854268831E+02 -0.45599775395E+03  0.45930374930E+03  0.00000000000E+00 0. -1.
<mgrwt>
<rscale>  1 0.30000000E+03</rscale>
<asrwt>0</asrwt>
<pdfrwt beam="1">  1       21 0.11100128E-01 0.30000000E+03</pdfrwt>
<pdfrwt beam="2">0</pdfrwt>
<totfact> 0.71347089E+03</totfact>
</mgrwt>
</event>
<event>
 6    1  0.1280499E-001  0.3000000E+03  0.7818608E-02  0.1093470E+00
         21   -1    0    0  501  502  0.00000000000E+00  0.00000000000E+00  0.25939469389E+01  0.25939469389E+01  0.00000000000E+00 0. -1.
         13   -1    0    0    0    0 -0.00000000000E+00 -0.00000000000E+00 -0.10000000000E+04  0.10000000000E+04  0.00000000000E+00 0.  1.
    9000005    2    1    2  501    0  0.45479693347E+02  0.22776680932E+02 -0.51325404431E+03  0.51577740318E+03  0.30717955080E+01 0.  0.
         13    1    3    3    0    0  0.44235448118E+02  0.22592188395E+02 -0.50299243864E+03  0.50543899254E+03  0.00000000000E+00 0.  1.
          3    1    3    3  501    0  0.12442452290E+01  0.18449253678E+00 -0.10261605670E+02  0.10338410643E+02  0.00000000000E+00 0.  1.
         -1    1    1    2    0  502 -0.45479693347E+02 -0.22776680932E+02 -0.48415200875E+03  0.48681654376E+03  0.00000000000E+00 0. -1.
<mgrwt>
<rscale>  1 0.30000000E+03</rscale>
<asrwt>0</asrwt>
<pdfrwt beam="1">  1       21 0.94325542E-02 0.30000000E+03</pdfrwt>
<pdfrwt beam="2">0</pdfrwt>
<totfact> 0.95480954E+03</totfact>
</mgrwt>
</event>
<event>
 6    1  0.1280499E-001  0.3000000E+03  0.7818608E-02  0.1093470E+00
         21   -1    0    0  501  502  0.00000000000E+00  0.00000000000E+00  0.27336494984E+01  0.27336494984E+01  0.00000000000E+00 0. -1.
         13   -1    0    0    0    0 -0.00000000000E+00 -0.00000000000E+00 -0.10000000000E+04  0.10000000000E+04  0.00000000000E+00 0.  1.
    9000005    2    1    2  501    0  0.23228522102E+02  0.42685505716E+02 -0.67634170125E+03  0.67815045965E+03  0.93985334779E+01 0.  0.
         13    1    3    3    0    0  0.18832088350E+02  0.25252882045E+02 -0.43903594433E+03  0.44016464648E+03  0.00000000000E+00 0.  1.
          3    1    3    3  501    0  0.43964337523E+01  0.17432623671E+02 -0.23730575693E+03  0.23798581317E+03  0.00000000000E+00 0.  1.
         -1    1    1    2    0  502 -0.23228522102E+02 -0.42685505716E+02 -0.32092464925E+03  0.32458318985E+03  0.00000000000E+00 0. -1.
<mgrwt>
<rscale>  1 0.30000000E+03</rscale>
<asrwt>0</asrwt>
<pdfrwt beam="1">  1       21 0.99405646E-02 0.30000000E+03</pdfrwt>
<pdfrwt beam="2">0</pdfrwt>
<totfact> 0.86953109E+03</totfact>
</mgrwt>
</event>
<event>
 6    1  0.1280499E-001  0.3000000E+03  0.7818608E-02  0.1093470E+00
         21   -1    0    0  501  502  0.00000000000E+00  0.00000000000E+00  0.41197455456E+01  0.41197455456E+01  0.00000000000E+00 0. -1.
         13   -1    0    0    0    0 -0.00000000000E+00 -0.00000000000E+00 -0.10000000000E+04  0.10000000000E+04  0.00000000000E+00 0.  1.
    9000005    2    1    2  501    0 -0.22000535377E+02  0.36210102111E+02 -0.87495035731E+03  0.87598218245E+03  0.33854347158E+01 0.  0.
         13    1    3    3    0    0 -0.21369155921E+02  0.33612551732E+02 -0.81817009447E+03  0.81913902845E+03  0.00000000000E+00 0.  1.
          1    1    3    3  501    0 -0.63137945610E+00  0.25975503794E+01 -0.56780262843E+02  0.56843153998E+02  0.00000000000E+00 0.  1.
         -3    1    1    2    0  502  0.22000535377E+02 -0.36210102111E+02 -0.12092989715E+03  0.12813756309E+03  0.00000000000E+00 0. -1.
<mgrwt>
<rscale>  1 0.30000000E+03</rscale>
<asrwt>0</asrwt>
<pdfrwt beam="1">  1       21 0.14980924E-01 0.30000000E+03</pdfrwt>
<pdfrwt beam="2">0</pdfrwt>
<totfact> 0.41277458E+03</totfact>
</mgrwt>
</event>
<event>
 6    1  0.1280499E-001  0.3000000E+03  0.7818608E-02  0.1093470E+00
         21   -1    0    0  501  502  0.00000000000E+00  0.00000000000E+00  0.10023274572E+01  0.10023274572E+01  0.00000000000E+00 0. -1.
         13   -1    0    0    0    0 -0.00000000000E+00 -0.00000000000E+00 -0.10000000000E+04  0.10000000000E+04  0.00000000000E+00 0.  1.
    9000005    2    1    2  501    0  0.31161545996E+02 -0.26465162216E+01 -0.55655154032E+03  0.55745230106E+03  0.50403302344E+01 0.  0.
         13    1    3    3    0    0  0.11579350651E+02  0.86379693677E+00 -0.23385843229E+03  0.23414652221E+03  0.00000000000E+00 0.  1.
          3    1    3    3  501    0  0.19582195345E+02 -0.35103131584E+01 -0.32269310803E+03  0.32330577886E+03  0.00000000000E+00 0.  1.
         -3    1    1    2    0  502 -0.31161545996E+02  0.26465162216E+01 -0.44244613222E+03  0.44355002639E+03  0.00000000000E+00 0. -1.
<mgrwt>
<rscale>  1 0.30000000E+03</rscale>
<asrwt>0</asrwt>
<pdfrwt beam="1">  1       21 0.36448348E-02 0.30000000E+03</pdfrwt>
<pdfrwt beam="2">0</pdfrwt>
<totfact> 0.49159103E+04</totfact>
</mgrwt>
</event>
<event>
 6    1  0.1280499E-001  0.3000000E+03  0.7818608E-02  0.1093470E+00
         21   -1    0    0  501  502  0.00000000000E+00  0.00000000000E+00  0.32944855837E+01  0.32944855837E+01  0.00000000000E+00 0. -1.
         13   -1    0    0    0    0 -0.00000000000E+00 -0.00000000000E+00 -0.10000000000E+04  0.10000000000E+04  0.00000000000E+00 0.  1.
    9000005    2    1    2  501    0 -0.55683631100E+02 -0.10434997341E+02 -0.57710694613E+03  0.57988863483E+03  0.29741544762E+01 0.  0.
         13    1    3    3    0    0 -0.20120908770E+02 -0.40553761215E+01 -0.22361780890E+03  0.22455783554E+03  0.00000000000E+00 0.  1.
          3    1    3    3  501    0 -0.35562722331E+02 -0.63796212198E+01 -0.35348913723E+03  0.35533079929E+03  0.00000000000E+00 0.  1.
         -1    1    1    2    0  502  0.55683631100E+02  0.10434997341E+02 -0.41959856828E+03  0.42340585075E+03  0.00000000000E+00 0. -1.
<mgrwt>
<rscale>  1 0.30000000E+03</rscale>
<asrwt>0</asrwt>
<pdfrwt beam="1">  1       21 0.11979973E-01 0.30000000E+03</pdfrwt>
<pdfrwt beam="2">0</pdfrwt>
<totfact> 0.62159332E+03</totfact>
</mgrwt>
</event>
<event>
 6    1  0.1280499E-001  0.3000000E+03  0.7818608E-02  0.1093470E+00
         21   -1    0    0  501  502  0.00000000000E+00  0.00000000000E+00  0.11437779370E+01  0.11437779370E+01  0.00000000000E+00 0. -1.
         13   -1    0    0    0    0 -0.00000000000E+00 -0.00000000000E+00 -0.10000000000E+04  0.10000000000E+04  0.00000000000E+00 0.  1.
    9000005    2    1    2  501    0 -0.31424629643E+02  0.72096985793E+01 -0.64791476064E+03  0.64872443050E+03  0.32190947688E+01 0.  0.
         13    1    3    3    0    0 -0.30808060136E+02  0.73841030554E+01 -0.62700142263E+03  0.62780127869E+03  0.00000000000E+00 0.  1.
          3    1    3    3  501    0 -0.61656950682E+00 -0.17440447605E+00 -0.20913338008E+02  0.20923151806E+02  0.00000000000E+00 0.  1.
         -3    1    1    2    0  502  0.31424629643E+02 -0.72096985793E+01 -0.35094146142E+03  0.35241934744E+03  0.00000000000E+00 0. -1.
<mgrwt>
<rscale>  1 0.30000000E+03</rscale>
<asrwt>0</asrwt>
<pdfrwt beam="1">  1       21 0.41592013E-02 0.30000000E+03</pdfrwt>
<pdfrwt beam="2">0</pdfrwt>
<totfact> 0.39369906E+04</totfact>
</mgrwt>
</event>
<event>
 6    1  0.1280499E-001  0.3000000E+03  0.7818608E-02  0.1093470E+00
         21   -1    0    0  501  502  0.00000000000E+00  0.00000000000E+00  0.97563823962E+00  0.97563823962E+00  0.00000000000E+00 0. -1.
         13   -1    0    0    0    0 -0.00000000000E+00 -0.00000000000E+00 -0.10000000000E+04  0.10000000000E+04  0.00000000000E+00 0.  1.
    9000005    2    1    2  501    0  0.16985959995E+02 -0.25294380745E+02 -0.39709495244E+03  0.39827559481E+03  0.32740862819E+01 0.  0.
         13    1    3    3    0    0  0.54266707075E+01 -0.93663041926E+01 -0.15954219026E+03  0.15990899563E+03  0.00000000000E+00 0.  1.
          1    1    3    3  501    0  0.11559289288E+02 -0.15928076553E+02 -0.23755276217E+03  0.23836659919E+03  0.00000000000E+00 0.  1.
         -1    1    1    2    0  502 -0.16985959995E+02  0.25294380745E+02 -0.60192940932E+03  0.60270004343E+03  0.00000000000E+00 0. -1.
<mgrwt>
<rscale>  1 0.30000000E+03</rscale>
<asrwt>0</asrwt>
<pdfrwt beam="1">  1       21 0.35477829E-02 0.30000000E+03</pdfrwt>
<pdfrwt beam="2">0</pdfrwt>
<totfact> 0.51434984E+04</totfact>
</mgrwt>
</event>
<event>
 6    1  0.1280499E-001  0.3000000E+03  0.7818608E-02  0.1093470E+00
         21   -1    0    0  501  502  0.00000000000E+00  0.00000000000E+00  0.25139825470E+01  0.25139825470E+01  0.00000000000E+00 0. -1.
         13   -1    0    0    0    0 -0.00000000000E+00 -0.00000000000E+00 -0.10000000000E+04  0.10000000000E+04  0.00000000000E+00 0.  1.
    9000005    2    1    2  501    0  0.63682277446E+01 -0.33092456896E+02 -0.86969673644E+03  0.87035587507E+03  0.33572131760E+01 0.  0.
         13    1    3    3    0    0  0.34229147026E+01 -0.10010033524E+02 -0.28505842748E+03  0.28525466551E+03  0.00000000000E+00 0.  1.
          1    1    3    3  501    0  0.29453130420E+01 -0.23082423372E+02 -0.58463830896E+03  0.58510120957E+03  0.00000000000E+00 0.  1.
         -3    1    1    2    0  502 -0.63682277446E+01  0.33092456896E+02 -0.12778928102E+03  0.13215810747E+03  0.00000000000E+00 0. -1.
<mgrwt>
<rscale>  1 0.30000000E+03</rscale>
<asrwt>0</asrwt>
<pdfrwt beam="1">  1       21 0.91417740E-02 0.30000000E+03</pdfrwt>
<pdfrwt beam="2">0</pdfrwt>
<totfact> 0.10094451E+04</totfact>
</mgrwt>
</event>
<event>
 6    1  0.1280499E-001  0.3000000E+03  0.7818608E-02  0.1093470E+00
         21   -1    0    0  501  502  0.00000000000E+00  0.00000000000E+00  0.16057549624E+01  0.16057549624E+01  0.00000000000E+00 0. -1.
         13   -1    0    0    0    0 -0.00000000000E+00 -0.00000000000E+00 -0.10000000000E+04  0.10000000000E+04  0.00000000000E+00 0.  1.
    9000005    2    1    2  501    0  0.63779362393E+01 -0.31675824283E+02 -0.79475011692E+03  0.79541417698E+03  0.34537920347E+01 0.  0.
         13    1    3    3    0    0  0.33430391022E+01 -0.17458567512E+02 -0.47860756455E+03  0.47893755161E+03  0.00000000000E+00 0.  1.
          1    1    3    3  501    0  0.30348971371E+01 -0.14217256770E+02 -0.31614255237E+03  0.31647662537E+03  0.00000000000E+00 0.  1.
         -3    1    1    2    0  502 -0.63779362393E+01  0.31675824283E+02 -0.20364412812E+03  0.20619157798E+03  0.00000000000E+00 0. -1.
<mgrwt>
<rscale>  1 0.30000000E+03</rscale>
<asrwt>0</asrwt>
<pdfrwt beam="1">  1       21 0.58391213E-02 0.30000000E+03</pdfrwt>
<pdfrwt beam="2">0</pdfrwt>
<totfact> 0.22082370E+04</totfact>
</mgrwt>
</event>
<event>
 6    1  0.1280499E-001  0.3000000E+03  0.7818608E-02  0.1093470E+00
         21   -1    0    0  501  502  0.00000000000E+00  0.00000000000E+00  0.44507566495E+01  0.44507566495E+01  0.00000000000E+00 0. -1.
         13   -1    0    0    0    0 -0.00000000000E+00 -0.00000000000E+00 -0.10000000000E+04  0.10000000000E+04  0.00000000000E+00 0.  1.
    9000005    2    1    2  501    0  0.24793915293E+02  0.44297779687E+02 -0.82348410156E+03  0.82505330812E+03  0.31407309240E+01 0.  0.
         13    1    3    3    0    0  0.82578473546E+01  0.14319779593E+02 -0.29230457376E+03  0.29277160377E+03  0.00000000000E+00 0.  1.
          1    1    3    3  501    0  0.16536067938E+02  0.29978000094E+02 -0.53117952780E+03  0.53228170435E+03  0.00000000000E+00 0.  1.
         -1    1    1    2    0  502 -0.24793915293E+02 -0.44297779687E+02 -0.17206514179E+03  0.17939744853E+03  0.00000000000E+00 0. -1.
<mgrwt>
<rscale>  1 0.30000000E+03</rscale>
<asrwt>0</asrwt>
<pdfrwt beam="1">  1       21 0.16184604E-01 0.30000000E+03</pdfrwt>
<pdfrwt beam="2">0</pdfrwt>
<totfact> 0.35753596E+03</totfact>
</mgrwt>
</event>
<event>
 6    1  0.1280499E-001  0.3000000E+03  0.7818608E-02  0.1093470E+00
         21   -1    0    0  501  502  0.00000000000E+00  0.00000000000E+00  0.42880342119E+01  0.42880342119E+01  0.00000000000E+00 0. -1.
         13   -1    0    0    0    0 -0.00000000000E+00 -0.00000000000E+00 -0.10000000000E+04  0.10000000000E+04  0.00000000000E+00 0.  1.
    9000005    2    1    2  501    0 -0.42868011620E+02 -0.75660113429E+01 -0.87284550721E+03  0.87393820648E+03  0.37146102653E+01 0.  0.
         13    1    3    3    0    0 -0.84425870223E+01 -0.25218609314E+01 -0.19923277058E+03  0.19942751548E+03  0.00000000000E+00 0.  1.
          1    1    3    3  501    0 -0.34425424597E+02 -0.50441504116E+01 -0.67361273664E+03  0.67451069100E+03  0.00000000000E+00 0.  1.
         -1    1    1    2    0  502  0.42868011620E+02  0.75660113429E+01 -0.12286645858E+03  0.13034982774E+03  0.00000000000E+00 0. -1.
<mgrwt>
<rscale>  1 0.30000000E+03</rscale>
<asrwt>0</asrwt>
<pdfrwt beam="1">  1       21 0.15592885E-01 0.30000000E+03</pdfrwt>
<pdfrwt beam="2">0</pdfrwt>
<totfact> 0.38322543E+03</totfact>
</mgrwt>
</event>
<event>
 6    1  0.1280499E-001  0.3000000E+03  0.7818608E-02  0.1093470E+00
         21   -1    0    0  501  502  0.00000000000E+00  0.00000000000E+00  0.16095639378E+01  0.16095639378E+01  0.00000000000E+00 0. -1.
         13   -1    0    0    0    0 -0.00000000000E+00 -0.00000000000E+00 -0.10000000000E+04  0.10000000000E+04  0.00000000000E+00 0.  1.
    9000005    2    1    2  501    0 -0.97632450195E+01 -0.38568088097E+02 -0.55782910462E+03  0.55925551440E+03  0.32560808516E+01 0.  0.
         13    1    3    3    0    0 -0.11636157447E+01 -0.26147996857E+01 -0.31484601209E+02  0.31614415894E+02  0.00000000000E+00 0.  1.
          1    1    3    3  501    0 -0.85996292748E+01 -0.35953288411E+02 -0.52634450341E+03  0.52764109851E+03  0.00000000000E+00 0.  1.
         -1    1    1    2    0  502  0.97632450195E+01  0.38568088097E+02 -0.44056133145E+03  0.44235404953E+03  0.00000000000E+00 0. -1.
<mgrwt>
<rscale>  1 0.30000000E+03</rscale>
<asrwt>0</asrwt>
<pdfrwt beam="1">  1       21 0.58529721E-02 0.30000000E+03</pdfrwt>
<pdfrwt beam="2">0</pdfrwt>
<totfact> 0.21992409E+04</totfact>
</mgrwt>
</event>
<event>
 6    1  0.1280499E-001  0.3000000E+03  0.7818608E-02  0.1093470E+00
         21   -1    0    0  501  502  0.00000000000E+00  0.00000000000E+00  0.10103192738E+01  0.10103192738E+01  0.00000000000E+00 0. -1.
         13   -1    0    0    0    0 -0.00000000000E+00 -0.00000000000E+00 -0.10000000000E+04  0.10000000000E+04  0.00000000000E+00 0.  1.
    9000005    2    1    2  501    0  0.31485778973E+02 -0.20993519520E+01 -0.55067385579E+03  0.55158530835E+03  0.29825124010E+01 0.  0.
         13    1    3    3    0    0  0.54293482860E+01 -0.92286638195E+00 -0.80047253470E+02  0.80236477323E+02  0.00000000000E+00 0.  1.
          3    1    3    3  501    0  0.26056430687E+02 -0.11764855700E+01 -0.47062660232E+03  0.47134883103E+03  0.00000000000E+00 0.  1.
         -1    1    1    2    0  502 -0.31485778973E+02  0.20993519520E+01 -0.44831582493E+03  0.44942501092E+03  0.00000000000E+00 0. -1.
<mgrwt>
<rscale>  1 0.30000000E+03</rscale>
<asrwt>0</asrwt>
<pdfrwt beam="1">  1       21 0.36738960E-02 0.30000000E+03</pdfrwt>
<pdfrwt beam="2">0</pdfrwt>
<totfact> 0.48508417E+04</totfact>
</mgrwt>
</event>
<event>
 6    1  0.1280499E-001  0.3000000E+03  0.7818608E-02  0.1093470E+00
         21   -1    0    0  501  502  0.00000000000E+00  0.00000000000E+00  0.10559094823E+01  0.10559094823E+01  0.00000000000E+00 0. -1.
         13   -1    0    0    0    0 -0.00000000000E+00 -0.00000000000E+00 -0.10000000000E+04  0.10000000000E+04  0.00000000000E+00 0.  1.
    9000005    2    1    2  501    0 -0.29971072204E+02 -0.52239915602E+01 -0.67253720605E+03  0.67323429719E+03  0.35454388572E+01 0.  0.
         13    1    3    3    0    0 -0.17683877406E+02 -0.31303891275E+01 -0.35786799603E+03  0.35831832417E+03  0.00000000000E+00 0.  1.
          1    1    3    3  501    0 -0.12287194798E+02 -0.20936024327E+01 -0.31466921002E+03  0.31491597301E+03  0.00000000000E+00 0.  1.
         -3    1    1    2    0  502  0.29971072204E+02  0.52239915602E+01 -0.32640688447E+03  0.32782161230E+03  0.00000000000E+00 0. -1.
<mgrwt>
<rscale>  1 0.30000000E+03</rscale>
<asrwt>0</asrwt>
<pdfrwt beam="1">  1       21 0.38396789E-02 0.30000000E+03</pdfrwt>
<pdfrwt beam="2">0</pdfrwt>
<totfact> 0.45042889E+04</totfact>
</mgrwt>
</event>
<event>
 6    1  0.1280499E-001  0.3000000E+03  0.7818608E-02  0.1093470E+00
         21   -1    0    0  501  502  0.00000000000E+00  0.00000000000E+00  0.16809989661E+01  0.16809989661E+01  0.00000000000E+00 0. -1.
         13   -1    0    0    0    0 -0.00000000000E+00 -0.00000000000E+00 -0.10000000000E+04  0.10000000000E+04  0.00000000000E+00 0.  1.
    9000005    2    1    2  501    0  0.39230499163E+02 -0.41272509451E+01 -0.63304308147E+03  0.63428126615E+03  0.36215077645E+01 0.  0.
         13    1    3    3    0    0  0.27042344814E+02 -0.42934867389E+01 -0.45135056348E+03  0.45218033305E+03  0.00000000000E+00 0.  1.
          1    1    3    3  501    0  0.12188154349E+02  0.16623579381E+00 -0.18169251799E+03  0.18210093310E+03  0.00000000000E+00 0.  1.
         -3    1    1    2    0  502 -0.39230499163E+02  0.41272509451E+01 -0.36527591956E+03  0.36739973282E+03  0.00000000000E+00 0. -1.
<mgrwt>
<rscale>  1 0.30000000E+03</rscale>
<asrwt>0</asrwt>
<pdfrwt beam="1">  1       21 0.61127364E-02 0.30000000E+03</pdfrwt>
<pdfrwt beam="2">0</pdfrwt>
<totfact> 0.20405669E+04</totfact>
</mgrwt>
</event>
<event>
 6    1  0.1280499E-001  0.3000000E+03  0.7818608E-02  0.1093470E+00
         21   -1    0    0  501  502  0.00000000000E+00  0.00000000000E+00  0.15880223536E+01  0.15880223536E+01  0.00000000000E+00 0. -1.
         13   -1    0    0    0    0 -0.00000000000E+00 -0.00000000000E+00 -0.10000000000E+04  0.10000000000E+04  0.00000000000E+00 0.  1.
    9000005    2    1    2  501    0 -0.53730785078E-01 -0.34142342592E+02 -0.75637803620E+03  0.75715780479E+03  0.38085782732E+01 0.  0.
         13    1    3    3    0    0  0.14349808265E+01 -0.22359206751E+02 -0.51718874835E+03  0.51767383043E+03  0.00000000000E+00 0.  1.
          1    1    3    3  501    0 -0.14887116116E+01 -0.11783135842E+02 -0.23918928785E+03  0.23948397436E+03  0.00000000000E+00 0.  1.
         -1    1    1    2    0  502  0.53730785078E-01  0.34142342592E+02 -0.24203394145E+03  0.24443021756E+03  0.00000000000E+00 0. -1.
<mgrwt>
<rscale>  1 0.30000000E+03</rscale>
<asrwt>0</asrwt>
<pdfrwt beam="1">  1       21 0.57746389E-02 0.30000000E+03</pdfrwt>
<pdfrwt beam="2">0</pdfrwt>
<totfact> 0.22508769E+04</totfact>
</mgrwt>
</event>
<event>
 6    1  0.1280499E-001  0.3000000E+03  0.7818608E-02  0.1093470E+00
         21   -1    0    0  501  502  0.00000000000E+00  0.00000000000E+00  0.21392821128E+01  0.21392821128E+01  0.00000000000E+00 0. -1.
         13   -1    0    0    0    0 -0.00000000000E+00 -0.00000000000E+00 -0.10000000000E+04  0.10000000000E+04  0.00000000000E+00 0.  1.
    9000005    2    1    2  501    0  0.44787801424E+02 -0.95526272376E+01 -0.56557356788E+03  0.56743319761E+03  0.31262150382E+01 0.  0.
         13    1    3    3    0    0  0.16742858991E+02 -0.24241262027E+01 -0.19634858799E+03  0.19707604552E+03  0.00000000000E+00 0.  1.
          3    1    3    3  501    0  0.28044942433E+02 -0.71285010349E+01 -0.36922497989E+03  0.37035715209E+03  0.00000000000E+00 0.  1.
         -3    1    1    2    0  502 -0.44787801424E+02  0.95526272376E+01 -0.43228715001E+03  0.43470608450E+03  0.00000000000E+00 0. -1.
<mgrwt>
<rscale>  1 0.30000000E+03</rscale>
<asrwt>0</asrwt>
<pdfrwt beam="1">  1       21 0.77792241E-02 0.30000000E+03</pdfrwt>
<pdfrwt beam="2">0</pdfrwt>
<totfact> 0.13416945E+04</totfact>
</mgrwt>
</event>
<event>
 6    1  0.1280499E-001  0.3000000E+03  0.7818608E-02  0.1093470E+00
         21   -1    0    0  501  502  0.00000000000E+00  0.00000000000E+00  0.19665654958E+01  0.19665654958E+01  0.00000000000E+00 0. -1.
         13   -1    0    0    0    0 -0.00000000000E+00 -0.00000000000E+00 -0.10000000000E+04  0.10000000000E+04  0.00000000000E+00 0.  1.
    9000005    2    1    2  501    0  0.32438922482E+02 -0.97312860171E+01 -0.82196432475E+03  0.82266984765E+03  0.36531434851E+01 0.  0.
         13    1    3    3    0    0  0.26013515157E+02 -0.72669479856E+01 -0.61925956229E+03  0.61984830160E+03  0.00000000000E+00 0.  1.
          1    1    3    3  501    0  0.64254073250E+01 -0.24643380314E+01 -0.20270476246E+03  0.20282154605E+03  0.00000000000E+00 0.  1.
         -3    1    1    2    0  502 -0.32438922482E+02  0.97312860171E+01 -0.17606910975E+03  0.17929671784E+03  0.00000000000E+00 0. -1.
<mgrwt>
<rscale>  1 0.30000000E+03</rscale>
<asrwt>0</asrwt>
<pdfrwt beam="1">  1       21 0.71511623E-02 0.30000000E+03</pdfrwt>
<pdfrwt beam="2">0</pdfrwt>
<totfact> 0.15545850E+04</totfact>
</mgrwt>
</event>
<event>
 6    1  0.1280499E-001  0.3000000E+03  0.7818608E-02  0.1093470E+00
         21   -1    0    0  501  502  0.00000000000E+00  0.00000000000E+00  0.10463111373E+01  0.10463111373E+01  0.00000000000E+00 0. -1.
         13   -1    0    0    0    0 -0.00000000000E+00 -0.00000000000E+00 -0.10000000000E+04  0.10000000000E+04  0.00000000000E+00 0.  1.
    9000005    2    1    2  501    0 -0.23620034962E+02  0.21963033046E+02 -0.49317197651E+03  0.49423725298E+03  0.34033738773E+01 0.  0.
         13    1    3    3    0    0 -0.23166453664E+02  0.21810755122E+02 -0.48968129496E+03  0.49071393321E+03  0.00000000000E+00 0.  1.
          3    1    3    3  501    0 -0.45358129771E+00  0.15227792434E+00 -0.34906815493E+01  0.35233197753E+01  0.00000000000E+00 0.  1.
         -3    1    1    2    0  502  0.23620034962E+02 -0.21963033046E+02 -0.50578171236E+03  0.50680905815E+03  0.00000000000E+00 0. -1.
<mgrwt>
<rscale>  1 0.30000000E+03</rscale>
<asrwt>0</asrwt>
<pdfrwt beam="1">  1       21 0.38047758E-02 0.30000000E+03</pdfrwt>
<pdfrwt beam="2">0</pdfrwt>
<totfact> 0.45739455E+04</totfact>
</mgrwt>
</event>
<event>
 6    1  0.1280499E-001  0.3000000E+03  0.7818608E-02  0.1093470E+00
         21   -1    0    0  501  502  0.00000000000E+00  0.00000000000E+00  0.35960751582E+01  0.35960751582E+01  0.00000000000E+00 0. -1.
         13   -1    0    0    0    0 -0.00000000000E+00 -0.00000000000E+00 -0.10000000000E+04  0.10000000000E+04  0.00000000000E+00 0.  1.
    9000005    2    1    2  501    0  0.91019781907E+01 -0.36473239444E+02 -0.88884232648E+03  0.88965468389E+03  0.56242349110E+01 0.  0.
         13    1    3    3    0    0  0.22136912384E+01 -0.26796477524E+01 -0.94896995318E+02  0.94960626901E+02  0.00000000000E+00 0.  1.
          3    1    3    3  501    0  0.68882869523E+01 -0.33793591691E+02 -0.79394533116E+03  0.79469405699E+03  0.00000000000E+00 0.  1.
         -1    1    1    2    0  502 -0.91019781907E+01  0.36473239444E+02 -0.10756159836E+03  0.11394139127E+03  0.00000000000E+00 0. -1.
<mgrwt>
<rscale>  1 0.30000000E+03</rscale>
<asrwt>0</asrwt>
<pdfrwt beam="1">  1       21 0.13076665E-01 0.30000000E+03</pdfrwt>
<pdfrwt beam="2">0</pdfrwt>
<totfact> 0.52993035E+03</totfact>
</mgrwt>
</event>
<event>
 6    1  0.1280499E-001  0.3000000E+03  0.7818608E-02  0.1093470E+00
         21   -1    0    0  501  502  0.00000000000E+00  0.00000000000E+00  0.20114437037E+01  0.20114437037E+01  0.00000000000E+00 0. -1.
         13   -1    0    0    0    0 -0.00000000000E+00 -0.00000000000E+00 -0.10000000000E+04  0.10000000000E+04  0.00000000000E+00 0.  1.
    9000005    2    1    2  501    0  0.35760856063E+02  0.15412646890E+02 -0.74690211144E+03  0.74792328715E+03  0.31766140224E+01 0.  0.
         13    1    3    3    0    0  0.95055878373E+01  0.26160075252E+01 -0.18421326172E+03  0.18447689690E+03  0.00000000000E+00 0.  1.
          3    1    3    3  501    0  0.26255268225E+02  0.12796639365E+02 -0.56268884972E+03  0.56344639025E+03  0.00000000000E+00 0.  1.
         -1    1    1    2    0  502 -0.35760856063E+02 -0.15412646890E+02 -0.25108644486E+03  0.25408815656E+03  0.00000000000E+00 0. -1.
<mgrwt>
<rscale>  1 0.30000000E+03</rscale>
<asrwt>0</asrwt>
<pdfrwt beam="1">  1       21 0.73143562E-02 0.30000000E+03</pdfrwt>
<pdfrwt beam="2">0</pdfrwt>
<totfact> 0.14945549E+04</totfact>
</mgrwt>
</event>
<event>
 6    1  0.1280499E-001  0.3000000E+03  0.7818608E-02  0.1093470E+00
         21   -1    0    0  501  502  0.00000000000E+00  0.00000000000E+00  0.11831386018E+01  0.11831386018E+01  0.00000000000E+00 0. -1.
         13   -1    0    0    0    0 -0.00000000000E+00 -0.00000000000E+00 -0.10000000000E+04  0.10000000000E+04  0.00000000000E+00 0.  1.
    9000005    2    1    2  501    0 -0.18906357470E+02  0.26656224021E+02 -0.65272714008E+03  0.65355388230E+03  0.34573177783E+01 0.  0.
         13    1    3    3    0    0 -0.16943017946E+02  0.25323068876E+02 -0.59912479848E+03  0.59989903136E+03  0.00000000000E+00 0.  1.
          1    1    3    3  501    0 -0.19633395248E+01  0.13331551457E+01 -0.53602341598E+02  0.53654850941E+02  0.00000000000E+00 0.  1.
         -1    1    1    2    0  502  0.18906357470E+02 -0.26656224021E+02 -0.34608972132E+03  0.34762925630E+03  0.00000000000E+00 0. -1.
<mgrwt>
<rscale>  1 0.30000000E+03</rscale>
<asrwt>0</asrwt>
<pdfrwt beam="1">  1       21 0.43023313E-02 0.30000000E+03</pdfrwt>
<pdfrwt beam="2">0</pdfrwt>
<totfact> 0.37182644E+04</totfact>
</mgrwt>
</event>
<event>
 6    1  0.1280499E-001  0.3000000E+03  0.7818608E-02  0.1093470E+00
         21   -1    0    0  501  502  0.00000000000E+00  0.00000000000E+00  0.10318933372E+01  0.10318933372E+01  0.00000000000E+00 0. -1.
         13   -1    0    0    0    0 -0.00000000000E+00 -0.00000000000E+00 -0.10000000000E+04  0.10000000000E+04  0.00000000000E+00 0.  1.
    9000005    2    1    2  501    0 -0.28726768308E+02  0.11506597700E+02 -0.63029550605E+03  0.63106281970E+03  0.31981945598E+01 0.  0.
         13    1    3    3    0    0 -0.12115864384E+02  0.64867967176E+01 -0.26903545757E+03  0.26938624711E+03  0.00000000000E+00 0.  1.
          1    1    3    3  501    0 -0.16610903924E+02  0.50198009819E+01 -0.36126004848E+03  0.36167657258E+03  0.00000000000E+00 0.  1.
         -3    1    1    2    0  502  0.28726768308E+02 -0.11506597700E+02 -0.36867260061E+03  0.36996907364E+03  0.00000000000E+00 0. -1.
<mgrwt>
<rscale>  1 0.30000000E+03</rscale>
<asrwt>0</asrwt>
<pdfrwt beam="1">  1       21 0.37523473E-02 0.30000000E+03</pdfrwt>
<pdfrwt beam="2">0</pdfrwt>
<totfact> 0.46818050E+04</totfact>
</mgrwt>
</event>
<event>
 6    1  0.1280499E-001  0.3000000E+03  0.7818608E-02  0.1093470E+00
         21   -1    0    0  501  502  0.00000000000E+00  0.00000000000E+00  0.10035905877E+01  0.10035905877E+01  0.00000000000E+00 0. -1.
         13   -1    0    0    0    0 -0.00000000000E+00 -0.00000000000E+00 -0.10000000000E+04  0.10000000000E+04  0.00000000000E+00 0.  1.
    9000005    2    1    2  501    0 -0.26454740226E+02 -0.17264049793E+02 -0.50637138280E+03  0.50736676301E+03  0.33397894126E+01 0.  0.
         13    1    3    3    0    0 -0.21583896840E+02 -0.15468615559E+02 -0.42999631948E+03  0.43081547957E+03  0.00000000000E+00 0.  1.
          3    1    3    3  501    0 -0.48708433855E+01 -0.17954342345E+01 -0.76375063320E+02  0.76551283441E+02  0.00000000000E+00 0.  1.
         -3    1    1    2    0  502  0.26454740226E+02  0.17264049793E+02 -0.49262502661E+03  0.49363682757E+03  0.00000000000E+00 0. -1.
<mgrwt>
<rscale>  1 0.30000000E+03</rscale>
<asrwt>0</asrwt>
<pdfrwt beam="1">  1       21 0.36494280E-02 0.30000000E+03</pdfrwt>
<pdfrwt beam="2">0</pdfrwt>
<totfact> 0.49055347E+04</totfact>
</mgrwt>
</event>
<event>
 6    1  0.1280499E-001  0.3000000E+03  0.7818608E-02  0.1093470E+00
         21   -1    0    0  501  502  0.00000000000E+00  0.00000000000E+00  0.20805204978E+01  0.20805204978E+01  0.00000000000E+00 0. -1.
         13   -1    0    0    0    0 -0.00000000000E+00 -0.00000000000E+00 -0.10000000000E+04  0.10000000000E+04  0.00000000000E+00 0.  1.
    9000005    2    1    2  501    0 -0.18965521599E+02  0.29691978205E+02 -0.81679489727E+03  0.81756109369E+03  0.33065293844E+01 0.  0.
         13    1    3    3    0    0 -0.17753744029E+02  0.25860097460E+02 -0.72496636359E+03  0.72564465712E+03  0.00000000000E+00 0.  1.
          1    1    3    3  501    0 -0.12117775702E+01  0.38318807449E+01 -0.91828533677E+02  0.91916436573E+02  0.00000000000E+00 0.  1.
         -1    1    1    2    0  502  0.18965521599E+02 -0.29691978205E+02 -0.18112458224E+03  0.18451942681E+03  0.00000000000E+00 0. -1.
<mgrwt>
<rscale>  1 0.30000000E+03</rscale>
<asrwt>0</asrwt>
<pdfrwt beam="1">  1       21 0.75655450E-02 0.30000000E+03</pdfrwt>
<pdfrwt beam="2">0</pdfrwt>
<totfact> 0.14088147E+04</totfact>
</mgrwt>
</event>
<event>
 6    1  0.1280499E-001  0.3000000E+03  0.7818608E-02  0.1093470E+00
         21   -1    0    0  501  502  0.00000000000E+00  0.00000000000E+00  0.20080058531E+01  0.20080058531E+01  0.00000000000E+00 0. -1.
         13   -1    0    0    0    0 -0.00000000000E+00 -0.00000000000E+00 -0.10000000000E+04  0.10000000000E+04  0.00000000000E+00 0.  1.
    9000005    2    1    2  501    0  0.37010182598E+02 -0.33315618553E+01 -0.22312173666E+03  0.22624723805E+03  0.48631713937E+01 0.  0.
         13    1    3    3    0    0  0.27992632130E+02 -0.44882417376E+01 -0.16463701526E+03  0.16706010464E+03  0.00000000000E+00 0.  1.
          3    1    3    3  501    0  0.90175504683E+01  0.11566798823E+01 -0.58484721401E+02  0.59187133417E+02  0.00000000000E+00 0.  1.
         -1    1    1    2    0  502 -0.37010182598E+02  0.33315618553E+01 -0.77487025749E+03  0.77576076780E+03  0.00000000000E+00 0. -1.
<mgrwt>
<rscale>  1 0.30000000E+03</rscale>
<asrwt>0</asrwt>
<pdfrwt beam="1">  1       21 0.73018549E-02 0.30000000E+03</pdfrwt>
<pdfrwt beam="2">0</pdfrwt>
<totfact> 0.14990278E+04</totfact>
</mgrwt>
</event>
<event>
 6    1  0.1280499E-001  0.3000000E+03  0.7818608E-02  0.1093470E+00
         21   -1    0    0  501  502  0.00000000000E+00  0.00000000000E+00  0.77750186080E+01  0.77750186080E+01  0.00000000000E+00 0. -1.
         13   -1    0    0    0    0 -0.00000000000E+00 -0.00000000000E+00 -0.10000000000E+04  0.10000000000E+04  0.00000000000E+00 0.  1.
    9000005    2    1    2  501    0 -0.24838664515E+02  0.71707064669E+02 -0.75256680549E+03  0.75638905310E+03  0.29564410134E+01 0.  0.
         13    1    3    3    0    0 -0.15254493009E+02  0.45696390447E+02 -0.46445861066E+03  0.46695038353E+03  0.00000000000E+00 0.  1.
          1    1    3    3  501    0 -0.95841715060E+01  0.26010674222E+02 -0.28810819483E+03  0.28943866958E+03  0.00000000000E+00 0.  1.
         -3    1    1    2    0  502  0.24838664515E+02 -0.71707064669E+02 -0.23965817590E+03  0.25138596551E+03  0.00000000000E+00 0. -1.
<mgrwt>
<rscale>  1 0.30000000E+03</rscale>
<asrwt>0</asrwt>
<pdfrwt beam="1">  1       21 0.28272855E-01 0.30000000E+03</pdfrwt>
<pdfrwt beam="2">0</pdfrwt>
<totfact> 0.12236302E+03</totfact>
</mgrwt>
</event>
<event>
 6    1  0.1280499E-001  0.3000000E+03  0.7818608E-02  0.1093470E+00
         21   -1    0    0  501  502  0.00000000000E+00  0.00000000000E+00  0.16130399276E+01  0.16130399276E+01  0.00000000000E+00 0. -1.
         13   -1    0    0    0    0 -0.00000000000E+00 -0.00000000000E+00 -0.10000000000E+04  0.10000000000E+04  0.00000000000E+00 0.  1.
    9000005    2    1    2  501    0 -0.12010443844E+02 -0.36001307962E+02 -0.66047838184E+03  0.66157987657E+03  0.39868878976E+01 0.  0.
         13    1    3    3    0    0 -0.27871754987E+01 -0.12393743344E+02 -0.24506396064E+03  0.24539298691E+03  0.00000000000E+00 0.  1.
          3    1    3    3  501    0 -0.92232683449E+01 -0.23607564618E+02 -0.41541442119E+03  0.41618688966E+03  0.00000000000E+00 0.  1.
         -3    1    1    2    0  502  0.12010443844E+02  0.36001307962E+02 -0.33790857824E+03  0.34003316336E+03  0.00000000000E+00 0. -1.
<mgrwt>
<rscale>  1 0.30000000E+03</rscale>
<asrwt>0</asrwt>
<pdfrwt beam="1">  1       21 0.58656121E-02 0.30000000E+03</pdfrwt>
<pdfrwt beam="2">0</pdfrwt>
<totfact> 0.21910810E+04</totfact>
</mgrwt>
</event>
<event>
 6    1  0.1280499E-001  0.3000000E+03  0.7818608E-02  0.1093470E+00
         21   -1    0    0  501  502  0.00000000000E+00  0.00000000000E+00  0.23568818129E+01  0.23568818129E+01  0.00000000000E+00 0. -1.
         13   -1    0    0    0    0 -0.00000000000E+00 -0.00000000000E+00 -0.10000000000E+04  0.10000000000E+04  0.00000000000E+00 0.  1.
    9000005    2    1    2  501    0 -0.47005870128E+02 -0.11894789897E+02 -0.49217225900E+03  0.49456575611E+03  0.32736426824E+01 0.  0.
         13    1    3    3    0    0 -0.26781204112E+02 -0.76000206094E+01 -0.29663073568E+03  0.29793419837E+03  0.00000000000E+00 0.  1.
          3    1    3    3  501    0 -0.20224666016E+02 -0.42947692880E+01 -0.19554152332E+03  0.19663155775E+03  0.00000000000E+00 0.  1.
         -3    1    1    2    0  502  0.47005870128E+02  0.11894789897E+02 -0.50547085919E+03  0.50779112570E+03  0.00000000000E+00 0. -1.
<mgrwt>
<rscale>  1 0.30000000E+03</rscale>
<asrwt>0</asrwt>
<pdfrwt beam="1">  1       21 0.85704974E-02 0.30000000E+03</pdfrwt>
<pdfrwt beam="2">0</pdfrwt>
<totfact> 0.11315201E+04</totfact>
</mgrwt>
</event>
<event>
 6    1  0.1280499E-001  0.3000000E+03  0.7818608E-02  0.1093470E+00
         21   -1    0    0  501  502  0.00000000000E+00  0.00000000000E+00  0.60600870665E+01  0.60600870665E+01  0.00000000000E+00 0. -1.
         13   -1    0    0    0    0 -0.00000000000E+00 -0.00000000000E+00 -0.10000000000E+04  0.10000000000E+04  0.00000000000E+00 0.  1.
    9000005    2    1    2  501    0 -0.50646710855E+02 -0.44406745599E+01 -0.87785598119E+03  0.87933089500E+03  0.26249366475E+01 0.  0.
         13    1    3    3    0    0 -0.16498211919E+02 -0.12394736554E+01 -0.26511189646E+03  0.26562764340E+03  0.00000000000E+00 0.  1.
          1    1    3    3  501    0 -0.34148498936E+02 -0.32012009045E+01 -0.61274408472E+03  0.61370325160E+03  0.00000000000E+00 0.  1.
         -3    1    1    2    0  502  0.50646710855E+02  0.44406745599E+01 -0.11608393175E+03  0.12672919206E+03  0.00000000000E+00 0. -1.
<mgrwt>
<rscale>  1 0.30000000E+03</rscale>
<asrwt>0</asrwt>
<pdfrwt beam="1">  1       21 0.22036727E-01 0.30000000E+03</pdfrwt>
<pdfrwt beam="2">0</pdfrwt>
<totfact> 0.19921844E+03</totfact>
</mgrwt>
</event>
<event>
 6    1  0.1280499E-001  0.3000000E+03  0.7818608E-02  0.1093470E+00
         21   -1    0    0  501  502  0.00000000000E+00  0.00000000000E+00  0.26061352186E+01  0.26061352186E+01  0.00000000000E+00 0. -1.
         13   -1    0    0    0    0 -0.00000000000E+00 -0.00000000000E+00 -0.10000000000E+04  0.10000000000E+04  0.00000000000E+00 0.  1.
    9000005    2    1    2  501    0 -0.50373780646E+02 -0.78047477156E+01 -0.49628786246E+03  0.49891410885E+03  0.39004771776E+01 0.  0.
         13    1    3    3    0    0 -0.18655086082E+02 -0.17611381354E+01 -0.19726223519E+03  0.19815020383E+03  0.00000000000E+00 0.  1.
          3    1    3    3  501    0 -0.31718694564E+02 -0.60436095802E+01 -0.29902562727E+03  0.30076390502E+03  0.00000000000E+00 0.  1.
         -1    1    1    2    0  502  0.50373780646E+02  0.78047477156E+01 -0.50110600232E+03  0.50369202637E+03  0.00000000000E+00 0. -1.
<mgrwt>
<rscale>  1 0.30000000E+03</rscale>
<asrwt>0</asrwt>
<pdfrwt beam="1">  1       21 0.94768753E-02 0.30000000E+03</pdfrwt>
<pdfrwt beam="2">0</pdfrwt>
<totfact> 0.94687371E+03</totfact>
</mgrwt>
</event>
<event>
 6    1  0.1280499E-001  0.3000000E+03  0.7818608E-02  0.1093470E+00
         21   -1    0    0  501  502  0.00000000000E+00  0.00000000000E+00  0.20359403952E+01  0.20359403952E+01  0.00000000000E+00 0. -1.
         13   -1    0    0    0    0 -0.00000000000E+00 -0.00000000000E+00 -0.10000000000E+04  0.10000000000E+04  0.00000000000E+00 0.  1.
    9000005    2    1    2  501    0  0.29791245525E+02 -0.13530027759E+02 -0.84337664536E+03  0.84402376174E+03  0.46221725016E+01 0.  0.
         13    1    3    3    0    0  0.14034475665E+02 -0.85051513432E+01 -0.38799774707E+03  0.38834463540E+03  0.00000000000E+00 0.  1.
          3    1    3    3  501    0  0.15756769860E+02 -0.50248764153E+01 -0.45537889829E+03  0.45567912634E+03  0.00000000000E+00 0.  1.
         -3    1    1    2    0  502 -0.29791245525E+02  0.13530027759E+02 -0.15458741424E+03  0.15801217866E+03  0.00000000000E+00 0. -1.
<mgrwt>
<rscale>  1 0.30000000E+03</rscale>
<asrwt>0</asrwt>
<pdfrwt beam="1">  1       21 0.74034352E-02 0.30000000E+03</pdfrwt>
<pdfrwt beam="2">0</pdfrwt>
<totfact> 0.14632604E+04</totfact>
</mgrwt>
</event>
<event>
 6    1  0.1280499E-001  0.3000000E+03  0.7818608E-02  0.1093470E+00
         21   -1    0    0  501  502  0.00000000000E+00  0.00000000000E+00  0.19477728288E+01  0.19477728288E+01  0.00000000000E+00 0. -1.
         13   -1    0    0    0    0 -0.00000000000E+00 -0.00000000000E+00 -0.10000000000E+04  0.10000000000E+04  0.00000000000E+00 0.  1.
    9000005    2    1    2  501    0  0.16750026106E+02 -0.39977391325E+02 -0.59033992029E+03  0.59193791883E+03  0.32439284919E+01 0.  0.
         13    1    3    3    0    0  0.16470123519E+02 -0.37320160357E+02 -0.55500841541E+03  0.55650552604E+03  0.00000000000E+00 0.  1.
          1    1    3    3  501    0  0.27990258741E+00 -0.26572309684E+01 -0.35331504875E+02  0.35432392787E+02  0.00000000000E+00 0.  1.
         -1    1    1    2    0  502 -0.16750026106E+02  0.39977391325E+02 -0.40771230688E+03  0.41000985400E+03  0.00000000000E+00 0. -1.
<mgrwt>
<rscale>  1 0.30000000E+03</rscale>
<asrwt>0</asrwt>
<pdfrwt beam="1">  1       21 0.70828252E-02 0.30000000E+03</pdfrwt>
<pdfrwt beam="2">0</pdfrwt>
<totfact> 0.15808182E+04</totfact>
</mgrwt>
</event>
<event>
 6    1  0.1280499E-001  0.3000000E+03  0.7818608E-02  0.1093470E+00
         21   -1    0    0  501  502  0.00000000000E+00  0.00000000000E+00  0.64308494438E+01  0.64308494438E+01  0.00000000000E+00 0. -1.
         13   -1    0    0    0    0 -0.00000000000E+00 -0.00000000000E+00 -0.10000000000E+04  0.10000000000E+04  0.00000000000E+00 0.  1.
    9000005    2    1    2  501    0  0.43250606441E+02 -0.43001654469E+02 -0.82349466079E+03  0.82575132843E+03  0.14292689599E+01 0.  0.
         13    1    3    3    0    0  0.24587797542E+01 -0.27514778281E+01 -0.46385069242E+02  0.46531611585E+02  0.00000000000E+00 0.  1.
          1    1    3    3  501    0  0.40791826686E+02 -0.40250176640E+02 -0.77710959155E+03  0.77921971685E+03  0.00000000000E+00 0.  1.
         -3    1    1    2    0  502 -0.43250606441E+02  0.43001654469E+02 -0.17007448976E+03  0.18067952101E+03  0.00000000000E+00 0. -1.
<mgrwt>
<rscale>  1 0.30000000E+03</rscale>
<asrwt>0</asrwt>
<pdfrwt beam="1">  1       21 0.23384956E-01 0.30000000E+03</pdfrwt>
<pdfrwt beam="2">0</pdfrwt>
<totfact> 0.17762447E+03</totfact>
</mgrwt>
</event>
<event>
 6    1  0.1280499E-001  0.3000000E+03  0.7818608E-02  0.1093470E+00
         21   -1    0    0  501  502  0.00000000000E+00  0.00000000000E+00  0.13582815013E+01  0.13582815013E+01  0.00000000000E+00 0. -1.
         13   -1    0    0    0    0 -0.00000000000E+00 -0.00000000000E+00 -0.10000000000E+04  0.10000000000E+04  0.00000000000E+00 0.  1.
    9000005    2    1    2  501    0  0.33997827177E+02  0.32581731398E+01 -0.31503694607E+03  0.31690086659E+03  0.33784477278E+01 0.  0.
         13    1    3    3    0    0  0.27979858237E+02  0.35067956514E+01 -0.26815732229E+03  0.26963590188E+03  0.00000000000E+00 0.  1.
          1    1    3    3  501    0  0.60179689396E+01 -0.24862251168E+00 -0.46879623782E+02  0.47264964712E+02  0.00000000000E+00 0.  1.
         -1    1    1    2    0  502 -0.33997827177E+02 -0.32581731398E+01 -0.68360477242E+03  0.68445741491E+03  0.00000000000E+00 0. -1.
<mgrwt>
<rscale>  1 0.30000000E+03</rscale>
<asrwt>0</asrwt>
<pdfrwt beam="1">  1       21 0.49392159E-02 0.30000000E+03</pdfrwt>
<pdfrwt beam="2">0</pdfrwt>
<totfact> 0.29411386E+04</totfact>
</mgrwt>
</event>
<event>
 6    1  0.1280499E-001  0.3000000E+03  0.7818608E-02  0.1093470E+00
         21   -1    0    0  501  502  0.00000000000E+00  0.00000000000E+00  0.13820635860E+01  0.13820635860E+01  0.00000000000E+00 0. -1.
         13   -1    0    0    0    0 -0.00000000000E+00 -0.00000000000E+00 -0.10000000000E+04  0.10000000000E+04  0.00000000000E+00 0.  1.
    9000005    2    1    2  501    0  0.35980182766E+02 -0.88659432756E+01 -0.52315050951E+03  0.52447279281E+03  0.34750969809E+01 0.  0.
         13    1    3    3    0    0  0.21069017932E+02 -0.64797475605E+01 -0.29389645943E+03  0.29472193592E+03  0.00000000000E+00 0.  1.
          1    1    3    3  501    0  0.14911164834E+02 -0.23861957150E+01 -0.22925405008E+03  0.22975085689E+03  0.00000000000E+00 0.  1.
         -1    1    1    2    0  502 -0.35980182766E+02  0.88659432756E+01 -0.47546742691E+03  0.47690927078E+03  0.00000000000E+00 0. -1.
<mgrwt>
<rscale>  1 0.30000000E+03</rscale>
<asrwt>0</asrwt>
<pdfrwt beam="1">  1       21 0.50256964E-02 0.30000000E+03</pdfrwt>
<pdfrwt beam="2">0</pdfrwt>
<totfact> 0.28554008E+04</totfact>
</mgrwt>
</event>
<event>
 6    1  0.1280499E-001  0.3000000E+03  0.7818608E-02  0.1093470E+00
         21   -1    0    0  501  502  0.00000000000E+00  0.00000000000E+00  0.18765921457E+01  0.18765921457E+01  0.00000000000E+00 0. -1.
         13   -1    0    0    0    0 -0.00000000000E+00 -0.00000000000E+00 -0.10000000000E+04  0.10000000000E+04  0.00000000000E+00 0.  1.
    9000005    2    1    2  501    0 -0.25161156440E+02  0.32153234534E+02 -0.66500458305E+03  0.66626511182E+03  0.33450668888E+01 0.  0.
         13    1    3    3    0    0 -0.15342397810E+02  0.17158639368E+02 -0.36256817029E+03  0.36329806796E+03  0.00000000000E+00 0.  1.
          3    1    3    3  501    0 -0.98187586302E+01  0.14994595167E+02 -0.30243641276E+03  0.30296704387E+03  0.00000000000E+00 0.  1.
         -1    1    1    2    0  502  0.25161156440E+02 -0.32153234534E+02 -0.33311882481E+03  0.33561148032E+03  0.00000000000E+00 0. -1.
<mgrwt>
<rscale>  1 0.30000000E+03</rscale>
<asrwt>0</asrwt>
<pdfrwt beam="1">  1       21 0.68239858E-02 0.30000000E+03</pdfrwt>
<pdfrwt beam="2">0</pdfrwt>
<totfact> 0.16865743E+04</totfact>
</mgrwt>
</event>
<event>
 6    1  0.1280499E-001  0.3000000E+03  0.7818608E-02  0.1093470E+00
         21   -1    0    0  501  502  0.00000000000E+00  0.00000000000E+00  0.15736633097E+02  0.15736633097E+02  0.00000000000E+00 0. -1.
         13   -1    0    0    0    0 -0.00000000000E+00 -0.00000000000E+00 -0.10000000000E+04  0.10000000000E+04  0.00000000000E+00 0.  1.
    9000005    2    1    2  501    0  0.37983953774E+02 -0.65280290973E+01 -0.97543225569E+03  0.97619697663E+03  0.26562820631E+01 0.  0.
         13    1    3    3    0    0  0.19082281344E+02 -0.32567153023E+01 -0.45637125326E+03  0.45678163323E+03  0.00000000000E+00 0.  1.
          1    1    3    3  501    0  0.18901672430E+02 -0.32713137950E+01 -0.51906100243E+03  0.51941534340E+03  0.00000000000E+00 0.  1.
         -3    1    1    2    0  502 -0.37983953774E+02  0.65280290973E+01 -0.88311112125E+01  0.39539656466E+02  0.00000000000E+00 0. -1.
<mgrwt>
<rscale>  1 0.30000000E+03</rscale>
<asrwt>0</asrwt>
<pdfrwt beam="1">  1       21 0.57224241E-01 0.30000000E+03</pdfrwt>
<pdfrwt beam="2">0</pdfrwt>
<totfact> 0.27919262E+02</totfact>
</mgrwt>
</event>
<event>
 6    1  0.1280499E-001  0.3000000E+03  0.7818608E-02  0.1093470E+00
         21   -1    0    0  501  502  0.00000000000E+00  0.00000000000E+00  0.29918084866E+01  0.29918084866E+01  0.00000000000E+00 0. -1.
         13   -1    0    0    0    0 -0.00000000000E+00 -0.00000000000E+00 -0.10000000000E+04  0.10000000000E+04  0.00000000000E+00 0.  1.
    9000005    2    1    2  501    0  0.26544420743E+02  0.45255649636E+02 -0.63906565251E+03  0.64122456104E+03  0.33688821554E+01 0.  0.
         13    1    3    3    0    0  0.29051240526E+01  0.31413882510E+01 -0.51809624752E+02  0.51986010453E+02  0.00000000000E+00 0.  1.
          1    1    3    3  501    0  0.23639296690E+02  0.42114261385E+02 -0.58725602776E+03  0.58923855058E+03  0.00000000000E+00 0.  1.
         -3    1    1    2    0  502 -0.26544420743E+02 -0.45255649636E+02 -0.35794253901E+03  0.36176724745E+03  0.00000000000E+00 0. -1.
<mgrwt>
<rscale>  1 0.30000000E+03</rscale>
<asrwt>0</asrwt>
<pdfrwt beam="1">  1       21 0.10879327E-01 0.30000000E+03</pdfrwt>
<pdfrwt beam="2">0</pdfrwt>
<totfact> 0.73973164E+03</totfact>
</mgrwt>
</event>
<event>
 6    1  0.1280499E-001  0.3000000E+03  0.7818608E-02  0.1093470E+00
         21   -1    0    0  501  502  0.00000000000E+00  0.00000000000E+00  0.16084327150E+02  0.16084327150E+02  0.00000000000E+00 0. -1.
         13   -1    0    0    0    0 -0.00000000000E+00 -0.00000000000E+00 -0.10000000000E+04  0.10000000000E+04  0.00000000000E+00 0.  1.
    9000005    2    1    2  501    0  0.10920509013E+03 -0.62202672062E+01 -0.74874855198E+03  0.75672353950E+03  0.64558270523E+01 0.  0.
         13    1    3    3    0    0  0.76448128272E+02 -0.65270179748E+01 -0.53834863563E+03  0.54378871978E+03  0.00000000000E+00 0.  1.
          1    1    3    3  501    0  0.32756961854E+02  0.30675076866E+00 -0.21039991635E+03  0.21293481972E+03  0.00000000000E+00 0.  1.
         -1    1    1    2    0  502 -0.10920509013E+03  0.62202672062E+01 -0.23516712087E+03  0.25936078765E+03  0.00000000000E+00 0. -1.
<mgrwt>
<rscale>  1 0.30000000E+03</rscale>
<asrwt>0</asrwt>
<pdfrwt beam="1">  1       21 0.58488586E-01 0.30000000E+03</pdfrwt>
<pdfrwt beam="2">0</pdfrwt>
<totfact> 0.26589729E+02</totfact>
</mgrwt>
</event>
<event>
 6    1  0.1280499E-001  0.3000000E+03  0.7818608E-02  0.1093470E+00
         21   -1    0    0  501  502  0.00000000000E+00  0.00000000000E+00  0.13987081999E+01  0.13987081999E+01  0.00000000000E+00 0. -1.
         13   -1    0    0    0    0 -0.00000000000E+00 -0.00000000000E+00 -0.10000000000E+04  0.10000000000E+04  0.00000000000E+00 0.  1.
    9000005    2    1    2  501    0  0.31970406461E+02 -0.12855601953E+02 -0.69197261377E+03  0.69283993004E+03  0.37009532863E+01 0.  0.
         13    1    3    3    0    0  0.30471369532E+02 -0.11502859569E+02 -0.66056662394E+03  0.66136909876E+03  0.00000000000E+00 0.  1.
          1    1    3    3  501    0  0.14990369291E+01 -0.13527423848E+01 -0.31405989838E+02  0.31470831278E+02  0.00000000000E+00 0.  1.
         -1    1    1    2    0  502 -0.31970406461E+02  0.12855601953E+02 -0.30662867803E+03  0.30855877816E+03  0.00000000000E+00 0. -1.
<mgrwt>
<rscale>  1 0.30000000E+03</rscale>
<asrwt>0</asrwt>
<pdfrwt beam="1">  1       21 0.50862224E-02 0.30000000E+03</pdfrwt>
<pdfrwt beam="2">0</pdfrwt>
<totfact> 0.27976865E+04</totfact>
</mgrwt>
</event>
<event>
 6    1  0.1280499E-001  0.3000000E+03  0.7818608E-02  0.1093470E+00
         21   -1    0    0  501  502  0.00000000000E+00  0.00000000000E+00  0.61201159483E+01  0.61201159483E+01  0.00000000000E+00 0. -1.
         13   -1    0    0    0    0 -0.00000000000E+00 -0.00000000000E+00 -0.10000000000E+04  0.10000000000E+04  0.00000000000E+00 0.  1.
    9000005    2    1    2  501    0  0.58187722357E+02  0.25665876840E+02 -0.78973170964E+03  0.79229536204E+03  0.33495128719E+01 0.  0.
         13    1    3    3    0    0  0.75160510408E+01  0.24087956447E+01 -0.89228936180E+02  0.89577320632E+02  0.00000000000E+00 0.  1.
          3    1    3    3  501    0  0.50671671316E+02  0.23257081195E+02 -0.70050277346E+03  0.70271804141E+03  0.00000000000E+00 0.  1.
         -3    1    1    2    0  502 -0.58187722357E+02 -0.25665876840E+02 -0.20414817441E+03  0.21382475390E+03  0.00000000000E+00 0. -1.
<mgrwt>
<rscale>  1 0.30000000E+03</rscale>
<asrwt>0</asrwt>
<pdfrwt beam="1">  1       21 0.22255014E-01 0.30000000E+03</pdfrwt>
<pdfrwt beam="2">0</pdfrwt>
<totfact> 0.19547072E+03</totfact>
</mgrwt>
</event>
<event>
 6    1  0.1280499E-001  0.3000000E+03  0.7818608E-02  0.1093470E+00
         21   -1    0    0  501  502  0.00000000000E+00  0.00000000000E+00  0.18917712160E+01  0.18917712160E+01  0.00000000000E+00 0. -1.
         13   -1    0    0    0    0 -0.00000000000E+00 -0.00000000000E+00 -0.10000000000E+04  0.10000000000E+04  0.00000000000E+00 0.  1.
    9000005    2    1    2  501    0  0.31355687511E+01  0.41920707553E+02 -0.62520299522E+03  0.62662454545E+03  0.35154256787E+01 0.  0.
         13    1    3    3    0    0  0.10911375933E+01  0.10201456014E+02 -0.13169850792E+03  0.13209752940E+03  0.00000000000E+00 0.  1.
          1    1    3    3  501    0  0.20444311578E+01  0.31719251539E+02 -0.49350448730E+03  0.49452701605E+03  0.00000000000E+00 0.  1.
         -3    1    1    2    0  502 -0.31355687511E+01 -0.41920707553E+02 -0.37290523356E+03  0.37526722576E+03  0.00000000000E+00 0. -1.
<mgrwt>
<rscale>  1 0.30000000E+03</rscale>
<asrwt>0</asrwt>
<pdfrwt beam="1">  1       21 0.68791826E-02 0.30000000E+03</pdfrwt>
<pdfrwt beam="2">0</pdfrwt>
<totfact> 0.16631317E+04</totfact>
</mgrwt>
</event>
<event>
 6    1  0.1280499E-001  0.3000000E+03  0.7818608E-02  0.1093470E+00
         21   -1    0    0  501  502  0.00000000000E+00  0.00000000000E+00  0.32342890626E+01  0.32342890626E+01  0.00000000000E+00 0. -1.
         13   -1    0    0    0    0 -0.00000000000E+00 -0.00000000000E+00 -0.10000000000E+04  0.10000000000E+04  0.00000000000E+00 0.  1.
    9000005    2    1    2  501    0 -0.42211063573E+02  0.22356651618E+02 -0.77025647549E+03  0.77174340910E+03  0.33552506126E+01 0.  0.
         13    1    3    3    0    0 -0.18645054405E+02  0.10680057092E+02 -0.32215933386E+03  0.32287511218E+03  0.00000000000E+00 0.  1.
          1    1    3    3  501    0 -0.23566009168E+02  0.11676594526E+02 -0.44809714163E+03  0.44886829692E+03  0.00000000000E+00 0.  1.
         -3    1    1    2    0  502  0.42211063573E+02 -0.22356651618E+02 -0.22650923545E+03  0.23149087996E+03  0.00000000000E+00 0. -1.
<mgrwt>
<rscale>  1 0.30000000E+03</rscale>
<asrwt>0</asrwt>
<pdfrwt beam="1">  1       21 0.11761076E-01 0.30000000E+03</pdfrwt>
<pdfrwt beam="2">0</pdfrwt>
<totfact> 0.64272271E+03</totfact>
</mgrwt>
</event>
<event>
 6    1  0.1280499E-001  0.3000000E+03  0.7818608E-02  0.1093470E+00
         21   -1    0    0  501  502  0.00000000000E+00  0.00000000000E+00  0.40543768426E+01  0.40543768426E+01  0.00000000000E+00 0. -1.
         13   -1    0    0    0    0 -0.00000000000E+00 -0.00000000000E+00 -0.10000000000E+04  0.10000000000E+04  0.00000000000E+00 0.  1.
    9000005    2    1    2  501    0  0.37147020051E+02 -0.33110732405E+02 -0.81099680147E+03  0.81252816887E+03  0.31609339701E+01 0.  0.
         13    1    3    3    0    0  0.15106316858E+01 -0.95545142668E+00 -0.38642168598E+02  0.38683486005E+02  0.00000000000E+00 0.  1.
          3    1    3    3  501    0  0.35636388366E+02 -0.32155280978E+02 -0.77235463288E+03  0.77384468286E+03  0.00000000000E+00 0.  1.
         -3    1    1    2    0  502 -0.37147020051E+02  0.33110732405E+02 -0.18494882168E+03  0.19152620798E+03  0.00000000000E+00 0. -1.
<mgrwt>
<rscale>  1 0.30000000E+03</rscale>
<asrwt>0</asrwt>
<pdfrwt beam="1">  1       21 0.14743220E-01 0.30000000E+03</pdfrwt>
<pdfrwt beam="2">0</pdfrwt>
<totfact> 0.42516329E+03</totfact>
</mgrwt>
</event>
<event>
 6    1  0.1280499E-001  0.3000000E+03  0.7818608E-02  0.1093470E+00
         21   -1    0    0  501  502  0.00000000000E+00  0.00000000000E+00  0.28446360419E+01  0.28446360419E+01  0.00000000000E+00 0. -1.
         13   -1    0    0    0    0 -0.00000000000E+00 -0.00000000000E+00 -0.10000000000E+04  0.10000000000E+04  0.00000000000E+00 0.  1.
    9000005    2    1    2  501    0  0.35841070597E+02  0.38988831197E+02 -0.55313294411E+03  0.55567507019E+03  0.37441243591E+01 0.  0.
         13    1    3    3    0    0  0.60451503689E+01  0.48068066641E+01 -0.74900398355E+02  0.75297535863E+02  0.00000000000E+00 0.  1.
          3    1    3    3  501    0  0.29795920228E+02  0.34182024533E+02 -0.47823254576E+03  0.48037753433E+03  0.00000000000E+00 0.  1.
         -3    1    1    2    0  502 -0.35841070597E+02 -0.38988831197E+02 -0.44402241985E+03  0.44716956585E+03  0.00000000000E+00 0. -1.
<mgrwt>
<rscale>  1 0.30000000E+03</rscale>
<asrwt>0</asrwt>
<pdfrwt beam="1">  1       21 0.10344153E-01 0.30000000E+03</pdfrwt>
<pdfrwt beam="2">0</pdfrwt>
<totfact> 0.80979446E+03</totfact>
</mgrwt>
</event>
<event>
 6    1  0.1280499E-001  0.3000000E+03  0.7818608E-02  0.1093470E+00
         21   -1    0    0  501  502  0.00000000000E+00  0.00000000000E+00  0.20469939321E+01  0.20469939321E+01  0.00000000000E+00 0. -1.
         13   -1    0    0    0    0 -0.00000000000E+00 -0.00000000000E+00 -0.10000000000E+04  0.10000000000E+04  0.00000000000E+00 0.  1.
    9000005    2    1    2  501    0  0.40049772841E+01 -0.37627122631E+02 -0.77300458133E+03  0.77393817343E+03  0.35175742364E+01 0.  0.
         13    1    3    3    0    0 -0.39038073029E-01 -0.30781167813E+01 -0.46953763085E+02  0.47054566141E+02  0.00000000000E+00 0.  1.
          3    1    3    3  501    0  0.40440153571E+01 -0.34549005850E+02 -0.72605081825E+03  0.72688360729E+03  0.00000000000E+00 0.  1.
         -1    1    1    2    0  502 -0.40049772841E+01  0.37627122631E+02 -0.22494842473E+03  0.22810882050E+03  0.00000000000E+00 0. -1.
<mgrwt>
<rscale>  1 0.30000000E+03</rscale>
<asrwt>0</asrwt>
<pdfrwt beam="1">  1       21 0.74436300E-02 0.30000000E+03</pdfrwt>
<pdfrwt beam="2">0</pdfrwt>
<totfact> 0.14494635E+04</totfact>
</mgrwt>
</event>
<event>
 6    1  0.1280499E-001  0.3000000E+03  0.7818608E-02  0.1093470E+00
         21   -1    0    0  501  502  0.00000000000E+00  0.00000000000E+00  0.40112397677E+01  0.40112397677E+01  0.00000000000E+00 0. -1.
         13   -1    0    0    0    0 -0.00000000000E+00 -0.00000000000E+00 -0.10000000000E+04  0.10000000000E+04  0.00000000000E+00 0.  1.
    9000005    2    1    2  501    0  0.36491241036E+02 -0.25439173989E+02 -0.85515435297E+03  0.85631867897E+03  0.37350109641E+01 0.  0.
         13    1    3    3    0    0  0.16176940064E+02 -0.91522069400E+01 -0.36759083641E+03  0.36806042886E+03  0.00000000000E+00 0.  1.
          1    1    3    3  501    0  0.20314300972E+02 -0.16286967049E+02 -0.48756351656E+03  0.48825825011E+03  0.00000000000E+00 0.  1.
         -1    1    1    2    0  502 -0.36491241036E+02  0.25439173989E+02 -0.14083440727E+03  0.14769256080E+03  0.00000000000E+00 0. -1.
<mgrwt>
<rscale>  1 0.30000000E+03</rscale>
<asrwt>0</asrwt>
<pdfrwt beam="1">  1       21 0.14586357E-01 0.30000000E+03</pdfrwt>
<pdfrwt beam="2">0</pdfrwt>
<totfact> 0.43364235E+03</totfact>
</mgrwt>
</event>
<event>
 6    1  0.1280499E-001  0.3000000E+03  0.7818608E-02  0.1093470E+00
         21   -1    0    0  501  502  0.00000000000E+00  0.00000000000E+00  0.13223500591E+01  0.13223500591E+01  0.00000000000E+00 0. -1.
         13   -1    0    0    0    0 -0.00000000000E+00 -0.00000000000E+00 -0.10000000000E+04  0.10000000000E+04  0.00000000000E+00 0.  1.
    9000005    2    1    2  501    0 -0.30582260376E+02  0.19011181595E+02 -0.43867656486E+03  0.44016469399E+03  0.33361056533E+01 0.  0.
         13    1    3    3    0    0 -0.42171152814E+01  0.13677457566E+01 -0.56597445284E+02  0.56770816468E+02  0.00000000000E+00 0.  1.
          3    1    3    3  501    0 -0.26365145095E+02  0.17643435838E+02 -0.38207911958E+03  0.38339387753E+03  0.00000000000E+00 0.  1.
         -3    1    1    2    0  502  0.30582260376E+02 -0.19011181595E+02 -0.56000108508E+03  0.56115765607E+03  0.00000000000E+00 0. -1.
<mgrwt>
<rscale>  1 0.30000000E+03</rscale>
<asrwt>0</asrwt>
<pdfrwt beam="1">  1       21 0.48085558E-02 0.30000000E+03</pdfrwt>
<pdfrwt beam="2">0</pdfrwt>
<totfact> 0.30785107E+04</totfact>
</mgrwt>
</event>
<event>
 6    1  0.1280499E-001  0.3000000E+03  0.7818608E-02  0.1093470E+00
         21   -1    0    0  501  502  0.00000000000E+00  0.00000000000E+00  0.13680897861E+01  0.13680897861E+01  0.00000000000E+00 0. -1.
         13   -1    0    0    0    0 -0.00000000000E+00 -0.00000000000E+00 -0.10000000000E+04  0.10000000000E+04  0.00000000000E+00 0.  1.
    9000005    2    1    2  501    0  0.57492986186E+01 -0.33035556671E+02 -0.70877314511E+03  0.70957620137E+03  0.38225487948E+01 0.  0.
         13    1    3    3    0    0  0.46560437534E-01 -0.75923415626E+01 -0.18151053626E+03  0.18166926155E+03  0.00000000000E+00 0.  1.
          3    1    3    3  501    0  0.57027381811E+01 -0.25443215109E+02 -0.52726260885E+03  0.52790693982E+03  0.00000000000E+00 0.  1.
         -1    1    1    2    0  502 -0.57492986186E+01  0.33035556671E+02 -0.28985876510E+03  0.29179188841E+03  0.00000000000E+00 0. -1.
<mgrwt>
<rscale>  1 0.30000000E+03</rscale>
<asrwt>0</asrwt>
<pdfrwt beam="1">  1       21 0.49748824E-02 0.30000000E+03</pdfrwt>
<pdfrwt beam="2">0</pdfrwt>
<totfact> 0.29052985E+04</totfact>
</mgrwt>
</event>
<event>
 6    1  0.1280499E-001  0.3000000E+03  0.7818608E-02  0.1093470E+00
         21   -1    0    0  501  502  0.00000000000E+00  0.00000000000E+00  0.35239535207E+01  0.35239535207E+01  0.00000000000E+00 0. -1.
         13   -1    0    0    0    0 -0.00000000000E+00 -0.00000000000E+00 -0.10000000000E+04  0.10000000000E+04  0.00000000000E+00 0.  1.
    9000005    2    1    2  501    0 -0.20452896051E+02  0.35330800305E+02 -0.86235506709E+03  0.86332757868E+03  0.34146684569E+01 0.  0.
         13    1    3    3    0    0 -0.18212266070E+02  0.32519322005E+02 -0.76765730432E+03  0.76856159794E+03  0.00000000000E+00 0.  1.
          1    1    3    3  501    0 -0.22406299804E+01  0.28114783001E+01 -0.94697762766E+02  0.94765980742E+02  0.00000000000E+00 0.  1.
         -1    1    1    2    0  502  0.20452896051E+02 -0.35330800305E+02 -0.13412097939E+03  0.14019637484E+03  0.00000000000E+00 0. -1.
<mgrwt>
<rscale>  1 0.30000000E+03</rscale>
<asrwt>0</asrwt>
<pdfrwt beam="1">  1       21 0.12814403E-01 0.30000000E+03</pdfrwt>
<pdfrwt beam="2">0</pdfrwt>
<totfact> 0.54989718E+03</totfact>
</mgrwt>
</event>
<event>
 6    1  0.1280499E-001  0.3000000E+03  0.7818608E-02  0.1093470E+00
         21   -1    0    0  501  502  0.00000000000E+00  0.00000000000E+00  0.95456971532E+00  0.95456971532E+00  0.00000000000E+00 0. -1.
         13   -1    0    0    0    0 -0.00000000000E+00 -0.00000000000E+00 -0.10000000000E+04  0.10000000000E+04  0.00000000000E+00 0.  1.
    9000005    2    1    2  501    0  0.26628510056E+02 -0.15489800536E+02 -0.50106904269E+03  0.50202622409E+03  0.33365643114E+01 0.  0.
         13    1    3    3    0    0  0.78168295918E+01 -0.28933370357E+01 -0.14098687285E+03  0.14123304337E+03  0.00000000000E+00 0.  1.
          1    1    3    3  501    0  0.18811680464E+02 -0.12596463501E+02 -0.36008216984E+03  0.36079318072E+03  0.00000000000E+00 0.  1.
         -3    1    1    2    0  502 -0.26628510056E+02  0.15489800536E+02 -0.49797638759E+03  0.49892834563E+03  0.00000000000E+00 0. -1.
<mgrwt>
<rscale>  1 0.30000000E+03</rscale>
<asrwt>0</asrwt>
<pdfrwt beam="1">  1       21 0.34711699E-02 0.30000000E+03</pdfrwt>
<pdfrwt beam="2">0</pdfrwt>
<totfact> 0.53350399E+04</totfact>
</mgrwt>
</event>
<event>
 6    1  0.1280499E-001  0.3000000E+03  0.7818608E-02  0.1093470E+00
         21   -1    0    0  501  502  0.00000000000E+00  0.00000000000E+00  0.17677618237E+02  0.17677618237E+02  0.00000000000E+00 0. -1.
         13   -1    0    0    0    0 -0.00000000000E+00 -0.00000000000E+00 -0.10000000000E+04  0.10000000000E+04  0.00000000000E+00 0.  1.
    9000005    2    1    2  501    0 -0.10532554313E+03 -0.32339001004E+01 -0.80138754634E+03  0.80829437437E+03  0.37239829034E+01 0.  0.
         13    1    3    3    0    0 -0.38149887441E+02  0.47962197002E+00 -0.29532875203E+03  0.29778300107E+03  0.00000000000E+00 0.  1.
          1    1    3    3  501    0 -0.67175655691E+02 -0.37135220704E+01 -0.50605879431E+03  0.51051137330E+03  0.00000000000E+00 0.  1.
         -3    1    1    2    0  502  0.10532554313E+03  0.32339001004E+01 -0.18093483542E+03  0.20938324387E+03  0.00000000000E+00 0. -1.
<mgrwt>
<rscale>  1 0.30000000E+03</rscale>
<asrwt>0</asrwt>
<pdfrwt beam="1">  1       21 0.64282384E-01 0.30000000E+03</pdfrwt>
<pdfrwt beam="2">0</pdfrwt>
<totfact> 0.21480611E+02</totfact>
</mgrwt>
</event>
<event>
 6    1  0.1280499E-001  0.3000000E+03  0.7818608E-02  0.1093470E+00
         21   -1    0    0  501  502  0.00000000000E+00  0.00000000000E+00  0.15893467583E+01  0.15893467583E+01  0.00000000000E+00 0. -1.
         13   -1    0    0    0    0 -0.00000000000E+00 -0.00000000000E+00 -0.10000000000E+04  0.10000000000E+04  0.00000000000E+00 0.  1.
    9000005    2    1    2  501    0  0.13800615701E+00  0.33151466452E+02 -0.77669591402E+03  0.77740981076E+03  0.32298966692E+01 0.  0.
         13    1    3    3    0    0  0.83535210773E+00  0.11781260437E+02 -0.30823757427E+03  0.30846377114E+03  0.00000000000E+00 0.  1.
          3    1    3    3  501    0 -0.69734595072E+00  0.21370206015E+02 -0.46845833975E+03  0.46894603962E+03  0.00000000000E+00 0.  1.
         -1    1    1    2    0  502 -0.13800615701E+00 -0.33151466452E+02 -0.22171473922E+03  0.22417953600E+03  0.00000000000E+00 0. -1.
<mgrwt>
<rscale>  1 0.30000000E+03</rscale>
<asrwt>0</asrwt>
<pdfrwt beam="1">  1       21 0.57794549E-02 0.30000000E+03</pdfrwt>
<pdfrwt beam="2">0</pdfrwt>
<totfact> 0.22476488E+04</totfact>
</mgrwt>
</event>
<event>
 6    1  0.1280499E-001  0.3000000E+03  0.7818608E-02  0.1093470E+00
         21   -1    0    0  501  502  0.00000000000E+00  0.00000000000E+00  0.11864836833E+01  0.11864836833E+01  0.00000000000E+00 0. -1.
         13   -1    0    0    0    0 -0.00000000000E+00 -0.00000000000E+00 -0.10000000000E+04  0.10000000000E+04  0.00000000000E+00 0.  1.
    9000005    2    1    2  501    0  0.21609700619E+02  0.26605577437E+02 -0.47323920541E+03  0.47449568995E+03  0.39972913902E+01 0.  0.
         13    1    3    3    0    0  0.61175713902E+01  0.10509288058E+02 -0.17156585622E+03  0.17199625820E+03  0.00000000000E+00 0.  1.
          3    1    3    3  501    0  0.15492129228E+02  0.16096289379E+02 -0.30167334919E+03  0.30249943175E+03  0.00000000000E+00 0.  1.
         -3    1    1    2    0  502 -0.21609700619E+02 -0.26605577437E+02 -0.52557431091E+03  0.52669079373E+03  0.00000000000E+00 0. -1.
<mgrwt>
<rscale>  1 0.30000000E+03</rscale>
<asrwt>0</asrwt>
<pdfrwt beam="1">  1       21 0.43144952E-02 0.30000000E+03</pdfrwt>
<pdfrwt beam="2">0</pdfrwt>
<totfact> 0.37005504E+04</totfact>
</mgrwt>
</event>
<event>
 6    1  0.1280499E-001  0.3000000E+03  0.7818608E-02  0.1093470E+00
         21   -1    0    0  501  502  0.00000000000E+00  0.00000000000E+00  0.22470941254E+01  0.22470941254E+01  0.00000000000E+00 0. -1.
         13   -1    0    0    0    0 -0.00000000000E+00 -0.00000000000E+00 -0.10000000000E+04  0.10000000000E+04  0.00000000000E+00 0.  1.
    9000005    2    1    2  501    0  0.14983437504E+02 -0.44502963388E+02 -0.56307366926E+03  0.56503884181E+03  0.34523309562E+01 0.  0.
         13    1    3    3    0    0  0.50941646092E+01 -0.12165791975E+02 -0.17316777084E+03  0.17366932332E+03  0.00000000000E+00 0.  1.
          3    1    3    3  501    0  0.98892728950E+01 -0.32337171414E+02 -0.38990589842E+03  0.39136951848E+03  0.00000000000E+00 0.  1.
         -1    1    1    2    0  502 -0.14983437504E+02  0.44502963388E+02 -0.43467923662E+03  0.43720825232E+03  0.00000000000E+00 0. -1.
<mgrwt>
<rscale>  1 0.30000000E+03</rscale>
<asrwt>0</asrwt>
<pdfrwt beam="1">  1       21 0.81712686E-02 0.30000000E+03</pdfrwt>
<pdfrwt beam="2">0</pdfrwt>
<totfact> 0.12307047E+04</totfact>
</mgrwt>
</event>
<event>
 6    1  0.1280499E-001  0.3000000E+03  0.7818608E-02  0.1093470E+00
         21   -1    0    0  501  502  0.00000000000E+00  0.00000000000E+00  0.17482351991E+01  0.17482351991E+01  0.00000000000E+00 0. -1.
         13   -1    0    0    0    0 -0.00000000000E+00 -0.00000000000E+00 -0.10000000000E+04  0.10000000000E+04  0.00000000000E+00 0.  1.
    9000005    2    1    2  501    0  0.13263131236E+02  0.28513305142E+02 -0.82857377231E+03  0.82918074013E+03  0.41574528713E+01 0.  0.
         13    1    3    3    0    0  0.20613464042E+01  0.88129856896E+01 -0.24470144184E+03  0.24486876792E+03  0.00000000000E+00 0.  1.
          3    1    3    3  501    0  0.11201784832E+02  0.19700319453E+02 -0.58387233047E+03  0.58431197220E+03  0.00000000000E+00 0.  1.
         -1    1    1    2    0  502 -0.13263131236E+02 -0.28513305142E+02 -0.16967799249E+03  0.17256749507E+03  0.00000000000E+00 0. -1.
<mgrwt>
<rscale>  1 0.30000000E+03</rscale>
<asrwt>0</asrwt>
<pdfrwt beam="1">  1       21 0.63572323E-02 0.30000000E+03</pdfrwt>
<pdfrwt beam="2">0</pdfrwt>
<totfact> 0.19068932E+04</totfact>
</mgrwt>
</event>
<event>
 6    1  0.1280499E-001  0.3000000E+03  0.7818608E-02  0.1093470E+00
         21   -1    0    0  501  502  0.00000000000E+00  0.00000000000E+00  0.15438733045E+01  0.15438733045E+01  0.00000000000E+00 0. -1.
         13   -1    0    0    0    0 -0.00000000000E+00 -0.00000000000E+00 -0.10000000000E+04  0.10000000000E+04  0.00000000000E+00 0.  1.
    9000005    2    1    2  501    0 -0.19116476990E+02  0.32519544143E+02 -0.36317201074E+03  0.36514080258E+03  0.33069440875E+01 0.  0.
         13    1    3    3    0    0 -0.52270941443E+01  0.88740155770E+01 -0.11400374978E+03  0.11446801138E+03  0.00000000000E+00 0.  1.
          3    1    3    3  501    0 -0.13889382846E+02  0.23645528566E+02 -0.24916826095E+03  0.25067279119E+03  0.00000000000E+00 0.  1.
         -3    1    1    2    0  502  0.19116476990E+02 -0.32519544143E+02 -0.63528411596E+03  0.63640307073E+03  0.00000000000E+00 0. -1.
<mgrwt>
<rscale>  1 0.30000000E+03</rscale>
<asrwt>0</asrwt>
<pdfrwt beam="1">  1       21 0.56140966E-02 0.30000000E+03</pdfrwt>
<pdfrwt beam="2">0</pdfrwt>
<totfact> 0.23626838E+04</totfact>
</mgrwt>
</event>
<event>
 6    1  0.1280499E-001  0.3000000E+03  0.7818608E-02  0.1093470E+00
         21   -1    0    0  501  502  0.00000000000E+00  0.00000000000E+00  0.44898814479E+01  0.44898814479E+01  0.00000000000E+00 0. -1.
         13   -1    0    0    0    0 -0.00000000000E+00 -0.00000000000E+00 -0.10000000000E+04  0.10000000000E+04  0.00000000000E+00 0.  1.
    9000005    2    1    2  501    0  0.51897838799E+01  0.37768979243E+02 -0.91069436849E+03  0.91149987603E+03  0.37896631040E+01 0.  0.
         13    1    3    3    0    0  0.46500434356E+01  0.35067540148E+02 -0.81789725847E+03  0.81866188423E+03  0.00000000000E+00 0.  1.
          1    1    3    3  501    0  0.53974044433E+00  0.27014390950E+01 -0.92797110015E+02  0.92837991793E+02  0.00000000000E+00 0.  1.
         -3    1    1    2    0  502 -0.51897838799E+01 -0.37768979243E+02 -0.84815750062E+02  0.92990005422E+02  0.00000000000E+00 0. -1.
<mgrwt>
<rscale>  1 0.30000000E+03</rscale>
<asrwt>0</asrwt>
<pdfrwt beam="1">  1       21 0.16326876E-01 0.30000000E+03</pdfrwt>
<pdfrwt beam="2">0</pdfrwt>
<totfact> 0.35174397E+03</totfact>
</mgrwt>
</event>
<event>
 6    1  0.1280499E-001  0.3000000E+03  0.7818608E-02  0.1093470E+00
         21   -1    0    0  501  502  0.00000000000E+00  0.00000000000E+00  0.29207132197E+01  0.29207132197E+01  0.00000000000E+00 0. -1.
         13   -1    0    0    0    0 -0.00000000000E+00 -0.00000000000E+00 -0.10000000000E+04  0.10000000000E+04  0.00000000000E+00 0.  1.
    9000005    2    1    2  501    0 -0.35175019059E+02  0.80512818473E+01 -0.87170734730E+03  0.87245911613E+03  0.30174298059E+01 0.  0.
         13    1    3    3    0    0 -0.28219072373E+02  0.61296979045E+01 -0.72381200276E+03  0.72438781366E+03  0.00000000000E+00 0.  1.
          3    1    3    3  501    0 -0.69559466862E+01  0.19215839428E+01 -0.14789534454E+03  0.14807130247E+03  0.00000000000E+00 0.  1.
         -1    1    1    2    0  502  0.35175019059E+02 -0.80512818473E+01 -0.12537193948E+03  0.13046159709E+03  0.00000000000E+00 0. -1.
<mgrwt>
<rscale>  1 0.30000000E+03</rscale>
<asrwt>0</asrwt>
<pdfrwt beam="1">  1       21 0.10620798E-01 0.30000000E+03</pdfrwt>
<pdfrwt beam="2">0</pdfrwt>
<totfact> 0.77237909E+03</totfact>
</mgrwt>
</event>
<event>
 6    1  0.1280499E-001  0.3000000E+03  0.7818608E-02  0.1093470E+00
         21   -1    0    0  501  502  0.00000000000E+00  0.00000000000E+00  0.98504185326E+00  0.98504185326E+00  0.00000000000E+00 0. -1.
         13   -1    0    0    0    0 -0.00000000000E+00 -0.00000000000E+00 -0.10000000000E+04  0.10000000000E+04  0.00000000000E+00 0.  1.
    9000005    2    1    2  501    0  0.30830427639E+02 -0.45069239893E+01 -0.45222934519E+03  0.45331238947E+03  0.31486764828E+01 0.  0.
         13    1    3    3    0    0  0.46985840806E+01  0.42997545775E+00 -0.65445193667E+02  0.65615051211E+02  0.00000000000E+00 0.  1.
          1    1    3    3  501    0  0.26131843559E+02 -0.49368994471E+01 -0.38678415153E+03  0.38769733826E+03  0.00000000000E+00 0.  1.
         -3    1    1    2    0  502 -0.30830427639E+02  0.45069239893E+01 -0.54678561295E+03  0.54767265238E+03  0.00000000000E+00 0. -1.
<mgrwt>
<rscale>  1 0.30000000E+03</rscale>
<asrwt>0</asrwt>
<pdfrwt beam="1">  1       21 0.35819779E-02 0.30000000E+03</pdfrwt>
<pdfrwt beam="2">0</pdfrwt>
<totfact> 0.50614470E+04</totfact>
</mgrwt>
</event>
<event>
 6    1  0.1280499E-001  0.3000000E+03  0.7818608E-02  0.1093470E+00
         21   -1    0    0  501  502  0.00000000000E+00  0.00000000000E+00  0.34204242112E+02  0.34204242112E+02  0.00000000000E+00 0. -1.
         13   -1    0    0    0    0 -0.00000000000E+00 -0.00000000000E+00 -0.10000000000E+04  0.10000000000E+04  0.00000000000E+00 0.  1.
    9000005    2    1    2  501    0  0.31952987391E+01 -0.46770423208E+02 -0.98310893611E+03  0.98422996311E+03  0.27852466866E+01 0.  0.
         13    1    3    3    0    0  0.17467453151E+01 -0.92378673889E+01 -0.19741644484E+03  0.19764018318E+03  0.00000000000E+00 0.  1.
          3    1    3    3  501    0  0.14485534241E+01 -0.37532555819E+02 -0.78569249128E+03  0.78658977994E+03  0.00000000000E+00 0.  1.
         -1    1    1    2    0  502 -0.31952987391E+01  0.46770423208E+02  0.17313178227E+02  0.49974278999E+02  0.00000000000E+00 0. -1.
<mgrwt>
<rscale>  1 0.30000000E+03</rscale>
<asrwt>0</asrwt>
<pdfrwt beam="1">  1       21 0.12437932E+00 0.30000000E+03</pdfrwt>
<pdfrwt beam="2">0</pdfrwt>
<totfact> 0.41116962E+01</totfact>
</mgrwt>
</event>
<event>
 6    1  0.1280499E-001  0.3000000E+03  0.7818608E-02  0.1093470E+00
         21   -1    0    0  501  502  0.00000000000E+00  0.00000000000E+00  0.55198847792E+01  0.55198847792E+01  0.00000000000E+00 0. -1.
         13   -1    0    0    0    0 -0.00000000000E+00 -0.00000000000E+00 -0.10000000000E+04  0.10000000000E+04  0.00000000000E+00 0.  1.
    9000005    2    1    2  501    0 -0.30157648255E+02  0.32632187377E+02 -0.90011138286E+03  0.90121359998E+03  0.33328416252E+01 0.  0.
         13    1    3    3    0    0 -0.22391952825E+02  0.22427663981E+02 -0.62257059655E+03  0.62337672987E+03  0.00000000000E+00 0.  1.
          1    1    3    3  501    0 -0.77656954309E+01  0.10204523396E+02 -0.27754078631E+03  0.27783687010E+03  0.00000000000E+00 0.  1.
         -3    1    1    2    0  502  0.30157648255E+02 -0.32632187377E+02 -0.94368732365E+02  0.10430628480E+03  0.00000000000E+00 0. -1.
<mgrwt>
<rscale>  1 0.30000000E+03</rscale>
<asrwt>0</asrwt>
<pdfrwt beam="1">  1       21 0.20072351E-01 0.30000000E+03</pdfrwt>
<pdfrwt beam="2">0</pdfrwt>
<totfact> 0.23827361E+03</totfact>
</mgrwt>
</event>
<event>
 6    1  0.1280499E-001  0.3000000E+03  0.7818608E-02  0.1093470E+00
         21   -1    0    0  501  502  0.00000000000E+00  0.00000000000E+00  0.23130405866E+01  0.23130405866E+01  0.00000000000E+00 0. -1.
         13   -1    0    0    0    0 -0.00000000000E+00 -0.00000000000E+00 -0.10000000000E+04  0.10000000000E+04  0.00000000000E+00 0.  1.
    9000005    2    1    2  501    0  0.41404032352E+02  0.23439471710E+02 -0.56913956596E+03  0.57113260137E+03  0.29832993803E+01 0.  0.
         13    1    3    3    0    0  0.37483506968E+02  0.21017383559E+02 -0.50276176108E+03  0.50459501792E+03  0.00000000000E+00 0.  1.
          3    1    3    3  501    0  0.39205253842E+01  0.24220881506E+01 -0.66377804885E+02  0.66537583452E+02  0.00000000000E+00 0.  1.
         -1    1    1    2    0  502 -0.41404032352E+02 -0.23439471710E+02 -0.42854739345E+03  0.43118043921E+03  0.00000000000E+00 0. -1.
<mgrwt>
<rscale>  1 0.30000000E+03</rscale>
<asrwt>0</asrwt>
<pdfrwt beam="1">  1       21 0.84110744E-02 0.30000000E+03</pdfrwt>
<pdfrwt beam="2">0</pdfrwt>
<totfact> 0.11696089E+04</totfact>
</mgrwt>
</event>
<event>
 6    1  0.1280499E-001  0.3000000E+03  0.7818608E-02  0.1093470E+00
         21   -1    0    0  501  502  0.00000000000E+00  0.00000000000E+00  0.15445418579E+01  0.15445418579E+01  0.00000000000E+00 0. -1.
         13   -1    0    0    0    0 -0.00000000000E+00 -0.00000000000E+00 -0.10000000000E+04  0.10000000000E+04  0.00000000000E+00 0.  1.
    9000005    2    1    2  501    0 -0.33138180939E+02  0.18007890842E+02 -0.36148353221E+03  0.36345704191E+03  0.28729921543E+01 0.  0.
         13    1    3    3    0    0 -0.48080863700E+01  0.36708856424E+01 -0.53274933913E+02  0.53617270346E+02  0.00000000000E+00 0.  1.
          3    1    3    3  501    0 -0.28330094569E+02  0.14337005200E+02 -0.30820859830E+03  0.30983977156E+03  0.00000000000E+00 0.  1.
         -3    1    1    2    0  502  0.33138180939E+02 -0.18007890842E+02 -0.63697192593E+03  0.63808749995E+03  0.00000000000E+00 0. -1.
<mgrwt>
<rscale>  1 0.30000000E+03</rscale>
<asrwt>0</asrwt>
<pdfrwt beam="1">  1       21 0.56165277E-02 0.30000000E+03</pdfrwt>
<pdfrwt beam="2">0</pdfrwt>
<totfact> 0.23609277E+04</totfact>
</mgrwt>
</event>
<event>
 6    1  0.1280499E-001  0.3000000E+03  0.7818608E-02  0.1093470E+00
         21   -1    0    0  501  502  0.00000000000E+00  0.00000000000E+00  0.15853329611E+01  0.15853329611E+01  0.00000000000E+00 0. -1.
         13   -1    0    0    0    0 -0.00000000000E+00 -0.00000000000E+00 -0.10000000000E+04  0.10000000000E+04  0.00000000000E+00 0.  1.
    9000005    2    1    2  501    0  0.30328423025E+02 -0.24928282635E+02 -0.57654160201E+03  0.57788955116E+03  0.38577162413E+01 0.  0.
         13    1    3    3    0    0  0.22577031790E+02 -0.16957588650E+02 -0.39518772559E+03  0.39619517997E+03  0.00000000000E+00 0.  1.
          1    1    3    3  501    0  0.77513912355E+01 -0.79706939846E+01 -0.18135387642E+03  0.18169437119E+03  0.00000000000E+00 0.  1.
         -3    1    1    2    0  502 -0.30328423025E+02  0.24928282635E+02 -0.42187306503E+03  0.42369578180E+03  0.00000000000E+00 0. -1.
<mgrwt>
<rscale>  1 0.30000000E+03</rscale>
<asrwt>0</asrwt>
<pdfrwt beam="1">  1       21 0.57648593E-02 0.30000000E+03</pdfrwt>
<pdfrwt beam="2">0</pdfrwt>
<totfact> 0.22574537E+04</totfact>
</mgrwt>
</event>
<event>
 6    1  0.1280499E-001  0.3000000E+03  0.7818608E-02  0.1093470E+00
         21   -1    0    0  501  502  0.00000000000E+00  0.00000000000E+00  0.14695367375E+01  0.14695367375E+01  0.00000000000E+00 0. -1.
         13   -1    0    0    0    0 -0.00000000000E+00 -0.00000000000E+00 -0.10000000000E+04  0.10000000000E+04  0.00000000000E+00 0.  1.
    9000005    2    1    2  501    0 -0.20152166983E+02  0.23401179667E+02 -0.20540393287E+03  0.20774199013E+03  0.34976817243E+01 0.  0.
         13    1    3    3    0    0 -0.14721851513E+02  0.17122769891E+02 -0.15997307858E+03  0.16155899242E+03  0.00000000000E+00 0.  1.
          3    1    3    3  501    0 -0.54303154695E+01  0.62784097761E+01 -0.45430854295E+02  0.46182997709E+02  0.00000000000E+00 0.  1.
         -3    1    1    2    0  502  0.20152166983E+02 -0.23401179667E+02 -0.79312653039E+03  0.79372754661E+03  0.00000000000E+00 0. -1.
<mgrwt>
<rscale>  1 0.30000000E+03</rscale>
<asrwt>0</asrwt>
<pdfrwt beam="1">  1       21 0.53437812E-02 0.30000000E+03</pdfrwt>
<pdfrwt beam="2">0</pdfrwt>
<totfact> 0.25712429E+04</totfact>
</mgrwt>
</event>
<event>
 6    1  0.1280499E-001  0.3000000E+03  0.7818608E-02  0.1093470E+00
         21   -1    0    0  501  502  0.00000000000E+00  0.00000000000E+00  0.42859011706E+01  0.42859011706E+01  0.00000000000E+00 0. -1.
         13   -1    0    0    0    0 -0.00000000000E+00 -0.00000000000E+00 -0.10000000000E+04  0.10000000000E+04  0.00000000000E+00 0.  1.
    9000005    2    1    2  501    0 -0.55959688414E+02  0.32723122343E+02 -0.43025181531E+03  0.43511994686E+03  0.32332823258E+01 0.  0.
         13    1    3    3    0    0 -0.13373488681E+02  0.83835839969E+01 -0.96268740692E+02  0.97554113775E+02  0.00000000000E+00 0.  1.
          3    1    3    3  501    0 -0.42586199734E+02  0.24339538346E+02 -0.33398307462E+03  0.33756583308E+03  0.00000000000E+00 0.  1.
         -1    1    1    2    0  502  0.55959688414E+02 -0.32723122343E+02 -0.56546228352E+03  0.56916595431E+03  0.00000000000E+00 0. -1.
<mgrwt>
<rscale>  1 0.30000000E+03</rscale>
<asrwt>0</asrwt>
<pdfrwt beam="1">  1       21 0.15585128E-01 0.30000000E+03</pdfrwt>
<pdfrwt beam="2">0</pdfrwt>
<totfact> 0.38358026E+03</totfact>
</mgrwt>
</event>
<event>
 6    1  0.1280499E-001  0.3000000E+03  0.7818608E-02  0.1093470E+00
         21   -1    0    0  501  502  0.00000000000E+00  0.00000000000E+00  0.18891649731E+01  0.18891649731E+01  0.00000000000E+00 0. -1.
         13   -1    0    0    0    0 -0.00000000000E+00 -0.00000000000E+00 -0.10000000000E+04  0.10000000000E+04  0.00000000000E+00 0.  1.
    9000005    2    1    2  501    0 -0.33829368676E+02  0.25965256994E+02 -0.40710755249E+03  0.40934929228E+03  0.34151199334E+01 0.  0.
         13    1    3    3    0    0 -0.11774331870E+02  0.89820418204E+01 -0.15732645431E+03  0.15802191365E+03  0.00000000000E+00 0.  1.
          3    1    3    3  501    0 -0.22055036807E+02  0.16983215173E+02 -0.24978109818E+03  0.25132737864E+03  0.00000000000E+00 0.  1.
         -1    1    1    2    0  502  0.33829368676E+02 -0.25965256994E+02 -0.59100328254E+03  0.59253987269E+03  0.00000000000E+00 0. -1.
<mgrwt>
<rscale>  1 0.30000000E+03</rscale>
<asrwt>0</asrwt>
<pdfrwt beam="1">  1       21 0.68697053E-02 0.30000000E+03</pdfrwt>
<pdfrwt beam="2">0</pdfrwt>
<totfact> 0.16671212E+04</totfact>
</mgrwt>
</event>
<event>
 6    1  0.1280499E-001  0.3000000E+03  0.7818608E-02  0.1093470E+00
         21   -1    0    0  501  502  0.00000000000E+00  0.00000000000E+00  0.24246028740E+01  0.24246028740E+01  0.00000000000E+00 0. -1.
         13   -1    0    0    0    0 -0.00000000000E+00 -0.00000000000E+00 -0.10000000000E+04  0.10000000000E+04  0.00000000000E+00 0.  1.
    9000005    2    1    2  501    0  0.35727978534E+02  0.10880180876E+02 -0.82513176369E+03  0.82598290288E+03  0.32344404394E+01 0.  0.
         13    1    3    3    0    0  0.20580515931E+02  0.49047726112E+01 -0.48670631118E+03  0.48716593453E+03  0.00000000000E+00 0.  1.
          1    1    3    3  501    0  0.15147462603E+02  0.59754082646E+01 -0.33842545252E+03  0.33881696834E+03  0.00000000000E+00 0.  1.
         -3    1    1    2    0  502 -0.35727978534E+02 -0.10880180876E+02 -0.17244363343E+03  0.17644170000E+03  0.00000000000E+00 0. -1.
<mgrwt>
<rscale>  1 0.30000000E+03</rscale>
<asrwt>0</asrwt>
<pdfrwt beam="1">  1       21 0.88167563E-02 0.30000000E+03</pdfrwt>
<pdfrwt beam="2">0</pdfrwt>
<totfact> 0.10762926E+04</totfact>
</mgrwt>
</event>
<event>
 6    1  0.1280499E-001  0.3000000E+03  0.7818608E-02  0.1093470E+00
         21   -1    0    0  501  502  0.00000000000E+00  0.00000000000E+00  0.23065894475E+01  0.23065894475E+01  0.00000000000E+00 0. -1.
         13   -1    0    0    0    0 -0.00000000000E+00 -0.00000000000E+00 -0.10000000000E+04  0.10000000000E+04  0.00000000000E+00 0.  1.
    9000005    2    1    2  501    0 -0.32782452746E+02 -0.34782640222E+02 -0.54192480195E+03  0.54403860469E+03  0.33152907166E+01 0.  0.
         13    1    3    3    0    0 -0.28976118912E+02 -0.29144760691E+02 -0.46077124089E+03  0.46260044203E+03  0.00000000000E+00 0.  1.
          1    1    3    3  501    0 -0.38063338339E+01 -0.56378795312E+01 -0.81153561067E+02  0.81438162656E+02  0.00000000000E+00 0.  1.
         -1    1    1    2    0  502  0.32782452746E+02  0.34782640222E+02 -0.45576860860E+03  0.45826798476E+03  0.00000000000E+00 0. -1.
<mgrwt>
<rscale>  1 0.30000000E+03</rscale>
<asrwt>0</asrwt>
<pdfrwt beam="1">  1       21 0.83876157E-02 0.30000000E+03</pdfrwt>
<pdfrwt beam="2">0</pdfrwt>
<totfact> 0.11753785E+04</totfact>
</mgrwt>
</event>
<event>
 6    1  0.1280499E-001  0.3000000E+03  0.7818608E-02  0.1093470E+00
         21   -1    0    0  501  502  0.00000000000E+00  0.00000000000E+00  0.11599258531E+01  0.11599258531E+01  0.00000000000E+00 0. -1.
         13   -1    0    0    0    0 -0.00000000000E+00 -0.00000000000E+00 -0.10000000000E+04  0.10000000000E+04  0.00000000000E+00 0.  1.
    9000005    2    1    2  501    0  0.14383834373E+02  0.30439826862E+02 -0.50312135251E+03  0.50429925249E+03  0.72912936336E+01 0.  0.
         13    1    3    3    0    0  0.38773835956E+01  0.35979913234E+01 -0.10690250208E+03  0.10703328732E+03  0.00000000000E+00 0.  1.
          1    1    3    3  501    0  0.10506450777E+02  0.26841835539E+02 -0.39621885043E+03  0.39726596517E+03  0.00000000000E+00 0.  1.
         -1    1    1    2    0  502 -0.14383834373E+02 -0.30439826862E+02 -0.49571872164E+03  0.49686067336E+03  0.00000000000E+00 0. -1.
<mgrwt>
<rscale>  1 0.30000000E+03</rscale>
<asrwt>0</asrwt>
<pdfrwt beam="1">  1       21 0.42179211E-02 0.30000000E+03</pdfrwt>
<pdfrwt beam="2">0</pdfrwt>
<totfact> 0.38448979E+04</totfact>
</mgrwt>
</event>
<event>
 6    1  0.1280499E-001  0.3000000E+03  0.7818608E-02  0.1093470E+00
         21   -1    0    0  501  502  0.00000000000E+00  0.00000000000E+00  0.23648380590E+01  0.23648380590E+01  0.00000000000E+00 0. -1.
         13   -1    0    0    0    0 -0.00000000000E+00 -0.00000000000E+00 -0.10000000000E+04  0.10000000000E+04  0.00000000000E+00 0.  1.
    9000005    2    1    2  501    0  0.42473324242E+02 -0.15080168547E+02 -0.68625485525E+03  0.68773952097E+03  0.29202055292E+01 0.  0.
         13    1    3    3    0    0  0.26388196844E+02 -0.10745927459E+02 -0.42463542120E+03  0.42559024052E+03  0.00000000000E+00 0.  1.
          1    1    3    3  501    0  0.16085127398E+02 -0.43342410881E+01 -0.26161943405E+03  0.26214928046E+03  0.00000000000E+00 0.  1.
         -1    1    1    2    0  502 -0.42473324242E+02  0.15080168547E+02 -0.31138030669E+03  0.31462531709E+03  0.00000000000E+00 0. -1.
<mgrwt>
<rscale>  1 0.30000000E+03</rscale>
<asrwt>0</asrwt>
<pdfrwt beam="1">  1       21 0.85994293E-02 0.30000000E+03</pdfrwt>
<pdfrwt beam="2">0</pdfrwt>
<totfact> 0.11248108E+04</totfact>
</mgrwt>
</event>
<event>
 6    1  0.1280499E-001  0.3000000E+03  0.7818608E-02  0.1093470E+00
         21   -1    0    0  501  502  0.00000000000E+00  0.00000000000E+00  0.17371064333E+01  0.17371064333E+01  0.00000000000E+00 0. -1.
         13   -1    0    0    0    0 -0.00000000000E+00 -0.00000000000E+00 -0.10000000000E+04  0.10000000000E+04  0.00000000000E+00 0.  1.
    9000005    2    1    2  501    0  0.34643596013E+02  0.79553798447E+01 -0.75989632835E+03  0.76073485286E+03  0.34087690169E+01 0.  0.
         13    1    3    3    0    0  0.24108131964E+02  0.39290056065E+01 -0.52479235509E+03  0.52536050011E+03  0.00000000000E+00 0.  1.
          1    1    3    3  501    0  0.10535464049E+02  0.40263742382E+01 -0.23510397326E+03  0.23537435276E+03  0.00000000000E+00 0.  1.
         -3    1    1    2    0  502 -0.34643596013E+02 -0.79553798447E+01 -0.23836656522E+03  0.24100225357E+03  0.00000000000E+00 0. -1.
<mgrwt>
<rscale>  1 0.30000000E+03</rscale>
<asrwt>0</asrwt>
<pdfrwt beam="1">  1       21 0.63167640E-02 0.30000000E+03</pdfrwt>
<pdfrwt beam="2">0</pdfrwt>
<totfact> 0.19280642E+04</totfact>
</mgrwt>
</event>
<event>
 6    1  0.1280499E-001  0.3000000E+03  0.7818608E-02  0.1093470E+00
         21   -1    0    0  501  502  0.00000000000E+00  0.00000000000E+00  0.57430802977E+01  0.57430802977E+01  0.00000000000E+00 0. -1.
         13   -1    0    0    0    0 -0.00000000000E+00 -0.00000000000E+00 -0.10000000000E+04  0.10000000000E+04  0.00000000000E+00 0.  1.
    9000005    2    1    2  501    0 -0.57354064498E+02 -0.48630213381E+02 -0.43599272185E+03  0.44243738977E+03  0.26084477508E+01 0.  0.
         13    1    3    3    0    0 -0.28006546157E+02 -0.25090337640E+02 -0.21319528337E+03  0.21648584370E+03  0.00000000000E+00 0.  1.
          1    1    3    3  501    0 -0.29347518341E+02 -0.23539875741E+02 -0.22279743847E+03  0.22595154607E+03  0.00000000000E+00 0.  1.
         -3    1    1    2    0  502  0.57354064498E+02  0.48630213381E+02 -0.55826419786E+03  0.56330569052E+03  0.00000000000E+00 0. -1.
<mgrwt>
<rscale>  1 0.30000000E+03</rscale>
<asrwt>0</asrwt>
<pdfrwt beam="1">  1       21 0.20883972E-01 0.30000000E+03</pdfrwt>
<pdfrwt beam="2">0</pdfrwt>
<totfact> 0.22087508E+03</totfact>
</mgrwt>
</event>
<event>
 6    1  0.1280499E-001  0.3000000E+03  0.7818608E-02  0.1093470E+00
         21   -1    0    0  501  502  0.00000000000E+00  0.00000000000E+00  0.10145309141E+01  0.10145309141E+01  0.00000000000E+00 0. -1.
         13   -1    0    0    0    0 -0.00000000000E+00 -0.00000000000E+00 -0.10000000000E+04  0.10000000000E+04  0.00000000000E+00 0.  1.
    9000005    2    1    2  501    0  0.30190315616E+02  0.20921757889E+01 -0.65154629158E+03  0.65225986869E+03  0.38123321570E+01 0.  0.
         13    1    3    3    0    0  0.95511768854E+01  0.23659103160E+01 -0.19914768152E+03  0.19939062558E+03  0.00000000000E+00 0.  1.
          3    1    3    3  501    0  0.20639138731E+02 -0.27373452705E+00 -0.45239861006E+03  0.45286924311E+03  0.00000000000E+00 0.  1.
         -1    1    1    2    0  502 -0.30190315616E+02 -0.20921757889E+01 -0.34743917750E+03  0.34875466222E+03  0.00000000000E+00 0. -1.
<mgrwt>
<rscale>  1 0.30000000E+03</rscale>
<asrwt>0</asrwt>
<pdfrwt beam="1">  1       21 0.36892111E-02 0.30000000E+03</pdfrwt>
<pdfrwt beam="2">0</pdfrwt>
<totfact> 0.48170954E+04</totfact>
</mgrwt>
</event>
<event>
 6    1  0.1280499E-001  0.3000000E+03  0.7818608E-02  0.1093470E+00
         21   -1    0    0  501  502  0.00000000000E+00  0.00000000000E+00  0.99052202696E+00  0.99052202696E+00  0.00000000000E+00 0. -1.
         13   -1    0    0    0    0 -0.00000000000E+00 -0.00000000000E+00 -0.10000000000E+04  0.10000000000E+04  0.00000000000E+00 0.  1.
    9000005    2    1    2  501    0  0.59296917932E+01  0.30840716598E+02 -0.49891266226E+03  0.49990855655E+03  0.28998790431E+01 0.  0.
         13    1    3    3    0    0  0.23492737603E+01  0.18264948094E+02 -0.30524836405E+03  0.30580335376E+03  0.00000000000E+00 0.  1.
          1    1    3    3  501    0  0.35804180329E+01  0.12575768503E+02 -0.19366429821E+03  0.19410520278E+03  0.00000000000E+00 0.  1.
         -3    1    1    2    0  502 -0.59296917932E+01 -0.30840716598E+02 -0.50009681571E+03  0.50108196548E+03  0.00000000000E+00 0. -1.
<mgrwt>
<rscale>  1 0.30000000E+03</rscale>
<asrwt>0</asrwt>
<pdfrwt beam="1">  1       21 0.36019059E-02 0.30000000E+03</pdfrwt>
<pdfrwt beam="2">0</pdfrwt>
<totfact> 0.50145784E+04</totfact>
</mgrwt>
</event>
<event>
 6    1  0.1280499E-001  0.3000000E+03  0.7818608E-02  0.1093470E+00
         21   -1    0    0  501  502  0.00000000000E+00  0.00000000000E+00  0.11839554982E+01  0.11839554982E+01  0.00000000000E+00 0. -1.
         13   -1    0    0    0    0 -0.00000000000E+00 -0.00000000000E+00 -0.10000000000E+04  0.10000000000E+04  0.00000000000E+00 0.  1.
    9000005    2    1    2  501    0 -0.31578235646E+02 -0.21754891631E+00 -0.69675984495E+03  0.69748150246E+03  0.29887195377E+01 0.  0.
         13    1    3    3    0    0 -0.38700864820E+01  0.94478487137E+00 -0.91178017417E+02  0.91265004508E+02  0.00000000000E+00 0.  1.
          1    1    3    3  501    0 -0.27708149164E+02 -0.11623337877E+01 -0.60558182754E+03  0.60621649795E+03  0.00000000000E+00 0.  1.
         -1    1    1    2    0  502  0.31578235646E+02  0.21754891631E+00 -0.30205619955E+03  0.30370245304E+03  0.00000000000E+00 0. -1.
<mgrwt>
<rscale>  1 0.30000000E+03</rscale>
<asrwt>0</asrwt>
<pdfrwt beam="1">  1       21 0.43053018E-02 0.30000000E+03</pdfrwt>
<pdfrwt beam="2">0</pdfrwt>
<totfact> 0.37139264E+04</totfact>
</mgrwt>
</event>
<event>
 6    1  0.1280499E-001  0.3000000E+03  0.7818608E-02  0.1093470E+00
         21   -1    0    0  501  502  0.00000000000E+00  0.00000000000E+00  0.14766407387E+01  0.14766407387E+01  0.00000000000E+00 0. -1.
         13   -1    0    0    0    0 -0.00000000000E+00 -0.00000000000E+00 -0.10000000000E+04  0.10000000000E+04  0.00000000000E+00 0.  1.
    9000005    2    1    2  501    0  0.65279902592E+01  0.32090662580E+02 -0.76041894816E+03  0.76113077357E+03  0.32638114201E+01 0.  0.
         13    1    3    3    0    0  0.13165923146E+01  0.82956721052E+01 -0.16476471007E+03  0.16497866916E+03  0.00000000000E+00 0.  1.
          3    1    3    3  501    0  0.52113979447E+01  0.23794990474E+02 -0.59565423809E+03  0.59615210441E+03  0.00000000000E+00 0.  1.
         -1    1    1    2    0  502 -0.65279902592E+01 -0.32090662580E+02 -0.23810441110E+03  0.24034586717E+03  0.00000000000E+00 0. -1.
<mgrwt>
<rscale>  1 0.30000000E+03</rscale>
<asrwt>0</asrwt>
<pdfrwt beam="1">  1       21 0.53696140E-02 0.30000000E+03</pdfrwt>
<pdfrwt beam="2">0</pdfrwt>
<totfact> 0.25501078E+04</totfact>
</mgrwt>
</event>
<event>
 6    1  0.1280499E-001  0.3000000E+03  0.7818608E-02  0.1093470E+00
         21   -1    0    0  501  502  0.00000000000E+00  0.00000000000E+00  0.12963206142E+01  0.12963206142E+01  0.00000000000E+00 0. -1.
         13   -1    0    0    0    0 -0.00000000000E+00 -0.00000000000E+00 -0.10000000000E+04  0.10000000000E+04  0.00000000000E+00 0.  1.
    9000005    2    1    2  501    0  0.31805323617E+02  0.71940298193E+01 -0.70991968590E+03  0.71067710657E+03  0.35576263746E+01 0.  0.
         13    1    3    3    0    0  0.17446531766E+02  0.55974731311E+01 -0.41256049521E+03  0.41296716018E+03  0.00000000000E+00 0.  1.
          1    1    3    3  501    0  0.14358791851E+02  0.15965566882E+01 -0.29735919069E+03  0.29770994639E+03  0.00000000000E+00 0.  1.
         -1    1    1    2    0  502 -0.31805323617E+02 -0.71940298193E+01 -0.28878399349E+03  0.29061921404E+03  0.00000000000E+00 0. -1.
<mgrwt>
<rscale>  1 0.30000000E+03</rscale>
<asrwt>0</asrwt>
<pdfrwt beam="1">  1       21 0.47139031E-02 0.30000000E+03</pdfrwt>
<pdfrwt beam="2">0</pdfrwt>
<totfact> 0.31844001E+04</totfact>
</mgrwt>
</event>
<event>
 6    1  0.1280499E-001  0.3000000E+03  0.7818608E-02  0.1093470E+00
         21   -1    0    0  501  502  0.00000000000E+00  0.00000000000E+00  0.11624497942E+01  0.11624497942E+01  0.00000000000E+00 0. -1.
         13   -1    0    0    0    0 -0.00000000000E+00 -0.00000000000E+00 -0.10000000000E+04  0.10000000000E+04  0.00000000000E+00 0.  1.
    9000005    2    1    2  501    0 -0.19002626454E+02 -0.27227112795E+02 -0.39329829673E+03  0.39471360366E+03  0.35865326581E+01 0.  0.
         13    1    3    3    0    0 -0.17327994865E+02 -0.22668770043E+02 -0.33879971636E+03  0.33999908874E+03  0.00000000000E+00 0.  1.
          3    1    3    3  501    0 -0.16746315891E+01 -0.45583427516E+01 -0.54498580374E+02  0.54714514915E+02  0.00000000000E+00 0.  1.
         -3    1    1    2    0  502  0.19002626454E+02  0.27227112795E+02 -0.60553925347E+03  0.60644884614E+03  0.00000000000E+00 0. -1.
<mgrwt>
<rscale>  1 0.30000000E+03</rscale>
<asrwt>0</asrwt>
<pdfrwt beam="1">  1       21 0.42270991E-02 0.30000000E+03</pdfrwt>
<pdfrwt beam="2">0</pdfrwt>
<totfact> 0.38308067E+04</totfact>
</mgrwt>
</event>
<event>
 6    1  0.1280499E-001  0.3000000E+03  0.7818608E-02  0.1093470E+00
         21   -1    0    0  501  502  0.00000000000E+00  0.00000000000E+00  0.14923817671E+01  0.14923817671E+01  0.00000000000E+00 0. -1.
         13   -1    0    0    0    0 -0.00000000000E+00 -0.00000000000E+00 -0.10000000000E+04  0.10000000000E+04  0.00000000000E+00 0.  1.
    9000005    2    1    2  501    0 -0.16169354266E+02 -0.32148533358E+02 -0.32652286717E+03  0.32854477468E+03  0.54323083866E+01 0.  0.
         13    1    3    3    0    0 -0.14124750811E+02 -0.24033866873E+02 -0.23792607596E+03  0.23955365363E+03  0.00000000000E+00 0.  1.
          3    1    3    3  501    0 -0.20446034555E+01 -0.81146664848E+01 -0.88596791203E+02  0.88991121057E+02  0.00000000000E+00 0.  1.
         -3    1    1    2    0  502  0.16169354266E+02  0.32148533358E+02 -0.67198475107E+03  0.67294760708E+03  0.00000000000E+00 0. -1.
<mgrwt>
<rscale>  1 0.30000000E+03</rscale>
<asrwt>0</asrwt>
<pdfrwt beam="1">  1       21 0.54268542E-02 0.30000000E+03</pdfrwt>
<pdfrwt beam="2">0</pdfrwt>
<totfact> 0.25042218E+04</totfact>
</mgrwt>
</event>
<event>
 6    1  0.1280499E-001  0.3000000E+03  0.7818608E-02  0.1093470E+00
         21   -1    0    0  501  502  0.00000000000E+00  0.00000000000E+00  0.12648635048E+01  0.12648635048E+01  0.00000000000E+00 0. -1.
         13   -1    0    0    0    0 -0.00000000000E+00 -0.00000000000E+00 -0.10000000000E+04  0.10000000000E+04  0.00000000000E+00 0.  1.
    9000005    2    1    2  501    0  0.13500748462E+02  0.29569570272E+02 -0.70051284028E+03  0.70127625097E+03  0.36757409971E+01 0.  0.
         13    1    3    3    0    0  0.14767532913E+01  0.65840684974E+01 -0.13384929157E+03  0.13401926582E+03  0.00000000000E+00 0.  1.
          1    1    3    3  501    0  0.12023995171E+02  0.22985501774E+02 -0.56666354872E+03  0.56725698514E+03  0.00000000000E+00 0.  1.
         -1    1    1    2    0  502 -0.13500748462E+02 -0.29569570272E+02 -0.29822229621E+03  0.29998861254E+03  0.00000000000E+00 0. -1.
<mgrwt>
<rscale>  1 0.30000000E+03</rscale>
<asrwt>0</asrwt>
<pdfrwt beam="1">  1       21 0.45995134E-02 0.30000000E+03</pdfrwt>
<pdfrwt beam="2">0</pdfrwt>
<totfact> 0.33201752E+04</totfact>
</mgrwt>
</event>
<event>
 6    1  0.1280499E-001  0.3000000E+03  0.7818608E-02  0.1093470E+00
         21   -1    0    0  501  502  0.00000000000E+00  0.00000000000E+00  0.33150899204E+01  0.33150899204E+01  0.00000000000E+00 0. -1.
         13   -1    0    0    0    0 -0.00000000000E+00 -0.00000000000E+00 -0.10000000000E+04  0.10000000000E+04  0.00000000000E+00 0.  1.
    9000005    2    1    2  501    0 -0.19058318426E+02  0.47411143562E+02 -0.72913524732E+03  0.73092959457E+03  0.29710767475E+01 0.  0.
         13    1    3    3    0    0 -0.15549246295E+01  0.57162369708E+01 -0.75551911815E+02  0.75783801268E+02  0.00000000000E+00 0.  1.
          3    1    3    3  501    0 -0.17503393797E+02  0.41694906591E+02 -0.65358333551E+03  0.65514579330E+03  0.00000000000E+00 0.  1.
         -1    1    1    2    0  502  0.19058318426E+02 -0.47411143562E+02 -0.26754966276E+03  0.27238549535E+03  0.00000000000E+00 0. -1.
<mgrwt>
<rscale>  1 0.30000000E+03</rscale>
<asrwt>0</asrwt>
<pdfrwt beam="1">  1       21 0.12054898E-01 0.30000000E+03</pdfrwt>
<pdfrwt beam="2">0</pdfrwt>
<totfact> 0.61459813E+03</totfact>
</mgrwt>
</event>
<event>
 6    1  0.1280499E-001  0.3000000E+03  0.7818608E-02  0.1093470E+00
         21   -1    0    0  501  502  0.00000000000E+00  0.00000000000E+00  0.33974076236E+01  0.33974076236E+01  0.00000000000E+00 0. -1.
         13   -1    0    0    0    0 -0.00000000000E+00 -0.00000000000E+00 -0.10000000000E+04  0.10000000000E+04  0.00000000000E+00 0.  1.
    9000005    2    1    2  501    0  0.11589593041E+02 -0.34785568462E+02 -0.88818335928E+03  0.88894617545E+03  0.33568900597E+01 0.  0.
         13    1    3    3    0    0  0.15830525950E+01 -0.78047589685E+01 -0.21751364862E+03  0.21765938448E+03  0.00000000000E+00 0.  1.
          3    1    3    3  501    0  0.10006540446E+02 -0.26980809494E+02 -0.67066971066E+03  0.67128679097E+03  0.00000000000E+00 0.  1.
         -3    1    1    2    0  502 -0.11589593041E+02  0.34785568462E+02 -0.10841923309E+03  0.11445123217E+03  0.00000000000E+00 0. -1.
<mgrwt>
<rscale>  1 0.30000000E+03</rscale>
<asrwt>0</asrwt>
<pdfrwt beam="1">  1       21 0.12354236E-01 0.30000000E+03</pdfrwt>
<pdfrwt beam="2">0</pdfrwt>
<totfact> 0.58778947E+03</totfact>
</mgrwt>
</event>
<event>
 6    1  0.1280499E-001  0.3000000E+03  0.7818608E-02  0.1093470E+00
         21   -1    0    0  501  502  0.00000000000E+00  0.00000000000E+00  0.33858701142E+01  0.33858701142E+01  0.00000000000E+00 0. -1.
         13   -1    0    0    0    0 -0.00000000000E+00 -0.00000000000E+00 -0.10000000000E+04  0.10000000000E+04  0.00000000000E+00 0.  1.
    9000005    2    1    2  501    0  0.32302553251E+02 -0.46098877481E+02 -0.62424791001E+03  0.62678905235E+03  0.32406067814E+01 0.  0.
         13    1    3    3    0    0  0.11366702384E+02 -0.14084924772E+02 -0.21048422399E+03  0.21126096558E+03  0.00000000000E+00 0.  1.
          1    1    3    3  501    0  0.20935850867E+02 -0.32013952709E+02 -0.41376368603E+03  0.41552808677E+03  0.00000000000E+00 0.  1.
         -1    1    1    2    0  502 -0.32302553251E+02  0.46098877481E+02 -0.37236621987E+03  0.37659681777E+03  0.00000000000E+00 0. -1.
<mgrwt>
<rscale>  1 0.30000000E+03</rscale>
<asrwt>0</asrwt>
<pdfrwt beam="1">  1       21 0.12312281E-01 0.30000000E+03</pdfrwt>
<pdfrwt beam="2">0</pdfrwt>
<totfact> 0.59143968E+03</totfact>
</mgrwt>
</event>
<event>
 6    1  0.1280499E-001  0.3000000E+03  0.7818608E-02  0.1093470E+00
         21   -1    0    0  501  502  0.00000000000E+00  0.00000000000E+00  0.18780739579E+01  0.18780739579E+01  0.00000000000E+00 0. -1.
         13   -1    0    0    0    0 -0.00000000000E+00 -0.00000000000E+00 -0.10000000000E+04  0.10000000000E+04  0.00000000000E+00 0.  1.
    9000005    2    1    2  501    0  0.30075268078E+02  0.22643040395E+02 -0.74650276224E+03  0.74745827791E+03  0.32053325400E+01 0.  0.
         13    1    3    3    0    0  0.27181242668E+02  0.19366678213E+02 -0.66993734527E+03  0.67076816768E+03  0.00000000000E+00 0.  1.
          1    1    3    3  501    0  0.28940254106E+01  0.32763621820E+01 -0.76565416965E+02  0.76690110231E+02  0.00000000000E+00 0.  1.
         -1    1    1    2    0  502 -0.30075268078E+02 -0.22643040395E+02 -0.25161916380E+03  0.25441979605E+03  0.00000000000E+00 0. -1.
<mgrwt>
<rscale>  1 0.30000000E+03</rscale>
<asrwt>0</asrwt>
<pdfrwt beam="1">  1       21 0.68293742E-02 0.30000000E+03</pdfrwt>
<pdfrwt beam="2">0</pdfrwt>
<totfact> 0.16842636E+04</totfact>
</mgrwt>
</event>
<event>
 6    1  0.1280499E-001  0.3000000E+03  0.7818608E-02  0.1093470E+00
         21   -1    0    0  501  502  0.00000000000E+00  0.00000000000E+00  0.15421079368E+01  0.15421079368E+01  0.00000000000E+00 0. -1.
         13   -1    0    0    0    0 -0.00000000000E+00 -0.00000000000E+00 -0.10000000000E+04  0.10000000000E+04  0.00000000000E+00 0.  1.
    9000005    2    1    2  501    0 -0.55566487540E+01 -0.38250482634E+02 -0.58267429228E+03  0.58396579441E+03  0.35696489469E+01 0.  0.
         13    1    3    3    0    0 -0.51843595790E+01 -0.35548282401E+02 -0.52552633732E+03  0.52675277805E+03  0.00000000000E+00 0.  1.
          3    1    3    3  501    0 -0.37228917499E+00 -0.27022002333E+01 -0.57147954959E+02  0.57213016363E+02  0.00000000000E+00 0.  1.
         -3    1    1    2    0  502  0.55566487540E+01  0.38250482634E+02 -0.41578359978E+03  0.41757631352E+03  0.00000000000E+00 0. -1.
<mgrwt>
<rscale>  1 0.30000000E+03</rscale>
<asrwt>0</asrwt>
<pdfrwt beam="1">  1       21 0.56076770E-02 0.30000000E+03</pdfrwt>
<pdfrwt beam="2">0</pdfrwt>
<totfact> 0.23673306E+04</totfact>
</mgrwt>
</event>
<event>
 6    1  0.1280499E-001  0.3000000E+03  0.7818608E-02  0.1093470E+00
         21   -1    0    0  501  502  0.00000000000E+00  0.00000000000E+00  0.16525382473E+01  0.16525382473E+01  0.00000000000E+00 0. -1.
         13   -1    0    0    0    0 -0.00000000000E+00 -0.00000000000E+00 -0.10000000000E+04  0.10000000000E+04  0.00000000000E+00 0.  1.
    9000005    2    1    2  501    0 -0.34021157409E+02  0.22013679621E+02 -0.52927350576E+03  0.53083153464E+03  0.31037127352E+01 0.  0.
         13    1    3    3    0    0 -0.29555583154E+02  0.18684445156E+02 -0.44242763815E+03  0.44380722841E+03  0.00000000000E+00 0.  1.
          3    1    3    3  501    0 -0.44655742543E+01  0.33292344648E+01 -0.86845867605E+02  0.87024306234E+02  0.00000000000E+00 0.  1.
         -3    1    1    2    0  502  0.34021157409E+02 -0.22013679621E+02 -0.46907395600E+03  0.47082100361E+03  0.00000000000E+00 0. -1.
<mgrwt>
<rscale>  1 0.30000000E+03</rscale>
<asrwt>0</asrwt>
<pdfrwt beam="1">  1       21 0.60092427E-02 0.30000000E+03</pdfrwt>
<pdfrwt beam="2">0</pdfrwt>
<totfact> 0.21015799E+04</totfact>
</mgrwt>
</event>
<event>
 6    1  0.1280499E-001  0.3000000E+03  0.7818608E-02  0.1093470E+00
         21   -1    0    0  501  502  0.00000000000E+00  0.00000000000E+00  0.10263058683E+01  0.10263058683E+01  0.00000000000E+00 0. -1.
         13   -1    0    0    0    0 -0.00000000000E+00 -0.00000000000E+00 -0.10000000000E+04  0.10000000000E+04  0.00000000000E+00 0.  1.
    9000005    2    1    2  501    0  0.29423858431E+02  0.11032390003E+02 -0.59227392952E+03  0.59311433546E+03  0.29547004499E+01 0.  0.
         13    1    3    3    0    0  0.43581543584E+01  0.24223615035E+01 -0.10950927121E+03  0.10962272495E+03  0.00000000000E+00 0.  1.
          3    1    3    3  501    0  0.25065704072E+02  0.86100284998E+01 -0.48276465831E+03  0.48349161050E+03  0.00000000000E+00 0.  1.
         -1    1    1    2    0  502 -0.29423858431E+02 -0.11032390003E+02 -0.40669976461E+03  0.40791197041E+03  0.00000000000E+00 0. -1.
<mgrwt>
<rscale>  1 0.30000000E+03</rscale>
<asrwt>0</asrwt>
<pdfrwt beam="1">  1       21 0.37320292E-02 0.30000000E+03</pdfrwt>
<pdfrwt beam="2">0</pdfrwt>
<totfact> 0.47246838E+04</totfact>
</mgrwt>
</event>
<event>
 6    1  0.1280499E-001  0.3000000E+03  0.7818608E-02  0.1093470E+00
         21   -1    0    0  501  502  0.00000000000E+00  0.00000000000E+00  0.12878995457E+01  0.12878995457E+01  0.00000000000E+00 0. -1.
         13   -1    0    0    0    0 -0.00000000000E+00 -0.00000000000E+00 -0.10000000000E+04  0.10000000000E+04  0.00000000000E+00 0.  1.
    9000005    2    1    2  501    0  0.28148554263E+02  0.20087699006E+02 -0.37127162688E+03  0.37289518425E+03  0.35129406012E+01 0.  0.
         13    1    3    3    0    0  0.26092055580E+01  0.15103795445E+01 -0.23511858326E+02  0.23704359978E+02  0.00000000000E+00 0.  1.
          1    1    3    3  501    0  0.25539348705E+02  0.18577319462E+02 -0.34775976856E+03  0.34919082427E+03  0.00000000000E+00 0.  1.
         -3    1    1    2    0  502 -0.28148554263E+02 -0.20087699006E+02 -0.62744047357E+03  0.62839271529E+03  0.00000000000E+00 0. -1.
<mgrwt>
<rscale>  1 0.30000000E+03</rscale>
<asrwt>0</asrwt>
<pdfrwt beam="1">  1       21 0.46832810E-02 0.30000000E+03</pdfrwt>
<pdfrwt beam="2">0</pdfrwt>
<totfact> 0.32198820E+04</totfact>
</mgrwt>
</event>
<event>
 6    1  0.1280499E-001  0.3000000E+03  0.7818608E-02  0.1093470E+00
         21   -1    0    0  501  502  0.00000000000E+00  0.00000000000E+00  0.12990012791E+01  0.12990012791E+01  0.00000000000E+00 0. -1.
         13   -1    0    0    0    0 -0.00000000000E+00 -0.00000000000E+00 -0.10000000000E+04  0.10000000000E+04  0.00000000000E+00 0.  1.
    9000005    2    1    2  501    0 -0.52419843088E+01  0.34479576613E+02 -0.62261070899E+03  0.62359511510E+03  0.32331142961E+01 0.  0.
         13    1    3    3    0    0 -0.34011692895E+01  0.26648710433E+02 -0.49942245441E+03  0.50014448882E+03  0.00000000000E+00 0.  1.
          3    1    3    3  501    0 -0.18408150193E+01  0.78308661797E+01 -0.12318825457E+03  0.12345062628E+03  0.00000000000E+00 0.  1.
         -1    1    1    2    0  502  0.52419843088E+01 -0.34479576613E+02 -0.37609028974E+03  0.37770388618E+03  0.00000000000E+00 0. -1.
<mgrwt>
<rscale>  1 0.30000000E+03</rscale>
<asrwt>0</asrwt>
<pdfrwt beam="1">  1       21 0.47236510E-02 0.30000000E+03</pdfrwt>
<pdfrwt beam="2">0</pdfrwt>
<totfact> 0.31732336E+04</totfact>
</mgrwt>
</event>
<event>
 6    1  0.1280499E-001  0.3000000E+03  0.7818608E-02  0.1093470E+00
         21   -1    0    0  501  502  0.00000000000E+00  0.00000000000E+00  0.12363495532E+01  0.12363495532E+01  0.00000000000E+00 0. -1.
         13   -1    0    0    0    0 -0.00000000000E+00 -0.00000000000E+00 -0.10000000000E+04  0.10000000000E+04  0.00000000000E+00 0.  1.
    9000005    2    1    2  501    0 -0.25202759729E+02  0.17429979768E+02 -0.74421861250E+03  0.74485351153E+03  0.25351815138E+01 0.  0.
         13    1    3    3    0    0 -0.21773433246E+02  0.15101695972E+02 -0.66277476324E+03  0.66330425176E+03  0.00000000000E+00 0.  1.
          1    1    3    3  501    0 -0.34293264832E+01  0.23282837966E+01 -0.81443849268E+02  0.81549259770E+02  0.00000000000E+00 0.  1.
         -3    1    1    2    0  502  0.25202759729E+02 -0.17429979768E+02 -0.25454503794E+03  0.25638283803E+03  0.00000000000E+00 0. -1.
<mgrwt>
<rscale>  1 0.30000000E+03</rscale>
<asrwt>0</asrwt>
<pdfrwt beam="1">  1       21 0.44958260E-02 0.30000000E+03</pdfrwt>
<pdfrwt beam="2">0</pdfrwt>
<totfact> 0.34512490E+04</totfact>
</mgrwt>
</event>
<event>
 6    1  0.1280499E-001  0.3000000E+03  0.7818608E-02  0.1093470E+00
         21   -1    0    0  501  502  0.00000000000E+00  0.00000000000E+00  0.21937677488E+01  0.21937677488E+01  0.00000000000E+00 0. -1.
         13   -1    0    0    0    0 -0.00000000000E+00 -0.00000000000E+00 -0.10000000000E+04  0.10000000000E+04  0.00000000000E+00 0.  1.
    9000005    2    1    2  501    0  0.42969858921E+02 -0.21884545862E+01 -0.30238793809E+03  0.30544574876E+03  0.27280441062E+01 0.  0.
         13    1    3    3    0    0  0.32558779271E+02 -0.28244375017E+01 -0.22865820122E+03  0.23098187059E+03  0.00000000000E+00 0.  1.
          3    1    3    3  501    0  0.10411079650E+02  0.63598291551E+00 -0.73729736868E+02  0.74463878172E+02  0.00000000000E+00 0.  1.
         -1    1    1    2    0  502 -0.42969858921E+02  0.21884545862E+01 -0.69541829416E+03  0.69674801899E+03  0.00000000000E+00 0. -1.
<mgrwt>
<rscale>  1 0.30000000E+03</rscale>
<asrwt>0</asrwt>
<pdfrwt beam="1">  1       21 0.79773541E-02 0.30000000E+03</pdfrwt>
<pdfrwt beam="2">0</pdfrwt>
<totfact> 0.12837625E+04</totfact>
</mgrwt>
</event>
<event>
 6    1  0.1280499E-001  0.3000000E+03  0.7818608E-02  0.1093470E+00
         21   -1    0    0  501  502  0.00000000000E+00  0.00000000000E+00  0.15586786349E+02  0.15586786349E+02  0.00000000000E+00 0. -1.
         13   -1    0    0    0    0 -0.00000000000E+00 -0.00000000000E+00 -0.10000000000E+04  0.10000000000E+04  0.00000000000E+00 0.  1.
    9000005    2    1    2  501    0  0.24216277129E+02 -0.32375231614E+02 -0.97262804444E+03  0.97347415269E+03  0.34683476095E+01 0.  0.
         13    1    3    3    0    0  0.23053285382E+02 -0.31622751312E+02 -0.92838164502E+03  0.92920607573E+03  0.00000000000E+00 0.  1.
          1    1    3    3  501    0  0.11629917475E+01 -0.75248030228E+00 -0.44246399422E+02  0.44268076965E+02  0.00000000000E+00 0.  1.
         -3    1    1    2    0  502 -0.24216277129E+02  0.32375231614E+02 -0.11785169214E+02  0.42112633656E+02  0.00000000000E+00 0. -1.
<mgrwt>
<rscale>  1 0.30000000E+03</rscale>
<asrwt>0</asrwt>
<pdfrwt beam="1">  1       21 0.56679343E-01 0.30000000E+03</pdfrwt>
<pdfrwt beam="2">0</pdfrwt>
<totfact> 0.28520396E+02</totfact>
</mgrwt>
</event>
<event>
 6    1  0.1280499E-001  0.3000000E+03  0.7818608E-02  0.1093470E+00
         21   -1    0    0  501  502  0.00000000000E+00  0.00000000000E+00  0.27003937943E+01  0.27003937943E+01  0.00000000000E+00 0. -1.
         13   -1    0    0    0    0 -0.00000000000E+00 -0.00000000000E+00 -0.10000000000E+04  0.10000000000E+04  0.00000000000E+00 0.  1.
    9000005    2    1    2  501    0 -0.51850737680E+02 -0.26256959801E+01 -0.49717374673E+03  0.49988704016E+03  0.31504292480E+01 0.  0.
         13    1    3    3    0    0 -0.33908624229E+02 -0.29620331490E+01 -0.31742903442E+03  0.31924874366E+03  0.00000000000E+00 0.  1.
          1    1    3    3  501    0 -0.17942113450E+02  0.33633716896E+00 -0.17974471231E+03  0.18063829650E+03  0.00000000000E+00 0.  1.
         -3    1    1    2    0  502  0.51850737680E+02  0.26256959801E+01 -0.50012585948E+03  0.50281335364E+03  0.00000000000E+00 0. -1.
<mgrwt>
<rscale>  1 0.30000000E+03</rscale>
<asrwt>0</asrwt>
<pdfrwt beam="1">  1       21 0.98196345E-02 0.30000000E+03</pdfrwt>
<pdfrwt beam="2">0</pdfrwt>
<totfact> 0.88874424E+03</totfact>
</mgrwt>
</event>
<event>
 6    1  0.1280499E-001  0.3000000E+03  0.7818608E-02  0.1093470E+00
         21   -1    0    0  501  502  0.00000000000E+00  0.00000000000E+00  0.31939970192E+01  0.31939970192E+01  0.00000000000E+00 0. -1.
         13   -1    0    0    0    0 -0.00000000000E+00 -0.00000000000E+00 -0.10000000000E+04  0.10000000000E+04  0.00000000000E+00 0.  1.
    9000005    2    1    2  501    0 -0.41406327749E+02  0.46681554446E+01 -0.83684023234E+03  0.83789026618E+03  0.47167830391E+01 0.  0.
         13    1    3    3    0    0 -0.41493605008E+02  0.48049165927E+01 -0.83310933808E+03  0.83415584615E+03  0.00000000000E+00 0.  1.
          3    1    3    3  501    0  0.87277259092E-01 -0.13676114809E+00 -0.37308942638E+01  0.37344200272E+01  0.00000000000E+00 0.  1.
         -3    1    1    2    0  502  0.41406327749E+02 -0.46681554446E+01 -0.15996577064E+03  0.16530373084E+03  0.00000000000E+00 0. -1.
<mgrwt>
<rscale>  1 0.30000000E+03</rscale>
<asrwt>0</asrwt>
<pdfrwt beam="1">  1       21 0.11614559E-01 0.30000000E+03</pdfrwt>
<pdfrwt beam="2">0</pdfrwt>
<totfact> 0.65746967E+03</totfact>
</mgrwt>
</event>
<event>
 6    1  0.1280499E-001  0.3000000E+03  0.7818608E-02  0.1093470E+00
         21   -1    0    0  501  502  0.00000000000E+00  0.00000000000E+00  0.11838951684E+01  0.11838951684E+01  0.00000000000E+00 0. -1.
         13   -1    0    0    0    0 -0.00000000000E+00 -0.00000000000E+00 -0.10000000000E+04  0.10000000000E+04  0.00000000000E+00 0.  1.
    9000005    2    1    2  501    0  0.28003442582E+02 -0.11575151945E+02 -0.73543712130E+03  0.73606756994E+03  0.30872617854E+01 0.  0.
         13    1    3    3    0    0  0.27327542338E+02 -0.11500828110E+02 -0.72643641609E+03  0.72704121632E+03  0.00000000000E+00 0.  1.
          3    1    3    3  501    0  0.67590024424E+00 -0.74323834266E-01 -0.90007052130E+01  0.90263536106E+01  0.00000000000E+00 0.  1.
         -1    1    1    2    0  502 -0.28003442582E+02  0.11575151945E+02 -0.26337898353E+03  0.26511632523E+03  0.00000000000E+00 0. -1.
<mgrwt>
<rscale>  1 0.30000000E+03</rscale>
<asrwt>0</asrwt>
<pdfrwt beam="1">  1       21 0.43050824E-02 0.30000000E+03</pdfrwt>
<pdfrwt beam="2">0</pdfrwt>
<totfact> 0.37142465E+04</totfact>
</mgrwt>
</event>
<event>
 6    1  0.1280499E-001  0.3000000E+03  0.7818608E-02  0.1093470E+00
         21   -1    0    0  501  502  0.00000000000E+00  0.00000000000E+00  0.15384512758E+01  0.15384512758E+01  0.00000000000E+00 0. -1.
         13   -1    0    0    0    0 -0.00000000000E+00 -0.00000000000E+00 -0.10000000000E+04  0.10000000000E+04  0.00000000000E+00 0.  1.
    9000005    2    1    2  501    0  0.13194142806E+02 -0.36805772752E+02 -0.48090194473E+03  0.48250406514E+03  0.38395458313E+01 0.  0.
         13    1    3    3    0    0  0.97497929497E+01 -0.23310793666E+02 -0.29388515507E+03  0.29496938135E+03  0.00000000000E+00 0.  1.
          1    1    3    3  501    0  0.34443498560E+01 -0.13494979087E+02 -0.18701678967E+03  0.18753468379E+03  0.00000000000E+00 0.  1.
         -1    1    1    2    0  502 -0.13194142806E+02  0.36805772752E+02 -0.51755960399E+03  0.51903438614E+03  0.00000000000E+00 0. -1.
<mgrwt>
<rscale>  1 0.30000000E+03</rscale>
<asrwt>0</asrwt>
<pdfrwt beam="1">  1       21 0.55943801E-02 0.30000000E+03</pdfrwt>
<pdfrwt beam="2">0</pdfrwt>
<totfact> 0.23770004E+04</totfact>
</mgrwt>
</event>
<event>
 6    1  0.1280499E-001  0.3000000E+03  0.7818608E-02  0.1093470E+00
         21   -1    0    0  501  502  0.00000000000E+00  0.00000000000E+00  0.29302644926E+01  0.29302644926E+01  0.00000000000E+00 0. -1.
         13   -1    0    0    0    0 -0.00000000000E+00 -0.00000000000E+00 -0.10000000000E+04  0.10000000000E+04  0.00000000000E+00 0.  1.
    9000005    2    1    2  501    0  0.37105958567E+02  0.25002434405E+01 -0.86263060082E+03  0.86344196995E+03  0.41687677876E+01 0.  0.
         13    1    3    3    0    0  0.58512733917E+01  0.18500690630E+01 -0.13029344197E+03  0.13043788244E+03  0.00000000000E+00 0.  1.
          3    1    3    3  501    0  0.31254685175E+02  0.65017437747E+00 -0.73233715885E+03  0.73300408751E+03  0.00000000000E+00 0.  1.
         -3    1    1    2    0  502 -0.37105958567E+02 -0.25002434405E+01 -0.13443913469E+03  0.13948829454E+03  0.00000000000E+00 0. -1.
<mgrwt>
<rscale>  1 0.30000000E+03</rscale>
<asrwt>0</asrwt>
<pdfrwt beam="1">  1       21 0.10655530E-01 0.30000000E+03</pdfrwt>
<pdfrwt beam="2">0</pdfrwt>
<totfact> 0.76786764E+03</totfact>
</mgrwt>
</event>
<event>
 6    1  0.1280499E-001  0.3000000E+03  0.7818608E-02  0.1093470E+00
         21   -1    0    0  501  502  0.00000000000E+00  0.00000000000E+00  0.10318718386E+01  0.10318718386E+01  0.00000000000E+00 0. -1.
         13   -1    0    0    0    0 -0.00000000000E+00 -0.00000000000E+00 -0.10000000000E+04  0.10000000000E+04  0.00000000000E+00 0.  1.
    9000005    2    1    2  501    0 -0.29987337732E+02  0.24450472526E+01 -0.66990385338E+03  0.67059501612E+03  0.46134791969E+01 0.  0.
         13    1    3    3    0    0 -0.10329439431E+02 -0.11407151530E+01 -0.20901560828E+03  0.20927379925E+03  0.00000000000E+00 0.  1.
          3    1    3    3  501    0 -0.19657898301E+02  0.35857624056E+01 -0.46088824510E+03  0.46132121686E+03  0.00000000000E+00 0.  1.
         -3    1    1    2    0  502  0.29987337732E+02 -0.24450472526E+01 -0.32906427478E+03  0.33043685572E+03  0.00000000000E+00 0. -1.
<mgrwt>
<rscale>  1 0.30000000E+03</rscale>
<asrwt>0</asrwt>
<pdfrwt beam="1">  1       21 0.37522691E-02 0.30000000E+03</pdfrwt>
<pdfrwt beam="2">0</pdfrwt>
<totfact> 0.46819688E+04</totfact>
</mgrwt>
</event>
<event>
 6    1  0.1280499E-001  0.3000000E+03  0.7818608E-02  0.1093470E+00
         21   -1    0    0  501  502  0.00000000000E+00  0.00000000000E+00  0.23742076810E+01  0.23742076810E+01  0.00000000000E+00 0. -1.
         13   -1    0    0    0    0 -0.00000000000E+00 -0.00000000000E+00 -0.10000000000E+04  0.10000000000E+04  0.00000000000E+00 0.  1.
    9000005    2    1    2  501    0  0.21816101590E+02 -0.31390724520E+02 -0.80761436028E+03  0.80855557034E+03  0.77353426557E+01 0.  0.
         13    1    3    3    0    0  0.26985495152E+01 -0.93503407327E+01 -0.17869748139E+03  0.17896228903E+03  0.00000000000E+00 0.  1.
          1    1    3    3  501    0  0.19117552075E+02 -0.22040383787E+02 -0.62891687889E+03  0.62959328131E+03  0.00000000000E+00 0.  1.
         -1    1    1    2    0  502 -0.21816101590E+02  0.31390724520E+02 -0.19001143204E+03  0.19381863734E+03  0.00000000000E+00 0. -1.
<mgrwt>
<rscale>  1 0.30000000E+03</rscale>
<asrwt>0</asrwt>
<pdfrwt beam="1">  1       21 0.86335007E-02 0.30000000E+03</pdfrwt>
<pdfrwt beam="2">0</pdfrwt>
<totfact> 0.11169871E+04</totfact>
</mgrwt>
</event>
<event>
 6    1  0.1280499E-001  0.3000000E+03  0.7818608E-02  0.1093470E+00
         21   -1    0    0  501  502  0.00000000000E+00  0.00000000000E+00  0.16062615615E+01  0.16062615615E+01  0.00000000000E+00 0. -1.
         13   -1    0    0    0    0 -0.00000000000E+00 -0.00000000000E+00 -0.10000000000E+04  0.10000000000E+04  0.00000000000E+00 0.  1.
    9000005    2    1    2  501    0  0.20740286487E+02 -0.26390916774E+02 -0.22738570434E+03  0.22986794541E+03  0.28937548489E+01 0.  0.
         13    1    3    3    0    0  0.82124368847E+01 -0.89522951020E+01 -0.89371963801E+02  0.90193877956E+02  0.00000000000E+00 0.  1.
          1    1    3    3  501    0  0.12527849603E+02 -0.17438621672E+02 -0.13801374054E+03  0.13967406746E+03  0.00000000000E+00 0.  1.
         -1    1    1    2    0  502 -0.20740286487E+02  0.26390916774E+02 -0.77100803410E+03  0.77173831615E+03  0.00000000000E+00 0. -1.
<mgrwt>
<rscale>  1 0.30000000E+03</rscale>
<asrwt>0</asrwt>
<pdfrwt beam="1">  1       21 0.58409634E-02 0.30000000E+03</pdfrwt>
<pdfrwt beam="2">0</pdfrwt>
<totfact> 0.22070372E+04</totfact>
</mgrwt>
</event>
<event>
 6    1  0.1280499E-001  0.3000000E+03  0.7818608E-02  0.1093470E+00
         21   -1    0    0  501  502  0.00000000000E+00  0.00000000000E+00  0.25603170854E+01  0.25603170854E+01  0.00000000000E+00 0. -1.
         13   -1    0    0    0    0 -0.00000000000E+00 -0.00000000000E+00 -0.10000000000E+04  0.10000000000E+04  0.00000000000E+00 0.  1.
    9000005    2    1    2  501    0  0.43204467697E+02  0.19853367402E+02 -0.33011667628E+03  0.33354553593E+03  0.38499807455E+01 0.  0.
         13    1    3    3    0    0  0.19689957463E+02  0.10630161142E+02 -0.16401248601E+03  0.16553184080E+03  0.00000000000E+00 0.  1.
          1    1    3    3  501    0  0.23514510235E+02  0.92232062603E+01 -0.16610419027E+03  0.16801369513E+03  0.00000000000E+00 0.  1.
         -1    1    1    2    0  502 -0.43204467697E+02 -0.19853367402E+02 -0.66732300663E+03  0.66901478116E+03  0.00000000000E+00 0. -1.
<mgrwt>
<rscale>  1 0.30000000E+03</rscale>
<asrwt>0</asrwt>
<pdfrwt beam="1">  1       21 0.93102636E-02 0.30000000E+03</pdfrwt>
<pdfrwt beam="2">0</pdfrwt>
<totfact> 0.97723137E+03</totfact>
</mgrwt>
</event>
<event>
 6    1  0.1280499E-001  0.3000000E+03  0.7818608E-02  0.1093470E+00
         21   -1    0    0  501  502  0.00000000000E+00  0.00000000000E+00  0.99847528270E+00  0.99847528270E+00  0.00000000000E+00 0. -1.
         13   -1    0    0    0    0 -0.00000000000E+00 -0.00000000000E+00 -0.10000000000E+04  0.10000000000E+04  0.00000000000E+00 0.  1.
    9000005    2    1    2  501    0  0.13871049185E+02  0.27216488619E+02 -0.61700045539E+03  0.61777796405E+03  0.51872596428E+01 0.  0.
         13    1    3    3    0    0  0.22946428079E+01  0.24077373120E+01 -0.45007933106E+02  0.45130661718E+02  0.00000000000E+00 0.  1.
          1    1    3    3  501    0  0.11576406377E+02  0.24808751307E+02 -0.57199252228E+03  0.57264730233E+03  0.00000000000E+00 0.  1.
         -3    1    1    2    0  502 -0.13871049185E+02 -0.27216488619E+02 -0.38200106933E+03  0.38322051123E+03  0.00000000000E+00 0. -1.
<mgrwt>
<rscale>  1 0.30000000E+03</rscale>
<asrwt>0</asrwt>
<pdfrwt beam="1">  1       21 0.36308269E-02 0.30000000E+03</pdfrwt>
<pdfrwt beam="2">0</pdfrwt>
<totfact> 0.49477671E+04</totfact>
</mgrwt>
</event>
<event>
 6    1  0.1280499E-001  0.3000000E+03  0.7818608E-02  0.1093470E+00
         21   -1    0    0  501  502  0.00000000000E+00  0.00000000000E+00  0.25771298363E+01  0.25771298363E+01  0.00000000000E+00 0. -1.
         13   -1    0    0    0    0 -0.00000000000E+00 -0.00000000000E+00 -0.10000000000E+04  0.10000000000E+04  0.00000000000E+00 0.  1.
    9000005    2    1    2  501    0 -0.36415467067E+02 -0.35166897052E+02 -0.46947176943E+03  0.47220446684E+03  0.32433501274E+01 0.  0.
         13    1    3    3    0    0 -0.71774639079E+01 -0.81525268694E+01 -0.91637952255E+02  0.92279434199E+02  0.00000000000E+00 0.  1.
          1    1    3    3  501    0 -0.29238003159E+02 -0.27014370183E+02 -0.37783381718E+03  0.37992503264E+03  0.00000000000E+00 0.  1.
         -3    1    1    2    0  502  0.36415467067E+02  0.35166897052E+02 -0.52795110073E+03  0.53037266300E+03  0.00000000000E+00 0. -1.
<mgrwt>
<rscale>  1 0.30000000E+03</rscale>
<asrwt>0</asrwt>
<pdfrwt beam="1">  1       21 0.93714010E-02 0.30000000E+03</pdfrwt>
<pdfrwt beam="2">0</pdfrwt>
<totfact> 0.96592415E+03</totfact>
</mgrwt>
</event>
<event>
 6    1  0.1280499E-001  0.3000000E+03  0.7818608E-02  0.1093470E+00
         21   -1    0    0  501  502  0.00000000000E+00  0.00000000000E+00  0.36150295169E+01  0.36150295169E+01  0.00000000000E+00 0. -1.
         13   -1    0    0    0    0 -0.00000000000E+00 -0.00000000000E+00 -0.10000000000E+04  0.10000000000E+04  0.00000000000E+00 0.  1.
    9000005    2    1    2  501    0  0.56922546821E+02  0.11478114861E+02 -0.62695612516E+03  0.62965033170E+03  0.36924078312E+01 0.  0.
         13    1    3    3    0    0  0.96847718801E+01  0.30744971360E+01 -0.11929657758E+03  0.11972852944E+03  0.00000000000E+00 0.  1.
          1    1    3    3  501    0  0.47237774941E+02  0.84036177250E+01 -0.50765954758E+03  0.50992180226E+03  0.00000000000E+00 0.  1.
         -1    1    1    2    0  502 -0.56922546821E+02 -0.11478114861E+02 -0.36942884532E+03  0.37396469782E+03  0.00000000000E+00 0. -1.
<mgrwt>
<rscale>  1 0.30000000E+03</rscale>
<asrwt>0</asrwt>
<pdfrwt beam="1">  1       21 0.13145590E-01 0.30000000E+03</pdfrwt>
<pdfrwt beam="2">0</pdfrwt>
<totfact> 0.52486421E+03</totfact>
</mgrwt>
</event>
<event>
 6    1  0.1280499E-001  0.3000000E+03  0.7818608E-02  0.1093470E+00
         21   -1    0    0  501  502  0.00000000000E+00  0.00000000000E+00  0.15383078171E+01  0.15383078171E+01  0.00000000000E+00 0. -1.
         13   -1    0    0    0    0 -0.00000000000E+00 -0.00000000000E+00 -0.10000000000E+04  0.10000000000E+04  0.00000000000E+00 0.  1.
    9000005    2    1    2  501    0  0.28817673507E+02 -0.95275300183E+01 -0.81594277241E+03  0.81651293601E+03  0.30878310907E+01 0.  0.
         13    1    3    3    0    0  0.20343519240E+02 -0.52876863942E+01 -0.55108813536E+03  0.55148884969E+03  0.00000000000E+00 0.  1.
          1    1    3    3  501    0  0.84741542668E+01 -0.42398436241E+01 -0.26485463705E+03  0.26502408632E+03  0.00000000000E+00 0.  1.
         -1    1    1    2    0  502 -0.28817673507E+02  0.95275300183E+01 -0.18251891978E+03  0.18502537180E+03  0.00000000000E+00 0. -1.
<mgrwt>
<rscale>  1 0.30000000E+03</rscale>
<asrwt>0</asrwt>
<pdfrwt beam="1">  1       21 0.55938584E-02 0.30000000E+03</pdfrwt>
<pdfrwt beam="2">0</pdfrwt>
<totfact> 0.23773810E+04</totfact>
</mgrwt>
</event>
<event>
 6    1  0.1280499E-001  0.3000000E+03  0.7818608E-02  0.1093470E+00
         21   -1    0    0  501  502  0.00000000000E+00  0.00000000000E+00  0.50330090844E+01  0.50330090844E+01  0.00000000000E+00 0. -1.
         13   -1    0    0    0    0 -0.00000000000E+00 -0.00000000000E+00 -0.10000000000E+04  0.10000000000E+04  0.00000000000E+00 0.  1.
    9000005    2    1    2  501    0  0.11800511204E+02 -0.64509716729E+02 -0.30659239637E+03  0.31354162228E+03  0.29488589628E+01 0.  0.
         13    1    3    3    0    0  0.10512705967E+02 -0.53846375980E+02 -0.26044306474E+03  0.26615886077E+03  0.00000000000E+00 0.  1.
          1    1    3    3  501    0  0.12878052372E+01 -0.10663340749E+02 -0.46149331633E+02  0.47382761511E+02  0.00000000000E+00 0.  1.
         -1    1    1    2    0  502 -0.11800511204E+02  0.64509716729E+02 -0.68837459454E+03  0.69149138681E+03  0.00000000000E+00 0. -1.
<mgrwt>
<rscale>  1 0.30000000E+03</rscale>
<asrwt>0</asrwt>
<pdfrwt beam="1">  1       21 0.18301890E-01 0.30000000E+03</pdfrwt>
<pdfrwt beam="2">0</pdfrwt>
<totfact> 0.28391228E+03</totfact>
</mgrwt>
</event>
<event>
 6    1  0.1280499E-001  0.3000000E+03  0.7818608E-02  0.1093470E+00
         21   -1    0    0  501  502  0.00000000000E+00  0.00000000000E+00  0.11838587362E+01  0.11838587362E+01  0.00000000000E+00 0. -1.
         13   -1    0    0    0    0 -0.00000000000E+00 -0.00000000000E+00 -0.10000000000E+04  0.10000000000E+04  0.00000000000E+00 0.  1.
    9000005    2    1    2  501    0 -0.27868257680E+02 -0.14402010929E+02 -0.30292379342E+03  0.30458482236E+03  0.50031671839E+01 0.  0.
         13    1    3    3    0    0 -0.11438941491E+02 -0.34644349877E+01 -0.10415773078E+03  0.10484123509E+03  0.00000000000E+00 0.  1.
          3    1    3    3  501    0 -0.16429316189E+02 -0.10937575941E+02 -0.19876606264E+03  0.19974358727E+03  0.00000000000E+00 0.  1.
         -3    1    1    2    0  502  0.27868257680E+02  0.14402010929E+02 -0.69589234784E+03  0.69659903638E+03  0.00000000000E+00 0. -1.
<mgrwt>
<rscale>  1 0.30000000E+03</rscale>
<asrwt>0</asrwt>
<pdfrwt beam="1">  1       21 0.43049499E-02 0.30000000E+03</pdfrwt>
<pdfrwt beam="2">0</pdfrwt>
<totfact> 0.37144398E+04</totfact>
</mgrwt>
</event>
<event>
 6    1  0.1280499E-001  0.3000000E+03  0.7818608E-02  0.1093470E+00
         21   -1    0    0  501  502  0.00000000000E+00  0.00000000000E+00  0.11086938524E+02  0.11086938524E+02  0.00000000000E+00 0. -1.
         13   -1    0    0    0    0 -0.00000000000E+00 -0.00000000000E+00 -0.10000000000E+04  0.10000000000E+04  0.00000000000E+00 0.  1.
    9000005    2    1    2  501    0 -0.29618775334E+02  0.31151651354E+02 -0.95589148491E+03  0.95688249449E+03  0.69195450147E+01 0.  0.
         13    1    3    3    0    0 -0.84548712846E+01  0.58477684836E+01 -0.18480398331E+03  0.18508969040E+03  0.00000000000E+00 0.  1.
          3    1    3    3  501    0 -0.21163904049E+02  0.25303882870E+02 -0.77108750160E+03  0.77179280409E+03  0.00000000000E+00 0.  1.
         -3    1    1    2    0  502  0.29618775334E+02 -0.31151651354E+02 -0.33021576571E+02  0.54204444039E+02  0.00000000000E+00 0. -1.
<mgrwt>
<rscale>  1 0.30000000E+03</rscale>
<asrwt>0</asrwt>
<pdfrwt beam="1">  1       21 0.40316225E-01 0.30000000E+03</pdfrwt>
<pdfrwt beam="2">0</pdfrwt>
<totfact> 0.59416182E+02</totfact>
</mgrwt>
</event>
<event>
 6    1  0.1280499E-001  0.3000000E+03  0.7818608E-02  0.1093470E+00
         21   -1    0    0  501  502  0.00000000000E+00  0.00000000000E+00  0.60835689275E+01  0.60835689275E+01  0.00000000000E+00 0. -1.
         13   -1    0    0    0    0 -0.00000000000E+00 -0.00000000000E+00 -0.10000000000E+04  0.10000000000E+04  0.00000000000E+00 0.  1.
    9000005    2    1    2  501    0  0.74094078089E+01 -0.38245332625E+02 -0.93270506952E+03  0.93352713865E+03  0.40702694886E+01 0.  0.
         13    1    3    3    0    0  0.33719651640E+01 -0.27140030441E+02 -0.64566595908E+03  0.64624490877E+03  0.00000000000E+00 0.  1.
          3    1    3    3  501    0  0.40374426449E+01 -0.11105302185E+02 -0.28703911044E+03  0.28728222987E+03  0.00000000000E+00 0.  1.
         -1    1    1    2    0  502 -0.74094078089E+01  0.38245332625E+02 -0.61211361554E+02  0.72556430280E+02  0.00000000000E+00 0. -1.
<mgrwt>
<rscale>  1 0.30000000E+03</rscale>
<asrwt>0</asrwt>
<pdfrwt beam="1">  1       21 0.22122115E-01 0.30000000E+03</pdfrwt>
<pdfrwt beam="2">0</pdfrwt>
<totfact> 0.19773999E+03</totfact>
</mgrwt>
</event>
<event>
 6    1  0.1280499E-001  0.3000000E+03  0.7818608E-02  0.1093470E+00
         21   -1    0    0  501  502  0.00000000000E+00  0.00000000000E+00  0.23704117917E+01  0.23704117917E+01  0.00000000000E+00 0. -1.
         13   -1    0    0    0    0 -0.00000000000E+00 -0.00000000000E+00 -0.10000000000E+04  0.10000000000E+04  0.00000000000E+00 0.  1.
    9000005    2    1    2  501    0 -0.41766169026E+02  0.21203786176E+02 -0.63422153136E+03  0.63595612550E+03  0.30379738491E+01 0.  0.
         13    1    3    3    0    0 -0.28512035377E+02  0.14552770902E+02 -0.41381778872E+03  0.41505407066E+03  0.00000000000E+00 0.  1.
          1    1    3    3  501    0 -0.13254133649E+02  0.66510152742E+01 -0.22040374264E+03  0.22090205484E+03  0.00000000000E+00 0.  1.
         -1    1    1    2    0  502  0.41766169026E+02 -0.21203786176E+02 -0.36340805684E+03  0.36641428630E+03  0.00000000000E+00 0. -1.
<mgrwt>
<rscale>  1 0.30000000E+03</rscale>
<asrwt>0</asrwt>
<pdfrwt beam="1">  1       21 0.86196974E-02 0.30000000E+03</pdfrwt>
<pdfrwt beam="2">0</pdfrwt>
<totfact> 0.11201467E+04</totfact>
</mgrwt>
</event>
<event>
 6    1  0.1280499E-001  0.3000000E+03  0.7818608E-02  0.1093470E+00
         21   -1    0    0  501  502  0.00000000000E+00  0.00000000000E+00  0.11478449929E+01  0.11478449929E+01  0.00000000000E+00 0. -1.
         13   -1    0    0    0    0 -0.00000000000E+00 -0.00000000000E+00 -0.10000000000E+04  0.10000000000E+04  0.00000000000E+00 0.  1.
    9000005    2    1    2  501    0  0.21366791017E+02 -0.23450730332E+02 -0.67185808241E+03  0.67261839422E+03  0.39679758178E+01 0.  0.
         13    1    3    3    0    0  0.19401701738E+02 -0.22717023387E+02 -0.62750024428E+03  0.62821098824E+03  0.00000000000E+00 0.  1.
          1    1    3    3  501    0  0.19650892793E+01 -0.73370694518E+00 -0.44357838133E+02  0.44407405977E+02  0.00000000000E+00 0.  1.
         -3    1    1    2    0  502 -0.21366791017E+02  0.23450730332E+02 -0.32699407260E+03  0.32852945077E+03  0.00000000000E+00 0. -1.
<mgrwt>
<rscale>  1 0.30000000E+03</rscale>
<asrwt>0</asrwt>
<pdfrwt beam="1">  1       21 0.41739906E-02 0.30000000E+03</pdfrwt>
<pdfrwt beam="2">0</pdfrwt>
<totfact> 0.39134750E+04</totfact>
</mgrwt>
</event>
<event>
 6    1  0.1280499E-001  0.3000000E+03  0.7818608E-02  0.1093470E+00
         21   -1    0    0  501  502  0.00000000000E+00  0.00000000000E+00  0.14838649872E+01  0.14838649872E+01  0.00000000000E+00 0. -1.
         13   -1    0    0    0    0 -0.00000000000E+00 -0.00000000000E+00 -0.10000000000E+04  0.10000000000E+04  0.00000000000E+00 0.  1.
    9000005    2    1    2  501    0 -0.22573276673E+02  0.29172331027E+02 -0.64058069690E+03  0.64165285524E+03  0.37655918626E+01 0.  0.
         13    1    3    3    0    0 -0.17479337418E+02  0.23720164499E+02 -0.53289910821E+03  0.53371306239E+03  0.00000000000E+00 0.  1.
          3    1    3    3  501    0 -0.50939392542E+01  0.54521665281E+01 -0.10768158869E+03  0.10793979284E+03  0.00000000000E+00 0.  1.
         -1    1    1    2    0  502  0.22573276673E+02 -0.29172331027E+02 -0.35793543812E+03  0.35983100975E+03  0.00000000000E+00 0. -1.
<mgrwt>
<rscale>  1 0.30000000E+03</rscale>
<asrwt>0</asrwt>
<pdfrwt beam="1">  1       21 0.53958841E-02 0.30000000E+03</pdfrwt>
<pdfrwt beam="2">0</pdfrwt>
<totfact> 0.25288889E+04</totfact>
</mgrwt>
</event>
<event>
 6    1  0.1280499E-001  0.3000000E+03  0.7818608E-02  0.1093470E+00
         21   -1    0    0  501  502  0.00000000000E+00  0.00000000000E+00  0.28368454358E+01  0.28368454358E+01  0.00000000000E+00 0. -1.
         13   -1    0    0    0    0 -0.00000000000E+00 -0.00000000000E+00 -0.10000000000E+04  0.10000000000E+04  0.00000000000E+00 0.  1.
    9000005    2    1    2  501    0 -0.40772366844E+02 -0.63398739314E+01 -0.81540707034E+03  0.81645590743E+03  0.29964173047E+01 0.  0.
         13    1    3    3    0    0 -0.17471711373E+02 -0.42069242443E+01 -0.35805122094E+03  0.35850193267E+03  0.00000000000E+00 0.  1.
          3    1    3    3  501    0 -0.23300655471E+02 -0.21329496871E+01 -0.45735584940E+03  0.45795397476E+03  0.00000000000E+00 0.  1.
         -3    1    1    2    0  502  0.40772366844E+02  0.63398739314E+01 -0.18175608422E+03  0.18638093801E+03  0.00000000000E+00 0. -1.
<mgrwt>
<rscale>  1 0.30000000E+03</rscale>
<asrwt>0</asrwt>
<pdfrwt beam="1">  1       21 0.10315823E-01 0.30000000E+03</pdfrwt>
<pdfrwt beam="2">0</pdfrwt>
<totfact> 0.81378068E+03</totfact>
</mgrwt>
</event>
<event>
 6    1  0.1280499E-001  0.3000000E+03  0.7818608E-02  0.1093470E+00
         21   -1    0    0  501  502  0.00000000000E+00  0.00000000000E+00  0.18081346959E+01  0.18081346959E+01  0.00000000000E+00 0. -1.
         13   -1    0    0    0    0 -0.00000000000E+00 -0.00000000000E+00 -0.10000000000E+04  0.10000000000E+04  0.00000000000E+00 0.  1.
    9000005    2    1    2  501    0 -0.24199320930E+02  0.24740222239E+02 -0.78959245093E+03  0.79035742789E+03  0.33074962189E+01 0.  0.
         13    1    3    3    0    0 -0.21678061802E+02  0.20999041404E+02 -0.70292394532E+03  0.70357158201E+03  0.00000000000E+00 0.  1.
          1    1    3    3  501    0 -0.25212591274E+01  0.37411808352E+01 -0.86668505606E+02  0.86785845883E+02  0.00000000000E+00 0.  1.
         -3    1    1    2    0  502  0.24199320930E+02 -0.24740222239E+02 -0.20859941438E+03  0.21145070680E+03  0.00000000000E+00 0. -1.
<mgrwt>
<rscale>  1 0.30000000E+03</rscale>
<asrwt>0</asrwt>
<pdfrwt beam="1">  1       21 0.65750491E-02 0.30000000E+03</pdfrwt>
<pdfrwt beam="2">0</pdfrwt>
<totfact> 0.17988794E+04</totfact>
</mgrwt>
</event>
<event>
 6    1  0.1280499E-001  0.3000000E+03  0.7818608E-02  0.1093470E+00
         21   -1    0    0  501  502  0.00000000000E+00  0.00000000000E+00  0.86509339824E+01  0.86509339824E+01  0.00000000000E+00 0. -1.
         13   -1    0    0    0    0 -0.00000000000E+00 -0.00000000000E+00 -0.10000000000E+04  0.10000000000E+04  0.00000000000E+00 0.  1.
    9000005    2    1    2  501    0 -0.19168161509E+02 -0.86201937119E+02 -0.33782995686E+03  0.34919250587E+03  0.28520208347E+01 0.  0.
         13    1    3    3    0    0 -0.13539411246E+02 -0.62701461257E+02 -0.25009504640E+03  0.25819047452E+03  0.00000000000E+00 0.  1.
          1    1    3    3  501    0 -0.56287502637E+01 -0.23500475862E+02 -0.87734910463E+02  0.91002031346E+02  0.00000000000E+00 0.  1.
         -1    1    1    2    0  502  0.19168161509E+02  0.86201937119E+02 -0.65351910915E+03  0.65945842811E+03  0.00000000000E+00 0. -1.
<mgrwt>
<rscale>  1 0.30000000E+03</rscale>
<asrwt>0</asrwt>
<pdfrwt beam="1">  1       21 0.31458008E-01 0.30000000E+03</pdfrwt>
<pdfrwt beam="2">0</pdfrwt>
<totfact> 0.98846734E+02</totfact>
</mgrwt>
</event>
<event>
 6    1  0.1280499E-001  0.3000000E+03  0.7818608E-02  0.1093470E+00
         21   -1    0    0  501  502  0.00000000000E+00  0.00000000000E+00  0.35002663553E+01  0.35002663553E+01  0.00000000000E+00 0. -1.
         13   -1    0    0    0    0 -0.00000000000E+00 -0.00000000000E+00 -0.10000000000E+04  0.10000000000E+04  0.00000000000E+00 0.  1.
    9000005    2    1    2  501    0 -0.60849090317E+01  0.43328637270E+02 -0.83588195599E+03  0.83702964605E+03  0.23637035013E+01 0.  0.
         13    1    3    3    0    0 -0.14303827051E+01  0.65051591332E+01 -0.11476909007E+03  0.11496219868E+03  0.00000000000E+00 0.  1.
          1    1    3    3  501    0 -0.46545263265E+01  0.36823478136E+02 -0.72111286591E+03  0.72206744736E+03  0.00000000000E+00 0.  1.
         -3    1    1    2    0  502  0.60849090317E+01 -0.43328637270E+02 -0.16061777766E+03  0.16647062031E+03  0.00000000000E+00 0. -1.
<mgrwt>
<rscale>  1 0.30000000E+03</rscale>
<asrwt>0</asrwt>
<pdfrwt beam="1">  1       21 0.12728268E-01 0.30000000E+03</pdfrwt>
<pdfrwt beam="2">0</pdfrwt>
<totfact> 0.55670335E+03</totfact>
</mgrwt>
</event>
<event>
 6    1  0.1280499E-001  0.3000000E+03  0.7818608E-02  0.1093470E+00
         21   -1    0    0  501  502  0.00000000000E+00  0.00000000000E+00  0.29004728027E+01  0.29004728027E+01  0.00000000000E+00 0. -1.
         13   -1    0    0    0    0 -0.00000000000E+00 -0.00000000000E+00 -0.10000000000E+04  0.10000000000E+04  0.00000000000E+00 0.  1.
    9000005    2    1    2  501    0 -0.18336474604E+02  0.47216618938E+02 -0.33049653209E+03  0.33437583714E+03  0.36888119073E+01 0.  0.
         13    1    3    3    0    0 -0.12882911274E+02  0.34696458020E+02 -0.25121491290E+03  0.25392665489E+03  0.00000000000E+00 0.  1.
          1    1    3    3  501    0 -0.54535633295E+01  0.12520160918E+02 -0.79281619191E+02  0.80449182245E+02  0.00000000000E+00 0.  1.
         -3    1    1    2    0  502  0.18336474604E+02 -0.47216618938E+02 -0.66660299511E+03  0.66852463567E+03  0.00000000000E+00 0. -1.
<mgrwt>
<rscale>  1 0.30000000E+03</rscale>
<asrwt>0</asrwt>
<pdfrwt beam="1">  1       21 0.10547196E-01 0.30000000E+03</pdfrwt>
<pdfrwt beam="2">0</pdfrwt>
<totfact> 0.78207321E+03</totfact>
</mgrwt>
</event>
<event>
 6    1  0.1280499E-001  0.3000000E+03  0.7818608E-02  0.1093470E+00
         21   -1    0    0  501  502  0.00000000000E+00  0.00000000000E+00  0.12582744286E+01  0.12582744286E+01  0.00000000000E+00 0. -1.
         13   -1    0    0    0    0 -0.00000000000E+00 -0.00000000000E+00 -0.10000000000E+04  0.10000000000E+04  0.00000000000E+00 0.  1.
    9000005    2    1    2  501    0  0.35332719051E+02  0.58058802743E+00 -0.52384433032E+03  0.52504794891E+03  0.37051482848E+01 0.  0.
         13    1    3    3    0    0  0.30959745988E+02  0.11033487248E+01 -0.44113900925E+03  0.44222545012E+03  0.00000000000E+00 0.  1.
          3    1    3    3  501    0  0.43729730625E+01 -0.52276069738E+00 -0.82705321070E+02  0.82822498788E+02  0.00000000000E+00 0.  1.
         -1    1    1    2    0  502 -0.35332719051E+02 -0.58058802743E+00 -0.47489739525E+03  0.47621032552E+03  0.00000000000E+00 0. -1.
<mgrwt>
<rscale>  1 0.30000000E+03</rscale>
<asrwt>0</asrwt>
<pdfrwt beam="1">  1       21 0.45755530E-02 0.30000000E+03</pdfrwt>
<pdfrwt beam="2">0</pdfrwt>
<totfact> 0.33497655E+04</totfact>
</mgrwt>
</event>
<event>
 6    1  0.1280499E-001  0.3000000E+03  0.7818608E-02  0.1093470E+00
         21   -1    0    0  501  502  0.00000000000E+00  0.00000000000E+00  0.13858259932E+01  0.13858259932E+01  0.00000000000E+00 0. -1.
         13   -1    0    0    0    0 -0.00000000000E+00 -0.00000000000E+00 -0.10000000000E+04  0.10000000000E+04  0.00000000000E+00 0.  1.
    9000005    2    1    2  501    0 -0.22576900958E+02  0.20971758480E+02 -0.77954478616E+03  0.78015986052E+03  0.31310090027E+01 0.  0.
         13    1    3    3    0    0 -0.13594235969E+02  0.13721227065E+02 -0.51960467829E+03  0.51996355355E+03  0.00000000000E+00 0.  1.
          1    1    3    3  501    0 -0.89826649893E+01  0.72505314144E+01 -0.25994010787E+03  0.26019630696E+03  0.00000000000E+00 0.  1.
         -1    1    1    2    0  502  0.22576900958E+02 -0.20971758480E+02 -0.21906938784E+03  0.22122596548E+03  0.00000000000E+00 0. -1.
<mgrwt>
<rscale>  1 0.30000000E+03</rscale>
<asrwt>0</asrwt>
<pdfrwt beam="1">  1       21 0.50393779E-02 0.30000000E+03</pdfrwt>
<pdfrwt beam="2">0</pdfrwt>
<totfact> 0.28421938E+04</totfact>
</mgrwt>
</event>
<event>
 6    1  0.1280499E-001  0.3000000E+03  0.7818608E-02  0.1093470E+00
         21   -1    0    0  501  502  0.00000000000E+00  0.00000000000E+00  0.20293129685E+02  0.20293129685E+02  0.00000000000E+00 0. -1.
         13   -1    0    0    0    0 -0.00000000000E+00 -0.00000000000E+00 -0.10000000000E+04  0.10000000000E+04  0.00000000000E+00 0.  1.
    9000005    2    1    2  501    0  0.86444336898E+02  0.20622329267E+02 -0.88853179024E+03  0.89297149338E+03  0.33825824717E+01 0.  0.
         13    1    3    3    0    0  0.84784566580E+02  0.19754024182E+02 -0.87123948378E+03  0.87557802753E+03  0.00000000000E+00 0.  1.
          1    1    3    3  501    0  0.16597703185E+01  0.86830508431E+00 -0.17292306463E+02  0.17393465843E+02  0.00000000000E+00 0.  1.
         -1    1    1    2    0  502 -0.86444336898E+02 -0.20622329267E+02 -0.91175080072E+02  0.12732163631E+03  0.00000000000E+00 0. -1.
<mgrwt>
<rscale>  1 0.30000000E+03</rscale>
<asrwt>0</asrwt>
<pdfrwt beam="1">  1       21 0.73793354E-01 0.30000000E+03</pdfrwt>
<pdfrwt beam="2">0</pdfrwt>
<totfact> 0.15590648E+02</totfact>
</mgrwt>
</event>
<event>
 6    1  0.1280499E-001  0.3000000E+03  0.7818608E-02  0.1093470E+00
         21   -1    0    0  501  502  0.00000000000E+00  0.00000000000E+00  0.18764182222E+01  0.18764182222E+01  0.00000000000E+00 0. -1.
         13   -1    0    0    0    0 -0.00000000000E+00 -0.00000000000E+00 -0.10000000000E+04  0.10000000000E+04  0.00000000000E+00 0.  1.
    9000005    2    1    2  501    0 -0.31626913372E+02  0.29163550593E+02 -0.44996467384E+03  0.45203192867E+03  0.37259235174E+01 0.  0.
         13    1    3    3    0    0 -0.29502205745E+02  0.25768196860E+02 -0.40615127355E+03  0.40803582823E+03  0.00000000000E+00 0.  1.
          1    1    3    3  501    0 -0.21247076273E+01  0.33953537327E+01 -0.43813400284E+02  0.43996100440E+02  0.00000000000E+00 0.  1.
         -3    1    1    2    0  502  0.31626913372E+02 -0.29163550593E+02 -0.54815890794E+03  0.54984448955E+03  0.00000000000E+00 0. -1.
<mgrwt>
<rscale>  1 0.30000000E+03</rscale>
<asrwt>0</asrwt>
<pdfrwt beam="1">  1       21 0.68233534E-02 0.30000000E+03</pdfrwt>
<pdfrwt beam="2">0</pdfrwt>
<totfact> 0.16868459E+04</totfact>
</mgrwt>
</event>
<event>
 6    1  0.1280499E-001  0.3000000E+03  0.7818608E-02  0.1093470E+00
         21   -1    0    0  501  502  0.00000000000E+00  0.00000000000E+00  0.36587952790E+01  0.36587952790E+01  0.00000000000E+00 0. -1.
         13   -1    0    0    0    0 -0.00000000000E+00 -0.00000000000E+00 -0.10000000000E+04  0.10000000000E+04  0.00000000000E+00 0.  1.
    9000005    2    1    2  501    0 -0.34249969586E+02 -0.92214146012E+01 -0.90459778779E+03  0.90529747436E+03  0.28748032456E+01 0.  0.
         13    1    3    3    0    0 -0.25281169230E+02 -0.54941109374E+01 -0.65318535876E+03  0.65369751083E+03  0.00000000000E+00 0.  1.
          1    1    3    3  501    0 -0.89688003556E+01 -0.37273036638E+01 -0.25141242903E+03  0.25159996352E+03  0.00000000000E+00 0.  1.
         -3    1    1    2    0  502  0.34249969586E+02  0.92214146012E+01 -0.91743416928E+02  0.98361320922E+02  0.00000000000E+00 0. -1.
<mgrwt>
<rscale>  1 0.30000000E+03</rscale>
<asrwt>0</asrwt>
<pdfrwt beam="1">  1       21 0.13304738E-01 0.30000000E+03</pdfrwt>
<pdfrwt beam="2">0</pdfrwt>
<totfact> 0.51344143E+03</totfact>
</mgrwt>
</event>
<event>
 6    1  0.1280499E-001  0.3000000E+03  0.7818608E-02  0.1093470E+00
         21   -1    0    0  501  502  0.00000000000E+00  0.00000000000E+00  0.14712861455E+01  0.14712861455E+01  0.00000000000E+00 0. -1.
         13   -1    0    0    0    0 -0.00000000000E+00 -0.00000000000E+00 -0.10000000000E+04  0.10000000000E+04  0.00000000000E+00 0.  1.
    9000005    2    1    2  501    0  0.29883283943E+02  0.20437498566E+02 -0.66208028990E+03  0.66308061845E+03  0.38593099922E+01 0.  0.
         13    1    3    3    0    0  0.13990349658E+02  0.11460134259E+02 -0.35015518929E+03  0.35062190626E+03  0.00000000000E+00 0.  1.
          1    1    3    3  501    0  0.15892934285E+02  0.89773643070E+01 -0.31192510061E+03  0.31245871219E+03  0.00000000000E+00 0.  1.
         -3    1    1    2    0  502 -0.29883283943E+02 -0.20437498566E+02 -0.33644842395E+03  0.33839066770E+03  0.00000000000E+00 0. -1.
<mgrwt>
<rscale>  1 0.30000000E+03</rscale>
<asrwt>0</asrwt>
<pdfrwt beam="1">  1       21 0.53501427E-02 0.30000000E+03</pdfrwt>
<pdfrwt beam="2">0</pdfrwt>
<totfact> 0.25660132E+04</totfact>
</mgrwt>
</event>
<event>
 6    1  0.1280499E-001  0.3000000E+03  0.7818608E-02  0.1093470E+00
         21   -1    0    0  501  502  0.00000000000E+00  0.00000000000E+00  0.19348762959E+01  0.19348762959E+01  0.00000000000E+00 0. -1.
         13   -1    0    0    0    0 -0.00000000000E+00 -0.00000000000E+00 -0.10000000000E+04  0.10000000000E+04  0.00000000000E+00 0.  1.
    9000005    2    1    2  501    0 -0.14627670010E+02  0.40150381543E+02 -0.61533743829E+03  0.61682904272E+03  0.34471901049E+01 0.  0.
         13    1    3    3    0    0 -0.13507389089E+02  0.34285216899E+02 -0.53930297952E+03  0.54056047708E+03  0.00000000000E+00 0.  1.
          3    1    3    3  501    0 -0.11202809212E+01  0.58651646442E+01 -0.76034458764E+02  0.76268565643E+02  0.00000000000E+00 0.  1.
         -3    1    1    2    0  502  0.14627670010E+02 -0.40150381543E+02 -0.38272768542E+03  0.38510583358E+03  0.00000000000E+00 0. -1.
<mgrwt>
<rscale>  1 0.30000000E+03</rscale>
<asrwt>0</asrwt>
<pdfrwt beam="1">  1       21 0.70359286E-02 0.30000000E+03</pdfrwt>
<pdfrwt beam="2">0</pdfrwt>
<totfact> 0.15992135E+04</totfact>
</mgrwt>
</event>
<event>
 6    1  0.1280499E-001  0.3000000E+03  0.7818608E-02  0.1093470E+00
         21   -1    0    0  501  502  0.00000000000E+00  0.00000000000E+00  0.12027991929E+01  0.12027991929E+01  0.00000000000E+00 0. -1.
         13   -1    0    0    0    0 -0.00000000000E+00 -0.00000000000E+00 -0.10000000000E+04  0.10000000000E+04  0.00000000000E+00 0.  1.
    9000005    2    1    2  501    0 -0.32764106757E+02 -0.67242139633E+01 -0.62907502240E+03  0.62997080845E+03  0.30222419357E+01 0.  0.
         13    1    3    3    0    0 -0.22869926906E+02 -0.43202074256E+01 -0.46188036163E+03  0.46246639468E+03  0.00000000000E+00 0.  1.
          1    1    3    3  501    0 -0.98941798506E+01 -0.24040065377E+01 -0.16719466077E+03  0.16750441377E+03  0.00000000000E+00 0.  1.
         -1    1    1    2    0  502  0.32764106757E+02  0.67242139633E+01 -0.36972217841E+03  0.37123199075E+03  0.00000000000E+00 0. -1.
<mgrwt>
<rscale>  1 0.30000000E+03</rscale>
<asrwt>0</asrwt>
<pdfrwt beam="1">  1       21 0.43738245E-02 0.30000000E+03</pdfrwt>
<pdfrwt beam="2">0</pdfrwt>
<totfact> 0.36159970E+04</totfact>
</mgrwt>
</event>
<event>
 6    1  0.1280499E-001  0.3000000E+03  0.7818608E-02  0.1093470E+00
         21   -1    0    0  501  502  0.00000000000E+00  0.00000000000E+00  0.11420743259E+01  0.11420743259E+01  0.00000000000E+00 0. -1.
         13   -1    0    0    0    0 -0.00000000000E+00 -0.00000000000E+00 -0.10000000000E+04  0.10000000000E+04  0.00000000000E+00 0.  1.
    9000005    2    1    2  501    0 -0.11061882732E+02 -0.31578139942E+02 -0.55885158487E+03  0.55986537642E+03  0.38212071725E+01 0.  0.
         13    1    3    3    0    0 -0.66893808742E+01 -0.21044349080E+02 -0.33935918465E+03  0.34007685697E+03  0.00000000000E+00 0.  1.
          3    1    3    3  501    0 -0.43725018582E+01 -0.10533790862E+02 -0.21949240022E+03  0.21978851944E+03  0.00000000000E+00 0.  1.
         -3    1    1    2    0  502  0.11061882732E+02  0.31578139942E+02 -0.44000634080E+03  0.44127669791E+03  0.00000000000E+00 0. -1.
<mgrwt>
<rscale>  1 0.30000000E+03</rscale>
<asrwt>0</asrwt>
<pdfrwt beam="1">  1       21 0.41530063E-02 0.30000000E+03</pdfrwt>
<pdfrwt beam="2">0</pdfrwt>
<totfact> 0.39469063E+04</totfact>
</mgrwt>
</event>
<event>
 6    1  0.1280499E-001  0.3000000E+03  0.7818608E-02  0.1093470E+00
         21   -1    0    0  501  502  0.00000000000E+00  0.00000000000E+00  0.23804747628E+01  0.23804747628E+01  0.00000000000E+00 0. -1.
         13   -1    0    0    0    0 -0.00000000000E+00 -0.00000000000E+00 -0.10000000000E+04  0.10000000000E+04  0.00000000000E+00 0.  1.
    9000005    2    1    2  501    0 -0.87704413182E+01 -0.39725672988E+02 -0.77500405037E+03  0.77607824458E+03  0.33337494548E+01 0.  0.
         13    1    3    3    0    0 -0.49005297028E+01 -0.24412851504E+02 -0.50320748510E+03  0.50382315902E+03  0.00000000000E+00 0.  1.
          3    1    3    3  501    0 -0.38699116154E+01 -0.15312821484E+02 -0.27179656527E+03  0.27225508556E+03  0.00000000000E+00 0.  1.
         -1    1    1    2    0  502  0.87704413182E+01  0.39725672988E+02 -0.22261547487E+03  0.22630223018E+03  0.00000000000E+00 0. -1.
<mgrwt>
<rscale>  1 0.30000000E+03</rscale>
<asrwt>0</asrwt>
<pdfrwt beam="1">  1       21 0.86562901E-02 0.30000000E+03</pdfrwt>
<pdfrwt beam="2">0</pdfrwt>
<totfact> 0.11118001E+04</totfact>
</mgrwt>
</event>
<event>
 6    1  0.1280499E-001  0.3000000E+03  0.7818608E-02  0.1093470E+00
         21   -1    0    0  501  502  0.00000000000E+00  0.00000000000E+00  0.18508335766E+01  0.18508335766E+01  0.00000000000E+00 0. -1.
         13   -1    0    0    0    0 -0.00000000000E+00 -0.00000000000E+00 -0.10000000000E+04  0.10000000000E+04  0.00000000000E+00 0.  1.
    9000005    2    1    2  501    0 -0.26201602283E+02 -0.33932254740E+02 -0.46715947951E+03  0.46913330103E+03  0.31863718386E+01 0.  0.
         13    1    3    3    0    0 -0.26029767149E+01 -0.22989534998E+01 -0.44454585262E+02  0.44590030565E+02  0.00000000000E+00 0.  1.
          1    1    3    3  501    0 -0.23598625568E+02 -0.31633301240E+02 -0.42270489425E+03  0.42454327047E+03  0.00000000000E+00 0.  1.
         -3    1    1    2    0  502  0.26201602283E+02  0.33932254740E+02 -0.53098968691E+03  0.53271753254E+03  0.00000000000E+00 0. -1.
<mgrwt>
<rscale>  1 0.30000000E+03</rscale>
<asrwt>0</asrwt>
<pdfrwt beam="1">  1       21 0.67303181E-02 0.30000000E+03</pdfrwt>
<pdfrwt beam="2">0</pdfrwt>
<totfact> 0.17275328E+04</totfact>
</mgrwt>
</event>
<event>
 6    1  0.1280499E-001  0.3000000E+03  0.7818608E-02  0.1093470E+00
         21   -1    0    0  501  502  0.00000000000E+00  0.00000000000E+00  0.94929146859E+00  0.94929146859E+00  0.00000000000E+00 0. -1.
         13   -1    0    0    0    0 -0.00000000000E+00 -0.00000000000E+00 -0.10000000000E+04  0.10000000000E+04  0.00000000000E+00 0.  1.
    9000005    2    1    2  501    0 -0.30688021614E+02 -0.10770303089E+01 -0.49537128658E+03  0.49633471106E+03  0.35382437757E+01 0.  0.
         13    1    3    3    0    0 -0.10770136999E+02 -0.11028718107E+01 -0.19975487022E+03  0.20004804511E+03  0.00000000000E+00 0.  1.
          1    1    3    3  501    0 -0.19917884615E+02  0.25841501771E-01 -0.29561641636E+03  0.29628666595E+03  0.00000000000E+00 0.  1.
         -3    1    1    2    0  502  0.30688021614E+02  0.10770303089E+01 -0.50367942195E+03  0.50461458041E+03  0.00000000000E+00 0. -1.
<mgrwt>
<rscale>  1 0.30000000E+03</rscale>
<asrwt>0</asrwt>
<pdfrwt beam="1">  1       21 0.34519763E-02 0.30000000E+03</pdfrwt>
<pdfrwt beam="2">0</pdfrwt>
<totfact> 0.53847647E+04</totfact>
</mgrwt>
</event>
<event>
 6    1  0.1280499E-001  0.3000000E+03  0.7818608E-02  0.1093470E+00
         21   -1    0    0  501  502  0.00000000000E+00  0.00000000000E+00  0.20000183817E+01  0.20000183817E+01  0.00000000000E+00 0. -1.
         13   -1    0    0    0    0 -0.00000000000E+00 -0.00000000000E+00 -0.10000000000E+04  0.10000000000E+04  0.00000000000E+00 0.  1.
    9000005    2    1    2  501    0 -0.21387713932E+02 -0.25600769601E+02 -0.83233388871E+03  0.83300863383E+03  0.32936359738E+01 0.  0.
         13    1    3    3    0    0 -0.18776155591E+02 -0.23915474805E+02 -0.74978920046E+03  0.75040544979E+03  0.00000000000E+00 0.  1.
          3    1    3    3  501    0 -0.26115583411E+01 -0.16852947962E+01 -0.82544688247E+02  0.82603184039E+02  0.00000000000E+00 0.  1.
         -3    1    1    2    0  502  0.21387713932E+02  0.25600769601E+02 -0.16566609291E+03  0.16899138455E+03  0.00000000000E+00 0. -1.
<mgrwt>
<rscale>  1 0.30000000E+03</rscale>
<asrwt>0</asrwt>
<pdfrwt beam="1">  1       21 0.72728095E-02 0.30000000E+03</pdfrwt>
<pdfrwt beam="2">0</pdfrwt>
<totfact> 0.15094990E+04</totfact>
</mgrwt>
</event>
<event>
 6    1  0.1280499E-001  0.3000000E+03  0.7818608E-02  0.1093470E+00
         21   -1    0    0  501  502  0.00000000000E+00  0.00000000000E+00  0.17468595631E+01  0.17468595631E+01  0.00000000000E+00 0. -1.
         13   -1    0    0    0    0 -0.00000000000E+00 -0.00000000000E+00 -0.10000000000E+04  0.10000000000E+04  0.00000000000E+00 0.  1.
    9000005    2    1    2  501    0 -0.35484730861E+02  0.21924364255E+02 -0.50394752580E+03  0.50568447988E+03  0.37202906253E+01 0.  0.
         13    1    3    3    0    0 -0.51218724773E+01  0.23848128669E+01 -0.82391695845E+02  0.82585183019E+02  0.00000000000E+00 0.  1.
          3    1    3    3  501    0 -0.30362858384E+02  0.19539551388E+02 -0.42155582995E+03  0.42309929686E+03  0.00000000000E+00 0.  1.
         -3    1    1    2    0  502  0.35484730861E+02 -0.21924364255E+02 -0.49430561464E+03  0.49606237968E+03  0.00000000000E+00 0. -1.
<mgrwt>
<rscale>  1 0.30000000E+03</rscale>
<asrwt>0</asrwt>
<pdfrwt beam="1">  1       21 0.63522300E-02 0.30000000E+03</pdfrwt>
<pdfrwt beam="2">0</pdfrwt>
<totfact> 0.19094906E+04</totfact>
</mgrwt>
</event>
<event>
 6    1  0.1280499E-001  0.3000000E+03  0.7818608E-02  0.1093470E+00
         21   -1    0    0  501  502  0.00000000000E+00  0.00000000000E+00  0.68873477553E+01  0.68873477553E+01  0.00000000000E+00 0. -1.
         13   -1    0    0    0    0 -0.00000000000E+00 -0.00000000000E+00 -0.10000000000E+04  0.10000000000E+04  0.00000000000E+00 0.  1.
    9000005    2    1    2  501    0 -0.56832408321E+02  0.57832341286E+02 -0.60301570341E+03  0.60845274607E+03  0.35076060924E+01 0.  0.
         13    1    3    3    0    0 -0.96843534681E+01  0.81536199461E+01 -0.90799003300E+02  0.91677299375E+02  0.00000000000E+00 0.  1.
          1    1    3    3  501    0 -0.47148054853E+02  0.49678721340E+02 -0.51221670011E+03  0.51677544669E+03  0.00000000000E+00 0.  1.
         -1    1    1    2    0  502  0.56832408321E+02 -0.57832341286E+02 -0.39009694883E+03  0.39843460169E+03  0.00000000000E+00 0. -1.
<mgrwt>
<rscale>  1 0.30000000E+03</rscale>
<asrwt>0</asrwt>
<pdfrwt beam="1">  1       21 0.25044954E-01 0.30000000E+03</pdfrwt>
<pdfrwt beam="2">0</pdfrwt>
<totfact> 0.15541227E+03</totfact>
</mgrwt>
</event>
<event>
 6    1  0.1280499E-001  0.3000000E+03  0.7818608E-02  0.1093470E+00
         21   -1    0    0  501  502  0.00000000000E+00  0.00000000000E+00  0.14968040351E+01  0.14968040351E+01  0.00000000000E+00 0. -1.
         13   -1    0    0    0    0 -0.00000000000E+00 -0.00000000000E+00 -0.10000000000E+04  0.10000000000E+04  0.00000000000E+00 0.  1.
    9000005    2    1    2  501    0 -0.34028042685E+02  0.67136175363E+01 -0.72019452629E+03  0.72103522740E+03  0.29433165106E+01 0.  0.
         13    1    3    3    0    0 -0.26697678779E+01  0.80297872784E+00 -0.44069532715E+02  0.44157628436E+02  0.00000000000E+00 0.  1.
          3    1    3    3  501    0 -0.31358274807E+02  0.59106388084E+01 -0.67612499357E+03  0.67687759897E+03  0.00000000000E+00 0.  1.
         -1    1    1    2    0  502  0.34028042685E+02 -0.67136175363E+01 -0.27830866968E+03  0.28046157663E+03  0.00000000000E+00 0. -1.
<mgrwt>
<rscale>  1 0.30000000E+03</rscale>
<asrwt>0</asrwt>
<pdfrwt beam="1">  1       21 0.54429352E-02 0.30000000E+03</pdfrwt>
<pdfrwt beam="2">0</pdfrwt>
<totfact> 0.24915598E+04</totfact>
</mgrwt>
</event>
<event>
 6    1  0.1280499E-001  0.3000000E+03  0.7818608E-02  0.1093470E+00
         21   -1    0    0  501  502  0.00000000000E+00  0.00000000000E+00  0.12279361506E+01  0.12279361506E+01  0.00000000000E+00 0. -1.
         13   -1    0    0    0    0 -0.00000000000E+00 -0.00000000000E+00 -0.10000000000E+04  0.10000000000E+04  0.00000000000E+00 0.  1.
    9000005    2    1    2  501    0  0.24996392265E+02  0.22093814019E+02 -0.62967087986E+03  0.63062216142E+03  0.92702363060E+01 0.  0.
         13    1    3    3    0    0  0.26630258996E+01  0.58472989516E+01 -0.17092002347E+03  0.17104074671E+03  0.00000000000E+00 0.  1.
          1    1    3    3  501    0  0.22333366365E+02  0.16246515068E+02 -0.45875085639E+03  0.45958141471E+03  0.00000000000E+00 0.  1.
         -3    1    1    2    0  502 -0.24996392265E+02 -0.22093814019E+02 -0.36910118399E+03  0.37060577473E+03  0.00000000000E+00 0. -1.
<mgrwt>
<rscale>  1 0.30000000E+03</rscale>
<asrwt>0</asrwt>
<pdfrwt beam="1">  1       21 0.44652318E-02 0.30000000E+03</pdfrwt>
<pdfrwt beam="2">0</pdfrwt>
<totfact> 0.34914571E+04</totfact>
</mgrwt>
</event>
<event>
 6    1  0.1280499E-001  0.3000000E+03  0.7818608E-02  0.1093470E+00
         21   -1    0    0  501  502  0.00000000000E+00  0.00000000000E+00  0.27918754083E+01  0.27918754083E+01  0.00000000000E+00 0. -1.
         13   -1    0    0    0    0 -0.00000000000E+00 -0.00000000000E+00 -0.10000000000E+04  0.10000000000E+04  0.00000000000E+00 0.  1.
    9000005    2    1    2  501    0  0.88288242256E+01  0.35545327971E+02 -0.85979921566E+03  0.86058559309E+03  0.33842727034E+01 0.  0.
         13    1    3    3    0    0  0.89816561220E+01  0.34189423912E+02 -0.83634654783E+03  0.83709326536E+03  0.00000000000E+00 0.  1.
          1    1    3    3  501    0 -0.15283189639E+00  0.13559040595E+01 -0.23452667839E+02  0.23492327730E+02  0.00000000000E+00 0.  1.
         -3    1    1    2    0  502 -0.88288242256E+01 -0.35545327971E+02 -0.13740890893E+03  0.14220628232E+03  0.00000000000E+00 0. -1.
<mgrwt>
<rscale>  1 0.30000000E+03</rscale>
<asrwt>0</asrwt>
<pdfrwt beam="1">  1       21 0.10152296E-01 0.30000000E+03</pdfrwt>
<pdfrwt beam="2">0</pdfrwt>
<totfact> 0.83738518E+03</totfact>
</mgrwt>
</event>
<event>
 6    1  0.1280499E-001  0.3000000E+03  0.7818608E-02  0.1093470E+00
         21   -1    0    0  501  502  0.00000000000E+00  0.00000000000E+00  0.25463028347E+02  0.25463028347E+02  0.00000000000E+00 0. -1.
         13   -1    0    0    0    0 -0.00000000000E+00 -0.00000000000E+00 -0.10000000000E+04  0.10000000000E+04  0.00000000000E+00 0.  1.
    9000005    2    1    2  501    0 -0.66348281356E+02  0.73642884720E+02 -0.88906193750E+03  0.89457624379E+03  0.31872130770E+01 0.  0.
         13    1    3    3    0    0 -0.40106129462E+01  0.44242865919E+01 -0.60814644327E+02  0.61107121457E+02  0.00000000000E+00 0.  1.
          3    1    3    3  501    0 -0.62337668410E+02  0.69218598128E+02 -0.82824729318E+03  0.83346912233E+03  0.00000000000E+00 0.  1.
         -3    1    1    2    0  502  0.66348281356E+02 -0.73642884720E+02 -0.85475034150E+02  0.13088678456E+03  0.00000000000E+00 0. -1.
<mgrwt>
<rscale>  1 0.30000000E+03</rscale>
<asrwt>0</asrwt>
<pdfrwt beam="1">  1       21 0.92593026E-01 0.30000000E+03</pdfrwt>
<pdfrwt beam="2">0</pdfrwt>
<totfact> 0.89567740E+01</totfact>
</mgrwt>
</event>
<event>
 6    1  0.1280499E-001  0.3000000E+03  0.7818608E-02  0.1093470E+00
         21   -1    0    0  501  502  0.00000000000E+00  0.00000000000E+00  0.10309735597E+01  0.10309735597E+01  0.00000000000E+00 0. -1.
         13   -1    0    0    0    0 -0.00000000000E+00 -0.00000000000E+00 -0.10000000000E+04  0.10000000000E+04  0.00000000000E+00 0.  1.
    9000005    2    1    2  501    0  0.22915398161E+02 -0.22394275368E+02 -0.49206956099E+03  0.49311987197E+03  0.28524092931E+01 0.  0.
         13    1    3    3    0    0  0.22092788988E+02 -0.20659244312E+02 -0.46311425141E+03  0.46410096483E+03  0.00000000000E+00 0.  1.
          1    1    3    3  501    0  0.82260917282E+00 -0.17350310560E+01 -0.28955309584E+02  0.29018907142E+02  0.00000000000E+00 0.  1.
         -3    1    1    2    0  502 -0.22915398161E+02  0.22394275368E+02 -0.50689946545E+03  0.50791110159E+03  0.00000000000E+00 0. -1.
<mgrwt>
<rscale>  1 0.30000000E+03</rscale>
<asrwt>0</asrwt>
<pdfrwt beam="1">  1       21 0.37490027E-02 0.30000000E+03</pdfrwt>
<pdfrwt beam="2">0</pdfrwt>
<totfact> 0.46888213E+04</totfact>
</mgrwt>
</event>
<event>
 6    1  0.1280499E-001  0.3000000E+03  0.7818608E-02  0.1093470E+00
         21   -1    0    0  501  502  0.00000000000E+00  0.00000000000E+00  0.18187955146E+01  0.18187955146E+01  0.00000000000E+00 0. -1.
         13   -1    0    0    0    0 -0.00000000000E+00 -0.00000000000E+00 -0.10000000000E+04  0.10000000000E+04  0.00000000000E+00 0.  1.
    9000005    2    1    2  501    0 -0.14299480042E+02  0.38829956576E+02 -0.38264782087E+03  0.38489612046E+03  0.36644328303E+01 0.  0.
         13    1    3    3    0    0 -0.71750792634E+01  0.23669375710E+02 -0.23792922329E+03  0.23921127984E+03  0.00000000000E+00 0.  1.
          1    1    3    3  501    0 -0.71244007791E+01  0.15160580865E+02 -0.14471859758E+03  0.14568484062E+03  0.00000000000E+00 0.  1.
         -1    1    1    2    0  502  0.14299480042E+02 -0.38829956576E+02 -0.61553338361E+03  0.61692267506E+03  0.00000000000E+00 0. -1.
<mgrwt>
<rscale>  1 0.30000000E+03</rscale>
<asrwt>0</asrwt>
<pdfrwt beam="1">  1       21 0.66138158E-02 0.30000000E+03</pdfrwt>
<pdfrwt beam="2">0</pdfrwt>
<totfact> 0.17806467E+04</totfact>
</mgrwt>
</event>
<event>
 6    1  0.1280499E-001  0.3000000E+03  0.7818608E-02  0.1093470E+00
         21   -1    0    0  501  502  0.00000000000E+00  0.00000000000E+00  0.37161636059E+01  0.37161636059E+01  0.00000000000E+00 0. -1.
         13   -1    0    0    0    0 -0.00000000000E+00 -0.00000000000E+00 -0.10000000000E+04  0.10000000000E+04  0.00000000000E+00 0.  1.
    9000005    2    1    2  501    0  0.29707827632E+02  0.11925783353E+02 -0.92516509639E+03  0.92572478901E+03  0.33391740667E+01 0.  0.
         13    1    3    3    0    0  0.26784813355E+02  0.11747713265E+02 -0.83423002130E+03  0.83474257315E+03  0.00000000000E+00 0.  1.
          3    1    3    3  501    0  0.29230142768E+01  0.17807008720E+00 -0.90935075091E+02  0.90982215862E+02  0.00000000000E+00 0.  1.
         -3    1    1    2    0  502 -0.29707827632E+02 -0.11925783353E+02 -0.71118740007E+02  0.77991374596E+02  0.00000000000E+00 0. -1.
<mgrwt>
<rscale>  1 0.30000000E+03</rscale>
<asrwt>0</asrwt>
<pdfrwt beam="1">  1       21 0.13513351E-01 0.30000000E+03</pdfrwt>
<pdfrwt beam="2">0</pdfrwt>
<totfact> 0.49902588E+03</totfact>
</mgrwt>
</event>
<event>
 6    1  0.1280499E-001  0.3000000E+03  0.7818608E-02  0.1093470E+00
         21   -1    0    0  501  502  0.00000000000E+00  0.00000000000E+00  0.26987154473E+01  0.26987154473E+01  0.00000000000E+00 0. -1.
         13   -1    0    0    0    0 -0.00000000000E+00 -0.00000000000E+00 -0.10000000000E+04  0.10000000000E+04  0.00000000000E+00 0.  1.
    9000005    2    1    2  501    0  0.17308680003E+02  0.47506890692E+02 -0.61328844755E+03  0.61537152295E+03  0.17018490923E+01 0.  0.
         13    1    3    3    0    0  0.81440653096E+01  0.19958477827E+02 -0.26364672050E+03  0.26452648235E+03  0.00000000000E+00 0.  1.
          1    1    3    3  501    0  0.91646146935E+01  0.27548412865E+02 -0.34964172705E+03  0.35084504060E+03  0.00000000000E+00 0.  1.
         -1    1    1    2    0  502 -0.17308680003E+02 -0.47506890692E+02 -0.38401283700E+03  0.38732719250E+03  0.00000000000E+00 0. -1.
<mgrwt>
<rscale>  1 0.30000000E+03</rscale>
<asrwt>0</asrwt>
<pdfrwt beam="1">  1       21 0.98135314E-02 0.30000000E+03</pdfrwt>
<pdfrwt beam="2">0</pdfrwt>
<totfact> 0.88973104E+03</totfact>
</mgrwt>
</event>
<event>
 6    1  0.1280499E-001  0.3000000E+03  0.7818608E-02  0.1093470E+00
         21   -1    0    0  501  502  0.00000000000E+00  0.00000000000E+00  0.14788287957E+01  0.14788287957E+01  0.00000000000E+00 0. -1.
         13   -1    0    0    0    0 -0.00000000000E+00 -0.00000000000E+00 -0.10000000000E+04  0.10000000000E+04  0.00000000000E+00 0.  1.
    9000005    2    1    2  501    0  0.31208796896E+02  0.21435363916E+02 -0.58249291255E+03  0.58373132632E+03  0.32869926254E+01 0.  0.
         13    1    3    3    0    0  0.34564928175E+01  0.14613467917E+01 -0.67965109714E+02  0.68068634593E+02  0.00000000000E+00 0.  1.
          3    1    3    3  501    0  0.27752304079E+02  0.19974017124E+02 -0.51452780284E+03  0.51566269172E+03  0.00000000000E+00 0.  1.
         -3    1    1    2    0  502 -0.31208796896E+02 -0.21435363916E+02 -0.41602825865E+03  0.41774750248E+03  0.00000000000E+00 0. -1.
<mgrwt>
<rscale>  1 0.30000000E+03</rscale>
<asrwt>0</asrwt>
<pdfrwt beam="1">  1       21 0.53775706E-02 0.30000000E+03</pdfrwt>
<pdfrwt beam="2">0</pdfrwt>
<totfact> 0.25436521E+04</totfact>
</mgrwt>
</event>
<event>
 6    1  0.1280499E-001  0.3000000E+03  0.7818608E-02  0.1093470E+00
         21   -1    0    0  501  502  0.00000000000E+00  0.00000000000E+00  0.14380604859E+01  0.14380604859E+01  0.00000000000E+00 0. -1.
         13   -1    0    0    0    0 -0.00000000000E+00 -0.00000000000E+00 -0.10000000000E+04  0.10000000000E+04  0.00000000000E+00 0.  1.
    9000005    2    1    2  501    0 -0.27997298194E+02 -0.24137474317E+02 -0.60741532992E+03  0.60854858930E+03  0.33964898571E+01 0.  0.
         13    1    3    3    0    0 -0.66602709033E+01 -0.39285823872E+01 -0.12798177223E+03  0.12821515898E+03  0.00000000000E+00 0.  1.
          3    1    3    3  501    0 -0.21337027290E+02 -0.20208891930E+02 -0.47943355769E+03  0.48033343032E+03  0.00000000000E+00 0.  1.
         -3    1    1    2    0  502  0.27997298194E+02  0.24137474317E+02 -0.39114660960E+03  0.39288947119E+03  0.00000000000E+00 0. -1.
<mgrwt>
<rscale>  1 0.30000000E+03</rscale>
<asrwt>0</asrwt>
<pdfrwt beam="1">  1       21 0.52293219E-02 0.30000000E+03</pdfrwt>
<pdfrwt beam="2">0</pdfrwt>
<totfact> 0.26682297E+04</totfact>
</mgrwt>
</event>
<event>
 6    1  0.1280499E-001  0.3000000E+03  0.7818608E-02  0.1093470E+00
         21   -1    0    0  501  502  0.00000000000E+00  0.00000000000E+00  0.14406502579E+01  0.14406502579E+01  0.00000000000E+00 0. -1.
         13   -1    0    0    0    0 -0.00000000000E+00 -0.00000000000E+00 -0.10000000000E+04  0.10000000000E+04  0.00000000000E+00 0.  1.
    9000005    2    1    2  501    0  0.98599176675E+01 -0.34771843992E+02 -0.64070753425E+03  0.64176827022E+03  0.73531697739E+01 0.  0.
         13    1    3    3    0    0  0.40058353027E+01 -0.53731143776E+01 -0.93105946723E+02  0.93346849918E+02  0.00000000000E+00 0.  1.
          3    1    3    3  501    0  0.58540823648E+01 -0.29398729614E+02 -0.54760158752E+03  0.54842142030E+03  0.00000000000E+00 0.  1.
         -1    1    1    2    0  502 -0.98599176675E+01  0.34771843992E+02 -0.35785181550E+03  0.35967238004E+03  0.00000000000E+00 0. -1.
<mgrwt>
<rscale>  1 0.30000000E+03</rscale>
<asrwt>0</asrwt>
<pdfrwt beam="1">  1       21 0.52387393E-02 0.30000000E+03</pdfrwt>
<pdfrwt beam="2">0</pdfrwt>
<totfact> 0.26600377E+04</totfact>
</mgrwt>
</event>
<event>
 6    1  0.1280499E-001  0.3000000E+03  0.7818608E-02  0.1093470E+00
         21   -1    0    0  501  502  0.00000000000E+00  0.00000000000E+00  0.18073345424E+01  0.18073345424E+01  0.00000000000E+00 0. -1.
         13   -1    0    0    0    0 -0.00000000000E+00 -0.00000000000E+00 -0.10000000000E+04  0.10000000000E+04  0.00000000000E+00 0.  1.
    9000005    2    1    2  501    0 -0.12750625510E+02 -0.33192598894E+02 -0.77298326819E+03  0.77380821242E+03  0.34190101529E+01 0.  0.
         13    1    3    3    0    0 -0.87996128739E+01 -0.18502436931E+02 -0.45659918604E+03  0.45705862868E+03  0.00000000000E+00 0.  1.
          3    1    3    3  501    0 -0.39510126357E+01 -0.14690161963E+02 -0.31638408215E+03  0.31674958374E+03  0.00000000000E+00 0.  1.
         -3    1    1    2    0  502  0.12750625510E+02  0.33192598894E+02 -0.22520939726E+03  0.22799912212E+03  0.00000000000E+00 0. -1.
<mgrwt>
<rscale>  1 0.30000000E+03</rscale>
<asrwt>0</asrwt>
<pdfrwt beam="1">  1       21 0.65721395E-02 0.30000000E+03</pdfrwt>
<pdfrwt beam="2">0</pdfrwt>
<totfact> 0.18002595E+04</totfact>
</mgrwt>
</event>
<event>
 6    1  0.1280499E-001  0.3000000E+03  0.7818608E-02  0.1093470E+00
         21   -1    0    0  501  502  0.00000000000E+00  0.00000000000E+00  0.71765280870E+01  0.71765280870E+01  0.00000000000E+00 0. -1.
         13   -1    0    0    0    0 -0.00000000000E+00 -0.00000000000E+00 -0.10000000000E+04  0.10000000000E+04  0.00000000000E+00 0.  1.
    9000005    2    1    2  501    0  0.23608672694E+02  0.23954929805E+02 -0.95858899906E+03  0.95918478692E+03  0.33731675433E+01 0.  0.
         13    1    3    3    0    0  0.17928433538E+02  0.16016509525E+02 -0.68077210272E+03  0.68119645708E+03  0.00000000000E+00 0.  1.
          1    1    3    3  501    0  0.56802391566E+01  0.79384202801E+01 -0.27781689634E+03  0.27798832984E+03  0.00000000000E+00 0.  1.
         -1    1    1    2    0  502 -0.23608672694E+02 -0.23954929805E+02 -0.34234472854E+02  0.47991741164E+02  0.00000000000E+00 0. -1.
<mgrwt>
<rscale>  1 0.30000000E+03</rscale>
<asrwt>0</asrwt>
<pdfrwt beam="1">  1       21 0.26096521E-01 0.30000000E+03</pdfrwt>
<pdfrwt beam="2">0</pdfrwt>
<totfact> 0.14335228E+03</totfact>
</mgrwt>
</event>
<event>
 6    1  0.1280499E-001  0.3000000E+03  0.7818608E-02  0.1093470E+00
         21   -1    0    0  501  502  0.00000000000E+00  0.00000000000E+00  0.13368902578E+01  0.13368902578E+01  0.00000000000E+00 0. -1.
         13   -1    0    0    0    0 -0.00000000000E+00 -0.00000000000E+00 -0.10000000000E+04  0.10000000000E+04  0.00000000000E+00 0.  1.
    9000005    2    1    2  501    0  0.33470908495E+02  0.38720843095E+01 -0.69214408235E+03  0.69297150811E+03  0.32841392938E+01 0.  0.
         13    1    3    3    0    0  0.21984155484E+02  0.41026376068E+01 -0.45981848614E+03  0.46036200422E+03  0.00000000000E+00 0.  1.
          1    1    3    3  501    0  0.11486753010E+02 -0.23055329729E+00 -0.23232559620E+03  0.23260950389E+03  0.00000000000E+00 0.  1.
         -3    1    1    2    0  502 -0.33470908495E+02 -0.38720843095E+01 -0.30651902740E+03  0.30836538215E+03  0.00000000000E+00 0. -1.
<mgrwt>
<rscale>  1 0.30000000E+03</rscale>
<asrwt>0</asrwt>
<pdfrwt beam="1">  1       21 0.48614294E-02 0.30000000E+03</pdfrwt>
<pdfrwt beam="2">0</pdfrwt>
<totfact> 0.30217378E+04</totfact>
</mgrwt>
</event>
<event>
 6    1  0.1280499E-001  0.3000000E+03  0.7818608E-02  0.1093470E+00
         21   -1    0    0  501  502  0.00000000000E+00  0.00000000000E+00  0.30457800917E+01  0.30457800917E+01  0.00000000000E+00 0. -1.
         13   -1    0    0    0    0 -0.00000000000E+00 -0.00000000000E+00 -0.10000000000E+04  0.10000000000E+04  0.00000000000E+00 0.  1.
    9000005    2    1    2  501    0 -0.29973214026E+02  0.43770893146E+02 -0.63263338265E+03  0.63488283097E+03  0.60768059645E+01 0.  0.
         13    1    3    3    0    0 -0.17594124309E+02  0.21725601951E+02 -0.35642378967E+03  0.35751849300E+03  0.00000000000E+00 0.  1.
          3    1    3    3  501    0 -0.12379089717E+02  0.22045291195E+02 -0.27620959298E+03  0.27736433798E+03  0.00000000000E+00 0.  1.
         -1    1    1    2    0  502  0.29973214026E+02 -0.43770893146E+02 -0.36432083725E+03  0.36816294912E+03  0.00000000000E+00 0. -1.
<mgrwt>
<rscale>  1 0.30000000E+03</rscale>
<asrwt>0</asrwt>
<pdfrwt beam="1">  1       21 0.11075587E-01 0.30000000E+03</pdfrwt>
<pdfrwt beam="2">0</pdfrwt>
<totfact> 0.71631956E+03</totfact>
</mgrwt>
</event>
<event>
 6    1  0.1280499E-001  0.3000000E+03  0.7818608E-02  0.1093470E+00
         21   -1    0    0  501  502  0.00000000000E+00  0.00000000000E+00  0.94412251347E+00  0.94412251347E+00  0.00000000000E+00 0. -1.
         13   -1    0    0    0    0 -0.00000000000E+00 -0.00000000000E+00 -0.10000000000E+04  0.10000000000E+04  0.00000000000E+00 0.  1.
    9000005    2    1    2  501    0 -0.29564639970E+02  0.57133240128E+01 -0.58113183261E+03  0.58193670337E+03  0.54230852384E+01 0.  0.
         13    1    3    3    0    0 -0.23840088778E+01  0.19260537513E+01 -0.46386657702E+02  0.46487796185E+02  0.00000000000E+00 0.  1.
          1    1    3    3  501    0 -0.27180631092E+02  0.37872702614E+01 -0.53474517491E+03  0.53544890719E+03  0.00000000000E+00 0.  1.
         -3    1    1    2    0  502  0.29564639970E+02 -0.57133240128E+01 -0.41792404488E+03  0.41900741914E+03  0.00000000000E+00 0. -1.
<mgrwt>
<rscale>  1 0.30000000E+03</rscale>
<asrwt>0</asrwt>
<pdfrwt beam="1">  1       21 0.34331800E-02 0.30000000E+03</pdfrwt>
<pdfrwt beam="2">0</pdfrwt>
<totfact> 0.54341625E+04</totfact>
</mgrwt>
</event>
<event>
 6    1  0.1280499E-001  0.3000000E+03  0.7818608E-02  0.1093470E+00
         21   -1    0    0  501  502  0.00000000000E+00  0.00000000000E+00  0.19889968835E+01  0.19889968835E+01  0.00000000000E+00 0. -1.
         13   -1    0    0    0    0 -0.00000000000E+00 -0.00000000000E+00 -0.10000000000E+04  0.10000000000E+04  0.00000000000E+00 0.  1.
    9000005    2    1    2  501    0 -0.29979842787E+02 -0.32625995340E+02 -0.45053057888E+03  0.45271851573E+03  0.36063045697E+01 0.  0.
         13    1    3    3    0    0 -0.23352958320E+02 -0.27402653243E+02 -0.36926860758E+03  0.37101963642E+03  0.00000000000E+00 0.  1.
          1    1    3    3  501    0 -0.66268844669E+01 -0.52233420968E+01 -0.81261971303E+02  0.81698879310E+02  0.00000000000E+00 0.  1.
         -3    1    1    2    0  502  0.29979842787E+02  0.32625995340E+02 -0.54748042423E+03  0.54927048115E+03  0.00000000000E+00 0. -1.
<mgrwt>
<rscale>  1 0.30000000E+03</rscale>
<asrwt>0</asrwt>
<pdfrwt beam="1">  1       21 0.72327312E-02 0.30000000E+03</pdfrwt>
<pdfrwt beam="2">0</pdfrwt>
<totfact> 0.15241311E+04</totfact>
</mgrwt>
</event>
<event>
 6    1  0.1280499E-001  0.3000000E+03  0.7818608E-02  0.1093470E+00
         21   -1    0    0  501  502  0.00000000000E+00  0.00000000000E+00  0.30666517275E+01  0.30666517275E+01  0.00000000000E+00 0. -1.
         13   -1    0    0    0    0 -0.00000000000E+00 -0.00000000000E+00 -0.10000000000E+04  0.10000000000E+04  0.00000000000E+00 0.  1.
    9000005    2    1    2  501    0 -0.28017432155E+02 -0.19050876718E+02 -0.89507775835E+03  0.89572386619E+03  0.30230056357E+01 0.  0.
         13    1    3    3    0    0 -0.19639974018E+02 -0.14317320168E+02 -0.61107827998E+03  0.61156142660E+03  0.00000000000E+00 0.  1.
          1    1    3    3  501    0 -0.83774581376E+01 -0.47335565496E+01 -0.28399947836E+03  0.28416243959E+03  0.00000000000E+00 0.  1.
         -1    1    1    2    0  502  0.28017432155E+02  0.19050876718E+02 -0.10185558992E+03  0.10734278554E+03  0.00000000000E+00 0. -1.
<mgrwt>
<rscale>  1 0.30000000E+03</rscale>
<asrwt>0</asrwt>
<pdfrwt beam="1">  1       21 0.11151484E-01 0.30000000E+03</pdfrwt>
<pdfrwt beam="2">0</pdfrwt>
<totfact> 0.70756438E+03</totfact>
</mgrwt>
</event>
<event>
 6    1  0.1280499E-001  0.3000000E+03  0.7818608E-02  0.1093470E+00
         21   -1    0    0  501  502  0.00000000000E+00  0.00000000000E+00  0.30840138157E+01  0.30840138157E+01  0.00000000000E+00 0. -1.
         13   -1    0    0    0    0 -0.00000000000E+00 -0.00000000000E+00 -0.10000000000E+04  0.10000000000E+04  0.00000000000E+00 0.  1.
    9000005    2    1    2  501    0 -0.32979342279E+02 -0.25573878126E+02 -0.82899833022E+03  0.83005800582E+03  0.40498460552E+01 0.  0.
         13    1    3    3    0    0 -0.28905972141E+02 -0.20861088366E+02 -0.69014297333E+03  0.69106299558E+03  0.00000000000E+00 0.  1.
          3    1    3    3  501    0 -0.40733701383E+01 -0.47127897605E+01 -0.13885535689E+03  0.13899501023E+03  0.00000000000E+00 0.  1.
         -1    1    1    2    0  502  0.32979342279E+02  0.25573878126E+02 -0.16791765596E+03  0.17302600800E+03  0.00000000000E+00 0. -1.
<mgrwt>
<rscale>  1 0.30000000E+03</rscale>
<asrwt>0</asrwt>
<pdfrwt beam="1">  1       21 0.11214619E-01 0.30000000E+03</pdfrwt>
<pdfrwt beam="2">0</pdfrwt>
<totfact> 0.70040351E+03</totfact>
</mgrwt>
</event>
<event>
 6    1  0.1280499E-001  0.3000000E+03  0.7818608E-02  0.1093470E+00
         21   -1    0    0  501  502  0.00000000000E+00  0.00000000000E+00  0.95160911658E+00  0.95160911658E+00  0.00000000000E+00 0. -1.
         13   -1    0    0    0    0 -0.00000000000E+00 -0.00000000000E+00 -0.10000000000E+04  0.10000000000E+04  0.00000000000E+00 0.  1.
    9000005    2    1    2  501    0 -0.30021146514E+02 -0.66494472453E+01 -0.51450270959E+03  0.51543126800E+03  0.32968864899E+01 0.  0.
         13    1    3    3    0    0 -0.20472489074E+02 -0.46143580805E+01 -0.32451084826E+03  0.32518872328E+03  0.00000000000E+00 0.  1.
          1    1    3    3  501    0 -0.95486574400E+01 -0.20350891648E+01 -0.18999186134E+03  0.19024254472E+03  0.00000000000E+00 0.  1.
         -1    1    1    2    0  502  0.30021146514E+02  0.66494472453E+01 -0.48454568129E+03  0.48552034112E+03  0.00000000000E+00 0. -1.
<mgrwt>
<rscale>  1 0.30000000E+03</rscale>
<asrwt>0</asrwt>
<pdfrwt beam="1">  1       21 0.34604041E-02 0.30000000E+03</pdfrwt>
<pdfrwt beam="2">0</pdfrwt>
<totfact> 0.53628424E+04</totfact>
</mgrwt>
</event>
<event>
 6    1  0.1280499E-001  0.3000000E+03  0.7818608E-02  0.1093470E+00
         21   -1    0    0  501  502  0.00000000000E+00  0.00000000000E+00  0.15608321560E+02  0.15608321560E+02  0.00000000000E+00 0. -1.
         13   -1    0    0    0    0 -0.00000000000E+00 -0.00000000000E+00 -0.10000000000E+04  0.10000000000E+04  0.00000000000E+00 0.  1.
    9000005    2    1    2  501    0 -0.24057866543E+02 -0.43040339242E+02 -0.95876532528E+03  0.96003889003E+03  0.35312405784E+01 0.  0.
         13    1    3    3    0    0 -0.15953542568E+02 -0.26650862053E+02 -0.63092512211E+03  0.63168923821E+03  0.00000000000E+00 0.  1.
          1    1    3    3  501    0 -0.81043239747E+01 -0.16389477189E+02 -0.32784020317E+03  0.32834965181E+03  0.00000000000E+00 0.  1.
         -1    1    1    2    0  502  0.24057866543E+02  0.43040339242E+02 -0.25626353161E+02  0.55569431534E+02  0.00000000000E+00 0. -1.
<mgrwt>
<rscale>  1 0.30000000E+03</rscale>
<asrwt>0</asrwt>
<pdfrwt beam="1">  1       21 0.56757653E-01 0.30000000E+03</pdfrwt>
<pdfrwt beam="2">0</pdfrwt>
<totfact> 0.28432917E+02</totfact>
</mgrwt>
</event>
<event>
 6    1  0.1280499E-001  0.3000000E+03  0.7818608E-02  0.1093470E+00
         21   -1    0    0  501  502  0.00000000000E+00  0.00000000000E+00  0.16267591249E+01  0.16267591249E+01  0.00000000000E+00 0. -1.
         13   -1    0    0    0    0 -0.00000000000E+00 -0.00000000000E+00 -0.10000000000E+04  0.10000000000E+04  0.00000000000E+00 0.  1.
    9000005    2    1    2  501    0  0.19300347595E+01  0.39917360884E+02 -0.56001043642E+03  0.56144603594E+03  0.35835232521E+01 0.  0.
         13    1    3    3    0    0  0.18413094340E+01  0.34828475587E+02 -0.50371030238E+03  0.50491631174E+03  0.00000000000E+00 0.  1.
          1    1    3    3  501    0  0.88725325557E-01  0.50888852974E+01 -0.56300134038E+02  0.56529724203E+02  0.00000000000E+00 0.  1.
         -3    1    1    2    0  502 -0.19300347595E+01 -0.39917360884E+02 -0.43836280445E+03  0.44018072318E+03  0.00000000000E+00 0. -1.
<mgrwt>
<rscale>  1 0.30000000E+03</rscale>
<asrwt>0</asrwt>
<pdfrwt beam="1">  1       21 0.59155002E-02 0.30000000E+03</pdfrwt>
<pdfrwt beam="2">0</pdfrwt>
<totfact> 0.21593317E+04</totfact>
</mgrwt>
</event>
<event>
 6    1  0.1280499E-001  0.3000000E+03  0.7818608E-02  0.1093470E+00
         21   -1    0    0  501  502  0.00000000000E+00  0.00000000000E+00  0.53211452200E+01  0.53211452200E+01  0.00000000000E+00 0. -1.
         13   -1    0    0    0    0 -0.00000000000E+00 -0.00000000000E+00 -0.10000000000E+04  0.10000000000E+04  0.00000000000E+00 0.  1.
    9000005    2    1    2  501    0  0.90620119863E+01  0.71082435361E+02 -0.59041272339E+03  0.59475332175E+03  0.30817391753E+01 0.  0.
         13    1    3    3    0    0  0.40736224730E+01  0.42168508177E+02 -0.34223015367E+03  0.34484236335E+03  0.00000000000E+00 0.  1.
          1    1    3    3  501    0  0.49883895133E+01  0.28913927183E+02 -0.24818256972E+03  0.24991095840E+03  0.00000000000E+00 0.  1.
         -1    1    1    2    0  502 -0.90620119863E+01 -0.71082435361E+02 -0.40426613139E+03  0.41056782347E+03  0.00000000000E+00 0. -1.
<mgrwt>
<rscale>  1 0.30000000E+03</rscale>
<asrwt>0</asrwt>
<pdfrwt beam="1">  1       21 0.19349660E-01 0.30000000E+03</pdfrwt>
<pdfrwt beam="2">0</pdfrwt>
<totfact> 0.25551200E+03</totfact>
</mgrwt>
</event>
<event>
 6    1  0.1280499E-001  0.3000000E+03  0.7818608E-02  0.1093470E+00
         21   -1    0    0  501  502  0.00000000000E+00  0.00000000000E+00  0.37107751277E+01  0.37107751277E+01  0.00000000000E+00 0. -1.
         13   -1    0    0    0    0 -0.00000000000E+00 -0.00000000000E+00 -0.10000000000E+04  0.10000000000E+04  0.00000000000E+00 0.  1.
    9000005    2    1    2  501    0 -0.26520663642E+02 -0.39282112278E+02 -0.81314327615E+03  0.81453131409E+03  0.35838723124E+01 0.  0.
         13    1    3    3    0    0 -0.17647108441E+02 -0.24164093894E+02 -0.53519978354E+03  0.53603556988E+03  0.00000000000E+00 0.  1.
          3    1    3    3  501    0 -0.88735552003E+01 -0.15118018384E+02 -0.27794349261E+03  0.27849574421E+03  0.00000000000E+00 0.  1.
         -1    1    1    2    0  502  0.26520663642E+02  0.39282112278E+02 -0.18314594872E+03  0.18917946104E+03  0.00000000000E+00 0. -1.
<mgrwt>
<rscale>  1 0.30000000E+03</rscale>
<asrwt>0</asrwt>
<pdfrwt beam="1">  1       21 0.13493756E-01 0.30000000E+03</pdfrwt>
<pdfrwt beam="2">0</pdfrwt>
<totfact> 0.50035387E+03</totfact>
</mgrwt>
</event>
<event>
 6    1  0.1280499E-001  0.3000000E+03  0.7818608E-02  0.1093470E+00
         21   -1    0    0  501  502  0.00000000000E+00  0.00000000000E+00  0.15336200063E+01  0.15336200063E+01  0.00000000000E+00 0. -1.
         13   -1    0    0    0    0 -0.00000000000E+00 -0.00000000000E+00 -0.10000000000E+04  0.10000000000E+04  0.00000000000E+00 0.  1.
    9000005    2    1    2  501    0 -0.82835880293E+01 -0.37230888384E+02 -0.60924166379E+03  0.61044458080E+03  0.35248339786E+01 0.  0.
         13    1    3    3    0    0 -0.34678078934E+01 -0.22523801403E+02 -0.37626664247E+03  0.37695614275E+03  0.00000000000E+00 0.  1.
          1    1    3    3  501    0 -0.48157801359E+01 -0.14707086981E+02 -0.23297502132E+03  0.23348843805E+03  0.00000000000E+00 0.  1.
         -3    1    1    2    0  502  0.82835880293E+01  0.37230888384E+02 -0.38922471621E+03  0.39108903920E+03  0.00000000000E+00 0. -1.
<mgrwt>
<rscale>  1 0.30000000E+03</rscale>
<asrwt>0</asrwt>
<pdfrwt beam="1">  1       21 0.55768118E-02 0.30000000E+03</pdfrwt>
<pdfrwt beam="2">0</pdfrwt>
<totfact> 0.23898697E+04</totfact>
</mgrwt>
</event>
<event>
 6    1  0.1280499E-001  0.3000000E+03  0.7818608E-02  0.1093470E+00
         21   -1    0    0  501  502  0.00000000000E+00  0.00000000000E+00  0.13794409718E+01  0.13794409718E+01  0.00000000000E+00 0. -1.
         13   -1    0    0    0    0 -0.00000000000E+00 -0.00000000000E+00 -0.10000000000E+04  0.10000000000E+04  0.00000000000E+00 0.  1.
    9000005    2    1    2  501    0  0.30658024531E+02 -0.68804807876E+01 -0.76542867918E+03  0.76608025204E+03  0.32610079583E+01 0.  0.
         13    1    3    3    0    0  0.68155500043E+01 -0.26417103638E+01 -0.15779825039E+03  0.15796745925E+03  0.00000000000E+00 0.  1.
          1    1    3    3  501    0  0.23842474527E+02 -0.42387704238E+01 -0.60763042879E+03  0.60811279280E+03  0.00000000000E+00 0.  1.
         -1    1    1    2    0  502 -0.30658024531E+02  0.68804807876E+01 -0.23319187985E+03  0.23529918893E+03  0.00000000000E+00 0. -1.
<mgrwt>
<rscale>  1 0.30000000E+03</rscale>
<asrwt>0</asrwt>
<pdfrwt beam="1">  1       21 0.50161596E-02 0.30000000E+03</pdfrwt>
<pdfrwt beam="2">0</pdfrwt>
<totfact> 0.28646634E+04</totfact>
</mgrwt>
</event>
<event>
 6    1  0.1280499E-001  0.3000000E+03  0.7818608E-02  0.1093470E+00
         21   -1    0    0  501  502  0.00000000000E+00  0.00000000000E+00  0.13067382905E+01  0.13067382905E+01  0.00000000000E+00 0. -1.
         13   -1    0    0    0    0 -0.00000000000E+00 -0.00000000000E+00 -0.10000000000E+04  0.10000000000E+04  0.00000000000E+00 0.  1.
    9000005    2    1    2  501    0  0.23834519229E+02 -0.19833591918E+02 -0.75576943587E+03  0.75641198368E+03  0.31926766757E+01 0.  0.
         13    1    3    3    0    0  0.20247540213E+02 -0.17975911977E+02 -0.67192065885E+03  0.67246596054E+03  0.00000000000E+00 0.  1.
          3    1    3    3  501    0  0.35869790157E+01 -0.18576799407E+01 -0.83848777023E+02  0.83946023143E+02  0.00000000000E+00 0.  1.
         -3    1    1    2    0  502 -0.23834519229E+02  0.19833591918E+02 -0.24292382584E+03  0.24489475461E+03  0.00000000000E+00 0. -1.
<mgrwt>
<rscale>  1 0.30000000E+03</rscale>
<asrwt>0</asrwt>
<pdfrwt beam="1">  1       21 0.47517856E-02 0.30000000E+03</pdfrwt>
<pdfrwt beam="2">0</pdfrwt>
<totfact> 0.31413461E+04</totfact>
</mgrwt>
</event>
<event>
 6    1  0.1280499E-001  0.3000000E+03  0.7818608E-02  0.1093470E+00
         21   -1    0    0  501  502  0.00000000000E+00  0.00000000000E+00  0.11897709705E+01  0.11897709705E+01  0.00000000000E+00 0. -1.
         13   -1    0    0    0    0 -0.00000000000E+00 -0.00000000000E+00 -0.10000000000E+04  0.10000000000E+04  0.00000000000E+00 0.  1.
    9000005    2    1    2  501    0  0.26769073836E+02 -0.21036160419E+02 -0.57183274196E+03  0.57285709906E+03  0.36698515329E+01 0.  0.
         13    1    3    3    0    0  0.25317887781E+02 -0.19035767876E+02 -0.54025553135E+03  0.54118332850E+03  0.00000000000E+00 0.  1.
          3    1    3    3  501    0  0.14511860557E+01 -0.20003925428E+01 -0.31577210612E+02  0.31673770558E+02  0.00000000000E+00 0.  1.
         -1    1    1    2    0  502 -0.26769073836E+02  0.21036160419E+02 -0.42697748707E+03  0.42833267191E+03  0.00000000000E+00 0. -1.
<mgrwt>
<rscale>  1 0.30000000E+03</rscale>
<asrwt>0</asrwt>
<pdfrwt beam="1">  1       21 0.43264490E-02 0.30000000E+03</pdfrwt>
<pdfrwt beam="2">0</pdfrwt>
<totfact> 0.36832696E+04</totfact>
</mgrwt>
</event>
<event>
 6    1  0.1280499E-001  0.3000000E+03  0.7818608E-02  0.1093470E+00
         21   -1    0    0  501  502  0.00000000000E+00  0.00000000000E+00  0.12916032826E+01  0.12916032826E+01  0.00000000000E+00 0. -1.
         13   -1    0    0    0    0 -0.00000000000E+00 -0.00000000000E+00 -0.10000000000E+04  0.10000000000E+04  0.00000000000E+00 0.  1.
    9000005    2    1    2  501    0  0.29149281287E+02  0.17383328017E+02 -0.66177734391E+03  0.66265552275E+03  0.33508545200E+01 0.  0.
         13    1    3    3    0    0  0.22397867271E+02  0.14461200102E+02 -0.53717768990E+03  0.53783888042E+03  0.00000000000E+00 0.  1.
          1    1    3    3  501    0  0.67514140161E+01  0.29221279152E+01 -0.12459965401E+03  0.12481664233E+03  0.00000000000E+00 0.  1.
         -3    1    1    2    0  502 -0.29149281287E+02 -0.17383328017E+02 -0.33693105281E+03  0.33863608053E+03  0.00000000000E+00 0. -1.
<mgrwt>
<rscale>  1 0.30000000E+03</rscale>
<asrwt>0</asrwt>
<pdfrwt beam="1">  1       21 0.46967491E-02 0.30000000E+03</pdfrwt>
<pdfrwt beam="2">0</pdfrwt>
<totfact> 0.32042005E+04</totfact>
</mgrwt>
</event>
<event>
 6    1  0.1280499E-001  0.3000000E+03  0.7818608E-02  0.1093470E+00
         21   -1    0    0  501  502  0.00000000000E+00  0.00000000000E+00  0.21710151890E+01  0.21710151890E+01  0.00000000000E+00 0. -1.
         13   -1    0    0    0    0 -0.00000000000E+00 -0.00000000000E+00 -0.10000000000E+04  0.10000000000E+04  0.00000000000E+00 0.  1.
    9000005    2    1    2  501    0 -0.46355772746E+02 -0.31880460210E+01 -0.47177546813E+03  0.47406939266E+03  0.32673267879E+01 0.  0.
         13    1    3    3    0    0 -0.41833914738E+02 -0.18977297836E+01 -0.42493355287E+03  0.42699203992E+03  0.00000000000E+00 0.  1.
          3    1    3    3  501    0 -0.45218580085E+01 -0.12903162373E+01 -0.46841915255E+02  0.47077352736E+02  0.00000000000E+00 0.  1.
         -3    1    1    2    0  502  0.46355772746E+02  0.31880460210E+01 -0.52605351668E+03  0.52810162253E+03  0.00000000000E+00 0. -1.
<mgrwt>
<rscale>  1 0.30000000E+03</rscale>
<asrwt>0</asrwt>
<pdfrwt beam="1">  1       21 0.78946173E-02 0.30000000E+03</pdfrwt>
<pdfrwt beam="2">0</pdfrwt>
<totfact> 0.13074768E+04</totfact>
</mgrwt>
</event>
<event>
 6    1  0.1280499E-001  0.3000000E+03  0.7818608E-02  0.1093470E+00
         21   -1    0    0  501  502  0.00000000000E+00  0.00000000000E+00  0.34124353220E+01  0.34124353220E+01  0.00000000000E+00 0. -1.
         13   -1    0    0    0    0 -0.00000000000E+00 -0.00000000000E+00 -0.10000000000E+04  0.10000000000E+04  0.00000000000E+00 0.  1.
    9000005    2    1    2  501    0 -0.30315924703E+02 -0.31606608314E+02 -0.82965920658E+03  0.83083459863E+03  0.58050184595E+01 0.  0.
         13    1    3    3    0    0 -0.11882510691E+02 -0.85140800843E+01 -0.26521176596E+03  0.26561431517E+03  0.00000000000E+00 0.  1.
          3    1    3    3  501    0 -0.18433414012E+02 -0.23092528230E+02 -0.56444744062E+03  0.56522028346E+03  0.00000000000E+00 0.  1.
         -1    1    1    2    0  502  0.30315924703E+02  0.31606608314E+02 -0.16692835810E+03  0.17257783669E+03  0.00000000000E+00 0. -1.
<mgrwt>
<rscale>  1 0.30000000E+03</rscale>
<asrwt>0</asrwt>
<pdfrwt beam="1">  1       21 0.12408882E-01 0.30000000E+03</pdfrwt>
<pdfrwt beam="2">0</pdfrwt>
<totfact> 0.58308605E+03</totfact>
</mgrwt>
</event>
<event>
 6    1  0.1280499E-001  0.3000000E+03  0.7818608E-02  0.1093470E+00
         21   -1    0    0  501  502  0.00000000000E+00  0.00000000000E+00  0.22174674951E+01  0.22174674951E+01  0.00000000000E+00 0. -1.
         13   -1    0    0    0    0 -0.00000000000E+00 -0.00000000000E+00 -0.10000000000E+04  0.10000000000E+04  0.00000000000E+00 0.  1.
    9000005    2    1    2  501    0  0.17742252427E+02 -0.33608954027E+02 -0.79445808293E+03  0.79537167685E+03  0.28477171424E+01 0.  0.
         13    1    3    3    0    0  0.10651733052E+00 -0.90256926741E+00 -0.25753477886E+02  0.25769509123E+02  0.00000000000E+00 0.  1.
          1    1    3    3  501    0  0.17635735097E+02 -0.32706384760E+02 -0.76870460505E+03  0.76960216773E+03  0.00000000000E+00 0.  1.
         -1    1    1    2    0  502 -0.17742252427E+02  0.33608954027E+02 -0.20332444957E+03  0.20684579064E+03  0.00000000000E+00 0. -1.
<mgrwt>
<rscale>  1 0.30000000E+03</rscale>
<asrwt>0</asrwt>
<pdfrwt beam="1">  1       21 0.80635352E-02 0.30000000E+03</pdfrwt>
<pdfrwt beam="2">0</pdfrwt>
<totfact> 0.12597570E+04</totfact>
</mgrwt>
</event>
<event>
 6    1  0.1280499E-001  0.3000000E+03  0.7818608E-02  0.1093470E+00
         21   -1    0    0  501  502  0.00000000000E+00  0.00000000000E+00  0.34214767095E+01  0.34214767095E+01  0.00000000000E+00 0. -1.
         13   -1    0    0    0    0 -0.00000000000E+00 -0.00000000000E+00 -0.10000000000E+04  0.10000000000E+04  0.00000000000E+00 0.  1.
    9000005    2    1    2  501    0  0.36455429283E+02 -0.25313048589E+02 -0.82488500349E+03  0.82608447128E+03  0.32459135899E+01 0.  0.
         13    1    3    3    0    0  0.35301776538E+02 -0.23803662696E+02 -0.79467276670E+03  0.79581256331E+03  0.00000000000E+00 0.  1.
          1    1    3    3  501    0  0.11536527453E+01 -0.15093858939E+01 -0.30212236782E+02  0.30271907965E+02  0.00000000000E+00 0.  1.
         -1    1    1    2    0  502 -0.36455429283E+02  0.25313048589E+02 -0.17169351981E+03  0.17733700543E+03  0.00000000000E+00 0. -1.
<mgrwt>
<rscale>  1 0.30000000E+03</rscale>
<asrwt>0</asrwt>
<pdfrwt beam="1">  1       21 0.12441760E-01 0.30000000E+03</pdfrwt>
<pdfrwt beam="2">0</pdfrwt>
<totfact> 0.58028369E+03</totfact>
</mgrwt>
</event>
<event>
 6    1  0.1280499E-001  0.3000000E+03  0.7818608E-02  0.1093470E+00
         21   -1    0    0  501  502  0.00000000000E+00  0.00000000000E+00  0.14617671420E+01  0.14617671420E+01  0.00000000000E+00 0. -1.
         13   -1    0    0    0    0 -0.00000000000E+00 -0.00000000000E+00 -0.10000000000E+04  0.10000000000E+04  0.00000000000E+00 0.  1.
    9000005    2    1    2  501    0  0.14940864309E+02  0.31971836970E+02 -0.68927907965E+03  0.69019556013E+03  0.43397917843E+01 0.  0.
         13    1    3    3    0    0  0.12010988559E+02  0.27192282560E+02 -0.60535179101E+03  0.60608124452E+03  0.00000000000E+00 0.  1.
          1    1    3    3  501    0  0.29298757497E+01  0.47795544096E+01 -0.83927288635E+02  0.84114315606E+02  0.00000000000E+00 0.  1.
         -3    1    1    2    0  502 -0.14940864309E+02 -0.31971836970E+02 -0.30925915321E+03  0.31126620701E+03  0.00000000000E+00 0. -1.
<mgrwt>
<rscale>  1 0.30000000E+03</rscale>
<asrwt>0</asrwt>
<pdfrwt beam="1">  1       21 0.53155281E-02 0.30000000E+03</pdfrwt>
<pdfrwt beam="2">0</pdfrwt>
<totfact> 0.25946699E+04</totfact>
</mgrwt>
</event>
<event>
 6    1  0.1280499E-001  0.3000000E+03  0.7818608E-02  0.1093470E+00
         21   -1    0    0  501  502  0.00000000000E+00  0.00000000000E+00  0.12258324707E+01  0.12258324707E+01  0.00000000000E+00 0. -1.
         13   -1    0    0    0    0 -0.00000000000E+00 -0.00000000000E+00 -0.10000000000E+04  0.10000000000E+04  0.00000000000E+00 0.  1.
    9000005    2    1    2  501    0  0.30474823673E+02 -0.15249079520E+02 -0.39435332857E+03  0.39584512591E+03  0.41912588561E+01 0.  0.
         13    1    3    3    0    0  0.20542679138E+02 -0.80685910671E+01 -0.25751023997E+03  0.25845430450E+03  0.00000000000E+00 0.  1.
          3    1    3    3  501    0  0.99321445349E+01 -0.71804884524E+01 -0.13684308860E+03  0.13739082141E+03  0.00000000000E+00 0.  1.
         -3    1    1    2    0  502 -0.30474823673E+02  0.15249079520E+02 -0.60442083896E+03  0.60538070656E+03  0.00000000000E+00 0. -1.
<mgrwt>
<rscale>  1 0.30000000E+03</rscale>
<asrwt>0</asrwt>
<pdfrwt beam="1">  1       21 0.44575820E-02 0.30000000E+03</pdfrwt>
<pdfrwt beam="2">0</pdfrwt>
<totfact> 0.35016237E+04</totfact>
</mgrwt>
</event>
<event>
 6    1  0.1280499E-001  0.3000000E+03  0.7818608E-02  0.1093470E+00
         21   -1    0    0  501  502  0.00000000000E+00  0.00000000000E+00  0.20298942324E+01  0.20298942324E+01  0.00000000000E+00 0. -1.
         13   -1    0    0    0    0 -0.00000000000E+00 -0.00000000000E+00 -0.10000000000E+04  0.10000000000E+04  0.00000000000E+00 0.  1.
    9000005    2    1    2  501    0 -0.35952112839E+02 -0.78777795445E+00 -0.80041709700E+03  0.80123057579E+03  0.31195204312E+01 0.  0.
         13    1    3    3    0    0 -0.29632428458E+02 -0.68077995010E+00 -0.68421418290E+03  0.68485589167E+03  0.00000000000E+00 0.  1.
          3    1    3    3  501    0 -0.63196843812E+01 -0.10699800435E+00 -0.11620291410E+03  0.11637468412E+03  0.00000000000E+00 0.  1.
         -3    1    1    2    0  502  0.35952112839E+02  0.78777795445E+00 -0.19755300877E+03  0.20079931844E+03  0.00000000000E+00 0. -1.
<mgrwt>
<rscale>  1 0.30000000E+03</rscale>
<asrwt>0</asrwt>
<pdfrwt beam="1">  1       21 0.73814491E-02 0.30000000E+03</pdfrwt>
<pdfrwt beam="2">0</pdfrwt>
<totfact> 0.14708914E+04</totfact>
</mgrwt>
</event>
<event>
 6    1  0.1280499E-001  0.3000000E+03  0.7818608E-02  0.1093470E+00
         21   -1    0    0  501  502  0.00000000000E+00  0.00000000000E+00  0.12942297208E+01  0.12942297208E+01  0.00000000000E+00 0. -1.
         13   -1    0    0    0    0 -0.00000000000E+00 -0.00000000000E+00 -0.10000000000E+04  0.10000000000E+04  0.00000000000E+00 0.  1.
    9000005    2    1    2  501    0  0.10944269657E+02 -0.31879203050E+02 -0.67211369835E+03  0.67296749905E+03  0.35171925706E+01 0.  0.
         13    1    3    3    0    0  0.57340732016E+01 -0.17493662099E+02 -0.40112813050E+03  0.40155035162E+03  0.00000000000E+00 0.  1.
          3    1    3    3  501    0  0.52101964554E+01 -0.14385540951E+02 -0.27098556785E+03  0.27141714743E+03  0.00000000000E+00 0.  1.
         -3    1    1    2    0  502 -0.10944269657E+02  0.31879203050E+02 -0.32659207193E+03  0.32832673067E+03  0.00000000000E+00 0. -1.
<mgrwt>
<rscale>  1 0.30000000E+03</rscale>
<asrwt>0</asrwt>
<pdfrwt beam="1">  1       21 0.47062998E-02 0.30000000E+03</pdfrwt>
<pdfrwt beam="2">0</pdfrwt>
<totfact> 0.31931526E+04</totfact>
</mgrwt>
</event>
<event>
 6    1  0.1280499E-001  0.3000000E+03  0.7818608E-02  0.1093470E+00
         21   -1    0    0  501  502  0.00000000000E+00  0.00000000000E+00  0.31170532841E+01  0.31170532841E+01  0.00000000000E+00 0. -1.
         13   -1    0    0    0    0 -0.00000000000E+00 -0.00000000000E+00 -0.10000000000E+04  0.10000000000E+04  0.00000000000E+00 0.  1.
    9000005    2    1    2  501    0 -0.29063603586E+02 -0.41731124024E+02 -0.70480610903E+03  0.70664604479E+03  0.32865671360E+01 0.  0.
         13    1    3    3    0    0 -0.24441342170E+01 -0.50689719764E+01 -0.71032743760E+02  0.71255308259E+02  0.00000000000E+00 0.  1.
          3    1    3    3  501    0 -0.26619469369E+02 -0.36662152048E+02 -0.63377336527E+03  0.63539073653E+03  0.00000000000E+00 0.  1.
         -3    1    1    2    0  502  0.29063603586E+02  0.41731124024E+02 -0.29207683768E+03  0.29647100849E+03  0.00000000000E+00 0. -1.
<mgrwt>
<rscale>  1 0.30000000E+03</rscale>
<asrwt>0</asrwt>
<pdfrwt beam="1">  1       21 0.11334763E-01 0.30000000E+03</pdfrwt>
<pdfrwt beam="2">0</pdfrwt>
<totfact> 0.68707425E+03</totfact>
</mgrwt>
</event>
<event>
 6    1  0.1280499E-001  0.3000000E+03  0.7818608E-02  0.1093470E+00
         21   -1    0    0  501  502  0.00000000000E+00  0.00000000000E+00  0.25085542070E+01  0.25085542070E+01  0.00000000000E+00 0. -1.
         13   -1    0    0    0    0 -0.00000000000E+00 -0.00000000000E+00 -0.10000000000E+04  0.10000000000E+04  0.00000000000E+00 0.  1.
    9000005    2    1    2  501    0 -0.24512038783E+02  0.22525959271E+02 -0.87296545701E+03  0.87360944339E+03  0.40634426076E+01 0.  0.
         13    1    3    3    0    0 -0.37381087912E+01  0.24336059122E+01 -0.15069725272E+03  0.15076325107E+03  0.00000000000E+00 0.  1.
          1    1    3    3  501    0 -0.20773929991E+02  0.20092353359E+02 -0.72226820429E+03  0.72284619232E+03  0.00000000000E+00 0.  1.
         -1    1    1    2    0  502  0.24512038783E+02 -0.22525959271E+02 -0.12452598878E+03  0.12889911082E+03  0.00000000000E+00 0. -1.
<mgrwt>
<rscale>  1 0.30000000E+03</rscale>
<asrwt>0</asrwt>
<pdfrwt beam="1">  1       21 0.91220345E-02 0.30000000E+03</pdfrwt>
<pdfrwt beam="2">0</pdfrwt>
<totfact> 0.10133236E+04</totfact>
</mgrwt>
</event>
<event>
 6    1  0.1280499E-001  0.3000000E+03  0.7818608E-02  0.1093470E+00
         21   -1    0    0  501  502  0.00000000000E+00  0.00000000000E+00  0.10323223384E+01  0.10323223384E+01  0.00000000000E+00 0. -1.
         13   -1    0    0    0    0 -0.00000000000E+00 -0.00000000000E+00 -0.10000000000E+04  0.10000000000E+04  0.00000000000E+00 0.  1.
    9000005    2    1    2  501    0 -0.67409578905E+00 -0.31293253280E+02 -0.60598374477E+03  0.60680384339E+03  0.38578902074E+01 0.  0.
         13    1    3    3    0    0  0.14321111046E+00 -0.30013363731E+02 -0.57904341372E+03  0.57982074600E+03  0.00000000000E+00 0.  1.
          3    1    3    3  501    0 -0.81730689951E+00 -0.12798895489E+01 -0.26940331047E+02  0.26983097390E+02  0.00000000000E+00 0.  1.
         -1    1    1    2    0  502  0.67409578905E+00  0.31293253280E+02 -0.39298393289E+03  0.39422847895E+03  0.00000000000E+00 0. -1.
<mgrwt>
<rscale>  1 0.30000000E+03</rscale>
<asrwt>0</asrwt>
<pdfrwt beam="1">  1       21 0.37539073E-02 0.30000000E+03</pdfrwt>
<pdfrwt beam="2">0</pdfrwt>
<totfact> 0.46785381E+04</totfact>
</mgrwt>
</event>
<event>
 6    1  0.1280499E-001  0.3000000E+03  0.7818608E-02  0.1093470E+00
         21   -1    0    0  501  502  0.00000000000E+00  0.00000000000E+00  0.13245259824E+01  0.13245259824E+01  0.00000000000E+00 0. -1.
         13   -1    0    0    0    0 -0.00000000000E+00 -0.00000000000E+00 -0.10000000000E+04  0.10000000000E+04  0.00000000000E+00 0.  1.
    9000005    2    1    2  501    0 -0.23895936706E+02  0.25384611825E+02 -0.35844476769E+03  0.36014533759E+03  0.25726235053E+01 0.  0.
         13    1    3    3    0    0 -0.13637886624E+02  0.12748750090E+02 -0.18658543174E+03  0.18751705501E+03  0.00000000000E+00 0.  1.
          1    1    3    3  501    0 -0.10258050081E+02  0.12635861735E+02 -0.17185933595E+03  0.17262828258E+03  0.00000000000E+00 0.  1.
         -1    1    1    2    0  502  0.23895936706E+02 -0.25384611825E+02 -0.64023070633E+03  0.64117918839E+03  0.00000000000E+00 0. -1.
<mgrwt>
<rscale>  1 0.30000000E+03</rscale>
<asrwt>0</asrwt>
<pdfrwt beam="1">  1       21 0.48164683E-02 0.30000000E+03</pdfrwt>
<pdfrwt beam="2">0</pdfrwt>
<totfact> 0.30699092E+04</totfact>
</mgrwt>
</event>
<event>
 6    1  0.1280499E-001  0.3000000E+03  0.7818608E-02  0.1093470E+00
         21   -1    0    0  501  502  0.00000000000E+00  0.00000000000E+00  0.12673662894E+01  0.12673662894E+01  0.00000000000E+00 0. -1.
         13   -1    0    0    0    0 -0.00000000000E+00 -0.00000000000E+00 -0.10000000000E+04  0.10000000000E+04  0.00000000000E+00 0.  1.
    9000005    2    1    2  501    0  0.23528824286E+02 -0.24454100730E+02 -0.37118753312E+03  0.37280538503E+03  0.72153827221E+01 0.  0.
         13    1    3    3    0    0  0.11936974036E+02 -0.96328682927E+01 -0.19984910800E+03  0.20043689648E+03  0.00000000000E+00 0.  1.
          3    1    3    3  501    0  0.11591850251E+02 -0.14821232438E+02 -0.17133842512E+03  0.17236848855E+03  0.00000000000E+00 0.  1.
         -3    1    1    2    0  502 -0.23528824286E+02  0.24454100730E+02 -0.62754510059E+03  0.62846198126E+03  0.00000000000E+00 0. -1.
<mgrwt>
<rscale>  1 0.30000000E+03</rscale>
<asrwt>0</asrwt>
<pdfrwt beam="1">  1       21 0.46086144E-02 0.30000000E+03</pdfrwt>
<pdfrwt beam="2">0</pdfrwt>
<totfact> 0.33090430E+04</totfact>
</mgrwt>
</event>
<event>
 6    1  0.1280499E-001  0.3000000E+03  0.7818608E-02  0.1093470E+00
         21   -1    0    0  501  502  0.00000000000E+00  0.00000000000E+00  0.19723146527E+01  0.19723146527E+01  0.00000000000E+00 0. -1.
         13   -1    0    0    0    0 -0.00000000000E+00 -0.00000000000E+00 -0.10000000000E+04  0.10000000000E+04  0.00000000000E+00 0.  1.
    9000005    2    1    2  501    0  0.72703757991E+01  0.30463385438E+02 -0.85396544619E+03  0.85454502760E+03  0.30569091412E+01 0.  0.
         13    1    3    3    0    0  0.11104087834E+01  0.96780218981E+01 -0.28692069569E+03  0.28708601974E+03  0.00000000000E+00 0.  1.
          3    1    3    3  501    0  0.61599670158E+01  0.20785363540E+02 -0.56704475050E+03  0.56745900786E+03  0.00000000000E+00 0.  1.
         -1    1    1    2    0  502 -0.72703757991E+01 -0.30463385438E+02 -0.14406223915E+03  0.14742728705E+03  0.00000000000E+00 0. -1.
<mgrwt>
<rscale>  1 0.30000000E+03</rscale>
<asrwt>0</asrwt>
<pdfrwt beam="1">  1       21 0.71720684E-02 0.30000000E+03</pdfrwt>
<pdfrwt beam="2">0</pdfrwt>
<totfact> 0.15466920E+04</totfact>
</mgrwt>
</event>
<event>
 6    1  0.1280499E-001  0.3000000E+03  0.7818608E-02  0.1093470E+00
         21   -1    0    0  501  502  0.00000000000E+00  0.00000000000E+00  0.31769079489E+01  0.31769079489E+01  0.00000000000E+00 0. -1.
         13   -1    0    0    0    0 -0.00000000000E+00 -0.00000000000E+00 -0.10000000000E+04  0.10000000000E+04  0.00000000000E+00 0.  1.
    9000005    2    1    2  501    0  0.37375043751E+02  0.41849918361E+02 -0.54159232951E+03  0.54450125269E+03  0.33246407599E+01 0.  0.
         13    1    3    3    0    0  0.28794315776E+02  0.34215628785E+02 -0.42842160605E+03  0.43074922450E+03  0.00000000000E+00 0.  1.
          3    1    3    3  501    0  0.85807279745E+01  0.76342895763E+01 -0.11317072346E+03  0.11375202819E+03  0.00000000000E+00 0.  1.
         -3    1    1    2    0  502 -0.37375043751E+02 -0.41849918361E+02 -0.45523076254E+03  0.45867565526E+03  0.00000000000E+00 0. -1.
<mgrwt>
<rscale>  1 0.30000000E+03</rscale>
<asrwt>0</asrwt>
<pdfrwt beam="1">  1       21 0.11552417E-01 0.30000000E+03</pdfrwt>
<pdfrwt beam="2">0</pdfrwt>
<totfact> 0.66387745E+03</totfact>
</mgrwt>
</event>
<event>
 6    1  0.1280499E-001  0.3000000E+03  0.7818608E-02  0.1093470E+00
         21   -1    0    0  501  502  0.00000000000E+00  0.00000000000E+00  0.14089622747E+01  0.14089622747E+01  0.00000000000E+00 0. -1.
         13   -1    0    0    0    0 -0.00000000000E+00 -0.00000000000E+00 -0.10000000000E+04  0.10000000000E+04  0.00000000000E+00 0.  1.
    9000005    2    1    2  501    0  0.24943980921E+02 -0.22169530070E+02 -0.27311860893E+03  0.27516937702E+03  0.32743332638E+01 0.  0.
         13    1    3    3    0    0  0.23107358289E+02 -0.21539077811E+02 -0.25675891328E+03  0.25869484230E+03  0.00000000000E+00 0.  1.
          3    1    3    3  501    0  0.18366226322E+01 -0.63045225845E+00 -0.16359695644E+02  0.16474534722E+02  0.00000000000E+00 0.  1.
         -3    1    1    2    0  502 -0.24943980921E+02  0.22169530070E+02 -0.72547242880E+03  0.72623958526E+03  0.00000000000E+00 0. -1.
<mgrwt>
<rscale>  1 0.30000000E+03</rscale>
<asrwt>0</asrwt>
<pdfrwt beam="1">  1       21 0.51235100E-02 0.30000000E+03</pdfrwt>
<pdfrwt beam="2">0</pdfrwt>
<totfact> 0.27630290E+04</totfact>
</mgrwt>
</event>
<event>
 6    1  0.1280499E-001  0.3000000E+03  0.7818608E-02  0.1093470E+00
         21   -1    0    0  501  502  0.00000000000E+00  0.00000000000E+00  0.68272142802E+01  0.68272142802E+01  0.00000000000E+00 0. -1.
         13   -1    0    0    0    0 -0.00000000000E+00 -0.00000000000E+00 -0.10000000000E+04  0.10000000000E+04  0.00000000000E+00 0.  1.
    9000005    2    1    2  501    0 -0.48109930747E+02 -0.94118801057E+00 -0.90577813642E+03  0.90706110782E+03  0.32201923066E+01 0.  0.
         13    1    3    3    0    0 -0.44445083879E+02 -0.31841651584E-01 -0.83850535418E+03  0.83968243728E+03  0.00000000000E+00 0.  1.
          1    1    3    3  501    0 -0.36648468679E+01 -0.90934635899E+00 -0.67272782236E+02  0.67378670535E+02  0.00000000000E+00 0.  1.
         -1    1    1    2    0  502  0.48109930747E+02  0.94118801057E+00 -0.87394649305E+02  0.99766106461E+02  0.00000000000E+00 0. -1.
<mgrwt>
<rscale>  1 0.30000000E+03</rscale>
<asrwt>0</asrwt>
<pdfrwt beam="1">  1       21 0.24826286E-01 0.30000000E+03</pdfrwt>
<pdfrwt beam="2">0</pdfrwt>
<totfact> 0.15810169E+03</totfact>
</mgrwt>
</event>
<event>
 6    1  0.1280499E-001  0.3000000E+03  0.7818608E-02  0.1093470E+00
         21   -1    0    0  501  502  0.00000000000E+00  0.00000000000E+00  0.37740007492E+01  0.37740007492E+01  0.00000000000E+00 0. -1.
         13   -1    0    0    0    0 -0.00000000000E+00 -0.00000000000E+00 -0.10000000000E+04  0.10000000000E+04  0.00000000000E+00 0.  1.
    9000005    2    1    2  501    0 -0.56551363701E+00  0.41486287532E+02 -0.86790350767E+03  0.86891076001E+03  0.52894579632E+01 0.  0.
         13    1    3    3    0    0 -0.53189398777E+00  0.16086619298E+01 -0.20685735137E+02  0.20755007650E+02  0.00000000000E+00 0.  1.
          3    1    3    3  501    0 -0.33619649231E-01  0.39877625602E+02 -0.84721777254E+03  0.84815575236E+03  0.00000000000E+00 0.  1.
         -1    1    1    2    0  502  0.56551363701E+00 -0.41486287532E+02 -0.12832249158E+03  0.13486324074E+03  0.00000000000E+00 0. -1.
<mgrwt>
<rscale>  1 0.30000000E+03</rscale>
<asrwt>0</asrwt>
<pdfrwt beam="1">  1       21 0.13723668E-01 0.30000000E+03</pdfrwt>
<pdfrwt beam="2">0</pdfrwt>
<totfact> 0.48509879E+03</totfact>
</mgrwt>
</event>
<event>
 6    1  0.1280499E-001  0.3000000E+03  0.7818608E-02  0.1093470E+00
         21   -1    0    0  501  502  0.00000000000E+00  0.00000000000E+00  0.28420778408E+01  0.28420778408E+01  0.00000000000E+00 0. -1.
         13   -1    0    0    0    0 -0.00000000000E+00 -0.00000000000E+00 -0.10000000000E+04  0.10000000000E+04  0.00000000000E+00 0.  1.
    9000005    2    1    2  501    0  0.33487118867E+01 -0.39858502289E+02 -0.82978775727E+03  0.83075870801E+03  0.35206177285E+01 0.  0.
         13    1    3    3    0    0  0.95528820799E+00 -0.15398425579E+02 -0.28594290940E+03  0.28635881603E+03  0.00000000000E+00 0.  1.
          3    1    3    3  501    0  0.23934236787E+01 -0.24460076711E+02 -0.54384484787E+03  0.54439989198E+03  0.00000000000E+00 0.  1.
         -1    1    1    2    0  502 -0.33487118867E+01  0.39858502289E+02 -0.16737016489E+03  0.17208336983E+03  0.00000000000E+00 0. -1.
<mgrwt>
<rscale>  1 0.30000000E+03</rscale>
<asrwt>0</asrwt>
<pdfrwt beam="1">  1       21 0.10334850E-01 0.30000000E+03</pdfrwt>
<pdfrwt beam="2">0</pdfrwt>
<totfact> 0.81110014E+03</totfact>
</mgrwt>
</event>
<event>
 6    1  0.1280499E-001  0.3000000E+03  0.7818608E-02  0.1093470E+00
         21   -1    0    0  501  502  0.00000000000E+00  0.00000000000E+00  0.29148740894E+01  0.29148740894E+01  0.00000000000E+00 0. -1.
         13   -1    0    0    0    0 -0.00000000000E+00 -0.00000000000E+00 -0.10000000000E+04  0.10000000000E+04  0.00000000000E+00 0.  1.
    9000005    2    1    2  501    0 -0.23553359499E+02  0.22670899602E+02 -0.89745323673E+03  0.89805666614E+03  0.38383656558E+01 0.  0.
         13    1    3    3    0    0 -0.19072448717E+02  0.20040920606E+02 -0.73566899866E+03  0.73618901947E+03  0.00000000000E+00 0.  1.
          3    1    3    3  501    0 -0.44809107825E+01  0.26299789957E+01 -0.16178423807E+03  0.16186764667E+03  0.00000000000E+00 0.  1.
         -1    1    1    2    0  502  0.23553359499E+02 -0.22670899602E+02 -0.99631889184E+02  0.10485820795E+03  0.00000000000E+00 0. -1.
<mgrwt>
<rscale>  1 0.30000000E+03</rscale>
<asrwt>0</asrwt>
<pdfrwt beam="1">  1       21 0.10599564E-01 0.30000000E+03</pdfrwt>
<pdfrwt beam="2">0</pdfrwt>
<totfact> 0.77515695E+03</totfact>
</mgrwt>
</event>
<event>
 6    1  0.1280499E-001  0.3000000E+03  0.7818608E-02  0.1093470E+00
         21   -1    0    0  501  502  0.00000000000E+00  0.00000000000E+00  0.53871611793E+01  0.53871611793E+01  0.00000000000E+00 0. -1.
         13   -1    0    0    0    0 -0.00000000000E+00 -0.00000000000E+00 -0.10000000000E+04  0.10000000000E+04  0.00000000000E+00 0.  1.
    9000005    2    1    2  501    0 -0.18815840113E+02  0.36573614648E+02 -0.91361986203E+03  0.91454924279E+03  0.27203065022E+01 0.  0.
         13    1    3    3    0    0 -0.15103137651E+02  0.31440991966E+02 -0.76815783400E+03  0.76894934728E+03  0.00000000000E+00 0.  1.
          1    1    3    3  501    0 -0.37127024623E+01  0.51326226820E+01 -0.14546202803E+03  0.14559989551E+03  0.00000000000E+00 0.  1.
         -1    1    1    2    0  502  0.18815840113E+02 -0.36573614648E+02 -0.80992976790E+02  0.90837918387E+02  0.00000000000E+00 0. -1.
<mgrwt>
<rscale>  1 0.30000000E+03</rscale>
<asrwt>0</asrwt>
<pdfrwt beam="1">  1       21 0.19589718E-01 0.30000000E+03</pdfrwt>
<pdfrwt beam="2">0</pdfrwt>
<totfact> 0.24959082E+03</totfact>
</mgrwt>
</event>
<event>
 6    1  0.1280499E-001  0.3000000E+03  0.7818608E-02  0.1093470E+00
         21   -1    0    0  501  502  0.00000000000E+00  0.00000000000E+00  0.30344263426E+01  0.30344263426E+01  0.00000000000E+00 0. -1.
         13   -1    0    0    0    0 -0.00000000000E+00 -0.00000000000E+00 -0.10000000000E+04  0.10000000000E+04  0.00000000000E+00 0.  1.
    9000005    2    1    2  501    0 -0.47217683069E+02 -0.14416348306E+02 -0.72003434187E+03  0.72173698975E+03  0.41818909409E+01 0.  0.
         13    1    3    3    0    0 -0.30717019576E+02 -0.73038638433E+01 -0.45418558546E+03  0.45528170154E+03  0.00000000000E+00 0.  1.
          1    1    3    3  501    0 -0.16500663493E+02 -0.71124844632E+01 -0.26584875641E+03  0.26645528821E+03  0.00000000000E+00 0.  1.
         -3    1    1    2    0  502  0.47217683069E+02  0.14416348306E+02 -0.27693123179E+03  0.28129743659E+03  0.00000000000E+00 0. -1.
<mgrwt>
<rscale>  1 0.30000000E+03</rscale>
<asrwt>0</asrwt>
<pdfrwt beam="1">  1       21 0.11034301E-01 0.30000000E+03</pdfrwt>
<pdfrwt beam="2">0</pdfrwt>
<totfact> 0.72115092E+03</totfact>
</mgrwt>
</event>
<event>
 6    1  0.1280499E-001  0.3000000E+03  0.7818608E-02  0.1093470E+00
         21   -1    0    0  501  502  0.00000000000E+00  0.00000000000E+00  0.14513546182E+01  0.14513546182E+01  0.00000000000E+00 0. -1.
         13   -1    0    0    0    0 -0.00000000000E+00 -0.00000000000E+00 -0.10000000000E+04  0.10000000000E+04  0.00000000000E+00 0.  1.
    9000005    2    1    2  501    0 -0.22794063413E+02 -0.29591828142E+02 -0.56479533070E+03  0.56609267075E+03  0.84794268554E+01 0.  0.
         13    1    3    3    0    0 -0.10201027317E+02 -0.69314876162E+01 -0.19524771697E+03  0.19563685098E+03  0.00000000000E+00 0.  1.
          1    1    3    3  501    0 -0.12593036095E+02 -0.22660340526E+02 -0.36954761373E+03  0.37045581977E+03  0.00000000000E+00 0.  1.
         -1    1    1    2    0  502  0.22794063413E+02  0.29591828142E+02 -0.43375331469E+03  0.43535868387E+03  0.00000000000E+00 0. -1.
<mgrwt>
<rscale>  1 0.30000000E+03</rscale>
<asrwt>0</asrwt>
<pdfrwt beam="1">  1       21 0.52776643E-02 0.30000000E+03</pdfrwt>
<pdfrwt beam="2">0</pdfrwt>
<totfact> 0.26265874E+04</totfact>
</mgrwt>
</event>
<event>
 6    1  0.1280499E-001  0.3000000E+03  0.7818608E-02  0.1093470E+00
         21   -1    0    0  501  502  0.00000000000E+00  0.00000000000E+00  0.36809635621E+01  0.36809635621E+01  0.00000000000E+00 0. -1.
         13   -1    0    0    0    0 -0.00000000000E+00 -0.00000000000E+00 -0.10000000000E+04  0.10000000000E+04  0.00000000000E+00 0.  1.
    9000005    2    1    2  501    0  0.51827849747E+02  0.18449886232E+02 -0.70928810083E+03  0.71142545496E+03  0.31691760719E+01 0.  0.
         13    1    3    3    0    0  0.11695251232E+02  0.50865471114E+01 -0.17778998679E+03  0.17824682680E+03  0.00000000000E+00 0.  1.
          3    1    3    3  501    0  0.40132598515E+02  0.13363339120E+02 -0.53149811404E+03  0.53317862816E+03  0.00000000000E+00 0.  1.
         -1    1    1    2    0  502 -0.51827849747E+02 -0.18449886232E+02 -0.28703093561E+03  0.29225550860E+03  0.00000000000E+00 0. -1.
<mgrwt>
<rscale>  1 0.30000000E+03</rscale>
<asrwt>0</asrwt>
<pdfrwt beam="1">  1       21 0.13385350E-01 0.30000000E+03</pdfrwt>
<pdfrwt beam="2">0</pdfrwt>
<totfact> 0.50779769E+03</totfact>
</mgrwt>
</event>
<event>
 6    1  0.1280499E-001  0.3000000E+03  0.7818608E-02  0.1093470E+00
         21   -1    0    0  501  502  0.00000000000E+00  0.00000000000E+00  0.13359866919E+01  0.13359866919E+01  0.00000000000E+00 0. -1.
         13   -1    0    0    0    0 -0.00000000000E+00 -0.00000000000E+00 -0.10000000000E+04  0.10000000000E+04  0.00000000000E+00 0.  1.
    9000005    2    1    2  501    0 -0.26133917876E+02  0.25188306928E+02 -0.52889062546E+03  0.53016248531E+03  0.54345806043E+01 0.  0.
         13    1    3    3    0    0 -0.23590177340E+02  0.20018195262E+02 -0.44579340560E+03  0.44686573497E+03  0.00000000000E+00 0.  1.
          1    1    3    3  501    0 -0.25437405358E+01  0.51701116666E+01 -0.83097219855E+02  0.83296750346E+02  0.00000000000E+00 0.  1.
         -3    1    1    2    0  502  0.26133917876E+02 -0.25188306928E+02 -0.46977338785E+03  0.47117350138E+03  0.00000000000E+00 0. -1.
<mgrwt>
<rscale>  1 0.30000000E+03</rscale>
<asrwt>0</asrwt>
<pdfrwt beam="1">  1       21 0.48581437E-02 0.30000000E+03</pdfrwt>
<pdfrwt beam="2">0</pdfrwt>
<totfact> 0.30252180E+04</totfact>
</mgrwt>
</event>
<event>
 6    1  0.1280499E-001  0.3000000E+03  0.7818608E-02  0.1093470E+00
         21   -1    0    0  501  502  0.00000000000E+00  0.00000000000E+00  0.23685844240E+01  0.23685844240E+01  0.00000000000E+00 0. -1.
         13   -1    0    0    0    0 -0.00000000000E+00 -0.00000000000E+00 -0.10000000000E+04  0.10000000000E+04  0.00000000000E+00 0.  1.
    9000005    2    1    2  501    0 -0.38175962627E+02 -0.14134364320E+02 -0.77237104996E+03  0.77345939568E+03  0.50213106991E+01 0.  0.
         13    1    3    3    0    0 -0.20417747691E+02 -0.90149816196E+01 -0.38264324710E+03  0.38329363270E+03  0.00000000000E+00 0.  1.
          3    1    3    3  501    0 -0.17758214936E+02 -0.51193827007E+01 -0.38972780286E+03  0.39016576298E+03  0.00000000000E+00 0.  1.
         -3    1    1    2    0  502  0.38175962627E+02  0.14134364320E+02 -0.22526036561E+03  0.22890918875E+03  0.00000000000E+00 0. -1.
<mgrwt>
<rscale>  1 0.30000000E+03</rscale>
<asrwt>0</asrwt>
<pdfrwt beam="1">  1       21 0.86130524E-02 0.30000000E+03</pdfrwt>
<pdfrwt beam="2">0</pdfrwt>
<totfact> 0.11216726E+04</totfact>
</mgrwt>
</event>
<event>
 6    1  0.1280499E-001  0.3000000E+03  0.7818608E-02  0.1093470E+00
         21   -1    0    0  501  502  0.00000000000E+00  0.00000000000E+00  0.17354742435E+01  0.17354742435E+01  0.00000000000E+00 0. -1.
         13   -1    0    0    0    0 -0.00000000000E+00 -0.00000000000E+00 -0.10000000000E+04  0.10000000000E+04  0.00000000000E+00 0.  1.
    9000005    2    1    2  501    0  0.31888312192E+02 -0.14086458864E+02 -0.77276771723E+03  0.77355987644E+03  0.31056184639E+01 0.  0.
         13    1    3    3    0    0  0.12053724595E+02 -0.43038606099E+01 -0.30962627188E+03  0.30989069643E+03  0.00000000000E+00 0.  1.
          3    1    3    3  501    0  0.19834587596E+02 -0.97825982541E+01 -0.46314144534E+03  0.46366918001E+03  0.00000000000E+00 0.  1.
         -1    1    1    2    0  502 -0.31888312192E+02  0.14086458864E+02 -0.22549680853E+03  0.22817559781E+03  0.00000000000E+00 0. -1.
<mgrwt>
<rscale>  1 0.30000000E+03</rscale>
<asrwt>0</asrwt>
<pdfrwt beam="1">  1       21 0.63108287E-02 0.30000000E+03</pdfrwt>
<pdfrwt beam="2">0</pdfrwt>
<totfact> 0.19311999E+04</totfact>
</mgrwt>
</event>
<event>
 6    1  0.1280499E-001  0.3000000E+03  0.7818608E-02  0.1093470E+00
         21   -1    0    0  501  502  0.00000000000E+00  0.00000000000E+00  0.51612057853E+01  0.51612057853E+01  0.00000000000E+00 0. -1.
         13   -1    0    0    0    0 -0.00000000000E+00 -0.00000000000E+00 -0.10000000000E+04  0.10000000000E+04  0.00000000000E+00 0.  1.
    9000005    2    1    2  501    0 -0.41546481353E+02 -0.31898424794E+02 -0.84125118114E+03  0.84288744171E+03  0.34741913893E+01 0.  0.
         13    1    3    3    0    0 -0.36972396284E+02 -0.27585824808E+02 -0.72439310271E+03  0.72586038814E+03  0.00000000000E+00 0.  1.
          3    1    3    3  501    0 -0.45740850690E+01 -0.43125999864E+01 -0.11685807844E+03  0.11702705358E+03  0.00000000000E+00 0.  1.
         -3    1    1    2    0  502  0.41546481353E+02  0.31898424794E+02 -0.15358761307E+03  0.16227376407E+03  0.00000000000E+00 0. -1.
<mgrwt>
<rscale>  1 0.30000000E+03</rscale>
<asrwt>0</asrwt>
<pdfrwt beam="1">  1       21 0.18768061E-01 0.30000000E+03</pdfrwt>
<pdfrwt beam="2">0</pdfrwt>
<totfact> 0.27073403E+03</totfact>
</mgrwt>
</event>
<event>
 6    1  0.1280499E-001  0.3000000E+03  0.7818608E-02  0.1093470E+00
         21   -1    0    0  501  502  0.00000000000E+00  0.00000000000E+00  0.14156361688E+01  0.14156361688E+01  0.00000000000E+00 0. -1.
         13   -1    0    0    0    0 -0.00000000000E+00 -0.00000000000E+00 -0.10000000000E+04  0.10000000000E+04  0.00000000000E+00 0.  1.
    9000005    2    1    2  501    0  0.33312402842E+02 -0.67530645966E+01 -0.71242731824E+03  0.71324697929E+03  0.36400041605E+01 0.  0.
         13    1    3    3    0    0  0.61664875785E+01  0.11785827001E+00 -0.12072563787E+03  0.12088308028E+03  0.00000000000E+00 0.  1.
          3    1    3    3  501    0  0.27145915264E+02 -0.68709228666E+01 -0.59170168037E+03  0.59236389901E+03  0.00000000000E+00 0.  1.
         -1    1    1    2    0  502 -0.33312402842E+02  0.67530645966E+01 -0.28615704559E+03  0.28816865688E+03  0.00000000000E+00 0. -1.
<mgrwt>
<rscale>  1 0.30000000E+03</rscale>
<asrwt>0</asrwt>
<pdfrwt beam="1">  1       21 0.51477787E-02 0.30000000E+03</pdfrwt>
<pdfrwt beam="2">0</pdfrwt>
<totfact> 0.27408290E+04</totfact>
</mgrwt>
</event>
<event>
 6    1  0.1280499E-001  0.3000000E+03  0.7818608E-02  0.1093470E+00
         21   -1    0    0  501  502  0.00000000000E+00  0.00000000000E+00  0.11757278879E+01  0.11757278879E+01  0.00000000000E+00 0. -1.
         13   -1    0    0    0    0 -0.00000000000E+00 -0.00000000000E+00 -0.10000000000E+04  0.10000000000E+04  0.00000000000E+00 0.  1.
    9000005    2    1    2  501    0  0.26347039584E+02 -0.21567943377E+02 -0.55405960358E+03  0.55510964192E+03  0.23081500513E+01 0.  0.
         13    1    3    3    0    0  0.24341290799E+02 -0.20286190857E+02 -0.52296966264E+03  0.52392871273E+03  0.00000000000E+00 0.  1.
          1    1    3    3  501    0  0.20057487857E+01 -0.12817525201E+01 -0.31089940936E+02  0.31180929190E+02  0.00000000000E+00 0.  1.
         -1    1    1    2    0  502 -0.26347039584E+02  0.21567943377E+02 -0.44476466853E+03  0.44606608597E+03  0.00000000000E+00 0. -1.
<mgrwt>
<rscale>  1 0.30000000E+03</rscale>
<asrwt>0</asrwt>
<pdfrwt beam="1">  1       21 0.42753832E-02 0.30000000E+03</pdfrwt>
<pdfrwt beam="2">0</pdfrwt>
<totfact> 0.37579799E+04</totfact>
</mgrwt>
</event>
<event>
 6    1  0.1280499E-001  0.3000000E+03  0.7818608E-02  0.1093470E+00
         21   -1    0    0  501  502  0.00000000000E+00  0.00000000000E+00  0.58588399852E+01  0.58588399852E+01  0.00000000000E+00 0. -1.
         13   -1    0    0    0    0 -0.00000000000E+00 -0.00000000000E+00 -0.10000000000E+04  0.10000000000E+04  0.00000000000E+00 0.  1.
    9000005    2    1    2  501    0 -0.17766627964E+02  0.29098653955E+02 -0.94731682691E+03  0.94793731633E+03  0.36878753228E+01 0.  0.
         13    1    3    3    0    0 -0.58904345380E+01  0.93430391475E+01 -0.26124341418E+03  0.26147678875E+03  0.00000000000E+00 0.  1.
          3    1    3    3  501    0 -0.11876193426E+02  0.19755614807E+02 -0.68607341272E+03  0.68646052759E+03  0.00000000000E+00 0.  1.
         -1    1    1    2    0  502  0.17766627964E+02 -0.29098653955E+02 -0.46824333107E+02  0.57921523651E+02  0.00000000000E+00 0. -1.
<mgrwt>
<rscale>  1 0.30000000E+03</rscale>
<asrwt>0</asrwt>
<pdfrwt beam="1">  1       21 0.21304918E-01 0.30000000E+03</pdfrwt>
<pdfrwt beam="2">0</pdfrwt>
<totfact> 0.21258224E+03</totfact>
</mgrwt>
</event>
<event>
 6    1  0.1280499E-001  0.3000000E+03  0.7818608E-02  0.1093470E+00
         21   -1    0    0  501  502  0.00000000000E+00  0.00000000000E+00  0.45760936652E+01  0.45760936652E+01  0.00000000000E+00 0. -1.
         13   -1    0    0    0    0 -0.00000000000E+00 -0.00000000000E+00 -0.10000000000E+04  0.10000000000E+04  0.00000000000E+00 0.  1.
    9000005    2    1    2  501    0  0.71240523531E+00  0.39843767474E+02 -0.90352227725E+03  0.90440652365E+03  0.32590203213E+01 0.  0.
         13    1    3    3    0    0  0.12916984927E+01  0.14760640984E+02 -0.36290092441E+03  0.36320328460E+03  0.00000000000E+00 0.  1.
          3    1    3    3  501    0 -0.57929325735E+00  0.25083126490E+02 -0.54062135284E+03  0.54120323905E+03  0.00000000000E+00 0.  1.
         -1    1    1    2    0  502 -0.71240523531E+00 -0.39843767474E+02 -0.91901629085E+02  0.10016957001E+03  0.00000000000E+00 0. -1.
<mgrwt>
<rscale>  1 0.30000000E+03</rscale>
<asrwt>0</asrwt>
<pdfrwt beam="1">  1       21 0.16640376E-01 0.30000000E+03</pdfrwt>
<pdfrwt beam="2">0</pdfrwt>
<totfact> 0.33946577E+03</totfact>
</mgrwt>
</event>
<event>
 6    1  0.1280499E-001  0.3000000E+03  0.7818608E-02  0.1093470E+00
         21   -1    0    0  501  502  0.00000000000E+00  0.00000000000E+00  0.19779710833E+01  0.19779710833E+01  0.00000000000E+00 0. -1.
         13   -1    0    0    0    0 -0.00000000000E+00 -0.00000000000E+00 -0.10000000000E+04  0.10000000000E+04  0.00000000000E+00 0.  1.
    9000005    2    1    2  501    0  0.13319809974E+02 -0.38174767395E+02 -0.70670914714E+03  0.70787267482E+03  0.33428874428E+01 0.  0.
         13    1    3    3    0    0  0.80277532612E+01 -0.18681540308E+02 -0.36976155208E+03  0.37032019952E+03  0.00000000000E+00 0.  1.
          3    1    3    3  501    0  0.52920567124E+01 -0.19493227088E+02 -0.33694759506E+03  0.33755247530E+03  0.00000000000E+00 0.  1.
         -3    1    1    2    0  502 -0.13319809974E+02  0.38174767395E+02 -0.29131288177E+03  0.29410529626E+03  0.00000000000E+00 0. -1.
<mgrwt>
<rscale>  1 0.30000000E+03</rscale>
<asrwt>0</asrwt>
<pdfrwt beam="1">  1       21 0.71926373E-02 0.30000000E+03</pdfrwt>
<pdfrwt beam="2">0</pdfrwt>
<totfact> 0.15389857E+04</totfact>
</mgrwt>
</event>
<event>
 6    1  0.1280499E-001  0.3000000E+03  0.7818608E-02  0.1093470E+00
         21   -1    0    0  501  502  0.00000000000E+00  0.00000000000E+00  0.21248709400E+01  0.21248709400E+01  0.00000000000E+00 0. -1.
         13   -1    0    0    0    0 -0.00000000000E+00 -0.00000000000E+00 -0.10000000000E+04  0.10000000000E+04  0.00000000000E+00 0.  1.
    9000005    2    1    2  501    0  0.30013884395E+02  0.88527240253E+01 -0.86665428338E+03  0.86722448428E+03  0.30749407444E+01 0.  0.
         13    1    3    3    0    0  0.27122210002E+02  0.82817793858E+01 -0.75818606345E+03  0.75871622426E+03  0.00000000000E+00 0.  1.
          1    1    3    3  501    0  0.28916743932E+01  0.57094463945E+00 -0.10846821993E+03  0.10850826002E+03  0.00000000000E+00 0.  1.
         -3    1    1    2    0  502 -0.30013884395E+02 -0.88527240253E+01 -0.13122084568E+03  0.13490038666E+03  0.00000000000E+00 0. -1.
<mgrwt>
<rscale>  1 0.30000000E+03</rscale>
<asrwt>0</asrwt>
<pdfrwt beam="1">  1       21 0.77268197E-02 0.30000000E+03</pdfrwt>
<pdfrwt beam="2">0</pdfrwt>
<totfact> 0.13576916E+04</totfact>
</mgrwt>
</event>
<event>
 6    1  0.1280499E-001  0.3000000E+03  0.7818608E-02  0.1093470E+00
         21   -1    0    0  501  502  0.00000000000E+00  0.00000000000E+00  0.14952646181E+01  0.14952646181E+01  0.00000000000E+00 0. -1.
         13   -1    0    0    0    0 -0.00000000000E+00 -0.00000000000E+00 -0.10000000000E+04  0.10000000000E+04  0.00000000000E+00 0.  1.
    9000005    2    1    2  501    0  0.35885544647E+02 -0.11861447678E+02 -0.39915717537E+03  0.40095720258E+03  0.34294899895E+01 0.  0.
         13    1    3    3    0    0  0.34415389677E+02 -0.10601439016E+02 -0.37984742927E+03  0.38155062453E+03  0.00000000000E+00 0.  1.
          3    1    3    3  501    0  0.14701549697E+01 -0.12600086616E+01 -0.19309746095E+02  0.19406578053E+02  0.00000000000E+00 0.  1.
         -1    1    1    2    0  502 -0.35885544647E+02  0.11861447678E+02 -0.59934756002E+03  0.60053806203E+03  0.00000000000E+00 0. -1.
<mgrwt>
<rscale>  1 0.30000000E+03</rscale>
<asrwt>0</asrwt>
<pdfrwt beam="1">  1       21 0.54373373E-02 0.30000000E+03</pdfrwt>
<pdfrwt beam="2">0</pdfrwt>
<totfact> 0.24959563E+04</totfact>
</mgrwt>
</event>
<event>
 6    1  0.1280499E-001  0.3000000E+03  0.7818608E-02  0.1093470E+00
         21   -1    0    0  501  502  0.00000000000E+00  0.00000000000E+00  0.18305826312E+01  0.18305826312E+01  0.00000000000E+00 0. -1.
         13   -1    0    0    0    0 -0.00000000000E+00 -0.00000000000E+00 -0.10000000000E+04  0.10000000000E+04  0.00000000000E+00 0.  1.
    9000005    2    1    2  501    0 -0.37819849166E+02 -0.12701034174E+01 -0.73174757146E+03  0.73273477417E+03  0.37130563374E+01 0.  0.
         13    1    3    3    0    0 -0.62492294383E+01 -0.15742091900E+00 -0.14986921654E+03  0.14999953239E+03  0.00000000000E+00 0.  1.
          1    1    3    3  501    0 -0.31570619728E+02 -0.11126824984E+01 -0.58187835492E+03  0.58273524178E+03  0.00000000000E+00 0.  1.
         -1    1    1    2    0  502  0.37819849166E+02  0.12701034174E+01 -0.26642184591E+03  0.26909580846E+03  0.00000000000E+00 0. -1.
<mgrwt>
<rscale>  1 0.30000000E+03</rscale>
<asrwt>0</asrwt>
<pdfrwt beam="1">  1       21 0.66566782E-02 0.30000000E+03</pdfrwt>
<pdfrwt beam="2">0</pdfrwt>
<totfact> 0.17608171E+04</totfact>
</mgrwt>
</event>
<event>
 6    1  0.1280499E-001  0.3000000E+03  0.7818608E-02  0.1093470E+00
         21   -1    0    0  501  502  0.00000000000E+00  0.00000000000E+00  0.30650384174E+01  0.30650384174E+01  0.00000000000E+00 0. -1.
         13   -1    0    0    0    0 -0.00000000000E+00 -0.00000000000E+00 -0.10000000000E+04  0.10000000000E+04  0.00000000000E+00 0.  1.
    9000005    2    1    2  501    0 -0.13550273569E+02 -0.45244323169E+02 -0.75972369881E+03  0.76119763284E+03  0.33285162449E+01 0.  0.
         13    1    3    3    0    0 -0.92171963697E+01 -0.27293928535E+02 -0.48329344802E+03  0.48415129055E+03  0.00000000000E+00 0.  1.
          1    1    3    3  501    0 -0.43330771990E+01 -0.17950394635E+02 -0.27643025079E+03  0.27704634229E+03  0.00000000000E+00 0.  1.
         -3    1    1    2    0  502  0.13550273569E+02  0.45244323169E+02 -0.23721126277E+03  0.24186740558E+03  0.00000000000E+00 0. -1.
<mgrwt>
<rscale>  1 0.30000000E+03</rscale>
<asrwt>0</asrwt>
<pdfrwt beam="1">  1       21 0.11145618E-01 0.30000000E+03</pdfrwt>
<pdfrwt beam="2">0</pdfrwt>
<totfact> 0.70823536E+03</totfact>
</mgrwt>
</event>
<event>
 6    1  0.1280499E-001  0.3000000E+03  0.7818608E-02  0.1093470E+00
         21   -1    0    0  501  502  0.00000000000E+00  0.00000000000E+00  0.12084196363E+01  0.12084196363E+01  0.00000000000E+00 0. -1.
         13   -1    0    0    0    0 -0.00000000000E+00 -0.00000000000E+00 -0.10000000000E+04  0.10000000000E+04  0.00000000000E+00 0.  1.
    9000005    2    1    2  501    0  0.20852317375E+01 -0.33703925648E+02 -0.38733627499E+03  0.38882137432E+03  0.35168755107E+01 0.  0.
         13    1    3    3    0    0 -0.88314945627E+00 -0.13545220166E+02 -0.15344275482E+03  0.15404198112E+03  0.00000000000E+00 0.  1.
          1    1    3    3  501    0  0.29683811937E+01 -0.20158705482E+02 -0.23389352017E+03  0.23477939320E+03  0.00000000000E+00 0.  1.
         -1    1    1    2    0  502 -0.20852317375E+01  0.33703925648E+02 -0.61145530538E+03  0.61238704532E+03  0.00000000000E+00 0. -1.
<mgrwt>
<rscale>  1 0.30000000E+03</rscale>
<asrwt>0</asrwt>
<pdfrwt beam="1">  1       21 0.43942625E-02 0.30000000E+03</pdfrwt>
<pdfrwt beam="2">0</pdfrwt>
<totfact> 0.35875610E+04</totfact>
</mgrwt>
</event>
<event>
 6    1  0.1280499E-001  0.3000000E+03  0.7818608E-02  0.1093470E+00
         21   -1    0    0  501  502  0.00000000000E+00  0.00000000000E+00  0.45264506175E+01  0.45264506175E+01  0.00000000000E+00 0. -1.
         13   -1    0    0    0    0 -0.00000000000E+00 -0.00000000000E+00 -0.10000000000E+04  0.10000000000E+04  0.00000000000E+00 0.  1.
    9000005    2    1    2  501    0 -0.31280471602E+02 -0.25109367165E+02 -0.90087352381E+03  0.90177377152E+03  0.37257052963E+01 0.  0.
         13    1    3    3    0    0 -0.77899637410E+01 -0.76232960078E+01 -0.27372551530E+03  0.27394243173E+03  0.00000000000E+00 0.  1.
          1    1    3    3  501    0 -0.23490507861E+02 -0.17486071157E+02 -0.62714800851E+03  0.62783133979E+03  0.00000000000E+00 0.  1.
         -3    1    1    2    0  502  0.31280471602E+02  0.25109367165E+02 -0.94600025576E+02  0.10275267910E+03  0.00000000000E+00 0. -1.
<mgrwt>
<rscale>  1 0.30000000E+03</rscale>
<asrwt>0</asrwt>
<pdfrwt beam="1">  1       21 0.16459855E-01 0.30000000E+03</pdfrwt>
<pdfrwt beam="2">0</pdfrwt>
<totfact> 0.34645618E+03</totfact>
</mgrwt>
</event>
<event>
 6    1  0.1280499E-001  0.3000000E+03  0.7818608E-02  0.1093470E+00
         21   -1    0    0  501  502  0.00000000000E+00  0.00000000000E+00  0.11649567670E+01  0.11649567670E+01  0.00000000000E+00 0. -1.
         13   -1    0    0    0    0 -0.00000000000E+00 -0.00000000000E+00 -0.10000000000E+04  0.10000000000E+04  0.00000000000E+00 0.  1.
    9000005    2    1    2  501    0  0.31281260632E+02 -0.13121648044E+02 -0.47003162472E+03  0.47127463760E+03  0.44001017702E+01 0.  0.
         13    1    3    3    0    0  0.30764868259E+02 -0.12097903346E+02 -0.45349169365E+03  0.45469501052E+03  0.00000000000E+00 0.  1.
          3    1    3    3  501    0  0.51639237243E+00 -0.10237446985E+01 -0.16539931076E+02  0.16579627085E+02  0.00000000000E+00 0.  1.
         -1    1    1    2    0  502 -0.31281260632E+02  0.13121648044E+02 -0.52880341851E+03  0.52989031916E+03  0.00000000000E+00 0. -1.
<mgrwt>
<rscale>  1 0.30000000E+03</rscale>
<asrwt>0</asrwt>
<pdfrwt beam="1">  1       21 0.42362154E-02 0.30000000E+03</pdfrwt>
<pdfrwt beam="2">0</pdfrwt>
<totfact> 0.38168896E+04</totfact>
</mgrwt>
</event>
<event>
 6    1  0.1280499E-001  0.3000000E+03  0.7818608E-02  0.1093470E+00
         21   -1    0    0  501  502  0.00000000000E+00  0.00000000000E+00  0.14711749645E+01  0.14711749645E+01  0.00000000000E+00 0. -1.
         13   -1    0    0    0    0 -0.00000000000E+00 -0.00000000000E+00 -0.10000000000E+04  0.10000000000E+04  0.00000000000E+00 0.  1.
    9000005    2    1    2  501    0 -0.31152519999E+02 -0.16889561172E+02 -0.68906164140E+03  0.68998172968E+03  0.36200633959E+01 0.  0.
         13    1    3    3    0    0 -0.87480696254E+00 -0.10439056892E+01 -0.18641927519E+02  0.18691615444E+02  0.00000000000E+00 0.  1.
          3    1    3    3  501    0 -0.30277713037E+02 -0.15845655483E+02 -0.67041971388E+03  0.67129011423E+03  0.00000000000E+00 0.  1.
         -3    1    1    2    0  502  0.31152519999E+02  0.16889561172E+02 -0.30946718363E+03  0.31148944529E+03  0.00000000000E+00 0. -1.
<mgrwt>
<rscale>  1 0.30000000E+03</rscale>
<asrwt>0</asrwt>
<pdfrwt beam="1">  1       21 0.53497384E-02 0.30000000E+03</pdfrwt>
<pdfrwt beam="2">0</pdfrwt>
<totfact> 0.25663451E+04</totfact>
</mgrwt>
</event>
<event>
 6    1  0.1280499E-001  0.3000000E+03  0.7818608E-02  0.1093470E+00
         21   -1    0    0  501  502  0.00000000000E+00  0.00000000000E+00  0.14553991065E+01  0.14553991065E+01  0.00000000000E+00 0. -1.
         13   -1    0    0    0    0 -0.00000000000E+00 -0.00000000000E+00 -0.10000000000E+04  0.10000000000E+04  0.00000000000E+00 0.  1.
    9000005    2    1    2  501    0  0.37551274857E+02 -0.55415833312E+01 -0.46147459224E+03  0.46304570233E+03  0.34228311160E+01 0.  0.
         13    1    3    3    0    0  0.25951651019E+02 -0.24944697392E+01 -0.30511846027E+03  0.30623028160E+03  0.00000000000E+00 0.  1.
          3    1    3    3  501    0  0.11599623838E+02 -0.30471135920E+01 -0.15635613197E+03  0.15681542073E+03  0.00000000000E+00 0.  1.
         -1    1    1    2    0  502 -0.37551274857E+02  0.55415833312E+01 -0.53707000865E+03  0.53840969678E+03  0.00000000000E+00 0. -1.
<mgrwt>
<rscale>  1 0.30000000E+03</rscale>
<asrwt>0</asrwt>
<pdfrwt beam="1">  1       21 0.52923715E-02 0.30000000E+03</pdfrwt>
<pdfrwt beam="2">0</pdfrwt>
<totfact> 0.26141181E+04</totfact>
</mgrwt>
</event>
<event>
 6    1  0.1280499E-001  0.3000000E+03  0.7818608E-02  0.1093470E+00
         21   -1    0    0  501  502  0.00000000000E+00  0.00000000000E+00  0.15282434141E+01  0.15282434141E+01  0.00000000000E+00 0. -1.
         13   -1    0    0    0    0 -0.00000000000E+00 -0.00000000000E+00 -0.10000000000E+04  0.10000000000E+04  0.00000000000E+00 0.  1.
    9000005    2    1    2  501    0  0.35436755349E+02 -0.32889565991E+01 -0.29430299850E+03  0.29646071422E+03  0.28494354084E+01 0.  0.
         13    1    3    3    0    0  0.27549095704E+02 -0.21893456712E+01 -0.21860496382E+03  0.22034490263E+03  0.00000000000E+00 0.  1.
          3    1    3    3  501    0  0.78876596454E+01 -0.10996109279E+01 -0.75698034679E+02  0.76115811584E+02  0.00000000000E+00 0.  1.
         -3    1    1    2    0  502 -0.35436755349E+02  0.32889565991E+01 -0.70416875808E+03  0.70506752920E+03  0.00000000000E+00 0. -1.
<mgrwt>
<rscale>  1 0.30000000E+03</rscale>
<asrwt>0</asrwt>
<pdfrwt beam="1">  1       21 0.55572605E-02 0.30000000E+03</pdfrwt>
<pdfrwt beam="2">0</pdfrwt>
<totfact> 0.24043179E+04</totfact>
</mgrwt>
</event>
<event>
 6    1  0.1280499E-001  0.3000000E+03  0.7818608E-02  0.1093470E+00
         21   -1    0    0  501  502  0.00000000000E+00  0.00000000000E+00  0.22361179424E+01  0.22361179424E+01  0.00000000000E+00 0. -1.
         13   -1    0    0    0    0 -0.00000000000E+00 -0.00000000000E+00 -0.10000000000E+04  0.10000000000E+04  0.00000000000E+00 0.  1.
    9000005    2    1    2  501    0 -0.38735693718E+02 -0.93733539181E+00 -0.78571976429E+03  0.78668092676E+03  0.31622726137E+01 0.  0.
         13    1    3    3    0    0 -0.35829443412E+02 -0.13720101240E+01 -0.73835601771E+03  0.73922610906E+03  0.00000000000E+00 0.  1.
          3    1    3    3  501    0 -0.29062503054E+01  0.43467473219E+00 -0.47363746580E+02  0.47454817701E+02  0.00000000000E+00 0.  1.
         -3    1    1    2    0  502  0.38735693718E+02  0.93733539181E+00 -0.21204411777E+03  0.21555519118E+03  0.00000000000E+00 0. -1.
<mgrwt>
<rscale>  1 0.30000000E+03</rscale>
<asrwt>0</asrwt>
<pdfrwt beam="1">  1       21 0.81313551E-02 0.30000000E+03</pdfrwt>
<pdfrwt beam="2">0</pdfrwt>
<totfact> 0.12413471E+04</totfact>
</mgrwt>
</event>
<event>
 6    1  0.1280499E-001  0.3000000E+03  0.7818608E-02  0.1093470E+00
         21   -1    0    0  501  502  0.00000000000E+00  0.00000000000E+00  0.12572370294E+01  0.12572370294E+01  0.00000000000E+00 0. -1.
         13   -1    0    0    0    0 -0.00000000000E+00 -0.00000000000E+00 -0.10000000000E+04  0.10000000000E+04  0.00000000000E+00 0.  1.
    9000005    2    1    2  501    0 -0.32434180421E+02  0.89347973648E+01 -0.34549227564E+03  0.34714103492E+03  0.31904443857E+01 0.  0.
         13    1    3    3    0    0 -0.11184038201E+02  0.16519547845E+01 -0.12197436819E+03  0.12249717613E+03  0.00000000000E+00 0.  1.
          1    1    3    3  501    0 -0.21250142219E+02  0.72828425803E+01 -0.22351790745E+03  0.22464385879E+03  0.00000000000E+00 0.  1.
         -1    1    1    2    0  502  0.32434180421E+02 -0.89347973648E+01 -0.65325048733E+03  0.65411620211E+03  0.00000000000E+00 0. -1.
<mgrwt>
<rscale>  1 0.30000000E+03</rscale>
<asrwt>0</asrwt>
<pdfrwt beam="1">  1       21 0.45717807E-02 0.30000000E+03</pdfrwt>
<pdfrwt beam="2">0</pdfrwt>
<totfact> 0.33544620E+04</totfact>
</mgrwt>
</event>
<event>
 6    1  0.1280499E-001  0.3000000E+03  0.7818608E-02  0.1093470E+00
         21   -1    0    0  501  502  0.00000000000E+00  0.00000000000E+00  0.34186207051E+01  0.34186207051E+01  0.00000000000E+00 0. -1.
         13   -1    0    0    0    0 -0.00000000000E+00 -0.00000000000E+00 -0.10000000000E+04  0.10000000000E+04  0.00000000000E+00 0.  1.
    9000005    2    1    2  501    0  0.33140241054E+02 -0.37533534686E+01 -0.91005580348E+03  0.91068761991E+03  0.61654164094E+01 0.  0.
         13    1    3    3    0    0  0.16723891913E+02 -0.49403881942E+00 -0.52881802609E+03  0.52908263755E+03  0.00000000000E+00 0.  1.
          1    1    3    3  501    0  0.16416349141E+02 -0.32593146492E+01 -0.38123777739E+03  0.38160498236E+03  0.00000000000E+00 0.  1.
         -3    1    1    2    0  502 -0.33140241054E+02  0.37533534686E+01 -0.86525575811E+02  0.92731000797E+02  0.00000000000E+00 0. -1.
<mgrwt>
<rscale>  1 0.30000000E+03</rscale>
<asrwt>0</asrwt>
<pdfrwt beam="1">  1       21 0.12431374E-01 0.30000000E+03</pdfrwt>
<pdfrwt beam="2">0</pdfrwt>
<totfact> 0.58116669E+03</totfact>
</mgrwt>
</event>
<event>
 6    1  0.1280499E-001  0.3000000E+03  0.7818608E-02  0.1093470E+00
         21   -1    0    0  501  502  0.00000000000E+00  0.00000000000E+00  0.11115102727E+01  0.11115102727E+01  0.00000000000E+00 0. -1.
         13   -1    0    0    0    0 -0.00000000000E+00 -0.00000000000E+00 -0.10000000000E+04  0.10000000000E+04  0.00000000000E+00 0.  1.
    9000005    2    1    2  501    0 -0.97849610176E+00  0.30484917664E+02 -0.70007466779E+03  0.70074508765E+03  0.29748482165E+01 0.  0.
         13    1    3    3    0    0 -0.54798644304E-01  0.27687582401E+02 -0.63827409910E+03  0.63887434665E+03  0.00000000000E+00 0.  1.
          1    1    3    3  501    0 -0.92369745745E+00  0.27973352638E+01 -0.61800568687E+02  0.61870740997E+02  0.00000000000E+00 0.  1.
         -1    1    1    2    0  502  0.97849610176E+00 -0.30484917664E+02 -0.29881382194E+03  0.30036642263E+03  0.00000000000E+00 0. -1.
<mgrwt>
<rscale>  1 0.30000000E+03</rscale>
<asrwt>0</asrwt>
<pdfrwt beam="1">  1       21 0.40418641E-02 0.30000000E+03</pdfrwt>
<pdfrwt beam="2">0</pdfrwt>
<totfact> 0.41316319E+04</totfact>
</mgrwt>
</event>
<event>
 6    1  0.1280499E-001  0.3000000E+03  0.7818608E-02  0.1093470E+00
         21   -1    0    0  501  502  0.00000000000E+00  0.00000000000E+00  0.24916323833E+01  0.24916323833E+01  0.00000000000E+00 0. -1.
         13   -1    0    0    0    0 -0.00000000000E+00 -0.00000000000E+00 -0.10000000000E+04  0.10000000000E+04  0.00000000000E+00 0.  1.
    9000005    2    1    2  501    0  0.43504789857E+02 -0.13744112604E+02 -0.70146182428E+03  0.70295011073E+03  0.29325558097E+01 0.  0.
         13    1    3    3    0    0  0.13585904382E+02 -0.56324391102E+01 -0.23335130428E+03  0.23381431174E+03  0.00000000000E+00 0.  1.
          3    1    3    3  501    0  0.29918885475E+02 -0.81116734939E+01 -0.46811052001E+03  0.46913579899E+03  0.00000000000E+00 0.  1.
         -1    1    1    2    0  502 -0.43504789857E+02  0.13744112604E+02 -0.29604654333E+03  0.29954152165E+03  0.00000000000E+00 0. -1.
<mgrwt>
<rscale>  1 0.30000000E+03</rscale>
<asrwt>0</asrwt>
<pdfrwt beam="1">  1       21 0.90605005E-02 0.30000000E+03</pdfrwt>
<pdfrwt beam="2">0</pdfrwt>
<totfact> 0.10255595E+04</totfact>
</mgrwt>
</event>
<event>
 6    1  0.1280499E-001  0.3000000E+03  0.7818608E-02  0.1093470E+00
         21   -1    0    0  501  502  0.00000000000E+00  0.00000000000E+00  0.11746967820E+01  0.11746967820E+01  0.00000000000E+00 0. -1.
         13   -1    0    0    0    0 -0.00000000000E+00 -0.00000000000E+00 -0.10000000000E+04  0.10000000000E+04  0.00000000000E+00 0.  1.
    9000005    2    1    2  501    0 -0.32832632527E+02  0.17505555939E+01 -0.63849787259E+03  0.63935028706E+03  0.28653212043E+01 0.  0.
         13    1    3    3    0    0 -0.30099804111E+02  0.12313040063E+01 -0.59669156300E+03  0.59745153416E+03  0.00000000000E+00 0.  1.
          1    1    3    3  501    0 -0.27328284157E+01  0.51925158760E+00 -0.41806309590E+02  0.41898752904E+02  0.00000000000E+00 0.  1.
         -3    1    1    2    0  502  0.32832632527E+02 -0.17505555939E+01 -0.36032743063E+03  0.36182440972E+03  0.00000000000E+00 0. -1.
<mgrwt>
<rscale>  1 0.30000000E+03</rscale>
<asrwt>0</asrwt>
<pdfrwt beam="1">  1       21 0.42716337E-02 0.30000000E+03</pdfrwt>
<pdfrwt beam="2">0</pdfrwt>
<totfact> 0.37635579E+04</totfact>
</mgrwt>
</event>
<event>
 6    1  0.1280499E-001  0.3000000E+03  0.7818608E-02  0.1093470E+00
         21   -1    0    0  501  502  0.00000000000E+00  0.00000000000E+00  0.21254507392E+01  0.21254507392E+01  0.00000000000E+00 0. -1.
         13   -1    0    0    0    0 -0.00000000000E+00 -0.00000000000E+00 -0.10000000000E+04  0.10000000000E+04  0.00000000000E+00 0.  1.
    9000005    2    1    2  501    0  0.43037061931E+02  0.33540618966E+01 -0.67385158420E+03  0.67523965980E+03  0.30335140653E+01 0.  0.
         13    1    3    3    0    0  0.20849455649E+02  0.31169548488E+01 -0.33288361043E+03  0.33355046590E+03  0.00000000000E+00 0.  1.
          1    1    3    3  501    0  0.22187606283E+02  0.23710704788E+00 -0.34096797377E+03  0.34168919390E+03  0.00000000000E+00 0.  1.
         -3    1    1    2    0  502 -0.43037061931E+02 -0.33540618966E+01 -0.32402296506E+03  0.32688579094E+03  0.00000000000E+00 0. -1.
<mgrwt>
<rscale>  1 0.30000000E+03</rscale>
<asrwt>0</asrwt>
<pdfrwt beam="1">  1       21 0.77289281E-02 0.30000000E+03</pdfrwt>
<pdfrwt beam="2">0</pdfrwt>
<totfact> 0.13570424E+04</totfact>
</mgrwt>
</event>
<event>
 6    1  0.1280499E-001  0.3000000E+03  0.7818608E-02  0.1093470E+00
         21   -1    0    0  501  502  0.00000000000E+00  0.00000000000E+00  0.30374902093E+01  0.30374902093E+01  0.00000000000E+00 0. -1.
         13   -1    0    0    0    0 -0.00000000000E+00 -0.00000000000E+00 -0.10000000000E+04  0.10000000000E+04  0.00000000000E+00 0.  1.
    9000005    2    1    2  501    0  0.31038164757E+02 -0.65367536182E+01 -0.90850348349E+03  0.90906357812E+03  0.34514824060E+01 0.  0.
         13    1    3    3    0    0  0.18252160310E+02 -0.22144267539E+01 -0.54101865142E+03  0.54133097660E+03  0.00000000000E+00 0.  1.
          1    1    3    3  501    0  0.12786004447E+02 -0.43223268644E+01 -0.36748483207E+03  0.36773260152E+03  0.00000000000E+00 0.  1.
         -1    1    1    2    0  502 -0.31038164757E+02  0.65367536182E+01 -0.88459026297E+02  0.93973912086E+02  0.00000000000E+00 0. -1.
<mgrwt>
<rscale>  1 0.30000000E+03</rscale>
<asrwt>0</asrwt>
<pdfrwt beam="1">  1       21 0.11045442E-01 0.30000000E+03</pdfrwt>
<pdfrwt beam="2">0</pdfrwt>
<totfact> 0.71984232E+03</totfact>
</mgrwt>
</event>
<event>
 6    1  0.1280499E-001  0.3000000E+03  0.7818608E-02  0.1093470E+00
         21   -1    0    0  501  502  0.00000000000E+00  0.00000000000E+00  0.78524626815E+01  0.78524626815E+01  0.00000000000E+00 0. -1.
         13   -1    0    0    0    0 -0.00000000000E+00 -0.00000000000E+00 -0.10000000000E+04  0.10000000000E+04  0.00000000000E+00 0.  1.
    9000005    2    1    2  501    0 -0.76076302582E+01 -0.73204957566E+02 -0.77656819104E+03  0.78005585079E+03  0.34832679296E+01 0.  0.
         13    1    3    3    0    0 -0.76799934823E+01 -0.71015000017E+02 -0.74740468943E+03  0.75081015064E+03  0.00000000000E+00 0.  1.
          3    1    3    3  501    0  0.72363224121E-01 -0.21899575492E+01 -0.29163501615E+02  0.29245700144E+02  0.00000000000E+00 0.  1.
         -3    1    1    2    0  502  0.76076302582E+01  0.73204957566E+02 -0.21557934628E+03  0.22779661190E+03  0.00000000000E+00 0. -1.
<mgrwt>
<rscale>  1 0.30000000E+03</rscale>
<asrwt>0</asrwt>
<pdfrwt beam="1">  1       21 0.28554470E-01 0.30000000E+03</pdfrwt>
<pdfrwt beam="2">0</pdfrwt>
<totfact> 0.11997777E+03</totfact>
</mgrwt>
</event>
<event>
 6    1  0.1280499E-001  0.3000000E+03  0.7818608E-02  0.1093470E+00
         21   -1    0    0  501  502  0.00000000000E+00  0.00000000000E+00  0.35386043883E+01  0.35386043883E+01  0.00000000000E+00 0. -1.
         13   -1    0    0    0    0 -0.00000000000E+00 -0.00000000000E+00 -0.10000000000E+04  0.10000000000E+04  0.00000000000E+00 0.  1.
    9000005    2    1    2  501    0  0.31197341369E+02 -0.21336808492E+02 -0.88558295084E+03  0.88639526049E+03  0.32956778857E+01 0.  0.
         13    1    3    3    0    0  0.10221414784E+02 -0.88812068619E+01 -0.32167404951E+03  0.32195892173E+03  0.00000000000E+00 0.  1.
          1    1    3    3  501    0  0.20975926585E+02 -0.12455601630E+02 -0.56390890133E+03  0.56443633876E+03  0.00000000000E+00 0.  1.
         -3    1    1    2    0  502 -0.31197341369E+02  0.21336808492E+02 -0.11087844477E+03  0.11714334390E+03  0.00000000000E+00 0. -1.
<mgrwt>
<rscale>  1 0.30000000E+03</rscale>
<asrwt>0</asrwt>
<pdfrwt beam="1">  1       21 0.12867679E-01 0.30000000E+03</pdfrwt>
<pdfrwt beam="2">0</pdfrwt>
<totfact> 0.54575021E+03</totfact>
</mgrwt>
</event>
<event>
 6    1  0.1280499E-001  0.3000000E+03  0.7818608E-02  0.1093470E+00
         21   -1    0    0  501  502  0.00000000000E+00  0.00000000000E+00  0.36098679069E+01  0.36098679069E+01  0.00000000000E+00 0. -1.
         13   -1    0    0    0    0 -0.00000000000E+00 -0.00000000000E+00 -0.10000000000E+04  0.10000000000E+04  0.00000000000E+00 0.  1.
    9000005    2    1    2  501    0  0.54083057691E+02 -0.38806088481E+01 -0.71368849644E+03  0.71575530210E+03  0.37876485176E+01 0.  0.
         13    1    3    3    0    0  0.16469428061E+02 -0.28728439667E+01 -0.21358747097E+03  0.21424075954E+03  0.00000000000E+00 0.  1.
          1    1    3    3  501    0  0.37613629630E+02 -0.10077648814E+01 -0.50010102547E+03  0.50151454256E+03  0.00000000000E+00 0.  1.
         -1    1    1    2    0  502 -0.54083057691E+02  0.38806088481E+01 -0.28270163565E+03  0.28785456581E+03  0.00000000000E+00 0. -1.
<mgrwt>
<rscale>  1 0.30000000E+03</rscale>
<asrwt>0</asrwt>
<pdfrwt beam="1">  1       21 0.13126820E-01 0.30000000E+03</pdfrwt>
<pdfrwt beam="2">0</pdfrwt>
<totfact> 0.52623656E+03</totfact>
</mgrwt>
</event>
<event>
 6    1  0.1280499E-001  0.3000000E+03  0.7818608E-02  0.1093470E+00
         21   -1    0    0  501  502  0.00000000000E+00  0.00000000000E+00  0.14640584352E+01  0.14640584352E+01  0.00000000000E+00 0. -1.
         13   -1    0    0    0    0 -0.00000000000E+00 -0.00000000000E+00 -0.10000000000E+04  0.10000000000E+04  0.00000000000E+00 0.  1.
    9000005    2    1    2  501    0 -0.13761312897E+02  0.31842518170E+02 -0.29053332908E+03  0.29261215643E+03  0.29898304688E+01 0.  0.
         13    1    3    3    0    0 -0.98097148927E+01  0.22726455186E+02 -0.21822917758E+03  0.21962854144E+03  0.00000000000E+00 0.  1.
          1    1    3    3  501    0 -0.39515980039E+01  0.91160629841E+01 -0.72304151504E+02  0.72983614981E+02  0.00000000000E+00 0.  1.
         -1    1    1    2    0  502  0.13761312897E+02 -0.31842518170E+02 -0.70800261249E+03  0.70885190201E+03  0.00000000000E+00 0. -1.
<mgrwt>
<rscale>  1 0.30000000E+03</rscale>
<asrwt>0</asrwt>
<pdfrwt beam="1">  1       21 0.53238601E-02 0.30000000E+03</pdfrwt>
<pdfrwt beam="2">0</pdfrwt>
<totfact> 0.25877270E+04</totfact>
</mgrwt>
</event>
<event>
 6    1  0.1280499E-001  0.3000000E+03  0.7818608E-02  0.1093470E+00
         21   -1    0    0  501  502  0.00000000000E+00  0.00000000000E+00  0.10779621567E+02  0.10779621567E+02  0.00000000000E+00 0. -1.
         13   -1    0    0    0    0 -0.00000000000E+00 -0.00000000000E+00 -0.10000000000E+04  0.10000000000E+04  0.00000000000E+00 0.  1.
    9000005    2    1    2  501    0  0.77458660821E+02 -0.47894292804E+02 -0.73711665176E+03  0.74273112517E+03  0.38546817439E+01 0.  0.
         13    1    3    3    0    0  0.53728140906E+02 -0.31514509808E+02 -0.51235479397E+03  0.51612722497E+03  0.00000000000E+00 0.  1.
          1    1    3    3  501    0  0.23730519914E+02 -0.16379782996E+02 -0.22476185779E+03  0.22660390020E+03  0.00000000000E+00 0.  1.
         -1    1    1    2    0  502 -0.77458660821E+02  0.47894292804E+02 -0.25210372667E+03  0.26804849640E+03  0.00000000000E+00 0. -1.
<mgrwt>
<rscale>  1 0.30000000E+03</rscale>
<asrwt>0</asrwt>
<pdfrwt beam="1">  1       21 0.39198707E-01 0.30000000E+03</pdfrwt>
<pdfrwt beam="2">0</pdfrwt>
<totfact> 0.63003425E+02</totfact>
</mgrwt>
</event>
<event>
 6    1  0.1280499E-001  0.3000000E+03  0.7818608E-02  0.1093470E+00
         21   -1    0    0  501  502  0.00000000000E+00  0.00000000000E+00  0.15190991381E+01  0.15190991381E+01  0.00000000000E+00 0. -1.
         13   -1    0    0    0    0 -0.00000000000E+00 -0.00000000000E+00 -0.10000000000E+04  0.10000000000E+04  0.00000000000E+00 0.  1.
    9000005    2    1    2  501    0 -0.10061037645E+02 -0.37333389204E+02 -0.55398765889E+03  0.55534732887E+03  0.36500752870E+01 0.  0.
         13    1    3    3    0    0 -0.52400470646E+01 -0.17500588624E+02 -0.28681190345E+03  0.28739310475E+03  0.00000000000E+00 0.  1.
          1    1    3    3  501    0 -0.48209905806E+01 -0.19832800580E+02 -0.26717575544E+03  0.26795422412E+03  0.00000000000E+00 0.  1.
         -1    1    1    2    0  502  0.10061037645E+02  0.37333389204E+02 -0.44449324197E+03  0.44617177027E+03  0.00000000000E+00 0. -1.
<mgrwt>
<rscale>  1 0.30000000E+03</rscale>
<asrwt>0</asrwt>
<pdfrwt beam="1">  1       21 0.55240085E-02 0.30000000E+03</pdfrwt>
<pdfrwt beam="2">0</pdfrwt>
<totfact> 0.24292014E+04</totfact>
</mgrwt>
</event>
<event>
 6    1  0.1280499E-001  0.3000000E+03  0.7818608E-02  0.1093470E+00
         21   -1    0    0  501  502  0.00000000000E+00  0.00000000000E+00  0.19563183756E+01  0.19563183756E+01  0.00000000000E+00 0. -1.
         13   -1    0    0    0    0 -0.00000000000E+00 -0.00000000000E+00 -0.10000000000E+04  0.10000000000E+04  0.00000000000E+00 0.  1.
    9000005    2    1    2  501    0 -0.41944575635E+02 -0.49041664148E+01 -0.64659537526E+03  0.64797989216E+03  0.29938364160E+01 0.  0.
         13    1    3    3    0    0 -0.29222674595E+02 -0.32701643417E+01 -0.42862274771E+03  0.42963021139E+03  0.00000000000E+00 0.  1.
          1    1    3    3  501    0 -0.12721901039E+02 -0.16340020731E+01 -0.21797262755E+03  0.21834968076E+03  0.00000000000E+00 0.  1.
         -3    1    1    2    0  502  0.41944575635E+02  0.49041664148E+01 -0.35144830636E+03  0.35397642622E+03  0.00000000000E+00 0. -1.
<mgrwt>
<rscale>  1 0.30000000E+03</rscale>
<asrwt>0</asrwt>
<pdfrwt beam="1">  1       21 0.71139000E-02 0.30000000E+03</pdfrwt>
<pdfrwt beam="2">0</pdfrwt>
<totfact> 0.15688063E+04</totfact>
</mgrwt>
</event>
<event>
 6    1  0.1280499E-001  0.3000000E+03  0.7818608E-02  0.1093470E+00
         21   -1    0    0  501  502  0.00000000000E+00  0.00000000000E+00  0.22958901295E+01  0.22958901295E+01  0.00000000000E+00 0. -1.
         13   -1    0    0    0    0 -0.00000000000E+00 -0.00000000000E+00 -0.10000000000E+04  0.10000000000E+04  0.00000000000E+00 0.  1.
    9000005    2    1    2  501    0 -0.44195011493E+02  0.18333889490E+02 -0.51197188510E+03  0.51421277761E+03  0.31998408279E+01 0.  0.
         13    1    3    3    0    0 -0.34038158023E+02  0.13753159039E+02 -0.37814639879E+03  0.37992426154E+03  0.00000000000E+00 0.  1.
          1    1    3    3  501    0 -0.10156853470E+02  0.45807304508E+01 -0.13382548631E+03  0.13428851607E+03  0.00000000000E+00 0.  1.
         -1    1    1    2    0  502  0.44195011493E+02 -0.18333889490E+02 -0.48573222477E+03  0.48808311252E+03  0.00000000000E+00 0. -1.
<mgrwt>
<rscale>  1 0.30000000E+03</rscale>
<asrwt>0</asrwt>
<pdfrwt beam="1">  1       21 0.83487090E-02 0.30000000E+03</pdfrwt>
<pdfrwt beam="2">0</pdfrwt>
<totfact> 0.11850438E+04</totfact>
</mgrwt>
</event>
<event>
 6    1  0.1280499E-001  0.3000000E+03  0.7818608E-02  0.1093470E+00
         21   -1    0    0  501  502  0.00000000000E+00  0.00000000000E+00  0.11388345973E+01  0.11388345973E+01  0.00000000000E+00 0. -1.
         13   -1    0    0    0    0 -0.00000000000E+00 -0.00000000000E+00 -0.10000000000E+04  0.10000000000E+04  0.00000000000E+00 0.  1.
    9000005    2    1    2  501    0 -0.31637384278E+02  0.10115859644E+02 -0.42081970909E+03  0.42214386060E+03  0.35995529782E+01 0.  0.
         13    1    3    3    0    0 -0.17792981369E+02  0.38432022099E+01 -0.23372238567E+03  0.23443018993E+03  0.00000000000E+00 0.  1.
          1    1    3    3  501    0 -0.13844402909E+02  0.62726574341E+01 -0.18709732343E+03  0.18771367067E+03  0.00000000000E+00 0.  1.
         -1    1    1    2    0  502  0.31637384278E+02 -0.10115859644E+02 -0.57804145631E+03  0.57899497400E+03  0.00000000000E+00 0. -1.
<mgrwt>
<rscale>  1 0.30000000E+03</rscale>
<asrwt>0</asrwt>
<pdfrwt beam="1">  1       21 0.41412255E-02 0.30000000E+03</pdfrwt>
<pdfrwt beam="2">0</pdfrwt>
<totfact> 0.39658705E+04</totfact>
</mgrwt>
</event>
<event>
 6    1  0.1280499E-001  0.3000000E+03  0.7818608E-02  0.1093470E+00
         21   -1    0    0  501  502  0.00000000000E+00  0.00000000000E+00  0.24753178565E+01  0.24753178565E+01  0.00000000000E+00 0. -1.
         13   -1    0    0    0    0 -0.00000000000E+00 -0.00000000000E+00 -0.10000000000E+04  0.10000000000E+04  0.00000000000E+00 0.  1.
    9000005    2    1    2  501    0 -0.27163268675E+02 -0.40664093371E+02 -0.58943842539E+03  0.59146947288E+03  0.26586399541E+01 0.  0.
         13    1    3    3    0    0 -0.11565814075E+02 -0.15287190890E+02 -0.22305783633E+03  0.22388002280E+03  0.00000000000E+00 0.  1.
          3    1    3    3  501    0 -0.15597454600E+02 -0.25376902481E+02 -0.36638058907E+03  0.36758945009E+03  0.00000000000E+00 0.  1.
         -1    1    1    2    0  502  0.27163268675E+02  0.40664093371E+02 -0.40808625675E+03  0.41100584497E+03  0.00000000000E+00 0. -1.
<mgrwt>
<rscale>  1 0.30000000E+03</rscale>
<asrwt>0</asrwt>
<pdfrwt beam="1">  1       21 0.90011748E-02 0.30000000E+03</pdfrwt>
<pdfrwt beam="2">0</pdfrwt>
<totfact> 0.10375690E+04</totfact>
</mgrwt>
</event>
<event>
 6    1  0.1280499E-001  0.3000000E+03  0.7818608E-02  0.1093470E+00
         21   -1    0    0  501  502  0.00000000000E+00  0.00000000000E+00  0.60133276316E+01  0.60133276316E+01  0.00000000000E+00 0. -1.
         13   -1    0    0    0    0 -0.00000000000E+00 -0.00000000000E+00 -0.10000000000E+04  0.10000000000E+04  0.00000000000E+00 0.  1.
    9000005    2    1    2  501    0  0.39932649274E+02  0.12244744289E+02 -0.92073985780E+03  0.92169461034E+03  0.38103482625E+01 0.  0.
         13    1    3    3    0    0  0.38155696407E+02  0.12080682691E+02 -0.86361003458E+03  0.86453692338E+03  0.00000000000E+00 0.  1.
          3    1    3    3  501    0  0.17769528669E+01  0.16406159778E+00 -0.57129823218E+02  0.57157686960E+02  0.00000000000E+00 0.  1.
         -1    1    1    2    0  502 -0.39932649274E+02 -0.12244744289E+02 -0.73246814571E+02  0.84318717291E+02  0.00000000000E+00 0. -1.
<mgrwt>
<rscale>  1 0.30000000E+03</rscale>
<asrwt>0</asrwt>
<pdfrwt beam="1">  1       21 0.21866692E-01 0.30000000E+03</pdfrwt>
<pdfrwt beam="2">0</pdfrwt>
<totfact> 0.20221113E+03</totfact>
</mgrwt>
</event>
<event>
 6    1  0.1280499E-001  0.3000000E+03  0.7818608E-02  0.1093470E+00
         21   -1    0    0  501  502  0.00000000000E+00  0.00000000000E+00  0.35365499539E+01  0.35365499539E+01  0.00000000000E+00 0. -1.
         13   -1    0    0    0    0 -0.00000000000E+00 -0.00000000000E+00 -0.10000000000E+04  0.10000000000E+04  0.00000000000E+00 0.  1.
    9000005    2    1    2  501    0 -0.12948395365E+01 -0.55496210496E+02 -0.67746830798E+03  0.67974741078E+03  0.34246384220E+01 0.  0.
         13    1    3    3    0    0  0.76990667612E+00 -0.16957450429E+02 -0.22017032357E+03  0.22082372893E+03  0.00000000000E+00 0.  1.
          1    1    3    3  501    0 -0.20647462126E+01 -0.38538760067E+02 -0.45729798442E+03  0.45892368184E+03  0.00000000000E+00 0.  1.
         -3    1    1    2    0  502  0.12948395365E+01  0.55496210496E+02 -0.31899514206E+03  0.32378913918E+03  0.00000000000E+00 0. -1.
<mgrwt>
<rscale>  1 0.30000000E+03</rscale>
<asrwt>0</asrwt>
<pdfrwt beam="1">  1       21 0.12860209E-01 0.30000000E+03</pdfrwt>
<pdfrwt beam="2">0</pdfrwt>
<totfact> 0.54632887E+03</totfact>
</mgrwt>
</event>
<event>
 6    1  0.1280499E-001  0.3000000E+03  0.7818608E-02  0.1093470E+00
         21   -1    0    0  501  502  0.00000000000E+00  0.00000000000E+00  0.13265202394E+01  0.13265202394E+01  0.00000000000E+00 0. -1.
         13   -1    0    0    0    0 -0.00000000000E+00 -0.00000000000E+00 -0.10000000000E+04  0.10000000000E+04  0.00000000000E+00 0.  1.
    9000005    2    1    2  501    0 -0.13089470056E+02  0.33564884230E+02 -0.43508620010E+03  0.43658891969E+03  0.34565298237E+01 0.  0.
         13    1    3    3    0    0 -0.18993728660E+01  0.49840189770E+01 -0.80673981458E+02  0.80850104185E+02  0.00000000000E+00 0.  1.
          3    1    3    3  501    0 -0.11190097190E+02  0.28580865253E+02 -0.35441221865E+03  0.35573881551E+03  0.00000000000E+00 0.  1.
         -1    1    1    2    0  502  0.13089470056E+02 -0.33564884230E+02 -0.56358727966E+03  0.56473760055E+03  0.00000000000E+00 0. -1.
<mgrwt>
<rscale>  1 0.30000000E+03</rscale>
<asrwt>0</asrwt>
<pdfrwt beam="1">  1       21 0.48237201E-02 0.30000000E+03</pdfrwt>
<pdfrwt beam="2">0</pdfrwt>
<totfact> 0.30620587E+04</totfact>
</mgrwt>
</event>
<event>
 6    1  0.1280499E-001  0.3000000E+03  0.7818608E-02  0.1093470E+00
         21   -1    0    0  501  502  0.00000000000E+00  0.00000000000E+00  0.54130488398E+01  0.54130488398E+01  0.00000000000E+00 0. -1.
         13   -1    0    0    0    0 -0.00000000000E+00 -0.00000000000E+00 -0.10000000000E+04  0.10000000000E+04  0.00000000000E+00 0.  1.
    9000005    2    1    2  501    0 -0.14157411852E+02 -0.64308576216E+02 -0.71875807453E+03  0.72183308751E+03  0.96856200314E+01 0.  0.
         13    1    3    3    0    0 -0.67465820695E+01 -0.45380493738E+02 -0.46246006174E+03  0.46473025970E+03  0.00000000000E+00 0.  1.
          1    1    3    3  501    0 -0.74108297829E+01 -0.18928082478E+02 -0.25629801279E+03  0.25710282780E+03  0.00000000000E+00 0.  1.
         -3    1    1    2    0  502  0.14157411852E+02  0.64308576216E+02 -0.27582887663E+03  0.28357996133E+03  0.00000000000E+00 0. -1.
<mgrwt>
<rscale>  1 0.30000000E+03</rscale>
<asrwt>0</asrwt>
<pdfrwt beam="1">  1       21 0.19683855E-01 0.30000000E+03</pdfrwt>
<pdfrwt beam="2">0</pdfrwt>
<totfact> 0.24732316E+03</totfact>
</mgrwt>
</event>
<event>
 6    1  0.1280499E-001  0.3000000E+03  0.7818608E-02  0.1093470E+00
         21   -1    0    0  501  502  0.00000000000E+00  0.00000000000E+00  0.14934598824E+01  0.14934598824E+01  0.00000000000E+00 0. -1.
         13   -1    0    0    0    0 -0.00000000000E+00 -0.00000000000E+00 -0.10000000000E+04  0.10000000000E+04  0.00000000000E+00 0.  1.
    9000005    2    1    2  501    0 -0.34685712231E+02 -0.41449743712E+01 -0.71221520402E+03  0.71307881295E+03  0.32584019495E+01 0.  0.
         13    1    3    3    0    0  0.38771383166E-01 -0.93516862351E-01 -0.39741338653E+01  0.39754230722E+01  0.00000000000E+00 0.  1.
          3    1    3    3  501    0 -0.34724483614E+02 -0.40514575088E+01 -0.70824107016E+03  0.70910338987E+03  0.00000000000E+00 0.  1.
         -1    1    1    2    0  502  0.34685712231E+02  0.41449743712E+01 -0.28629133609E+03  0.28841464694E+03  0.00000000000E+00 0. -1.
<mgrwt>
<rscale>  1 0.30000000E+03</rscale>
<asrwt>0</asrwt>
<pdfrwt beam="1">  1       21 0.54307747E-02 0.30000000E+03</pdfrwt>
<pdfrwt beam="2">0</pdfrwt>
<totfact> 0.25011258E+04</totfact>
</mgrwt>
</event>
<event>
 6    1  0.1280499E-001  0.3000000E+03  0.7818608E-02  0.1093470E+00
         21   -1    0    0  501  502  0.00000000000E+00  0.00000000000E+00  0.11278144237E+01  0.11278144237E+01  0.00000000000E+00 0. -1.
         13   -1    0    0    0    0 -0.00000000000E+00 -0.00000000000E+00 -0.10000000000E+04  0.10000000000E+04  0.00000000000E+00 0.  1.
    9000005    2    1    2  501    0 -0.31445719055E+02  0.93430452286E+01 -0.40269879355E+03  0.40405257704E+03  0.40051144952E+01 0.  0.
         13    1    3    3    0    0 -0.12123206652E+02  0.16114063178E+01 -0.15283579368E+03  0.15332432488E+03  0.00000000000E+00 0.  1.
          1    1    3    3  501    0 -0.19322512403E+02  0.77316389108E+01 -0.24986299987E+03  0.25072825215E+03  0.00000000000E+00 0.  1.
         -1    1    1    2    0  502  0.31445719055E+02 -0.93430452286E+01 -0.59617339203E+03  0.59707523739E+03  0.00000000000E+00 0. -1.
<mgrwt>
<rscale>  1 0.30000000E+03</rscale>
<asrwt>0</asrwt>
<pdfrwt beam="1">  1       21 0.41011520E-02 0.30000000E+03</pdfrwt>
<pdfrwt beam="2">0</pdfrwt>
<totfact> 0.40314533E+04</totfact>
</mgrwt>
</event>
<event>
 6    1  0.1280499E-001  0.3000000E+03  0.7818608E-02  0.1093470E+00
         21   -1    0    0  501  502  0.00000000000E+00  0.00000000000E+00  0.56472055240E+01  0.56472055240E+01  0.00000000000E+00 0. -1.
         13   -1    0    0    0    0 -0.00000000000E+00 -0.00000000000E+00 -0.10000000000E+04  0.10000000000E+04  0.00000000000E+00 0.  1.
    9000005    2    1    2  501    0 -0.71841288687E+02  0.17531167920E+02 -0.58546038308E+03  0.59012161460E+03  0.33387516440E+01 0.  0.
         13    1    3    3    0    0 -0.21783249642E+02  0.38431115331E+01 -0.17071376521E+03  0.17214084089E+03  0.00000000000E+00 0.  1.
          1    1    3    3  501    0 -0.50058039045E+02  0.13688056387E+02 -0.41474661787E+03  0.41798077372E+03  0.00000000000E+00 0.  1.
         -1    1    1    2    0  502  0.71841288687E+02 -0.17531167920E+02 -0.40889241140E+03  0.41552559092E+03  0.00000000000E+00 0. -1.
<mgrwt>
<rscale>  1 0.30000000E+03</rscale>
<asrwt>0</asrwt>
<pdfrwt beam="1">  1       21 0.20535336E-01 0.30000000E+03</pdfrwt>
<pdfrwt beam="2">0</pdfrwt>
<totfact> 0.22811031E+03</totfact>
</mgrwt>
</event>
<event>
 6    1  0.1280499E-001  0.3000000E+03  0.7818608E-02  0.1093470E+00
         21   -1    0    0  501  502  0.00000000000E+00  0.00000000000E+00  0.10185674197E+01  0.10185674197E+01  0.00000000000E+00 0. -1.
         13   -1    0    0    0    0 -0.00000000000E+00 -0.00000000000E+00 -0.10000000000E+04  0.10000000000E+04  0.00000000000E+00 0.  1.
    9000005    2    1    2  501    0 -0.30060087637E+02 -0.44021565762E+01 -0.64973971032E+03  0.65045791872E+03  0.32901373964E+01 0.  0.
         13    1    3    3    0    0 -0.25961194744E+02 -0.27788057788E+01 -0.56701401886E+03  0.56761483682E+03  0.00000000000E+00 0.  1.
          3    1    3    3  501    0 -0.40988928933E+01 -0.16233507974E+01 -0.82725691458E+02  0.82843081895E+02  0.00000000000E+00 0.  1.
         -3    1    1    2    0  502  0.30060087637E+02  0.44021565762E+01 -0.34924172226E+03  0.35056064870E+03  0.00000000000E+00 0. -1.
<mgrwt>
<rscale>  1 0.30000000E+03</rscale>
<asrwt>0</asrwt>
<pdfrwt beam="1">  1       21 0.37038893E-02 0.30000000E+03</pdfrwt>
<pdfrwt beam="2">0</pdfrwt>
<totfact> 0.47850981E+04</totfact>
</mgrwt>
</event>
<event>
 6    1  0.1280499E-001  0.3000000E+03  0.7818608E-02  0.1093470E+00
         21   -1    0    0  501  502  0.00000000000E+00  0.00000000000E+00  0.16424287331E+02  0.16424287331E+02  0.00000000000E+00 0. -1.
         13   -1    0    0    0    0 -0.00000000000E+00 -0.00000000000E+00 -0.10000000000E+04  0.10000000000E+04  0.00000000000E+00 0.  1.
    9000005    2    1    2  501    0  0.40357580339E+02  0.44710537609E+02 -0.94035658585E+03  0.94229157264E+03  0.38900975686E+01 0.  0.
         13    1    3    3    0    0  0.24276763169E+02  0.28236794277E+02 -0.55478945056E+03  0.55603777950E+03  0.00000000000E+00 0.  1.
          3    1    3    3  501    0  0.16080817170E+02  0.16473743331E+02 -0.38556713529E+03  0.38625379315E+03  0.00000000000E+00 0.  1.
         -1    1    1    2    0  502 -0.40357580339E+02 -0.44710537609E+02 -0.43219126818E+02  0.74132714688E+02  0.00000000000E+00 0. -1.
<mgrwt>
<rscale>  1 0.30000000E+03</rscale>
<asrwt>0</asrwt>
<pdfrwt beam="1">  1       21 0.59724807E-01 0.30000000E+03</pdfrwt>
<pdfrwt beam="2">0</pdfrwt>
<totfact> 0.25371900E+02</totfact>
</mgrwt>
</event>
<event>
 6    1  0.1280499E-001  0.3000000E+03  0.7818608E-02  0.1093470E+00
         21   -1    0    0  501  502  0.00000000000E+00  0.00000000000E+00  0.11579586711E+01  0.11579586711E+01  0.00000000000E+00 0. -1.
         13   -1    0    0    0    0 -0.00000000000E+00 -0.00000000000E+00 -0.10000000000E+04  0.10000000000E+04  0.00000000000E+00 0.  1.
    9000005    2    1    2  501    0 -0.30706360563E+02  0.11486044326E+02 -0.63050236272E+03  0.63136216552E+03  0.31851002380E+01 0.  0.
         13    1    3    3    0    0 -0.12216710391E+01  0.96258044022E+00 -0.21918948290E+02  0.21974060512E+02  0.00000000000E+00 0.  1.
          3    1    3    3  501    0 -0.29484689524E+02  0.10523463886E+02 -0.60858341443E+03  0.60938810501E+03  0.00000000000E+00 0.  1.
         -3    1    1    2    0  502  0.30706360563E+02 -0.11486044326E+02 -0.36833967861E+03  0.36979579315E+03  0.00000000000E+00 0. -1.
<mgrwt>
<rscale>  1 0.30000000E+03</rscale>
<asrwt>0</asrwt>
<pdfrwt beam="1">  1       21 0.42107677E-02 0.30000000E+03</pdfrwt>
<pdfrwt beam="2">0</pdfrwt>
<totfact> 0.38559366E+04</totfact>
</mgrwt>
</event>
<event>
 6    1  0.1280499E-001  0.3000000E+03  0.7818608E-02  0.1093470E+00
         21   -1    0    0  501  502  0.00000000000E+00  0.00000000000E+00  0.17371805474E+01  0.17371805474E+01  0.00000000000E+00 0. -1.
         13   -1    0    0    0    0 -0.00000000000E+00 -0.00000000000E+00 -0.10000000000E+04  0.10000000000E+04  0.00000000000E+00 0.  1.
    9000005    2    1    2  501    0 -0.17856222668E+02 -0.36538399970E+02 -0.40123076601E+03  0.40332162911E+03  0.53206726322E+01 0.  0.
         13    1    3    3    0    0 -0.77374084148E+01 -0.10352695757E+02 -0.13199981617E+03  0.13263105695E+03  0.00000000000E+00 0.  1.
          3    1    3    3  501    0 -0.10118814253E+02 -0.26185704213E+02 -0.26923094983E+03  0.27069057216E+03  0.00000000000E+00 0.  1.
         -3    1    1    2    0  502  0.17856222668E+02  0.36538399970E+02 -0.59703205344E+03  0.59841555144E+03  0.00000000000E+00 0. -1.
<mgrwt>
<rscale>  1 0.30000000E+03</rscale>
<asrwt>0</asrwt>
<pdfrwt beam="1">  1       21 0.63170335E-02 0.30000000E+03</pdfrwt>
<pdfrwt beam="2">0</pdfrwt>
<totfact> 0.19279220E+04</totfact>
</mgrwt>
</event>
<event>
 6    1  0.1280499E-001  0.3000000E+03  0.7818608E-02  0.1093470E+00
         21   -1    0    0  501  502  0.00000000000E+00  0.00000000000E+00  0.31697107380E+01  0.31697107380E+01  0.00000000000E+00 0. -1.
         13   -1    0    0    0    0 -0.00000000000E+00 -0.00000000000E+00 -0.10000000000E+04  0.10000000000E+04  0.00000000000E+00 0.  1.
    9000005    2    1    2  501    0  0.22223419642E+02 -0.31627881492E+02 -0.86293729994E+03  0.86380854019E+03  0.31948710130E+01 0.  0.
         13    1    3    3    0    0  0.20976191973E+02 -0.29842802853E+02 -0.82833577237E+03  0.82913855616E+03  0.00000000000E+00 0.  1.
          1    1    3    3  501    0  0.12472276692E+01 -0.17850786389E+01 -0.34601527570E+02  0.34669984032E+02  0.00000000000E+00 0.  1.
         -1    1    1    2    0  502 -0.22223419642E+02  0.31627881492E+02 -0.13389298932E+03  0.13936117055E+03  0.00000000000E+00 0. -1.
<mgrwt>
<rscale>  1 0.30000000E+03</rscale>
<asrwt>0</asrwt>
<pdfrwt beam="1">  1       21 0.11526245E-01 0.30000000E+03</pdfrwt>
<pdfrwt beam="2">0</pdfrwt>
<totfact> 0.66660414E+03</totfact>
</mgrwt>
</event>
<event>
 6    1  0.1280499E-001  0.3000000E+03  0.7818608E-02  0.1093470E+00
         21   -1    0    0  501  502  0.00000000000E+00  0.00000000000E+00  0.11164214736E+01  0.11164214736E+01  0.00000000000E+00 0. -1.
         13   -1    0    0    0    0 -0.00000000000E+00 -0.00000000000E+00 -0.10000000000E+04  0.10000000000E+04  0.00000000000E+00 0.  1.
    9000005    2    1    2  501    0 -0.32515672914E+02  0.71754210507E+01 -0.53023778860E+03  0.53128918506E+03  0.27074081682E+01 0.  0.
         13    1    3    3    0    0 -0.77847265554E+01  0.29098566065E+01 -0.13366645169E+03  0.13392456660E+03  0.00000000000E+00 0.  1.
          1    1    3    3  501    0 -0.24730946359E+02  0.42655644442E+01 -0.39657133691E+03  0.39736461846E+03  0.00000000000E+00 0.  1.
         -3    1    1    2    0  502  0.32515672914E+02 -0.71754210507E+01 -0.46864578993E+03  0.46982723641E+03  0.00000000000E+00 0. -1.
<mgrwt>
<rscale>  1 0.30000000E+03</rscale>
<asrwt>0</asrwt>
<pdfrwt beam="1">  1       21 0.40597230E-02 0.30000000E+03</pdfrwt>
<pdfrwt beam="2">0</pdfrwt>
<totfact> 0.41010503E+04</totfact>
</mgrwt>
</event>
<event>
 6    1  0.1280499E-001  0.3000000E+03  0.7818608E-02  0.1093470E+00
         21   -1    0    0  501  502  0.00000000000E+00  0.00000000000E+00  0.33669312489E+01  0.33669312489E+01  0.00000000000E+00 0. -1.
         13   -1    0    0    0    0 -0.00000000000E+00 -0.00000000000E+00 -0.10000000000E+04  0.10000000000E+04  0.00000000000E+00 0.  1.
    9000005    2    1    2  501    0  0.36163023932E+02 -0.24266536420E+01 -0.88994657012E+03  0.89069190324E+03  0.36763938632E+01 0.  0.
         13    1    3    3    0    0  0.33273667961E+01  0.34966131985E+00 -0.10670444336E+03  0.10675688205E+03  0.00000000000E+00 0.  1.
          3    1    3    3  501    0  0.32835657135E+02 -0.27763149618E+01 -0.78324212677E+03  0.78393502119E+03  0.00000000000E+00 0.  1.
         -1    1    1    2    0  502 -0.36163023932E+02  0.24266536420E+01 -0.10668649863E+03  0.11267502801E+03  0.00000000000E+00 0. -1.
<mgrwt>
<rscale>  1 0.30000000E+03</rscale>
<asrwt>0</asrwt>
<pdfrwt beam="1">  1       21 0.12243412E-01 0.30000000E+03</pdfrwt>
<pdfrwt beam="2">0</pdfrwt>
<totfact> 0.59750654E+03</totfact>
</mgrwt>
</event>
<event>
 6    1  0.1280499E-001  0.3000000E+03  0.7818608E-02  0.1093470E+00
         21   -1    0    0  501  502  0.00000000000E+00  0.00000000000E+00  0.21756966699E+01  0.21756966699E+01  0.00000000000E+00 0. -1.
         13   -1    0    0    0    0 -0.00000000000E+00 -0.00000000000E+00 -0.10000000000E+04  0.10000000000E+04  0.00000000000E+00 0.  1.
    9000005    2    1    2  501    0  0.93869937693E+01  0.43565207361E+02 -0.64558117721E+03  0.64712462592E+03  0.30302070739E+01 0.  0.
         13    1    3    3    0    0  0.65909470460E+01  0.24630459623E+02 -0.38058957331E+03  0.38144268696E+03  0.00000000000E+00 0.  1.
          3    1    3    3  501    0  0.27960467233E+01  0.18934747738E+02 -0.26499160390E+03  0.26568193895E+03  0.00000000000E+00 0.  1.
         -3    1    1    2    0  502 -0.93869937693E+01 -0.43565207361E+02 -0.35224312612E+03  0.35505107075E+03  0.00000000000E+00 0. -1.
<mgrwt>
<rscale>  1 0.30000000E+03</rscale>
<asrwt>0</asrwt>
<pdfrwt beam="1">  1       21 0.79116409E-02 0.30000000E+03</pdfrwt>
<pdfrwt beam="2">0</pdfrwt>
<totfact> 0.13025427E+04</totfact>
</mgrwt>
</event>
<event>
 6    1  0.1280499E-001  0.3000000E+03  0.7818608E-02  0.1093470E+00
         21   -1    0    0  501  502  0.00000000000E+00  0.00000000000E+00  0.25775230062E+01  0.25775230062E+01  0.00000000000E+00 0. -1.
         13   -1    0    0    0    0 -0.00000000000E+00 -0.00000000000E+00 -0.10000000000E+04  0.10000000000E+04  0.00000000000E+00 0.  1.
    9000005    2    1    2  501    0 -0.44926804037E+02 -0.46021283019E+01 -0.72718570692E+03  0.72859301759E+03  0.30225208612E+01 0.  0.
         13    1    3    3    0    0 -0.33990327574E+02 -0.30119403271E+01 -0.52904097258E+03  0.53014032559E+03  0.00000000000E+00 0.  1.
          3    1    3    3  501    0 -0.10936476463E+02 -0.15901879747E+01 -0.19814473434E+03  0.19845269200E+03  0.00000000000E+00 0.  1.
         -1    1    1    2    0  502  0.44926804037E+02  0.46021283019E+01 -0.27023677007E+03  0.27398450541E+03  0.00000000000E+00 0. -1.
<mgrwt>
<rscale>  1 0.30000000E+03</rscale>
<asrwt>0</asrwt>
<pdfrwt beam="1">  1       21 0.93728307E-02 0.30000000E+03</pdfrwt>
<pdfrwt beam="2">0</pdfrwt>
<totfact> 0.96566208E+03</totfact>
</mgrwt>
</event>
<event>
 6    1  0.1280499E-001  0.3000000E+03  0.7818608E-02  0.1093470E+00
         21   -1    0    0  501  502  0.00000000000E+00  0.00000000000E+00  0.14599180359E+01  0.14599180359E+01  0.00000000000E+00 0. -1.
         13   -1    0    0    0    0 -0.00000000000E+00 -0.00000000000E+00 -0.10000000000E+04  0.10000000000E+04  0.00000000000E+00 0.  1.
    9000005    2    1    2  501    0  0.30182751006E+02  0.13684824303E+02 -0.73876779245E+03  0.73958224569E+03  0.10284653732E+02 0.  0.
         13    1    3    3    0    0  0.22138752405E+02  0.55980442075E+01 -0.54596489671E+03  0.54644224845E+03  0.00000000000E+00 0.  1.
          1    1    3    3  501    0  0.80439986004E+01  0.80867800956E+01 -0.19280289574E+03  0.19313999723E+03  0.00000000000E+00 0.  1.
         -1    1    1    2    0  502 -0.30182751006E+02 -0.13684824303E+02 -0.25977228952E+03  0.26187767235E+03  0.00000000000E+00 0. -1.
<mgrwt>
<rscale>  1 0.30000000E+03</rscale>
<asrwt>0</asrwt>
<pdfrwt beam="1">  1       21 0.53088041E-02 0.30000000E+03</pdfrwt>
<pdfrwt beam="2">0</pdfrwt>
<totfact> 0.26002940E+04</totfact>
</mgrwt>
</event>
<event>
 6    1  0.1280499E-001  0.3000000E+03  0.7818608E-02  0.1093470E+00
         21   -1    0    0  501  502  0.00000000000E+00  0.00000000000E+00  0.21892606150E+01  0.21892606150E+01  0.00000000000E+00 0. -1.
         13   -1    0    0    0    0 -0.00000000000E+00 -0.00000000000E+00 -0.10000000000E+04  0.10000000000E+04  0.00000000000E+00 0.  1.
    9000005    2    1    2  501    0  0.43418688821E+02 -0.25558339846E+01 -0.68256786650E+03  0.68396012347E+03  0.32929145164E+01 0.  0.
         13    1    3    3    0    0  0.22545006411E+02 -0.22868062427E+01 -0.33425617735E+03  0.33502343037E+03  0.00000000000E+00 0.  1.
          1    1    3    3  501    0  0.20873682410E+02 -0.26902774192E+00 -0.34831168915E+03  0.34893669310E+03  0.00000000000E+00 0.  1.
         -1    1    1    2    0  502 -0.43418688821E+02  0.25558339846E+01 -0.31524287288E+03  0.31822913715E+03  0.00000000000E+00 0. -1.
<mgrwt>
<rscale>  1 0.30000000E+03</rscale>
<asrwt>0</asrwt>
<pdfrwt beam="1">  1       21 0.79609645E-02 0.30000000E+03</pdfrwt>
<pdfrwt beam="2">0</pdfrwt>
<totfact> 0.12884073E+04</totfact>
</mgrwt>
</event>
<event>
 6    1  0.1280499E-001  0.3000000E+03  0.7818608E-02  0.1093470E+00
         21   -1    0    0  501  502  0.00000000000E+00  0.00000000000E+00  0.44811894875E+01  0.44811894875E+01  0.00000000000E+00 0. -1.
         13   -1    0    0    0    0 -0.00000000000E+00 -0.00000000000E+00 -0.10000000000E+04  0.10000000000E+04  0.00000000000E+00 0.  1.
    9000005    2    1    2  501    0 -0.44557971118E+02 -0.42222110167E+02 -0.69758118891E+03  0.70028561794E+03  0.35088757094E+01 0.  0.
         13    1    3    3    0    0 -0.11562052662E+02 -0.93085626813E+01 -0.17906791282E+03  0.17968207424E+03  0.00000000000E+00 0.  1.
          3    1    3    3  501    0 -0.32995918456E+02 -0.32913547486E+02 -0.51851327608E+03  0.52060354370E+03  0.00000000000E+00 0.  1.
         -1    1    1    2    0  502  0.44557971118E+02  0.42222110167E+02 -0.29793762161E+03  0.30419557154E+03  0.00000000000E+00 0. -1.
<mgrwt>
<rscale>  1 0.30000000E+03</rscale>
<asrwt>0</asrwt>
<pdfrwt beam="1">  1       21 0.16295269E-01 0.30000000E+03</pdfrwt>
<pdfrwt beam="2">0</pdfrwt>
<totfact> 0.35301853E+03</totfact>
</mgrwt>
</event>
<event>
 6    1  0.1280499E-001  0.3000000E+03  0.7818608E-02  0.1093470E+00
         21   -1    0    0  501  502  0.00000000000E+00  0.00000000000E+00  0.15661511248E+01  0.15661511248E+01  0.00000000000E+00 0. -1.
         13   -1    0    0    0    0 -0.00000000000E+00 -0.00000000000E+00 -0.10000000000E+04  0.10000000000E+04  0.00000000000E+00 0.  1.
    9000005    2    1    2  501    0 -0.10390437491E+02  0.28907251093E+02 -0.81443819929E+03  0.81502395905E+03  0.32989406123E+01 0.  0.
         13    1    3    3    0    0 -0.37741840908E+01  0.11531980818E+02 -0.36409888118E+03  0.36430101059E+03  0.00000000000E+00 0.  1.
          1    1    3    3  501    0 -0.66162534003E+01  0.17375270275E+02 -0.45033931812E+03  0.45072294846E+03  0.00000000000E+00 0.  1.
         -1    1    1    2    0  502  0.10390437491E+02 -0.28907251093E+02 -0.18399564958E+03  0.18654219207E+03  0.00000000000E+00 0. -1.
<mgrwt>
<rscale>  1 0.30000000E+03</rscale>
<asrwt>0</asrwt>
<pdfrwt beam="1">  1       21 0.56951070E-02 0.30000000E+03</pdfrwt>
<pdfrwt beam="2">0</pdfrwt>
<totfact> 0.23052275E+04</totfact>
</mgrwt>
</event>
<event>
 6    1  0.1280499E-001  0.3000000E+03  0.7818608E-02  0.1093470E+00
         21   -1    0    0  501  502  0.00000000000E+00  0.00000000000E+00  0.24337420054E+01  0.24337420054E+01  0.00000000000E+00 0. -1.
         13   -1    0    0    0    0 -0.00000000000E+00 -0.00000000000E+00 -0.10000000000E+04  0.10000000000E+04  0.00000000000E+00 0.  1.
    9000005    2    1    2  501    0  0.17861707643E+02  0.35713059407E+02 -0.79283192549E+03  0.79384177160E+03  0.27987579647E+01 0.  0.
         13    1    3    3    0    0  0.16038888283E+02  0.29855977161E+02 -0.66769752058E+03  0.66855710623E+03  0.00000000000E+00 0.  1.
          1    1    3    3  501    0  0.18228193601E+01  0.58570822461E+01 -0.12513440492E+03  0.12528466537E+03  0.00000000000E+00 0.  1.
         -3    1    1    2    0  502 -0.17861707643E+02 -0.35713059407E+02 -0.20473433250E+03  0.20859197040E+03  0.00000000000E+00 0. -1.
<mgrwt>
<rscale>  1 0.30000000E+03</rscale>
<asrwt>0</asrwt>
<pdfrwt beam="1">  1       21 0.88499896E-02 0.30000000E+03</pdfrwt>
<pdfrwt beam="2">0</pdfrwt>
<totfact> 0.10691542E+04</totfact>
</mgrwt>
</event>
<event>
 6    1  0.1280499E-001  0.3000000E+03  0.7818608E-02  0.1093470E+00
         21   -1    0    0  501  502  0.00000000000E+00  0.00000000000E+00  0.13127081522E+01  0.13127081522E+01  0.00000000000E+00 0. -1.
         13   -1    0    0    0    0 -0.00000000000E+00 -0.00000000000E+00 -0.10000000000E+04  0.10000000000E+04  0.00000000000E+00 0.  1.
    9000005    2    1    2  501    0  0.65305238511E+01 -0.33484752743E+02 -0.65904173322E+03  0.65995808038E+03  0.66921835797E+01 0.  0.
         13    1    3    3    0    0  0.78638002465E+01 -0.26062026924E+02 -0.51334886783E+03  0.51407015932E+03  0.00000000000E+00 0.  1.
          1    1    3    3  501    0 -0.13332763954E+01 -0.74227258189E+01 -0.14569286539E+03  0.14588792106E+03  0.00000000000E+00 0.  1.
         -3    1    1    2    0  502 -0.65305238511E+01  0.33484752743E+02 -0.33964555863E+03  0.34135462777E+03  0.00000000000E+00 0. -1.
<mgrwt>
<rscale>  1 0.30000000E+03</rscale>
<asrwt>0</asrwt>
<pdfrwt beam="1">  1       21 0.47734943E-02 0.30000000E+03</pdfrwt>
<pdfrwt beam="2">0</pdfrwt>
<totfact> 0.31170833E+04</totfact>
</mgrwt>
</event>
<event>
 6    1  0.1280499E-001  0.3000000E+03  0.7818608E-02  0.1093470E+00
         21   -1    0    0  501  502  0.00000000000E+00  0.00000000000E+00  0.34860163720E+01  0.34860163720E+01  0.00000000000E+00 0. -1.
         13   -1    0    0    0    0 -0.00000000000E+00 -0.00000000000E+00 -0.10000000000E+04  0.10000000000E+04  0.00000000000E+00 0.  1.
    9000005    2    1    2  501    0  0.19181209116E+02  0.29338516123E+02 -0.90191220019E+03  0.90259912554E+03  0.33011010653E+01 0.  0.
         13    1    3    3    0    0  0.73977175668E+01  0.89385041077E+01 -0.27631295633E+03  0.27655645520E+03  0.00000000000E+00 0.  1.
          1    1    3    3  501    0  0.11783491549E+02  0.20400012015E+02 -0.62559924386E+03  0.62604267034E+03  0.00000000000E+00 0.  1.
         -1    1    1    2    0  502 -0.19181209116E+02 -0.29338516123E+02 -0.94601783438E+02  0.10088689083E+03  0.00000000000E+00 0. -1.
<mgrwt>
<rscale>  1 0.30000000E+03</rscale>
<asrwt>0</asrwt>
<pdfrwt beam="1">  1       21 0.12676450E-01 0.30000000E+03</pdfrwt>
<pdfrwt beam="2">0</pdfrwt>
<totfact> 0.56085942E+03</totfact>
</mgrwt>
</event>
<event>
 6    1  0.1280499E-001  0.3000000E+03  0.7818608E-02  0.1093470E+00
         21   -1    0    0  501  502  0.00000000000E+00  0.00000000000E+00  0.47067448819E+01  0.47067448819E+01  0.00000000000E+00 0. -1.
         13   -1    0    0    0    0 -0.00000000000E+00 -0.00000000000E+00 -0.10000000000E+04  0.10000000000E+04  0.00000000000E+00 0.  1.
    9000005    2    1    2  501    0  0.61565837654E+02  0.13874509941E+02 -0.30192335337E+03  0.30847066779E+03  0.36860799330E+01 0.  0.
         13    1    3    3    0    0  0.30772985909E+02  0.85107428979E+01 -0.14760420563E+03  0.15101791591E+03  0.00000000000E+00 0.  1.
          1    1    3    3  501    0  0.30792851746E+02  0.53637670431E+01 -0.15431914774E+03  0.15745275188E+03  0.00000000000E+00 0.  1.
         -3    1    1    2    0  502 -0.61565837654E+02 -0.13874509941E+02 -0.69336990175E+03  0.69623607709E+03  0.00000000000E+00 0. -1.
<mgrwt>
<rscale>  1 0.30000000E+03</rscale>
<asrwt>0</asrwt>
<pdfrwt beam="1">  1       21 0.17115472E-01 0.30000000E+03</pdfrwt>
<pdfrwt beam="2">0</pdfrwt>
<totfact> 0.32204170E+03</totfact>
</mgrwt>
</event>
<event>
 6    1  0.1280499E-001  0.3000000E+03  0.7818608E-02  0.1093470E+00
         21   -1    0    0  501  502  0.00000000000E+00  0.00000000000E+00  0.19275312366E+01  0.19275312366E+01  0.00000000000E+00 0. -1.
         13   -1    0    0    0    0 -0.00000000000E+00 -0.00000000000E+00 -0.10000000000E+04  0.10000000000E+04  0.00000000000E+00 0.  1.
    9000005    2    1    2  501    0  0.32985107516E+02  0.24020812986E+02 -0.68265111260E+03  0.68387777303E+03  0.33541212610E+01 0.  0.
         13    1    3    3    0    0  0.79989122360E+01  0.42568598375E+01 -0.14180671298E+03  0.14209590881E+03  0.00000000000E+00 0.  1.
          3    1    3    3  501    0  0.24986195280E+02  0.19763953148E+02 -0.54084439962E+03  0.54178186422E+03  0.00000000000E+00 0.  1.
         -3    1    1    2    0  502 -0.32985107516E+02 -0.24020812986E+02 -0.31542135616E+03  0.31804975821E+03  0.00000000000E+00 0. -1.
<mgrwt>
<rscale>  1 0.30000000E+03</rscale>
<asrwt>0</asrwt>
<pdfrwt beam="1">  1       21 0.70092193E-02 0.30000000E+03</pdfrwt>
<pdfrwt beam="2">0</pdfrwt>
<totfact> 0.16098368E+04</totfact>
</mgrwt>
</event>
<event>
 6    1  0.1280499E-001  0.3000000E+03  0.7818608E-02  0.1093470E+00
         21   -1    0    0  501  502  0.00000000000E+00  0.00000000000E+00  0.12787384035E+01  0.12787384035E+01  0.00000000000E+00 0. -1.
         13   -1    0    0    0    0 -0.00000000000E+00 -0.00000000000E+00 -0.10000000000E+04  0.10000000000E+04  0.00000000000E+00 0.  1.
    9000005    2    1    2  501    0  0.11379288644E+02  0.29372079476E+02 -0.73520061700E+03  0.73588217213E+03  0.32274997277E+01 0.  0.
         13    1    3    3    0    0  0.84202549392E+01  0.19139941724E+02 -0.45831422626E+03  0.45879098515E+03  0.00000000000E+00 0.  1.
          1    1    3    3  501    0  0.29590337051E+01  0.10232137752E+02 -0.27688639074E+03  0.27709118698E+03  0.00000000000E+00 0.  1.
         -1    1    1    2    0  502 -0.11379288644E+02 -0.29372079476E+02 -0.26352064459E+03  0.26539656627E+03  0.00000000000E+00 0. -1.
<mgrwt>
<rscale>  1 0.30000000E+03</rscale>
<asrwt>0</asrwt>
<pdfrwt beam="1">  1       21 0.46499676E-02 0.30000000E+03</pdfrwt>
<pdfrwt beam="2">0</pdfrwt>
<totfact> 0.32591908E+04</totfact>
</mgrwt>
</event>
<event>
 6    1  0.1280499E-001  0.3000000E+03  0.7818608E-02  0.1093470E+00
         21   -1    0    0  501  502  0.00000000000E+00  0.00000000000E+00  0.10249383986E+01  0.10249383986E+01  0.00000000000E+00 0. -1.
         13   -1    0    0    0    0 -0.00000000000E+00 -0.00000000000E+00 -0.10000000000E+04  0.10000000000E+04  0.00000000000E+00 0.  1.
    9000005    2    1    2  501    0 -0.19752267478E+02  0.24833151270E+02 -0.44512078108E+03  0.44626246533E+03  0.32925280872E+01 0.  0.
         13    1    3    3    0    0 -0.15600814081E+02  0.18298450040E+02 -0.35203385819E+03  0.35285415682E+03  0.00000000000E+00 0.  1.
          1    1    3    3  501    0 -0.41514533970E+01  0.65347012293E+01 -0.93086922889E+02  0.93408308509E+02  0.00000000000E+00 0.  1.
         -1    1    1    2    0  502  0.19752267478E+02 -0.24833151270E+02 -0.55385428053E+03  0.55476247307E+03  0.00000000000E+00 0. -1.
<mgrwt>
<rscale>  1 0.30000000E+03</rscale>
<asrwt>0</asrwt>
<pdfrwt beam="1">  1       21 0.37270566E-02 0.30000000E+03</pdfrwt>
<pdfrwt beam="2">0</pdfrwt>
<totfact> 0.47352720E+04</totfact>
</mgrwt>
</event>
<event>
 6    1  0.1280499E-001  0.3000000E+03  0.7818608E-02  0.1093470E+00
         21   -1    0    0  501  502  0.00000000000E+00  0.00000000000E+00  0.13790136344E+01  0.13790136344E+01  0.00000000000E+00 0. -1.
         13   -1    0    0    0    0 -0.00000000000E+00 -0.00000000000E+00 -0.10000000000E+04  0.10000000000E+04  0.00000000000E+00 0.  1.
    9000005    2    1    2  501    0 -0.30118310718E+02  0.21266002120E+02 -0.50177846655E+03  0.50317037764E+03  0.62804419010E+01 0.  0.
         13    1    3    3    0    0 -0.82160989334E+01  0.26074186430E+01 -0.12018075276E+03  0.12048948605E+03  0.00000000000E+00 0.  1.
          1    1    3    3  501    0 -0.21902211784E+02  0.18658583477E+02 -0.38159771379E+03  0.38268089159E+03  0.00000000000E+00 0.  1.
         -1    1    1    2    0  502  0.30118310718E+02 -0.21266002120E+02 -0.49684251981E+03  0.49820863600E+03  0.00000000000E+00 0. -1.
<mgrwt>
<rscale>  1 0.30000000E+03</rscale>
<asrwt>0</asrwt>
<pdfrwt beam="1">  1       21 0.50146056E-02 0.30000000E+03</pdfrwt>
<pdfrwt beam="2">0</pdfrwt>
<totfact> 0.28661771E+04</totfact>
</mgrwt>
</event>
<event>
 6    1  0.1280499E-001  0.3000000E+03  0.7818608E-02  0.1093470E+00
         21   -1    0    0  501  502  0.00000000000E+00  0.00000000000E+00  0.15930015398E+01  0.15930015398E+01  0.00000000000E+00 0. -1.
         13   -1    0    0    0    0 -0.00000000000E+00 -0.00000000000E+00 -0.10000000000E+04  0.10000000000E+04  0.00000000000E+00 0.  1.
    9000005    2    1    2  501    0  0.34486135824E+02 -0.19402728709E+02 -0.44022267039E+03  0.44200788420E+03  0.30349174491E+01 0.  0.
         13    1    3    3    0    0  0.29366831968E+02 -0.15281613428E+02 -0.36374765369E+03  0.36525100150E+03  0.00000000000E+00 0.  1.
          1    1    3    3  501    0  0.51193038565E+01 -0.41211152807E+01 -0.76475016695E+02  0.76756882698E+02  0.00000000000E+00 0.  1.
         -3    1    1    2    0  502 -0.34486135824E+02  0.19402728709E+02 -0.55818432807E+03  0.55958511734E+03  0.00000000000E+00 0. -1.
<mgrwt>
<rscale>  1 0.30000000E+03</rscale>
<asrwt>0</asrwt>
<pdfrwt beam="1">  1       21 0.57927451E-02 0.30000000E+03</pdfrwt>
<pdfrwt beam="2">0</pdfrwt>
<totfact> 0.22387775E+04</totfact>
</mgrwt>
</event>
<event>
 6    1  0.1280499E-001  0.3000000E+03  0.7818608E-02  0.1093470E+00
         21   -1    0    0  501  502  0.00000000000E+00  0.00000000000E+00  0.12668278214E+01  0.12668278214E+01  0.00000000000E+00 0. -1.
         13   -1    0    0    0    0 -0.00000000000E+00 -0.00000000000E+00 -0.10000000000E+04  0.10000000000E+04  0.00000000000E+00 0.  1.
    9000005    2    1    2  501    0  0.94427134607E+01  0.29702059145E+02 -0.26180572865E+03  0.26368060630E+03  0.37209446338E+01 0.  0.
         13    1    3    3    0    0  0.22727082339E+01  0.12179312832E+02 -0.11201514934E+03  0.11269824553E+03  0.00000000000E+00 0.  1.
          1    1    3    3  501    0  0.71700052268E+01  0.17522746313E+02 -0.14979057931E+03  0.15098236077E+03  0.00000000000E+00 0.  1.
         -1    1    1    2    0  502 -0.94427134607E+01 -0.29702059145E+02 -0.73692744353E+03  0.73758622153E+03  0.00000000000E+00 0. -1.
<mgrwt>
<rscale>  1 0.30000000E+03</rscale>
<asrwt>0</asrwt>
<pdfrwt beam="1">  1       21 0.46066563E-02 0.30000000E+03</pdfrwt>
<pdfrwt beam="2">0</pdfrwt>
<totfact> 0.33114331E+04</totfact>
</mgrwt>
</event>
<event>
 6    1  0.1280499E-001  0.3000000E+03  0.7818608E-02  0.1093470E+00
         21   -1    0    0  501  502  0.00000000000E+00  0.00000000000E+00  0.13735415426E+01  0.13735415426E+01  0.00000000000E+00 0. -1.
         13   -1    0    0    0    0 -0.00000000000E+00 -0.00000000000E+00 -0.10000000000E+04  0.10000000000E+04  0.00000000000E+00 0.  1.
    9000005    2    1    2  501    0 -0.33673403687E+02  0.81823927547E+01 -0.67446236755E+03  0.67536248728E+03  0.37622224933E+01 0.  0.
         13    1    3    3    0    0 -0.29700970616E+02  0.60415028851E+01 -0.57636556481E+03  0.57716194583E+03  0.00000000000E+00 0.  1.
          1    1    3    3  501    0 -0.39724330707E+01  0.21408898695E+01 -0.98096802736E+02  0.98200541449E+02  0.00000000000E+00 0.  1.
         -1    1    1    2    0  502  0.33673403687E+02 -0.81823927547E+01 -0.32416409091E+03  0.32601105426E+03  0.00000000000E+00 0. -1.
<mgrwt>
<rscale>  1 0.30000000E+03</rscale>
<asrwt>0</asrwt>
<pdfrwt beam="1">  1       21 0.49947071E-02 0.30000000E+03</pdfrwt>
<pdfrwt beam="2">0</pdfrwt>
<totfact> 0.28856709E+04</totfact>
</mgrwt>
</event>
<event>
 6    1  0.1280499E-001  0.3000000E+03  0.7818608E-02  0.1093470E+00
         21   -1    0    0  501  502  0.00000000000E+00  0.00000000000E+00  0.75232076480E+01  0.75232076480E+01  0.00000000000E+00 0. -1.
         13   -1    0    0    0    0 -0.00000000000E+00 -0.00000000000E+00 -0.10000000000E+04  0.10000000000E+04  0.00000000000E+00 0.  1.
    9000005    2    1    2  501    0 -0.28294040949E+02  0.20808045968E+02 -0.95683305339E+03  0.95748318709E+03  0.33217423541E+01 0.  0.
         13    1    3    3    0    0 -0.79866864255E+01  0.56959761184E+01 -0.30939953351E+03  0.30955500746E+03  0.00000000000E+00 0.  1.
          1    1    3    3  501    0 -0.20307354523E+02  0.15112069849E+02 -0.64743351987E+03  0.64792817963E+03  0.00000000000E+00 0.  1.
         -1    1    1    2    0  502  0.28294040949E+02 -0.20808045968E+02 -0.35643738965E+02  0.50040020559E+02  0.00000000000E+00 0. -1.
<mgrwt>
<rscale>  1 0.30000000E+03</rscale>
<asrwt>0</asrwt>
<pdfrwt beam="1">  1       21 0.27357176E-01 0.30000000E+03</pdfrwt>
<pdfrwt beam="2">0</pdfrwt>
<totfact> 0.13061089E+03</totfact>
</mgrwt>
</event>
<event>
 6    1  0.1280499E-001  0.3000000E+03  0.7818608E-02  0.1093470E+00
         21   -1    0    0  501  502  0.00000000000E+00  0.00000000000E+00  0.37864563425E+01  0.37864563425E+01  0.00000000000E+00 0. -1.
         13   -1    0    0    0    0 -0.00000000000E+00 -0.00000000000E+00 -0.10000000000E+04  0.10000000000E+04  0.00000000000E+00 0.  1.
    9000005    2    1    2  501    0 -0.24253578913E+02 -0.42916435156E+02 -0.79825767511E+03  0.79978502892E+03  0.32741596307E+01 0.  0.
         13    1    3    3    0    0 -0.23396282878E+02 -0.41569658452E+02 -0.78022379313E+03  0.78168061887E+03  0.00000000000E+00 0.  1.
          1    1    3    3  501    0 -0.85729603593E+00 -0.13467767048E+01 -0.18033881980E+02  0.18104410050E+02  0.00000000000E+00 0.  1.
         -3    1    1    2    0  502  0.24253578913E+02  0.42916435156E+02 -0.19795586855E+03  0.20400142742E+03  0.00000000000E+00 0. -1.
<mgrwt>
<rscale>  1 0.30000000E+03</rscale>
<asrwt>0</asrwt>
<pdfrwt beam="1">  1       21 0.13768961E-01 0.30000000E+03</pdfrwt>
<pdfrwt beam="2">0</pdfrwt>
<totfact> 0.48217577E+03</totfact>
</mgrwt>
</event>
<event>
 6    1  0.1280499E-001  0.3000000E+03  0.7818608E-02  0.1093470E+00
         21   -1    0    0  501  502  0.00000000000E+00  0.00000000000E+00  0.34868837159E+01  0.34868837159E+01  0.00000000000E+00 0. -1.
         13   -1    0    0    0    0 -0.00000000000E+00 -0.00000000000E+00 -0.10000000000E+04  0.10000000000E+04  0.00000000000E+00 0.  1.
    9000005    2    1    2  501    0  0.10994472626E+02  0.51668126477E+02 -0.72189105325E+03  0.72383039581E+03  0.36435444835E+01 0.  0.
         13    1    3    3    0    0  0.77937140333E+01  0.35135737748E+02 -0.51401505560E+03  0.51527346083E+03  0.00000000000E+00 0.  1.
          3    1    3    3  501    0  0.32007585924E+01  0.16532388729E+02 -0.20787599765E+03  0.20855693499E+03  0.00000000000E+00 0.  1.
         -3    1    1    2    0  502 -0.10994472626E+02 -0.51668126477E+02 -0.27462206303E+03  0.27965648790E+03  0.00000000000E+00 0. -1.
<mgrwt>
<rscale>  1 0.30000000E+03</rscale>
<asrwt>0</asrwt>
<pdfrwt beam="1">  1       21 0.12679604E-01 0.30000000E+03</pdfrwt>
<pdfrwt beam="2">0</pdfrwt>
<totfact> 0.56060511E+03</totfact>
</mgrwt>
</event>
<event>
 6    1  0.1280499E-001  0.3000000E+03  0.7818608E-02  0.1093470E+00
         21   -1    0    0  501  502  0.00000000000E+00  0.00000000000E+00  0.64782743598E+01  0.64782743598E+01  0.00000000000E+00 0. -1.
         13   -1    0    0    0    0 -0.00000000000E+00 -0.00000000000E+00 -0.10000000000E+04  0.10000000000E+04  0.00000000000E+00 0.  1.
    9000005    2    1    2  501    0 -0.95884950160E+01 -0.61439422360E+02 -0.81611500217E+03  0.81848921247E+03  0.37619557834E+01 0.  0.
         13    1    3    3    0    0 -0.65634397633E+01 -0.32128933239E+02 -0.41553094475E+03  0.41682287982E+03  0.00000000000E+00 0.  1.
          1    1    3    3  501    0 -0.30250552528E+01 -0.29310489121E+02 -0.40058405742E+03  0.40166633266E+03  0.00000000000E+00 0.  1.
         -3    1    1    2    0  502  0.95884950160E+01  0.61439422360E+02 -0.17740672347E+03  0.18798906189E+03  0.00000000000E+00 0. -1.
<mgrwt>
<rscale>  1 0.30000000E+03</rscale>
<asrwt>0</asrwt>
<pdfrwt beam="1">  1       21 0.23557411E-01 0.30000000E+03</pdfrwt>
<pdfrwt beam="2">0</pdfrwt>
<totfact> 0.17511084E+03</totfact>
</mgrwt>
</event>
<event>
 6    1  0.1280499E-001  0.3000000E+03  0.7818608E-02  0.1093470E+00
         21   -1    0    0  501  502  0.00000000000E+00  0.00000000000E+00  0.14841280821E+01  0.14841280821E+01  0.00000000000E+00 0. -1.
         13   -1    0    0    0    0 -0.00000000000E+00 -0.00000000000E+00 -0.10000000000E+04  0.10000000000E+04  0.00000000000E+00 0.  1.
    9000005    2    1    2  501    0  0.13306908947E+02  0.27863086939E+02 -0.79825175996E+03  0.79885357762E+03  0.27822236849E+01 0.  0.
         13    1    3    3    0    0  0.13167028383E+02  0.26772119709E+02 -0.77816908529E+03  0.77874080562E+03  0.00000000000E+00 0.  1.
          1    1    3    3  501    0  0.13988056465E+00  0.10909672300E+01 -0.20082674665E+02  0.20112772006E+02  0.00000000000E+00 0.  1.
         -3    1    1    2    0  502 -0.13306908947E+02 -0.27863086939E+02 -0.20026411196E+03  0.20263055046E+03  0.00000000000E+00 0. -1.
<mgrwt>
<rscale>  1 0.30000000E+03</rscale>
<asrwt>0</asrwt>
<pdfrwt beam="1">  1       21 0.53968408E-02 0.30000000E+03</pdfrwt>
<pdfrwt beam="2">0</pdfrwt>
<totfact> 0.25281213E+04</totfact>
</mgrwt>
</event>
<event>
 6    1  0.1280499E-001  0.3000000E+03  0.7818608E-02  0.1093470E+00
         21   -1    0    0  501  502  0.00000000000E+00  0.00000000000E+00  0.24066014900E+01  0.24066014900E+01  0.00000000000E+00 0. -1.
         13   -1    0    0    0    0 -0.00000000000E+00 -0.00000000000E+00 -0.10000000000E+04  0.10000000000E+04  0.00000000000E+00 0.  1.
    9000005    2    1    2  501    0 -0.22024560179E+02 -0.37159809813E+02 -0.73570741098E+03  0.73698202994E+03  0.33444239308E+01 0.  0.
         13    1    3    3    0    0 -0.16293726695E+02 -0.25396857213E+02 -0.53151743514E+03  0.53237324289E+03  0.00000000000E+00 0.  1.
          1    1    3    3  501    0 -0.57308334847E+01 -0.11762952600E+02 -0.20418997584E+03  0.20460878705E+03  0.00000000000E+00 0.  1.
         -3    1    1    2    0  502  0.22024560179E+02  0.37159809813E+02 -0.26188598753E+03  0.26542457155E+03  0.00000000000E+00 0. -1.
<mgrwt>
<rscale>  1 0.30000000E+03</rscale>
<asrwt>0</asrwt>
<pdfrwt beam="1">  1       21 0.87512966E-02 0.30000000E+03</pdfrwt>
<pdfrwt beam="2">0</pdfrwt>
<totfact> 0.10905663E+04</totfact>
</mgrwt>
</event>
<event>
 6    1  0.1280499E-001  0.3000000E+03  0.7818608E-02  0.1093470E+00
         21   -1    0    0  501  502  0.00000000000E+00  0.00000000000E+00  0.20952921503E+01  0.20952921503E+01  0.00000000000E+00 0. -1.
         13   -1    0    0    0    0 -0.00000000000E+00 -0.00000000000E+00 -0.10000000000E+04  0.10000000000E+04  0.00000000000E+00 0.  1.
    9000005    2    1    2  501    0 -0.13875486084E+02 -0.40399760541E+02 -0.67680996885E+03  0.67817168823E+03  0.45205100312E+01 0.  0.
         13    1    3    3    0    0 -0.12199463079E+02 -0.36825250145E+02 -0.63129898548E+03  0.63248979045E+03  0.00000000000E+00 0.  1.
          3    1    3    3  501    0 -0.16760230054E+01 -0.35745103967E+01 -0.45510983367E+02  0.45681897779E+02  0.00000000000E+00 0.  1.
         -1    1    1    2    0  502  0.13875486084E+02  0.40399760541E+02 -0.32109473900E+03  0.32392360392E+03  0.00000000000E+00 0. -1.
<mgrwt>
<rscale>  1 0.30000000E+03</rscale>
<asrwt>0</asrwt>
<pdfrwt beam="1">  1       21 0.76192602E-02 0.30000000E+03</pdfrwt>
<pdfrwt beam="2">0</pdfrwt>
<totfact> 0.13914618E+04</totfact>
</mgrwt>
</event>
<event>
 6    1  0.1280499E-001  0.3000000E+03  0.7818608E-02  0.1093470E+00
         21   -1    0    0  501  502  0.00000000000E+00  0.00000000000E+00  0.26738458535E+01  0.26738458535E+01  0.00000000000E+00 0. -1.
         13   -1    0    0    0    0 -0.00000000000E+00 -0.00000000000E+00 -0.10000000000E+04  0.10000000000E+04  0.00000000000E+00 0.  1.
    9000005    2    1    2  501    0  0.35410904181E+02  0.19501836914E+02 -0.81097334139E+03  0.81198660296E+03  0.31983077360E+01 0.  0.
         13    1    3    3    0    0  0.15082228062E+02  0.66594323570E+01 -0.34240494687E+03  0.34280164714E+03  0.00000000000E+00 0.  1.
          1    1    3    3  501    0  0.20328676119E+02  0.12842404557E+02 -0.46856839452E+03  0.46918495582E+03  0.00000000000E+00 0.  1.
         -1    1    1    2    0  502 -0.35410904181E+02 -0.19501836914E+02 -0.18635281276E+03  0.19068724289E+03  0.00000000000E+00 0. -1.
<mgrwt>
<rscale>  1 0.30000000E+03</rscale>
<asrwt>0</asrwt>
<pdfrwt beam="1">  1       21 0.97230963E-02 0.30000000E+03</pdfrwt>
<pdfrwt beam="2">0</pdfrwt>
<totfact> 0.90455206E+03</totfact>
</mgrwt>
</event>
<event>
 6    1  0.1280499E-001  0.3000000E+03  0.7818608E-02  0.1093470E+00
         21   -1    0    0  501  502  0.00000000000E+00  0.00000000000E+00  0.23442293774E+01  0.23442293774E+01  0.00000000000E+00 0. -1.
         13   -1    0    0    0    0 -0.00000000000E+00 -0.00000000000E+00 -0.10000000000E+04  0.10000000000E+04  0.00000000000E+00 0.  1.
    9000005    2    1    2  501    0 -0.32420155618E+02 -0.58686787508E+01 -0.13335073367E+03  0.13741145466E+03  0.37392272619E+01 0.  0.
         13    1    3    3    0    0 -0.25886860425E+02 -0.36013420518E+01 -0.10969045163E+03  0.11276122732E+03  0.00000000000E+00 0.  1.
          3    1    3    3  501    0 -0.65332951929E+01 -0.22673366991E+01 -0.23660282038E+02  0.24650227340E+02  0.00000000000E+00 0.  1.
         -3    1    1    2    0  502  0.32420155618E+02  0.58686787508E+01 -0.86430503696E+03  0.86493277472E+03  0.00000000000E+00 0. -1.
<mgrwt>
<rscale>  1 0.30000000E+03</rscale>
<asrwt>0</asrwt>
<pdfrwt beam="1">  1       21 0.85244884E-02 0.30000000E+03</pdfrwt>
<pdfrwt beam="2">0</pdfrwt>
<totfact> 0.11423159E+04</totfact>
</mgrwt>
</event>
<event>
 6    1  0.1280499E-001  0.3000000E+03  0.7818608E-02  0.1093470E+00
         21   -1    0    0  501  502  0.00000000000E+00  0.00000000000E+00  0.28675933074E+01  0.28675933074E+01  0.00000000000E+00 0. -1.
         13   -1    0    0    0    0 -0.00000000000E+00 -0.00000000000E+00 -0.10000000000E+04  0.10000000000E+04  0.00000000000E+00 0.  1.
    9000005    2    1    2  501    0  0.34922584597E+02  0.21560731462E+02 -0.17976461943E+03  0.18447004217E+03  0.54245739593E+01 0.  0.
         13    1    3    3    0    0  0.24229629047E+02  0.12347754038E+02 -0.11245111100E+03  0.11569267185E+03  0.00000000000E+00 0.  1.
          3    1    3    3  501    0  0.10692955550E+02  0.92129774242E+01 -0.67313508428E+02  0.68777370321E+02  0.00000000000E+00 0.  1.
         -1    1    1    2    0  502 -0.34922584597E+02 -0.21560731462E+02 -0.81736778726E+03  0.81839755114E+03  0.00000000000E+00 0. -1.
<mgrwt>
<rscale>  1 0.30000000E+03</rscale>
<asrwt>0</asrwt>
<pdfrwt beam="1">  1       21 0.10427634E-01 0.30000000E+03</pdfrwt>
<pdfrwt beam="2">0</pdfrwt>
<totfact> 0.79821899E+03</totfact>
</mgrwt>
</event>
<event>
 6    1  0.1280499E-001  0.3000000E+03  0.7818608E-02  0.1093470E+00
         21   -1    0    0  501  502  0.00000000000E+00  0.00000000000E+00  0.12635634538E+01  0.12635634538E+01  0.00000000000E+00 0. -1.
         13   -1    0    0    0    0 -0.00000000000E+00 -0.00000000000E+00 -0.10000000000E+04  0.10000000000E+04  0.00000000000E+00 0.  1.
    9000005    2    1    2  501    0  0.24303223259E+02  0.22466946375E+02 -0.32567552430E+03  0.32738938978E+03  0.48841659881E+01 0.  0.
         13    1    3    3    0    0  0.37013212070E+01  0.25238605580E+01 -0.61303207595E+02  0.61466681318E+02  0.00000000000E+00 0.  1.
          1    1    3    3  501    0  0.20601902052E+02  0.19943085817E+02 -0.26437231670E+03  0.26592270847E+03  0.00000000000E+00 0.  1.
         -1    1    1    2    0  502 -0.24303223259E+02 -0.22466946375E+02 -0.67306091225E+03  0.67387417367E+03  0.00000000000E+00 0. -1.
<mgrwt>
<rscale>  1 0.30000000E+03</rscale>
<asrwt>0</asrwt>
<pdfrwt beam="1">  1       21 0.45947859E-02 0.30000000E+03</pdfrwt>
<pdfrwt beam="2">0</pdfrwt>
<totfact> 0.33259809E+04</totfact>
</mgrwt>
</event>
<event>
 6    1  0.1280499E-001  0.3000000E+03  0.7818608E-02  0.1093470E+00
         21   -1    0    0  501  502  0.00000000000E+00  0.00000000000E+00  0.10918730126E+01  0.10918730126E+01  0.00000000000E+00 0. -1.
         13   -1    0    0    0    0 -0.00000000000E+00 -0.00000000000E+00 -0.10000000000E+04  0.10000000000E+04  0.00000000000E+00 0.  1.
    9000005    2    1    2  501    0 -0.30465874662E+02 -0.46241208443E+01 -0.67704160228E+03  0.67775364184E+03  0.38879034273E+01 0.  0.
         13    1    3    3    0    0 -0.12327807521E+02 -0.37991313795E+01 -0.28533818323E+03  0.28562963264E+03  0.00000000000E+00 0.  1.
          1    1    3    3  501    0 -0.18138067141E+02 -0.82498946480E+00 -0.39170341905E+03  0.39212400919E+03  0.00000000000E+00 0.  1.
         -1    1    1    2    0  502  0.30465874662E+02  0.46241208443E+01 -0.32186652471E+03  0.32333823118E+03  0.00000000000E+00 0. -1.
<mgrwt>
<rscale>  1 0.30000000E+03</rscale>
<asrwt>0</asrwt>
<pdfrwt beam="1">  1       21 0.39704557E-02 0.30000000E+03</pdfrwt>
<pdfrwt beam="2">0</pdfrwt>
<totfact> 0.42575458E+04</totfact>
</mgrwt>
</event>
<event>
 6    1  0.1280499E-001  0.3000000E+03  0.7818608E-02  0.1093470E+00
         21   -1    0    0  501  502  0.00000000000E+00  0.00000000000E+00  0.22893013156E+01  0.22893013156E+01  0.00000000000E+00 0. -1.
         13   -1    0    0    0    0 -0.00000000000E+00 -0.00000000000E+00 -0.10000000000E+04  0.10000000000E+04  0.00000000000E+00 0.  1.
    9000005    2    1    2  501    0 -0.28183148999E+02  0.13059515009E+02 -0.87987008873E+03  0.88042359583E+03  0.30812704593E+01 0.  0.
         13    1    3    3    0    0 -0.26657558579E+01  0.21945808202E+01 -0.86450303579E+02  0.86519231551E+02  0.00000000000E+00 0.  1.
          1    1    3    3  501    0 -0.25517393141E+02  0.10864934189E+02 -0.79341978515E+03  0.79390436427E+03  0.00000000000E+00 0.  1.
         -1    1    1    2    0  502  0.28183148999E+02 -0.13059515009E+02 -0.11784060996E+03  0.12186570549E+03  0.00000000000E+00 0. -1.
<mgrwt>
<rscale>  1 0.30000000E+03</rscale>
<asrwt>0</asrwt>
<pdfrwt beam="1">  1       21 0.83247496E-02 0.30000000E+03</pdfrwt>
<pdfrwt beam="2">0</pdfrwt>
<totfact> 0.11910564E+04</totfact>
</mgrwt>
</event>
<event>
 6    1  0.1280499E-001  0.3000000E+03  0.7818608E-02  0.1093470E+00
         21   -1    0    0  501  502  0.00000000000E+00  0.00000000000E+00  0.14075232635E+02  0.14075232635E+02  0.00000000000E+00 0. -1.
         13   -1    0    0    0    0 -0.00000000000E+00 -0.00000000000E+00 -0.10000000000E+04  0.10000000000E+04  0.00000000000E+00 0.  1.
    9000005    2    1    2  501    0 -0.41515447370E+02  0.10011153589E+02 -0.96600221752E+03  0.96695131558E+03  0.32873813047E+01 0.  0.
         13    1    3    3    0    0 -0.10140345118E+02  0.12925921531E+01 -0.21233129556E+03  0.21257722472E+03  0.00000000000E+00 0.  1.
          3    1    3    3  501    0 -0.31375102252E+02  0.87185614356E+01 -0.75367092196E+03  0.75437409086E+03  0.00000000000E+00 0.  1.
         -3    1    1    2    0  502  0.41515447370E+02 -0.10011153589E+02 -0.19922549844E+02  0.47123917056E+02  0.00000000000E+00 0. -1.
<mgrwt>
<rscale>  1 0.30000000E+03</rscale>
<asrwt>0</asrwt>
<pdfrwt beam="1">  1       21 0.51182772E-01 0.30000000E+03</pdfrwt>
<pdfrwt beam="2">0</pdfrwt>
<totfact> 0.35710973E+02</totfact>
</mgrwt>
</event>
<event>
 6    1  0.1280499E-001  0.3000000E+03  0.7818608E-02  0.1093470E+00
         21   -1    0    0  501  502  0.00000000000E+00  0.00000000000E+00  0.27767926223E+01  0.27767926223E+01  0.00000000000E+00 0. -1.
         13   -1    0    0    0    0 -0.00000000000E+00 -0.00000000000E+00 -0.10000000000E+04  0.10000000000E+04  0.00000000000E+00 0.  1.
    9000005    2    1    2  501    0 -0.25352521048E+02 -0.33402806179E+02 -0.79848465004E+03  0.79966226346E+03  0.11113121454E+02 0.  0.
         13    1    3    3    0    0 -0.22035046122E+02 -0.32353373986E+02 -0.67935872467E+03  0.68048553317E+03  0.00000000000E+00 0.  1.
          1    1    3    3  501    0 -0.33174749266E+01 -0.10494321927E+01 -0.11912592537E+03  0.11917673029E+03  0.00000000000E+00 0.  1.
         -3    1    1    2    0  502  0.25352521048E+02  0.33402806179E+02 -0.19873855733E+03  0.20311452916E+03  0.00000000000E+00 0. -1.
<mgrwt>
<rscale>  1 0.30000000E+03</rscale>
<asrwt>0</asrwt>
<pdfrwt beam="1">  1       21 0.10097449E-01 0.30000000E+03</pdfrwt>
<pdfrwt beam="2">0</pdfrwt>
<totfact> 0.84553607E+03</totfact>
</mgrwt>
</event>
<event>
 6    1  0.1280499E-001  0.3000000E+03  0.7818608E-02  0.1093470E+00
         21   -1    0    0  501  502  0.00000000000E+00  0.00000000000E+00  0.15517513344E+01  0.15517513344E+01  0.00000000000E+00 0. -1.
         13   -1    0    0    0    0 -0.00000000000E+00 -0.00000000000E+00 -0.10000000000E+04  0.10000000000E+04  0.00000000000E+00 0.  1.
    9000005    2    1    2  501    0 -0.29616473224E+02 -0.18852445301E+02 -0.72564475029E+03  0.72649848576E+03  0.26825361674E+01 0.  0.
         13    1    3    3    0    0 -0.41538276929E+01 -0.29921404836E+01 -0.12574717325E+03  0.12585133598E+03  0.00000000000E+00 0.  1.
          1    1    3    3  501    0 -0.25462645531E+02 -0.15860304818E+02 -0.59989757705E+03  0.60064714978E+03  0.00000000000E+00 0.  1.
         -3    1    1    2    0  502  0.29616473224E+02  0.18852445301E+02 -0.27280349837E+03  0.27505326558E+03  0.00000000000E+00 0. -1.
<mgrwt>
<rscale>  1 0.30000000E+03</rscale>
<asrwt>0</asrwt>
<pdfrwt beam="1">  1       21 0.56427440E-02 0.30000000E+03</pdfrwt>
<pdfrwt beam="2">0</pdfrwt>
<totfact> 0.23421171E+04</totfact>
</mgrwt>
</event>
<event>
 6    1  0.1280499E-001  0.3000000E+03  0.7818608E-02  0.1093470E+00
         21   -1    0    0  501  502  0.00000000000E+00  0.00000000000E+00  0.10326606004E+01  0.10326606004E+01  0.00000000000E+00 0. -1.
         13   -1    0    0    0    0 -0.00000000000E+00 -0.00000000000E+00 -0.10000000000E+04  0.10000000000E+04  0.00000000000E+00 0.  1.
    9000005    2    1    2  501    0 -0.29460340850E+02  0.94182655664E+01 -0.63157048150E+03  0.63233621825E+03  0.33472968169E+01 0.  0.
         13    1    3    3    0    0 -0.24546416834E+02  0.87699013659E+01 -0.54684254961E+03  0.54746343423E+03  0.00000000000E+00 0.  1.
          3    1    3    3  501    0 -0.49139240155E+01  0.64836420045E+00 -0.84727931894E+02  0.84872784026E+02  0.00000000000E+00 0.  1.
         -1    1    1    2    0  502  0.29460340850E+02 -0.94182655664E+01 -0.36739685790E+03  0.36869644235E+03  0.00000000000E+00 0. -1.
<mgrwt>
<rscale>  1 0.30000000E+03</rscale>
<asrwt>0</asrwt>
<pdfrwt beam="1">  1       21 0.37551374E-02 0.30000000E+03</pdfrwt>
<pdfrwt beam="2">0</pdfrwt>
<totfact> 0.46759648E+04</totfact>
</mgrwt>
</event>
<event>
 6    1  0.1280499E-001  0.3000000E+03  0.7818608E-02  0.1093470E+00
         21   -1    0    0  501  502  0.00000000000E+00  0.00000000000E+00  0.12485953365E+01  0.12485953365E+01  0.00000000000E+00 0. -1.
         13   -1    0    0    0    0 -0.00000000000E+00 -0.00000000000E+00 -0.10000000000E+04  0.10000000000E+04  0.00000000000E+00 0.  1.
    9000005    2    1    2  501    0 -0.29383334068E+02 -0.18547409658E+02 -0.58485503346E+03  0.58589622346E+03  0.34040825832E+01 0.  0.
         13    1    3    3    0    0 -0.22647741201E+01 -0.10694784768E+01 -0.58238021799E+02  0.58291853368E+02  0.00000000000E+00 0.  1.
          1    1    3    3  501    0 -0.27118559948E+02 -0.17477931181E+02 -0.52661701166E+03  0.52760437009E+03  0.00000000000E+00 0.  1.
         -3    1    1    2    0  502  0.29383334068E+02  0.18547409658E+02 -0.41389637121E+03  0.41535237188E+03  0.00000000000E+00 0. -1.
<mgrwt>
<rscale>  1 0.30000000E+03</rscale>
<asrwt>0</asrwt>
<pdfrwt beam="1">  1       21 0.45403563E-02 0.30000000E+03</pdfrwt>
<pdfrwt beam="2">0</pdfrwt>
<totfact> 0.33939892E+04</totfact>
</mgrwt>
</event>
<event>
 6    1  0.1280499E-001  0.3000000E+03  0.7818608E-02  0.1093470E+00
         21   -1    0    0  501  502  0.00000000000E+00  0.00000000000E+00  0.15669069293E+01  0.15669069293E+01  0.00000000000E+00 0. -1.
         13   -1    0    0    0    0 -0.00000000000E+00 -0.00000000000E+00 -0.10000000000E+04  0.10000000000E+04  0.00000000000E+00 0.  1.
    9000005    2    1    2  501    0 -0.35506050262E+02  0.13813361555E+02 -0.63221841766E+03  0.63337581925E+03  0.36485908952E+01 0.  0.
         13    1    3    3    0    0 -0.34456251598E+02  0.13001329123E+02 -0.59913246381E+03  0.60026325643E+03  0.00000000000E+00 0.  1.
          3    1    3    3  501    0 -0.10497986641E+01  0.81203243192E+00 -0.33085953850E+02  0.33112562814E+02  0.00000000000E+00 0.  1.
         -1    1    1    2    0  502  0.35506050262E+02 -0.13813361555E+02 -0.36621467541E+03  0.36819108768E+03  0.00000000000E+00 0. -1.
<mgrwt>
<rscale>  1 0.30000000E+03</rscale>
<asrwt>0</asrwt>
<pdfrwt beam="1">  1       21 0.56978554E-02 0.30000000E+03</pdfrwt>
<pdfrwt beam="2">0</pdfrwt>
<totfact> 0.23033160E+04</totfact>
</mgrwt>
</event>
<event>
 6    1  0.1280499E-001  0.3000000E+03  0.7818608E-02  0.1093470E+00
         21   -1    0    0  501  502  0.00000000000E+00  0.00000000000E+00  0.24696329641E+01  0.24696329641E+01  0.00000000000E+00 0. -1.
         13   -1    0    0    0    0 -0.00000000000E+00 -0.00000000000E+00 -0.10000000000E+04  0.10000000000E+04  0.00000000000E+00 0.  1.
    9000005    2    1    2  501    0  0.14709696582E+02 -0.35431440902E+02 -0.81663489193E+03  0.81755090733E+03  0.50176860833E+01 0.  0.
         13    1    3    3    0    0  0.81079289512E+01 -0.13356625268E+02 -0.34438857338E+03  0.34474284245E+03  0.00000000000E+00 0.  1.
          3    1    3    3  501    0  0.66017676308E+01 -0.22074815634E+02 -0.47224631856E+03  0.47280806488E+03  0.00000000000E+00 0.  1.
         -3    1    1    2    0  502 -0.14709696582E+02  0.35431440902E+02 -0.18089547510E+03  0.18491872563E+03  0.00000000000E+00 0. -1.
<mgrwt>
<rscale>  1 0.30000000E+03</rscale>
<asrwt>0</asrwt>
<pdfrwt beam="1">  1       21 0.89805024E-02 0.30000000E+03</pdfrwt>
<pdfrwt beam="2">0</pdfrwt>
<totfact> 0.10418038E+04</totfact>
</mgrwt>
</event>
<event>
 6    1  0.1280499E-001  0.3000000E+03  0.7818608E-02  0.1093470E+00
         21   -1    0    0  501  502  0.00000000000E+00  0.00000000000E+00  0.16589095305E+01  0.16589095305E+01  0.00000000000E+00 0. -1.
         13   -1    0    0    0    0 -0.00000000000E+00 -0.00000000000E+00 -0.10000000000E+04  0.10000000000E+04  0.00000000000E+00 0.  1.
    9000005    2    1    2  501    0 -0.14871154228E+02  0.31923607999E+02 -0.74995960203E+03  0.75079314507E+03  0.32671150969E+01 0.  0.
         13    1    3    3    0    0 -0.10858027963E+02  0.26322589271E+02 -0.59919454376E+03  0.59987071670E+03  0.00000000000E+00 0.  1.
          1    1    3    3  501    0 -0.40131262644E+01  0.56010187276E+01 -0.15076505826E+03  0.15092242837E+03  0.00000000000E+00 0.  1.
         -1    1    1    2    0  502  0.14871154228E+02 -0.31923607999E+02 -0.24838148844E+03  0.25086576446E+03  0.00000000000E+00 0. -1.
<mgrwt>
<rscale>  1 0.30000000E+03</rscale>
<asrwt>0</asrwt>
<pdfrwt beam="1">  1       21 0.60324110E-02 0.30000000E+03</pdfrwt>
<pdfrwt beam="2">0</pdfrwt>
<totfact> 0.20876771E+04</totfact>
</mgrwt>
</event>
<event>
 6    1  0.1280499E-001  0.3000000E+03  0.7818608E-02  0.1093470E+00
         21   -1    0    0  501  502  0.00000000000E+00  0.00000000000E+00  0.20693091613E+01  0.20693091613E+01  0.00000000000E+00 0. -1.
         13   -1    0    0    0    0 -0.00000000000E+00 -0.00000000000E+00 -0.10000000000E+04  0.10000000000E+04  0.00000000000E+00 0.  1.
    9000005    2    1    2  501    0  0.30496969066E+02 -0.17773373520E+02 -0.81476289913E+03  0.81553138313E+03  0.26262412935E+01 0.  0.
         13    1    3    3    0    0  0.36355314737E+01 -0.12657746023E+01 -0.97024283136E+02  0.97100621999E+02  0.00000000000E+00 0.  1.
          1    1    3    3  501    0  0.26861437593E+02 -0.16507598918E+02 -0.71773861599E+03  0.71843076113E+03  0.00000000000E+00 0.  1.
         -1    1    1    2    0  502 -0.30496969066E+02  0.17773373520E+02 -0.18316779171E+03  0.18653792603E+03  0.00000000000E+00 0. -1.
<mgrwt>
<rscale>  1 0.30000000E+03</rscale>
<asrwt>0</asrwt>
<pdfrwt beam="1">  1       21 0.75247765E-02 0.30000000E+03</pdfrwt>
<pdfrwt beam="2">0</pdfrwt>
<totfact> 0.14222094E+04</totfact>
</mgrwt>
</event>
<event>
 6    1  0.1280499E-001  0.3000000E+03  0.7818608E-02  0.1093470E+00
         21   -1    0    0  501  502  0.00000000000E+00  0.00000000000E+00  0.25827799345E+01  0.25827799345E+01  0.00000000000E+00 0. -1.
         13   -1    0    0    0    0 -0.00000000000E+00 -0.00000000000E+00 -0.10000000000E+04  0.10000000000E+04  0.00000000000E+00 0.  1.
    9000005    2    1    2  501    0 -0.53646843405E+01  0.46114879192E+02 -0.29590169399E+03  0.29953271397E+03  0.25830822525E+01 0.  0.
         13    1    3    3    0    0  0.13049364081E+00  0.22137042120E+01 -0.11798101718E+02  0.12004695709E+02  0.00000000000E+00 0.  1.
          3    1    3    3  501    0 -0.54951779813E+01  0.43901174980E+02 -0.28410359227E+03  0.28752801826E+03  0.00000000000E+00 0.  1.
         -3    1    1    2    0  502  0.53646843405E+01 -0.46114879192E+02 -0.70151552608E+03  0.70305006596E+03  0.00000000000E+00 0. -1.
<mgrwt>
<rscale>  1 0.30000000E+03</rscale>
<asrwt>0</asrwt>
<pdfrwt beam="1">  1       21 0.93919468E-02 0.30000000E+03</pdfrwt>
<pdfrwt beam="2">0</pdfrwt>
<totfact> 0.96216836E+03</totfact>
</mgrwt>
</event>
<event>
 6    1  0.1280499E-001  0.3000000E+03  0.7818608E-02  0.1093470E+00
         21   -1    0    0  501  502  0.00000000000E+00  0.00000000000E+00  0.19872355287E+01  0.19872355287E+01  0.00000000000E+00 0. -1.
         13   -1    0    0    0    0 -0.00000000000E+00 -0.00000000000E+00 -0.10000000000E+04  0.10000000000E+04  0.00000000000E+00 0.  1.
    9000005    2    1    2  501    0  0.31739965589E+02 -0.84420060699E+01 -0.83731601982E+03  0.83796852738E+03  0.38003875794E+01 0.  0.
         13    1    3    3    0    0  0.71522189860E+01 -0.14015978705E+01 -0.22667027280E+03  0.22678741430E+03  0.00000000000E+00 0.  1.
          1    1    3    3  501    0  0.24587746603E+02 -0.70404081993E+01 -0.61064574702E+03  0.61118111308E+03  0.00000000000E+00 0.  1.
         -3    1    1    2    0  502 -0.31739965589E+02  0.84420060699E+01 -0.16069674465E+03  0.16401870815E+03  0.00000000000E+00 0. -1.
<mgrwt>
<rscale>  1 0.30000000E+03</rscale>
<asrwt>0</asrwt>
<pdfrwt beam="1">  1       21 0.72263263E-02 0.30000000E+03</pdfrwt>
<pdfrwt beam="2">0</pdfrwt>
<totfact> 0.15264894E+04</totfact>
</mgrwt>
</event>
<event>
 6    1  0.1280499E-001  0.3000000E+03  0.7818608E-02  0.1093470E+00
         21   -1    0    0  501  502  0.00000000000E+00  0.00000000000E+00  0.32129275866E+01  0.32129275866E+01  0.00000000000E+00 0. -1.
         13   -1    0    0    0    0 -0.00000000000E+00 -0.00000000000E+00 -0.10000000000E+04  0.10000000000E+04  0.00000000000E+00 0.  1.
    9000005    2    1    2  501    0 -0.32819157956E+02  0.67537097008E+01 -0.90283065861E+03  0.90346064732E+03  0.39029995519E+01 0.  0.
         13    1    3    3    0    0 -0.14224578899E+02  0.48429228961E+01 -0.41555121095E+03  0.41582280056E+03  0.00000000000E+00 0.  1.
          1    1    3    3  501    0 -0.18594579057E+02  0.19107868046E+01 -0.48727944766E+03  0.48763784676E+03  0.00000000000E+00 0.  1.
         -1    1    1    2    0  502  0.32819157956E+02 -0.67537097008E+01 -0.93956413806E+02  0.99752280269E+02  0.00000000000E+00 0. -1.
<mgrwt>
<rscale>  1 0.30000000E+03</rscale>
<asrwt>0</asrwt>
<pdfrwt beam="1">  1       21 0.11683398E-01 0.30000000E+03</pdfrwt>
<pdfrwt beam="2">0</pdfrwt>
<totfact> 0.65047878E+03</totfact>
</mgrwt>
</event>
<event>
 6    1  0.1280499E-001  0.3000000E+03  0.7818608E-02  0.1093470E+00
         21   -1    0    0  501  502  0.00000000000E+00  0.00000000000E+00  0.35589581539E+01  0.35589581539E+01  0.00000000000E+00 0. -1.
         13   -1    0    0    0    0 -0.00000000000E+00 -0.00000000000E+00 -0.10000000000E+04  0.10000000000E+04  0.00000000000E+00 0.  1.
    9000005    2    1    2  501    0 -0.56377859065E+02 -0.49157189513E+01 -0.65616977192E+03  0.65861379668E+03  0.32766313707E+01 0.  0.
         13    1    3    3    0    0 -0.53596993722E+02 -0.53380836726E+01 -0.62638117995E+03  0.62869270352E+03  0.00000000000E+00 0.  1.
          3    1    3    3  501    0 -0.27808653434E+01  0.42236472125E+00 -0.29788591971E+02  0.29921093156E+02  0.00000000000E+00 0.  1.
         -3    1    1    2    0  502  0.56377859065E+02  0.49157189513E+01 -0.34027126993E+03  0.34494516147E+03  0.00000000000E+00 0. -1.
<mgrwt>
<rscale>  1 0.30000000E+03</rscale>
<asrwt>0</asrwt>
<pdfrwt beam="1">  1       21 0.12941693E-01 0.30000000E+03</pdfrwt>
<pdfrwt beam="2">0</pdfrwt>
<totfact> 0.54006694E+03</totfact>
</mgrwt>
</event>
<event>
 6    1  0.1280499E-001  0.3000000E+03  0.7818608E-02  0.1093470E+00
         21   -1    0    0  501  502  0.00000000000E+00  0.00000000000E+00  0.32546119671E+01  0.32546119671E+01  0.00000000000E+00 0. -1.
         13   -1    0    0    0    0 -0.00000000000E+00 -0.00000000000E+00 -0.10000000000E+04  0.10000000000E+04  0.00000000000E+00 0.  1.
    9000005    2    1    2  501    0 -0.77911978450E+01 -0.43856094466E+02 -0.81158623454E+03  0.81281309363E+03  0.29747756893E+01 0.  0.
         13    1    3    3    0    0 -0.72052724358E+01 -0.42502640235E+02 -0.77627197869E+03  0.77746805418E+03  0.00000000000E+00 0.  1.
          1    1    3    3  501    0 -0.58592540919E+00 -0.13534542307E+01 -0.35314255852E+02  0.35345039445E+02  0.00000000000E+00 0.  1.
         -3    1    1    2    0  502  0.77911978450E+01  0.43856094466E+02 -0.18515915349E+03  0.19044151834E+03  0.00000000000E+00 0. -1.
<mgrwt>
<rscale>  1 0.30000000E+03</rscale>
<asrwt>0</asrwt>
<pdfrwt beam="1">  1       21 0.11834978E-01 0.30000000E+03</pdfrwt>
<pdfrwt beam="2">0</pdfrwt>
<totfact> 0.63547114E+03</totfact>
</mgrwt>
</event>
<event>
 6    1  0.1280499E-001  0.3000000E+03  0.7818608E-02  0.1093470E+00
         21   -1    0    0  501  502  0.00000000000E+00  0.00000000000E+00  0.30601931006E+01  0.30601931006E+01  0.00000000000E+00 0. -1.
         13   -1    0    0    0    0 -0.00000000000E+00 -0.00000000000E+00 -0.10000000000E+04  0.10000000000E+04  0.00000000000E+00 0.  1.
    9000005    2    1    2  501    0  0.19427248954E+01 -0.43431742426E+02 -0.80844545064E+03  0.80961714522E+03  0.24051507155E+01 0.  0.
         13    1    3    3    0    0  0.23003776017E+01 -0.39555595753E+02 -0.74380776582E+03  0.74486235600E+03  0.00000000000E+00 0.  1.
          3    1    3    3  501    0 -0.35765270630E+00 -0.38761466731E+01 -0.64637684820E+02  0.64754789223E+02  0.00000000000E+00 0.  1.
         -1    1    1    2    0  502 -0.19427248954E+01  0.43431742426E+02 -0.18849435626E+03  0.19344304788E+03  0.00000000000E+00 0. -1.
<mgrwt>
<rscale>  1 0.30000000E+03</rscale>
<asrwt>0</asrwt>
<pdfrwt beam="1">  1       21 0.11127998E-01 0.30000000E+03</pdfrwt>
<pdfrwt beam="2">0</pdfrwt>
<totfact> 0.71025633E+03</totfact>
</mgrwt>
</event>
<event>
 6    1  0.1280499E-001  0.3000000E+03  0.7818608E-02  0.1093470E+00
         21   -1    0    0  501  502  0.00000000000E+00  0.00000000000E+00  0.13819515777E+01  0.13819515777E+01  0.00000000000E+00 0. -1.
         13   -1    0    0    0    0 -0.00000000000E+00 -0.00000000000E+00 -0.10000000000E+04  0.10000000000E+04  0.00000000000E+00 0.  1.
    9000005    2    1    2  501    0  0.30375107856E+02  0.86643400258E+01 -0.75874985449E+03  0.75944297492E+03  0.73873204186E+01 0.  0.
         13    1    3    3    0    0  0.23305628821E-01 -0.51305723994E+00 -0.28991051562E+02  0.28995600383E+02  0.00000000000E+00 0.  1.
          3    1    3    3  501    0  0.30351802227E+02  0.91773972657E+01 -0.72975880293E+03  0.73044737454E+03  0.00000000000E+00 0.  1.
         -1    1    1    2    0  502 -0.30375107856E+02 -0.86643400258E+01 -0.23986819393E+03  0.24193897666E+03  0.00000000000E+00 0. -1.
<mgrwt>
<rscale>  1 0.30000000E+03</rscale>
<asrwt>0</asrwt>
<pdfrwt beam="1">  1       21 0.50252891E-02 0.30000000E+03</pdfrwt>
<pdfrwt beam="2">0</pdfrwt>
<totfact> 0.28557954E+04</totfact>
</mgrwt>
</event>
<event>
 6    1  0.1280499E-001  0.3000000E+03  0.7818608E-02  0.1093470E+00
         21   -1    0    0  501  502  0.00000000000E+00  0.00000000000E+00  0.44790585476E+01  0.44790585476E+01  0.00000000000E+00 0. -1.
         13   -1    0    0    0    0 -0.00000000000E+00 -0.00000000000E+00 -0.10000000000E+04  0.10000000000E+04  0.00000000000E+00 0.  1.
    9000005    2    1    2  501    0  0.21922245398E+02 -0.45535254423E+02 -0.82680736011E+03  0.82835888148E+03  0.37391933737E+01 0.  0.
         13    1    3    3    0    0  0.18425823611E+02 -0.40973233037E+02 -0.73546019959E+03  0.73683106746E+03  0.00000000000E+00 0.  1.
          1    1    3    3  501    0  0.34964217872E+01 -0.45620213852E+01 -0.91347160518E+02  0.91527814019E+02  0.00000000000E+00 0.  1.
         -3    1    1    2    0  502 -0.21922245398E+02  0.45535254423E+02 -0.16871358135E+03  0.17612017706E+03  0.00000000000E+00 0. -1.
<mgrwt>
<rscale>  1 0.30000000E+03</rscale>
<asrwt>0</asrwt>
<pdfrwt beam="1">  1       21 0.16287520E-01 0.30000000E+03</pdfrwt>
<pdfrwt beam="2">0</pdfrwt>
<totfact> 0.35333206E+03</totfact>
</mgrwt>
</event>
<event>
 6    1  0.1280499E-001  0.3000000E+03  0.7818608E-02  0.1093470E+00
         21   -1    0    0  501  502  0.00000000000E+00  0.00000000000E+00  0.22462768214E+01  0.22462768214E+01  0.00000000000E+00 0. -1.
         13   -1    0    0    0    0 -0.00000000000E+00 -0.00000000000E+00 -0.10000000000E+04  0.10000000000E+04  0.00000000000E+00 0.  1.
    9000005    2    1    2  501    0 -0.21108606078E+02 -0.41628412554E+02 -0.58365244287E+03  0.58552290534E+03  0.28983843847E+01 0.  0.
         13    1    3    3    0    0 -0.82888793053E+01 -0.15217342171E+02 -0.20055584469E+03  0.20130305478E+03  0.00000000000E+00 0.  1.
          1    1    3    3  501    0 -0.12819726773E+02 -0.26411070383E+02 -0.38309659818E+03  0.38421985057E+03  0.00000000000E+00 0.  1.
         -3    1    1    2    0  502  0.21108606078E+02  0.41628412554E+02 -0.41410128031E+03  0.41672337148E+03  0.00000000000E+00 0. -1.
<mgrwt>
<rscale>  1 0.30000000E+03</rscale>
<asrwt>0</asrwt>
<pdfrwt beam="1">  1       21 0.81682966E-02 0.30000000E+03</pdfrwt>
<pdfrwt beam="2">0</pdfrwt>
<totfact> 0.12314923E+04</totfact>
</mgrwt>
</event>
<event>
 6    1  0.1280499E-001  0.3000000E+03  0.7818608E-02  0.1093470E+00
         21   -1    0    0  501  502  0.00000000000E+00  0.00000000000E+00  0.14475761447E+01  0.14475761447E+01  0.00000000000E+00 0. -1.
         13   -1    0    0    0    0 -0.00000000000E+00 -0.00000000000E+00 -0.10000000000E+04  0.10000000000E+04  0.00000000000E+00 0.  1.
    9000005    2    1    2  501    0 -0.23596511839E+02 -0.29400023157E+02 -0.55996952163E+03  0.56124748658E+03  0.34233462902E+01 0.  0.
         13    1    3    3    0    0 -0.87681627043E+01 -0.86328478173E+01 -0.17171779763E+03  0.17215809235E+03  0.00000000000E+00 0.  1.
          1    1    3    3  501    0 -0.14828349135E+02 -0.20767175340E+02 -0.38825172401E+03  0.38908939423E+03  0.00000000000E+00 0.  1.
         -3    1    1    2    0  502  0.23596511839E+02  0.29400023157E+02 -0.43858290222E+03  0.44020008957E+03  0.00000000000E+00 0. -1.
<mgrwt>
<rscale>  1 0.30000000E+03</rscale>
<asrwt>0</asrwt>
<pdfrwt beam="1">  1       21 0.52639244E-02 0.30000000E+03</pdfrwt>
<pdfrwt beam="2">0</pdfrwt>
<totfact> 0.26383201E+04</totfact>
</mgrwt>
</event>
<event>
 6    1  0.1280499E-001  0.3000000E+03  0.7818608E-02  0.1093470E+00
         21   -1    0    0  501  502  0.00000000000E+00  0.00000000000E+00  0.13234697909E+01  0.13234697909E+01  0.00000000000E+00 0. -1.
         13   -1    0    0    0    0 -0.00000000000E+00 -0.00000000000E+00 -0.10000000000E+04  0.10000000000E+04  0.00000000000E+00 0.  1.
    9000005    2    1    2  501    0  0.24821206248E+02 -0.17941179643E+02 -0.76718063622E+03  0.76781045701E+03  0.53657327944E+01 0.  0.
         13    1    3    3    0    0  0.22334927066E+02 -0.14418924092E+02 -0.62655549676E+03  0.62711924294E+03  0.00000000000E+00 0.  1.
          1    1    3    3  501    0  0.24862791828E+01 -0.35222555507E+01 -0.14062513946E+03  0.14069121407E+03  0.00000000000E+00 0.  1.
         -1    1    1    2    0  502 -0.24821206248E+02  0.17941179643E+02 -0.23149589399E+03  0.23351301278E+03  0.00000000000E+00 0. -1.
<mgrwt>
<rscale>  1 0.30000000E+03</rscale>
<asrwt>0</asrwt>
<pdfrwt beam="1">  1       21 0.48126276E-02 0.30000000E+03</pdfrwt>
<pdfrwt beam="2">0</pdfrwt>
<totfact> 0.30740797E+04</totfact>
</mgrwt>
</event>
<event>
 6    1  0.1280499E-001  0.3000000E+03  0.7818608E-02  0.1093470E+00
         21   -1    0    0  501  502  0.00000000000E+00  0.00000000000E+00  0.11253248753E+01  0.11253248753E+01  0.00000000000E+00 0. -1.
         13   -1    0    0    0    0 -0.00000000000E+00 -0.00000000000E+00 -0.10000000000E+04  0.10000000000E+04  0.00000000000E+00 0.  1.
    9000005    2    1    2  501    0  0.28554079919E+02 -0.17161071122E+02 -0.55029106963E+03  0.55130637356E+03  0.29357066103E+01 0.  0.
         13    1    3    3    0    0  0.27896965811E+02 -0.16658286296E+02 -0.52706959176E+03  0.52807015989E+03  0.00000000000E+00 0.  1.
          1    1    3    3  501    0  0.65711410873E+00 -0.50278482642E+00 -0.23221477864E+02  0.23236213670E+02  0.00000000000E+00 0.  1.
         -1    1    1    2    0  502 -0.28554079919E+02  0.17161071122E+02 -0.44858360550E+03  0.44981895132E+03  0.00000000000E+00 0. -1.
<mgrwt>
<rscale>  1 0.30000000E+03</rscale>
<asrwt>0</asrwt>
<pdfrwt beam="1">  1       21 0.40920991E-02 0.30000000E+03</pdfrwt>
<pdfrwt beam="2">0</pdfrwt>
<totfact> 0.40465032E+04</totfact>
</mgrwt>
</event>
<event>
 6    1  0.1280499E-001  0.3000000E+03  0.7818608E-02  0.1093470E+00
         21   -1    0    0  501  502  0.00000000000E+00  0.00000000000E+00  0.20291734807E+01  0.20291734807E+01  0.00000000000E+00 0. -1.
         13   -1    0    0    0    0 -0.00000000000E+00 -0.00000000000E+00 -0.10000000000E+04  0.10000000000E+04  0.00000000000E+00 0.  1.
    9000005    2    1    2  501    0 -0.56625577006E+01 -0.43560750633E+02 -0.39154210563E+03  0.39401157746E+03  0.32092262792E+01 0.  0.
         13    1    3    3    0    0 -0.28395456275E+01 -0.32076867524E+02 -0.29105186220E+03  0.29282789304E+03  0.00000000000E+00 0.  1.
          1    1    3    3  501    0 -0.28230120731E+01 -0.11483883109E+02 -0.10049024343E+03  0.10118368442E+03  0.00000000000E+00 0.  1.
         -3    1    1    2    0  502  0.56625577006E+01  0.43560750633E+02 -0.60642872089E+03  0.60801759602E+03  0.00000000000E+00 0. -1.
<mgrwt>
<rscale>  1 0.30000000E+03</rscale>
<asrwt>0</asrwt>
<pdfrwt beam="1">  1       21 0.73788282E-02 0.30000000E+03</pdfrwt>
<pdfrwt beam="2">0</pdfrwt>
<totfact> 0.14718051E+04</totfact>
</mgrwt>
</event>
<event>
 6    1  0.1280499E-001  0.3000000E+03  0.7818608E-02  0.1093470E+00
         21   -1    0    0  501  502  0.00000000000E+00  0.00000000000E+00  0.66228762527E+01  0.66228762527E+01  0.00000000000E+00 0. -1.
         13   -1    0    0    0    0 -0.00000000000E+00 -0.00000000000E+00 -0.10000000000E+04  0.10000000000E+04  0.00000000000E+00 0.  1.
    9000005    2    1    2  501    0  0.22520791932E+02  0.39088498034E+02 -0.91554433004E+03  0.91666154832E+03  0.34463234480E+01 0.  0.
         13    1    3    3    0    0  0.11792532417E+02  0.22941910776E+02 -0.49869782110E+03  0.49936450801E+03  0.00000000000E+00 0.  1.
          1    1    3    3  501    0  0.10728259515E+02  0.16146587258E+02 -0.41684650894E+03  0.41729704031E+03  0.00000000000E+00 0.  1.
         -1    1    1    2    0  502 -0.22520791932E+02 -0.39088498034E+02 -0.77832793708E+02  0.89961327937E+02  0.00000000000E+00 0. -1.
<mgrwt>
<rscale>  1 0.30000000E+03</rscale>
<asrwt>0</asrwt>
<pdfrwt beam="1">  1       21 0.24083237E-01 0.30000000E+03</pdfrwt>
<pdfrwt beam="2">0</pdfrwt>
<totfact> 0.16775670E+03</totfact>
</mgrwt>
</event>
<event>
 6    1  0.1280499E-001  0.3000000E+03  0.7818608E-02  0.1093470E+00
         21   -1    0    0  501  502  0.00000000000E+00  0.00000000000E+00  0.39397852610E+01  0.39397852610E+01  0.00000000000E+00 0. -1.
         13   -1    0    0    0    0 -0.00000000000E+00 -0.00000000000E+00 -0.10000000000E+04  0.10000000000E+04  0.00000000000E+00 0.  1.
    9000005    2    1    2  501    0 -0.12825968779E+02 -0.44438158434E+02 -0.83721514776E+03  0.83849792023E+03  0.32098593809E+01 0.  0.
         13    1    3    3    0    0 -0.13005180091E+02 -0.44132577730E+02 -0.83101577272E+03  0.83228843176E+03  0.00000000000E+00 0.  1.
          3    1    3    3  501    0  0.17921131244E+00 -0.30558070447E+00 -0.61993750353E+01  0.62094884725E+01  0.00000000000E+00 0.  1.
         -1    1    1    2    0  502  0.12825968779E+02  0.44438158434E+02 -0.15884506698E+03  0.16544186503E+03  0.00000000000E+00 0. -1.
<mgrwt>
<rscale>  1 0.30000000E+03</rscale>
<asrwt>0</asrwt>
<pdfrwt beam="1">  1       21 0.14326522E-01 0.30000000E+03</pdfrwt>
<pdfrwt beam="2">0</pdfrwt>
<totfact> 0.44824973E+03</totfact>
</mgrwt>
</event>
<event>
 6    1  0.1280499E-001  0.3000000E+03  0.7818608E-02  0.1093470E+00
         21   -1    0    0  501  502  0.00000000000E+00  0.00000000000E+00  0.67479995597E+01  0.67479995597E+01  0.00000000000E+00 0. -1.
         13   -1    0    0    0    0 -0.00000000000E+00 -0.00000000000E+00 -0.10000000000E+04  0.10000000000E+04  0.00000000000E+00 0.  1.
    9000005    2    1    2  501    0 -0.82505609827E+01 -0.37346419863E+02 -0.94208472714E+03  0.94286594660E+03  0.31198264563E+01 0.  0.
         13    1    3    3    0    0 -0.19132256190E+01 -0.60727709486E+01 -0.18338902764E+03  0.18349952163E+03  0.00000000000E+00 0.  1.
          1    1    3    3  501    0 -0.63373353636E+01 -0.31273648914E+02 -0.75869569950E+03  0.75936642497E+03  0.00000000000E+00 0.  1.
         -3    1    1    2    0  502  0.82505609827E+01  0.37346419863E+02 -0.51167273298E+02  0.63882052956E+02  0.00000000000E+00 0. -1.
<mgrwt>
<rscale>  1 0.30000000E+03</rscale>
<asrwt>0</asrwt>
<pdfrwt beam="1">  1       21 0.24538232E-01 0.30000000E+03</pdfrwt>
<pdfrwt beam="2">0</pdfrwt>
<totfact> 0.16174740E+03</totfact>
</mgrwt>
</event>
<event>
 6    1  0.1280499E-001  0.3000000E+03  0.7818608E-02  0.1093470E+00
         21   -1    0    0  501  502  0.00000000000E+00  0.00000000000E+00  0.22415150002E+01  0.22415150002E+01  0.00000000000E+00 0. -1.
         13   -1    0    0    0    0 -0.00000000000E+00 -0.00000000000E+00 -0.10000000000E+04  0.10000000000E+04  0.00000000000E+00 0.  1.
    9000005    2    1    2  501    0 -0.39940926662E+02 -0.23940322770E+02 -0.58641006394E+03  0.58826574253E+03  0.33769923409E+01 0.  0.
         13    1    3    3    0    0 -0.29758136832E+02 -0.16240019048E+02 -0.41801865096E+03  0.41939107939E+03  0.00000000000E+00 0.  1.
          3    1    3    3  501    0 -0.10182789830E+02 -0.77003037222E+01 -0.16839141298E+03  0.16887466314E+03  0.00000000000E+00 0.  1.
         -1    1    1    2    0  502  0.39940926662E+02  0.23940322770E+02 -0.41134842106E+03  0.41397577247E+03  0.00000000000E+00 0. -1.
<mgrwt>
<rscale>  1 0.30000000E+03</rscale>
<asrwt>0</asrwt>
<pdfrwt beam="1">  1       21 0.81509808E-02 0.30000000E+03</pdfrwt>
<pdfrwt beam="2">0</pdfrwt>
<totfact> 0.12360966E+04</totfact>
</mgrwt>
</event>
<event>
 6    1  0.1280499E-001  0.3000000E+03  0.7818608E-02  0.1093470E+00
         21   -1    0    0  501  502  0.00000000000E+00  0.00000000000E+00  0.20031493311E+01  0.20031493311E+01  0.00000000000E+00 0. -1.
         13   -1    0    0    0    0 -0.00000000000E+00 -0.00000000000E+00 -0.10000000000E+04  0.10000000000E+04  0.00000000000E+00 0.  1.
    9000005    2    1    2  501    0 -0.39596571978E+02  0.18956046181E+00 -0.73150758805E+03  0.73258813205E+03  0.37543840876E+01 0.  0.
         13    1    3    3    0    0 -0.11870601464E+02  0.17786016836E+01 -0.22030117368E+03  0.22062792599E+03  0.00000000000E+00 0.  1.
          1    1    3    3  501    0 -0.27725970513E+02 -0.15890412218E+01 -0.51120641437E+03  0.51196020606E+03  0.00000000000E+00 0.  1.
         -1    1    1    2    0  502  0.39596571978E+02 -0.18956046181E+00 -0.26648926262E+03  0.26941501728E+03  0.00000000000E+00 0. -1.
<mgrwt>
<rscale>  1 0.30000000E+03</rscale>
<asrwt>0</asrwt>
<pdfrwt beam="1">  1       21 0.72841947E-02 0.30000000E+03</pdfrwt>
<pdfrwt beam="2">0</pdfrwt>
<totfact> 0.15053813E+04</totfact>
</mgrwt>
</event>
<event>
 6    1  0.1280499E-001  0.3000000E+03  0.7818608E-02  0.1093470E+00
         21   -1    0    0  501  502  0.00000000000E+00  0.00000000000E+00  0.10713520394E+01  0.10713520394E+01  0.00000000000E+00 0. -1.
         13   -1    0    0    0    0 -0.00000000000E+00 -0.00000000000E+00 -0.10000000000E+04  0.10000000000E+04  0.00000000000E+00 0.  1.
    9000005    2    1    2  501    0  0.28385763907E+02  0.14928591157E+02 -0.59506078410E+03  0.59593203540E+03  0.30065956757E+01 0.  0.
         13    1    3    3    0    0  0.11742471710E+02  0.59459213035E+01 -0.21753845174E+03  0.21793626960E+03  0.00000000000E+00 0.  1.
          3    1    3    3  501    0  0.16643292198E+02  0.89826698536E+01 -0.37752233236E+03  0.37799576580E+03  0.00000000000E+00 0.  1.
         -1    1    1    2    0  502 -0.28385763907E+02 -0.14928591157E+02 -0.40386786386E+03  0.40513931664E+03  0.00000000000E+00 0. -1.
<mgrwt>
<rscale>  1 0.30000000E+03</rscale>
<asrwt>0</asrwt>
<pdfrwt beam="1">  1       21 0.38958338E-02 0.30000000E+03</pdfrwt>
<pdfrwt beam="2">0</pdfrwt>
<totfact> 0.43956618E+04</totfact>
</mgrwt>
</event>
<event>
 6    1  0.1280499E-001  0.3000000E+03  0.7818608E-02  0.1093470E+00
         21   -1    0    0  501  502  0.00000000000E+00  0.00000000000E+00  0.13694276121E+01  0.13694276121E+01  0.00000000000E+00 0. -1.
         13   -1    0    0    0    0 -0.00000000000E+00 -0.00000000000E+00 -0.10000000000E+04  0.10000000000E+04  0.00000000000E+00 0.  1.
    9000005    2    1    2  501    0  0.31596319807E+02  0.76381866949E+01 -0.73652598727E+03  0.73725679471E+03  0.45146531699E+01 0.  0.
         13    1    3    3    0    0  0.20517334134E+02  0.30472211434E+01 -0.44086281252E+03  0.44135050245E+03  0.00000000000E+00 0.  1.
          3    1    3    3  501    0  0.11078985673E+02  0.45909655515E+01 -0.29566317476E+03  0.29590629225E+03  0.00000000000E+00 0.  1.
         -3    1    1    2    0  502 -0.31596319807E+02 -0.76381866949E+01 -0.26210458512E+03  0.26411263291E+03  0.00000000000E+00 0. -1.
<mgrwt>
<rscale>  1 0.30000000E+03</rscale>
<asrwt>0</asrwt>
<pdfrwt beam="1">  1       21 0.49797473E-02 0.30000000E+03</pdfrwt>
<pdfrwt beam="2">0</pdfrwt>
<totfact> 0.29004628E+04</totfact>
</mgrwt>
</event>
<event>
 6    1  0.1280499E-001  0.3000000E+03  0.7818608E-02  0.1093470E+00
         21   -1    0    0  501  502  0.00000000000E+00  0.00000000000E+00  0.23585227414E+01  0.23585227414E+01  0.00000000000E+00 0. -1.
         13   -1    0    0    0    0 -0.00000000000E+00 -0.00000000000E+00 -0.10000000000E+04  0.10000000000E+04  0.00000000000E+00 0.  1.
    9000005    2    1    2  501    0  0.47670341069E+02 -0.35011051903E+01 -0.41340397446E+03  0.41616898102E+03  0.30092362873E+01 0.  0.
         13    1    3    3    0    0  0.24113322829E+00 -0.20882083133E+00 -0.17717777734E+01  0.18002632729E+01  0.00000000000E+00 0.  1.
          3    1    3    3  501    0  0.47429207840E+02 -0.32922843590E+01 -0.41163219669E+03  0.41436871774E+03  0.00000000000E+00 0.  1.
         -1    1    1    2    0  502 -0.47670341069E+02  0.35011051903E+01 -0.58423750279E+03  0.58618954172E+03  0.00000000000E+00 0. -1.
<mgrwt>
<rscale>  1 0.30000000E+03</rscale>
<asrwt>0</asrwt>
<pdfrwt beam="1">  1       21 0.85764644E-02 0.30000000E+03</pdfrwt>
<pdfrwt beam="2">0</pdfrwt>
<totfact> 0.11301314E+04</totfact>
</mgrwt>
</event>
<event>
 6    1  0.1280499E-001  0.3000000E+03  0.7818608E-02  0.1093470E+00
         21   -1    0    0  501  502  0.00000000000E+00  0.00000000000E+00  0.39240331839E+01  0.39240331839E+01  0.00000000000E+00 0. -1.
         13   -1    0    0    0    0 -0.00000000000E+00 -0.00000000000E+00 -0.10000000000E+04  0.10000000000E+04  0.00000000000E+00 0.  1.
    9000005    2    1    2  501    0  0.35589310284E+02  0.45203316927E+02 -0.69611188029E+03  0.69849254812E+03  0.31860664278E+01 0.  0.
         13    1    3    3    0    0  0.41930024301E+00  0.11668104162E+00 -0.59568412958E+01  0.59727200992E+01  0.00000000000E+00 0.  1.
          3    1    3    3  501    0  0.35170010041E+02  0.45086635886E+02 -0.69015503900E+03  0.69251982802E+03  0.00000000000E+00 0.  1.
         -1    1    1    2    0  502 -0.35589310284E+02 -0.45203316927E+02 -0.29996408652E+03  0.30543148507E+03  0.00000000000E+00 0. -1.
<mgrwt>
<rscale>  1 0.30000000E+03</rscale>
<asrwt>0</asrwt>
<pdfrwt beam="1">  1       21 0.14269242E-01 0.30000000E+03</pdfrwt>
<pdfrwt beam="2">0</pdfrwt>
<totfact> 0.45156822E+03</totfact>
</mgrwt>
</event>
<event>
 6    1  0.1280499E-001  0.3000000E+03  0.7818608E-02  0.1093470E+00
         21   -1    0    0  501  502  0.00000000000E+00  0.00000000000E+00  0.28955252143E+01  0.28955252143E+01  0.00000000000E+00 0. -1.
         13   -1    0    0    0    0 -0.00000000000E+00 -0.00000000000E+00 -0.10000000000E+04  0.10000000000E+04  0.00000000000E+00 0.  1.
    9000005    2    1    2  501    0 -0.33110274060E+02  0.22382051137E+02 -0.83410163212E+03  0.83506473788E+03  0.32151636862E+01 0.  0.
         13    1    3    3    0    0 -0.13457313115E+02  0.75207664418E+01 -0.33914736948E+03  0.33949756911E+03  0.00000000000E+00 0.  1.
          3    1    3    3  501    0 -0.19652960946E+02  0.14861284695E+02 -0.49495426264E+03  0.49556716877E+03  0.00000000000E+00 0.  1.
         -1    1    1    2    0  502  0.33110274060E+02 -0.22382051137E+02 -0.16300284267E+03  0.16783078734E+03  0.00000000000E+00 0. -1.
<mgrwt>
<rscale>  1 0.30000000E+03</rscale>
<asrwt>0</asrwt>
<pdfrwt beam="1">  1       21 0.10529205E-01 0.30000000E+03</pdfrwt>
<pdfrwt beam="2">0</pdfrwt>
<totfact> 0.78447092E+03</totfact>
</mgrwt>
</event>
<event>
 6    1  0.1280499E-001  0.3000000E+03  0.7818608E-02  0.1093470E+00
         21   -1    0    0  501  502  0.00000000000E+00  0.00000000000E+00  0.15612533763E+01  0.15612533763E+01  0.00000000000E+00 0. -1.
         13   -1    0    0    0    0 -0.00000000000E+00 -0.00000000000E+00 -0.10000000000E+04  0.10000000000E+04  0.00000000000E+00 0.  1.
    9000005    2    1    2  501    0  0.19147343725E+02 -0.24122284662E+02 -0.81242109386E+03  0.81301133285E+03  0.32997291607E+01 0.  0.
         13    1    3    3    0    0  0.18256308369E+02 -0.23518176700E+02 -0.79476414309E+03  0.79532159570E+03  0.00000000000E+00 0.  1.
          1    1    3    3  501    0  0.89103535612E+00 -0.60410796160E+00 -0.17656950762E+02  0.17689737156E+02  0.00000000000E+00 0.  1.
         -3    1    1    2    0  502 -0.19147343725E+02  0.24122284662E+02 -0.18601765277E+03  0.18854992052E+03  0.00000000000E+00 0. -1.
<mgrwt>
<rscale>  1 0.30000000E+03</rscale>
<asrwt>0</asrwt>
<pdfrwt beam="1">  1       21 0.56772970E-02 0.30000000E+03</pdfrwt>
<pdfrwt beam="2">0</pdfrwt>
<totfact> 0.23176741E+04</totfact>
</mgrwt>
</event>
<event>
 6    1  0.1280499E-001  0.3000000E+03  0.7818608E-02  0.1093470E+00
         21   -1    0    0  501  502  0.00000000000E+00  0.00000000000E+00  0.23438032414E+01  0.23438032414E+01  0.00000000000E+00 0. -1.
         13   -1    0    0    0    0 -0.00000000000E+00 -0.00000000000E+00 -0.10000000000E+04  0.10000000000E+04  0.00000000000E+00 0.  1.
    9000005    2    1    2  501    0  0.26845245178E+02  0.36490033437E+02 -0.32411462458E+03  0.32728051792E+03  0.31714062927E+01 0.  0.
         13    1    3    3    0    0  0.16780859379E+02  0.20303677735E+02 -0.18447265112E+03  0.18634375649E+03  0.00000000000E+00 0.  1.
          1    1    3    3  501    0  0.10064385799E+02  0.16186355703E+02 -0.13964197346E+03  0.14093676144E+03  0.00000000000E+00 0.  1.
         -1    1    1    2    0  502 -0.26845245178E+02 -0.36490033437E+02 -0.67354157218E+03  0.67506328532E+03  0.00000000000E+00 0. -1.
<mgrwt>
<rscale>  1 0.30000000E+03</rscale>
<asrwt>0</asrwt>
<pdfrwt beam="1">  1       21 0.85229389E-02 0.30000000E+03</pdfrwt>
<pdfrwt beam="2">0</pdfrwt>
<totfact> 0.11426822E+04</totfact>
</mgrwt>
</event>
<event>
 6    1  0.1280499E-001  0.3000000E+03  0.7818608E-02  0.1093470E+00
         21   -1    0    0  501  502  0.00000000000E+00  0.00000000000E+00  0.12001492655E+01  0.12001492655E+01  0.00000000000E+00 0. -1.
         13   -1    0    0    0    0 -0.00000000000E+00 -0.00000000000E+00 -0.10000000000E+04  0.10000000000E+04  0.00000000000E+00 0.  1.
    9000005    2    1    2  501    0 -0.12150640565E+02 -0.31212962396E+02 -0.37761163839E+03  0.37910957528E+03  0.34107964819E+01 0.  0.
         13    1    3    3    0    0 -0.81257179317E+01 -0.24644575890E+02 -0.29579049123E+03  0.29692658540E+03  0.00000000000E+00 0.  1.
          1    1    3    3  501    0 -0.40249226338E+01 -0.65683865056E+01 -0.81821147153E+02  0.82182989876E+02  0.00000000000E+00 0.  1.
         -3    1    1    2    0  502  0.12150640565E+02  0.31212962396E+02 -0.62118821235E+03  0.62209057399E+03  0.00000000000E+00 0. -1.
<mgrwt>
<rscale>  1 0.30000000E+03</rscale>
<asrwt>0</asrwt>
<pdfrwt beam="1">  1       21 0.43641884E-02 0.30000000E+03</pdfrwt>
<pdfrwt beam="2">0</pdfrwt>
<totfact> 0.36295252E+04</totfact>
</mgrwt>
</event>
<event>
 6    1  0.1280499E-001  0.3000000E+03  0.7818608E-02  0.1093470E+00
         21   -1    0    0  501  502  0.00000000000E+00  0.00000000000E+00  0.25313577023E+01  0.25313577023E+01  0.00000000000E+00 0. -1.
         13   -1    0    0    0    0 -0.00000000000E+00 -0.00000000000E+00 -0.10000000000E+04  0.10000000000E+04  0.00000000000E+00 0.  1.
    9000005    2    1    2  501    0  0.22565667132E+02  0.21410989396E+02 -0.89260329524E+03  0.89314954562E+03  0.27979234320E+01 0.  0.
         13    1    3    3    0    0  0.42058144102E+01  0.40341639582E+01 -0.20075130166E+03  0.20083587446E+03  0.00000000000E+00 0.  1.
          1    1    3    3  501    0  0.18359852721E+02  0.17376825437E+02 -0.69185199358E+03  0.69231367116E+03  0.00000000000E+00 0.  1.
         -1    1    1    2    0  502 -0.22565667132E+02 -0.21410989396E+02 -0.10486534706E+03  0.10938181208E+03  0.00000000000E+00 0. -1.
<mgrwt>
<rscale>  1 0.30000000E+03</rscale>
<asrwt>0</asrwt>
<pdfrwt beam="1">  1       21 0.92049565E-02 0.30000000E+03</pdfrwt>
<pdfrwt beam="2">0</pdfrwt>
<totfact> 0.99718015E+03</totfact>
</mgrwt>
</event>
<event>
 6    1  0.1280499E-001  0.3000000E+03  0.7818608E-02  0.1093470E+00
         21   -1    0    0  501  502  0.00000000000E+00  0.00000000000E+00  0.20880618646E+01  0.20880618646E+01  0.00000000000E+00 0. -1.
         13   -1    0    0    0    0 -0.00000000000E+00 -0.00000000000E+00 -0.10000000000E+04  0.10000000000E+04  0.00000000000E+00 0.  1.
    9000005    2    1    2  501    0  0.39575479008E+02  0.11218878136E+02 -0.71630453567E+03  0.71749218893E+03  0.32820109410E+01 0.  0.
         13    1    3    3    0    0  0.47772166409E+01  0.20820281816E+01 -0.10618482841E+03  0.10631262590E+03  0.00000000000E+00 0.  1.
          3    1    3    3  501    0  0.34798262367E+02  0.91368499541E+01 -0.61011970726E+03  0.61117956304E+03  0.00000000000E+00 0.  1.
         -1    1    1    2    0  502 -0.39575479008E+02 -0.11218878136E+02 -0.28160740247E+03  0.28459587293E+03  0.00000000000E+00 0. -1.
<mgrwt>
<rscale>  1 0.30000000E+03</rscale>
<asrwt>0</asrwt>
<pdfrwt beam="1">  1       21 0.75929682E-02 0.30000000E+03</pdfrwt>
<pdfrwt beam="2">0</pdfrwt>
<totfact> 0.13999140E+04</totfact>
</mgrwt>
</event>
<event>
 6    1  0.1280499E-001  0.3000000E+03  0.7818608E-02  0.1093470E+00
         21   -1    0    0  501  502  0.00000000000E+00  0.00000000000E+00  0.13211892725E+01  0.13211892725E+01  0.00000000000E+00 0. -1.
         13   -1    0    0    0    0 -0.00000000000E+00 -0.00000000000E+00 -0.10000000000E+04  0.10000000000E+04  0.00000000000E+00 0.  1.
    9000005    2    1    2  501    0 -0.25988480856E+02  0.23353070532E+02 -0.63392937581E+03  0.63490214322E+03  0.36757182682E+01 0.  0.
         13    1    3    3    0    0 -0.22667345992E+02  0.21789981422E+02 -0.56090318046E+03  0.56178375708E+03  0.00000000000E+00 0.  1.
          1    1    3    3  501    0 -0.33211348640E+01  0.15630891098E+01 -0.73026195353E+02  0.73118386143E+02  0.00000000000E+00 0.  1.
         -3    1    1    2    0  502  0.25988480856E+02 -0.23353070532E+02 -0.36474943492E+03  0.36641904605E+03  0.00000000000E+00 0. -1.
<mgrwt>
<rscale>  1 0.30000000E+03</rscale>
<asrwt>0</asrwt>
<pdfrwt beam="1">  1       21 0.48043348E-02 0.30000000E+03</pdfrwt>
<pdfrwt beam="2">0</pdfrwt>
<totfact> 0.30831148E+04</totfact>
</mgrwt>
</event>
<event>
 6    1  0.1280499E-001  0.3000000E+03  0.7818608E-02  0.1093470E+00
         21   -1    0    0  501  502  0.00000000000E+00  0.00000000000E+00  0.58200610928E+01  0.58200610928E+01  0.00000000000E+00 0. -1.
         13   -1    0    0    0    0 -0.00000000000E+00 -0.00000000000E+00 -0.10000000000E+04  0.10000000000E+04  0.00000000000E+00 0.  1.
    9000005    2    1    2  501    0  0.30966918389E+02 -0.45668234977E+02 -0.84422585985E+03  0.84603657150E+03  0.40050164027E+01 0.  0.
         13    1    3    3    0    0  0.34662908725E+01 -0.73387865989E+01 -0.13442401409E+03  0.13466881051E+03  0.00000000000E+00 0.  1.
          1    1    3    3  501    0  0.27500627517E+02 -0.38329448378E+02 -0.70980184576E+03  0.71136776099E+03  0.00000000000E+00 0.  1.
         -3    1    1    2    0  502 -0.30966918389E+02  0.45668234977E+02 -0.14995407906E+03  0.15978348959E+03  0.00000000000E+00 0. -1.
<mgrwt>
<rscale>  1 0.30000000E+03</rscale>
<asrwt>0</asrwt>
<pdfrwt beam="1">  1       21 0.21163903E-01 0.30000000E+03</pdfrwt>
<pdfrwt beam="2">0</pdfrwt>
<totfact> 0.21530838E+03</totfact>
</mgrwt>
</event>
<event>
 6    1  0.1280499E-001  0.3000000E+03  0.7818608E-02  0.1093470E+00
         21   -1    0    0  501  502  0.00000000000E+00  0.00000000000E+00  0.25933538088E+01  0.25933538088E+01  0.00000000000E+00 0. -1.
         13   -1    0    0    0    0 -0.00000000000E+00 -0.00000000000E+00 -0.10000000000E+04  0.10000000000E+04  0.00000000000E+00 0.  1.
    9000005    2    1    2  501    0 -0.11368705808E+02  0.45101473891E+02 -0.70208532339E+03  0.70363169386E+03  0.32200720921E+01 0.  0.
         13    1    3    3    0    0 -0.65408250386E+00  0.45355669866E+01 -0.57523640047E+02  0.57705878003E+02  0.00000000000E+00 0.  1.
          1    1    3    3  501    0 -0.10714623305E+02  0.40565906905E+02 -0.64456168334E+03  0.64592581585E+03  0.00000000000E+00 0.  1.
         -3    1    1    2    0  502  0.11368705808E+02 -0.45101473891E+02 -0.29532132280E+03  0.29896165995E+03  0.00000000000E+00 0. -1.
<mgrwt>
<rscale>  1 0.30000000E+03</rscale>
<asrwt>0</asrwt>
<pdfrwt beam="1">  1       21 0.94303974E-02 0.30000000E+03</pdfrwt>
<pdfrwt beam="2">0</pdfrwt>
<totfact> 0.95519827E+03</totfact>
</mgrwt>
</event>
<event>
 6    1  0.1280499E-001  0.3000000E+03  0.7818608E-02  0.1093470E+00
         21   -1    0    0  501  502  0.00000000000E+00  0.00000000000E+00  0.12148731149E+02  0.12148731149E+02  0.00000000000E+00 0. -1.
         13   -1    0    0    0    0 -0.00000000000E+00 -0.00000000000E+00 -0.10000000000E+04  0.10000000000E+04  0.00000000000E+00 0.  1.
    9000005    2    1    2  501    0 -0.82989725470E+02  0.37252229660E+02 -0.77958746742E+03  0.78488493259E+03  0.35657961310E+01 0.  0.
         13    1    3    3    0    0 -0.27307304208E+02  0.10663878294E+02 -0.24412484478E+03  0.24587872417E+03  0.00000000000E+00 0.  1.
          1    1    3    3  501    0 -0.55682421262E+02  0.26588351366E+02 -0.53546262264E+03  0.53900620842E+03  0.00000000000E+00 0.  1.
         -1    1    1    2    0  502  0.82989725470E+02 -0.37252229660E+02 -0.20826380143E+03  0.22726379856E+03  0.00000000000E+00 0. -1.
<mgrwt>
<rscale>  1 0.30000000E+03</rscale>
<asrwt>0</asrwt>
<pdfrwt beam="1">  1       21 0.44177297E-01 0.30000000E+03</pdfrwt>
<pdfrwt beam="2">0</pdfrwt>
<totfact> 0.48993710E+02</totfact>
</mgrwt>
</event>
<event>
 6    1  0.1280499E-001  0.3000000E+03  0.7818608E-02  0.1093470E+00
         21   -1    0    0  501  502  0.00000000000E+00  0.00000000000E+00  0.14887482964E+01  0.14887482964E+01  0.00000000000E+00 0. -1.
         13   -1    0    0    0    0 -0.00000000000E+00 -0.00000000000E+00 -0.10000000000E+04  0.10000000000E+04  0.00000000000E+00 0.  1.
    9000005    2    1    2  501    0 -0.28175333032E+02  0.16572813552E+02 -0.76448327866E+03  0.76518893935E+03  0.33048471679E+01 0.  0.
         13    1    3    3    0    0 -0.15193623974E+02  0.87563510438E+01 -0.44803864274E+03  0.44838169597E+03  0.00000000000E+00 0.  1.
          3    1    3    3  501    0 -0.12981709057E+02  0.78164625083E+01 -0.31644463592E+03  0.31680724339E+03  0.00000000000E+00 0.  1.
         -1    1    1    2    0  502  0.28175333032E+02 -0.16572813552E+02 -0.23402797304E+03  0.23629980894E+03  0.00000000000E+00 0. -1.
<mgrwt>
<rscale>  1 0.30000000E+03</rscale>
<asrwt>0</asrwt>
<pdfrwt beam="1">  1       21 0.54136416E-02 0.30000000E+03</pdfrwt>
<pdfrwt beam="2">0</pdfrwt>
<totfact> 0.25146998E+04</totfact>
</mgrwt>
</event>
<event>
 6    1  0.1280499E-001  0.3000000E+03  0.7818608E-02  0.1093470E+00
         21   -1    0    0  501  502  0.00000000000E+00  0.00000000000E+00  0.17801082828E+02  0.17801082828E+02  0.00000000000E+00 0. -1.
         13   -1    0    0    0    0 -0.00000000000E+00 -0.00000000000E+00 -0.10000000000E+04  0.10000000000E+04  0.00000000000E+00 0.  1.
    9000005    2    1    2  501    0  0.71170073524E+02 -0.65916364173E+02 -0.84043763563E+03  0.84602679087E+03  0.39705246600E+01 0.  0.
         13    1    3    3    0    0  0.36038027122E+02 -0.33021449860E+02 -0.40631656326E+03  0.40924602029E+03  0.00000000000E+00 0.  1.
          3    1    3    3  501    0  0.35132046401E+02 -0.32894914313E+02 -0.43412107237E+03  0.43678077058E+03  0.00000000000E+00 0.  1.
         -3    1    1    2    0  502 -0.71170073524E+02  0.65916364173E+02 -0.14176128155E+03  0.17177429196E+03  0.00000000000E+00 0. -1.
<mgrwt>
<rscale>  1 0.30000000E+03</rscale>
<asrwt>0</asrwt>
<pdfrwt beam="1">  1       21 0.64731347E-01 0.30000000E+03</pdfrwt>
<pdfrwt beam="2">0</pdfrwt>
<totfact> 0.21141594E+02</totfact>
</mgrwt>
</event>
<event>
 6    1  0.1280499E-001  0.3000000E+03  0.7818608E-02  0.1093470E+00
         21   -1    0    0  501  502  0.00000000000E+00  0.00000000000E+00  0.19769008537E+01  0.19769008537E+01  0.00000000000E+00 0. -1.
         13   -1    0    0    0    0 -0.00000000000E+00 -0.00000000000E+00 -0.10000000000E+04  0.10000000000E+04  0.00000000000E+00 0.  1.
    9000005    2    1    2  501    0  0.17983430743E+02  0.28943277452E+02 -0.82052494866E+03  0.82123755672E+03  0.29691929889E+01 0.  0.
         13    1    3    3    0    0  0.12393869902E+02  0.19498088545E+02 -0.58804382976E+03  0.58849751842E+03  0.00000000000E+00 0.  1.
          1    1    3    3  501    0  0.55895608407E+01  0.94451889066E+01 -0.23248111889E+03  0.23274003830E+03  0.00000000000E+00 0.  1.
         -1    1    1    2    0  502 -0.17983430743E+02 -0.28943277452E+02 -0.17749815049E+03  0.18073934414E+03  0.00000000000E+00 0. -1.
<mgrwt>
<rscale>  1 0.30000000E+03</rscale>
<asrwt>0</asrwt>
<pdfrwt beam="1">  1       21 0.71887455E-02 0.30000000E+03</pdfrwt>
<pdfrwt beam="2">0</pdfrwt>
<totfact> 0.15404393E+04</totfact>
</mgrwt>
</event>
<event>
 6    1  0.1280499E-001  0.3000000E+03  0.7818608E-02  0.1093470E+00
         21   -1    0    0  501  502  0.00000000000E+00  0.00000000000E+00  0.98671456895E+00  0.98671456895E+00  0.00000000000E+00 0. -1.
         13   -1    0    0    0    0 -0.00000000000E+00 -0.00000000000E+00 -0.10000000000E+04  0.10000000000E+04  0.00000000000E+00 0.  1.
    9000005    2    1    2  501    0 -0.28160924783E+02 -0.12521546732E+02 -0.59063979465E+03  0.59145193608E+03  0.31935645295E+01 0.  0.
         13    1    3    3    0    0 -0.23497747624E+02 -0.10278737095E+02 -0.51211817190E+03  0.51276000094E+03  0.00000000000E+00 0.  1.
          1    1    3    3  501    0 -0.46631771589E+01 -0.22428096371E+01 -0.78521622754E+02  0.78691935141E+02  0.00000000000E+00 0.  1.
         -1    1    1    2    0  502  0.28160924783E+02  0.12521546732E+02 -0.40837349078E+03  0.40953477848E+03  0.00000000000E+00 0. -1.
<mgrwt>
<rscale>  1 0.30000000E+03</rscale>
<asrwt>0</asrwt>
<pdfrwt beam="1">  1       21 0.35880605E-02 0.30000000E+03</pdfrwt>
<pdfrwt beam="2">0</pdfrwt>
<totfact> 0.50470682E+04</totfact>
</mgrwt>
</event>
<event>
 6    1  0.1280499E-001  0.3000000E+03  0.7818608E-02  0.1093470E+00
         21   -1    0    0  501  502  0.00000000000E+00  0.00000000000E+00  0.13357378083E+01  0.13357378083E+01  0.00000000000E+00 0. -1.
         13   -1    0    0    0    0 -0.00000000000E+00 -0.00000000000E+00 -0.10000000000E+04  0.10000000000E+04  0.00000000000E+00 0.  1.
    9000005    2    1    2  501    0  0.34444697827E+02  0.63432221547E+01 -0.63985166029E+03  0.64081783678E+03  0.32678874802E+01 0.  0.
         13    1    3    3    0    0  0.29842489149E+01 -0.10445157276E+00 -0.43804076146E+02  0.43905736968E+02  0.00000000000E+00 0.  1.
          3    1    3    3  501    0  0.31460448912E+02  0.64476737275E+01 -0.59604758414E+03  0.59691209981E+03  0.00000000000E+00 0.  1.
         -1    1    1    2    0  502 -0.34444697827E+02 -0.63432221547E+01 -0.35881260191E+03  0.36051790103E+03  0.00000000000E+00 0. -1.
<mgrwt>
<rscale>  1 0.30000000E+03</rscale>
<asrwt>0</asrwt>
<pdfrwt beam="1">  1       21 0.48572386E-02 0.30000000E+03</pdfrwt>
<pdfrwt beam="2">0</pdfrwt>
<totfact> 0.30261777E+04</totfact>
</mgrwt>
</event>
<event>
 6    1  0.1280499E-001  0.3000000E+03  0.7818608E-02  0.1093470E+00
         21   -1    0    0  501  502  0.00000000000E+00  0.00000000000E+00  0.15161259301E+01  0.15161259301E+01  0.00000000000E+00 0. -1.
         13   -1    0    0    0    0 -0.00000000000E+00 -0.00000000000E+00 -0.10000000000E+04  0.10000000000E+04  0.00000000000E+00 0.  1.
    9000005    2    1    2  501    0 -0.33638346844E+02 -0.46073457385E-01 -0.75073860665E+03  0.75149761055E+03  0.29432388399E+01 0.  0.
         13    1    3    3    0    0 -0.19646740392E+02 -0.24042393076E+00 -0.40606449390E+03  0.40653957424E+03  0.00000000000E+00 0.  1.
          3    1    3    3  501    0 -0.13991606452E+02  0.19435047338E+00 -0.34467411275E+03  0.34495803632E+03  0.00000000000E+00 0.  1.
         -1    1    1    2    0  502  0.33638346844E+02  0.46073457385E-01 -0.24774526742E+03  0.25001851538E+03  0.00000000000E+00 0. -1.
<mgrwt>
<rscale>  1 0.30000000E+03</rscale>
<asrwt>0</asrwt>
<pdfrwt beam="1">  1       21 0.55131968E-02 0.30000000E+03</pdfrwt>
<pdfrwt beam="2">0</pdfrwt>
<totfact> 0.24373775E+04</totfact>
</mgrwt>
</event>
<event>
 6    1  0.1280499E-001  0.3000000E+03  0.7818608E-02  0.1093470E+00
         21   -1    0    0  501  502  0.00000000000E+00  0.00000000000E+00  0.12992719557E+01  0.12992719557E+01  0.00000000000E+00 0. -1.
         13   -1    0    0    0    0 -0.00000000000E+00 -0.00000000000E+00 -0.10000000000E+04  0.10000000000E+04  0.00000000000E+00 0.  1.
    9000005    2    1    2  501    0 -0.14377235448E+02  0.31093021238E+02 -0.65258017737E+03  0.65348766135E+03  0.34285243768E+01 0.  0.
         13    1    3    3    0    0 -0.67448494846E+01  0.12954451431E+02 -0.24896290968E+03  0.24939094050E+03  0.00000000000E+00 0.  1.
          3    1    3    3  501    0 -0.76323859635E+01  0.18138569807E+02 -0.40361726768E+03  0.40409672085E+03  0.00000000000E+00 0.  1.
         -1    1    1    2    0  502  0.14377235448E+02 -0.31093021238E+02 -0.34612055068E+03  0.34781161060E+03  0.00000000000E+00 0. -1.
<mgrwt>
<rscale>  1 0.30000000E+03</rscale>
<asrwt>0</asrwt>
<pdfrwt beam="1">  1       21 0.47246353E-02 0.30000000E+03</pdfrwt>
<pdfrwt beam="2">0</pdfrwt>
<totfact> 0.31721095E+04</totfact>
</mgrwt>
</event>
<event>
 6    1  0.1280499E-001  0.3000000E+03  0.7818608E-02  0.1093470E+00
         21   -1    0    0  501  502  0.00000000000E+00  0.00000000000E+00  0.95601806332E+00  0.95601806332E+00  0.00000000000E+00 0. -1.
         13   -1    0    0    0    0 -0.00000000000E+00 -0.00000000000E+00 -0.10000000000E+04  0.10000000000E+04  0.00000000000E+00 0.  1.
    9000005    2    1    2  501    0  0.28146363245E+02  0.12243478615E+02 -0.46593123414E+03  0.46696039786E+03  0.42400106421E+01 0.  0.
         13    1    3    3    0    0  0.25849303563E+02  0.12425889041E+02 -0.43185452683E+03  0.43280587052E+03  0.00000000000E+00 0.  1.
          3    1    3    3  501    0  0.22970596827E+01 -0.18241042609E+00 -0.34076707301E+02  0.34154527332E+02  0.00000000000E+00 0.  1.
         -3    1    1    2    0  502 -0.28146363245E+02 -0.12243478615E+02 -0.53311274780E+03  0.53399562021E+03  0.00000000000E+00 0. -1.
<mgrwt>
<rscale>  1 0.30000000E+03</rscale>
<asrwt>0</asrwt>
<pdfrwt beam="1">  1       21 0.34764367E-02 0.30000000E+03</pdfrwt>
<pdfrwt beam="2">0</pdfrwt>
<totfact> 0.53215202E+04</totfact>
</mgrwt>
</event>
<event>
 6    1  0.1280499E-001  0.3000000E+03  0.7818608E-02  0.1093470E+00
         21   -1    0    0  501  502  0.00000000000E+00  0.00000000000E+00  0.10264482615E+01  0.10264482615E+01  0.00000000000E+00 0. -1.
         13   -1    0    0    0    0 -0.00000000000E+00 -0.00000000000E+00 -0.10000000000E+04  0.10000000000E+04  0.00000000000E+00 0.  1.
    9000005    2    1    2  501    0 -0.11450827305E+02  0.29578932275E+02 -0.45069793845E+03  0.45183414787E+03  0.44080357855E+01 0.  0.
         13    1    3    3    0    0 -0.50113505642E+01  0.12108069469E+02 -0.15656178023E+03  0.15710922955E+03  0.00000000000E+00 0.  1.
          3    1    3    3  501    0 -0.64394767404E+01  0.17470862806E+02 -0.29413615822E+03  0.29472491833E+03  0.00000000000E+00 0.  1.
         -1    1    1    2    0  502  0.11450827305E+02 -0.29578932275E+02 -0.54827561329E+03  0.54919230039E+03  0.00000000000E+00 0. -1.
<mgrwt>
<rscale>  1 0.30000000E+03</rscale>
<asrwt>0</asrwt>
<pdfrwt beam="1">  1       21 0.37325470E-02 0.30000000E+03</pdfrwt>
<pdfrwt beam="2">0</pdfrwt>
<totfact> 0.47235834E+04</totfact>
</mgrwt>
</event>
<event>
 6    1  0.1280499E-001  0.3000000E+03  0.7818608E-02  0.1093470E+00
         21   -1    0    0  501  502  0.00000000000E+00  0.00000000000E+00  0.13372913412E+01  0.13372913412E+01  0.00000000000E+00 0. -1.
         13   -1    0    0    0    0 -0.00000000000E+00 -0.00000000000E+00 -0.10000000000E+04  0.10000000000E+04  0.00000000000E+00 0.  1.
    9000005    2    1    2  501    0 -0.28977938265E+01 -0.35416613466E+02 -0.61411422660E+03  0.61515045991E+03  0.33273554646E+01 0.  0.
         13    1    3    3    0    0  0.42036411624E+00 -0.97193000420E+01 -0.18273799249E+03  0.18299676336E+03  0.00000000000E+00 0.  1.
          3    1    3    3  501    0 -0.33181579428E+01 -0.25697313424E+02 -0.43137623411E+03  0.43215369655E+03  0.00000000000E+00 0.  1.
         -3    1    1    2    0  502  0.28977938265E+01  0.35416613466E+02 -0.38454848206E+03  0.38618683143E+03  0.00000000000E+00 0. -1.
<mgrwt>
<rscale>  1 0.30000000E+03</rscale>
<asrwt>0</asrwt>
<pdfrwt beam="1">  1       21 0.48628879E-02 0.30000000E+03</pdfrwt>
<pdfrwt beam="2">0</pdfrwt>
<totfact> 0.30201950E+04</totfact>
</mgrwt>
</event>
<event>
 6    1  0.1280499E-001  0.3000000E+03  0.7818608E-02  0.1093470E+00
         21   -1    0    0  501  502  0.00000000000E+00  0.00000000000E+00  0.16893232826E+01  0.16893232826E+01  0.00000000000E+00 0. -1.
         13   -1    0    0    0    0 -0.00000000000E+00 -0.00000000000E+00 -0.10000000000E+04  0.10000000000E+04  0.00000000000E+00 0.  1.
    9000005    2    1    2  501    0 -0.36336214240E+02 -0.19019060387E+02 -0.51725596354E+03  0.51888948672E+03  0.32438369756E+01 0.  0.
         13    1    3    3    0    0 -0.20616445347E+02 -0.10212852059E+02 -0.27065336352E+03  0.27162949646E+03  0.00000000000E+00 0.  1.
          3    1    3    3  501    0 -0.15719768893E+02 -0.88062083275E+01 -0.24660260003E+03  0.24725999025E+03  0.00000000000E+00 0.  1.
         -3    1    1    2    0  502  0.36336214240E+02  0.19019060387E+02 -0.48105471317E+03  0.48279983657E+03  0.00000000000E+00 0. -1.
<mgrwt>
<rscale>  1 0.30000000E+03</rscale>
<asrwt>0</asrwt>
<pdfrwt beam="1">  1       21 0.61430067E-02 0.30000000E+03</pdfrwt>
<pdfrwt beam="2">0</pdfrwt>
<totfact> 0.20232412E+04</totfact>
</mgrwt>
</event>
<event>
 6    1  0.1280499E-001  0.3000000E+03  0.7818608E-02  0.1093470E+00
         21   -1    0    0  501  502  0.00000000000E+00  0.00000000000E+00  0.12128220164E+01  0.12128220164E+01  0.00000000000E+00 0. -1.
         13   -1    0    0    0    0 -0.00000000000E+00 -0.00000000000E+00 -0.10000000000E+04  0.10000000000E+04  0.00000000000E+00 0.  1.
    9000005    2    1    2  501    0 -0.28012372288E+02 -0.11411288260E+02 -0.74614175761E+03  0.74676318272E+03  0.35802401844E+01 0.  0.
         13    1    3    3    0    0 -0.21289953533E+02 -0.83352409448E+01 -0.52428677941E+03  0.52478506593E+03  0.00000000000E+00 0.  1.
          3    1    3    3  501    0 -0.67224187557E+01 -0.30760473154E+01 -0.22185497820E+03  0.22197811678E+03  0.00000000000E+00 0.  1.
         -1    1    1    2    0  502  0.28012372288E+02  0.11411288260E+02 -0.25264542038E+03  0.25444963930E+03  0.00000000000E+00 0. -1.
<mgrwt>
<rscale>  1 0.30000000E+03</rscale>
<asrwt>0</asrwt>
<pdfrwt beam="1">  1       21 0.44102712E-02 0.30000000E+03</pdfrwt>
<pdfrwt beam="2">0</pdfrwt>
<totfact> 0.35655285E+04</totfact>
</mgrwt>
</event>
<event>
 6    1  0.1280499E-001  0.3000000E+03  0.7818608E-02  0.1093470E+00
         21   -1    0    0  501  502  0.00000000000E+00  0.00000000000E+00  0.17671849467E+01  0.17671849467E+01  0.00000000000E+00 0. -1.
         13   -1    0    0    0    0 -0.00000000000E+00 -0.00000000000E+00 -0.10000000000E+04  0.10000000000E+04  0.00000000000E+00 0.  1.
    9000005    2    1    2  501    0 -0.79797705143E+01 -0.29762932501E+02 -0.83963589976E+03  0.84020453323E+03  0.23884323970E+01 0.  0.
         13    1    3    3    0    0 -0.30520447266E+01 -0.78330604171E+01 -0.21435679337E+03  0.21452157625E+03  0.00000000000E+00 0.  1.
          3    1    3    3  501    0 -0.49277257877E+01 -0.21929872084E+02 -0.62527910639E+03  0.62568295698E+03  0.00000000000E+00 0.  1.
         -1    1    1    2    0  502  0.79797705143E+01  0.29762932501E+02 -0.15859691529E+03  0.16156265171E+03  0.00000000000E+00 0. -1.
<mgrwt>
<rscale>  1 0.30000000E+03</rscale>
<asrwt>0</asrwt>
<pdfrwt beam="1">  1       21 0.64261406E-02 0.30000000E+03</pdfrwt>
<pdfrwt beam="2">0</pdfrwt>
<totfact> 0.18716620E+04</totfact>
</mgrwt>
</event>
<event>
 6    1  0.1280499E-001  0.3000000E+03  0.7818608E-02  0.1093470E+00
         21   -1    0    0  501  502  0.00000000000E+00  0.00000000000E+00  0.10184680861E+01  0.10184680861E+01  0.00000000000E+00 0. -1.
         13   -1    0    0    0    0 -0.00000000000E+00 -0.00000000000E+00 -0.10000000000E+04  0.10000000000E+04  0.00000000000E+00 0.  1.
    9000005    2    1    2  501    0 -0.29968931913E+02  0.54679154891E+01 -0.41459674278E+03  0.41584019034E+03  0.10225937358E+02 0.  0.
         13    1    3    3    0    0 -0.25768740062E+02  0.82753753182E+01 -0.34427589200E+03  0.34533809464E+03  0.00000000000E+00 0.  1.
          3    1    3    3  501    0 -0.42001918507E+01 -0.28074598291E+01 -0.70320850786E+02  0.70502095696E+02  0.00000000000E+00 0.  1.
         -3    1    1    2    0  502  0.29968931913E+02 -0.54679154891E+01 -0.58438478913E+03  0.58517827775E+03  0.00000000000E+00 0. -1.
<mgrwt>
<rscale>  1 0.30000000E+03</rscale>
<asrwt>0</asrwt>
<pdfrwt beam="1">  1       21 0.37035281E-02 0.30000000E+03</pdfrwt>
<pdfrwt beam="2">0</pdfrwt>
<totfact> 0.47858815E+04</totfact>
</mgrwt>
</event>
<event>
 6    1  0.1280499E-001  0.3000000E+03  0.7818608E-02  0.1093470E+00
         21   -1    0    0  501  502  0.00000000000E+00  0.00000000000E+00  0.24472943382E+01  0.24472943382E+01  0.00000000000E+00 0. -1.
         13   -1    0    0    0    0 -0.00000000000E+00 -0.00000000000E+00 -0.10000000000E+04  0.10000000000E+04  0.00000000000E+00 0.  1.
    9000005    2    1    2  501    0  0.33594975834E+02 -0.10556571814E+02 -0.85050611772E+03  0.85124292061E+03  0.37134884593E+01 0.  0.
         13    1    3    3    0    0  0.33677410659E+02 -0.10451884354E+02 -0.84542507641E+03  0.84616013242E+03  0.00000000000E+00 0.  1.
          1    1    3    3  501    0 -0.82434825422E-01 -0.10468745981E+00 -0.50810413174E+01  0.50827881948E+01  0.00000000000E+00 0.  1.
         -1    1    1    2    0  502 -0.33594975834E+02  0.10556571814E+02 -0.14704658794E+03  0.15120437373E+03  0.00000000000E+00 0. -1.
<mgrwt>
<rscale>  1 0.30000000E+03</rscale>
<asrwt>0</asrwt>
<pdfrwt beam="1">  1       21 0.88992709E-02 0.30000000E+03</pdfrwt>
<pdfrwt beam="2">0</pdfrwt>
<totfact> 0.10587003E+04</totfact>
</mgrwt>
</event>
<event>
 6    1  0.1280499E-001  0.3000000E+03  0.7818608E-02  0.1093470E+00
         21   -1    0    0  501  502  0.00000000000E+00  0.00000000000E+00  0.17630403739E+01  0.17630403739E+01  0.00000000000E+00 0. -1.
         13   -1    0    0    0    0 -0.00000000000E+00 -0.00000000000E+00 -0.10000000000E+04  0.10000000000E+04  0.00000000000E+00 0.  1.
    9000005    2    1    2  501    0 -0.34305241302E+02 -0.15504933689E+02 -0.71981882172E+03  0.72081124368E+03  0.35299243743E+01 0.  0.
         13    1    3    3    0    0 -0.28067385223E+02 -0.14028738781E+02 -0.58791569979E+03  0.58875245535E+03  0.00000000000E+00 0.  1.
          1    1    3    3  501    0 -0.62378560784E+01 -0.14761949085E+01 -0.13190312193E+03  0.13205878833E+03  0.00000000000E+00 0.  1.
         -3    1    1    2    0  502  0.34305241302E+02  0.15504933689E+02 -0.27841813791E+03  0.28095179670E+03  0.00000000000E+00 0. -1.
<mgrwt>
<rscale>  1 0.30000000E+03</rscale>
<asrwt>0</asrwt>
<pdfrwt beam="1">  1       21 0.64110694E-02 0.30000000E+03</pdfrwt>
<pdfrwt beam="2">0</pdfrwt>
<totfact> 0.18792811E+04</totfact>
</mgrwt>
</event>
<event>
 6    1  0.1280499E-001  0.3000000E+03  0.7818608E-02  0.1093470E+00
         21   -1    0    0  501  502  0.00000000000E+00  0.00000000000E+00  0.20967351875E+01  0.20967351875E+01  0.00000000000E+00 0. -1.
         13   -1    0    0    0    0 -0.00000000000E+00 -0.00000000000E+00 -0.10000000000E+04  0.10000000000E+04  0.00000000000E+00 0.  1.
    9000005    2    1    2  501    0  0.13233919026E+01 -0.37387618214E+02 -0.78639179987E+03  0.78730221672E+03  0.57560565293E+01 0.  0.
         13    1    3    3    0    0  0.12577386564E+01 -0.37331409022E+02 -0.76594988908E+03  0.76686012322E+03  0.00000000000E+00 0.  1.
          1    1    3    3  501    0  0.65653246182E-01 -0.56209192440E-01 -0.20441910786E+02  0.20442093494E+02  0.00000000000E+00 0.  1.
         -1    1    1    2    0  502 -0.13233919026E+01  0.37387618214E+02 -0.21151146495E+03  0.21479451847E+03  0.00000000000E+00 0. -1.
<mgrwt>
<rscale>  1 0.30000000E+03</rscale>
<asrwt>0</asrwt>
<pdfrwt beam="1">  1       21 0.76245077E-02 0.30000000E+03</pdfrwt>
<pdfrwt beam="2">0</pdfrwt>
<totfact> 0.13897843E+04</totfact>
</mgrwt>
</event>
<event>
 6    1  0.1280499E-001  0.3000000E+03  0.7818608E-02  0.1093470E+00
         21   -1    0    0  501  502  0.00000000000E+00  0.00000000000E+00  0.14876333063E+01  0.14876333063E+01  0.00000000000E+00 0. -1.
         13   -1    0    0    0    0 -0.00000000000E+00 -0.00000000000E+00 -0.10000000000E+04  0.10000000000E+04  0.00000000000E+00 0.  1.
    9000005    2    1    2  501    0  0.32045217786E+02 -0.21267546836E+02 -0.52269023557E+03  0.52411366564E+03  0.32935735544E+01 0.  0.
         13    1    3    3    0    0  0.10512719037E+02 -0.70056367883E+01 -0.15133074806E+03  0.15185714181E+03  0.00000000000E+00 0.  1.
          3    1    3    3  501    0  0.21532498749E+02 -0.14261910048E+02 -0.37135948750E+03  0.37225652384E+03  0.00000000000E+00 0.  1.
         -3    1    1    2    0  502 -0.32045217786E+02  0.21267546836E+02 -0.47582213113E+03  0.47737396766E+03  0.00000000000E+00 0. -1.
<mgrwt>
<rscale>  1 0.30000000E+03</rscale>
<asrwt>0</asrwt>
<pdfrwt beam="1">  1       21 0.54095871E-02 0.30000000E+03</pdfrwt>
<pdfrwt beam="2">0</pdfrwt>
<totfact> 0.25179287E+04</totfact>
</mgrwt>
</event>
<event>
 6    1  0.1280499E-001  0.3000000E+03  0.7818608E-02  0.1093470E+00
         21   -1    0    0  501  502  0.00000000000E+00  0.00000000000E+00  0.12107282003E+01  0.12107282003E+01  0.00000000000E+00 0. -1.
         13   -1    0    0    0    0 -0.00000000000E+00 -0.00000000000E+00 -0.10000000000E+04  0.10000000000E+04  0.00000000000E+00 0.  1.
    9000005    2    1    2  501    0 -0.67765310620E+01  0.32002982221E+02 -0.66730983658E+03  0.66812105826E+03  0.36356919489E+01 0.  0.
         13    1    3    3    0    0 -0.40709930662E+01  0.17890635644E+02 -0.40994283895E+03  0.41035323690E+03  0.00000000000E+00 0.  1.
          3    1    3    3  501    0 -0.27055379958E+01  0.14112346577E+02 -0.25736699763E+03  0.25776782136E+03  0.00000000000E+00 0.  1.
         -3    1    1    2    0  502  0.67765310620E+01 -0.32002982221E+02 -0.33147943522E+03  0.33308966994E+03  0.00000000000E+00 0. -1.
<mgrwt>
<rscale>  1 0.30000000E+03</rscale>
<asrwt>0</asrwt>
<pdfrwt beam="1">  1       21 0.44026573E-02 0.30000000E+03</pdfrwt>
<pdfrwt beam="2">0</pdfrwt>
<totfact> 0.35759812E+04</totfact>
</mgrwt>
</event>
<event>
 6    1  0.1280499E-001  0.3000000E+03  0.7818608E-02  0.1093470E+00
         21   -1    0    0  501  502  0.00000000000E+00  0.00000000000E+00  0.24917924707E+01  0.24917924707E+01  0.00000000000E+00 0. -1.
         13   -1    0    0    0    0 -0.00000000000E+00 -0.00000000000E+00 -0.10000000000E+04  0.10000000000E+04  0.00000000000E+00 0.  1.
    9000005    2    1    2  501    0 -0.19334368470E+02 -0.37605062182E+02 -0.76368685078E+03  0.76487785059E+03  0.57062909851E+01 0.  0.
         13    1    3    3    0    0 -0.44847288624E+00 -0.95317548923E+00 -0.42703322227E+02  0.42716313051E+02  0.00000000000E+00 0.  1.
          3    1    3    3  501    0 -0.18885895584E+02 -0.36651886693E+02 -0.72098352856E+03  0.72216153754E+03  0.00000000000E+00 0.  1.
         -3    1    1    2    0  502  0.19334368470E+02  0.37605062182E+02 -0.23382135674E+03  0.23761394188E+03  0.00000000000E+00 0. -1.
<mgrwt>
<rscale>  1 0.30000000E+03</rscale>
<asrwt>0</asrwt>
<pdfrwt beam="1">  1       21 0.90610826E-02 0.30000000E+03</pdfrwt>
<pdfrwt beam="2">0</pdfrwt>
<totfact> 0.10254427E+04</totfact>
</mgrwt>
</event>
<event>
 6    1  0.1280499E-001  0.3000000E+03  0.7818608E-02  0.1093470E+00
         21   -1    0    0  501  502  0.00000000000E+00  0.00000000000E+00  0.23109648002E+01  0.23109648002E+01  0.00000000000E+00 0. -1.
         13   -1    0    0    0    0 -0.00000000000E+00 -0.00000000000E+00 -0.10000000000E+04  0.10000000000E+04  0.00000000000E+00 0.  1.
    9000005    2    1    2  501    0 -0.32104785887E+02  0.21309561587E+02 -0.79802067231E+03  0.79895838963E+03  0.35637373361E+01 0.  0.
         13    1    3    3    0    0 -0.19531518086E+02  0.14514312468E+02 -0.47889428611E+03  0.47951212991E+03  0.00000000000E+00 0.  1.
          1    1    3    3  501    0 -0.12573267802E+02  0.67952491194E+01 -0.31912638620E+03  0.31944625971E+03  0.00000000000E+00 0.  1.
         -3    1    1    2    0  502  0.32104785887E+02 -0.21309561587E+02 -0.19966836289E+03  0.20335257518E+03  0.00000000000E+00 0. -1.
<mgrwt>
<rscale>  1 0.30000000E+03</rscale>
<asrwt>0</asrwt>
<pdfrwt beam="1">  1       21 0.84035261E-02 0.30000000E+03</pdfrwt>
<pdfrwt beam="2">0</pdfrwt>
<totfact> 0.11714607E+04</totfact>
</mgrwt>
</event>
<event>
 6    1  0.1280499E-001  0.3000000E+03  0.7818608E-02  0.1093470E+00
         21   -1    0    0  501  502  0.00000000000E+00  0.00000000000E+00  0.18377360572E+01  0.18377360572E+01  0.00000000000E+00 0. -1.
         13   -1    0    0    0    0 -0.00000000000E+00 -0.00000000000E+00 -0.10000000000E+04  0.10000000000E+04  0.00000000000E+00 0.  1.
    9000005    2    1    2  501    0  0.30317426430E+02  0.19194713087E+02 -0.77268643682E+03  0.77352450391E+03  0.28714371033E+01 0.  0.
         13    1    3    3    0    0  0.24665229429E+02  0.15126954382E+02 -0.59872981911E+03  0.59942855669E+03  0.00000000000E+00 0.  1.
          1    1    3    3  501    0  0.56521970009E+01  0.40677587048E+01 -0.17395661771E+03  0.17409594722E+03  0.00000000000E+00 0.  1.
         -3    1    1    2    0  502 -0.30317426430E+02 -0.19194713087E+02 -0.22547582712E+03  0.22831323215E+03  0.00000000000E+00 0. -1.
<mgrwt>
<rscale>  1 0.30000000E+03</rscale>
<asrwt>0</asrwt>
<pdfrwt beam="1">  1       21 0.66826907E-02 0.30000000E+03</pdfrwt>
<pdfrwt beam="2">0</pdfrwt>
<totfact> 0.17489480E+04</totfact>
</mgrwt>
</event>
<event>
 6    1  0.1280499E-001  0.3000000E+03  0.7818608E-02  0.1093470E+00
         21   -1    0    0  501  502  0.00000000000E+00  0.00000000000E+00  0.26238896650E+01  0.26238896650E+01  0.00000000000E+00 0. -1.
         13   -1    0    0    0    0 -0.00000000000E+00 -0.00000000000E+00 -0.10000000000E+04  0.10000000000E+04  0.00000000000E+00 0.  1.
    9000005    2    1    2  501    0 -0.29516195579E+02 -0.81626108763E+01 -0.98100838203E+02  0.10282732983E+03  0.34425697730E+01 0.  0.
         13    1    3    3    0    0 -0.15339619828E+01 -0.31596616785E+00 -0.81246185667E+01  0.82741948755E+01  0.00000000000E+00 0.  1.
          3    1    3    3  501    0 -0.27982233596E+02 -0.78466447085E+01 -0.89976219636E+02  0.94553134957E+02  0.00000000000E+00 0.  1.
         -3    1    1    2    0  502  0.29516195579E+02  0.81626108763E+01 -0.89927527213E+03  0.89979655983E+03  0.00000000000E+00 0. -1.
<mgrwt>
<rscale>  1 0.30000000E+03</rscale>
<asrwt>0</asrwt>
<pdfrwt beam="1">  1       21 0.95414371E-02 0.30000000E+03</pdfrwt>
<pdfrwt beam="2">0</pdfrwt>
<totfact> 0.93548953E+03</totfact>
</mgrwt>
</event>
<event>
 6    1  0.1280499E-001  0.3000000E+03  0.7818608E-02  0.1093470E+00
         21   -1    0    0  501  502  0.00000000000E+00  0.00000000000E+00  0.69366075845E+01  0.69366075845E+01  0.00000000000E+00 0. -1.
         13   -1    0    0    0    0 -0.00000000000E+00 -0.00000000000E+00 -0.10000000000E+04  0.10000000000E+04  0.00000000000E+00 0.  1.
    9000005    2    1    2  501    0  0.56773312415E+02 -0.77723879176E+01 -0.86182710630E+03  0.86373541412E+03  0.30472010474E+01 0.  0.
         13    1    3    3    0    0  0.19371459550E+02 -0.31022802478E+01 -0.31606721451E+03  0.31667548323E+03  0.00000000000E+00 0.  1.
          3    1    3    3  501    0  0.37401852865E+02 -0.46701076698E+01 -0.54575989179E+03  0.54705993089E+03  0.00000000000E+00 0.  1.
         -3    1    1    2    0  502 -0.56773312415E+02  0.77723879176E+01 -0.13123628612E+03  0.14320119347E+03  0.00000000000E+00 0. -1.
<mgrwt>
<rscale>  1 0.30000000E+03</rscale>
<asrwt>0</asrwt>
<pdfrwt beam="1">  1       21 0.25224081E-01 0.30000000E+03</pdfrwt>
<pdfrwt beam="2">0</pdfrwt>
<totfact> 0.15325766E+03</totfact>
</mgrwt>
</event>
<event>
 6    1  0.1280499E-001  0.3000000E+03  0.7818608E-02  0.1093470E+00
         21   -1    0    0  501  502  0.00000000000E+00  0.00000000000E+00  0.20656975513E+01  0.20656975513E+01  0.00000000000E+00 0. -1.
         13   -1    0    0    0    0 -0.00000000000E+00 -0.00000000000E+00 -0.10000000000E+04  0.10000000000E+04  0.00000000000E+00 0.  1.
    9000005    2    1    2  501    0  0.23844210817E+02 -0.33507048242E+02 -0.70817212483E+03  0.70939969637E+03  0.69930069788E+01 0.  0.
         13    1    3    3    0    0  0.21654494768E+01 -0.82057316838E+00 -0.26915187127E+02  0.27014622149E+02  0.00000000000E+00 0.  1.
          1    1    3    3  501    0  0.21678761340E+02 -0.32686475074E+02 -0.68125693771E+03  0.68238507422E+03  0.00000000000E+00 0.  1.
         -3    1    1    2    0  502 -0.23844210817E+02  0.33507048242E+02 -0.28976217762E+03  0.29266600118E+03  0.00000000000E+00 0. -1.
<mgrwt>
<rscale>  1 0.30000000E+03</rscale>
<asrwt>0</asrwt>
<pdfrwt beam="1">  1       21 0.75116433E-02 0.30000000E+03</pdfrwt>
<pdfrwt beam="2">0</pdfrwt>
<totfact> 0.14265663E+04</totfact>
</mgrwt>
</event>
<event>
 6    1  0.1280499E-001  0.3000000E+03  0.7818608E-02  0.1093470E+00
         21   -1    0    0  501  502  0.00000000000E+00  0.00000000000E+00  0.15438473593E+01  0.15438473593E+01  0.00000000000E+00 0. -1.
         13   -1    0    0    0    0 -0.00000000000E+00 -0.00000000000E+00 -0.10000000000E+04  0.10000000000E+04  0.00000000000E+00 0.  1.
    9000005    2    1    2  501    0  0.36522431457E+02  0.14135852605E+02 -0.53161680527E+03  0.53306472660E+03  0.28044210492E+01 0.  0.
         13    1    3    3    0    0  0.14569177278E+02  0.57081780700E+01 -0.19404839648E+03  0.19467825868E+03  0.00000000000E+00 0.  1.
          1    1    3    3  501    0  0.21953254179E+02  0.84276745354E+01 -0.33756840878E+03  0.33838646792E+03  0.00000000000E+00 0.  1.
         -3    1    1    2    0  502 -0.36522431457E+02 -0.14135852605E+02 -0.46683934737E+03  0.46847912076E+03  0.00000000000E+00 0. -1.
<mgrwt>
<rscale>  1 0.30000000E+03</rscale>
<asrwt>0</asrwt>
<pdfrwt beam="1">  1       21 0.56140022E-02 0.30000000E+03</pdfrwt>
<pdfrwt beam="2">0</pdfrwt>
<totfact> 0.23627520E+04</totfact>
</mgrwt>
</event>
<event>
 6    1  0.1280499E-001  0.3000000E+03  0.7818608E-02  0.1093470E+00
         21   -1    0    0  501  502  0.00000000000E+00  0.00000000000E+00  0.27917917948E+01  0.27917917948E+01  0.00000000000E+00 0. -1.
         13   -1    0    0    0    0 -0.00000000000E+00 -0.00000000000E+00 -0.10000000000E+04  0.10000000000E+04  0.00000000000E+00 0.  1.
    9000005    2    1    2  501    0 -0.50260070978E+02  0.28580595100E+01 -0.64985435907E+03  0.65180897206E+03  0.31630394625E+01 0.  0.
         13    1    3    3    0    0 -0.19459482662E+02  0.18773770165E+00 -0.23523891614E+03  0.23604248426E+03  0.00000000000E+00 0.  1.
          1    1    3    3  501    0 -0.30800588316E+02  0.26703218083E+01 -0.41461544293E+03  0.41576648780E+03  0.00000000000E+00 0.  1.
         -1    1    1    2    0  502  0.50260070978E+02 -0.28580595100E+01 -0.34735384914E+03  0.35098281974E+03  0.00000000000E+00 0. -1.
<mgrwt>
<rscale>  1 0.30000000E+03</rscale>
<asrwt>0</asrwt>
<pdfrwt beam="1">  1       21 0.10151992E-01 0.30000000E+03</pdfrwt>
<pdfrwt beam="2">0</pdfrwt>
<totfact> 0.83743004E+03</totfact>
</mgrwt>
</event>
<event>
 6    1  0.1280499E-001  0.3000000E+03  0.7818608E-02  0.1093470E+00
         21   -1    0    0  501  502  0.00000000000E+00  0.00000000000E+00  0.16313759896E+01  0.16313759896E+01  0.00000000000E+00 0. -1.
         13   -1    0    0    0    0 -0.00000000000E+00 -0.00000000000E+00 -0.10000000000E+04  0.10000000000E+04  0.00000000000E+00 0.  1.
    9000005    2    1    2  501    0  0.18346437300E+02  0.35793448343E+02 -0.52807162388E+03  0.52961757212E+03  0.41677393976E+01 0.  0.
         13    1    3    3    0    0  0.15291234786E+02  0.32068593559E+02 -0.45252178654E+03  0.45391429130E+03  0.00000000000E+00 0.  1.
          1    1    3    3  501    0  0.30552025138E+01  0.37248547840E+01 -0.75549837338E+02  0.75703280823E+02  0.00000000000E+00 0.  1.
         -3    1    1    2    0  502 -0.18346437300E+02 -0.35793448343E+02 -0.47029700013E+03  0.47201380387E+03  0.00000000000E+00 0. -1.
<mgrwt>
<rscale>  1 0.30000000E+03</rscale>
<asrwt>0</asrwt>
<pdfrwt beam="1">  1       21 0.59322888E-02 0.30000000E+03</pdfrwt>
<pdfrwt beam="2">0</pdfrwt>
<totfact> 0.21488083E+04</totfact>
</mgrwt>
</event>
<event>
 6    1  0.1280499E-001  0.3000000E+03  0.7818608E-02  0.1093470E+00
         21   -1    0    0  501  502  0.00000000000E+00  0.00000000000E+00  0.22514813073E+01  0.22514813073E+01  0.00000000000E+00 0. -1.
         13   -1    0    0    0    0 -0.00000000000E+00 -0.00000000000E+00 -0.10000000000E+04  0.10000000000E+04  0.00000000000E+00 0.  1.
    9000005    2    1    2  501    0  0.86855691350E+01 -0.39615266730E+02 -0.75839876133E+03  0.75949004528E+03  0.34116320267E+01 0.  0.
         13    1    3    3    0    0  0.14010210253E+01 -0.12028267422E+02 -0.24483688418E+03  0.24513617019E+03  0.00000000000E+00 0.  1.
          1    1    3    3  501    0  0.72845481097E+01 -0.27586999308E+02 -0.51356187715E+03  0.51435387510E+03  0.00000000000E+00 0.  1.
         -1    1    1    2    0  502 -0.86855691350E+01  0.39615266730E+02 -0.23934975736E+03  0.24276143602E+03  0.00000000000E+00 0. -1.
<mgrwt>
<rscale>  1 0.30000000E+03</rscale>
<asrwt>0</asrwt>
<pdfrwt beam="1">  1       21 0.81872220E-02 0.30000000E+03</pdfrwt>
<pdfrwt beam="2">0</pdfrwt>
<totfact> 0.12264901E+04</totfact>
</mgrwt>
</event>
<event>
 6    1  0.1280499E-001  0.3000000E+03  0.7818608E-02  0.1093470E+00
         21   -1    0    0  501  502  0.00000000000E+00  0.00000000000E+00  0.34681768321E+01  0.34681768321E+01  0.00000000000E+00 0. -1.
         13   -1    0    0    0    0 -0.00000000000E+00 -0.00000000000E+00 -0.10000000000E+04  0.10000000000E+04  0.00000000000E+00 0.  1.
    9000005    2    1    2  501    0 -0.38817066646E+02  0.22281185358E+02 -0.82398079599E+03  0.82520692792E+03  0.43480847742E+01 0.  0.
         13    1    3    3    0    0 -0.92037136193E+01  0.38933641236E+01 -0.16000214600E+03  0.16031392127E+03  0.00000000000E+00 0.  1.
          3    1    3    3  501    0 -0.29613353027E+02  0.18387821234E+02 -0.66397864999E+03  0.66489300665E+03  0.00000000000E+00 0.  1.
         -3    1    1    2    0  502  0.38817066646E+02 -0.22281185358E+02 -0.17255102718E+03  0.17826124892E+03  0.00000000000E+00 0. -1.
<mgrwt>
<rscale>  1 0.30000000E+03</rscale>
<asrwt>0</asrwt>
<pdfrwt beam="1">  1       21 0.12611579E-01 0.30000000E+03</pdfrwt>
<pdfrwt beam="2">0</pdfrwt>
<totfact> 0.56612890E+03</totfact>
</mgrwt>
</event>
<event>
 6    1  0.1280499E-001  0.3000000E+03  0.7818608E-02  0.1093470E+00
         21   -1    0    0  501  502  0.00000000000E+00  0.00000000000E+00  0.39973769505E+01  0.39973769505E+01  0.00000000000E+00 0. -1.
         13   -1    0    0    0    0 -0.00000000000E+00 -0.00000000000E+00 -0.10000000000E+04  0.10000000000E+04  0.00000000000E+00 0.  1.
    9000005    2    1    2  501    0  0.23490241721E+02 -0.58112048059E+02 -0.43607238453E+03  0.44056976528E+03  0.37137504397E+01 0.  0.
         13    1    3    3    0    0  0.27207613104E+01 -0.72837732573E+01 -0.46164102749E+02  0.46814317015E+02  0.00000000000E+00 0.  1.
          1    1    3    3  501    0  0.20769480410E+02 -0.50828274802E+02 -0.38990828178E+03  0.39375544826E+03  0.00000000000E+00 0.  1.
         -1    1    1    2    0  502 -0.23490241721E+02  0.58112048059E+02 -0.55993023852E+03  0.56342761167E+03  0.00000000000E+00 0. -1.
<mgrwt>
<rscale>  1 0.30000000E+03</rscale>
<asrwt>0</asrwt>
<pdfrwt beam="1">  1       21 0.14535947E-01 0.30000000E+03</pdfrwt>
<pdfrwt beam="2">0</pdfrwt>
<totfact> 0.43642050E+03</totfact>
</mgrwt>
</event>
<event>
 6    1  0.1280499E-001  0.3000000E+03  0.7818608E-02  0.1093470E+00
         21   -1    0    0  501  502  0.00000000000E+00  0.00000000000E+00  0.15513613775E+01  0.15513613775E+01  0.00000000000E+00 0. -1.
         13   -1    0    0    0    0 -0.00000000000E+00 -0.00000000000E+00 -0.10000000000E+04  0.10000000000E+04  0.00000000000E+00 0.  1.
    9000005    2    1    2  501    0 -0.38944132625E+02  0.76183531408E+00 -0.43182582633E+03  0.43359129476E+03  0.32620161478E+01 0.  0.
         13    1    3    3    0    0 -0.34755384051E+02  0.20012012009E+00 -0.37414520080E+03  0.37575604859E+03  0.00000000000E+00 0.  1.
          3    1    3    3  501    0 -0.41887485742E+01  0.56171519399E+00 -0.57680625523E+02  0.57835246168E+02  0.00000000000E+00 0.  1.
         -1    1    1    2    0  502  0.38944132625E+02 -0.76183531408E+00 -0.56662281229E+03  0.56796006662E+03  0.00000000000E+00 0. -1.
<mgrwt>
<rscale>  1 0.30000000E+03</rscale>
<asrwt>0</asrwt>
<pdfrwt beam="1">  1       21 0.56413260E-02 0.30000000E+03</pdfrwt>
<pdfrwt beam="2">0</pdfrwt>
<totfact> 0.23431287E+04</totfact>
</mgrwt>
</event>
<event>
 6    1  0.1280499E-001  0.3000000E+03  0.7818608E-02  0.1093470E+00
         21   -1    0    0  501  502  0.00000000000E+00  0.00000000000E+00  0.34624705018E+01  0.34624705018E+01  0.00000000000E+00 0. -1.
         13   -1    0    0    0    0 -0.00000000000E+00 -0.00000000000E+00 -0.10000000000E+04  0.10000000000E+04  0.00000000000E+00 0.  1.
    9000005    2    1    2  501    0 -0.28963831540E+02  0.18829364570E+02 -0.90433579184E+03  0.90500126528E+03  0.32584103227E+01 0.  0.
         13    1    3    3    0    0 -0.82423231588E+01  0.39828504968E+01 -0.21729071995E+03  0.21748346136E+03  0.00000000000E+00 0.  1.
          1    1    3    3  501    0 -0.20721508382E+02  0.14846514073E+02 -0.68704507189E+03  0.68751780391E+03  0.00000000000E+00 0.  1.
         -1    1    1    2    0  502  0.28963831540E+02 -0.18829364570E+02 -0.92201737656E+02  0.98461205225E+02  0.00000000000E+00 0. -1.
<mgrwt>
<rscale>  1 0.30000000E+03</rscale>
<asrwt>0</asrwt>
<pdfrwt beam="1">  1       21 0.12590828E-01 0.30000000E+03</pdfrwt>
<pdfrwt beam="2">0</pdfrwt>
<totfact> 0.56783027E+03</totfact>
</mgrwt>
</event>
<event>
 6    1  0.1280499E-001  0.3000000E+03  0.7818608E-02  0.1093470E+00
         21   -1    0    0  501  502  0.00000000000E+00  0.00000000000E+00  0.14168479505E+02  0.14168479505E+02  0.00000000000E+00 0. -1.
         13   -1    0    0    0    0 -0.00000000000E+00 -0.00000000000E+00 -0.10000000000E+04  0.10000000000E+04  0.00000000000E+00 0.  1.
    9000005    2    1    2  501    0 -0.16861451326E+02 -0.89689829525E+02 -0.81843259388E+03  0.82350916373E+03  0.26187698236E+01 0.  0.
         13    1    3    3    0    0 -0.72074538487E+01 -0.31899324078E+02 -0.28956417135E+03  0.29140508506E+03  0.00000000000E+00 0.  1.
          1    1    3    3  501    0 -0.96539974777E+01 -0.57790505446E+02 -0.52886842253E+03  0.53210407867E+03  0.00000000000E+00 0.  1.
         -1    1    1    2    0  502  0.16861451326E+02  0.89689829525E+02 -0.16739892661E+03  0.19065931578E+03  0.00000000000E+00 0. -1.
<mgrwt>
<rscale>  1 0.30000000E+03</rscale>
<asrwt>0</asrwt>
<pdfrwt beam="1">  1       21 0.51521852E-01 0.30000000E+03</pdfrwt>
<pdfrwt beam="2">0</pdfrwt>
<totfact> 0.35200443E+02</totfact>
</mgrwt>
</event>
<event>
 6    1  0.1280499E-001  0.3000000E+03  0.7818608E-02  0.1093470E+00
         21   -1    0    0  501  502  0.00000000000E+00  0.00000000000E+00  0.21180273624E+01  0.21180273624E+01  0.00000000000E+00 0. -1.
         13   -1    0    0    0    0 -0.00000000000E+00 -0.00000000000E+00 -0.10000000000E+04  0.10000000000E+04  0.00000000000E+00 0.  1.
    9000005    2    1    2  501    0 -0.38020156870E+02  0.11283707284E+02 -0.75262391072E+03  0.75367412763E+03  0.30141820461E+01 0.  0.
         13    1    3    3    0    0 -0.22898125904E+02  0.72566675773E+01 -0.42867686248E+03  0.42934931679E+03  0.00000000000E+00 0.  1.
          3    1    3    3  501    0 -0.15122030966E+02  0.40270397069E+01 -0.32394704824E+03  0.32432481085E+03  0.00000000000E+00 0.  1.
         -1    1    1    2    0  502  0.38020156870E+02 -0.11283707284E+02 -0.24525806192E+03  0.24844389973E+03  0.00000000000E+00 0. -1.
<mgrwt>
<rscale>  1 0.30000000E+03</rscale>
<asrwt>0</asrwt>
<pdfrwt beam="1">  1       21 0.77019339E-02 0.30000000E+03</pdfrwt>
<pdfrwt beam="2">0</pdfrwt>
<totfact> 0.13653916E+04</totfact>
</mgrwt>
</event>
<event>
 6    1  0.1280499E-001  0.3000000E+03  0.7818608E-02  0.1093470E+00
         21   -1    0    0  501  502  0.00000000000E+00  0.00000000000E+00  0.12955989517E+01  0.12955989517E+01  0.00000000000E+00 0. -1.
         13   -1    0    0    0    0 -0.00000000000E+00 -0.00000000000E+00 -0.10000000000E+04  0.10000000000E+04  0.00000000000E+00 0.  1.
    9000005    2    1    2  501    0  0.26606872664E+02  0.21935388362E+02 -0.35983182620E+03  0.36149308737E+03  0.30367964890E+01 0.  0.
         13    1    3    3    0    0  0.10888695808E+02  0.72903417494E+01 -0.14360665180E+03  0.14420327049E+03  0.00000000000E+00 0.  1.
          3    1    3    3  501    0  0.15718176856E+02  0.14645046613E+02 -0.21622517440E+03  0.21728981688E+03  0.00000000000E+00 0.  1.
         -3    1    1    2    0  502 -0.26606872664E+02 -0.21935388362E+02 -0.63887257484E+03  0.63980251158E+03  0.00000000000E+00 0. -1.
<mgrwt>
<rscale>  1 0.30000000E+03</rscale>
<asrwt>0</asrwt>
<pdfrwt beam="1">  1       21 0.47112789E-02 0.30000000E+03</pdfrwt>
<pdfrwt beam="2">0</pdfrwt>
<totfact> 0.31874167E+04</totfact>
</mgrwt>
</event>
<event>
 6    1  0.1280499E-001  0.3000000E+03  0.7818608E-02  0.1093470E+00
         21   -1    0    0  501  502  0.00000000000E+00  0.00000000000E+00  0.20432529342E+01  0.20432529342E+01  0.00000000000E+00 0. -1.
         13   -1    0    0    0    0 -0.00000000000E+00 -0.00000000000E+00 -0.10000000000E+04  0.10000000000E+04  0.00000000000E+00 0.  1.
    9000005    2    1    2  501    0  0.18274702986E+00 -0.43080433600E+02 -0.64922002818E+03  0.65065563753E+03  0.31869283652E+01 0.  0.
         13    1    3    3    0    0  0.11526371733E+01 -0.89493461566E+01 -0.12604178380E+03  0.12636435665E+03  0.00000000000E+00 0.  1.
          1    1    3    3  501    0 -0.96989014345E+00 -0.34131087444E+02 -0.52317824438E+03  0.52429128088E+03  0.00000000000E+00 0.  1.
         -3    1    1    2    0  502 -0.18274702986E+00  0.43080433600E+02 -0.34873671889E+03  0.35138761540E+03  0.00000000000E+00 0. -1.
<mgrwt>
<rscale>  1 0.30000000E+03</rscale>
<asrwt>0</asrwt>
<pdfrwt beam="1">  1       21 0.74300263E-02 0.30000000E+03</pdfrwt>
<pdfrwt beam="2">0</pdfrwt>
<totfact> 0.14541109E+04</totfact>
</mgrwt>
</event>
<event>
 6    1  0.1280499E-001  0.3000000E+03  0.7818608E-02  0.1093470E+00
         21   -1    0    0  501  502  0.00000000000E+00  0.00000000000E+00  0.28937298521E+01  0.28937298521E+01  0.00000000000E+00 0. -1.
         13   -1    0    0    0    0 -0.00000000000E+00 -0.00000000000E+00 -0.10000000000E+04  0.10000000000E+04  0.00000000000E+00 0.  1.
    9000005    2    1    2  501    0  0.33336265891E+02 -0.34052515254E+02 -0.72956933029E+03  0.73114587870E+03  0.56575452034E+01 0.  0.
         13    1    3    3    0    0  0.21398623147E+00 -0.11725830183E+00 -0.16365115071E+02  0.16366934072E+02  0.00000000000E+00 0.  1.
          3    1    3    3  501    0  0.33122279659E+02 -0.33935256953E+02 -0.71320421522E+03  0.71477894462E+03  0.00000000000E+00 0.  1.
         -3    1    1    2    0  502 -0.33336265891E+02  0.34052515254E+02 -0.26753693986E+03  0.27174785116E+03  0.00000000000E+00 0. -1.
<mgrwt>
<rscale>  1 0.30000000E+03</rscale>
<asrwt>0</asrwt>
<pdfrwt beam="1">  1       21 0.10522676E-01 0.30000000E+03</pdfrwt>
<pdfrwt beam="2">0</pdfrwt>
<totfact> 0.78534375E+03</totfact>
</mgrwt>
</event>
<event>
 6    1  0.1280499E-001  0.3000000E+03  0.7818608E-02  0.1093470E+00
         21   -1    0    0  501  502  0.00000000000E+00  0.00000000000E+00  0.15161062260E+01  0.15161062260E+01  0.00000000000E+00 0. -1.
         13   -1    0    0    0    0 -0.00000000000E+00 -0.00000000000E+00 -0.10000000000E+04  0.10000000000E+04  0.00000000000E+00 0.  1.
    9000005    2    1    2  501    0  0.10049399353E+02  0.32958059022E+02 -0.73142368575E+03  0.73224230730E+03  0.33112583609E+01 0.  0.
         13    1    3    3    0    0  0.74323340075E+01  0.28086616387E+02 -0.62548540021E+03  0.62615979070E+03  0.00000000000E+00 0.  1.
          3    1    3    3  501    0  0.26170653459E+01  0.48714426354E+01 -0.10593828554E+03  0.10608251660E+03  0.00000000000E+00 0.  1.
         -1    1    1    2    0  502 -0.10049399353E+02 -0.32958059022E+02 -0.26706020802E+03  0.26927379893E+03  0.00000000000E+00 0. -1.
<mgrwt>
<rscale>  1 0.30000000E+03</rscale>
<asrwt>0</asrwt>
<pdfrwt beam="1">  1       21 0.55131252E-02 0.30000000E+03</pdfrwt>
<pdfrwt beam="2">0</pdfrwt>
<totfact> 0.24374318E+04</totfact>
</mgrwt>
</event>
<event>
 6    1  0.1280499E-001  0.3000000E+03  0.7818608E-02  0.1093470E+00
         21   -1    0    0  501  502  0.00000000000E+00  0.00000000000E+00  0.54000164655E+01  0.54000164655E+01  0.00000000000E+00 0. -1.
         13   -1    0    0    0    0 -0.00000000000E+00 -0.00000000000E+00 -0.10000000000E+04  0.10000000000E+04  0.00000000000E+00 0.  1.
    9000005    2    1    2  501    0  0.59944766323E+02 -0.29100709928E+02 -0.70873487157E+03  0.71187133207E+03  0.39305098466E+01 0.  0.
         13    1    3    3    0    0  0.34644827078E+02 -0.18960292246E+02 -0.42084262199E+03  0.42269169522E+03  0.00000000000E+00 0.  1.
          3    1    3    3  501    0  0.25299939246E+02 -0.10140417682E+02 -0.28789224959E+03  0.28917963685E+03  0.00000000000E+00 0.  1.
         -3    1    1    2    0  502 -0.59944766323E+02  0.29100709928E+02 -0.28586511196E+03  0.29352868440E+03  0.00000000000E+00 0. -1.
<mgrwt>
<rscale>  1 0.30000000E+03</rscale>
<asrwt>0</asrwt>
<pdfrwt beam="1">  1       21 0.19636465E-01 0.30000000E+03</pdfrwt>
<pdfrwt beam="2">0</pdfrwt>
<totfact> 0.24846099E+03</totfact>
</mgrwt>
</event>
<event>
 6    1  0.1280499E-001  0.3000000E+03  0.7818608E-02  0.1093470E+00
         21   -1    0    0  501  502  0.00000000000E+00  0.00000000000E+00  0.23623960382E+01  0.23623960382E+01  0.00000000000E+00 0. -1.
         13   -1    0    0    0    0 -0.00000000000E+00 -0.00000000000E+00 -0.10000000000E+04  0.10000000000E+04  0.00000000000E+00 0.  1.
    9000005    2    1    2  501    0 -0.12278508558E+02 -0.44375683690E+02 -0.65479681515E+03  0.65644366346E+03  0.62810103547E+01 0.  0.
         13    1    3    3    0    0 -0.61252183296E+01 -0.13559491989E+02 -0.18532648511E+03  0.18592279098E+03  0.00000000000E+00 0.  1.
          1    1    3    3  501    0 -0.61532902283E+01 -0.30816191700E+02 -0.46947033004E+03  0.47052087248E+03  0.00000000000E+00 0.  1.
         -3    1    1    2    0  502  0.12278508558E+02  0.44375683690E+02 -0.34284078882E+03  0.34591873258E+03  0.00000000000E+00 0. -1.
<mgrwt>
<rscale>  1 0.30000000E+03</rscale>
<asrwt>0</asrwt>
<pdfrwt beam="1">  1       21 0.85905492E-02 0.30000000E+03</pdfrwt>
<pdfrwt beam="2">0</pdfrwt>
<totfact> 0.11268637E+04</totfact>
</mgrwt>
</event>
<event>
 6    1  0.1280499E-001  0.3000000E+03  0.7818608E-02  0.1093470E+00
         21   -1    0    0  501  502  0.00000000000E+00  0.00000000000E+00  0.38278258264E+01  0.38278258264E+01  0.00000000000E+00 0. -1.
         13   -1    0    0    0    0 -0.00000000000E+00 -0.00000000000E+00 -0.10000000000E+04  0.10000000000E+04  0.00000000000E+00 0.  1.
    9000005    2    1    2  501    0  0.22727399290E+02 -0.46374622133E+02 -0.77413787832E+03  0.77586649404E+03  0.34959492672E+01 0.  0.
         13    1    3    3    0    0  0.62522171879E+01 -0.95083429747E+01 -0.17349049325E+03  0.17386330853E+03  0.00000000000E+00 0.  1.
          3    1    3    3  501    0  0.16475182102E+02 -0.36866279158E+02 -0.60064738508E+03  0.60200318551E+03  0.00000000000E+00 0.  1.
         -1    1    1    2    0  502 -0.22727399290E+02  0.46374622133E+02 -0.22203429585E+03  0.22796133179E+03  0.00000000000E+00 0. -1.
<mgrwt>
<rscale>  1 0.30000000E+03</rscale>
<asrwt>0</asrwt>
<pdfrwt beam="1">  1       21 0.13919396E-01 0.30000000E+03</pdfrwt>
<pdfrwt beam="2">0</pdfrwt>
<totfact> 0.47265420E+03</totfact>
</mgrwt>
</event>
<event>
 6    1  0.1280499E-001  0.3000000E+03  0.7818608E-02  0.1093470E+00
         21   -1    0    0  501  502  0.00000000000E+00  0.00000000000E+00  0.45093461496E+01  0.45093461496E+01  0.00000000000E+00 0. -1.
         13   -1    0    0    0    0 -0.00000000000E+00 -0.00000000000E+00 -0.10000000000E+04  0.10000000000E+04  0.00000000000E+00 0.  1.
    9000005    2    1    2  501    0  0.15549981322E+02  0.55843824278E+02 -0.75099788821E+03  0.75323848219E+03  0.31699073937E+01 0.  0.
         13    1    3    3    0    0  0.97968465025E+01  0.40386425435E+02 -0.54158437265E+03  0.54317646696E+03  0.00000000000E+00 0.  1.
          3    1    3    3  501    0  0.57531348191E+01  0.15457398844E+02 -0.20941351556E+03  0.21006201522E+03  0.00000000000E+00 0.  1.
         -1    1    1    2    0  502 -0.15549981322E+02 -0.55843824278E+02 -0.24449276564E+03  0.25127086396E+03  0.00000000000E+00 0. -1.
<mgrwt>
<rscale>  1 0.30000000E+03</rscale>
<asrwt>0</asrwt>
<pdfrwt beam="1">  1       21 0.16397657E-01 0.30000000E+03</pdfrwt>
<pdfrwt beam="2">0</pdfrwt>
<totfact> 0.34891454E+03</totfact>
</mgrwt>
</event>
<event>
 6    1  0.1280499E-001  0.3000000E+03  0.7818608E-02  0.1093470E+00
         21   -1    0    0  501  502  0.00000000000E+00  0.00000000000E+00  0.18315999965E+01  0.18315999965E+01  0.00000000000E+00 0. -1.
         13   -1    0    0    0    0 -0.00000000000E+00 -0.00000000000E+00 -0.10000000000E+04  0.10000000000E+04  0.00000000000E+00 0.  1.
    9000005    2    1    2  501    0 -0.13933464805E+02  0.34261541697E+02 -0.75033595588E+03  0.75125443615E+03  0.33446178442E+01 0.  0.
         13    1    3    3    0    0 -0.53363813074E+01  0.12291071083E+02 -0.30450583339E+03  0.30480050847E+03  0.00000000000E+00 0.  1.
          3    1    3    3  501    0 -0.85970834973E+01  0.21970470614E+02 -0.44583012249E+03  0.44645392769E+03  0.00000000000E+00 0.  1.
         -3    1    1    2    0  502  0.13933464805E+02 -0.34261541697E+02 -0.24783244412E+03  0.25057716384E+03  0.00000000000E+00 0. -1.
<mgrwt>
<rscale>  1 0.30000000E+03</rscale>
<asrwt>0</asrwt>
<pdfrwt beam="1">  1       21 0.66603777E-02 0.30000000E+03</pdfrwt>
<pdfrwt beam="2">0</pdfrwt>
<totfact> 0.17591215E+04</totfact>
</mgrwt>
</event>
<event>
 6    1  0.1280499E-001  0.3000000E+03  0.7818608E-02  0.1093470E+00
         21   -1    0    0  501  502  0.00000000000E+00  0.00000000000E+00  0.18956365161E+01  0.18956365161E+01  0.00000000000E+00 0. -1.
         13   -1    0    0    0    0 -0.00000000000E+00 -0.00000000000E+00 -0.10000000000E+04  0.10000000000E+04  0.00000000000E+00 0.  1.
    9000005    2    1    2  501    0  0.28590447503E+02 -0.27394078561E+02 -0.70573658096E+03  0.70685874138E+03  0.41604499153E+01 0.  0.
         13    1    3    3    0    0  0.14713111462E+02 -0.16912559101E+02 -0.39110479857E+03  0.39174669592E+03  0.00000000000E+00 0.  1.
          1    1    3    3  501    0  0.13877336041E+02 -0.10481519460E+02 -0.31463178239E+03  0.31511204546E+03  0.00000000000E+00 0.  1.
         -1    1    1    2    0  502 -0.28590447503E+02  0.27394078561E+02 -0.29236778253E+03  0.29503689513E+03  0.00000000000E+00 0. -1.
<mgrwt>
<rscale>  1 0.30000000E+03</rscale>
<asrwt>0</asrwt>
<pdfrwt beam="1">  1       21 0.68932382E-02 0.30000000E+03</pdfrwt>
<pdfrwt beam="2">0</pdfrwt>
<totfact> 0.16572419E+04</totfact>
</mgrwt>
</event>
<event>
 6    1  0.1280499E-001  0.3000000E+03  0.7818608E-02  0.1093470E+00
         21   -1    0    0  501  502  0.00000000000E+00  0.00000000000E+00  0.94438246790E+00  0.94438246790E+00  0.00000000000E+00 0. -1.
         13   -1    0    0    0    0 -0.00000000000E+00 -0.00000000000E+00 -0.10000000000E+04  0.10000000000E+04  0.00000000000E+00 0.  1.
    9000005    2    1    2  501    0  0.26776008242E+02  0.14589231947E+02 -0.54951365091E+03  0.55036943858E+03  0.33861599197E+01 0.  0.
         13    1    3    3    0    0  0.12559464511E+02  0.49932670722E+01 -0.23444643696E+03  0.23483569718E+03  0.00000000000E+00 0.  1.
          3    1    3    3  501    0  0.14216543731E+02  0.95959648747E+01 -0.31506721394E+03  0.31553374140E+03  0.00000000000E+00 0.  1.
         -1    1    1    2    0  502 -0.26776008242E+02 -0.14589231947E+02 -0.44954196662E+03  0.45057494389E+03  0.00000000000E+00 0. -1.
<mgrwt>
<rscale>  1 0.30000000E+03</rscale>
<asrwt>0</asrwt>
<pdfrwt beam="1">  1       21 0.34341253E-02 0.30000000E+03</pdfrwt>
<pdfrwt beam="2">0</pdfrwt>
<totfact> 0.54316614E+04</totfact>
</mgrwt>
</event>
<event>
 6    1  0.1280499E-001  0.3000000E+03  0.7818608E-02  0.1093470E+00
         21   -1    0    0  501  502  0.00000000000E+00  0.00000000000E+00  0.24343272565E+01  0.24343272565E+01  0.00000000000E+00 0. -1.
         13   -1    0    0    0    0 -0.00000000000E+00 -0.00000000000E+00 -0.10000000000E+04  0.10000000000E+04  0.00000000000E+00 0.  1.
    9000005    2    1    2  501    0  0.44196675992E+02  0.75534624475E+01 -0.29131834382E+03  0.29476513153E+03  0.31151818861E+01 0.  0.
         13    1    3    3    0    0  0.26155922189E+02  0.42175676803E+01 -0.18191291858E+03  0.18383207035E+03  0.00000000000E+00 0.  1.
          3    1    3    3  501    0  0.18040753803E+02  0.33358947672E+01 -0.10940542524E+03  0.11093306118E+03  0.00000000000E+00 0.  1.
         -3    1    1    2    0  502 -0.44196675992E+02 -0.75534624475E+01 -0.70624732893E+03  0.70766919572E+03  0.00000000000E+00 0. -1.
<mgrwt>
<rscale>  1 0.30000000E+03</rscale>
<asrwt>0</asrwt>
<pdfrwt beam="1">  1       21 0.88521178E-02 0.30000000E+03</pdfrwt>
<pdfrwt beam="2">0</pdfrwt>
<totfact> 0.10686996E+04</totfact>
</mgrwt>
</event>
<event>
 6    1  0.1280499E-001  0.3000000E+03  0.7818608E-02  0.1093470E+00
         21   -1    0    0  501  502  0.00000000000E+00  0.00000000000E+00  0.97678033563E+00  0.97678033563E+00  0.00000000000E+00 0. -1.
         13   -1    0    0    0    0 -0.00000000000E+00 -0.00000000000E+00 -0.10000000000E+04  0.10000000000E+04  0.00000000000E+00 0.  1.
    9000005    2    1    2  501    0  0.45993963564E+01  0.30292673386E+02 -0.55214359782E+03  0.55304799478E+03  0.77930360684E+01 0.  0.
         13    1    3    3    0    0  0.61532532729E+01  0.14933952302E+02 -0.27103422686E+03  0.27151507801E+03  0.00000000000E+00 0.  1.
          3    1    3    3  501    0 -0.15538569165E+01  0.15358721084E+02 -0.28110937096E+03  0.28153291677E+03  0.00000000000E+00 0.  1.
         -1    1    1    2    0  502 -0.45993963564E+01 -0.30292673386E+02 -0.44687962185E+03  0.44792878556E+03  0.00000000000E+00 0. -1.
<mgrwt>
<rscale>  1 0.30000000E+03</rscale>
<asrwt>0</asrwt>
<pdfrwt beam="1">  1       21 0.35519360E-02 0.30000000E+03</pdfrwt>
<pdfrwt beam="2">0</pdfrwt>
<totfact> 0.51334215E+04</totfact>
</mgrwt>
</event>
<event>
 6    1  0.1280499E-001  0.3000000E+03  0.7818608E-02  0.1093470E+00
         21   -1    0    0  501  502  0.00000000000E+00  0.00000000000E+00  0.23225501608E+01  0.23225501608E+01  0.00000000000E+00 0. -1.
         13   -1    0    0    0    0 -0.00000000000E+00 -0.00000000000E+00 -0.10000000000E+04  0.10000000000E+04  0.00000000000E+00 0.  1.
    9000005    2    1    2  501    0  0.15858177214E+02 -0.39377475100E+02 -0.73555241528E+03  0.73678234403E+03  0.29663983125E+01 0.  0.
         13    1    3    3    0    0  0.15398101363E+02 -0.36227895993E+02 -0.68389200558E+03  0.68502396839E+03  0.00000000000E+00 0.  1.
          1    1    3    3  501    0  0.46007585092E+00 -0.31495791074E+01 -0.51660409699E+02  0.51758375638E+02  0.00000000000E+00 0.  1.
         -1    1    1    2    0  502 -0.15858177214E+02  0.39377475100E+02 -0.26212503456E+03  0.26554020614E+03  0.00000000000E+00 0. -1.
<mgrwt>
<rscale>  1 0.30000000E+03</rscale>
<asrwt>0</asrwt>
<pdfrwt beam="1">  1       21 0.84456548E-02 0.30000000E+03</pdfrwt>
<pdfrwt beam="2">0</pdfrwt>
<totfact> 0.11611826E+04</totfact>
</mgrwt>
</event>
<event>
 6    1  0.1280499E-001  0.3000000E+03  0.7818608E-02  0.1093470E+00
         21   -1    0    0  501  502  0.00000000000E+00  0.00000000000E+00  0.41908224180E+01  0.41908224180E+01  0.00000000000E+00 0. -1.
         13   -1    0    0    0    0 -0.00000000000E+00 -0.00000000000E+00 -0.10000000000E+04  0.10000000000E+04  0.00000000000E+00 0.  1.
    9000005    2    1    2  501    0  0.34195744771E+02  0.47740452321E+02 -0.28763501806E+03  0.29358605184E+03  0.32197009967E+01 0.  0.
         13    1    3    3    0    0  0.25288408701E+02  0.33039064121E+02 -0.20034111157E+03  0.20461584581E+03  0.00000000000E+00 0.  1.
          1    1    3    3  501    0  0.89073360703E+01  0.14701388200E+02 -0.87293906492E+02  0.88970206032E+02  0.00000000000E+00 0.  1.
         -3    1    1    2    0  502 -0.34195744771E+02 -0.47740452321E+02 -0.70817415952E+03  0.71060477058E+03  0.00000000000E+00 0. -1.
<mgrwt>
<rscale>  1 0.30000000E+03</rscale>
<asrwt>0</asrwt>
<pdfrwt beam="1">  1       21 0.15239386E-01 0.30000000E+03</pdfrwt>
<pdfrwt beam="2">0</pdfrwt>
<totfact> 0.39989937E+03</totfact>
</mgrwt>
</event>
<event>
 6    1  0.1280499E-001  0.3000000E+03  0.7818608E-02  0.1093470E+00
         21   -1    0    0  501  502  0.00000000000E+00  0.00000000000E+00  0.10739336231E+01  0.10739336231E+01  0.00000000000E+00 0. -1.
         13   -1    0    0    0    0 -0.00000000000E+00 -0.00000000000E+00 -0.10000000000E+04  0.10000000000E+04  0.00000000000E+00 0.  1.
    9000005    2    1    2  501    0  0.31803083236E+02  0.53967246165E+01 -0.57924362176E+03  0.58015361449E+03  0.38055637846E+01 0.  0.
         13    1    3    3    0    0  0.26621629642E+02  0.43181918843E+01 -0.45653799537E+03  0.45733390336E+03  0.00000000000E+00 0.  1.
          3    1    3    3  501    0  0.51814535935E+01  0.10785327321E+01 -0.12270562639E+03  0.12281971113E+03  0.00000000000E+00 0.  1.
         -3    1    1    2    0  502 -0.31803083236E+02 -0.53967246165E+01 -0.41968244462E+03  0.42092031913E+03  0.00000000000E+00 0. -1.
<mgrwt>
<rscale>  1 0.30000000E+03</rscale>
<asrwt>0</asrwt>
<pdfrwt beam="1">  1       21 0.39052214E-02 0.30000000E+03</pdfrwt>
<pdfrwt beam="2">0</pdfrwt>
<totfact> 0.43779034E+04</totfact>
</mgrwt>
</event>
<event>
 6    1  0.1280499E-001  0.3000000E+03  0.7818608E-02  0.1093470E+00
         21   -1    0    0  501  502  0.00000000000E+00  0.00000000000E+00  0.16601414595E+01  0.16601414595E+01  0.00000000000E+00 0. -1.
         13   -1    0    0    0    0 -0.00000000000E+00 -0.00000000000E+00 -0.10000000000E+04  0.10000000000E+04  0.00000000000E+00 0.  1.
    9000005    2    1    2  501    0  0.19536050884E+02  0.34807100887E+02 -0.40436573847E+03  0.40634640328E+03  0.35436493485E+01 0.  0.
         13    1    3    3    0    0  0.19450555001E+02  0.34532435258E+02 -0.39662132354E+03  0.39859664757E+03  0.00000000000E+00 0.  1.
          1    1    3    3  501    0  0.85495882987E-01  0.27466562902E+00 -0.77444149375E+01  0.77497557044E+01  0.00000000000E+00 0.  1.
         -1    1    1    2    0  502 -0.19536050884E+02 -0.34807100887E+02 -0.59397412007E+03  0.59531373818E+03  0.00000000000E+00 0. -1.
<mgrwt>
<rscale>  1 0.30000000E+03</rscale>
<asrwt>0</asrwt>
<pdfrwt beam="1">  1       21 0.60368908E-02 0.30000000E+03</pdfrwt>
<pdfrwt beam="2">0</pdfrwt>
<totfact> 0.20850054E+04</totfact>
</mgrwt>
</event>
<event>
 6    1  0.1280499E-001  0.3000000E+03  0.7818608E-02  0.1093470E+00
         21   -1    0    0  501  502  0.00000000000E+00  0.00000000000E+00  0.13620998815E+01  0.13620998815E+01  0.00000000000E+00 0. -1.
         13   -1    0    0    0    0 -0.00000000000E+00 -0.00000000000E+00 -0.10000000000E+04  0.10000000000E+04  0.00000000000E+00 0.  1.
    9000005    2    1    2  501    0 -0.81837610254E+01 -0.29443081920E+02 -0.77933348378E+03  0.77993875865E+03  0.31494893563E+01 0.  0.
         13    1    3    3    0    0 -0.20483694254E+01 -0.13145282161E+02 -0.34276977891E+03  0.34302786416E+03  0.00000000000E+00 0.  1.
          1    1    3    3  501    0 -0.61353916001E+01 -0.16297799759E+02 -0.43656370488E+03  0.43691089449E+03  0.00000000000E+00 0.  1.
         -1    1    1    2    0  502  0.81837610254E+01  0.29443081920E+02 -0.21930441634E+03  0.22142334123E+03  0.00000000000E+00 0. -1.
<mgrwt>
<rscale>  1 0.30000000E+03</rscale>
<asrwt>0</asrwt>
<pdfrwt beam="1">  1       21 0.49531009E-02 0.30000000E+03</pdfrwt>
<pdfrwt beam="2">0</pdfrwt>
<totfact> 0.29271045E+04</totfact>
</mgrwt>
</event>
<event>
 6    1  0.1280499E-001  0.3000000E+03  0.7818608E-02  0.1093470E+00
         21   -1    0    0  501  502  0.00000000000E+00  0.00000000000E+00  0.33103001581E+02  0.33103001581E+02  0.00000000000E+00 0. -1.
         13   -1    0    0    0    0 -0.00000000000E+00 -0.00000000000E+00 -0.10000000000E+04  0.10000000000E+04  0.00000000000E+00 0.  1.
    9000005    2    1    2  501    0 -0.10491276891E+03  0.47723894477E+02 -0.88311793893E+03  0.89061373885E+03  0.33583599365E+01 0.  0.
         13    1    3    3    0    0 -0.71165572425E+02  0.34035477439E+02 -0.60713264053E+03  0.61223606200E+03  0.00000000000E+00 0.  1.
          1    1    3    3  501    0 -0.33747196489E+02  0.13688417038E+02 -0.27598529840E+03  0.27837767685E+03  0.00000000000E+00 0.  1.
         -3    1    1    2    0  502  0.10491276891E+03 -0.47723894477E+02 -0.83779059490E+02  0.14248926273E+03  0.00000000000E+00 0. -1.
<mgrwt>
<rscale>  1 0.30000000E+03</rscale>
<asrwt>0</asrwt>
<pdfrwt beam="1">  1       21 0.12037481E+00 0.30000000E+03</pdfrwt>
<pdfrwt beam="2">0</pdfrwt>
<totfact> 0.45011865E+01</totfact>
</mgrwt>
</event>
<event>
 6    1  0.1280499E-001  0.3000000E+03  0.7818608E-02  0.1093470E+00
         21   -1    0    0  501  502  0.00000000000E+00  0.00000000000E+00  0.15600501966E+01  0.15600501966E+01  0.00000000000E+00 0. -1.
         13   -1    0    0    0    0 -0.00000000000E+00 -0.00000000000E+00 -0.10000000000E+04  0.10000000000E+04  0.00000000000E+00 0.  1.
    9000005    2    1    2  501    0 -0.88964290729E+01 -0.33596519125E+02 -0.73609480169E+03  0.73692284705E+03  0.34428026475E+01 0.  0.
         13    1    3    3    0    0 -0.55501962963E+01 -0.26246841877E+02 -0.55457121329E+03  0.55521971506E+03  0.00000000000E+00 0.  1.
          1    1    3    3  501    0 -0.33462327766E+01 -0.73496772486E+01 -0.18152358840E+03  0.18170313199E+03  0.00000000000E+00 0.  1.
         -3    1    1    2    0  502  0.88964290729E+01  0.33596519125E+02 -0.26234514812E+03  0.26463720314E+03  0.00000000000E+00 0. -1.
<mgrwt>
<rscale>  1 0.30000000E+03</rscale>
<asrwt>0</asrwt>
<pdfrwt beam="1">  1       21 0.56729218E-02 0.30000000E+03</pdfrwt>
<pdfrwt beam="2">0</pdfrwt>
<totfact> 0.23207474E+04</totfact>
</mgrwt>
</event>
<event>
 6    1  0.1280499E-001  0.3000000E+03  0.7818608E-02  0.1093470E+00
         21   -1    0    0  501  502  0.00000000000E+00  0.00000000000E+00  0.14996425037E+01  0.14996425037E+01  0.00000000000E+00 0. -1.
         13   -1    0    0    0    0 -0.00000000000E+00 -0.00000000000E+00 -0.10000000000E+04  0.10000000000E+04  0.00000000000E+00 0.  1.
    9000005    2    1    2  501    0 -0.26097725188E+02 -0.18505581237E+02 -0.78048946714E+03  0.78115378684E+03  0.37259323002E+01 0.  0.
         13    1    3    3    0    0 -0.22867333810E+02 -0.14859452916E+02 -0.67912563279E+03  0.67967296799E+03  0.00000000000E+00 0.  1.
          1    1    3    3  501    0 -0.32303913783E+01 -0.36461283214E+01 -0.10136383435E+03  0.10148081885E+03  0.00000000000E+00 0.  1.
         -3    1    1    2    0  502  0.26097725188E+02  0.18505581237E+02 -0.21801089036E+03  0.22034585567E+03  0.00000000000E+00 0. -1.
<mgrwt>
<rscale>  1 0.30000000E+03</rscale>
<asrwt>0</asrwt>
<pdfrwt beam="1">  1       21 0.54532570E-02 0.30000000E+03</pdfrwt>
<pdfrwt beam="2">0</pdfrwt>
<totfact> 0.24834845E+04</totfact>
</mgrwt>
</event>
<event>
 6    1  0.1280499E-001  0.3000000E+03  0.7818608E-02  0.1093470E+00
         21   -1    0    0  501  502  0.00000000000E+00  0.00000000000E+00  0.17031654233E+01  0.17031654233E+01  0.00000000000E+00 0. -1.
         13   -1    0    0    0    0 -0.00000000000E+00 -0.00000000000E+00 -0.10000000000E+04  0.10000000000E+04  0.00000000000E+00 0.  1.
    9000005    2    1    2  501    0  0.18050063572E+02 -0.35765384554E+02 -0.38392099469E+03  0.38602253379E+03  0.36192410197E+01 0.  0.
         13    1    3    3    0    0  0.16314260694E+02 -0.31959070174E+02 -0.35320331387E+03  0.35502129260E+03  0.00000000000E+00 0.  1.
          1    1    3    3  501    0  0.17358028777E+01 -0.38063143806E+01 -0.30717680821E+02  0.31001241198E+02  0.00000000000E+00 0.  1.
         -1    1    1    2    0  502 -0.18050063572E+02  0.35765384554E+02 -0.61437583989E+03  0.61568063163E+03  0.00000000000E+00 0. -1.
<mgrwt>
<rscale>  1 0.30000000E+03</rscale>
<asrwt>0</asrwt>
<pdfrwt beam="1">  1       21 0.61933419E-02 0.30000000E+03</pdfrwt>
<pdfrwt beam="2">0</pdfrwt>
<totfact> 0.19949325E+04</totfact>
</mgrwt>
</event>
<event>
 6    1  0.1280499E-001  0.3000000E+03  0.7818608E-02  0.1093470E+00
         21   -1    0    0  501  502  0.00000000000E+00  0.00000000000E+00  0.21995000727E+01  0.21995000727E+01  0.00000000000E+00 0. -1.
         13   -1    0    0    0    0 -0.00000000000E+00 -0.00000000000E+00 -0.10000000000E+04  0.10000000000E+04  0.00000000000E+00 0.  1.
    9000005    2    1    2  501    0 -0.34346781617E+02  0.91019291650E+01 -0.82586736598E+03  0.82663313351E+03  0.16984376232E+01 0.  0.
         13    1    3    3    0    0 -0.27230568631E+02  0.66467324607E+01 -0.66063798208E+03  0.66123235423E+03  0.00000000000E+00 0.  1.
          3    1    3    3  501    0 -0.71162129860E+01  0.24551967042E+01 -0.16522938391E+03  0.16540077928E+03  0.00000000000E+00 0.  1.
         -3    1    1    2    0  502  0.34346781617E+02 -0.91019291650E+01 -0.17193313394E+03  0.17556636657E+03  0.00000000000E+00 0. -1.
<mgrwt>
<rscale>  1 0.30000000E+03</rscale>
<asrwt>0</asrwt>
<pdfrwt beam="1">  1       21 0.79981989E-02 0.30000000E+03</pdfrwt>
<pdfrwt beam="2">0</pdfrwt>
<totfact> 0.12778921E+04</totfact>
</mgrwt>
</event>
<event>
 6    1  0.1280499E-001  0.3000000E+03  0.7818608E-02  0.1093470E+00
         21   -1    0    0  501  502  0.00000000000E+00  0.00000000000E+00  0.24964562666E+01  0.24964562666E+01  0.00000000000E+00 0. -1.
         13   -1    0    0    0    0 -0.00000000000E+00 -0.00000000000E+00 -0.10000000000E+04  0.10000000000E+04  0.00000000000E+00 0.  1.
    9000005    2    1    2  501    0 -0.43197326920E+02  0.95997545696E+01 -0.73097961818E+03  0.73232397944E+03  0.30073794704E+01 0.  0.
         13    1    3    3    0    0 -0.50912616831E+01  0.15314930804E+00 -0.84520810694E+02  0.84674150959E+02  0.00000000000E+00 0.  1.
          3    1    3    3  501    0 -0.38106065237E+02  0.94466052615E+01 -0.64645880749E+03  0.64764982849E+03  0.00000000000E+00 0.  1.
         -1    1    1    2    0  502  0.43197326920E+02 -0.95997545696E+01 -0.26652392555E+03  0.27017247682E+03  0.00000000000E+00 0. -1.
<mgrwt>
<rscale>  1 0.30000000E+03</rscale>
<asrwt>0</asrwt>
<pdfrwt beam="1">  1       21 0.90780419E-02 0.30000000E+03</pdfrwt>
<pdfrwt beam="2">0</pdfrwt>
<totfact> 0.10220488E+04</totfact>
</mgrwt>
</event>
<event>
 6    1  0.1280499E-001  0.3000000E+03  0.7818608E-02  0.1093470E+00
         21   -1    0    0  501  502  0.00000000000E+00  0.00000000000E+00  0.22102444846E+01  0.22102444846E+01  0.00000000000E+00 0. -1.
         13   -1    0    0    0    0 -0.00000000000E+00 -0.00000000000E+00 -0.10000000000E+04  0.10000000000E+04  0.00000000000E+00 0.  1.
    9000005    2    1    2  501    0 -0.37381112641E+02  0.18441481972E+02 -0.26964045914E+03  0.27286887472E+03  0.37429594731E+01 0.  0.
         13    1    3    3    0    0 -0.20269148632E+02  0.92101698030E+01 -0.15514058496E+03  0.15672991647E+03  0.00000000000E+00 0.  1.
          3    1    3    3  501    0 -0.17111964009E+02  0.92313121690E+01 -0.11449987418E+03  0.11613895825E+03  0.00000000000E+00 0.  1.
         -1    1    1    2    0  502  0.37381112641E+02 -0.18441481972E+02 -0.72814929638E+03  0.72934136977E+03  0.00000000000E+00 0. -1.
<mgrwt>
<rscale>  1 0.30000000E+03</rscale>
<asrwt>0</asrwt>
<pdfrwt beam="1">  1       21 0.80372696E-02 0.30000000E+03</pdfrwt>
<pdfrwt beam="2">0</pdfrwt>
<totfact> 0.12669996E+04</totfact>
</mgrwt>
</event>
<event>
 6    1  0.1280499E-001  0.3000000E+03  0.7818608E-02  0.1093470E+00
         21   -1    0    0  501  502  0.00000000000E+00  0.00000000000E+00  0.11928455301E+01  0.11928455301E+01  0.00000000000E+00 0. -1.
         13   -1    0    0    0    0 -0.00000000000E+00 -0.00000000000E+00 -0.10000000000E+04  0.10000000000E+04  0.00000000000E+00 0.  1.
    9000005    2    1    2  501    0  0.17699768613E+02 -0.27427310599E+02 -0.66022164264E+03  0.66103745751E+03  0.35161982464E+01 0.  0.
         13    1    3    3    0    0  0.16386299630E+02 -0.23399916267E+02 -0.58376289748E+03  0.58446145071E+03  0.00000000000E+00 0.  1.
          1    1    3    3  501    0  0.13134689823E+01 -0.40273943316E+01 -0.76458745163E+02  0.76576006803E+02  0.00000000000E+00 0.  1.
         -3    1    1    2    0  502 -0.17699768613E+02  0.27427310599E+02 -0.33858551183E+03  0.34015538802E+03  0.00000000000E+00 0. -1.
<mgrwt>
<rscale>  1 0.30000000E+03</rscale>
<asrwt>0</asrwt>
<pdfrwt beam="1">  1       21 0.43376293E-02 0.30000000E+03</pdfrwt>
<pdfrwt beam="2">0</pdfrwt>
<totfact> 0.36672200E+04</totfact>
</mgrwt>
</event>
<event>
 6    1  0.1280499E-001  0.3000000E+03  0.7818608E-02  0.1093470E+00
         21   -1    0    0  501  502  0.00000000000E+00  0.00000000000E+00  0.41214400802E+01  0.41214400802E+01  0.00000000000E+00 0. -1.
         13   -1    0    0    0    0 -0.00000000000E+00 -0.00000000000E+00 -0.10000000000E+04  0.10000000000E+04  0.00000000000E+00 0.  1.
    9000005    2    1    2  501    0  0.33274020285E+02 -0.34214659092E+02 -0.83280040563E+03  0.83420296631E+03  0.77633791337E+01 0.  0.
         13    1    3    3    0    0  0.21292577146E+02 -0.25357882543E+02 -0.61801217279E+03  0.61889857147E+03  0.00000000000E+00 0.  1.
          3    1    3    3  501    0  0.11981443139E+02 -0.88567765487E+01 -0.21478823285E+03  0.21530439484E+03  0.00000000000E+00 0.  1.
         -3    1    1    2    0  502 -0.33274020285E+02  0.34214659092E+02 -0.16307815428E+03  0.16991847377E+03  0.00000000000E+00 0. -1.
<mgrwt>
<rscale>  1 0.30000000E+03</rscale>
<asrwt>0</asrwt>
<pdfrwt beam="1">  1       21 0.14987086E-01 0.30000000E+03</pdfrwt>
<pdfrwt beam="2">0</pdfrwt>
<totfact> 0.41246056E+03</totfact>
</mgrwt>
</event>
<event>
 6    1  0.1280499E-001  0.3000000E+03  0.7818608E-02  0.1093470E+00
         21   -1    0    0  501  502  0.00000000000E+00  0.00000000000E+00  0.13018687424E+01  0.13018687424E+01  0.00000000000E+00 0. -1.
         13   -1    0    0    0    0 -0.00000000000E+00 -0.00000000000E+00 -0.10000000000E+04  0.10000000000E+04  0.00000000000E+00 0.  1.
    9000005    2    1    2  501    0  0.10467521428E+02 -0.30044460467E+02 -0.73419361770E+03  0.73489076481E+03  0.34538836678E+01 0.  0.
         13    1    3    3    0    0  0.91589775867E+01 -0.25518872434E+02 -0.65033692497E+03  0.65090184797E+03  0.00000000000E+00 0.  1.
          1    1    3    3  501    0  0.13085438414E+01 -0.45255880331E+01 -0.83856692736E+02  0.83988916832E+02  0.00000000000E+00 0.  1.
         -1    1    1    2    0  502 -0.10467521428E+02  0.30044460467E+02 -0.26450451356E+03  0.26641110394E+03  0.00000000000E+00 0. -1.
<mgrwt>
<rscale>  1 0.30000000E+03</rscale>
<asrwt>0</asrwt>
<pdfrwt beam="1">  1       21 0.47340781E-02 0.30000000E+03</pdfrwt>
<pdfrwt beam="2">0</pdfrwt>
<totfact> 0.31613567E+04</totfact>
</mgrwt>
</event>
<event>
 6    1  0.1280499E-001  0.3000000E+03  0.7818608E-02  0.1093470E+00
         21   -1    0    0  501  502  0.00000000000E+00  0.00000000000E+00  0.32968587508E+01  0.32968587508E+01  0.00000000000E+00 0. -1.
         13   -1    0    0    0    0 -0.00000000000E+00 -0.00000000000E+00 -0.10000000000E+04  0.10000000000E+04  0.00000000000E+00 0.  1.
    9000005    2    1    2  501    0 -0.14386535449E+02  0.39207777739E+02 -0.84240924592E+03  0.84345059394E+03  0.33681704988E+01 0.  0.
         13    1    3    3    0    0 -0.82672189727E+01  0.21973992754E+02 -0.50662717934E+03  0.50717088059E+03  0.00000000000E+00 0.  1.
          3    1    3    3  501    0 -0.61193164759E+01  0.17233784985E+02 -0.33578206658E+03  0.33627971335E+03  0.00000000000E+00 0.  1.
         -3    1    1    2    0  502  0.14386535449E+02 -0.39207777739E+02 -0.15429389533E+03  0.15984626481E+03  0.00000000000E+00 0. -1.
<mgrwt>
<rscale>  1 0.30000000E+03</rscale>
<asrwt>0</asrwt>
<pdfrwt beam="1">  1       21 0.11988603E-01 0.30000000E+03</pdfrwt>
<pdfrwt beam="2">0</pdfrwt>
<totfact> 0.62078161E+03</totfact>
</mgrwt>
</event>
<event>
 6    1  0.1280499E-001  0.3000000E+03  0.7818608E-02  0.1093470E+00
         21   -1    0    0  501  502  0.00000000000E+00  0.00000000000E+00  0.14038557971E+01  0.14038557971E+01  0.00000000000E+00 0. -1.
         13   -1    0    0    0    0 -0.00000000000E+00 -0.00000000000E+00 -0.10000000000E+04  0.10000000000E+04  0.00000000000E+00 0.  1.
    9000005    2    1    2  501    0 -0.33554621582E+02  0.49511471167E+01 -0.71076841142E+03  0.71158454960E+03  0.32264633242E+01 0.  0.
         13    1    3    3    0    0 -0.19342316762E+02  0.13096050874E+01 -0.39480170175E+03  0.39527740131E+03  0.00000000000E+00 0.  1.
          1    1    3    3  501    0 -0.14212304820E+02  0.36415420293E+01 -0.31596670968E+03  0.31630714829E+03  0.00000000000E+00 0.  1.
         -3    1    1    2    0  502  0.33554621582E+02 -0.49511471167E+01 -0.28782773278E+03  0.28981930620E+03  0.00000000000E+00 0. -1.
<mgrwt>
<rscale>  1 0.30000000E+03</rscale>
<asrwt>0</asrwt>
<pdfrwt beam="1">  1       21 0.51049409E-02 0.30000000E+03</pdfrwt>
<pdfrwt beam="2">0</pdfrwt>
<totfact> 0.27802043E+04</totfact>
</mgrwt>
</event>
<event>
 6    1  0.1280499E-001  0.3000000E+03  0.7818608E-02  0.1093470E+00
         21   -1    0    0  501  502  0.00000000000E+00  0.00000000000E+00  0.27530274920E+01  0.27530274920E+01  0.00000000000E+00 0. -1.
         13   -1    0    0    0    0 -0.00000000000E+00 -0.00000000000E+00 -0.10000000000E+04  0.10000000000E+04  0.00000000000E+00 0.  1.
    9000005    2    1    2  501    0 -0.13220099664E+02 -0.48709832702E+02 -0.63397237142E+03  0.63598899622E+03  0.36900888983E+01 0.  0.
         13    1    3    3    0    0 -0.97624963039E+01 -0.30359109004E+02 -0.41233763448E+03  0.41356898656E+03  0.00000000000E+00 0.  1.
          3    1    3    3  501    0 -0.34576033605E+01 -0.18350723697E+02 -0.22163473693E+03  0.22242000966E+03  0.00000000000E+00 0.  1.
         -3    1    1    2    0  502  0.13220099664E+02  0.48709832702E+02 -0.36327460109E+03  0.36676403127E+03  0.00000000000E+00 0. -1.
<mgrwt>
<rscale>  1 0.30000000E+03</rscale>
<asrwt>0</asrwt>
<pdfrwt beam="1">  1       21 0.10011030E-01 0.30000000E+03</pdfrwt>
<pdfrwt beam="2">0</pdfrwt>
<totfact> 0.85862670E+03</totfact>
</mgrwt>
</event>
<event>
 6    1  0.1280499E-001  0.3000000E+03  0.7818608E-02  0.1093470E+00
         21   -1    0    0  501  502  0.00000000000E+00  0.00000000000E+00  0.37513614665E+01  0.37513614665E+01  0.00000000000E+00 0. -1.
         13   -1    0    0    0    0 -0.00000000000E+00 -0.00000000000E+00 -0.10000000000E+04  0.10000000000E+04  0.00000000000E+00 0.  1.
    9000005    2    1    2  501    0  0.39994683090E+02 -0.18245755675E+02 -0.84745098508E+03  0.84859587833E+03  0.30512818563E+01 0.  0.
         13    1    3    3    0    0  0.29208773626E+02 -0.11812410740E+02 -0.60534069367E+03  0.60616007862E+03  0.00000000000E+00 0.  1.
          3    1    3    3  501    0  0.10785909464E+02 -0.64333449351E+01 -0.24211029141E+03  0.24243579970E+03  0.00000000000E+00 0.  1.
         -1    1    1    2    0  502 -0.39994683090E+02  0.18245755675E+02 -0.14879765345E+03  0.15515548314E+03  0.00000000000E+00 0. -1.
<mgrwt>
<rscale>  1 0.30000000E+03</rscale>
<asrwt>0</asrwt>
<pdfrwt beam="1">  1       21 0.13641343E-01 0.30000000E+03</pdfrwt>
<pdfrwt beam="2">0</pdfrwt>
<totfact> 0.49048006E+03</totfact>
</mgrwt>
</event>
<event>
 6    1  0.1280499E-001  0.3000000E+03  0.7818608E-02  0.1093470E+00
         21   -1    0    0  501  502  0.00000000000E+00  0.00000000000E+00  0.10692859183E+01  0.10692859183E+01  0.00000000000E+00 0. -1.
         13   -1    0    0    0    0 -0.00000000000E+00 -0.00000000000E+00 -0.10000000000E+04  0.10000000000E+04  0.00000000000E+00 0.  1.
    9000005    2    1    2  501    0  0.15890072015E+01  0.30976211728E+02 -0.65433885029E+03  0.65508431048E+03  0.37512934459E+01 0.  0.
         13    1    3    3    0    0  0.77713504843E+00  0.30971171838E+01 -0.90062994454E+02  0.90119581910E+02  0.00000000000E+00 0.  1.
          3    1    3    3  501    0  0.81187215305E+00  0.27879094545E+02 -0.56427585584E+03  0.56496472857E+03  0.00000000000E+00 0.  1.
         -3    1    1    2    0  502 -0.15890072015E+01 -0.30976211728E+02 -0.34459186379E+03  0.34598497544E+03  0.00000000000E+00 0. -1.
<mgrwt>
<rscale>  1 0.30000000E+03</rscale>
<asrwt>0</asrwt>
<pdfrwt beam="1">  1       21 0.38883206E-02 0.30000000E+03</pdfrwt>
<pdfrwt beam="2">0</pdfrwt>
<totfact> 0.44099560E+04</totfact>
</mgrwt>
</event>
<event>
 6    1  0.1280499E-001  0.3000000E+03  0.7818608E-02  0.1093470E+00
         21   -1    0    0  501  502  0.00000000000E+00  0.00000000000E+00  0.13040655172E+01  0.13040655172E+01  0.00000000000E+00 0. -1.
         13   -1    0    0    0    0 -0.00000000000E+00 -0.00000000000E+00 -0.10000000000E+04  0.10000000000E+04  0.00000000000E+00 0.  1.
    9000005    2    1    2  501    0  0.14568386907E+02 -0.27829166443E+02 -0.25702963681E+03  0.25897287427E+03  0.40018751133E+01 0.  0.
         13    1    3    3    0    0  0.47459040964E+01 -0.62761589090E+01 -0.55144394880E+02  0.55702944832E+02  0.00000000000E+00 0.  1.
          3    1    3    3  501    0  0.98224828110E+01 -0.21553007534E+02 -0.20188524193E+03  0.20326992943E+03  0.00000000000E+00 0.  1.
         -1    1    1    2    0  502 -0.14568386907E+02  0.27829166443E+02 -0.74166629767E+03  0.74233119125E+03  0.00000000000E+00 0. -1.
<mgrwt>
<rscale>  1 0.30000000E+03</rscale>
<asrwt>0</asrwt>
<pdfrwt beam="1">  1       21 0.47420664E-02 0.30000000E+03</pdfrwt>
<pdfrwt beam="2">0</pdfrwt>
<totfact> 0.31523048E+04</totfact>
</mgrwt>
</event>
<event>
 6    1  0.1280499E-001  0.3000000E+03  0.7818608E-02  0.1093470E+00
         21   -1    0    0  501  502  0.00000000000E+00  0.00000000000E+00  0.47113797941E+01  0.47113797941E+01  0.00000000000E+00 0. -1.
         13   -1    0    0    0    0 -0.00000000000E+00 -0.00000000000E+00 -0.10000000000E+04  0.10000000000E+04  0.00000000000E+00 0.  1.
    9000005    2    1    2  501    0  0.39767153402E+02 -0.55700855213E+02 -0.53015910435E+03  0.53457365712E+03  0.40382174122E+01 0.  0.
         13    1    3    3    0    0  0.20237352143E+02 -0.25325010764E+02 -0.25853386903E+03  0.26055837739E+03  0.00000000000E+00 0.  1.
          3    1    3    3  501    0  0.19529801259E+02 -0.30375844449E+02 -0.27162523533E+03  0.27401527974E+03  0.00000000000E+00 0.  1.
         -1    1    1    2    0  502 -0.39767153402E+02  0.55700855213E+02 -0.46512951585E+03  0.47013772267E+03  0.00000000000E+00 0. -1.
<mgrwt>
<rscale>  1 0.30000000E+03</rscale>
<asrwt>0</asrwt>
<pdfrwt beam="1">  1       21 0.17132326E-01 0.30000000E+03</pdfrwt>
<pdfrwt beam="2">0</pdfrwt>
<totfact> 0.32144819E+03</totfact>
</mgrwt>
</event>
<event>
 6    1  0.1280499E-001  0.3000000E+03  0.7818608E-02  0.1093470E+00
         21   -1    0    0  501  502  0.00000000000E+00  0.00000000000E+00  0.11612708613E+01  0.11612708613E+01  0.00000000000E+00 0. -1.
         13   -1    0    0    0    0 -0.00000000000E+00 -0.00000000000E+00 -0.10000000000E+04  0.10000000000E+04  0.00000000000E+00 0.  1.
    9000005    2    1    2  501    0 -0.30438742239E+02  0.10337801905E+02 -0.33739598461E+03  0.33893782559E+03  0.30678995150E+01 0.  0.
         13    1    3    3    0    0 -0.69793164759E+00  0.77700650234E+00 -0.96435805664E+01  0.96999739087E+01  0.00000000000E+00 0.  1.
          3    1    3    3  501    0 -0.29740810591E+02  0.95607954026E+01 -0.32775240405E+03  0.32923785168E+03  0.00000000000E+00 0.  1.
         -3    1    1    2    0  502  0.30438742239E+02 -0.10337801905E+02 -0.66144274453E+03  0.66222344527E+03  0.00000000000E+00 0. -1.
<mgrwt>
<rscale>  1 0.30000000E+03</rscale>
<asrwt>0</asrwt>
<pdfrwt beam="1">  1       21 0.42228120E-02 0.30000000E+03</pdfrwt>
<pdfrwt beam="2">0</pdfrwt>
<totfact> 0.38373787E+04</totfact>
</mgrwt>
</event>
<event>
 6    1  0.1280499E-001  0.3000000E+03  0.7818608E-02  0.1093470E+00
         21   -1    0    0  501  502  0.00000000000E+00  0.00000000000E+00  0.14765443210E+01  0.14765443210E+01  0.00000000000E+00 0. -1.
         13   -1    0    0    0    0 -0.00000000000E+00 -0.00000000000E+00 -0.10000000000E+04  0.10000000000E+04  0.00000000000E+00 0.  1.
    9000005    2    1    2  501    0  0.10738482752E+02  0.33981049650E+02 -0.31651897706E+03  0.31854160188E+03  0.38029650996E+01 0.  0.
         13    1    3    3    0    0  0.99461959638E+01  0.33419931175E+02 -0.30816067135E+03  0.31012709972E+03  0.00000000000E+00 0.  1.
          1    1    3    3  501    0  0.79228678819E+00  0.56111847487E+00 -0.83583057169E+01  0.84145021692E+01  0.00000000000E+00 0.  1.
         -3    1    1    2    0  502 -0.10738482752E+02 -0.33981049650E+02 -0.68200447862E+03  0.68293494244E+03  0.00000000000E+00 0. -1.
<mgrwt>
<rscale>  1 0.30000000E+03</rscale>
<asrwt>0</asrwt>
<pdfrwt beam="1">  1       21 0.53692634E-02 0.30000000E+03</pdfrwt>
<pdfrwt beam="2">0</pdfrwt>
<totfact> 0.25503929E+04</totfact>
</mgrwt>
</event>
<event>
 6    1  0.1280499E-001  0.3000000E+03  0.7818608E-02  0.1093470E+00
         21   -1    0    0  501  502  0.00000000000E+00  0.00000000000E+00  0.14218462046E+01  0.14218462046E+01  0.00000000000E+00 0. -1.
         13   -1    0    0    0    0 -0.00000000000E+00 -0.00000000000E+00 -0.10000000000E+04  0.10000000000E+04  0.00000000000E+00 0.  1.
    9000005    2    1    2  501    0  0.11986293705E+02 -0.32360057707E+02 -0.69923303288E+03  0.70009420727E+03  0.37709690108E+01 0.  0.
         13    1    3    3    0    0  0.98609022944E+01 -0.26487497721E+02 -0.59944027233E+03  0.60010621145E+03  0.00000000000E+00 0.  1.
          1    1    3    3  501    0  0.21253914106E+01 -0.58725599858E+01 -0.99792760550E+02  0.99987995818E+02  0.00000000000E+00 0.  1.
         -3    1    1    2    0  502 -0.11986293705E+02  0.32360057707E+02 -0.29934512091E+03  0.30132763893E+03  0.00000000000E+00 0. -1.
<mgrwt>
<rscale>  1 0.30000000E+03</rscale>
<asrwt>0</asrwt>
<pdfrwt beam="1">  1       21 0.51703607E-02 0.30000000E+03</pdfrwt>
<pdfrwt beam="2">0</pdfrwt>
<totfact> 0.27204198E+04</totfact>
</mgrwt>
</event>
<event>
 6    1  0.1280499E-001  0.3000000E+03  0.7818608E-02  0.1093470E+00
         21   -1    0    0  501  502  0.00000000000E+00  0.00000000000E+00  0.33053381336E+01  0.33053381336E+01  0.00000000000E+00 0. -1.
         13   -1    0    0    0    0 -0.00000000000E+00 -0.00000000000E+00 -0.10000000000E+04  0.10000000000E+04  0.00000000000E+00 0.  1.
    9000005    2    1    2  501    0 -0.48455535190E+02  0.29967509779E+01 -0.76670928724E+03  0.76825174436E+03  0.32698860233E+01 0.  0.
         13    1    3    3    0    0 -0.91976698695E+01  0.31968818925E+00 -0.12648874459E+03  0.12682311241E+03  0.00000000000E+00 0.  1.
          3    1    3    3  501    0 -0.39257865321E+02  0.26770627886E+01 -0.64022054265E+03  0.64142863195E+03  0.00000000000E+00 0.  1.
         -3    1    1    2    0  502  0.48455535190E+02 -0.29967509779E+01 -0.22998537462E+03  0.23505359378E+03  0.00000000000E+00 0. -1.
<mgrwt>
<rscale>  1 0.30000000E+03</rscale>
<asrwt>0</asrwt>
<pdfrwt beam="1">  1       21 0.12019437E-01 0.30000000E+03</pdfrwt>
<pdfrwt beam="2">0</pdfrwt>
<totfact> 0.61789421E+03</totfact>
</mgrwt>
</event>
<event>
 6    1  0.1280499E-001  0.3000000E+03  0.7818608E-02  0.1093470E+00
         21   -1    0    0  501  502  0.00000000000E+00  0.00000000000E+00  0.10457134122E+01  0.10457134122E+01  0.00000000000E+00 0. -1.
         13   -1    0    0    0    0 -0.00000000000E+00 -0.00000000000E+00 -0.10000000000E+04  0.10000000000E+04  0.00000000000E+00 0.  1.
    9000005    2    1    2  501    0 -0.16402542529E+02  0.25653083395E+02 -0.64034920956E+03  0.64115027671E+03  0.99721137149E+01 0.  0.
         13    1    3    3    0    0 -0.67473694095E+01  0.33643678237E+01 -0.12262390232E+03  0.12285547357E+03  0.00000000000E+00 0.  1.
          1    1    3    3  501    0 -0.96551731193E+01  0.22288715571E+02 -0.51772530724E+03  0.51829480314E+03  0.00000000000E+00 0.  1.
         -1    1    1    2    0  502  0.16402542529E+02 -0.25653083395E+02 -0.35860507703E+03  0.35989543670E+03  0.00000000000E+00 0. -1.
<mgrwt>
<rscale>  1 0.30000000E+03</rscale>
<asrwt>0</asrwt>
<pdfrwt beam="1">  1       21 0.38026022E-02 0.30000000E+03</pdfrwt>
<pdfrwt beam="2">0</pdfrwt>
<totfact> 0.45783391E+04</totfact>
</mgrwt>
</event>
<event>
 6    1  0.1280499E-001  0.3000000E+03  0.7818608E-02  0.1093470E+00
         21   -1    0    0  501  502  0.00000000000E+00  0.00000000000E+00  0.11859387009E+01  0.11859387009E+01  0.00000000000E+00 0. -1.
         13   -1    0    0    0    0 -0.00000000000E+00 -0.00000000000E+00 -0.10000000000E+04  0.10000000000E+04  0.00000000000E+00 0.  1.
    9000005    2    1    2  501    0  0.32837552981E+02  0.91497721554E+01 -0.43998503128E+03  0.44131817930E+03  0.35894874958E+01 0.  0.
         13    1    3    3    0    0  0.32585471655E+02  0.94069553211E+01 -0.43563633632E+03  0.43695459866E+03  0.00000000000E+00 0.  1.
          1    1    3    3  501    0  0.25208132588E+00 -0.25718316573E+00 -0.43486949575E+01  0.43635806408E+01  0.00000000000E+00 0.  1.
         -3    1    1    2    0  502 -0.32837552981E+02 -0.91497721554E+01 -0.55882903002E+03  0.55986775940E+03  0.00000000000E+00 0. -1.
<mgrwt>
<rscale>  1 0.30000000E+03</rscale>
<asrwt>0</asrwt>
<pdfrwt beam="1">  1       21 0.43125135E-02 0.30000000E+03</pdfrwt>
<pdfrwt beam="2">0</pdfrwt>
<totfact> 0.37034275E+04</totfact>
</mgrwt>
</event>
<event>
 6    1  0.1280499E-001  0.3000000E+03  0.7818608E-02  0.1093470E+00
         21   -1    0    0  501  502  0.00000000000E+00  0.00000000000E+00  0.73089778480E+01  0.73089778480E+01  0.00000000000E+00 0. -1.
         13   -1    0    0    0    0 -0.00000000000E+00 -0.00000000000E+00 -0.10000000000E+04  0.10000000000E+04  0.00000000000E+00 0.  1.
    9000005    2    1    2  501    0 -0.53553524926E+02  0.24347715154E+02 -0.86175157384E+03  0.86376131890E+03  0.26551358637E+01 0.  0.
         13    1    3    3    0    0 -0.19876778408E+01  0.39137999635E+00 -0.31428334388E+02  0.31493558769E+02  0.00000000000E+00 0.  1.
          3    1    3    3  501    0 -0.51565847086E+02  0.23956335158E+02 -0.83032323945E+03  0.83226776013E+03  0.00000000000E+00 0.  1.
         -1    1    1    2    0  502  0.53553524926E+02 -0.24347715154E+02 -0.13093944831E+03  0.14354765895E+03  0.00000000000E+00 0. -1.
<mgrwt>
<rscale>  1 0.30000000E+03</rscale>
<asrwt>0</asrwt>
<pdfrwt beam="1">  1       21 0.26578157E-01 0.30000000E+03</pdfrwt>
<pdfrwt beam="2">0</pdfrwt>
<totfact> 0.13827894E+03</totfact>
</mgrwt>
</event>
<event>
 6    1  0.1280499E-001  0.3000000E+03  0.7818608E-02  0.1093470E+00
         21   -1    0    0  501  502  0.00000000000E+00  0.00000000000E+00  0.27927204557E+01  0.27927204557E+01  0.00000000000E+00 0. -1.
         13   -1    0    0    0    0 -0.00000000000E+00 -0.00000000000E+00 -0.10000000000E+04  0.10000000000E+04  0.00000000000E+00 0.  1.
    9000005    2    1    2  501    0  0.14885430454E+02 -0.30465573179E+02 -0.88301396916E+03  0.88367160845E+03  0.34806120797E+01 0.  0.
         13    1    3    3    0    0  0.20587209756E+01 -0.75036678536E+01 -0.20675842454E+03  0.20690478362E+03  0.00000000000E+00 0.  1.
          1    1    3    3  501    0  0.12826709478E+02 -0.22961905325E+02 -0.67625554461E+03  0.67676682483E+03  0.00000000000E+00 0.  1.
         -3    1    1    2    0  502 -0.14885430454E+02  0.30465573179E+02 -0.11419331039E+03  0.11912111201E+03  0.00000000000E+00 0. -1.
<mgrwt>
<rscale>  1 0.30000000E+03</rscale>
<asrwt>0</asrwt>
<pdfrwt beam="1">  1       21 0.10155369E-01 0.30000000E+03</pdfrwt>
<pdfrwt beam="2">0</pdfrwt>
<totfact> 0.83693206E+03</totfact>
</mgrwt>
</event>
<event>
 6    1  0.1280499E-001  0.3000000E+03  0.7818608E-02  0.1093470E+00
         21   -1    0    0  501  502  0.00000000000E+00  0.00000000000E+00  0.12759003702E+01  0.12759003702E+01  0.00000000000E+00 0. -1.
         13   -1    0    0    0    0 -0.00000000000E+00 -0.00000000000E+00 -0.10000000000E+04  0.10000000000E+04  0.00000000000E+00 0.  1.
    9000005    2    1    2  501    0 -0.33240230264E+02  0.11021575558E+02 -0.40684069480E+03  0.40835739589E+03  0.31660387387E+01 0.  0.
         13    1    3    3    0    0 -0.44843588286E+01  0.15889262719E+01 -0.43855694189E+02  0.44112992118E+02  0.00000000000E+00 0.  1.
          3    1    3    3  501    0 -0.28755871435E+02  0.94326492860E+01 -0.36298500061E+03  0.36424440378E+03  0.00000000000E+00 0.  1.
         -1    1    1    2    0  502  0.33240230264E+02 -0.11021575558E+02 -0.59188340483E+03  0.59291850448E+03  0.00000000000E+00 0. -1.
<mgrwt>
<rscale>  1 0.30000000E+03</rscale>
<asrwt>0</asrwt>
<pdfrwt beam="1">  1       21 0.46396475E-02 0.30000000E+03</pdfrwt>
<pdfrwt beam="2">0</pdfrwt>
<totfact> 0.32715211E+04</totfact>
</mgrwt>
</event>
<event>
 6    1  0.1280499E-001  0.3000000E+03  0.7818608E-02  0.1093470E+00
         21   -1    0    0  501  502  0.00000000000E+00  0.00000000000E+00  0.53330530981E+01  0.53330530981E+01  0.00000000000E+00 0. -1.
         13   -1    0    0    0    0 -0.00000000000E+00 -0.00000000000E+00 -0.10000000000E+04  0.10000000000E+04  0.00000000000E+00 0.  1.
    9000005    2    1    2  501    0 -0.20453789372E+02 -0.34598540604E+02 -0.91696251956E+03  0.91784937153E+03  0.34336619515E+01 0.  0.
         13    1    3    3    0    0 -0.64257949515E+01 -0.87567393781E+01 -0.22354215434E+03  0.22380586697E+03  0.00000000000E+00 0.  1.
          1    1    3    3  501    0 -0.14027994421E+02 -0.25841801226E+02 -0.69342036522E+03  0.69404350456E+03  0.00000000000E+00 0.  1.
         -1    1    1    2    0  502  0.20453789372E+02  0.34598540604E+02 -0.77704427343E+02  0.87483681566E+02  0.00000000000E+00 0. -1.
<mgrwt>
<rscale>  1 0.30000000E+03</rscale>
<asrwt>0</asrwt>
<pdfrwt beam="1">  1       21 0.19392961E-01 0.30000000E+03</pdfrwt>
<pdfrwt beam="2">0</pdfrwt>
<totfact> 0.25442896E+03</totfact>
</mgrwt>
</event>
<event>
 6    1  0.1280499E-001  0.3000000E+03  0.7818608E-02  0.1093470E+00
         21   -1    0    0  501  502  0.00000000000E+00  0.00000000000E+00  0.10693493724E+01  0.10693493724E+01  0.00000000000E+00 0. -1.
         13   -1    0    0    0    0 -0.00000000000E+00 -0.00000000000E+00 -0.10000000000E+04  0.10000000000E+04  0.00000000000E+00 0.  1.
    9000005    2    1    2  501    0  0.30220228898E+02 -0.17239126248E+01 -0.31482194493E+03  0.31629131576E+03  0.33324623201E+01 0.  0.
         13    1    3    3    0    0  0.24388686457E+02 -0.15369429829E+01 -0.26661671939E+03  0.26773428110E+03  0.00000000000E+00 0.  1.
          3    1    3    3  501    0  0.58315424415E+01 -0.18696964194E+00 -0.48205225547E+02  0.48557034660E+02  0.00000000000E+00 0.  1.
         -1    1    1    2    0  502 -0.30220228898E+02  0.17239126248E+01 -0.68410870569E+03  0.68477803361E+03  0.00000000000E+00 0. -1.
<mgrwt>
<rscale>  1 0.30000000E+03</rscale>
<asrwt>0</asrwt>
<pdfrwt beam="1">  1       21 0.38885514E-02 0.30000000E+03</pdfrwt>
<pdfrwt beam="2">0</pdfrwt>
<totfact> 0.44095159E+04</totfact>
</mgrwt>
</event>
<event>
 6    1  0.1280499E-001  0.3000000E+03  0.7818608E-02  0.1093470E+00
         21   -1    0    0  501  502  0.00000000000E+00  0.00000000000E+00  0.22388965969E+01  0.22388965969E+01  0.00000000000E+00 0. -1.
         13   -1    0    0    0    0 -0.00000000000E+00 -0.00000000000E+00 -0.10000000000E+04  0.10000000000E+04  0.00000000000E+00 0.  1.
    9000005    2    1    2  501    0 -0.38604975823E+02  0.26735796668E+02 -0.55561390694E+03  0.55760501313E+03  0.33749232576E+01 0.  0.
         13    1    3    3    0    0 -0.24838075648E+02  0.15993870662E+02 -0.33365000331E+03  0.33495530838E+03  0.00000000000E+00 0.  1.
          3    1    3    3  501    0 -0.13766900175E+02  0.10741926007E+02 -0.22196390363E+03  0.22264970476E+03  0.00000000000E+00 0.  1.
         -3    1    1    2    0  502  0.38604975823E+02 -0.26735796668E+02 -0.44214719646E+03  0.44463388346E+03  0.00000000000E+00 0. -1.
<mgrwt>
<rscale>  1 0.30000000E+03</rscale>
<asrwt>0</asrwt>
<pdfrwt beam="1">  1       21 0.81414593E-02 0.30000000E+03</pdfrwt>
<pdfrwt beam="2">0</pdfrwt>
<totfact> 0.12386396E+04</totfact>
</mgrwt>
</event>
<event>
 6    1  0.1280499E-001  0.3000000E+03  0.7818608E-02  0.1093470E+00
         21   -1    0    0  501  502  0.00000000000E+00  0.00000000000E+00  0.36320762942E+01  0.36320762942E+01  0.00000000000E+00 0. -1.
         13   -1    0    0    0    0 -0.00000000000E+00 -0.00000000000E+00 -0.10000000000E+04  0.10000000000E+04  0.00000000000E+00 0.  1.
    9000005    2    1    2  501    0  0.51821839361E+02 -0.24731585508E+02 -0.34743327421E+03  0.35216194369E+03  0.33166549662E+01 0.  0.
         13    1    3    3    0    0  0.14517455031E+02 -0.63612698312E+01 -0.10463409888E+03  0.10582776999E+03  0.00000000000E+00 0.  1.
          1    1    3    3  501    0  0.37304384331E+02 -0.18370315677E+02 -0.24279917533E+03  0.24633417370E+03  0.00000000000E+00 0.  1.
         -3    1    1    2    0  502 -0.51821839361E+02  0.24731585508E+02 -0.64893464950E+03  0.65147013260E+03  0.00000000000E+00 0. -1.
<mgrwt>
<rscale>  1 0.30000000E+03</rscale>
<asrwt>0</asrwt>
<pdfrwt beam="1">  1       21 0.13207578E-01 0.30000000E+03</pdfrwt>
<pdfrwt beam="2">0</pdfrwt>
<totfact> 0.52036998E+03</totfact>
</mgrwt>
</event>
<event>
 6    1  0.1280499E-001  0.3000000E+03  0.7818608E-02  0.1093470E+00
         21   -1    0    0  501  502  0.00000000000E+00  0.00000000000E+00  0.33415276282E+01  0.33415276282E+01  0.00000000000E+00 0. -1.
         13   -1    0    0    0    0 -0.00000000000E+00 -0.00000000000E+00 -0.10000000000E+04  0.10000000000E+04  0.00000000000E+00 0.  1.
    9000005    2    1    2  501    0  0.35533274104E+02 -0.11026346067E+02 -0.88155072353E+03  0.88237050746E+03  0.78638673580E+01 0.  0.
         13    1    3    3    0    0  0.35089650706E+02 -0.10906319092E+02 -0.87956797923E+03  0.88033519836E+03  0.00000000000E+00 0.  1.
          1    1    3    3  501    0  0.44362339809E+00 -0.12002697519E+00 -0.19827442995E+01  0.20353091046E+01  0.00000000000E+00 0.  1.
         -3    1    1    2    0  502 -0.35533274104E+02  0.11026346067E+02 -0.11510774884E+03  0.12097102017E+03  0.00000000000E+00 0. -1.
<mgrwt>
<rscale>  1 0.30000000E+03</rscale>
<asrwt>0</asrwt>
<pdfrwt beam="1">  1       21 0.12151035E-01 0.30000000E+03</pdfrwt>
<pdfrwt beam="2">0</pdfrwt>
<totfact> 0.60579251E+03</totfact>
</mgrwt>
</event>
<event>
 6    1  0.1280499E-001  0.3000000E+03  0.7818608E-02  0.1093470E+00
         21   -1    0    0  501  502  0.00000000000E+00  0.00000000000E+00  0.16453194180E+01  0.16453194180E+01  0.00000000000E+00 0. -1.
         13   -1    0    0    0    0 -0.00000000000E+00 -0.00000000000E+00 -0.10000000000E+04  0.10000000000E+04  0.00000000000E+00 0.  1.
    9000005    2    1    2  501    0  0.22339967255E+02 -0.33755816495E+02 -0.48590689996E+03  0.48760129684E+03  0.33136032915E+01 0.  0.
         13    1    3    3    0    0  0.17140410025E+02 -0.28224742433E+02 -0.39362842373E+03  0.39501109568E+03  0.00000000000E+00 0.  1.
          1    1    3    3  501    0  0.51995572300E+01 -0.55310740613E+01 -0.92278476229E+02  0.92590201160E+02  0.00000000000E+00 0.  1.
         -1    1    1    2    0  502 -0.22339967255E+02  0.33755816495E+02 -0.51244778062E+03  0.51404402258E+03  0.00000000000E+00 0. -1.
<mgrwt>
<rscale>  1 0.30000000E+03</rscale>
<asrwt>0</asrwt>
<pdfrwt beam="1">  1       21 0.59829923E-02 0.30000000E+03</pdfrwt>
<pdfrwt beam="2">0</pdfrwt>
<totfact> 0.21175072E+04</totfact>
</mgrwt>
</event>
<event>
 6    1  0.1280499E-001  0.3000000E+03  0.7818608E-02  0.1093470E+00
         21   -1    0    0  501  502  0.00000000000E+00  0.00000000000E+00  0.14937497682E+01  0.14937497682E+01  0.00000000000E+00 0. -1.
         13   -1    0    0    0    0 -0.00000000000E+00 -0.00000000000E+00 -0.10000000000E+04  0.10000000000E+04  0.00000000000E+00 0.  1.
    9000005    2    1    2  501    0  0.13806477549E+02  0.35047979025E+02 -0.60713375064E+03  0.60831260438E+03  0.37220718745E+01 0.  0.
         13    1    3    3    0    0  0.46892024120E+01  0.13877152602E+02 -0.20971231679E+03  0.21022326178E+03  0.00000000000E+00 0.  1.
          3    1    3    3  501    0  0.91172751369E+01  0.21170826423E+02 -0.39742143386E+03  0.39808934259E+03  0.00000000000E+00 0.  1.
         -3    1    1    2    0  502 -0.13806477549E+02 -0.35047979025E+02 -0.39137249959E+03  0.39318114539E+03  0.00000000000E+00 0. -1.
<mgrwt>
<rscale>  1 0.30000000E+03</rscale>
<asrwt>0</asrwt>
<pdfrwt beam="1">  1       21 0.54318288E-02 0.30000000E+03</pdfrwt>
<pdfrwt beam="2">0</pdfrwt>
<totfact> 0.25002943E+04</totfact>
</mgrwt>
</event>
<event>
 6    1  0.1280499E-001  0.3000000E+03  0.7818608E-02  0.1093470E+00
         21   -1    0    0  501  502  0.00000000000E+00  0.00000000000E+00  0.99673023827E+00  0.99673023827E+00  0.00000000000E+00 0. -1.
         13   -1    0    0    0    0 -0.00000000000E+00 -0.00000000000E+00 -0.10000000000E+04  0.10000000000E+04  0.00000000000E+00 0.  1.
    9000005    2    1    2  501    0  0.62874983570E+01  0.30010010299E+02 -0.61232840067E+03  0.61310810223E+03  0.39168092921E+01 0.  0.
         13    1    3    3    0    0  0.28298225456E+01  0.62048831602E+01 -0.12335504291E+03  0.12354341376E+03  0.00000000000E+00 0.  1.
          3    1    3    3  501    0  0.34576758114E+01  0.23805127138E+02 -0.48897335776E+03  0.48956468847E+03  0.00000000000E+00 0.  1.
         -3    1    1    2    0  502 -0.62874983570E+01 -0.30010010299E+02 -0.38667486909E+03  0.38788862801E+03  0.00000000000E+00 0. -1.
<mgrwt>
<rscale>  1 0.30000000E+03</rscale>
<asrwt>0</asrwt>
<pdfrwt beam="1">  1       21 0.36244812E-02 0.30000000E+03</pdfrwt>
<pdfrwt beam="2">0</pdfrwt>
<totfact> 0.49623056E+04</totfact>
</mgrwt>
</event>
<event>
 6    1  0.1280499E-001  0.3000000E+03  0.7818608E-02  0.1093470E+00
         21   -1    0    0  501  502  0.00000000000E+00  0.00000000000E+00  0.13255639976E+01  0.13255639976E+01  0.00000000000E+00 0. -1.
         13   -1    0    0    0    0 -0.00000000000E+00 -0.00000000000E+00 -0.10000000000E+04  0.10000000000E+04  0.00000000000E+00 0.  1.
    9000005    2    1    2  501    0 -0.26925503974E+02 -0.16490093253E+02 -0.74041371481E+03  0.74114196334E+03  0.90573068106E+01 0.  0.
         13    1    3    3    0    0 -0.25863150380E+02 -0.16635824495E+02 -0.73361255951E+03  0.73425679477E+03  0.00000000000E+00 0.  1.
          3    1    3    3  501    0 -0.10623535942E+01  0.14573124158E+00 -0.68011553057E+01  0.68851685706E+01  0.00000000000E+00 0.  1.
         -1    1    1    2    0  502  0.26925503974E+02  0.16490093253E+02 -0.25826072119E+03  0.26018360065E+03  0.00000000000E+00 0. -1.
<mgrwt>
<rscale>  1 0.30000000E+03</rscale>
<asrwt>0</asrwt>
<pdfrwt beam="1">  1       21 0.48202429E-02 0.30000000E+03</pdfrwt>
<pdfrwt beam="2">0</pdfrwt>
<totfact> 0.30658191E+04</totfact>
</mgrwt>
</event>
<event>
 6    1  0.1280499E-001  0.3000000E+03  0.7818608E-02  0.1093470E+00
         21   -1    0    0  501  502  0.00000000000E+00  0.00000000000E+00  0.29768670745E+01  0.29768670745E+01  0.00000000000E+00 0. -1.
         13   -1    0    0    0    0 -0.00000000000E+00 -0.00000000000E+00 -0.10000000000E+04  0.10000000000E+04  0.00000000000E+00 0.  1.
    9000005    2    1    2  501    0 -0.39199773670E+02 -0.29056143503E+02 -0.72103953854E+03  0.72271301621E+03  0.59334586344E+01 0.  0.
         13    1    3    3    0    0 -0.30566573647E+02 -0.24625495521E+02 -0.55048925302E+03  0.55188689797E+03  0.00000000000E+00 0.  1.
          3    1    3    3  501    0 -0.86332000232E+01 -0.44306479824E+01 -0.17055028552E+03  0.17082611825E+03  0.00000000000E+00 0.  1.
         -1    1    1    2    0  502  0.39199773670E+02  0.29056143503E+02 -0.27598359438E+03  0.28026385086E+03  0.00000000000E+00 0. -1.
<mgrwt>
<rscale>  1 0.30000000E+03</rscale>
<asrwt>0</asrwt>
<pdfrwt beam="1">  1       21 0.10824994E-01 0.30000000E+03</pdfrwt>
<pdfrwt beam="2">0</pdfrwt>
<totfact> 0.74641733E+03</totfact>
</mgrwt>
</event>
<event>
 6    1  0.1280499E-001  0.3000000E+03  0.7818608E-02  0.1093470E+00
         21   -1    0    0  501  502  0.00000000000E+00  0.00000000000E+00  0.11659857949E+01  0.11659857949E+01  0.00000000000E+00 0. -1.
         13   -1    0    0    0    0 -0.00000000000E+00 -0.00000000000E+00 -0.10000000000E+04  0.10000000000E+04  0.00000000000E+00 0.  1.
    9000005    2    1    2  501    0  0.21949662092E+02 -0.20519567714E+02 -0.26512652989E+03  0.26684350019E+03  0.32459847409E+01 0.  0.
         13    1    3    3    0    0  0.10627921748E+02 -0.10369189933E+02 -0.11695128927E+03  0.11789010511E+03  0.00000000000E+00 0.  1.
          3    1    3    3  501    0  0.11321740344E+02 -0.10150377782E+02 -0.14817524061E+03  0.14895339507E+03  0.00000000000E+00 0.  1.
         -1    1    1    2    0  502 -0.21949662092E+02  0.20519567714E+02 -0.73370748432E+03  0.73432248561E+03  0.00000000000E+00 0. -1.
<mgrwt>
<rscale>  1 0.30000000E+03</rscale>
<asrwt>0</asrwt>
<pdfrwt beam="1">  1       21 0.42399573E-02 0.30000000E+03</pdfrwt>
<pdfrwt beam="2">0</pdfrwt>
<totfact> 0.38111999E+04</totfact>
</mgrwt>
</event>
<event>
 6    1  0.1280499E-001  0.3000000E+03  0.7818608E-02  0.1093470E+00
         21   -1    0    0  501  502  0.00000000000E+00  0.00000000000E+00  0.12401467475E+01  0.12401467475E+01  0.00000000000E+00 0. -1.
         13   -1    0    0    0    0 -0.00000000000E+00 -0.00000000000E+00 -0.10000000000E+04  0.10000000000E+04  0.00000000000E+00 0.  1.
    9000005    2    1    2  501    0  0.59708466421E+01 -0.34577665420E+02 -0.52655715228E+03  0.52773549338E+03  0.33242141264E+01 0.  0.
         13    1    3    3    0    0  0.20832291941E+00 -0.18775094430E+01 -0.41674048540E+02  0.41716840267E+02  0.00000000000E+00 0.  1.
          1    1    3    3  501    0  0.57625237227E+01 -0.32700155977E+02 -0.48488310374E+03  0.48601865311E+03  0.00000000000E+00 0.  1.
         -1    1    1    2    0  502 -0.59708466421E+01  0.34577665420E+02 -0.47220270098E+03  0.47350465337E+03  0.00000000000E+00 0. -1.
<mgrwt>
<rscale>  1 0.30000000E+03</rscale>
<asrwt>0</asrwt>
<pdfrwt beam="1">  1       21 0.45096340E-02 0.30000000E+03</pdfrwt>
<pdfrwt beam="2">0</pdfrwt>
<totfact> 0.34333355E+04</totfact>
</mgrwt>
</event>
<event>
 6    1  0.1280499E-001  0.3000000E+03  0.7818608E-02  0.1093470E+00
         21   -1    0    0  501  502  0.00000000000E+00  0.00000000000E+00  0.10949505006E+01  0.10949505006E+01  0.00000000000E+00 0. -1.
         13   -1    0    0    0    0 -0.00000000000E+00 -0.00000000000E+00 -0.10000000000E+04  0.10000000000E+04  0.00000000000E+00 0.  1.
    9000005    2    1    2  501    0 -0.29369123876E+02  0.89457970576E+01 -0.68352138048E+03  0.68422047787E+03  0.36894495388E+01 0.  0.
         13    1    3    3    0    0 -0.62465500697E+01  0.59402631361E+00 -0.12223814071E+03  0.12239908210E+03  0.00000000000E+00 0.  1.
          1    1    3    3  501    0 -0.23122573806E+02  0.83517707440E+01 -0.56128323977E+03  0.56182139577E+03  0.00000000000E+00 0.  1.
         -1    1    1    2    0  502  0.29369123876E+02 -0.89457970576E+01 -0.31538366901E+03  0.31687447263E+03  0.00000000000E+00 0. -1.
<mgrwt>
<rscale>  1 0.30000000E+03</rscale>
<asrwt>0</asrwt>
<pdfrwt beam="1">  1       21 0.39816466E-02 0.30000000E+03</pdfrwt>
<pdfrwt beam="2">0</pdfrwt>
<totfact> 0.42374195E+04</totfact>
</mgrwt>
</event>
<event>
 6    1  0.1280499E-001  0.3000000E+03  0.7818608E-02  0.1093470E+00
         21   -1    0    0  501  502  0.00000000000E+00  0.00000000000E+00  0.49381869690E+01  0.49381869690E+01  0.00000000000E+00 0. -1.
         13   -1    0    0    0    0 -0.00000000000E+00 -0.00000000000E+00 -0.10000000000E+04  0.10000000000E+04  0.00000000000E+00 0.  1.
    9000005    2    1    2  501    0 -0.47942508618E+00 -0.48782789419E+02 -0.85905722545E+03  0.86044860868E+03  0.35357013636E+01 0.  0.
         13    1    3    3    0    0  0.33354379828E+00 -0.46041403453E+02 -0.81295872025E+03  0.81426150770E+03  0.00000000000E+00 0.  1.
          3    1    3    3  501    0 -0.81296888447E+00 -0.27413859666E+01 -0.46098505199E+02  0.46187100981E+02  0.00000000000E+00 0.  1.
         -1    1    1    2    0  502  0.47942508618E+00  0.48782789419E+02 -0.13600458758E+03  0.14448957829E+03  0.00000000000E+00 0. -1.
<mgrwt>
<rscale>  1 0.30000000E+03</rscale>
<asrwt>0</asrwt>
<pdfrwt beam="1">  1       21 0.17957081E-01 0.30000000E+03</pdfrwt>
<pdfrwt beam="2">0</pdfrwt>
<totfact> 0.29427518E+03</totfact>
</mgrwt>
</event>
<event>
 6    1  0.1280499E-001  0.3000000E+03  0.7818608E-02  0.1093470E+00
         21   -1    0    0  501  502  0.00000000000E+00  0.00000000000E+00  0.10353403529E+01  0.10353403529E+01  0.00000000000E+00 0. -1.
         13   -1    0    0    0    0 -0.00000000000E+00 -0.00000000000E+00 -0.10000000000E+04  0.10000000000E+04  0.00000000000E+00 0.  1.
    9000005    2    1    2  501    0 -0.26738360274E+02 -0.13944879173E+02 -0.33082742663E+03  0.33221790509E+03  0.35426949864E+01 0.  0.
         13    1    3    3    0    0 -0.25348567007E+02 -0.13052176576E+02 -0.30189163970E+03  0.30323500999E+03  0.00000000000E+00 0.  1.
          1    1    3    3  501    0 -0.13897932673E+01 -0.89270259698E+00 -0.28935786933E+02  0.28982895105E+02  0.00000000000E+00 0.  1.
         -3    1    1    2    0  502  0.26738360274E+02  0.13944879173E+02 -0.66813723302E+03  0.66881743526E+03  0.00000000000E+00 0. -1.
<mgrwt>
<rscale>  1 0.30000000E+03</rscale>
<asrwt>0</asrwt>
<pdfrwt beam="1">  1       21 0.37648819E-02 0.30000000E+03</pdfrwt>
<pdfrwt beam="2">0</pdfrwt>
<totfact> 0.46556568E+04</totfact>
</mgrwt>
</event>
<event>
 6    1  0.1280499E-001  0.3000000E+03  0.7818608E-02  0.1093470E+00
         21   -1    0    0  501  502  0.00000000000E+00  0.00000000000E+00  0.14414992376E+01  0.14414992376E+01  0.00000000000E+00 0. -1.
         13   -1    0    0    0    0 -0.00000000000E+00 -0.00000000000E+00 -0.10000000000E+04  0.10000000000E+04  0.00000000000E+00 0.  1.
    9000005    2    1    2  501    0 -0.87758534092E+01  0.34674702860E+02 -0.66517687961E+03  0.66614662015E+03  0.34187344797E+01 0.  0.
         13    1    3    3    0    0 -0.32894508267E+01  0.81526105775E+01 -0.17955991025E+03  0.17977498968E+03  0.00000000000E+00 0.  1.
          1    1    3    3  501    0 -0.54864025825E+01  0.26522092283E+02 -0.48561696936E+03  0.48637163047E+03  0.00000000000E+00 0.  1.
         -1    1    1    2    0  502  0.87758534092E+01 -0.34674702860E+02 -0.33338162115E+03  0.33529487909E+03  0.00000000000E+00 0. -1.
<mgrwt>
<rscale>  1 0.30000000E+03</rscale>
<asrwt>0</asrwt>
<pdfrwt beam="1">  1       21 0.52418265E-02 0.30000000E+03</pdfrwt>
<pdfrwt beam="2">0</pdfrwt>
<totfact> 0.26573607E+04</totfact>
</mgrwt>
</event>
<event>
 6    1  0.1280499E-001  0.3000000E+03  0.7818608E-02  0.1093470E+00
         21   -1    0    0  501  502  0.00000000000E+00  0.00000000000E+00  0.17587628214E+01  0.17587628214E+01  0.00000000000E+00 0. -1.
         13   -1    0    0    0    0 -0.00000000000E+00 -0.00000000000E+00 -0.10000000000E+04  0.10000000000E+04  0.00000000000E+00 0.  1.
    9000005    2    1    2  501    0  0.20082947649E+02  0.31495686056E+02 -0.72451890238E+03  0.72549942887E+03  0.51457129291E+01 0.  0.
         13    1    3    3    0    0  0.88256988658E+01  0.15130813296E+02 -0.38748633592E+03  0.38788206325E+03  0.00000000000E+00 0.  1.
          3    1    3    3  501    0  0.11257248783E+02  0.16364872760E+02 -0.33703256646E+03  0.33761736562E+03  0.00000000000E+00 0.  1.
         -3    1    1    2    0  502 -0.20082947649E+02 -0.31495686056E+02 -0.27372233480E+03  0.27625933395E+03  0.00000000000E+00 0. -1.
<mgrwt>
<rscale>  1 0.30000000E+03</rscale>
<asrwt>0</asrwt>
<pdfrwt beam="1">  1       21 0.63955147E-02 0.30000000E+03</pdfrwt>
<pdfrwt beam="2">0</pdfrwt>
<totfact> 0.18871950E+04</totfact>
</mgrwt>
</event>
<event>
 6    1  0.1280499E-001  0.3000000E+03  0.7818608E-02  0.1093470E+00
         21   -1    0    0  501  502  0.00000000000E+00  0.00000000000E+00  0.24091472567E+01  0.24091472567E+01  0.00000000000E+00 0. -1.
         13   -1    0    0    0    0 -0.00000000000E+00 -0.00000000000E+00 -0.10000000000E+04  0.10000000000E+04  0.00000000000E+00 0.  1.
    9000005    2    1    2  501    0  0.41604307225E+02 -0.17328470860E+02 -0.69658459070E+03  0.69804757927E+03  0.30226863853E+01 0.  0.
         13    1    3    3    0    0  0.21302834339E+02 -0.10250137878E+02 -0.37736318614E+03  0.37810296260E+03  0.00000000000E+00 0.  1.
          3    1    3    3  501    0  0.20301472886E+02 -0.70783329825E+01 -0.31922140456E+03  0.31994461666E+03  0.00000000000E+00 0.  1.
         -3    1    1    2    0  502 -0.41604307225E+02  0.17328470860E+02 -0.30100626204E+03  0.30436156799E+03  0.00000000000E+00 0. -1.
<mgrwt>
<rscale>  1 0.30000000E+03</rscale>
<asrwt>0</asrwt>
<pdfrwt beam="1">  1       21 0.87605540E-02 0.30000000E+03</pdfrwt>
<pdfrwt beam="2">0</pdfrwt>
<totfact> 0.10885303E+04</totfact>
</mgrwt>
</event>
<event>
 6    1  0.1280499E-001  0.3000000E+03  0.7818608E-02  0.1093470E+00
         21   -1    0    0  501  502  0.00000000000E+00  0.00000000000E+00  0.19035887303E+01  0.19035887303E+01  0.00000000000E+00 0. -1.
         13   -1    0    0    0    0 -0.00000000000E+00 -0.00000000000E+00 -0.10000000000E+04  0.10000000000E+04  0.00000000000E+00 0.  1.
    9000005    2    1    2  501    0 -0.21385589535E+02  0.23284056738E+02 -0.84392471072E+03  0.84452378066E+03  0.34652558484E+01 0.  0.
         13    1    3    3    0    0 -0.18908603404E+02  0.19228112972E+02 -0.69399135946E+03  0.69451512771E+03  0.00000000000E+00 0.  1.
          1    1    3    3  501    0 -0.24769861308E+01  0.40559437656E+01 -0.14993335126E+03  0.15000865295E+03  0.00000000000E+00 0.  1.
         -3    1    1    2    0  502  0.21385589535E+02 -0.23284056738E+02 -0.15417170055E+03  0.15737980807E+03  0.00000000000E+00 0. -1.
<mgrwt>
<rscale>  1 0.30000000E+03</rscale>
<asrwt>0</asrwt>
<pdfrwt beam="1">  1       21 0.69221554E-02 0.30000000E+03</pdfrwt>
<pdfrwt beam="2">0</pdfrwt>
<totfact> 0.16452245E+04</totfact>
</mgrwt>
</event>
<event>
 6    1  0.1280499E-001  0.3000000E+03  0.7818608E-02  0.1093470E+00
         21   -1    0    0  501  502  0.00000000000E+00  0.00000000000E+00  0.13258282187E+01  0.13258282187E+01  0.00000000000E+00 0. -1.
         13   -1    0    0    0    0 -0.00000000000E+00 -0.00000000000E+00 -0.10000000000E+04  0.10000000000E+04  0.00000000000E+00 0.  1.
    9000005    2    1    2  501    0  0.99283861562E+01  0.31392055651E+02 -0.71040109967E+03  0.71117862745E+03  0.46134281146E+01 0.  0.
         13    1    3    3    0    0  0.28977053494E+01  0.16495862238E+02 -0.37217706286E+03  0.37255372269E+03  0.00000000000E+00 0.  1.
          3    1    3    3  501    0  0.70306808068E+01  0.14896193413E+02 -0.33822403681E+03  0.33862490476E+03  0.00000000000E+00 0.  1.
         -1    1    1    2    0  502 -0.99283861562E+01 -0.31392055651E+02 -0.28827307211E+03  0.29014720076E+03  0.00000000000E+00 0. -1.
<mgrwt>
<rscale>  1 0.30000000E+03</rscale>
<asrwt>0</asrwt>
<pdfrwt beam="1">  1       21 0.48212037E-02 0.30000000E+03</pdfrwt>
<pdfrwt beam="2">0</pdfrwt>
<totfact> 0.30647793E+04</totfact>
</mgrwt>
</event>
<event>
 6    1  0.1280499E-001  0.3000000E+03  0.7818608E-02  0.1093470E+00
         21   -1    0    0  501  502  0.00000000000E+00  0.00000000000E+00  0.12506377986E+01  0.12506377986E+01  0.00000000000E+00 0. -1.
         13   -1    0    0    0    0 -0.00000000000E+00 -0.00000000000E+00 -0.10000000000E+04  0.10000000000E+04  0.00000000000E+00 0.  1.
    9000005    2    1    2  501    0  0.11608338130E+02  0.32307240546E+02 -0.61367492466E+03  0.61464899042E+03  0.42375659914E+01 0.  0.
         13    1    3    3    0    0  0.69578021726E+01  0.23125293131E+02 -0.45526593805E+03  0.45590598213E+03  0.00000000000E+00 0.  1.
          3    1    3    3  501    0  0.46505359575E+01  0.91819474148E+01 -0.15840898661E+03  0.15874300829E+03  0.00000000000E+00 0.  1.
         -1    1    1    2    0  502 -0.11608338130E+02 -0.32307240546E+02 -0.38507443755E+03  0.38660164738E+03  0.00000000000E+00 0. -1.
<mgrwt>
<rscale>  1 0.30000000E+03</rscale>
<asrwt>0</asrwt>
<pdfrwt beam="1">  1       21 0.45477834E-02 0.30000000E+03</pdfrwt>
<pdfrwt beam="2">0</pdfrwt>
<totfact> 0.33845815E+04</totfact>
</mgrwt>
</event>
<event>
 6    1  0.1280499E-001  0.3000000E+03  0.7818608E-02  0.1093470E+00
         21   -1    0    0  501  502  0.00000000000E+00  0.00000000000E+00  0.17982875888E+01  0.17982875888E+01  0.00000000000E+00 0. -1.
         13   -1    0    0    0    0 -0.00000000000E+00 -0.00000000000E+00 -0.10000000000E+04  0.10000000000E+04  0.00000000000E+00 0.  1.
    9000005    2    1    2  501    0  0.33937883746E+02 -0.92600377160E+00 -0.79832691400E+03  0.79906059382E+03  0.43969918799E+01 0.  0.
         13    1    3    3    0    0  0.52179663577E+01 -0.47068079203E+00 -0.16404121899E+03  0.16412486174E+03  0.00000000000E+00 0.  1.
          1    1    3    3  501    0  0.28719917388E+02 -0.45532297958E+00 -0.63428569502E+03  0.63493573208E+03  0.00000000000E+00 0.  1.
         -1    1    1    2    0  502 -0.33937883746E+02  0.92600377160E+00 -0.19987479841E+03  0.20273769377E+03  0.00000000000E+00 0. -1.
<mgrwt>
<rscale>  1 0.30000000E+03</rscale>
<asrwt>0</asrwt>
<pdfrwt beam="1">  1       21 0.65392414E-02 0.30000000E+03</pdfrwt>
<pdfrwt beam="2">0</pdfrwt>
<totfact> 0.18159774E+04</totfact>
</mgrwt>
</event>
<event>
 6    1  0.1280499E-001  0.3000000E+03  0.7818608E-02  0.1093470E+00
         21   -1    0    0  501  502  0.00000000000E+00  0.00000000000E+00  0.20042796064E+01  0.20042796064E+01  0.00000000000E+00 0. -1.
         13   -1    0    0    0    0 -0.00000000000E+00 -0.00000000000E+00 -0.10000000000E+04  0.10000000000E+04  0.00000000000E+00 0.  1.
    9000005    2    1    2  501    0 -0.19722989512E+02  0.36681135180E+02 -0.68177898446E+03  0.68305675088E+03  0.30723417760E+01 0.  0.
         13    1    3    3    0    0 -0.13060884682E+02  0.25629332023E+02 -0.49088144830E+03  0.49172354596E+03  0.00000000000E+00 0.  1.
          3    1    3    3  501    0 -0.66621048295E+01  0.11051803158E+02 -0.19089753616E+03  0.19133320492E+03  0.00000000000E+00 0.  1.
         -1    1    1    2    0  502  0.19722989512E+02 -0.36681135180E+02 -0.31621673594E+03  0.31894752873E+03  0.00000000000E+00 0. -1.
<mgrwt>
<rscale>  1 0.30000000E+03</rscale>
<asrwt>0</asrwt>
<pdfrwt beam="1">  1       21 0.72883048E-02 0.30000000E+03</pdfrwt>
<pdfrwt beam="2">0</pdfrwt>
<totfact> 0.15038990E+04</totfact>
</mgrwt>
</event>
<event>
 6    1  0.1280499E-001  0.3000000E+03  0.7818608E-02  0.1093470E+00
         21   -1    0    0  501  502  0.00000000000E+00  0.00000000000E+00  0.13683409389E+01  0.13683409389E+01  0.00000000000E+00 0. -1.
         13   -1    0    0    0    0 -0.00000000000E+00 -0.00000000000E+00 -0.10000000000E+04  0.10000000000E+04  0.00000000000E+00 0.  1.
    9000005    2    1    2  501    0  0.11382833542E+02  0.30368966475E+02 -0.73898801347E+03  0.73970698399E+03  0.33608165621E+01 0.  0.
         13    1    3    3    0    0  0.75751893364E+01  0.23494563583E+02 -0.57930711781E+03  0.57983283346E+03  0.00000000000E+00 0.  1.
          3    1    3    3  501    0  0.38076442055E+01  0.68744028918E+01 -0.15968089565E+03  0.15987415052E+03  0.00000000000E+00 0.  1.
         -3    1    1    2    0  502 -0.11382833542E+02 -0.30368966475E+02 -0.25964364560E+03  0.26166135695E+03  0.00000000000E+00 0. -1.
<mgrwt>
<rscale>  1 0.30000000E+03</rscale>
<asrwt>0</asrwt>
<pdfrwt beam="1">  1       21 0.49757957E-02 0.30000000E+03</pdfrwt>
<pdfrwt beam="2">0</pdfrwt>
<totfact> 0.29043898E+04</totfact>
</mgrwt>
</event>
<event>
 6    1  0.1280499E-001  0.3000000E+03  0.7818608E-02  0.1093470E+00
         21   -1    0    0  501  502  0.00000000000E+00  0.00000000000E+00  0.51164564734E+01  0.51164564734E+01  0.00000000000E+00 0. -1.
         13   -1    0    0    0    0 -0.00000000000E+00 -0.00000000000E+00 -0.10000000000E+04  0.10000000000E+04  0.00000000000E+00 0.  1.
    9000005    2    1    2  501    0 -0.44393177427E+02 -0.32966697822E+02 -0.81596485128E+03  0.81784805070E+03  0.43861297852E+01 0.  0.
         13    1    3    3    0    0 -0.73674149836E+01 -0.40500159779E+01 -0.10871755261E+03  0.10904213716E+03  0.00000000000E+00 0.  1.
          3    1    3    3  501    0 -0.37025762444E+02 -0.28916681844E+02 -0.70724729868E+03  0.70880591353E+03  0.00000000000E+00 0.  1.
         -3    1    1    2    0  502  0.44393177427E+02  0.32966697822E+02 -0.17891869224E+03  0.18726840577E+03  0.00000000000E+00 0. -1.
<mgrwt>
<rscale>  1 0.30000000E+03</rscale>
<asrwt>0</asrwt>
<pdfrwt beam="1">  1       21 0.18605336E-01 0.30000000E+03</pdfrwt>
<pdfrwt beam="2">0</pdfrwt>
<totfact> 0.27523028E+03</totfact>
</mgrwt>
</event>
<event>
 6    1  0.1280499E-001  0.3000000E+03  0.7818608E-02  0.1093470E+00
         21   -1    0    0  501  502  0.00000000000E+00  0.00000000000E+00  0.14053317014E+01  0.14053317014E+01  0.00000000000E+00 0. -1.
         13   -1    0    0    0    0 -0.00000000000E+00 -0.00000000000E+00 -0.10000000000E+04  0.10000000000E+04  0.00000000000E+00 0.  1.
    9000005    2    1    2  501    0  0.31819234795E+02  0.11883177583E+02 -0.70975779779E+03  0.71057821574E+03  0.34052239206E+01 0.  0.
         13    1    3    3    0    0  0.12970446981E+02  0.56786456873E+01 -0.26508873115E+03  0.26546659846E+03  0.00000000000E+00 0.  1.
          3    1    3    3  501    0  0.18848787814E+02  0.62045318960E+01 -0.44466906664E+03  0.44511161729E+03  0.00000000000E+00 0.  1.
         -1    1    1    2    0  502 -0.31819234795E+02 -0.11883177583E+02 -0.28883687051E+03  0.29082711596E+03  0.00000000000E+00 0. -1.
<mgrwt>
<rscale>  1 0.30000000E+03</rscale>
<asrwt>0</asrwt>
<pdfrwt beam="1">  1       21 0.51103079E-02 0.30000000E+03</pdfrwt>
<pdfrwt beam="2">0</pdfrwt>
<totfact> 0.27752232E+04</totfact>
</mgrwt>
</event>
<event>
 6    1  0.1280499E-001  0.3000000E+03  0.7818608E-02  0.1093470E+00
         21   -1    0    0  501  502  0.00000000000E+00  0.00000000000E+00  0.59598656553E+01  0.59598656553E+01  0.00000000000E+00 0. -1.
         13   -1    0    0    0    0 -0.00000000000E+00 -0.00000000000E+00 -0.10000000000E+04  0.10000000000E+04  0.00000000000E+00 0.  1.
    9000005    2    1    2  501    0 -0.45721874135E+02  0.61756099545E+02 -0.54336861428E+03  0.54878470819E+03  0.33014169313E+01 0.  0.
         13    1    3    3    0    0 -0.29724101686E+02  0.37734761906E+02 -0.33439613309E+03  0.33782866708E+03  0.00000000000E+00 0.  1.
          3    1    3    3  501    0 -0.15997772449E+02  0.24021337639E+02 -0.20897248119E+03  0.21095604111E+03  0.00000000000E+00 0.  1.
         -3    1    1    2    0  502  0.45721874135E+02 -0.61756099545E+02 -0.45067152007E+03  0.45717515747E+03  0.00000000000E+00 0. -1.
<mgrwt>
<rscale>  1 0.30000000E+03</rscale>
<asrwt>0</asrwt>
<pdfrwt beam="1">  1       21 0.21672284E-01 0.30000000E+03</pdfrwt>
<pdfrwt beam="2">0</pdfrwt>
<totfact> 0.20571431E+03</totfact>
</mgrwt>
</event>
<event>
 6    1  0.1280499E-001  0.3000000E+03  0.7818608E-02  0.1093470E+00
         21   -1    0    0  501  502  0.00000000000E+00  0.00000000000E+00  0.32386982802E+01  0.32386982802E+01  0.00000000000E+00 0. -1.
         13   -1    0    0    0    0 -0.00000000000E+00 -0.00000000000E+00 -0.10000000000E+04  0.10000000000E+04  0.00000000000E+00 0.  1.
    9000005    2    1    2  501    0 -0.48010338468E+02  0.20268073904E+02 -0.69829789593E+03  0.70025983430E+03  0.53006284490E+01 0.  0.
         13    1    3    3    0    0 -0.17175255451E+02  0.58816434503E+01 -0.21451690170E+03  0.21528372963E+03  0.00000000000E+00 0.  1.
          3    1    3    3  501    0 -0.30835083017E+02  0.14386430454E+02 -0.48378099423E+03  0.48497610467E+03  0.00000000000E+00 0.  1.
         -1    1    1    2    0  502  0.48010338468E+02 -0.20268073904E+02 -0.29846340579E+03  0.30297886398E+03  0.00000000000E+00 0. -1.
<mgrwt>
<rscale>  1 0.30000000E+03</rscale>
<asrwt>0</asrwt>
<pdfrwt beam="1">  1       21 0.11777109E-01 0.30000000E+03</pdfrwt>
<pdfrwt beam="2">0</pdfrwt>
<totfact> 0.64113898E+03</totfact>
</mgrwt>
</event>
<event>
 6    1  0.1280499E-001  0.3000000E+03  0.7818608E-02  0.1093470E+00
         21   -1    0    0  501  502  0.00000000000E+00  0.00000000000E+00  0.23540862711E+01  0.23540862711E+01  0.00000000000E+00 0. -1.
         13   -1    0    0    0    0 -0.00000000000E+00 -0.00000000000E+00 -0.10000000000E+04  0.10000000000E+04  0.00000000000E+00 0.  1.
    9000005    2    1    2  501    0  0.38851007289E+02  0.43191678668E+01 -0.79533874620E+03  0.79630495133E+03  0.31302267338E+01 0.  0.
         13    1    3    3    0    0  0.19307164515E+02  0.31925342302E+01 -0.42135427007E+03  0.42180846338E+03  0.00000000000E+00 0.  1.
          1    1    3    3  501    0  0.19543842774E+02  0.11266336366E+01 -0.37398447613E+03  0.37449648794E+03  0.00000000000E+00 0.  1.
         -1    1    1    2    0  502 -0.38851007289E+02 -0.43191678668E+01 -0.20230716753E+03  0.20604913494E+03  0.00000000000E+00 0. -1.
<mgrwt>
<rscale>  1 0.30000000E+03</rscale>
<asrwt>0</asrwt>
<pdfrwt beam="1">  1       21 0.85603318E-02 0.30000000E+03</pdfrwt>
<pdfrwt beam="2">0</pdfrwt>
<totfact> 0.11338920E+04</totfact>
</mgrwt>
</event>
<event>
 6    1  0.1280499E-001  0.3000000E+03  0.7818608E-02  0.1093470E+00
         21   -1    0    0  501  502  0.00000000000E+00  0.00000000000E+00  0.35527074523E+01  0.35527074523E+01  0.00000000000E+00 0. -1.
         13   -1    0    0    0    0 -0.00000000000E+00 -0.00000000000E+00 -0.10000000000E+04  0.10000000000E+04  0.00000000000E+00 0.  1.
    9000005    2    1    2  501    0  0.25866591112E+02  0.48731132465E+02 -0.68743810688E+03  0.68965705499E+03  0.34494783275E+01 0.  0.
         13    1    3    3    0    0  0.16567403395E+02  0.27583969584E+02 -0.40051264946E+03  0.40180310677E+03  0.00000000000E+00 0.  1.
          3    1    3    3  501    0  0.92991877168E+01  0.21147162881E+02 -0.28692545743E+03  0.28785394823E+03  0.00000000000E+00 0.  1.
         -1    1    1    2    0  502 -0.25866591112E+02 -0.48731132465E+02 -0.30900918566E+03  0.31389565246E+03  0.00000000000E+00 0. -1.
<mgrwt>
<rscale>  1 0.30000000E+03</rscale>
<asrwt>0</asrwt>
<pdfrwt beam="1">  1       21 0.12918963E-01 0.30000000E+03</pdfrwt>
<pdfrwt beam="2">0</pdfrwt>
<totfact> 0.54180275E+03</totfact>
</mgrwt>
</event>
<event>
 6    1  0.1280499E-001  0.3000000E+03  0.7818608E-02  0.1093470E+00
         21   -1    0    0  501  502  0.00000000000E+00  0.00000000000E+00  0.99867733799E+00  0.99867733799E+00  0.00000000000E+00 0. -1.
         13   -1    0    0    0    0 -0.00000000000E+00 -0.00000000000E+00 -0.10000000000E+04  0.10000000000E+04  0.00000000000E+00 0.  1.
    9000005    2    1    2  501    0 -0.27502562895E+02 -0.14806564505E+02 -0.57144030533E+03  0.57229825880E+03  0.23767928384E+01 0.  0.
         13    1    3    3    0    0 -0.84536318856E+01 -0.41749327060E+01 -0.15403630898E+03  0.15432458793E+03  0.00000000000E+00 0.  1.
          3    1    3    3  501    0 -0.19048931009E+02 -0.10631631799E+02 -0.41740399636E+03  0.41797367087E+03  0.00000000000E+00 0.  1.
         -3    1    1    2    0  502  0.27502562895E+02  0.14806564505E+02 -0.42756101733E+03  0.42870041854E+03  0.00000000000E+00 0. -1.
<mgrwt>
<rscale>  1 0.30000000E+03</rscale>
<asrwt>0</asrwt>
<pdfrwt beam="1">  1       21 0.36315616E-02 0.30000000E+03</pdfrwt>
<pdfrwt beam="2">0</pdfrwt>
<totfact> 0.49460880E+04</totfact>
</mgrwt>
</event>
<event>
 6    1  0.1280499E-001  0.3000000E+03  0.7818608E-02  0.1093470E+00
         21   -1    0    0  501  502  0.00000000000E+00  0.00000000000E+00  0.16938453722E+01  0.16938453722E+01  0.00000000000E+00 0. -1.
         13   -1    0    0    0    0 -0.00000000000E+00 -0.00000000000E+00 -0.10000000000E+04  0.10000000000E+04  0.00000000000E+00 0.  1.
    9000005    2    1    2  501    0  0.33083602827E+02  0.12850132763E+02 -0.75017243948E+03  0.75103473167E+03  0.59015704523E+01 0.  0.
         13    1    3    3    0    0  0.26577268630E+02  0.12344591883E+02 -0.58517669390E+03  0.58590997878E+03  0.00000000000E+00 0.  1.
          1    1    3    3  501    0  0.65063341965E+01  0.50554088001E+00 -0.16499574558E+03  0.16512475289E+03  0.00000000000E+00 0.  1.
         -1    1    1    2    0  502 -0.33083602827E+02 -0.12850132763E+02 -0.24813371515E+03  0.25065911370E+03  0.00000000000E+00 0. -1.
<mgrwt>
<rscale>  1 0.30000000E+03</rscale>
<asrwt>0</asrwt>
<pdfrwt beam="1">  1       21 0.61594507E-02 0.30000000E+03</pdfrwt>
<pdfrwt beam="2">0</pdfrwt>
<totfact> 0.20139248E+04</totfact>
</mgrwt>
</event>
<event>
 6    1  0.1280499E-001  0.3000000E+03  0.7818608E-02  0.1093470E+00
         21   -1    0    0  501  502  0.00000000000E+00  0.00000000000E+00  0.95224690518E+00  0.95224690518E+00  0.00000000000E+00 0. -1.
         13   -1    0    0    0    0 -0.00000000000E+00 -0.00000000000E+00 -0.10000000000E+04  0.10000000000E+04  0.00000000000E+00 0.  1.
    9000005    2    1    2  501    0 -0.26816797102E+02 -0.13986474572E+02 -0.40853747697E+03  0.40966792588E+03  0.31901928492E+01 0.  0.
         13    1    3    3    0    0 -0.79911404521E+01 -0.36733920078E+01 -0.13821033441E+03  0.13848988653E+03  0.00000000000E+00 0.  1.
          1    1    3    3  501    0 -0.18825656650E+02 -0.10313082564E+02 -0.27032714256E+03  0.27117803935E+03  0.00000000000E+00 0.  1.
         -1    1    1    2    0  502  0.26816797102E+02  0.13986474572E+02 -0.59051027613E+03  0.59128432103E+03  0.00000000000E+00 0. -1.
<mgrwt>
<rscale>  1 0.30000000E+03</rscale>
<asrwt>0</asrwt>
<pdfrwt beam="1">  1       21 0.34627233E-02 0.30000000E+03</pdfrwt>
<pdfrwt beam="2">0</pdfrwt>
<totfact> 0.53568340E+04</totfact>
</mgrwt>
</event>
<event>
 6    1  0.1280499E-001  0.3000000E+03  0.7818608E-02  0.1093470E+00
         21   -1    0    0  501  502  0.00000000000E+00  0.00000000000E+00  0.12971016618E+01  0.12971016618E+01  0.00000000000E+00 0. -1.
         13   -1    0    0    0    0 -0.00000000000E+00 -0.00000000000E+00 -0.10000000000E+04  0.10000000000E+04  0.00000000000E+00 0.  1.
    9000005    2    1    2  501    0  0.60954803718E+01  0.34821742609E+02 -0.58919662932E+03  0.59026779248E+03  0.37000271296E+01 0.  0.
         13    1    3    3    0    0  0.50597841984E+01  0.32830148632E+02 -0.54090305721E+03  0.54192207684E+03  0.00000000000E+00 0.  1.
          3    1    3    3  501    0  0.10356961735E+01  0.19915939769E+01 -0.48293572116E+02  0.48345715641E+02  0.00000000000E+00 0.  1.
         -3    1    1    2    0  502 -0.60954803718E+01 -0.34821742609E+02 -0.40950626902E+03  0.41102930918E+03  0.00000000000E+00 0. -1.
<mgrwt>
<rscale>  1 0.30000000E+03</rscale>
<asrwt>0</asrwt>
<pdfrwt beam="1">  1       21 0.47167433E-02 0.30000000E+03</pdfrwt>
<pdfrwt beam="2">0</pdfrwt>
<totfact> 0.31811402E+04</totfact>
</mgrwt>
</event>
<event>
 6    1  0.1280499E-001  0.3000000E+03  0.7818608E-02  0.1093470E+00
         21   -1    0    0  501  502  0.00000000000E+00  0.00000000000E+00  0.24363112217E+01  0.24363112217E+01  0.00000000000E+00 0. -1.
         13   -1    0    0    0    0 -0.00000000000E+00 -0.00000000000E+00 -0.10000000000E+04  0.10000000000E+04  0.00000000000E+00 0.  1.
    9000005    2    1    2  501    0  0.19598192399E+02 -0.40404322179E+02 -0.70576542290E+03  0.70720279963E+03  0.37906793253E+01 0.  0.
         13    1    3    3    0    0  0.44251220366E+01 -0.72150805735E+01 -0.15319698345E+03  0.15343061894E+03  0.00000000000E+00 0.  1.
          1    1    3    3  501    0  0.15173070363E+02 -0.33189241606E+02 -0.55256843946E+03  0.55377218069E+03  0.00000000000E+00 0.  1.
         -3    1    1    2    0  502 -0.19598192399E+02  0.40404322179E+02 -0.29179826588E+03  0.29523351159E+03  0.00000000000E+00 0. -1.
<mgrwt>
<rscale>  1 0.30000000E+03</rscale>
<asrwt>0</asrwt>
<pdfrwt beam="1">  1       21 0.88593322E-02 0.30000000E+03</pdfrwt>
<pdfrwt beam="2">0</pdfrwt>
<totfact> 0.10671604E+04</totfact>
</mgrwt>
</event>
<event>
 6    1  0.1280499E-001  0.3000000E+03  0.7818608E-02  0.1093470E+00
         21   -1    0    0  501  502  0.00000000000E+00  0.00000000000E+00  0.17642688065E+01  0.17642688065E+01  0.00000000000E+00 0. -1.
         13   -1    0    0    0    0 -0.00000000000E+00 -0.00000000000E+00 -0.10000000000E+04  0.10000000000E+04  0.00000000000E+00 0.  1.
    9000005    2    1    2  501    0  0.16033472034E+02 -0.38728930757E+02 -0.50781404679E+03  0.50955452608E+03  0.37022462072E+01 0.  0.
         13    1    3    3    0    0  0.35000226507E+01 -0.10845809974E+02 -0.12193375217E+03  0.12246518554E+03  0.00000000000E+00 0.  1.
          3    1    3    3  501    0  0.12533449384E+02 -0.27883120783E+02 -0.38588029463E+03  0.38708934054E+03  0.00000000000E+00 0.  1.
         -1    1    1    2    0  502 -0.16033472034E+02  0.38728930757E+02 -0.49042168440E+03  0.49220974272E+03  0.00000000000E+00 0. -1.
<mgrwt>
<rscale>  1 0.30000000E+03</rscale>
<asrwt>0</asrwt>
<pdfrwt beam="1">  1       21 0.64155365E-02 0.30000000E+03</pdfrwt>
<pdfrwt beam="2">0</pdfrwt>
<totfact> 0.18770178E+04</totfact>
</mgrwt>
</event>
<event>
 6    1  0.1280499E-001  0.3000000E+03  0.7818608E-02  0.1093470E+00
         21   -1    0    0  501  502  0.00000000000E+00  0.00000000000E+00  0.45407524037E+01  0.45407524037E+01  0.00000000000E+00 0. -1.
         13   -1    0    0    0    0 -0.00000000000E+00 -0.00000000000E+00 -0.10000000000E+04  0.10000000000E+04  0.00000000000E+00 0.  1.
    9000005    2    1    2  501    0 -0.99118439907E+01  0.33163947670E+02 -0.92863037045E+03  0.92927993326E+03  0.29559054485E+01 0.  0.
         13    1    3    3    0    0 -0.91888434567E+01  0.30105981236E+02 -0.81938218967E+03  0.81998657165E+03  0.00000000000E+00 0.  1.
          1    1    3    3  501    0 -0.72300053403E+00  0.30579664333E+01 -0.10924818078E+03  0.10929336161E+03  0.00000000000E+00 0.  1.
         -3    1    1    2    0  502  0.99118439907E+01 -0.33163947670E+02 -0.66828877150E+02  0.75260819139E+02  0.00000000000E+00 0. -1.
<mgrwt>
<rscale>  1 0.30000000E+03</rscale>
<asrwt>0</asrwt>
<pdfrwt beam="1">  1       21 0.16511862E-01 0.30000000E+03</pdfrwt>
<pdfrwt beam="2">0</pdfrwt>
<totfact> 0.34442043E+03</totfact>
</mgrwt>
</event>
<event>
 6    1  0.1280499E-001  0.3000000E+03  0.7818608E-02  0.1093470E+00
         21   -1    0    0  501  502  0.00000000000E+00  0.00000000000E+00  0.12320576907E+01  0.12320576907E+01  0.00000000000E+00 0. -1.
         13   -1    0    0    0    0 -0.00000000000E+00 -0.00000000000E+00 -0.10000000000E+04  0.10000000000E+04  0.00000000000E+00 0.  1.
    9000005    2    1    2  501    0  0.12624842348E+02  0.28004477890E+02 -0.73998517799E+03  0.74063244807E+03  0.38369339143E+01 0.  0.
         13    1    3    3    0    0  0.36097700989E+01  0.45042280444E+01 -0.14727433508E+03  0.14738740884E+03  0.00000000000E+00 0.  1.
          1    1    3    3  501    0  0.90150722493E+01  0.23500249845E+02 -0.59271084291E+03  0.59324503923E+03  0.00000000000E+00 0.  1.
         -1    1    1    2    0  502 -0.12624842348E+02 -0.28004477890E+02 -0.25878276432E+03  0.26059960963E+03  0.00000000000E+00 0. -1.
<mgrwt>
<rscale>  1 0.30000000E+03</rscale>
<asrwt>0</asrwt>
<pdfrwt beam="1">  1       21 0.44802192E-02 0.30000000E+03</pdfrwt>
<pdfrwt beam="2">0</pdfrwt>
<totfact> 0.34716703E+04</totfact>
</mgrwt>
</event>
<event>
 6    1  0.1280499E-001  0.3000000E+03  0.7818608E-02  0.1093470E+00
         21   -1    0    0  501  502  0.00000000000E+00  0.00000000000E+00  0.10572456823E+01  0.10572456823E+01  0.00000000000E+00 0. -1.
         13   -1    0    0    0    0 -0.00000000000E+00 -0.00000000000E+00 -0.10000000000E+04  0.10000000000E+04  0.00000000000E+00 0.  1.
    9000005    2    1    2  501    0 -0.26635417274E+02  0.18468996749E+02 -0.51801241629E+03  0.51903593980E+03  0.33006171491E+01 0.  0.
         13    1    3    3    0    0 -0.23580664653E+02  0.15220688779E+02 -0.45670518282E+03  0.45756676138E+03  0.00000000000E+00 0.  1.
          1    1    3    3  501    0 -0.30547526210E+01  0.32483079705E+01 -0.61307233474E+02  0.61469178411E+02  0.00000000000E+00 0.  1.
         -1    1    1    2    0  502  0.26635417274E+02 -0.18468996749E+02 -0.48093033803E+03  0.48202130589E+03  0.00000000000E+00 0. -1.
<mgrwt>
<rscale>  1 0.30000000E+03</rscale>
<asrwt>0</asrwt>
<pdfrwt beam="1">  1       21 0.38445379E-02 0.30000000E+03</pdfrwt>
<pdfrwt beam="2">0</pdfrwt>
<totfact> 0.44947240E+04</totfact>
</mgrwt>
</event>
<event>
 6    1  0.1280499E-001  0.3000000E+03  0.7818608E-02  0.1093470E+00
         21   -1    0    0  501  502  0.00000000000E+00  0.00000000000E+00  0.17442747649E+01  0.17442747649E+01  0.00000000000E+00 0. -1.
         13   -1    0    0    0    0 -0.00000000000E+00 -0.00000000000E+00 -0.10000000000E+04  0.10000000000E+04  0.00000000000E+00 0.  1.
    9000005    2    1    2  501    0  0.14303068483E+02  0.38269352104E+02 -0.59168814204E+03  0.59312914927E+03  0.61813594099E+01 0.  0.
         13    1    3    3    0    0  0.11865136970E+02  0.23311254958E+02 -0.37995324822E+03  0.38085255273E+03  0.00000000000E+00 0.  1.
          3    1    3    3  501    0  0.24379315125E+01  0.14958097146E+02 -0.21173489381E+03  0.21227659654E+03  0.00000000000E+00 0.  1.
         -3    1    1    2    0  502 -0.14303068483E+02 -0.38269352104E+02 -0.40656758320E+03  0.40861512550E+03  0.00000000000E+00 0. -1.
<mgrwt>
<rscale>  1 0.30000000E+03</rscale>
<asrwt>0</asrwt>
<pdfrwt beam="1">  1       21 0.63428307E-02 0.30000000E+03</pdfrwt>
<pdfrwt beam="2">0</pdfrwt>
<totfact> 0.19143860E+04</totfact>
</mgrwt>
</event>
<event>
 6    1  0.1280499E-001  0.3000000E+03  0.7818608E-02  0.1093470E+00
         21   -1    0    0  501  502  0.00000000000E+00  0.00000000000E+00  0.13185320476E+01  0.13185320476E+01  0.00000000000E+00 0. -1.
         13   -1    0    0    0    0 -0.00000000000E+00 -0.00000000000E+00 -0.10000000000E+04  0.10000000000E+04  0.00000000000E+00 0.  1.
    9000005    2    1    2  501    0  0.33301019824E+02 -0.18334727536E+01 -0.69532803401E+03  0.69613723277E+03  0.36949189498E+01 0.  0.
         13    1    3    3    0    0  0.82784677972E+01 -0.20531900228E+01 -0.18063490318E+03  0.18083616028E+03  0.00000000000E+00 0.  1.
          3    1    3    3  501    0  0.25022552027E+02  0.21971726924E+00 -0.51469313083E+03  0.51530107249E+03  0.00000000000E+00 0.  1.
         -1    1    1    2    0  502 -0.33301019824E+02  0.18334727536E+01 -0.30335343394E+03  0.30518129927E+03  0.00000000000E+00 0. -1.
<mgrwt>
<rscale>  1 0.30000000E+03</rscale>
<asrwt>0</asrwt>
<pdfrwt beam="1">  1       21 0.47946721E-02 0.30000000E+03</pdfrwt>
<pdfrwt beam="2">0</pdfrwt>
<totfact> 0.30936950E+04</totfact>
</mgrwt>
</event>
<event>
 6    1  0.1280499E-001  0.3000000E+03  0.7818608E-02  0.1093470E+00
         21   -1    0    0  501  502  0.00000000000E+00  0.00000000000E+00  0.24363039529E+01  0.24363039529E+01  0.00000000000E+00 0. -1.
         13   -1    0    0    0    0 -0.00000000000E+00 -0.00000000000E+00 -0.10000000000E+04  0.10000000000E+04  0.00000000000E+00 0.  1.
    9000005    2    1    2  501    0 -0.75085135506E+01  0.31449060244E+02 -0.87730850223E+03  0.87791027131E+03  0.32886500619E+01 0.  0.
         13    1    3    3    0    0 -0.29810068827E+01  0.12175959636E+02 -0.38438870576E+03  0.38459305442E+03  0.00000000000E+00 0.  1.
          3    1    3    3  501    0 -0.45275066679E+01  0.19273100608E+02 -0.49291979648E+03  0.49331721689E+03  0.00000000000E+00 0.  1.
         -3    1    1    2    0  502  0.75085135506E+01 -0.31449060244E+02 -0.12025519381E+03  0.12452603264E+03  0.00000000000E+00 0. -1.
<mgrwt>
<rscale>  1 0.30000000E+03</rscale>
<asrwt>0</asrwt>
<pdfrwt beam="1">  1       21 0.88593058E-02 0.30000000E+03</pdfrwt>
<pdfrwt beam="2">0</pdfrwt>
<totfact> 0.10671661E+04</totfact>
</mgrwt>
</event>
<event>
 6    1  0.1280499E-001  0.3000000E+03  0.7818608E-02  0.1093470E+00
         21   -1    0    0  501  502  0.00000000000E+00  0.00000000000E+00  0.25098842353E+01  0.25098842353E+01  0.00000000000E+00 0. -1.
         13   -1    0    0    0    0 -0.00000000000E+00 -0.00000000000E+00 -0.10000000000E+04  0.10000000000E+04  0.00000000000E+00 0.  1.
    9000005    2    1    2  501    0  0.26794689395E+02  0.23247788250E+02 -0.85248528681E+03  0.85322888927E+03  0.31556640416E+01 0.  0.
         13    1    3    3    0    0  0.19039767518E+02  0.17955787342E+02 -0.60594891959E+03  0.60651382194E+03  0.00000000000E+00 0.  1.
          3    1    3    3  501    0  0.77549218768E+01  0.52920009077E+01 -0.24653636722E+03  0.24671506733E+03  0.00000000000E+00 0.  1.
         -3    1    1    2    0  502 -0.26794689395E+02 -0.23247788250E+02 -0.14500482896E+03  0.14928099497E+03  0.00000000000E+00 0. -1.
<mgrwt>
<rscale>  1 0.30000000E+03</rscale>
<asrwt>0</asrwt>
<pdfrwt beam="1">  1       21 0.91268710E-02 0.30000000E+03</pdfrwt>
<pdfrwt beam="2">0</pdfrwt>
<totfact> 0.10123712E+04</totfact>
</mgrwt>
</event>
<event>
 6    1  0.1280499E-001  0.3000000E+03  0.7818608E-02  0.1093470E+00
         21   -1    0    0  501  502  0.00000000000E+00  0.00000000000E+00  0.13358948925E+01  0.13358948925E+01  0.00000000000E+00 0. -1.
         13   -1    0    0    0    0 -0.00000000000E+00 -0.00000000000E+00 -0.10000000000E+04  0.10000000000E+04  0.00000000000E+00 0.  1.
    9000005    2    1    2  501    0 -0.34479557698E+02 -0.97132286590E+01 -0.59492629065E+03  0.59601206197E+03  0.31464265628E+01 0.  0.
         13    1    3    3    0    0 -0.15781878348E+02 -0.28226053762E+01 -0.26634244947E+03  0.26682454005E+03  0.00000000000E+00 0.  1.
          3    1    3    3  501    0 -0.18697679350E+02 -0.68906232829E+01 -0.32858384118E+03  0.32918752192E+03  0.00000000000E+00 0.  1.
         -3    1    1    2    0  502  0.34479557698E+02  0.97132286590E+01 -0.40373781446E+03  0.40532383292E+03  0.00000000000E+00 0. -1.
<mgrwt>
<rscale>  1 0.30000000E+03</rscale>
<asrwt>0</asrwt>
<pdfrwt beam="1">  1       21 0.48578099E-02 0.30000000E+03</pdfrwt>
<pdfrwt beam="2">0</pdfrwt>
<totfact> 0.30255719E+04</totfact>
</mgrwt>
</event>
<event>
 6    1  0.1280499E-001  0.3000000E+03  0.7818608E-02  0.1093470E+00
         21   -1    0    0  501  502  0.00000000000E+00  0.00000000000E+00  0.30135759590E+01  0.30135759590E+01  0.00000000000E+00 0. -1.
         13   -1    0    0    0    0 -0.00000000000E+00 -0.00000000000E+00 -0.10000000000E+04  0.10000000000E+04  0.00000000000E+00 0.  1.
    9000005    2    1    2  501    0  0.32074781678E+02  0.44494386180E+02 -0.50238176691E+03  0.50537685216E+03  0.31274511674E+01 0.  0.
         13    1    3    3    0    0  0.32110266786E+02  0.44285809204E+02 -0.49922561044E+03  0.50221361217E+03  0.00000000000E+00 0.  1.
          1    1    3    3  501    0 -0.35485107438E-01  0.20857697592E+00 -0.31561564700E+01  0.31632399863E+01  0.00000000000E+00 0.  1.
         -1    1    1    2    0  502 -0.32074781678E+02 -0.44494386180E+02 -0.49460465713E+03  0.49763672380E+03  0.00000000000E+00 0. -1.
<mgrwt>
<rscale>  1 0.30000000E+03</rscale>
<asrwt>0</asrwt>
<pdfrwt beam="1">  1       21 0.10958481E-01 0.30000000E+03</pdfrwt>
<pdfrwt beam="2">0</pdfrwt>
<totfact> 0.73015226E+03</totfact>
</mgrwt>
</event>
<event>
 6    1  0.1280499E-001  0.3000000E+03  0.7818608E-02  0.1093470E+00
         21   -1    0    0  501  502  0.00000000000E+00  0.00000000000E+00  0.12155385367E+01  0.12155385367E+01  0.00000000000E+00 0. -1.
         13   -1    0    0    0    0 -0.00000000000E+00 -0.00000000000E+00 -0.10000000000E+04  0.10000000000E+04  0.00000000000E+00 0.  1.
    9000005    2    1    2  501    0  0.30102775377E+02 -0.12438831777E+02 -0.67618675396E+03  0.67697768987E+03  0.30601846472E+01 0.  0.
         13    1    3    3    0    0  0.25559300340E+01 -0.20078415475E+01 -0.62587027484E+02  0.62671366790E+02  0.00000000000E+00 0.  1.
          3    1    3    3  501    0  0.27546845343E+02 -0.10430990229E+02 -0.61359972647E+03  0.61430632308E+03  0.00000000000E+00 0.  1.
         -1    1    1    2    0  502 -0.30102775377E+02  0.12438831777E+02 -0.32259770750E+03  0.32423784867E+03  0.00000000000E+00 0. -1.
<mgrwt>
<rscale>  1 0.30000000E+03</rscale>
<asrwt>0</asrwt>
<pdfrwt beam="1">  1       21 0.44201495E-02 0.30000000E+03</pdfrwt>
<pdfrwt beam="2">0</pdfrwt>
<totfact> 0.35520375E+04</totfact>
</mgrwt>
</event>
<event>
 6    1  0.1280499E-001  0.3000000E+03  0.7818608E-02  0.1093470E+00
         21   -1    0    0  501  502  0.00000000000E+00  0.00000000000E+00  0.56519902740E+01  0.56519902740E+01  0.00000000000E+00 0. -1.
         13   -1    0    0    0    0 -0.00000000000E+00 -0.00000000000E+00 -0.10000000000E+04  0.10000000000E+04  0.00000000000E+00 0.  1.
    9000005    2    1    2  501    0 -0.31697023945E+02 -0.29917911714E+02 -0.90681556705E+03  0.90786798704E+03  0.31664605724E+01 0.  0.
         13    1    3    3    0    0 -0.23273663321E+02 -0.21526833027E+02 -0.68700949797E+03  0.68774058936E+03  0.00000000000E+00 0.  1.
          3    1    3    3  501    0 -0.84233606244E+01 -0.83910786873E+01 -0.21980606908E+03  0.22012739768E+03  0.00000000000E+00 0.  1.
         -3    1    1    2    0  502  0.31697023945E+02  0.29917911714E+02 -0.87532442674E+02  0.97784003236E+02  0.00000000000E+00 0. -1.
<mgrwt>
<rscale>  1 0.30000000E+03</rscale>
<asrwt>0</asrwt>
<pdfrwt beam="1">  1       21 0.20552735E-01 0.30000000E+03</pdfrwt>
<pdfrwt beam="2">0</pdfrwt>
<totfact> 0.22774097E+03</totfact>
</mgrwt>
</event>
<event>
 6    1  0.1280499E-001  0.3000000E+03  0.7818608E-02  0.1093470E+00
         21   -1    0    0  501  502  0.00000000000E+00  0.00000000000E+00  0.10609394999E+01  0.10609394999E+01  0.00000000000E+00 0. -1.
         13   -1    0    0    0    0 -0.00000000000E+00 -0.00000000000E+00 -0.10000000000E+04  0.10000000000E+04  0.00000000000E+00 0.  1.
    9000005    2    1    2  501    0 -0.31827203371E+02 -0.38372391280E+01 -0.44920024102E+03  0.45038820100E+03  0.64015461568E+01 0.  0.
         13    1    3    3    0    0 -0.10566204351E+02  0.15093211602E+01 -0.16357218474E+03  0.16392004864E+03  0.00000000000E+00 0.  1.
          1    1    3    3  501    0 -0.21260999021E+02 -0.53465602883E+01 -0.28562805628E+03  0.28646815236E+03  0.00000000000E+00 0.  1.
         -1    1    1    2    0  502  0.31827203371E+02  0.38372391280E+01 -0.54973881948E+03  0.55067273850E+03  0.00000000000E+00 0. -1.
<mgrwt>
<rscale>  1 0.30000000E+03</rscale>
<asrwt>0</asrwt>
<pdfrwt beam="1">  1       21 0.38579700E-02 0.30000000E+03</pdfrwt>
<pdfrwt beam="2">0</pdfrwt>
<totfact> 0.44684481E+04</totfact>
</mgrwt>
</event>
<event>
 6    1  0.1280499E-001  0.3000000E+03  0.7818608E-02  0.1093470E+00
         21   -1    0    0  501  502  0.00000000000E+00  0.00000000000E+00  0.33498704745E+01  0.33498704745E+01  0.00000000000E+00 0. -1.
         13   -1    0    0    0    0 -0.00000000000E+00 -0.00000000000E+00 -0.10000000000E+04  0.10000000000E+04  0.00000000000E+00 0.  1.
    9000005    2    1    2  501    0  0.38186371971E+02 -0.41595021649E+02 -0.60711494606E+03  0.60974346303E+03  0.31918863112E+01 0.  0.
         13    1    3    3    0    0  0.14755289477E+02 -0.16719830490E+02 -0.22377474801E+03  0.22488310107E+03  0.00000000000E+00 0.  1.
          3    1    3    3  501    0  0.23431082494E+02 -0.24875191159E+02 -0.38334019805E+03  0.38486036195E+03  0.00000000000E+00 0.  1.
         -1    1    1    2    0  502 -0.38186371971E+02  0.41595021649E+02 -0.38953518346E+03  0.39360640745E+03  0.00000000000E+00 0. -1.
<mgrwt>
<rscale>  1 0.30000000E+03</rscale>
<asrwt>0</asrwt>
<pdfrwt beam="1">  1       21 0.12181373E-01 0.30000000E+03</pdfrwt>
<pdfrwt beam="2">0</pdfrwt>
<totfact> 0.60305259E+03</totfact>
</mgrwt>
</event>
<event>
 6    1  0.1280499E-001  0.3000000E+03  0.7818608E-02  0.1093470E+00
         21   -1    0    0  501  502  0.00000000000E+00  0.00000000000E+00  0.20832223863E+01  0.20832223863E+01  0.00000000000E+00 0. -1.
         13   -1    0    0    0    0 -0.00000000000E+00 -0.00000000000E+00 -0.10000000000E+04  0.10000000000E+04  0.00000000000E+00 0.  1.
    9000005    2    1    2  501    0 -0.15965857378E+02 -0.31172128235E+02 -0.81984889147E+03  0.82060379585E+03  0.34314337376E+01 0.  0.
         13    1    3    3    0    0 -0.36502552983E+01 -0.54846505714E+01 -0.18163217061E+03  0.18175161940E+03  0.00000000000E+00 0.  1.
          1    1    3    3  501    0 -0.12315602079E+02 -0.25687477663E+02 -0.63821672086E+03  0.63885217645E+03  0.00000000000E+00 0.  1.
         -3    1    1    2    0  502  0.15965857378E+02  0.31172128235E+02 -0.17806788615E+03  0.18147942654E+03  0.00000000000E+00 0. -1.
<mgrwt>
<rscale>  1 0.30000000E+03</rscale>
<asrwt>0</asrwt>
<pdfrwt beam="1">  1       21 0.75753701E-02 0.30000000E+03</pdfrwt>
<pdfrwt beam="2">0</pdfrwt>
<totfact> 0.14056157E+04</totfact>
</mgrwt>
</event>
<event>
 6    1  0.1280499E-001  0.3000000E+03  0.7818608E-02  0.1093470E+00
         21   -1    0    0  501  502  0.00000000000E+00  0.00000000000E+00  0.11317670007E+01  0.11317670007E+01  0.00000000000E+00 0. -1.
         13   -1    0    0    0    0 -0.00000000000E+00 -0.00000000000E+00 -0.10000000000E+04  0.10000000000E+04  0.00000000000E+00 0.  1.
    9000005    2    1    2  501    0 -0.30235753870E+02 -0.71741963461E+01 -0.31210912473E+03  0.31366995519E+03  0.33264312200E+01 0.  0.
         13    1    3    3    0    0 -0.27286733341E+02 -0.74325709641E+01 -0.28494031231E+03  0.28634034034E+03  0.00000000000E+00 0.  1.
          3    1    3    3  501    0 -0.29490205295E+01  0.25837461798E+00 -0.27168812425E+02  0.27329614855E+02  0.00000000000E+00 0.  1.
         -3    1    1    2    0  502  0.30235753870E+02  0.71741963461E+01 -0.68675910827E+03  0.68746181181E+03  0.00000000000E+00 0. -1.
<mgrwt>
<rscale>  1 0.30000000E+03</rscale>
<asrwt>0</asrwt>
<pdfrwt beam="1">  1       21 0.41155250E-02 0.30000000E+03</pdfrwt>
<pdfrwt beam="2">0</pdfrwt>
<totfact> 0.40077377E+04</totfact>
</mgrwt>
</event>
<event>
 6    1  0.1280499E-001  0.3000000E+03  0.7818608E-02  0.1093470E+00
         21   -1    0    0  501  502  0.00000000000E+00  0.00000000000E+00  0.23560238733E+01  0.23560238733E+01  0.00000000000E+00 0. -1.
         13   -1    0    0    0    0 -0.00000000000E+00 -0.00000000000E+00 -0.10000000000E+04  0.10000000000E+04  0.00000000000E+00 0.  1.
    9000005    2    1    2  501    0 -0.46398592718E+02  0.13126141497E+02 -0.55195965235E+03  0.55407080055E+03  0.31415273554E+01 0.  0.
         13    1    3    3    0    0 -0.15663125325E+02  0.51605059164E+01 -0.17389683937E+03  0.17467705934E+03  0.00000000000E+00 0.  1.
          1    1    3    3  501    0 -0.30735467393E+02  0.79656355806E+01 -0.37806281298E+03  0.37939374121E+03  0.00000000000E+00 0.  1.
         -3    1    1    2    0  502  0.46398592718E+02 -0.13126141497E+02 -0.44568432377E+03  0.44828522333E+03  0.00000000000E+00 0. -1.
<mgrwt>
<rscale>  1 0.30000000E+03</rscale>
<asrwt>0</asrwt>
<pdfrwt beam="1">  1       21 0.85673776E-02 0.30000000E+03</pdfrwt>
<pdfrwt beam="2">0</pdfrwt>
<totfact> 0.11322473E+04</totfact>
</mgrwt>
</event>
<event>
 6    1  0.1280499E-001  0.3000000E+03  0.7818608E-02  0.1093470E+00
         21   -1    0    0  501  502  0.00000000000E+00  0.00000000000E+00  0.18489661353E+01  0.18489661353E+01  0.00000000000E+00 0. -1.
         13   -1    0    0    0    0 -0.00000000000E+00 -0.00000000000E+00 -0.10000000000E+04  0.10000000000E+04  0.00000000000E+00 0.  1.
    9000005    2    1    2  501    0  0.42424777842E+02  0.62107032249E+01 -0.52614453531E+03  0.52789900117E+03  0.32937507399E+01 0.  0.
         13    1    3    3    0    0  0.12091395413E+01  0.14437194200E+00 -0.23254154987E+02  0.23286016960E+02  0.00000000000E+00 0.  1.
          3    1    3    3  501    0  0.41215638300E+02  0.60663312829E+01 -0.50289038032E+03  0.50461298421E+03  0.00000000000E+00 0.  1.
         -3    1    1    2    0  502 -0.42424777842E+02 -0.62107032249E+01 -0.47200649856E+03  0.47394996496E+03  0.00000000000E+00 0. -1.
<mgrwt>
<rscale>  1 0.30000000E+03</rscale>
<asrwt>0</asrwt>
<pdfrwt beam="1">  1       21 0.67235274E-02 0.30000000E+03</pdfrwt>
<pdfrwt beam="2">0</pdfrwt>
<totfact> 0.17305615E+04</totfact>
</mgrwt>
</event>
<event>
 6    1  0.1280499E-001  0.3000000E+03  0.7818608E-02  0.1093470E+00
         21   -1    0    0  501  502  0.00000000000E+00  0.00000000000E+00  0.26363533026E+01  0.26363533026E+01  0.00000000000E+00 0. -1.
         13   -1    0    0    0    0 -0.00000000000E+00 -0.00000000000E+00 -0.10000000000E+04  0.10000000000E+04  0.00000000000E+00 0.  1.
    9000005    2    1    2  501    0 -0.12980486430E+02  0.34033660484E+02 -0.85171924661E+03  0.85250616196E+03  0.37812789568E+01 0.  0.
         13    1    3    3    0    0 -0.83589961702E+01  0.21752150721E+02 -0.50136239042E+03  0.50190365151E+03  0.00000000000E+00 0.  1.
          1    1    3    3  501    0 -0.46214902597E+01  0.12281509763E+02 -0.35035685619E+03  0.35060251045E+03  0.00000000000E+00 0.  1.
         -3    1    1    2    0  502  0.12980486430E+02 -0.34033660484E+02 -0.14564440009E+03  0.15013019134E+03  0.00000000000E+00 0. -1.
<mgrwt>
<rscale>  1 0.30000000E+03</rscale>
<asrwt>0</asrwt>
<pdfrwt beam="1">  1       21 0.95867595E-02 0.30000000E+03</pdfrwt>
<pdfrwt beam="2">0</pdfrwt>
<totfact> 0.92762079E+03</totfact>
</mgrwt>
</event>
<event>
 6    1  0.1280499E-001  0.3000000E+03  0.7818608E-02  0.1093470E+00
         21   -1    0    0  501  502  0.00000000000E+00  0.00000000000E+00  0.32063353988E+01  0.32063353988E+01  0.00000000000E+00 0. -1.
         13   -1    0    0    0    0 -0.00000000000E+00 -0.00000000000E+00 -0.10000000000E+04  0.10000000000E+04  0.00000000000E+00 0.  1.
    9000005    2    1    2  501    0 -0.13860253362E+02 -0.48614224080E+02 -0.72360094848E+03  0.72537597430E+03  0.40647319237E+01 0.  0.
         13    1    3    3    0    0 -0.99863098149E+01 -0.39092371189E+02 -0.59305137802E+03  0.59442230513E+03  0.00000000000E+00 0.  1.
          1    1    3    3  501    0 -0.38739435471E+01 -0.95218528911E+01 -0.13054957046E+03  0.13095366917E+03  0.00000000000E+00 0.  1.
         -1    1    1    2    0  502  0.13860253362E+02  0.48614224080E+02 -0.27319271612E+03  0.27783036110E+03  0.00000000000E+00 0. -1.
<mgrwt>
<rscale>  1 0.30000000E+03</rscale>
<asrwt>0</asrwt>
<pdfrwt beam="1">  1       21 0.11659426E-01 0.30000000E+03</pdfrwt>
<pdfrwt beam="2">0</pdfrwt>
<totfact> 0.65290055E+03</totfact>
</mgrwt>
</event>
<event>
 6    1  0.1280499E-001  0.3000000E+03  0.7818608E-02  0.1093470E+00
         21   -1    0    0  501  502  0.00000000000E+00  0.00000000000E+00  0.77620162865E+01  0.77620162865E+01  0.00000000000E+00 0. -1.
         13   -1    0    0    0    0 -0.00000000000E+00 -0.00000000000E+00 -0.10000000000E+04  0.10000000000E+04  0.00000000000E+00 0.  1.
    9000005    2    1    2  501    0 -0.64924207386E+02  0.33338550598E+02 -0.77822304531E+03  0.78164477784E+03  0.32922363377E+01 0.  0.
         13    1    3    3    0    0 -0.47404051090E+02  0.23443261233E+02 -0.57669667862E+03  0.57911638700E+03  0.00000000000E+00 0.  1.
          1    1    3    3  501    0 -0.17520156296E+02  0.98952893648E+01 -0.20152636669E+03  0.20252839084E+03  0.00000000000E+00 0.  1.
         -3    1    1    2    0  502  0.64924207386E+02 -0.33338550598E+02 -0.21401493841E+03  0.22611723845E+03  0.00000000000E+00 0. -1.
<mgrwt>
<rscale>  1 0.30000000E+03</rscale>
<asrwt>0</asrwt>
<pdfrwt beam="1">  1       21 0.28225573E-01 0.30000000E+03</pdfrwt>
<pdfrwt beam="2">0</pdfrwt>
<totfact> 0.12277018E+03</totfact>
</mgrwt>
</event>
<event>
 6    1  0.1280499E-001  0.3000000E+03  0.7818608E-02  0.1093470E+00
         21   -1    0    0  501  502  0.00000000000E+00  0.00000000000E+00  0.38893170085E+01  0.38893170085E+01  0.00000000000E+00 0. -1.
         13   -1    0    0    0    0 -0.00000000000E+00 -0.00000000000E+00 -0.10000000000E+04  0.10000000000E+04  0.00000000000E+00 0.  1.
    9000005    2    1    2  501    0  0.40631216957E+02 -0.30384687901E+02 -0.78968874794E+03  0.79132370285E+03  0.32800954635E+01 0.  0.
         13    1    3    3    0    0  0.55371659726E+01 -0.55619649757E+01 -0.12704197871E+03  0.12728417033E+03  0.00000000000E+00 0.  1.
          3    1    3    3  501    0  0.35094050984E+02 -0.24822722926E+02 -0.66264676923E+03  0.66403953253E+03  0.00000000000E+00 0.  1.
         -1    1    1    2    0  502 -0.40631216957E+02  0.30384687901E+02 -0.20642193505E+03  0.21256561416E+03  0.00000000000E+00 0. -1.
<mgrwt>
<rscale>  1 0.30000000E+03</rscale>
<asrwt>0</asrwt>
<pdfrwt beam="1">  1       21 0.14143001E-01 0.30000000E+03</pdfrwt>
<pdfrwt beam="2">0</pdfrwt>
<totfact> 0.45901226E+03</totfact>
</mgrwt>
</event>
<event>
 6    1  0.1280499E-001  0.3000000E+03  0.7818608E-02  0.1093470E+00
         21   -1    0    0  501  502  0.00000000000E+00  0.00000000000E+00  0.41278630343E+01  0.41278630343E+01  0.00000000000E+00 0. -1.
         13   -1    0    0    0    0 -0.00000000000E+00 -0.00000000000E+00 -0.10000000000E+04  0.10000000000E+04  0.00000000000E+00 0.  1.
    9000005    2    1    2  501    0 -0.21096369171E+02 -0.35897472571E+02 -0.88017434525E+03  0.88116581874E+03  0.35548206305E+01 0.  0.
         13    1    3    3    0    0 -0.21080095869E+01 -0.58713406721E+01 -0.14254504060E+03  0.14268148073E+03  0.00000000000E+00 0.  1.
          3    1    3    3  501    0 -0.18988359584E+02 -0.30026131899E+02 -0.73762930466E+03  0.73848433801E+03  0.00000000000E+00 0.  1.
         -3    1    1    2    0  502  0.21096369171E+02  0.35897472571E+02 -0.11569779172E+03  0.12296204429E+03  0.00000000000E+00 0. -1.
<mgrwt>
<rscale>  1 0.30000000E+03</rscale>
<asrwt>0</asrwt>
<pdfrwt beam="1">  1       21 0.15010443E-01 0.30000000E+03</pdfrwt>
<pdfrwt beam="2">0</pdfrwt>
<totfact> 0.41127348E+03</totfact>
</mgrwt>
</event>
<event>
 6    1  0.1280499E-001  0.3000000E+03  0.7818608E-02  0.1093470E+00
         21   -1    0    0  501  502  0.00000000000E+00  0.00000000000E+00  0.14540372699E+01  0.14540372699E+01  0.00000000000E+00 0. -1.
         13   -1    0    0    0    0 -0.00000000000E+00 -0.00000000000E+00 -0.10000000000E+04  0.10000000000E+04  0.00000000000E+00 0.  1.
    9000005    2    1    2  501    0  0.12011345884E+00  0.32542775305E+02 -0.75899445116E+03  0.75970215342E+03  0.39671602089E+01 0.  0.
         13    1    3    3    0    0 -0.15278037502E+01  0.16401709121E+02 -0.40988921198E+03  0.41022008282E+03  0.00000000000E+00 0.  1.
          1    1    3    3  501    0  0.16479172090E+01  0.16141066185E+02 -0.34910523918E+03  0.34948207060E+03  0.00000000000E+00 0.  1.
         -1    1    1    2    0  502 -0.12011345884E+00 -0.32542775305E+02 -0.23955151157E+03  0.24175188385E+03  0.00000000000E+00 0. -1.
<mgrwt>
<rscale>  1 0.30000000E+03</rscale>
<asrwt>0</asrwt>
<pdfrwt beam="1">  1       21 0.52874194E-02 0.30000000E+03</pdfrwt>
<pdfrwt beam="2">0</pdfrwt>
<totfact> 0.26183064E+04</totfact>
</mgrwt>
</event>
<event>
 6    1  0.1280499E-001  0.3000000E+03  0.7818608E-02  0.1093470E+00
         21   -1    0    0  501  502  0.00000000000E+00  0.00000000000E+00  0.16539803154E+01  0.16539803154E+01  0.00000000000E+00 0. -1.
         13   -1    0    0    0    0 -0.00000000000E+00 -0.00000000000E+00 -0.10000000000E+04  0.10000000000E+04  0.00000000000E+00 0.  1.
    9000005    2    1    2  501    0  0.19520165508E+02 -0.27116836996E+02 -0.78406996841E+03  0.78478861687E+03  0.33313817662E+01 0.  0.
         13    1    3    3    0    0  0.14533643338E+02 -0.18469048261E+02 -0.57621400905E+03  0.57669308714E+03  0.00000000000E+00 0.  1.
          3    1    3    3  501    0  0.49865221700E+01 -0.86477887355E+01 -0.20785595936E+03  0.20809552973E+03  0.00000000000E+00 0.  1.
         -3    1    1    2    0  502 -0.19520165508E+02  0.27116836996E+02 -0.21427605128E+03  0.21686536344E+03  0.00000000000E+00 0. -1.
<mgrwt>
<rscale>  1 0.30000000E+03</rscale>
<asrwt>0</asrwt>
<pdfrwt beam="1">  1       21 0.60144866E-02 0.30000000E+03</pdfrwt>
<pdfrwt beam="2">0</pdfrwt>
<totfact> 0.20984206E+04</totfact>
</mgrwt>
</event>
<event>
 6    1  0.1280499E-001  0.3000000E+03  0.7818608E-02  0.1093470E+00
         21   -1    0    0  501  502  0.00000000000E+00  0.00000000000E+00  0.13577675792E+01  0.13577675792E+01  0.00000000000E+00 0. -1.
         13   -1    0    0    0    0 -0.00000000000E+00 -0.00000000000E+00 -0.10000000000E+04  0.10000000000E+04  0.00000000000E+00 0.  1.
    9000005    2    1    2  501    0  0.26936775084E+02 -0.20438540236E+02 -0.69685443051E+03  0.69768162238E+03  0.31976727752E+01 0.  0.
         13    1    3    3    0    0  0.20734645552E+01 -0.79724161608E+00 -0.36616334477E+02  0.36683658487E+02  0.00000000000E+00 0.  1.
          1    1    3    3  501    0  0.24863310528E+02 -0.19641298620E+02 -0.66023809603E+03  0.66099796390E+03  0.00000000000E+00 0.  1.
         -3    1    1    2    0  502 -0.26936775084E+02  0.20438540236E+02 -0.30178780191E+03  0.30367614519E+03  0.00000000000E+00 0. -1.
<mgrwt>
<rscale>  1 0.30000000E+03</rscale>
<asrwt>0</asrwt>
<pdfrwt beam="1">  1       21 0.49373471E-02 0.30000000E+03</pdfrwt>
<pdfrwt beam="2">0</pdfrwt>
<totfact> 0.29430355E+04</totfact>
</mgrwt>
</event>
<event>
 6    1  0.1280499E-001  0.3000000E+03  0.7818608E-02  0.1093470E+00
         21   -1    0    0  501  502  0.00000000000E+00  0.00000000000E+00  0.13064182711E+01  0.13064182711E+01  0.00000000000E+00 0. -1.
         13   -1    0    0    0    0 -0.00000000000E+00 -0.00000000000E+00 -0.10000000000E+04  0.10000000000E+04  0.00000000000E+00 0.  1.
    9000005    2    1    2  501    0 -0.28674134514E+02  0.21849813530E+02 -0.48509958480E+03  0.48644875442E+03  0.33411323633E+01 0.  0.
         13    1    3    3    0    0 -0.39053706596E+01  0.35151417745E+01 -0.57128739947E+02  0.57369862032E+02  0.00000000000E+00 0.  1.
          1    1    3    3  501    0 -0.24768763854E+02  0.18334671755E+02 -0.42797084485E+03  0.42907889239E+03  0.00000000000E+00 0.  1.
         -1    1    1    2    0  502  0.28674134514E+02 -0.21849813530E+02 -0.51359399693E+03  0.51485766385E+03  0.00000000000E+00 0. -1.
<mgrwt>
<rscale>  1 0.30000000E+03</rscale>
<asrwt>0</asrwt>
<pdfrwt beam="1">  1       21 0.47506219E-02 0.30000000E+03</pdfrwt>
<pdfrwt beam="2">0</pdfrwt>
<totfact> 0.31426551E+04</totfact>
</mgrwt>
</event>
<event>
 6    1  0.1280499E-001  0.3000000E+03  0.7818608E-02  0.1093470E+00
         21   -1    0    0  501  502  0.00000000000E+00  0.00000000000E+00  0.76271601606E+01  0.76271601606E+01  0.00000000000E+00 0. -1.
         13   -1    0    0    0    0 -0.00000000000E+00 -0.00000000000E+00 -0.10000000000E+04  0.10000000000E+04  0.00000000000E+00 0.  1.
    9000005    2    1    2  501    0  0.19772394483E+02 -0.28839610618E+02 -0.95783697004E+03  0.95848047129E+03  0.32375828596E+01 0.  0.
         13    1    3    3    0    0  0.77802828460E+01 -0.14148078100E+02 -0.44898044496E+03  0.44927067662E+03  0.00000000000E+00 0.  1.
          3    1    3    3  501    0  0.11992111637E+02 -0.14691532518E+02 -0.50885652508E+03  0.50920979467E+03  0.00000000000E+00 0.  1.
         -3    1    1    2    0  502 -0.19772394483E+02  0.28839610618E+02 -0.34535869797E+02  0.49146688869E+02  0.00000000000E+00 0. -1.
<mgrwt>
<rscale>  1 0.30000000E+03</rscale>
<asrwt>0</asrwt>
<pdfrwt beam="1">  1       21 0.27735186E-01 0.30000000E+03</pdfrwt>
<pdfrwt beam="2">0</pdfrwt>
<totfact> 0.12711123E+03</totfact>
</mgrwt>
</event>
<event>
 6    1  0.1280499E-001  0.3000000E+03  0.7818608E-02  0.1093470E+00
         21   -1    0    0  501  502  0.00000000000E+00  0.00000000000E+00  0.23274196420E+01  0.23274196420E+01  0.00000000000E+00 0. -1.
         13   -1    0    0    0    0 -0.00000000000E+00 -0.00000000000E+00 -0.10000000000E+04  0.10000000000E+04  0.00000000000E+00 0.  1.
    9000005    2    1    2  501    0 -0.39955332129E+02 -0.11392687257E+02 -0.75312941755E+03  0.75427988315E+03  0.28285406875E+01 0.  0.
         13    1    3    3    0    0 -0.23497324802E+01 -0.13648128659E+01 -0.45843674066E+02  0.45924137539E+02  0.00000000000E+00 0.  1.
          1    1    3    3  501    0 -0.37605599648E+02 -0.10027874391E+02 -0.70728574349E+03  0.70835574561E+03  0.00000000000E+00 0.  1.
         -1    1    1    2    0  502  0.39955332129E+02  0.11392687257E+02 -0.24454316280E+03  0.24804753650E+03  0.00000000000E+00 0. -1.
<mgrwt>
<rscale>  1 0.30000000E+03</rscale>
<asrwt>0</asrwt>
<pdfrwt beam="1">  1       21 0.84633620E-02 0.30000000E+03</pdfrwt>
<pdfrwt beam="2">0</pdfrwt>
<totfact> 0.11569037E+04</totfact>
</mgrwt>
</event>
<event>
 6    1  0.1280499E-001  0.3000000E+03  0.7818608E-02  0.1093470E+00
         21   -1    0    0  501  502  0.00000000000E+00  0.00000000000E+00  0.54098324514E+01  0.54098324514E+01  0.00000000000E+00 0. -1.
         13   -1    0    0    0    0 -0.00000000000E+00 -0.00000000000E+00 -0.10000000000E+04  0.10000000000E+04  0.00000000000E+00 0.  1.
    9000005    2    1    2  501    0  0.42992430112E+02 -0.56241710148E+01 -0.90331028464E+03  0.90435540469E+03  0.30409385656E+01 0.  0.
         13    1    3    3    0    0  0.27967292928E+02 -0.50433477674E+01 -0.60013155892E+03  0.60080403864E+03  0.00000000000E+00 0.  1.
          1    1    3    3  501    0  0.15025137184E+02 -0.58082324741E+00 -0.30317872572E+03  0.30355136605E+03  0.00000000000E+00 0.  1.
         -3    1    1    2    0  502 -0.42992430112E+02  0.56241710148E+01 -0.91279882907E+02  0.10105442776E+03  0.00000000000E+00 0. -1.
<mgrwt>
<rscale>  1 0.30000000E+03</rscale>
<asrwt>0</asrwt>
<pdfrwt beam="1">  1       21 0.19672159E-01 0.30000000E+03</pdfrwt>
<pdfrwt beam="2">0</pdfrwt>
<totfact> 0.24760328E+03</totfact>
</mgrwt>
</event>
<event>
 6    1  0.1280499E-001  0.3000000E+03  0.7818608E-02  0.1093470E+00
         21   -1    0    0  501  502  0.00000000000E+00  0.00000000000E+00  0.14295083357E+01  0.14295083357E+01  0.00000000000E+00 0. -1.
         13   -1    0    0    0    0 -0.00000000000E+00 -0.00000000000E+00 -0.10000000000E+04  0.10000000000E+04  0.00000000000E+00 0.  1.
    9000005    2    1    2  501    0 -0.33130805918E+02  0.79442233402E+01 -0.71508875476E+03  0.71590778211E+03  0.33562366747E+01 0.  0.
         13    1    3    3    0    0 -0.24324605375E+02  0.51241226730E+01 -0.49227419741E+03  0.49290143893E+03  0.00000000000E+00 0.  1.
          1    1    3    3  501    0 -0.88062005431E+01  0.28201006672E+01 -0.22281455735E+03  0.22300634319E+03  0.00000000000E+00 0.  1.
         -1    1    1    2    0  502  0.33130805918E+02 -0.79442233402E+01 -0.28348173691E+03  0.28552172622E+03  0.00000000000E+00 0. -1.
<mgrwt>
<rscale>  1 0.30000000E+03</rscale>
<asrwt>0</asrwt>
<pdfrwt beam="1">  1       21 0.51982231E-02 0.30000000E+03</pdfrwt>
<pdfrwt beam="2">0</pdfrwt>
<totfact> 0.26955617E+04</totfact>
</mgrwt>
</event>
<event>
 6    1  0.1280499E-001  0.3000000E+03  0.7818608E-02  0.1093470E+00
         21   -1    0    0  501  502  0.00000000000E+00  0.00000000000E+00  0.14923413112E+01  0.14923413112E+01  0.00000000000E+00 0. -1.
         13   -1    0    0    0    0 -0.00000000000E+00 -0.00000000000E+00 -0.10000000000E+04  0.10000000000E+04  0.00000000000E+00 0.  1.
    9000005    2    1    2  501    0  0.25055707059E+02 -0.20552231302E+02 -0.77078295158E+03  0.77147337493E+03  0.38245405406E+01 0.  0.
         13    1    3    3    0    0  0.45531882309E+01 -0.20160612376E+01 -0.11023422831E+03  0.11034664071E+03  0.00000000000E+00 0.  1.
          1    1    3    3  501    0  0.20502518828E+02 -0.18536170065E+02 -0.66054872327E+03  0.66112673422E+03  0.00000000000E+00 0.  1.
         -1    1    1    2    0  502 -0.25055707059E+02  0.20552231302E+02 -0.22772470711E+03  0.23001896638E+03  0.00000000000E+00 0. -1.
<mgrwt>
<rscale>  1 0.30000000E+03</rscale>
<asrwt>0</asrwt>
<pdfrwt beam="1">  1       21 0.54267071E-02 0.30000000E+03</pdfrwt>
<pdfrwt beam="2">0</pdfrwt>
<totfact> 0.25043381E+04</totfact>
</mgrwt>
</event>
<event>
 6    1  0.1280499E-001  0.3000000E+03  0.7818608E-02  0.1093470E+00
         21   -1    0    0  501  502  0.00000000000E+00  0.00000000000E+00  0.10464881320E+01  0.10464881320E+01  0.00000000000E+00 0. -1.
         13   -1    0    0    0    0 -0.00000000000E+00 -0.00000000000E+00 -0.10000000000E+04  0.10000000000E+04  0.00000000000E+00 0.  1.
    9000005    2    1    2  501    0 -0.30591017627E+02 -0.51890667981E+01 -0.63760832201E+03  0.63837158824E+03  0.33429941440E+01 0.  0.
         13    1    3    3    0    0 -0.83051511420E+01 -0.25137174948E+01 -0.15746963938E+03  0.15770853381E+03  0.00000000000E+00 0.  1.
          1    1    3    3  501    0 -0.22285866485E+02 -0.26753493033E+01 -0.48013868263E+03  0.48066305443E+03  0.00000000000E+00 0.  1.
         -3    1    1    2    0  502  0.30591017627E+02  0.51890667981E+01 -0.36134518986E+03  0.36267489989E+03  0.00000000000E+00 0. -1.
<mgrwt>
<rscale>  1 0.30000000E+03</rscale>
<asrwt>0</asrwt>
<pdfrwt beam="1">  1       21 0.38054194E-02 0.30000000E+03</pdfrwt>
<pdfrwt beam="2">0</pdfrwt>
<totfact> 0.45726457E+04</totfact>
</mgrwt>
</event>
<event>
 6    1  0.1280499E-001  0.3000000E+03  0.7818608E-02  0.1093470E+00
         21   -1    0    0  501  502  0.00000000000E+00  0.00000000000E+00  0.21808331744E+01  0.21808331744E+01  0.00000000000E+00 0. -1.
         13   -1    0    0    0    0 -0.00000000000E+00 -0.00000000000E+00 -0.10000000000E+04  0.10000000000E+04  0.00000000000E+00 0.  1.
    9000005    2    1    2  501    0 -0.31197770300E+02 -0.33399185866E+02 -0.59963889651E+03  0.60138620477E+03  0.31232344385E+01 0.  0.
         13    1    3    3    0    0 -0.29973380044E+02 -0.32525442107E+02 -0.57275903527E+03  0.57446428991E+03  0.00000000000E+00 0.  1.
          1    1    3    3  501    0 -0.12243902565E+01 -0.87374375920E+00 -0.26879861232E+02  0.26921914856E+02  0.00000000000E+00 0.  1.
         -3    1    1    2    0  502  0.31197770300E+02  0.33399185866E+02 -0.39818027032E+03  0.40079462841E+03  0.00000000000E+00 0. -1.
<mgrwt>
<rscale>  1 0.30000000E+03</rscale>
<asrwt>0</asrwt>
<pdfrwt beam="1">  1       21 0.79303192E-02 0.30000000E+03</pdfrwt>
<pdfrwt beam="2">0</pdfrwt>
<totfact> 0.12971618E+04</totfact>
</mgrwt>
</event>
<event>
 6    1  0.1280499E-001  0.3000000E+03  0.7818608E-02  0.1093470E+00
         21   -1    0    0  501  502  0.00000000000E+00  0.00000000000E+00  0.42727752666E+02  0.42727752666E+02  0.00000000000E+00 0. -1.
         13   -1    0    0    0    0 -0.00000000000E+00 -0.00000000000E+00 -0.10000000000E+04  0.10000000000E+04  0.00000000000E+00 0.  1.
    9000005    2    1    2  501    0  0.95408933556E+02 -0.17875524075E+03 -0.37582482977E+03  0.42698641079E+03  0.40977599109E+01 0.  0.
         13    1    3    3    0    0  0.32514467875E+02 -0.57135768239E+02 -0.12341713544E+03  0.13983374398E+03  0.00000000000E+00 0.  1.
          1    1    3    3  501    0  0.62894465681E+02 -0.12161947251E+03 -0.25240769432E+03  0.28715266681E+03  0.00000000000E+00 0.  1.
         -1    1    1    2    0  502 -0.95408933556E+02  0.17875524075E+03 -0.58144741757E+03  0.61574134187E+03  0.00000000000E+00 0. -1.
<mgrwt>
<rscale>  1 0.30000000E+03</rscale>
<asrwt>0</asrwt>
<pdfrwt beam="1">  1       21 0.15537397E+00 0.30000000E+03</pdfrwt>
<pdfrwt beam="2">0</pdfrwt>
<totfact> 0.21505535E+01</totfact>
</mgrwt>
</event>
<event>
 6    1  0.1280499E-001  0.3000000E+03  0.7818608E-02  0.1093470E+00
         21   -1    0    0  501  502  0.00000000000E+00  0.00000000000E+00  0.13582827565E+01  0.13582827565E+01  0.00000000000E+00 0. -1.
         13   -1    0    0    0    0 -0.00000000000E+00 -0.00000000000E+00 -0.10000000000E+04  0.10000000000E+04  0.00000000000E+00 0.  1.
    9000005    2    1    2  501    0  0.59529147706E+01 -0.35428257234E+02 -0.39311507600E+03  0.39476689487E+03  0.32923700112E+01 0.  0.
         13    1    3    3    0    0  0.25637598081E+01 -0.21869507886E+02 -0.25311333538E+03  0.25406929918E+03  0.00000000000E+00 0.  1.
          3    1    3    3  501    0  0.33891549625E+01 -0.13558749348E+02 -0.14000174062E+03  0.14069759569E+03  0.00000000000E+00 0.  1.
         -1    1    1    2    0  502 -0.59529147706E+01  0.35428257234E+02 -0.60552664124E+03  0.60659138788E+03  0.00000000000E+00 0. -1.
<mgrwt>
<rscale>  1 0.30000000E+03</rscale>
<asrwt>0</asrwt>
<pdfrwt beam="1">  1       21 0.49392204E-02 0.30000000E+03</pdfrwt>
<pdfrwt beam="2">0</pdfrwt>
<totfact> 0.29411340E+04</totfact>
</mgrwt>
</event>
<event>
 6    1  0.1280499E-001  0.3000000E+03  0.7818608E-02  0.1093470E+00
         21   -1    0    0  501  502  0.00000000000E+00  0.00000000000E+00  0.12853951875E+01  0.12853951875E+01  0.00000000000E+00 0. -1.
         13   -1    0    0    0    0 -0.00000000000E+00 -0.00000000000E+00 -0.10000000000E+04  0.10000000000E+04  0.00000000000E+00 0.  1.
    9000005    2    1    2  501    0 -0.19268200027E+02  0.26745072711E+02 -0.30533805808E+03  0.30712576081E+03  0.28880428925E+01 0.  0.
         13    1    3    3    0    0 -0.79767177867E+01  0.87452679243E+01 -0.11162542007E+03  0.11225124562E+03  0.00000000000E+00 0.  1.
          3    1    3    3  501    0 -0.11291482241E+02  0.17999804786E+02 -0.19371263802E+03  0.19487451519E+03  0.00000000000E+00 0.  1.
         -3    1    1    2    0  502  0.19268200027E+02 -0.26745072711E+02 -0.69337654673E+03  0.69415963438E+03  0.00000000000E+00 0. -1.
<mgrwt>
<rscale>  1 0.30000000E+03</rscale>
<asrwt>0</asrwt>
<pdfrwt beam="1">  1       21 0.46741742E-02 0.30000000E+03</pdfrwt>
<pdfrwt beam="2">0</pdfrwt>
<totfact> 0.32305537E+04</totfact>
</mgrwt>
</event>
<event>
 6    1  0.1280499E-001  0.3000000E+03  0.7818608E-02  0.1093470E+00
         21   -1    0    0  501  502  0.00000000000E+00  0.00000000000E+00  0.14432629790E+01  0.14432629790E+01  0.00000000000E+00 0. -1.
         13   -1    0    0    0    0 -0.00000000000E+00 -0.00000000000E+00 -0.10000000000E+04  0.10000000000E+04  0.00000000000E+00 0.  1.
    9000005    2    1    2  501    0  0.21432139937E+02  0.31096769301E+02 -0.46073972623E+03  0.46230183183E+03  0.39424237865E+01 0.  0.
         13    1    3    3    0    0  0.15874251006E+02  0.21111570056E+02 -0.33857380732E+03  0.33960258132E+03  0.00000000000E+00 0.  1.
          3    1    3    3  501    0  0.55578889308E+01  0.99851992447E+01 -0.12216591891E+03  0.12269925051E+03  0.00000000000E+00 0.  1.
         -1    1    1    2    0  502 -0.21432139937E+02 -0.31096769301E+02 -0.53781701079E+03  0.53914143115E+03  0.00000000000E+00 0. -1.
<mgrwt>
<rscale>  1 0.30000000E+03</rscale>
<asrwt>0</asrwt>
<pdfrwt beam="1">  1       21 0.52482401E-02 0.30000000E+03</pdfrwt>
<pdfrwt beam="2">0</pdfrwt>
<totfact> 0.26518125E+04</totfact>
</mgrwt>
</event>
<event>
 6    1  0.1280499E-001  0.3000000E+03  0.7818608E-02  0.1093470E+00
         21   -1    0    0  501  502  0.00000000000E+00  0.00000000000E+00  0.11466041648E+02  0.11466041648E+02  0.00000000000E+00 0. -1.
         13   -1    0    0    0    0 -0.00000000000E+00 -0.00000000000E+00 -0.10000000000E+04  0.10000000000E+04  0.00000000000E+00 0.  1.
    9000005    2    1    2  501    0  0.48638821498E+02 -0.22113760079E+02 -0.93252583453E+03  0.93406020676E+03  0.30470368605E+01 0.  0.
         13    1    3    3    0    0  0.22459833289E+02 -0.11143642649E+02 -0.45946026780E+03  0.46014384987E+03  0.00000000000E+00 0.  1.
          3    1    3    3  501    0  0.26178988208E+02 -0.10970117431E+02 -0.47306556673E+03  0.47391635689E+03  0.00000000000E+00 0.  1.
         -3    1    1    2    0  502 -0.48638821498E+02  0.22113760079E+02 -0.56008123820E+02  0.77405834892E+02  0.00000000000E+00 0. -1.
<mgrwt>
<rscale>  1 0.30000000E+03</rscale>
<asrwt>0</asrwt>
<pdfrwt beam="1">  1       21 0.41694785E-01 0.30000000E+03</pdfrwt>
<pdfrwt beam="2">0</pdfrwt>
<totfact> 0.55368885E+02</totfact>
</mgrwt>
</event>
<event>
 6    1  0.1280499E-001  0.3000000E+03  0.7818608E-02  0.1093470E+00
         21   -1    0    0  501  502  0.00000000000E+00  0.00000000000E+00  0.25775659458E+01  0.25775659458E+01  0.00000000000E+00 0. -1.
         13   -1    0    0    0    0 -0.00000000000E+00 -0.00000000000E+00 -0.10000000000E+04  0.10000000000E+04  0.00000000000E+00 0.  1.
    9000005    2    1    2  501    0  0.26890512775E+02 -0.29142262196E+02 -0.81140457537E+03  0.81238026084E+03  0.34542921477E+01 0.  0.
         13    1    3    3    0    0  0.20486665777E+02 -0.21972664154E+02 -0.64323300767E+03  0.64393416092E+03  0.00000000000E+00 0.  1.
          3    1    3    3  501    0  0.64038469981E+01 -0.71695980418E+01 -0.16817156771E+03  0.16844609992E+03  0.00000000000E+00 0.  1.
         -1    1    1    2    0  502 -0.26890512775E+02  0.29142262196E+02 -0.18601785868E+03  0.19019730511E+03  0.00000000000E+00 0. -1.
<mgrwt>
<rscale>  1 0.30000000E+03</rscale>
<asrwt>0</asrwt>
<pdfrwt beam="1">  1       21 0.93729868E-02 0.30000000E+03</pdfrwt>
<pdfrwt beam="2">0</pdfrwt>
<totfact> 0.96563347E+03</totfact>
</mgrwt>
</event>
<event>
 6    1  0.1280499E-001  0.3000000E+03  0.7818608E-02  0.1093470E+00
         21   -1    0    0  501  502  0.00000000000E+00  0.00000000000E+00  0.13089376650E+01  0.13089376650E+01  0.00000000000E+00 0. -1.
         13   -1    0    0    0    0 -0.00000000000E+00 -0.00000000000E+00 -0.10000000000E+04  0.10000000000E+04  0.00000000000E+00 0.  1.
    9000005    2    1    2  501    0  0.35170333973E+02 -0.75976173196E+01 -0.54125265994E+03  0.54245758029E+03  0.33329175566E+01 0.  0.
         13    1    3    3    0    0  0.34615028834E+02 -0.76100658376E+01 -0.53707888021E+03  0.53824700360E+03  0.00000000000E+00 0.  1.
          3    1    3    3  501    0  0.55530513963E+00  0.12448518003E-01 -0.41737797352E+01  0.42105766875E+01  0.00000000000E+00 0.  1.
         -3    1    1    2    0  502 -0.35170333973E+02  0.75976173196E+01 -0.45743840239E+03  0.45885135737E+03  0.00000000000E+00 0. -1.
<mgrwt>
<rscale>  1 0.30000000E+03</rscale>
<asrwt>0</asrwt>
<pdfrwt beam="1">  1       21 0.47597834E-02 0.30000000E+03</pdfrwt>
<pdfrwt beam="2">0</pdfrwt>
<totfact> 0.31323731E+04</totfact>
</mgrwt>
</event>
<event>
 6    1  0.1280499E-001  0.3000000E+03  0.7818608E-02  0.1093470E+00
         21   -1    0    0  501  502  0.00000000000E+00  0.00000000000E+00  0.21597630914E+01  0.21597630914E+01  0.00000000000E+00 0. -1.
         13   -1    0    0    0    0 -0.00000000000E+00 -0.00000000000E+00 -0.10000000000E+04  0.10000000000E+04  0.00000000000E+00 0.  1.
    9000005    2    1    2  501    0  0.53976449075E+01 -0.41778635130E+02 -0.70981047853E+03  0.71106573939E+03  0.29968946452E+01 0.  0.
         13    1    3    3    0    0  0.29291928293E+00 -0.47186767372E+01 -0.65801068802E+02  0.65970693246E+02  0.00000000000E+00 0.  1.
          1    1    3    3  501    0  0.51047256246E+01 -0.37059958392E+02 -0.64400940973E+03  0.64509504615E+03  0.00000000000E+00 0.  1.
         -1    1    1    2    0  502 -0.53976449075E+01  0.41778635130E+02 -0.28802975837E+03  0.29109402370E+03  0.00000000000E+00 0. -1.
<mgrwt>
<rscale>  1 0.30000000E+03</rscale>
<asrwt>0</asrwt>
<pdfrwt beam="1">  1       21 0.78537005E-02 0.30000000E+03</pdfrwt>
<pdfrwt beam="2">0</pdfrwt>
<totfact> 0.13194545E+04</totfact>
</mgrwt>
</event>
<event>
 6    1  0.1280499E-001  0.3000000E+03  0.7818608E-02  0.1093470E+00
         21   -1    0    0  501  502  0.00000000000E+00  0.00000000000E+00  0.10703304818E+01  0.10703304818E+01  0.00000000000E+00 0. -1.
         13   -1    0    0    0    0 -0.00000000000E+00 -0.00000000000E+00 -0.10000000000E+04  0.10000000000E+04  0.00000000000E+00 0.  1.
    9000005    2    1    2  501    0 -0.24472075568E+02  0.17593642560E+02 -0.69126507973E+03  0.69193295236E+03  0.39219089032E+01 0.  0.
         13    1    3    3    0    0 -0.10210260839E+01  0.15196018299E+01 -0.28861348830E+02  0.28919355807E+02  0.00000000000E+00 0.  1.
          3    1    3    3  501    0 -0.23451049484E+02  0.16074040730E+02 -0.66240373090E+03  0.66301359656E+03  0.00000000000E+00 0.  1.
         -1    1    1    2    0  502  0.24472075568E+02 -0.17593642560E+02 -0.30766458979E+03  0.30913737812E+03  0.00000000000E+00 0. -1.
<mgrwt>
<rscale>  1 0.30000000E+03</rscale>
<asrwt>0</asrwt>
<pdfrwt beam="1">  1       21 0.38921191E-02 0.30000000E+03</pdfrwt>
<pdfrwt beam="2">0</pdfrwt>
<totfact> 0.44027202E+04</totfact>
</mgrwt>
</event>
<event>
 6    1  0.1280499E-001  0.3000000E+03  0.7818608E-02  0.1093470E+00
         21   -1    0    0  501  502  0.00000000000E+00  0.00000000000E+00  0.85774748582E+01  0.85774748582E+01  0.00000000000E+00 0. -1.
         13   -1    0    0    0    0 -0.00000000000E+00 -0.00000000000E+00 -0.10000000000E+04  0.10000000000E+04  0.00000000000E+00 0.  1.
    9000005    2    1    2  501    0  0.58155327324E+01 -0.32268405499E+02 -0.96732656394E+03  0.96788735615E+03  0.31909989020E+01 0.  0.
         13    1    3    3    0    0  0.21698703770E+01 -0.15071632815E+02 -0.40526984636E+03  0.40555580481E+03  0.00000000000E+00 0.  1.
          3    1    3    3  501    0  0.36456623554E+01 -0.17196772683E+02 -0.56205671758E+03  0.56233155133E+03  0.00000000000E+00 0.  1.
         -3    1    1    2    0  502 -0.58155327324E+01  0.32268405499E+02 -0.24095961203E+02  0.40690118711E+02  0.00000000000E+00 0. -1.
<mgrwt>
<rscale>  1 0.30000000E+03</rscale>
<asrwt>0</asrwt>
<pdfrwt beam="1">  1       21 0.31190883E-01 0.30000000E+03</pdfrwt>
<pdfrwt beam="2">0</pdfrwt>
<totfact> 0.10055902E+03</totfact>
</mgrwt>
</event>
<event>
 6    1  0.1280499E-001  0.3000000E+03  0.7818608E-02  0.1093470E+00
         21   -1    0    0  501  502  0.00000000000E+00  0.00000000000E+00  0.95313923913E+01  0.95313923913E+01  0.00000000000E+00 0. -1.
         13   -1    0    0    0    0 -0.00000000000E+00 -0.00000000000E+00 -0.10000000000E+04  0.10000000000E+04  0.00000000000E+00 0.  1.
    9000005    2    1    2  501    0 -0.49531553762E+00 -0.61693313218E+02 -0.88641534887E+03  0.88856283909E+03  0.23319668146E+01 0.  0.
         13    1    3    3    0    0  0.17075894061E+00 -0.79238572694E+01 -0.10357390071E+03  0.10387670374E+03  0.00000000000E+00 0.  1.
          1    1    3    3  501    0 -0.66607447823E+00 -0.53769455949E+02 -0.78284144816E+03  0.78468613534E+03  0.00000000000E+00 0.  1.
         -3    1    1    2    0  502  0.49531553762E+00  0.61693313218E+02 -0.10405325874E+03  0.12096855330E+03  0.00000000000E+00 0. -1.
<mgrwt>
<rscale>  1 0.30000000E+03</rscale>
<asrwt>0</asrwt>
<pdfrwt beam="1">  1       21 0.34659682E-01 0.30000000E+03</pdfrwt>
<pdfrwt beam="2">0</pdfrwt>
<totfact> 0.81184987E+02</totfact>
</mgrwt>
</event>
<event>
 6    1  0.1280499E-001  0.3000000E+03  0.7818608E-02  0.1093470E+00
         21   -1    0    0  501  502  0.00000000000E+00  0.00000000000E+00  0.90888325993E+00  0.90888325993E+00  0.00000000000E+00 0. -1.
         13   -1    0    0    0    0 -0.00000000000E+00 -0.00000000000E+00 -0.10000000000E+04  0.10000000000E+04  0.00000000000E+00 0.  1.
    9000005    2    1    2  501    0 -0.29170507403E+02  0.71924005155E+01 -0.50265244324E+03  0.50356191617E+03  0.35320806926E+01 0.  0.
         13    1    3    3    0    0 -0.27562312898E+02  0.65318274984E+01 -0.45752411897E+03  0.45840011485E+03  0.00000000000E+00 0.  1.
          3    1    3    3  501    0 -0.16081945050E+01  0.66057301710E+00 -0.45128324278E+02  0.45161801319E+02  0.00000000000E+00 0.  1.
         -3    1    1    2    0  502  0.29170507403E+02 -0.71924005155E+01 -0.49643867350E+03  0.49734696709E+03  0.00000000000E+00 0. -1.
<mgrwt>
<rscale>  1 0.30000000E+03</rscale>
<asrwt>0</asrwt>
<pdfrwt beam="1">  1       21 0.33050370E-02 0.30000000E+03</pdfrwt>
<pdfrwt beam="2">0</pdfrwt>
<totfact> 0.57906006E+04</totfact>
</mgrwt>
</event>
<event>
 6    1  0.1280499E-001  0.3000000E+03  0.7818608E-02  0.1093470E+00
         21   -1    0    0  501  502  0.00000000000E+00  0.00000000000E+00  0.44291958892E+01  0.44291958892E+01  0.00000000000E+00 0. -1.
         13   -1    0    0    0    0 -0.00000000000E+00 -0.00000000000E+00 -0.10000000000E+04  0.10000000000E+04  0.00000000000E+00 0.  1.
    9000005    2    1    2  501    0 -0.21669942107E+02  0.60611822996E+02 -0.62284969626E+03  0.62619064192E+03  0.54402580989E+01 0.  0.
         13    1    3    3    0    0 -0.12952729710E+02  0.29393404228E+02 -0.29596266808E+03  0.29770059845E+03  0.00000000000E+00 0.  1.
          3    1    3    3  501    0 -0.87172123976E+01  0.31218418768E+02 -0.32688702819E+03  0.32849004347E+03  0.00000000000E+00 0.  1.
         -1    1    1    2    0  502  0.21669942107E+02 -0.60611822996E+02 -0.37272110785E+03  0.37823855397E+03  0.00000000000E+00 0. -1.
<mgrwt>
<rscale>  1 0.30000000E+03</rscale>
<asrwt>0</asrwt>
<pdfrwt beam="1">  1       21 0.16106201E-01 0.30000000E+03</pdfrwt>
<pdfrwt beam="2">0</pdfrwt>
<totfact> 0.36078896E+03</totfact>
</mgrwt>
</event>
<event>
 6    1  0.1280499E-001  0.3000000E+03  0.7818608E-02  0.1093470E+00
         21   -1    0    0  501  502  0.00000000000E+00  0.00000000000E+00  0.10830241186E+01  0.10830241186E+01  0.00000000000E+00 0. -1.
         13   -1    0    0    0    0 -0.00000000000E+00 -0.00000000000E+00 -0.10000000000E+04  0.10000000000E+04  0.00000000000E+00 0.  1.
    9000005    2    1    2  501    0  0.25881825813E+02  0.16749948319E+02 -0.67310897194E+03  0.67381969726E+03  0.26204254621E+01 0.  0.
         13    1    3    3    0    0  0.18611028474E+02  0.10665820713E+02 -0.47421382324E+03  0.47469872579E+03  0.00000000000E+00 0.  1.
          1    1    3    3  501    0  0.72707973390E+01  0.60841276060E+01 -0.19889514870E+03  0.19912097147E+03  0.00000000000E+00 0.  1.
         -1    1    1    2    0  502 -0.25881825813E+02 -0.16749948319E+02 -0.32580800394E+03  0.32726332686E+03  0.00000000000E+00 0. -1.
<mgrwt>
<rscale>  1 0.30000000E+03</rscale>
<asrwt>0</asrwt>
<pdfrwt beam="1">  1       21 0.39382778E-02 0.30000000E+03</pdfrwt>
<pdfrwt beam="2">0</pdfrwt>
<totfact> 0.43162574E+04</totfact>
</mgrwt>
</event>
<event>
 6    1  0.1280499E-001  0.3000000E+03  0.7818608E-02  0.1093470E+00
         21   -1    0    0  501  502  0.00000000000E+00  0.00000000000E+00  0.16188270870E+01  0.16188270870E+01  0.00000000000E+00 0. -1.
         13   -1    0    0    0    0 -0.00000000000E+00 -0.00000000000E+00 -0.10000000000E+04  0.10000000000E+04  0.00000000000E+00 0.  1.
    9000005    2    1    2  501    0  0.16247603975E+02 -0.31019892140E+02 -0.74533028574E+03  0.74615656012E+03  0.24817393469E+01 0.  0.
         13    1    3    3    0    0  0.78491835901E+01 -0.16465077168E+02 -0.40983027013E+03  0.41023597937E+03  0.00000000000E+00 0.  1.
          3    1    3    3  501    0  0.83984203846E+01 -0.14554814973E+02 -0.33550001561E+03  0.33592058076E+03  0.00000000000E+00 0.  1.
         -3    1    1    2    0  502 -0.16247603975E+02  0.31019892140E+02 -0.25305088718E+03  0.25546226697E+03  0.00000000000E+00 0. -1.
<mgrwt>
<rscale>  1 0.30000000E+03</rscale>
<asrwt>0</asrwt>
<pdfrwt beam="1">  1       21 0.58866564E-02 0.30000000E+03</pdfrwt>
<pdfrwt beam="2">0</pdfrwt>
<totfact> 0.21776000E+04</totfact>
</mgrwt>
</event>
<event>
 6    1  0.1280499E-001  0.3000000E+03  0.7818608E-02  0.1093470E+00
         21   -1    0    0  501  502  0.00000000000E+00  0.00000000000E+00  0.16351611875E+01  0.16351611875E+01  0.00000000000E+00 0. -1.
         13   -1    0    0    0    0 -0.00000000000E+00 -0.00000000000E+00 -0.10000000000E+04  0.10000000000E+04  0.00000000000E+00 0.  1.
    9000005    2    1    2  501    0 -0.74694600929E+01 -0.30078488841E+02 -0.82029659628E+03  0.82089001651E+03  0.36612861053E+01 0.  0.
         13    1    3    3    0    0 -0.31451676655E+01 -0.18527415380E+02 -0.52374679764E+03  0.52408383417E+03  0.00000000000E+00 0.  1.
          3    1    3    3  501    0 -0.43242924274E+01 -0.11551073461E+02 -0.29654979864E+03  0.29680618234E+03  0.00000000000E+00 0.  1.
         -3    1    1    2    0  502  0.74694600929E+01  0.30078488841E+02 -0.17806824253E+03  0.18074514468E+03  0.00000000000E+00 0. -1.
<mgrwt>
<rscale>  1 0.30000000E+03</rscale>
<asrwt>0</asrwt>
<pdfrwt beam="1">  1       21 0.59460532E-02 0.30000000E+03</pdfrwt>
<pdfrwt beam="2">0</pdfrwt>
<totfact> 0.21402401E+04</totfact>
</mgrwt>
</event>
<event>
 6    1  0.1280499E-001  0.3000000E+03  0.7818608E-02  0.1093470E+00
         21   -1    0    0  501  502  0.00000000000E+00  0.00000000000E+00  0.92401793547E+00  0.92401793547E+00  0.00000000000E+00 0. -1.
         13   -1    0    0    0    0 -0.00000000000E+00 -0.00000000000E+00 -0.10000000000E+04  0.10000000000E+04  0.00000000000E+00 0.  1.
    9000005    2    1    2  501    0  0.21077653044E+02  0.21690139279E+02 -0.46746209335E+03  0.46845049158E+03  0.32132131266E+01 0.  0.
         13    1    3    3    0    0  0.73861613566E+01  0.68880465384E+01 -0.17883967982E+03  0.17912462601E+03  0.00000000000E+00 0.  1.
          1    1    3    3  501    0  0.13691491687E+02  0.14802092741E+02 -0.28862241353E+03  0.28932586557E+03  0.00000000000E+00 0.  1.
         -3    1    1    2    0  502 -0.21077653044E+02 -0.21690139279E+02 -0.53161388871E+03  0.53247352636E+03  0.00000000000E+00 0. -1.
<mgrwt>
<rscale>  1 0.30000000E+03</rscale>
<asrwt>0</asrwt>
<pdfrwt beam="1">  1       21 0.33600723E-02 0.30000000E+03</pdfrwt>
<pdfrwt beam="2">0</pdfrwt>
<totfact> 0.56331729E+04</totfact>
</mgrwt>
</event>
<event>
 6    1  0.1280499E-001  0.3000000E+03  0.7818608E-02  0.1093470E+00
         21   -1    0    0  501  502  0.00000000000E+00  0.00000000000E+00  0.22383882395E+01  0.22383882395E+01  0.00000000000E+00 0. -1.
         13   -1    0    0    0    0 -0.00000000000E+00 -0.00000000000E+00 -0.10000000000E+04  0.10000000000E+04  0.00000000000E+00 0.  1.
    9000005    2    1    2  501    0  0.43778478415E+02 -0.23132780229E+01 -0.68538795608E+03  0.68680343902E+03  0.45174195097E+01 0.  0.
         13    1    3    3    0    0  0.11608907269E+02 -0.47567867274E+00 -0.21436732332E+03  0.21468195617E+03  0.00000000000E+00 0.  1.
          3    1    3    3  501    0  0.32169571146E+02 -0.18375993501E+01 -0.47102063276E+03  0.47212148285E+03  0.00000000000E+00 0.  1.
         -1    1    1    2    0  502 -0.43778478415E+02  0.23132780229E+01 -0.31237365568E+03  0.31543494922E+03  0.00000000000E+00 0. -1.
<mgrwt>
<rscale>  1 0.30000000E+03</rscale>
<asrwt>0</asrwt>
<pdfrwt beam="1">  1       21 0.81396108E-02 0.30000000E+03</pdfrwt>
<pdfrwt beam="2">0</pdfrwt>
<totfact> 0.12391343E+04</totfact>
</mgrwt>
</event>
<event>
 6    1  0.1280499E-001  0.3000000E+03  0.7818608E-02  0.1093470E+00
         21   -1    0    0  501  502  0.00000000000E+00  0.00000000000E+00  0.28955353935E+02  0.28955353935E+02  0.00000000000E+00 0. -1.
         13   -1    0    0    0    0 -0.00000000000E+00 -0.00000000000E+00 -0.10000000000E+04  0.10000000000E+04  0.00000000000E+00 0.  1.
    9000005    2    1    2  501    0 -0.79317514112E+02 -0.99893533521E+02 -0.82602754526E+03  0.83582341559E+03  0.30480207284E+01 0.  0.
         13    1    3    3    0    0 -0.30115588467E+02 -0.40037061636E+02 -0.32898783875E+03  0.33278057789E+03  0.00000000000E+00 0.  1.
          3    1    3    3  501    0 -0.49201925645E+02 -0.59856471885E+02 -0.49703970651E+03  0.50304283770E+03  0.00000000000E+00 0.  1.
         -1    1    1    2    0  502  0.79317514112E+02  0.99893533521E+02 -0.14501710080E+03  0.19313193835E+03  0.00000000000E+00 0. -1.
<mgrwt>
<rscale>  1 0.30000000E+03</rscale>
<asrwt>0</asrwt>
<pdfrwt beam="1">  1       21 0.10529242E+00 0.30000000E+03</pdfrwt>
<pdfrwt beam="2">0</pdfrwt>
<totfact> 0.64454858E+01</totfact>
</mgrwt>
</event>
<event>
 6    1  0.1280499E-001  0.3000000E+03  0.7818608E-02  0.1093470E+00
         21   -1    0    0  501  502  0.00000000000E+00  0.00000000000E+00  0.16025510604E+02  0.16025510604E+02  0.00000000000E+00 0. -1.
         13   -1    0    0    0    0 -0.00000000000E+00 -0.00000000000E+00 -0.10000000000E+04  0.10000000000E+04  0.00000000000E+00 0.  1.
    9000005    2    1    2  501    0 -0.63188320513E+01 -0.83223151822E+02 -0.87391634299E+03  0.87789942246E+03  0.34059887295E+01 0.  0.
         13    1    3    3    0    0 -0.54211664387E+01 -0.67985563596E+02 -0.72722844583E+03  0.73041949476E+03  0.00000000000E+00 0.  1.
          3    1    3    3  501    0 -0.89766561255E+00 -0.15237588226E+02 -0.14668789717E+03  0.14747992770E+03  0.00000000000E+00 0.  1.
         -3    1    1    2    0  502  0.63188320513E+01  0.83223151822E+02 -0.11005814640E+03  0.13812608815E+03  0.00000000000E+00 0. -1.
<mgrwt>
<rscale>  1 0.30000000E+03</rscale>
<asrwt>0</asrwt>
<pdfrwt beam="1">  1       21 0.58274707E-01 0.30000000E+03</pdfrwt>
<pdfrwt beam="2">0</pdfrwt>
<totfact> 0.26808462E+02</totfact>
</mgrwt>
</event>
<event>
 6    1  0.1280499E-001  0.3000000E+03  0.7818608E-02  0.1093470E+00
         21   -1    0    0  501  502  0.00000000000E+00  0.00000000000E+00  0.24556370857E+01  0.24556370857E+01  0.00000000000E+00 0. -1.
         13   -1    0    0    0    0 -0.00000000000E+00 -0.00000000000E+00 -0.10000000000E+04  0.10000000000E+04  0.00000000000E+00 0.  1.
    9000005    2    1    2  501    0 -0.20917682296E+02 -0.24590048964E+02 -0.87876672160E+03  0.87936888712E+03  0.40581651619E+01 0.  0.
         13    1    3    3    0    0 -0.13981009495E+02 -0.16953552370E+02 -0.64600913650E+03  0.64638277824E+03  0.00000000000E+00 0.  1.
          1    1    3    3  501    0 -0.69366728009E+01 -0.76364965934E+01 -0.23275758510E+03  0.23298610888E+03  0.00000000000E+00 0.  1.
         -3    1    1    2    0  502  0.20917682296E+02  0.24590048964E+02 -0.11877764132E+03  0.12308674997E+03  0.00000000000E+00 0. -1.
<mgrwt>
<rscale>  1 0.30000000E+03</rscale>
<asrwt>0</asrwt>
<pdfrwt beam="1">  1       21 0.89296082E-02 0.30000000E+03</pdfrwt>
<pdfrwt beam="2">0</pdfrwt>
<totfact> 0.10523418E+04</totfact>
</mgrwt>
</event>
<event>
 6    1  0.1280499E-001  0.3000000E+03  0.7818608E-02  0.1093470E+00
         21   -1    0    0  501  502  0.00000000000E+00  0.00000000000E+00  0.15798784986E+01  0.15798784986E+01  0.00000000000E+00 0. -1.
         13   -1    0    0    0    0 -0.00000000000E+00 -0.00000000000E+00 -0.10000000000E+04  0.10000000000E+04  0.00000000000E+00 0.  1.
    9000005    2    1    2  501    0 -0.38941414097E+02  0.39030859719E+01 -0.58118257809E+03  0.58251086814E+03  0.37489481867E+01 0.  0.
         13    1    3    3    0    0 -0.31217996252E+02  0.45738074836E+01 -0.46073341174E+03  0.46181247244E+03  0.00000000000E+00 0.  1.
          1    1    3    3  501    0 -0.77234178445E+01 -0.67072151171E+00 -0.12044916635E+03  0.12069839570E+03  0.00000000000E+00 0.  1.
         -3    1    1    2    0  502  0.38941414097E+02 -0.39030859719E+01 -0.41723754341E+03  0.41906901036E+03  0.00000000000E+00 0. -1.
<mgrwt>
<rscale>  1 0.30000000E+03</rscale>
<asrwt>0</asrwt>
<pdfrwt beam="1">  1       21 0.57450248E-02 0.30000000E+03</pdfrwt>
<pdfrwt beam="2">0</pdfrwt>
<totfact> 0.22708831E+04</totfact>
</mgrwt>
</event>
<event>
 6    1  0.1280499E-001  0.3000000E+03  0.7818608E-02  0.1093470E+00
         21   -1    0    0  501  502  0.00000000000E+00  0.00000000000E+00  0.18374610668E+01  0.18374610668E+01  0.00000000000E+00 0. -1.
         13   -1    0    0    0    0 -0.00000000000E+00 -0.00000000000E+00 -0.10000000000E+04  0.10000000000E+04  0.00000000000E+00 0.  1.
    9000005    2    1    2  501    0  0.10492515152E+02  0.33484229371E+02 -0.78622894623E+03  0.78701862063E+03  0.33266855466E+01 0.  0.
         13    1    3    3    0    0  0.65608278673E+01  0.25712861297E+02 -0.58935328755E+03  0.58995041592E+03  0.00000000000E+00 0.  1.
          1    1    3    3  501    0  0.39316872849E+01  0.77713680734E+01 -0.19687565868E+03  0.19706820471E+03  0.00000000000E+00 0.  1.
         -1    1    1    2    0  502 -0.10492515152E+02 -0.33484229371E+02 -0.21193359271E+03  0.21481884044E+03  0.00000000000E+00 0. -1.
<mgrwt>
<rscale>  1 0.30000000E+03</rscale>
<asrwt>0</asrwt>
<pdfrwt beam="1">  1       21 0.66816907E-02 0.30000000E+03</pdfrwt>
<pdfrwt beam="2">0</pdfrwt>
<totfact> 0.17494020E+04</totfact>
</mgrwt>
</event>
<event>
 6    1  0.1280499E-001  0.3000000E+03  0.7818608E-02  0.1093470E+00
         21   -1    0    0  501  502  0.00000000000E+00  0.00000000000E+00  0.55125897110E+01  0.55125897110E+01  0.00000000000E+00 0. -1.
         13   -1    0    0    0    0 -0.00000000000E+00 -0.00000000000E+00 -0.10000000000E+04  0.10000000000E+04  0.00000000000E+00 0.  1.
    9000005    2    1    2  501    0 -0.71448088742E+02 -0.14363976345E+02 -0.59147834694E+03  0.59596716079E+03  0.43667666080E+01 0.  0.
         13    1    3    3    0    0 -0.60513734589E+02 -0.12493718004E+02 -0.51330047485E+03  0.51700617264E+03  0.00000000000E+00 0.  1.
          3    1    3    3  501    0 -0.10934354153E+02 -0.18702583414E+01 -0.78177872086E+02  0.78960988158E+02  0.00000000000E+00 0.  1.
         -3    1    1    2    0  502  0.71448088742E+02  0.14363976345E+02 -0.40300906335E+03  0.40954542892E+03  0.00000000000E+00 0. -1.
<mgrwt>
<rscale>  1 0.30000000E+03</rscale>
<asrwt>0</asrwt>
<pdfrwt beam="1">  1       21 0.20045823E-01 0.30000000E+03</pdfrwt>
<pdfrwt beam="2">0</pdfrwt>
<totfact> 0.23887615E+03</totfact>
</mgrwt>
</event>
<event>
 6    1  0.1280499E-001  0.3000000E+03  0.7818608E-02  0.1093470E+00
         21   -1    0    0  501  502  0.00000000000E+00  0.00000000000E+00  0.19147268739E+01  0.19147268739E+01  0.00000000000E+00 0. -1.
         13   -1    0    0    0    0 -0.00000000000E+00 -0.00000000000E+00 -0.10000000000E+04  0.10000000000E+04  0.00000000000E+00 0.  1.
    9000005    2    1    2  501    0  0.79097780926E+01  0.31239340934E+02 -0.83755522235E+03  0.83818214547E+03  0.34781439069E+01 0.  0.
         13    1    3    3    0    0  0.14001633447E+01  0.19303780473E+01 -0.65356912080E+02  0.65400403465E+02  0.00000000000E+00 0.  1.
          3    1    3    3  501    0  0.65096147479E+01  0.29308962887E+02 -0.77219831027E+03  0.77278174200E+03  0.00000000000E+00 0.  1.
         -3    1    1    2    0  502 -0.79097780926E+01 -0.31239340934E+02 -0.16053005078E+03  0.16373258141E+03  0.00000000000E+00 0. -1.
<mgrwt>
<rscale>  1 0.30000000E+03</rscale>
<asrwt>0</asrwt>
<pdfrwt beam="1">  1       21 0.69626579E-02 0.30000000E+03</pdfrwt>
<pdfrwt beam="2">0</pdfrwt>
<totfact> 0.16286156E+04</totfact>
</mgrwt>
</event>
<event>
 6    1  0.1280499E-001  0.3000000E+03  0.7818608E-02  0.1093470E+00
         21   -1    0    0  501  502  0.00000000000E+00  0.00000000000E+00  0.14738773640E+01  0.14738773640E+01  0.00000000000E+00 0. -1.
         13   -1    0    0    0    0 -0.00000000000E+00 -0.00000000000E+00 -0.10000000000E+04  0.10000000000E+04  0.00000000000E+00 0.  1.
    9000005    2    1    2  501    0 -0.79415757167E+01 -0.37372771123E+02 -0.46594884141E+03  0.46752785657E+03  0.37657946295E+01 0.  0.
         13    1    3    3    0    0 -0.78009994236E+01 -0.30733026057E+02 -0.39333704207E+03  0.39461297894E+03  0.00000000000E+00 0.  1.
          3    1    3    3  501    0 -0.14057629309E+00 -0.66397450659E+01 -0.72611799338E+02  0.72914877627E+02  0.00000000000E+00 0.  1.
         -1    1    1    2    0  502  0.79415757167E+01  0.37372771123E+02 -0.53257728123E+03  0.53394602080E+03  0.00000000000E+00 0. -1.
<mgrwt>
<rscale>  1 0.30000000E+03</rscale>
<asrwt>0</asrwt>
<pdfrwt beam="1">  1       21 0.53595654E-02 0.30000000E+03</pdfrwt>
<pdfrwt beam="2">0</pdfrwt>
<totfact> 0.25582971E+04</totfact>
</mgrwt>
</event>
<event>
 6    1  0.1280499E-001  0.3000000E+03  0.7818608E-02  0.1093470E+00
         21   -1    0    0  501  502  0.00000000000E+00  0.00000000000E+00  0.13818353006E+01  0.13818353006E+01  0.00000000000E+00 0. -1.
         13   -1    0    0    0    0 -0.00000000000E+00 -0.00000000000E+00 -0.10000000000E+04  0.10000000000E+04  0.00000000000E+00 0.  1.
    9000005    2    1    2  501    0 -0.27808010899E+02 -0.21466936287E+02 -0.66013736276E+03  0.66108289598E+03  0.38913772474E+01 0.  0.
         13    1    3    3    0    0 -0.10517266749E+02 -0.64362546318E+01 -0.20738552358E+03  0.20775175971E+03  0.00000000000E+00 0.  1.
          1    1    3    3  501    0 -0.17290744150E+02 -0.15030681655E+02 -0.45275183918E+03  0.45333113627E+03  0.00000000000E+00 0.  1.
         -3    1    1    2    0  502  0.27808010899E+02  0.21466936287E+02 -0.33848080193E+03  0.34029893932E+03  0.00000000000E+00 0. -1.
<mgrwt>
<rscale>  1 0.30000000E+03</rscale>
<asrwt>0</asrwt>
<pdfrwt beam="1">  1       21 0.50248662E-02 0.30000000E+03</pdfrwt>
<pdfrwt beam="2">0</pdfrwt>
<totfact> 0.28562052E+04</totfact>
</mgrwt>
</event>
<event>
 6    1  0.1280499E-001  0.3000000E+03  0.7818608E-02  0.1093470E+00
         21   -1    0    0  501  502  0.00000000000E+00  0.00000000000E+00  0.32170537869E+01  0.32170537869E+01  0.00000000000E+00 0. -1.
         13   -1    0    0    0    0 -0.00000000000E+00 -0.00000000000E+00 -0.10000000000E+04  0.10000000000E+04  0.00000000000E+00 0.  1.
    9000005    2    1    2  501    0  0.26944499629E+02 -0.47778318822E+02 -0.62494553703E+03  0.62735559969E+03  0.30578416825E+01 0.  0.
         13    1    3    3    0    0  0.25452303331E+02 -0.46250264055E+02 -0.60290911881E+03  0.60521592198E+03  0.00000000000E+00 0.  1.
          1    1    3    3  501    0  0.14921962982E+01 -0.15280547671E+01 -0.22036418219E+02  0.22139677710E+02  0.00000000000E+00 0.  1.
         -1    1    1    2    0  502 -0.26944499629E+02  0.47778318822E+02 -0.37183740918E+03  0.37586145410E+03  0.00000000000E+00 0. -1.
<mgrwt>
<rscale>  1 0.30000000E+03</rscale>
<asrwt>0</asrwt>
<pdfrwt beam="1">  1       21 0.11698402E-01 0.30000000E+03</pdfrwt>
<pdfrwt beam="2">0</pdfrwt>
<totfact> 0.64896976E+03</totfact>
</mgrwt>
</event>
<event>
 6    1  0.1280499E-001  0.3000000E+03  0.7818608E-02  0.1093470E+00
         21   -1    0    0  501  502  0.00000000000E+00  0.00000000000E+00  0.15865244384E+01  0.15865244384E+01  0.00000000000E+00 0. -1.
         13   -1    0    0    0    0 -0.00000000000E+00 -0.00000000000E+00 -0.10000000000E+04  0.10000000000E+04  0.00000000000E+00 0.  1.
    9000005    2    1    2  501    0  0.36352518466E+02 -0.39603857056E+01 -0.69672986233E+03  0.69769477932E+03  0.28833635762E+01 0.  0.
         13    1    3    3    0    0  0.70716419060E+01  0.10955087276E+00 -0.14887913696E+03  0.14904703131E+03  0.00000000000E+00 0.  1.
          3    1    3    3  501    0  0.29280876560E+02 -0.40699365784E+01 -0.54785072537E+03  0.54864774802E+03  0.00000000000E+00 0.  1.
         -1    1    1    2    0  502 -0.36352518466E+02  0.39603857056E+01 -0.30168361323E+03  0.30389174511E+03  0.00000000000E+00 0. -1.
<mgrwt>
<rscale>  1 0.30000000E+03</rscale>
<asrwt>0</asrwt>
<pdfrwt beam="1">  1       21 0.57691919E-02 0.30000000E+03</pdfrwt>
<pdfrwt beam="2">0</pdfrwt>
<totfact> 0.22545364E+04</totfact>
</mgrwt>
</event>
<event>
 6    1  0.1280499E-001  0.3000000E+03  0.7818608E-02  0.1093470E+00
         21   -1    0    0  501  502  0.00000000000E+00  0.00000000000E+00  0.20194324268E+01  0.20194324268E+01  0.00000000000E+00 0. -1.
         13   -1    0    0    0    0 -0.00000000000E+00 -0.00000000000E+00 -0.10000000000E+04  0.10000000000E+04  0.00000000000E+00 0.  1.
    9000005    2    1    2  501    0 -0.25172148801E+02 -0.28807893202E+02 -0.76086906906E+03  0.76184159308E+03  0.41642416731E+01 0.  0.
         13    1    3    3    0    0 -0.79056587262E+01 -0.11677907317E+02 -0.25944791097E+03  0.25983089013E+03  0.00000000000E+00 0.  1.
          1    1    3    3  501    0 -0.17266490075E+02 -0.17129985885E+02 -0.50142115809E+03  0.50201070295E+03  0.00000000000E+00 0.  1.
         -3    1    1    2    0  502  0.25172148801E+02  0.28807893202E+02 -0.23711149851E+03  0.24017783935E+03  0.00000000000E+00 0. -1.
<mgrwt>
<rscale>  1 0.30000000E+03</rscale>
<asrwt>0</asrwt>
<pdfrwt beam="1">  1       21 0.73434061E-02 0.30000000E+03</pdfrwt>
<pdfrwt beam="2">0</pdfrwt>
<totfact> 0.14842387E+04</totfact>
</mgrwt>
</event>
<event>
 6    1  0.1280499E-001  0.3000000E+03  0.7818608E-02  0.1093470E+00
         21   -1    0    0  501  502  0.00000000000E+00  0.00000000000E+00  0.21261947711E+01  0.21261947711E+01  0.00000000000E+00 0. -1.
         13   -1    0    0    0    0 -0.00000000000E+00 -0.00000000000E+00 -0.10000000000E+04  0.10000000000E+04  0.00000000000E+00 0.  1.
    9000005    2    1    2  501    0 -0.14909806571E+02 -0.41777347344E+02 -0.36575124926E+03  0.36844916754E+03  0.36281728771E+01 0.  0.
         13    1    3    3    0    0 -0.25162861328E+00 -0.29918677157E+00 -0.14657815983E+01  0.15170185817E+01  0.00000000000E+00 0.  1.
          1    1    3    3  501    0 -0.14658177957E+02 -0.41478160572E+02 -0.36428546766E+03  0.36693214895E+03  0.00000000000E+00 0.  1.
         -3    1    1    2    0  502  0.14909806571E+02  0.41777347344E+02 -0.63212255597E+03  0.63367702723E+03  0.00000000000E+00 0. -1.
<mgrwt>
<rscale>  1 0.30000000E+03</rscale>
<asrwt>0</asrwt>
<pdfrwt beam="1">  1       21 0.77316337E-02 0.30000000E+03</pdfrwt>
<pdfrwt beam="2">0</pdfrwt>
<totfact> 0.13562099E+04</totfact>
</mgrwt>
</event>
<event>
 6    1  0.1280499E-001  0.3000000E+03  0.7818608E-02  0.1093470E+00
         21   -1    0    0  501  502  0.00000000000E+00  0.00000000000E+00  0.13891897239E+01  0.13891897239E+01  0.00000000000E+00 0. -1.
         13   -1    0    0    0    0 -0.00000000000E+00 -0.00000000000E+00 -0.10000000000E+04  0.10000000000E+04  0.00000000000E+00 0.  1.
    9000005    2    1    2  501    0 -0.15175901042E+02  0.30194784747E+02 -0.29161940022E+03  0.29359056943E+03  0.33933574202E+01 0.  0.
         13    1    3    3    0    0 -0.20863949579E+01  0.35385176943E+01 -0.45812476817E+02  0.45996273582E+02  0.00000000000E+00 0.  1.
          3    1    3    3  501    0 -0.13089506084E+02  0.26656267052E+02 -0.24580692340E+03  0.24759429585E+03  0.00000000000E+00 0.  1.
         -1    1    1    2    0  502  0.15175901042E+02 -0.30194784747E+02 -0.70699141006E+03  0.70779862030E+03  0.00000000000E+00 0. -1.
<mgrwt>
<rscale>  1 0.30000000E+03</rscale>
<asrwt>0</asrwt>
<pdfrwt beam="1">  1       21 0.50516096E-02 0.30000000E+03</pdfrwt>
<pdfrwt beam="2">0</pdfrwt>
<totfact> 0.28304666E+04</totfact>
</mgrwt>
</event>
<event>
 6    1  0.1280499E-001  0.3000000E+03  0.7818608E-02  0.1093470E+00
         21   -1    0    0  501  502  0.00000000000E+00  0.00000000000E+00  0.10316035673E+01  0.10316035673E+01  0.00000000000E+00 0. -1.
         13   -1    0    0    0    0 -0.00000000000E+00 -0.00000000000E+00 -0.10000000000E+04  0.10000000000E+04  0.00000000000E+00 0.  1.
    9000005    2    1    2  501    0  0.24805802149E+02  0.19578147120E+02 -0.58497782606E+03  0.58583668064E+03  0.26320599686E+01 0.  0.
         13    1    3    3    0    0  0.11140339924E+02  0.72704506158E+01 -0.23617292031E+03  0.23654727839E+03  0.00000000000E+00 0.  1.
          1    1    3    3  501    0  0.13665462225E+02  0.12307696504E+02 -0.34880490575E+03  0.34928940226E+03  0.00000000000E+00 0.  1.
         -1    1    1    2    0  502 -0.24805802149E+02 -0.19578147120E+02 -0.41399057037E+03  0.41519492292E+03  0.00000000000E+00 0. -1.
<mgrwt>
<rscale>  1 0.30000000E+03</rscale>
<asrwt>0</asrwt>
<pdfrwt beam="1">  1       21 0.37512936E-02 0.30000000E+03</pdfrwt>
<pdfrwt beam="2">0</pdfrwt>
<totfact> 0.46840136E+04</totfact>
</mgrwt>
</event>
<event>
 6    1  0.1280499E-001  0.3000000E+03  0.7818608E-02  0.1093470E+00
         21   -1    0    0  501  502  0.00000000000E+00  0.00000000000E+00  0.33863089355E+01  0.33863089355E+01  0.00000000000E+00 0. -1.
         13   -1    0    0    0    0 -0.00000000000E+00 -0.00000000000E+00 -0.10000000000E+04  0.10000000000E+04  0.00000000000E+00 0.  1.
    9000005    2    1    2  501    0  0.29815394000E+02  0.13552349029E+02 -0.91289960937E+03  0.91349375442E+03  0.35381761485E+01 0.  0.
         13    1    3    3    0    0  0.14796934042E+02  0.86505829184E+01 -0.48149170658E+03  0.48179668466E+03  0.00000000000E+00 0.  1.
          1    1    3    3  501    0  0.15018459958E+02  0.49017661102E+01 -0.43140790279E+03  0.43169706977E+03  0.00000000000E+00 0.  1.
         -1    1    1    2    0  502 -0.29815394000E+02 -0.13552349029E+02 -0.83714081693E+02  0.89892554515E+02  0.00000000000E+00 0. -1.
<mgrwt>
<rscale>  1 0.30000000E+03</rscale>
<asrwt>0</asrwt>
<pdfrwt beam="1">  1       21 0.12313877E-01 0.30000000E+03</pdfrwt>
<pdfrwt beam="2">0</pdfrwt>
<totfact> 0.59130022E+03</totfact>
</mgrwt>
</event>
<event>
 6    1  0.1280499E-001  0.3000000E+03  0.7818608E-02  0.1093470E+00
         21   -1    0    0  501  502  0.00000000000E+00  0.00000000000E+00  0.13773049935E+01  0.13773049935E+01  0.00000000000E+00 0. -1.
         13   -1    0    0    0    0 -0.00000000000E+00 -0.00000000000E+00 -0.10000000000E+04  0.10000000000E+04  0.00000000000E+00 0.  1.
    9000005    2    1    2  501    0  0.61497668987E+01 -0.36079383706E+02 -0.42539880046E+03  0.42698617097E+03  0.36754875128E+01 0.  0.
         13    1    3    3    0    0 -0.22208271612E+00 -0.64392711914E+01 -0.68936070121E+02  0.69236517084E+02  0.00000000000E+00 0.  1.
          1    1    3    3  501    0  0.63718496148E+01 -0.29640112515E+02 -0.35646273034E+03  0.35774965389E+03  0.00000000000E+00 0.  1.
         -1    1    1    2    0  502 -0.61497668987E+01  0.36079383706E+02 -0.57322389455E+03  0.57439113402E+03  0.00000000000E+00 0. -1.
<mgrwt>
<rscale>  1 0.30000000E+03</rscale>
<asrwt>0</asrwt>
<pdfrwt beam="1">  1       21 0.50083924E-02 0.30000000E+03</pdfrwt>
<pdfrwt beam="2">0</pdfrwt>
<totfact> 0.28722419E+04</totfact>
</mgrwt>
</event>
<event>
 6    1  0.1280499E-001  0.3000000E+03  0.7818608E-02  0.1093470E+00
         21   -1    0    0  501  502  0.00000000000E+00  0.00000000000E+00  0.17990848146E+01  0.17990848146E+01  0.00000000000E+00 0. -1.
         13   -1    0    0    0    0 -0.00000000000E+00 -0.00000000000E+00 -0.10000000000E+04  0.10000000000E+04  0.00000000000E+00 0.  1.
    9000005    2    1    2  501    0  0.31456039607E+02 -0.26773604531E+02 -0.61030732148E+03  0.61171223760E+03  0.32444811034E+01 0.  0.
         13    1    3    3    0    0  0.12655628037E+02 -0.12764262495E+02 -0.25701500235E+03  0.25764278129E+03  0.00000000000E+00 0.  1.
          3    1    3    3  501    0  0.18800411570E+02 -0.14009342036E+02 -0.35329231913E+03  0.35406945631E+03  0.00000000000E+00 0.  1.
         -1    1    1    2    0  502 -0.31456039607E+02  0.26773604531E+02 -0.38789359371E+03  0.39008684721E+03  0.00000000000E+00 0. -1.
<mgrwt>
<rscale>  1 0.30000000E+03</rscale>
<asrwt>0</asrwt>
<pdfrwt beam="1">  1       21 0.65421404E-02 0.30000000E+03</pdfrwt>
<pdfrwt beam="2">0</pdfrwt>
<totfact> 0.18145839E+04</totfact>
</mgrwt>
</event>
<event>
 6    1  0.1280499E-001  0.3000000E+03  0.7818608E-02  0.1093470E+00
         21   -1    0    0  501  502  0.00000000000E+00  0.00000000000E+00  0.22287670380E+01  0.22287670380E+01  0.00000000000E+00 0. -1.
         13   -1    0    0    0    0 -0.00000000000E+00 -0.00000000000E+00 -0.10000000000E+04  0.10000000000E+04  0.00000000000E+00 0.  1.
    9000005    2    1    2  501    0 -0.34481008064E+02 -0.51729511353E+01 -0.83646188714E+03  0.83719421190E+03  0.31560192929E+01 0.  0.
         13    1    3    3    0    0 -0.21929887987E+02 -0.37024360346E+01 -0.49756874188E+03  0.49806553878E+03  0.00000000000E+00 0.  1.
          3    1    3    3  501    0 -0.12551120077E+02 -0.14705151007E+01 -0.33889314526E+03  0.33912867313E+03  0.00000000000E+00 0.  1.
         -1    1    1    2    0  502  0.34481008064E+02  0.51729511353E+01 -0.16130934582E+03  0.16503455513E+03  0.00000000000E+00 0. -1.
<mgrwt>
<rscale>  1 0.30000000E+03</rscale>
<asrwt>0</asrwt>
<pdfrwt beam="1">  1       21 0.81046245E-02 0.30000000E+03</pdfrwt>
<pdfrwt beam="2">0</pdfrwt>
<totfact> 0.12485535E+04</totfact>
</mgrwt>
</event>
<event>
 6    1  0.1280499E-001  0.3000000E+03  0.7818608E-02  0.1093470E+00
         21   -1    0    0  501  502  0.00000000000E+00  0.00000000000E+00  0.21485193039E+01  0.21485193039E+01  0.00000000000E+00 0. -1.
         13   -1    0    0    0    0 -0.00000000000E+00 -0.00000000000E+00 -0.10000000000E+04  0.10000000000E+04  0.00000000000E+00 0.  1.
    9000005    2    1    2  501    0 -0.10127883068E+02  0.44071243165E+02 -0.39454066646E+03  0.39714538950E+03  0.41562514989E+01 0.  0.
         13    1    3    3    0    0 -0.54198720988E+01  0.18995550241E+02 -0.18795278901E+03  0.18898798068E+03  0.00000000000E+00 0.  1.
          1    1    3    3  501    0 -0.47080109693E+01  0.25075692924E+02 -0.20658787744E+03  0.20815740883E+03  0.00000000000E+00 0.  1.
         -1    1    1    2    0  502  0.10127883068E+02 -0.44071243165E+02 -0.60331081424E+03  0.60500312980E+03  0.00000000000E+00 0. -1.
<mgrwt>
<rscale>  1 0.30000000E+03</rscale>
<asrwt>0</asrwt>
<pdfrwt beam="1">  1       21 0.78128139E-02 0.30000000E+03</pdfrwt>
<pdfrwt beam="2">0</pdfrwt>
<totfact> 0.13315930E+04</totfact>
</mgrwt>
</event>
<event>
 6    1  0.1280499E-001  0.3000000E+03  0.7818608E-02  0.1093470E+00
         21   -1    0    0  501  502  0.00000000000E+00  0.00000000000E+00  0.19830199076E+01  0.19830199076E+01  0.00000000000E+00 0. -1.
         13   -1    0    0    0    0 -0.00000000000E+00 -0.00000000000E+00 -0.10000000000E+04  0.10000000000E+04  0.00000000000E+00 0.  1.
    9000005    2    1    2  501    0  0.19606060958E+02 -0.24281017870E+02 -0.85611110366E+03  0.85668593383E+03  0.32560660820E+01 0.  0.
         13    1    3    3    0    0  0.82833398137E+01 -0.12195413810E+02 -0.37389138264E+03  0.37418191812E+03  0.00000000000E+00 0.  1.
          3    1    3    3  501    0  0.11322721144E+02 -0.12085604059E+02 -0.48221972102E+03  0.48250401572E+03  0.00000000000E+00 0.  1.
         -1    1    1    2    0  502 -0.19606060958E+02  0.24281017870E+02 -0.14190587643E+03  0.14529708607E+03  0.00000000000E+00 0. -1.
<mgrwt>
<rscale>  1 0.30000000E+03</rscale>
<asrwt>0</asrwt>
<pdfrwt beam="1">  1       21 0.72109967E-02 0.30000000E+03</pdfrwt>
<pdfrwt beam="2">0</pdfrwt>
<totfact> 0.15321564E+04</totfact>
</mgrwt>
</event>
<event>
 6    1  0.1280499E-001  0.3000000E+03  0.7818608E-02  0.1093470E+00
         21   -1    0    0  501  502  0.00000000000E+00  0.00000000000E+00  0.15703921743E+01  0.15703921743E+01  0.00000000000E+00 0. -1.
         13   -1    0    0    0    0 -0.00000000000E+00 -0.00000000000E+00 -0.10000000000E+04  0.10000000000E+04  0.00000000000E+00 0.  1.
    9000005    2    1    2  501    0  0.24040203164E+02 -0.31367243517E+02 -0.50640526419E+03  0.50796144770E+03  0.40872260601E+01 0.  0.
         13    1    3    3    0    0  0.21346981563E+02 -0.28967006355E+02 -0.47115915218E+03  0.47253119237E+03  0.00000000000E+00 0.  1.
          3    1    3    3  501    0  0.26932216010E+01 -0.24002371622E+01 -0.35246112010E+02  0.35430255331E+02  0.00000000000E+00 0.  1.
         -1    1    1    2    0  502 -0.24040203164E+02  0.31367243517E+02 -0.49202434363E+03  0.49360894447E+03  0.00000000000E+00 0. -1.
<mgrwt>
<rscale>  1 0.30000000E+03</rscale>
<asrwt>0</asrwt>
<pdfrwt beam="1">  1       21 0.57105290E-02 0.30000000E+03</pdfrwt>
<pdfrwt beam="2">0</pdfrwt>
<totfact> 0.22945324E+04</totfact>
</mgrwt>
</event>
<event>
 6    1  0.1280499E-001  0.3000000E+03  0.7818608E-02  0.1093470E+00
         21   -1    0    0  501  502  0.00000000000E+00  0.00000000000E+00  0.11621277922E+01  0.11621277922E+01  0.00000000000E+00 0. -1.
         13   -1    0    0    0    0 -0.00000000000E+00 -0.00000000000E+00 -0.10000000000E+04  0.10000000000E+04  0.00000000000E+00 0.  1.
    9000005    2    1    2  501    0 -0.29399359498E+02 -0.98017175980E+01 -0.70633117109E+03  0.70701834288E+03  0.32890577896E+01 0.  0.
         13    1    3    3    0    0 -0.15117083976E+02 -0.66248181532E+01 -0.38932980247E+03  0.38967949591E+03  0.00000000000E+00 0.  1.
          1    1    3    3  501    0 -0.14282275523E+02 -0.31768994448E+01 -0.31700136862E+03  0.31733884696E+03  0.00000000000E+00 0.  1.
         -3    1    1    2    0  502  0.29399359498E+02  0.98017175980E+01 -0.29250670112E+03  0.29414378492E+03  0.00000000000E+00 0. -1.
<mgrwt>
<rscale>  1 0.30000000E+03</rscale>
<asrwt>0</asrwt>
<pdfrwt beam="1">  1       21 0.42259282E-02 0.30000000E+03</pdfrwt>
<pdfrwt beam="2">0</pdfrwt>
<totfact> 0.38326000E+04</totfact>
</mgrwt>
</event>
<event>
 6    1  0.1280499E-001  0.3000000E+03  0.7818608E-02  0.1093470E+00
         21   -1    0    0  501  502  0.00000000000E+00  0.00000000000E+00  0.10415926496E+01  0.10415926496E+01  0.00000000000E+00 0. -1.
         13   -1    0    0    0    0 -0.00000000000E+00 -0.00000000000E+00 -0.10000000000E+04  0.10000000000E+04  0.00000000000E+00 0.  1.
    9000005    2    1    2  501    0  0.18024278720E+02  0.26085433966E+02 -0.57361812315E+03  0.57452115721E+03  0.56110944487E+01 0.  0.
         13    1    3    3    0    0  0.97512632371E+01  0.18761455161E+02 -0.37139008244E+03  0.37199149543E+03  0.00000000000E+00 0.  1.
          1    1    3    3  501    0  0.82730154825E+01  0.73239788050E+01 -0.20222804071E+03  0.20252966178E+03  0.00000000000E+00 0.  1.
         -1    1    1    2    0  502 -0.18024278720E+02 -0.26085433966E+02 -0.42534028420E+03  0.42652043544E+03  0.00000000000E+00 0. -1.
<mgrwt>
<rscale>  1 0.30000000E+03</rscale>
<asrwt>0</asrwt>
<pdfrwt beam="1">  1       21 0.37876176E-02 0.30000000E+03</pdfrwt>
<pdfrwt beam="2">0</pdfrwt>
<totfact> 0.46088107E+04</totfact>
</mgrwt>
</event>
<event>
 6    1  0.1280499E-001  0.3000000E+03  0.7818608E-02  0.1093470E+00
         21   -1    0    0  501  502  0.00000000000E+00  0.00000000000E+00  0.43141167346E+01  0.43141167346E+01  0.00000000000E+00 0. -1.
         13   -1    0    0    0    0 -0.00000000000E+00 -0.00000000000E+00 -0.10000000000E+04  0.10000000000E+04  0.00000000000E+00 0.  1.
    9000005    2    1    2  501    0 -0.38682787436E+01  0.59703071226E+02 -0.29496992157E+03  0.30104867662E+03  0.66053588400E+01 0.  0.
         13    1    3    3    0    0  0.72158966016E-01  0.35366447493E+02 -0.18483938363E+03  0.18819242428E+03  0.00000000000E+00 0.  1.
          1    1    3    3  501    0 -0.39404377097E+01  0.24336623733E+02 -0.11013053794E+03  0.11285625233E+03  0.00000000000E+00 0.  1.
         -3    1    1    2    0  502  0.38682787436E+01 -0.59703071226E+02 -0.70071596169E+03  0.70326544012E+03  0.00000000000E+00 0. -1.
<mgrwt>
<rscale>  1 0.30000000E+03</rscale>
<asrwt>0</asrwt>
<pdfrwt beam="1">  1       21 0.15687730E-01 0.30000000E+03</pdfrwt>
<pdfrwt beam="2">0</pdfrwt>
<totfact> 0.37892528E+03</totfact>
</mgrwt>
</event>
<event>
 6    1  0.1280499E-001  0.3000000E+03  0.7818608E-02  0.1093470E+00
         21   -1    0    0  501  502  0.00000000000E+00  0.00000000000E+00  0.41289163987E+01  0.41289163987E+01  0.00000000000E+00 0. -1.
         13   -1    0    0    0    0 -0.00000000000E+00 -0.00000000000E+00 -0.10000000000E+04  0.10000000000E+04  0.00000000000E+00 0.  1.
    9000005    2    1    2  501    0 -0.63869437314E+02 -0.50619951943E+01 -0.46518762569E+03  0.46959186313E+03  0.34730394710E+01 0.  0.
         13    1    3    3    0    0 -0.51176199836E+02 -0.28490780226E+01 -0.36652826846E+03  0.37009470714E+03  0.00000000000E+00 0.  1.
          1    1    3    3  501    0 -0.12693237478E+02 -0.22129171717E+01 -0.98659357233E+02  0.99497155988E+02  0.00000000000E+00 0.  1.
         -1    1    1    2    0  502  0.63869437314E+02  0.50619951943E+01 -0.53068345791E+03  0.53453705327E+03  0.00000000000E+00 0. -1.
<mgrwt>
<rscale>  1 0.30000000E+03</rscale>
<asrwt>0</asrwt>
<pdfrwt beam="1">  1       21 0.15014273E-01 0.30000000E+03</pdfrwt>
<pdfrwt beam="2">0</pdfrwt>
<totfact> 0.41107928E+03</totfact>
</mgrwt>
</event>
<event>
 6    1  0.1280499E-001  0.3000000E+03  0.7818608E-02  0.1093470E+00
         21   -1    0    0  501  502  0.00000000000E+00  0.00000000000E+00  0.15891692531E+01  0.15891692531E+01  0.00000000000E+00 0. -1.
         13   -1    0    0    0    0 -0.00000000000E+00 -0.00000000000E+00 -0.10000000000E+04  0.10000000000E+04  0.00000000000E+00 0.  1.
    9000005    2    1    2  501    0  0.20271117285E+01  0.31731391099E+02 -0.19942939689E+03  0.20197531119E+03  0.33093235275E+01 0.  0.
         13    1    3    3    0    0  0.55920073896E+00  0.36468338650E+01 -0.30286922436E+02  0.30510814039E+02  0.00000000000E+00 0.  1.
          3    1    3    3  501    0  0.14679109895E+01  0.28084557234E+02 -0.16914247445E+03  0.17146449715E+03  0.00000000000E+00 0.  1.
         -1    1    1    2    0  502 -0.20271117285E+01 -0.31731391099E+02 -0.79898143386E+03  0.79961385807E+03  0.00000000000E+00 0. -1.
<mgrwt>
<rscale>  1 0.30000000E+03</rscale>
<asrwt>0</asrwt>
<pdfrwt beam="1">  1       21 0.57788095E-02 0.30000000E+03</pdfrwt>
<pdfrwt beam="2">0</pdfrwt>
<totfact> 0.22480811E+04</totfact>
</mgrwt>
</event>
<event>
 6    1  0.1280499E-001  0.3000000E+03  0.7818608E-02  0.1093470E+00
         21   -1    0    0  501  502  0.00000000000E+00  0.00000000000E+00  0.69442419553E+01  0.69442419553E+01  0.00000000000E+00 0. -1.
         13   -1    0    0    0    0 -0.00000000000E+00 -0.00000000000E+00 -0.10000000000E+04  0.10000000000E+04  0.00000000000E+00 0.  1.
    9000005    2    1    2  501    0 -0.52701614462E+02 -0.53561511669E+02 -0.71392392818E+03  0.71787526378E+03  0.33501374902E+01 0.  0.
         13    1    3    3    0    0 -0.23065383203E+02 -0.24887800527E+02 -0.30968978631E+03  0.31154322053E+03  0.00000000000E+00 0.  1.
          3    1    3    3  501    0 -0.29636231258E+02 -0.28673711142E+02 -0.40423414188E+03  0.40633204325E+03  0.00000000000E+00 0.  1.
         -1    1    1    2    0  502  0.52701614462E+02  0.53561511669E+02 -0.27913182986E+03  0.28906897817E+03  0.00000000000E+00 0. -1.
<mgrwt>
<rscale>  1 0.30000000E+03</rscale>
<asrwt>0</asrwt>
<pdfrwt beam="1">  1       21 0.25251842E-01 0.30000000E+03</pdfrwt>
<pdfrwt beam="2">0</pdfrwt>
<totfact> 0.15292755E+03</totfact>
</mgrwt>
</event>
<event>
 6    1  0.1280499E-001  0.3000000E+03  0.7818608E-02  0.1093470E+00
         21   -1    0    0  501  502  0.00000000000E+00  0.00000000000E+00  0.34258578392E+02  0.34258578392E+02  0.00000000000E+00 0. -1.
         13   -1    0    0    0    0 -0.00000000000E+00 -0.00000000000E+00 -0.10000000000E+04  0.10000000000E+04  0.00000000000E+00 0.  1.
    9000005    2    1    2  501    0  0.40534894169E+02 -0.74872603427E+01 -0.98701064215E+03  0.98787413644E+03  0.24829434491E+01 0.  0.
         13    1    3    3    0    0  0.21115598738E+02 -0.26903284409E+01 -0.51726481716E+03  0.51770261487E+03  0.00000000000E+00 0.  1.
          1    1    3    3  501    0  0.19419295430E+02 -0.47969319017E+01 -0.46974582499E+03  0.47017152156E+03  0.00000000000E+00 0.  1.
         -1    1    1    2    0  502 -0.40534894169E+02  0.74872603427E+01  0.21269220545E+02  0.46384441953E+02  0.00000000000E+00 0. -1.
<mgrwt>
<rscale>  1 0.30000000E+03</rscale>
<asrwt>0</asrwt>
<pdfrwt beam="1">  1       21 0.12457691E+00 0.30000000E+03</pdfrwt>
<pdfrwt beam="2">0</pdfrwt>
<totfact> 0.40935340E+01</totfact>
</mgrwt>
</event>
<event>
 6    1  0.1280499E-001  0.3000000E+03  0.7818608E-02  0.1093470E+00
         21   -1    0    0  501  502  0.00000000000E+00  0.00000000000E+00  0.21687488719E+01  0.21687488719E+01  0.00000000000E+00 0. -1.
         13   -1    0    0    0    0 -0.00000000000E+00 -0.00000000000E+00 -0.10000000000E+04  0.10000000000E+04  0.00000000000E+00 0.  1.
    9000005    2    1    2  501    0 -0.21699931980E+02  0.40827237832E+02 -0.44568538031E+03  0.44809040328E+03  0.34352421897E+01 0.  0.
         13    1    3    3    0    0 -0.14232683819E+02  0.26762151306E+02 -0.27602233640E+03  0.27768167426E+03  0.00000000000E+00 0.  1.
          1    1    3    3  501    0 -0.74672481610E+01  0.14065086526E+02 -0.16966304391E+03  0.17040872901E+03  0.00000000000E+00 0.  1.
         -3    1    1    2    0  502  0.21699931980E+02 -0.40827237832E+02 -0.55214587082E+03  0.55407834560E+03  0.00000000000E+00 0. -1.
<mgrwt>
<rscale>  1 0.30000000E+03</rscale>
<asrwt>0</asrwt>
<pdfrwt beam="1">  1       21 0.78863762E-02 0.30000000E+03</pdfrwt>
<pdfrwt beam="2">0</pdfrwt>
<totfact> 0.13098758E+04</totfact>
</mgrwt>
</event>
<event>
 6    1  0.1280499E-001  0.3000000E+03  0.7818608E-02  0.1093470E+00
         21   -1    0    0  501  502  0.00000000000E+00  0.00000000000E+00  0.20503384411E+01  0.20503384411E+01  0.00000000000E+00 0. -1.
         13   -1    0    0    0    0 -0.00000000000E+00 -0.00000000000E+00 -0.10000000000E+04  0.10000000000E+04  0.00000000000E+00 0.  1.
    9000005    2    1    2  501    0  0.21461718166E+01  0.32317130988E+02 -0.84885711060E+03  0.84948038150E+03  0.30856657151E+01 0.  0.
         13    1    3    3    0    0  0.29373775990E+01  0.23791516069E+02 -0.62325290539E+03  0.62371375526E+03  0.00000000000E+00 0.  1.
          1    1    3    3  501    0 -0.79120578246E+00  0.85256149195E+01 -0.22560420521E+03  0.22576662625E+03  0.00000000000E+00 0.  1.
         -3    1    1    2    0  502 -0.21461718166E+01 -0.32317130988E+02 -0.14909255096E+03  0.15256995694E+03  0.00000000000E+00 0. -1.
<mgrwt>
<rscale>  1 0.30000000E+03</rscale>
<asrwt>0</asrwt>
<pdfrwt beam="1">  1       21 0.74557919E-02 0.30000000E+03</pdfrwt>
<pdfrwt beam="2">0</pdfrwt>
<totfact> 0.14453277E+04</totfact>
</mgrwt>
</event>
<event>
 6    1  0.1280499E-001  0.3000000E+03  0.7818608E-02  0.1093470E+00
         21   -1    0    0  501  502  0.00000000000E+00  0.00000000000E+00  0.35579547066E+01  0.35579547066E+01  0.00000000000E+00 0. -1.
         13   -1    0    0    0    0 -0.00000000000E+00 -0.00000000000E+00 -0.10000000000E+04  0.10000000000E+04  0.00000000000E+00 0.  1.
    9000005    2    1    2  501    0 -0.42907257320E+02  0.27848430948E+02 -0.75584156290E+03  0.75757998828E+03  0.37950765094E+01 0.  0.
         13    1    3    3    0    0 -0.27727458310E+02  0.19569431127E+02 -0.48246024607E+03  0.48365242025E+03  0.00000000000E+00 0.  1.
          3    1    3    3  501    0 -0.15179799011E+02  0.82789998216E+01 -0.27338131683E+03  0.27392756803E+03  0.00000000000E+00 0.  1.
         -1    1    1    2    0  502  0.42907257320E+02 -0.27848430948E+02 -0.24060048240E+03  0.24597796643E+03  0.00000000000E+00 0. -1.
<mgrwt>
<rscale>  1 0.30000000E+03</rscale>
<asrwt>0</asrwt>
<pdfrwt beam="1">  1       21 0.12938044E-01 0.30000000E+03</pdfrwt>
<pdfrwt beam="2">0</pdfrwt>
<totfact> 0.54034503E+03</totfact>
</mgrwt>
</event>
<event>
 6    1  0.1280499E-001  0.3000000E+03  0.7818608E-02  0.1093470E+00
         21   -1    0    0  501  502  0.00000000000E+00  0.00000000000E+00  0.22332525226E+01  0.22332525226E+01  0.00000000000E+00 0. -1.
         13   -1    0    0    0    0 -0.00000000000E+00 -0.00000000000E+00 -0.10000000000E+04  0.10000000000E+04  0.00000000000E+00 0.  1.
    9000005    2    1    2  501    0 -0.12477694740E+02 -0.32911288029E+02 -0.83308565095E+03  0.83383280924E+03  0.25702516294E+01 0.  0.
         13    1    3    3    0    0 -0.56034385855E+01 -0.17805302717E+02 -0.45758090701E+03  0.45796147631E+03  0.00000000000E+00 0.  1.
          3    1    3    3  501    0 -0.68742561541E+01 -0.15105985312E+02 -0.37550474395E+03  0.37587133293E+03  0.00000000000E+00 0.  1.
         -3    1    1    2    0  502  0.12477694740E+02  0.32911288029E+02 -0.16468109653E+03  0.16840044329E+03  0.00000000000E+00 0. -1.
<mgrwt>
<rscale>  1 0.30000000E+03</rscale>
<asrwt>0</asrwt>
<pdfrwt beam="1">  1       21 0.81209354E-02 0.30000000E+03</pdfrwt>
<pdfrwt beam="2">0</pdfrwt>
<totfact> 0.12441486E+04</totfact>
</mgrwt>
</event>
<event>
 6    1  0.1280499E-001  0.3000000E+03  0.7818608E-02  0.1093470E+00
         21   -1    0    0  501  502  0.00000000000E+00  0.00000000000E+00  0.46765860328E+01  0.46765860328E+01  0.00000000000E+00 0. -1.
         13   -1    0    0    0    0 -0.00000000000E+00 -0.00000000000E+00 -0.10000000000E+04  0.10000000000E+04  0.00000000000E+00 0.  1.
    9000005    2    1    2  501    0  0.29517521560E+02 -0.57080582079E+02 -0.32821471172E+03  0.33447997493E+03  0.47412767546E+01 0.  0.
         13    1    3    3    0    0  0.99578790074E+01 -0.20088481746E+02 -0.12633268045E+03  0.12830686888E+03  0.00000000000E+00 0.  1.
          1    1    3    3  501    0  0.19559642553E+02 -0.36992100334E+02 -0.20188203128E+03  0.20617310605E+03  0.00000000000E+00 0.  1.
         -3    1    1    2    0  502 -0.29517521560E+02  0.57080582079E+02 -0.66710870224E+03  0.67019661111E+03  0.00000000000E+00 0. -1.
<mgrwt>
<rscale>  1 0.30000000E+03</rscale>
<asrwt>0</asrwt>
<pdfrwt beam="1">  1       21 0.17005803E-01 0.30000000E+03</pdfrwt>
<pdfrwt beam="2">0</pdfrwt>
<totfact> 0.32594366E+03</totfact>
</mgrwt>
</event>
<event>
 6    1  0.1280499E-001  0.3000000E+03  0.7818608E-02  0.1093470E+00
         21   -1    0    0  501  502  0.00000000000E+00  0.00000000000E+00  0.20659579883E+01  0.20659579883E+01  0.00000000000E+00 0. -1.
         13   -1    0    0    0    0 -0.00000000000E+00 -0.00000000000E+00 -0.10000000000E+04  0.10000000000E+04  0.00000000000E+00 0.  1.
    9000005    2    1    2  501    0 -0.31088316609E+02 -0.85270942419E+01 -0.85189050331E+03  0.85250690623E+03  0.33765037429E+01 0.  0.
         13    1    3    3    0    0 -0.68042940110E+01 -0.19559749869E+01 -0.22645735336E+03  0.22656799674E+03  0.00000000000E+00 0.  1.
          1    1    3    3  501    0 -0.24284022598E+02 -0.65711192549E+01 -0.62543314995E+03  0.62593890949E+03  0.00000000000E+00 0.  1.
         -1    1    1    2    0  502  0.31088316609E+02  0.85270942419E+01 -0.14604353870E+03  0.14955905176E+03  0.00000000000E+00 0. -1.
<mgrwt>
<rscale>  1 0.30000000E+03</rscale>
<asrwt>0</asrwt>
<pdfrwt beam="1">  1       21 0.75125903E-02 0.30000000E+03</pdfrwt>
<pdfrwt beam="2">0</pdfrwt>
<totfact> 0.14262515E+04</totfact>
</mgrwt>
</event>
<event>
 6    1  0.1280499E-001  0.3000000E+03  0.7818608E-02  0.1093470E+00
         21   -1    0    0  501  502  0.00000000000E+00  0.00000000000E+00  0.25041603785E+01  0.25041603785E+01  0.00000000000E+00 0. -1.
         13   -1    0    0    0    0 -0.00000000000E+00 -0.00000000000E+00 -0.10000000000E+04  0.10000000000E+04  0.00000000000E+00 0.  1.
    9000005    2    1    2  501    0 -0.41232936419E+02  0.22872632279E+01 -0.78119316421E+03  0.78229463740E+03  0.40930774212E+01 0.  0.
         13    1    3    3    0    0 -0.23762839773E+02  0.18487701980E+01 -0.41338577504E+03  0.41407232401E+03  0.00000000000E+00 0.  1.
          3    1    3    3  501    0 -0.17470096646E+02  0.43849302992E+00 -0.36780738916E+03  0.36822231339E+03  0.00000000000E+00 0.  1.
         -1    1    1    2    0  502  0.41232936419E+02 -0.22872632279E+01 -0.21630267542E+03  0.22020952298E+03  0.00000000000E+00 0. -1.
<mgrwt>
<rscale>  1 0.30000000E+03</rscale>
<asrwt>0</asrwt>
<pdfrwt beam="1">  1       21 0.91060569E-02 0.30000000E+03</pdfrwt>
<pdfrwt beam="2">0</pdfrwt>
<totfact> 0.10164794E+04</totfact>
</mgrwt>
</event>
<event>
 6    1  0.1280499E-001  0.3000000E+03  0.7818608E-02  0.1093470E+00
         21   -1    0    0  501  502  0.00000000000E+00  0.00000000000E+00  0.21360929770E+01  0.21360929770E+01  0.00000000000E+00 0. -1.
         13   -1    0    0    0    0 -0.00000000000E+00 -0.00000000000E+00 -0.10000000000E+04  0.10000000000E+04  0.00000000000E+00 0.  1.
    9000005    2    1    2  501    0 -0.35697355658E+02 -0.20687996726E+02 -0.72393839308E+03  0.72512078365E+03  0.33255833389E+01 0.  0.
         13    1    3    3    0    0 -0.25898637357E+02 -0.15979083341E+02 -0.51160824349E+03  0.51251250261E+03  0.00000000000E+00 0.  1.
          3    1    3    3  501    0 -0.97987183007E+01 -0.47089133852E+01 -0.21233014959E+03  0.21260828105E+03  0.00000000000E+00 0.  1.
         -1    1    1    2    0  502  0.35697355658E+02  0.20687996726E+02 -0.27392551395E+03  0.27701530932E+03  0.00000000000E+00 0. -1.
<mgrwt>
<rscale>  1 0.30000000E+03</rscale>
<asrwt>0</asrwt>
<pdfrwt beam="1">  1       21 0.77676272E-02 0.30000000E+03</pdfrwt>
<pdfrwt beam="2">0</pdfrwt>
<totfact> 0.13452095E+04</totfact>
</mgrwt>
</event>
<event>
 6    1  0.1280499E-001  0.3000000E+03  0.7818608E-02  0.1093470E+00
         21   -1    0    0  501  502  0.00000000000E+00  0.00000000000E+00  0.39710846230E+01  0.39710846230E+01  0.00000000000E+00 0. -1.
         13   -1    0    0    0    0 -0.00000000000E+00 -0.00000000000E+00 -0.10000000000E+04  0.10000000000E+04  0.00000000000E+00 0.  1.
    9000005    2    1    2  501    0 -0.35043759776E+02  0.12404210613E+02 -0.90328607789E+03  0.90405530286E+03  0.28848879992E+01 0.  0.
         13    1    3    3    0    0 -0.28681231202E+00 -0.11829995895E+00 -0.48023883393E+01  0.48123996036E+01  0.00000000000E+00 0.  1.
          3    1    3    3  501    0 -0.34756947464E+02  0.12522510572E+02 -0.89848368955E+03  0.89924290326E+03  0.00000000000E+00 0.  1.
         -3    1    1    2    0  502  0.35043759776E+02 -0.12404210613E+02 -0.92742837484E+02  0.99915781760E+02  0.00000000000E+00 0. -1.
<mgrwt>
<rscale>  1 0.30000000E+03</rscale>
<asrwt>0</asrwt>
<pdfrwt beam="1">  1       21 0.14440338E-01 0.30000000E+03</pdfrwt>
<pdfrwt beam="2">0</pdfrwt>
<totfact> 0.44176264E+03</totfact>
</mgrwt>
</event>
<event>
 6    1  0.1280499E-001  0.3000000E+03  0.7818608E-02  0.1093470E+00
         21   -1    0    0  501  502  0.00000000000E+00  0.00000000000E+00  0.19615706864E+01  0.19615706864E+01  0.00000000000E+00 0. -1.
         13   -1    0    0    0    0 -0.00000000000E+00 -0.00000000000E+00 -0.10000000000E+04  0.10000000000E+04  0.00000000000E+00 0.  1.
    9000005    2    1    2  501    0  0.94148123551E+01 -0.40560322314E+02 -0.66857170666E+03  0.66987408256E+03  0.30628570818E+01 0.  0.
         13    1    3    3    0    0  0.85988512920E+01 -0.39411652517E+02 -0.64749723538E+03  0.64875256333E+03  0.00000000000E+00 0.  1.
          3    1    3    3  501    0  0.81596106315E+00 -0.11486697971E+01 -0.21074471279E+02  0.21121519227E+02  0.00000000000E+00 0.  1.
         -3    1    1    2    0  502 -0.94148123551E+01  0.40560322314E+02 -0.32946672265E+03  0.33208748813E+03  0.00000000000E+00 0. -1.
<mgrwt>
<rscale>  1 0.30000000E+03</rscale>
<asrwt>0</asrwt>
<pdfrwt beam="1">  1       21 0.71329994E-02 0.30000000E+03</pdfrwt>
<pdfrwt beam="2">0</pdfrwt>
<totfact> 0.15614923E+04</totfact>
</mgrwt>
</event>
<event>
 6    1  0.1280499E-001  0.3000000E+03  0.7818608E-02  0.1093470E+00
         21   -1    0    0  501  502  0.00000000000E+00  0.00000000000E+00  0.79115874687E+01  0.79115874687E+01  0.00000000000E+00 0. -1.
         13   -1    0    0    0    0 -0.00000000000E+00 -0.00000000000E+00 -0.10000000000E+04  0.10000000000E+04  0.00000000000E+00 0.  1.
    9000005    2    1    2  501    0 -0.33534263345E+02  0.80077335470E+02 -0.60420981228E+03  0.61043613539E+03  0.50844525518E+01 0.  0.
         13    1    3    3    0    0 -0.27735128811E+02  0.64467217156E+02 -0.50099909636E+03  0.50589065421E+03  0.00000000000E+00 0.  1.
          1    1    3    3  501    0 -0.57991345337E+01  0.15610118314E+02 -0.10321071592E+03  0.10454548118E+03  0.00000000000E+00 0.  1.
         -1    1    1    2    0  502  0.33534263345E+02 -0.80077335470E+02 -0.38787860025E+03  0.39747545208E+03  0.00000000000E+00 0. -1.
<mgrwt>
<rscale>  1 0.30000000E+03</rscale>
<asrwt>0</asrwt>
<pdfrwt beam="1">  1       21 0.28769470E-01 0.30000000E+03</pdfrwt>
<pdfrwt beam="2">0</pdfrwt>
<totfact> 0.11820163E+03</totfact>
</mgrwt>
</event>
<event>
 6    1  0.1280499E-001  0.3000000E+03  0.7818608E-02  0.1093470E+00
         21   -1    0    0  501  502  0.00000000000E+00  0.00000000000E+00  0.17090876782E+01  0.17090876782E+01  0.00000000000E+00 0. -1.
         13   -1    0    0    0    0 -0.00000000000E+00 -0.00000000000E+00 -0.10000000000E+04  0.10000000000E+04  0.00000000000E+00 0.  1.
    9000005    2    1    2  501    0  0.31844057017E+02  0.28454630350E+01 -0.81610949070E+03  0.81674365574E+03  0.36548265540E+01 0.  0.
         13    1    3    3    0    0  0.51534347320E+01  0.13237622801E+01 -0.11078569192E+03  0.11091338860E+03  0.00000000000E+00 0.  1.
          3    1    3    3  501    0  0.26690622285E+02  0.15217007549E+01 -0.70532379878E+03  0.70583026715E+03  0.00000000000E+00 0.  1.
         -3    1    1    2    0  502 -0.31844057017E+02 -0.28454630350E+01 -0.18218142162E+03  0.18496543193E+03  0.00000000000E+00 0. -1.
<mgrwt>
<rscale>  1 0.30000000E+03</rscale>
<asrwt>0</asrwt>
<pdfrwt beam="1">  1       21 0.62148774E-02 0.30000000E+03</pdfrwt>
<pdfrwt beam="2">0</pdfrwt>
<totfact> 0.19830083E+04</totfact>
</mgrwt>
</event>
<event>
 6    1  0.1280499E-001  0.3000000E+03  0.7818608E-02  0.1093470E+00
         21   -1    0    0  501  502  0.00000000000E+00  0.00000000000E+00  0.15667475938E+01  0.15667475938E+01  0.00000000000E+00 0. -1.
         13   -1    0    0    0    0 -0.00000000000E+00 -0.00000000000E+00 -0.10000000000E+04  0.10000000000E+04  0.00000000000E+00 0.  1.
    9000005    2    1    2  501    0 -0.30910759290E+02  0.26234269843E+01 -0.19327431325E+03  0.19581041054E+03  0.49395649739E+01 0.  0.
         13    1    3    3    0    0 -0.13362794051E+02  0.35532594258E+01 -0.82327884333E+02  0.83480958644E+02  0.00000000000E+00 0.  1.
          1    1    3    3  501    0 -0.17547965240E+02 -0.92983244145E+00 -0.11094642892E+03  0.11232945189E+03  0.00000000000E+00 0.  1.
         -1    1    1    2    0  502  0.30910759290E+02 -0.26234269843E+01 -0.80515893915E+03  0.80575633706E+03  0.00000000000E+00 0. -1.
<mgrwt>
<rscale>  1 0.30000000E+03</rscale>
<asrwt>0</asrwt>
<pdfrwt beam="1">  1       21 0.56972760E-02 0.30000000E+03</pdfrwt>
<pdfrwt beam="2">0</pdfrwt>
<totfact> 0.23037188E+04</totfact>
</mgrwt>
</event>
<event>
 6    1  0.1280499E-001  0.3000000E+03  0.7818608E-02  0.1093470E+00
         21   -1    0    0  501  502  0.00000000000E+00  0.00000000000E+00  0.18619042185E+01  0.18619042185E+01  0.00000000000E+00 0. -1.
         13   -1    0    0    0    0 -0.00000000000E+00 -0.00000000000E+00 -0.10000000000E+04  0.10000000000E+04  0.00000000000E+00 0.  1.
    9000005    2    1    2  501    0  0.25885423081E+02 -0.16468780999E+02 -0.85082826063E+03  0.85139109838E+03  0.40984689372E+01 0.  0.
         13    1    3    3    0    0  0.16531690535E+02 -0.11043788076E+02 -0.49651517748E+03  0.49691305428E+03  0.00000000000E+00 0.  1.
          1    1    3    3  501    0  0.93537325462E+01 -0.54249929229E+01 -0.35431308315E+03  0.35447804410E+03  0.00000000000E+00 0.  1.
         -3    1    1    2    0  502 -0.25885423081E+02  0.16468780999E+02 -0.14730983516E+03  0.15047080584E+03  0.00000000000E+00 0. -1.
<mgrwt>
<rscale>  1 0.30000000E+03</rscale>
<asrwt>0</asrwt>
<pdfrwt beam="1">  1       21 0.67705751E-02 0.30000000E+03</pdfrwt>
<pdfrwt beam="2">0</pdfrwt>
<totfact> 0.17097444E+04</totfact>
</mgrwt>
</event>
<event>
 6    1  0.1280499E-001  0.3000000E+03  0.7818608E-02  0.1093470E+00
         21   -1    0    0  501  502  0.00000000000E+00  0.00000000000E+00  0.32411022321E+01  0.32411022321E+01  0.00000000000E+00 0. -1.
         13   -1    0    0    0    0 -0.00000000000E+00 -0.00000000000E+00 -0.10000000000E+04  0.10000000000E+04  0.00000000000E+00 0.  1.
    9000005    2    1    2  501    0  0.26462615029E+02  0.25150524082E+02 -0.11450111815E+03  0.12022830020E+03  0.33940028947E+01 0.  0.
         13    1    3    3    0    0  0.10048705614E+02  0.94514436584E+01 -0.48778012437E+02  0.50691229705E+02  0.00000000000E+00 0.  1.
          3    1    3    3  501    0  0.16413909415E+02  0.15699080424E+02 -0.65723105714E+02  0.69537070496E+02  0.00000000000E+00 0.  1.
         -1    1    1    2    0  502 -0.26462615029E+02 -0.25150524082E+02 -0.88225777962E+03  0.88301280203E+03  0.00000000000E+00 0. -1.
<mgrwt>
<rscale>  1 0.30000000E+03</rscale>
<asrwt>0</asrwt>
<pdfrwt beam="1">  1       21 0.11785851E-01 0.30000000E+03</pdfrwt>
<pdfrwt beam="2">0</pdfrwt>
<totfact> 0.64027796E+03</totfact>
</mgrwt>
</event>
<event>
 6    1  0.1280499E-001  0.3000000E+03  0.7818608E-02  0.1093470E+00
         21   -1    0    0  501  502  0.00000000000E+00  0.00000000000E+00  0.19555453641E+01  0.19555453641E+01  0.00000000000E+00 0. -1.
         13   -1    0    0    0    0 -0.00000000000E+00 -0.00000000000E+00 -0.10000000000E+04  0.10000000000E+04  0.00000000000E+00 0.  1.
    9000005    2    1    2  501    0  0.71517379057E+01  0.43522240780E+02 -0.47475562137E+03  0.47681124537E+03  0.32758036236E+01 0.  0.
         13    1    3    3    0    0  0.29046112198E+01  0.11028583242E+02 -0.11265501374E+03  0.11323081973E+03  0.00000000000E+00 0.  1.
          3    1    3    3  501    0  0.42471266860E+01  0.32493657538E+02 -0.36210060763E+03  0.36358042564E+03  0.00000000000E+00 0.  1.
         -1    1    1    2    0  502 -0.71517379057E+01 -0.43522240780E+02 -0.52328883326E+03  0.52514429999E+03  0.00000000000E+00 0. -1.
<mgrwt>
<rscale>  1 0.30000000E+03</rscale>
<asrwt>0</asrwt>
<pdfrwt beam="1">  1       21 0.71110890E-02 0.30000000E+03</pdfrwt>
<pdfrwt beam="2">0</pdfrwt>
<totfact> 0.15698871E+04</totfact>
</mgrwt>
</event>
<event>
 6    1  0.1280499E-001  0.3000000E+03  0.7818608E-02  0.1093470E+00
         21   -1    0    0  501  502  0.00000000000E+00  0.00000000000E+00  0.10873207405E+01  0.10873207405E+01  0.00000000000E+00 0. -1.
         13   -1    0    0    0    0 -0.00000000000E+00 -0.00000000000E+00 -0.10000000000E+04  0.10000000000E+04  0.00000000000E+00 0.  1.
    9000005    2    1    2  501    0 -0.26520888288E+02  0.18458852416E+02 -0.59422409098E+03  0.59511079404E+03  0.32403910300E+01 0.  0.
         13    1    3    3    0    0 -0.83857652676E+01  0.69161614733E+01 -0.17733375404E+03  0.17766658287E+03  0.00000000000E+00 0.  1.
          3    1    3    3  501    0 -0.18135123020E+02  0.11542690942E+02 -0.41689033694E+03  0.41744421117E+03  0.00000000000E+00 0.  1.
         -1    1    1    2    0  502  0.26520888288E+02 -0.18458852416E+02 -0.40468858828E+03  0.40597652670E+03  0.00000000000E+00 0. -1.
<mgrwt>
<rscale>  1 0.30000000E+03</rscale>
<asrwt>0</asrwt>
<pdfrwt beam="1">  1       21 0.39539019E-02 0.30000000E+03</pdfrwt>
<pdfrwt beam="2">0</pdfrwt>
<totfact> 0.42875925E+04</totfact>
</mgrwt>
</event>
<event>
 6    1  0.1280499E-001  0.3000000E+03  0.7818608E-02  0.1093470E+00
         21   -1    0    0  501  502  0.00000000000E+00  0.00000000000E+00  0.21924346558E+01  0.21924346558E+01  0.00000000000E+00 0. -1.
         13   -1    0    0    0    0 -0.00000000000E+00 -0.00000000000E+00 -0.10000000000E+04  0.10000000000E+04  0.00000000000E+00 0.  1.
    9000005    2    1    2  501    0  0.21239850286E+02 -0.23361221960E+02 -0.86874855097E+03  0.86932743880E+03  0.30451784815E+01 0.  0.
         13    1    3    3    0    0  0.66643264480E+01 -0.64755449448E+01 -0.29147511098E+03  0.29162319224E+03  0.00000000000E+00 0.  1.
          3    1    3    3  501    0  0.14575523839E+02 -0.16885677016E+02 -0.57727343999E+03  0.57770424656E+03  0.00000000000E+00 0.  1.
         -1    1    1    2    0  502 -0.21239850286E+02  0.23361221960E+02 -0.12905901438E+03  0.13286499585E+03  0.00000000000E+00 0. -1.
<mgrwt>
<rscale>  1 0.30000000E+03</rscale>
<asrwt>0</asrwt>
<pdfrwt beam="1">  1       21 0.79725065E-02 0.30000000E+03</pdfrwt>
<pdfrwt beam="2">0</pdfrwt>
<totfact> 0.12851336E+04</totfact>
</mgrwt>
</event>
<event>
 6    1  0.1280499E-001  0.3000000E+03  0.7818608E-02  0.1093470E+00
         21   -1    0    0  501  502  0.00000000000E+00  0.00000000000E+00  0.14817326614E+01  0.14817326614E+01  0.00000000000E+00 0. -1.
         13   -1    0    0    0    0 -0.00000000000E+00 -0.00000000000E+00 -0.10000000000E+04  0.10000000000E+04  0.00000000000E+00 0.  1.
    9000005    2    1    2  501    0  0.31253430688E+02 -0.21077192685E+02 -0.59737748290E+03  0.59857361172E+03  0.30800307110E+01 0.  0.
         13    1    3    3    0    0  0.62869753196E+01 -0.44303266830E+01 -0.14254690158E+03  0.14275423988E+03  0.00000000000E+00 0.  1.
          1    1    3    3  501    0  0.24966455368E+02 -0.16646866002E+02 -0.45483058132E+03  0.45581937184E+03  0.00000000000E+00 0.  1.
         -1    1    1    2    0  502 -0.31253430688E+02  0.21077192685E+02 -0.40114078444E+03  0.40290812094E+03  0.00000000000E+00 0. -1.
<mgrwt>
<rscale>  1 0.30000000E+03</rscale>
<asrwt>0</asrwt>
<pdfrwt beam="1">  1       21 0.53881301E-02 0.30000000E+03</pdfrwt>
<pdfrwt beam="2">0</pdfrwt>
<totfact> 0.25351235E+04</totfact>
</mgrwt>
</event>
<event>
 6    1  0.1280499E-001  0.3000000E+03  0.7818608E-02  0.1093470E+00
         21   -1    0    0  501  502  0.00000000000E+00  0.00000000000E+00  0.12459756236E+01  0.12459756236E+01  0.00000000000E+00 0. -1.
         13   -1    0    0    0    0 -0.00000000000E+00 -0.00000000000E+00 -0.10000000000E+04  0.10000000000E+04  0.00000000000E+00 0.  1.
    9000005    2    1    2  501    0 -0.12391263038E+02  0.32804938120E+02 -0.54694507529E+03  0.54807819892E+03  0.33300730539E+01 0.  0.
         13    1    3    3    0    0 -0.44499824149E+01  0.12163632984E+02 -0.17771594878E+03  0.17818730247E+03  0.00000000000E+00 0.  1.
          1    1    3    3  501    0 -0.79412806232E+01  0.20641305136E+02 -0.36922912651E+03  0.36989089645E+03  0.00000000000E+00 0.  1.
         -3    1    1    2    0  502  0.12391263038E+02 -0.32804938120E+02 -0.45180894909E+03  0.45316777670E+03  0.00000000000E+00 0. -1.
<mgrwt>
<rscale>  1 0.30000000E+03</rscale>
<asrwt>0</asrwt>
<pdfrwt beam="1">  1       21 0.45308300E-02 0.30000000E+03</pdfrwt>
<pdfrwt beam="2">0</pdfrwt>
<totfact> 0.34061150E+04</totfact>
</mgrwt>
</event>
<event>
 6    1  0.1280499E-001  0.3000000E+03  0.7818608E-02  0.1093470E+00
         21   -1    0    0  501  502  0.00000000000E+00  0.00000000000E+00  0.11571357186E+01  0.11571357186E+01  0.00000000000E+00 0. -1.
         13   -1    0    0    0    0 -0.00000000000E+00 -0.00000000000E+00 -0.10000000000E+04  0.10000000000E+04  0.00000000000E+00 0.  1.
    9000005    2    1    2  501    0  0.20801030150E+02 -0.26397681790E+02 -0.56893866049E+03  0.56994124443E+03  0.35074559605E+01 0.  0.
         13    1    3    3    0    0  0.18968937044E+02 -0.22383122058E+02 -0.48493442420E+03  0.48582118161E+03  0.00000000000E+00 0.  1.
          1    1    3    3  501    0  0.18320931052E+01 -0.40145597318E+01 -0.84004236283E+02  0.84120062818E+02  0.00000000000E+00 0.  1.
         -3    1    1    2    0  502 -0.20801030150E+02  0.26397681790E+02 -0.42990420380E+03  0.43121589129E+03  0.00000000000E+00 0. -1.
<mgrwt>
<rscale>  1 0.30000000E+03</rscale>
<asrwt>0</asrwt>
<pdfrwt beam="1">  1       21 0.42077751E-02 0.30000000E+03</pdfrwt>
<pdfrwt beam="2">0</pdfrwt>
<totfact> 0.38605691E+04</totfact>
</mgrwt>
</event>
<event>
 6    1  0.1280499E-001  0.3000000E+03  0.7818608E-02  0.1093470E+00
         21   -1    0    0  501  502  0.00000000000E+00  0.00000000000E+00  0.20759513413E+02  0.20759513413E+02  0.00000000000E+00 0. -1.
         13   -1    0    0    0    0 -0.00000000000E+00 -0.00000000000E+00 -0.10000000000E+04  0.10000000000E+04  0.00000000000E+00 0.  1.
    9000005    2    1    2  501    0 -0.45992377207E+02 -0.19467244591E+02 -0.96835175992E+03  0.96964359866E+03  0.30504262350E+01 0.  0.
         13    1    3    3    0    0 -0.30433533495E+02 -0.13058321182E+02 -0.66928305273E+03  0.67010187612E+03  0.00000000000E+00 0.  1.
          3    1    3    3  501    0 -0.15558843712E+02 -0.64089234082E+01 -0.29906870719E+03  0.29954172253E+03  0.00000000000E+00 0.  1.
         -1    1    1    2    0  502  0.45992377207E+02  0.19467244591E+02 -0.10888726667E+02  0.51115914758E+02  0.00000000000E+00 0. -1.
<mgrwt>
<rscale>  1 0.30000000E+03</rscale>
<asrwt>0</asrwt>
<pdfrwt beam="1">  1       21 0.75489299E-01 0.30000000E+03</pdfrwt>
<pdfrwt beam="2">0</pdfrwt>
<totfact> 0.14777648E+02</totfact>
</mgrwt>
</event>
<event>
 6    1  0.1280499E-001  0.3000000E+03  0.7818608E-02  0.1093470E+00
         21   -1    0    0  501  502  0.00000000000E+00  0.00000000000E+00  0.34469957696E+01  0.34469957696E+01  0.00000000000E+00 0. -1.
         13   -1    0    0    0    0 -0.00000000000E+00 -0.00000000000E+00 -0.10000000000E+04  0.10000000000E+04  0.00000000000E+00 0.  1.
    9000005    2    1    2  501    0  0.33493302636E+02  0.42303524163E+02 -0.69553494706E+03  0.69763126658E+03  0.30219278532E+01 0.  0.
         13    1    3    3    0    0  0.82544107822E+00  0.18147543462E+01 -0.22035609890E+02  0.22125613880E+02  0.00000000000E+00 0.  1.
          1    1    3    3  501    0  0.32667861557E+02  0.40488769817E+02 -0.67349933717E+03  0.67550565270E+03  0.00000000000E+00 0.  1.
         -3    1    1    2    0  502 -0.33493302636E+02 -0.42303524163E+02 -0.30101805717E+03  0.30581572919E+03  0.00000000000E+00 0. -1.
<mgrwt>
<rscale>  1 0.30000000E+03</rscale>
<asrwt>0</asrwt>
<pdfrwt beam="1">  1       21 0.12534557E-01 0.30000000E+03</pdfrwt>
<pdfrwt beam="2">0</pdfrwt>
<totfact> 0.57248331E+03</totfact>
</mgrwt>
</event>
<event>
 6    1  0.1280499E-001  0.3000000E+03  0.7818608E-02  0.1093470E+00
         21   -1    0    0  501  502  0.00000000000E+00  0.00000000000E+00  0.15149667596E+01  0.15149667596E+01  0.00000000000E+00 0. -1.
         13   -1    0    0    0    0 -0.00000000000E+00 -0.00000000000E+00 -0.10000000000E+04  0.10000000000E+04  0.00000000000E+00 0.  1.
    9000005    2    1    2  501    0  0.34561419769E+02  0.15097292618E+02 -0.62071741382E+03  0.62186935008E+03  0.29934544939E+01 0.  0.
         13    1    3    3    0    0  0.21573968870E+02  0.10479701121E+02 -0.41145146656E+03  0.41214993583E+03  0.00000000000E+00 0.  1.
          3    1    3    3  501    0  0.12987450898E+02  0.46175914967E+01 -0.20926594726E+03  0.20971941425E+03  0.00000000000E+00 0.  1.
         -3    1    1    2    0  502 -0.34561419769E+02 -0.15097292618E+02 -0.37776761942E+03  0.37964561668E+03  0.00000000000E+00 0. -1.
<mgrwt>
<rscale>  1 0.30000000E+03</rscale>
<asrwt>0</asrwt>
<pdfrwt beam="1">  1       21 0.55089817E-02 0.30000000E+03</pdfrwt>
<pdfrwt beam="2">0</pdfrwt>
<totfact> 0.24405766E+04</totfact>
</mgrwt>
</event>
<event>
 6    1  0.1280499E-001  0.3000000E+03  0.7818608E-02  0.1093470E+00
         21   -1    0    0  501  502  0.00000000000E+00  0.00000000000E+00  0.26093575765E+01  0.26093575765E+01  0.00000000000E+00 0. -1.
         13   -1    0    0    0    0 -0.00000000000E+00 -0.00000000000E+00 -0.10000000000E+04  0.10000000000E+04  0.00000000000E+00 0.  1.
    9000005    2    1    2  501    0 -0.28424251257E+02 -0.40359089645E+02 -0.62422033116E+03  0.62618821659E+03  0.48853434331E+01 0.  0.
         13    1    3    3    0    0 -0.96315710381E+01 -0.11274884868E+02 -0.21014422213E+03  0.21066676123E+03  0.00000000000E+00 0.  1.
          3    1    3    3  501    0 -0.18792680219E+02 -0.29084204777E+02 -0.41407610903E+03  0.41552145536E+03  0.00000000000E+00 0.  1.
         -1    1    1    2    0  502  0.28424251257E+02  0.40359089645E+02 -0.37317031126E+03  0.37642114099E+03  0.00000000000E+00 0. -1.
<mgrwt>
<rscale>  1 0.30000000E+03</rscale>
<asrwt>0</asrwt>
<pdfrwt beam="1">  1       21 0.94885930E-02 0.30000000E+03</pdfrwt>
<pdfrwt beam="2">0</pdfrwt>
<totfact> 0.94479216E+03</totfact>
</mgrwt>
</event>
<event>
 6    1  0.1280499E-001  0.3000000E+03  0.7818608E-02  0.1093470E+00
         21   -1    0    0  501  502  0.00000000000E+00  0.00000000000E+00  0.79092834914E+01  0.79092834914E+01  0.00000000000E+00 0. -1.
         13   -1    0    0    0    0 -0.00000000000E+00 -0.00000000000E+00 -0.10000000000E+04  0.10000000000E+04  0.00000000000E+00 0.  1.
    9000005    2    1    2  501    0  0.57941172721E+02  0.29693033745E+02 -0.83927942620E+03  0.84180646534E+03  0.30519027687E+01 0.  0.
         13    1    3    3    0    0  0.24289896481E+02  0.11843047704E+02 -0.33030524829E+03  0.33140883195E+03  0.00000000000E+00 0.  1.
          3    1    3    3  501    0  0.33651276240E+02  0.17849986041E+02 -0.50897417791E+03  0.51039763339E+03  0.00000000000E+00 0.  1.
         -3    1    1    2    0  502 -0.57941172721E+02 -0.29693033745E+02 -0.15281129031E+03  0.16610281815E+03  0.00000000000E+00 0. -1.
<mgrwt>
<rscale>  1 0.30000000E+03</rscale>
<asrwt>0</asrwt>
<pdfrwt beam="1">  1       21 0.28761092E-01 0.30000000E+03</pdfrwt>
<pdfrwt beam="2">0</pdfrwt>
<totfact> 0.11827013E+03</totfact>
</mgrwt>
</event>
<event>
 6    1  0.1280499E-001  0.3000000E+03  0.7818608E-02  0.1093470E+00
         21   -1    0    0  501  502  0.00000000000E+00  0.00000000000E+00  0.14651269622E+01  0.14651269622E+01  0.00000000000E+00 0. -1.
         13   -1    0    0    0    0 -0.00000000000E+00 -0.00000000000E+00 -0.10000000000E+04  0.10000000000E+04  0.00000000000E+00 0.  1.
    9000005    2    1    2  501    0 -0.13020519495E+02  0.33833729241E+02 -0.65776463717E+03  0.65877195689E+03  0.34522613054E+01 0.  0.
         13    1    3    3    0    0 -0.13202532733E+01  0.67470505365E+01 -0.13617413084E+03  0.13634756936E+03  0.00000000000E+00 0.  1.
          3    1    3    3  501    0 -0.11700266221E+02  0.27086678705E+02 -0.52159050633E+03  0.52242438753E+03  0.00000000000E+00 0.  1.
         -1    1    1    2    0  502  0.13020519495E+02 -0.33833729241E+02 -0.34077023586E+03  0.34269317007E+03  0.00000000000E+00 0. -1.
<mgrwt>
<rscale>  1 0.30000000E+03</rscale>
<asrwt>0</asrwt>
<pdfrwt beam="1">  1       21 0.53277456E-02 0.30000000E+03</pdfrwt>
<pdfrwt beam="2">0</pdfrwt>
<totfact> 0.25844990E+04</totfact>
</mgrwt>
</event>
<event>
 6    1  0.1280499E-001  0.3000000E+03  0.7818608E-02  0.1093470E+00
         21   -1    0    0  501  502  0.00000000000E+00  0.00000000000E+00  0.10223501886E+01  0.10223501886E+01  0.00000000000E+00 0. -1.
         13   -1    0    0    0    0 -0.00000000000E+00 -0.00000000000E+00 -0.10000000000E+04  0.10000000000E+04  0.00000000000E+00 0.  1.
    9000005    2    1    2  501    0 -0.39251082753E+01 -0.31688408795E+02 -0.49019392848E+03  0.49123765365E+03  0.21870354167E+01 0.  0.
         13    1    3    3    0    0 -0.36920718533E+01 -0.30202498931E+02 -0.47322563632E+03  0.47420283130E+03  0.00000000000E+00 0.  1.
          3    1    3    3  501    0 -0.23303642204E+00 -0.14859098644E+01 -0.16968292156E+02  0.17034822358E+02  0.00000000000E+00 0.  1.
         -3    1    1    2    0  502  0.39251082753E+01  0.31688408795E+02 -0.50878372133E+03  0.50978469653E+03  0.00000000000E+00 0. -1.
<mgrwt>
<rscale>  1 0.30000000E+03</rscale>
<asrwt>0</asrwt>
<pdfrwt beam="1">  1       21 0.37176449E-02 0.30000000E+03</pdfrwt>
<pdfrwt beam="2">0</pdfrwt>
<totfact> 0.47554149E+04</totfact>
</mgrwt>
</event>
<event>
 6    1  0.1280499E-001  0.3000000E+03  0.7818608E-02  0.1093470E+00
         21   -1    0    0  501  502  0.00000000000E+00  0.00000000000E+00  0.27967698473E+01  0.27967698473E+01  0.00000000000E+00 0. -1.
         13   -1    0    0    0    0 -0.00000000000E+00 -0.00000000000E+00 -0.10000000000E+04  0.10000000000E+04  0.00000000000E+00 0.  1.
    9000005    2    1    2  501    0 -0.47177173943E+02  0.23811796316E+02 -0.49258079138E+03  0.49541477066E+03  0.26965845009E+01 0.  0.
         13    1    3    3    0    0 -0.18911250092E+02  0.81710255540E+01 -0.18739335763E+03  0.18852233694E+03  0.00000000000E+00 0.  1.
          3    1    3    3  501    0 -0.28265923850E+02  0.15640770762E+02 -0.30518743374E+03  0.30689243372E+03  0.00000000000E+00 0.  1.
         -3    1    1    2    0  502  0.47177173943E+02 -0.23811796316E+02 -0.50462243877E+03  0.50738199919E+03  0.00000000000E+00 0. -1.
<mgrwt>
<rscale>  1 0.30000000E+03</rscale>
<asrwt>0</asrwt>
<pdfrwt beam="1">  1       21 0.10170094E-01 0.30000000E+03</pdfrwt>
<pdfrwt beam="2">0</pdfrwt>
<totfact> 0.83476590E+03</totfact>
</mgrwt>
</event>
<event>
 6    1  0.1280499E-001  0.3000000E+03  0.7818608E-02  0.1093470E+00
         21   -1    0    0  501  502  0.00000000000E+00  0.00000000000E+00  0.14479573143E+01  0.14479573143E+01  0.00000000000E+00 0. -1.
         13   -1    0    0    0    0 -0.00000000000E+00 -0.00000000000E+00 -0.10000000000E+04  0.10000000000E+04  0.00000000000E+00 0.  1.
    9000005    2    1    2  501    0 -0.23782534005E+02  0.19378062214E+02 -0.79481841122E+03  0.79541759351E+03  0.34238915069E+01 0.  0.
         13    1    3    3    0    0 -0.11862229575E+02  0.78590717333E+01 -0.39240571665E+03  0.39266362698E+03  0.00000000000E+00 0.  1.
          3    1    3    3  501    0 -0.11920304430E+02  0.11518990480E+02 -0.40241269458E+03  0.40275396653E+03  0.00000000000E+00 0.  1.
         -3    1    1    2    0  502  0.23782534005E+02 -0.19378062214E+02 -0.20373363146E+03  0.20603036380E+03  0.00000000000E+00 0. -1.
<mgrwt>
<rscale>  1 0.30000000E+03</rscale>
<asrwt>0</asrwt>
<pdfrwt beam="1">  1       21 0.52653104E-02 0.30000000E+03</pdfrwt>
<pdfrwt beam="2">0</pdfrwt>
<totfact> 0.26371328E+04</totfact>
</mgrwt>
</event>
<event>
 6    1  0.1280499E-001  0.3000000E+03  0.7818608E-02  0.1093470E+00
         21   -1    0    0  501  502  0.00000000000E+00  0.00000000000E+00  0.15412927845E+01  0.15412927845E+01  0.00000000000E+00 0. -1.
         13   -1    0    0    0    0 -0.00000000000E+00 -0.00000000000E+00 -0.10000000000E+04  0.10000000000E+04  0.00000000000E+00 0.  1.
    9000005    2    1    2  501    0  0.28747379446E+02  0.24096909081E+02 -0.35530675146E+03  0.35729637736E+03  0.32773148370E+01 0.  0.
         13    1    3    3    0    0  0.20366179488E+02  0.15081899010E+02 -0.24094355978E+03  0.24227266446E+03  0.00000000000E+00 0.  1.
          3    1    3    3  501    0  0.83811999579E+01  0.90150100708E+01 -0.11436319168E+03  0.11502371290E+03  0.00000000000E+00 0.  1.
         -3    1    1    2    0  502 -0.28747379446E+02 -0.24096909081E+02 -0.64315195576E+03  0.64424491542E+03  0.00000000000E+00 0. -1.
<mgrwt>
<rscale>  1 0.30000000E+03</rscale>
<asrwt>0</asrwt>
<pdfrwt beam="1">  1       21 0.56047129E-02 0.30000000E+03</pdfrwt>
<pdfrwt beam="2">0</pdfrwt>
<totfact> 0.23694810E+04</totfact>
</mgrwt>
</event>
<event>
 6    1  0.1280499E-001  0.3000000E+03  0.7818608E-02  0.1093470E+00
         21   -1    0    0  501  502  0.00000000000E+00  0.00000000000E+00  0.32285371944E+01  0.32285371944E+01  0.00000000000E+00 0. -1.
         13   -1    0    0    0    0 -0.00000000000E+00 -0.00000000000E+00 -0.10000000000E+04  0.10000000000E+04  0.00000000000E+00 0.  1.
    9000005    2    1    2  501    0 -0.39909085799E+02 -0.12565979185E+02 -0.83758646846E+03  0.83863661337E+03  0.31045420704E+01 0.  0.
         13    1    3    3    0    0 -0.26126604654E+02 -0.89172053176E+01 -0.52545052120E+03  0.52617522390E+03  0.00000000000E+00 0.  1.
          1    1    3    3  501    0 -0.13782481146E+02 -0.36487738672E+01 -0.31213594726E+03  0.31246138947E+03  0.00000000000E+00 0.  1.
         -1    1    1    2    0  502  0.39909085799E+02  0.12565979185E+02 -0.15918499435E+03  0.16459192383E+03  0.00000000000E+00 0. -1.
<mgrwt>
<rscale>  1 0.30000000E+03</rscale>
<asrwt>0</asrwt>
<pdfrwt beam="1">  1       21 0.11740160E-01 0.30000000E+03</pdfrwt>
<pdfrwt beam="2">0</pdfrwt>
<totfact> 0.64479750E+03</totfact>
</mgrwt>
</event>
<event>
 6    1  0.1280499E-001  0.3000000E+03  0.7818608E-02  0.1093470E+00
         21   -1    0    0  501  502  0.00000000000E+00  0.00000000000E+00  0.33291243522E+01  0.33291243522E+01  0.00000000000E+00 0. -1.
         13   -1    0    0    0    0 -0.00000000000E+00 -0.00000000000E+00 -0.10000000000E+04  0.10000000000E+04  0.00000000000E+00 0.  1.
    9000005    2    1    2  501    0  0.33383760033E+02 -0.10174322397E+02 -0.89688760644E+03  0.89761870346E+03  0.96936038874E+01 0.  0.
         13    1    3    3    0    0  0.33552734265E+02 -0.10698526820E+02 -0.89278124855E+03  0.89347557449E+03  0.00000000000E+00 0.  1.
          1    1    3    3  501    0 -0.16897423213E+00  0.52420442314E+00 -0.41063578881E+01  0.41431289714E+01  0.00000000000E+00 0.  1.
         -3    1    1    2    0  502 -0.33383760033E+02  0.10174322397E+02 -0.99783269211E+02  0.10571042089E+03  0.00000000000E+00 0. -1.
<mgrwt>
<rscale>  1 0.30000000E+03</rscale>
<asrwt>0</asrwt>
<pdfrwt beam="1">  1       21 0.12105932E-01 0.30000000E+03</pdfrwt>
<pdfrwt beam="2">0</pdfrwt>
<totfact> 0.60990019E+03</totfact>
</mgrwt>
</event>
<event>
 6    1  0.1280499E-001  0.3000000E+03  0.7818608E-02  0.1093470E+00
         21   -1    0    0  501  502  0.00000000000E+00  0.00000000000E+00  0.96911317570E+00  0.96911317570E+00  0.00000000000E+00 0. -1.
         13   -1    0    0    0    0 -0.00000000000E+00 -0.00000000000E+00 -0.10000000000E+04  0.10000000000E+04  0.00000000000E+00 0.  1.
    9000005    2    1    2  501    0  0.26831171308E+02 -0.13781054052E+02 -0.38280164364E+03  0.38400208865E+03  0.32674920943E+01 0.  0.
         13    1    3    3    0    0  0.89927397562E+01 -0.62586314784E+01 -0.13110686935E+03  0.13156386673E+03  0.00000000000E+00 0.  1.
          3    1    3    3  501    0  0.17838431552E+02 -0.75224225733E+01 -0.25169477429E+03  0.25243822192E+03  0.00000000000E+00 0.  1.
         -3    1    1    2    0  502 -0.26831171308E+02  0.13781054052E+02 -0.61622924318E+03  0.61696702453E+03  0.00000000000E+00 0. -1.
<mgrwt>
<rscale>  1 0.30000000E+03</rscale>
<asrwt>0</asrwt>
<pdfrwt beam="1">  1       21 0.35240553E-02 0.30000000E+03</pdfrwt>
<pdfrwt beam="2">0</pdfrwt>
<totfact> 0.52016633E+04</totfact>
</mgrwt>
</event>
<event>
 6    1  0.1280499E-001  0.3000000E+03  0.7818608E-02  0.1093470E+00
         21   -1    0    0  501  502  0.00000000000E+00  0.00000000000E+00  0.22664776526E+01  0.22664776526E+01  0.00000000000E+00 0. -1.
         13   -1    0    0    0    0 -0.00000000000E+00 -0.00000000000E+00 -0.10000000000E+04  0.10000000000E+04  0.00000000000E+00 0.  1.
    9000005    2    1    2  501    0  0.17184201014E+02  0.38622392393E+02 -0.27052779206E+03  0.27383311755E+03  0.35077097145E+01 0.  0.
         13    1    3    3    0    0  0.11230367051E+02  0.27959756434E+02 -0.18493142755E+03  0.18736996029E+03  0.00000000000E+00 0.  1.
          3    1    3    3  501    0  0.59538339629E+01  0.10662635959E+02 -0.85596364518E+02  0.86463157259E+02  0.00000000000E+00 0.  1.
         -3    1    1    2    0  502 -0.17184201014E+02 -0.38622392393E+02 -0.72720573028E+03  0.72843336011E+03  0.00000000000E+00 0. -1.
<mgrwt>
<rscale>  1 0.30000000E+03</rscale>
<asrwt>0</asrwt>
<pdfrwt beam="1">  1       21 0.82417543E-02 0.30000000E+03</pdfrwt>
<pdfrwt beam="2">0</pdfrwt>
<totfact> 0.12122492E+04</totfact>
</mgrwt>
</event>
<event>
 6    1  0.1280499E-001  0.3000000E+03  0.7818608E-02  0.1093470E+00
         21   -1    0    0  501  502  0.00000000000E+00  0.00000000000E+00  0.27516454723E+01  0.27516454723E+01  0.00000000000E+00 0. -1.
         13   -1    0    0    0    0 -0.00000000000E+00 -0.00000000000E+00 -0.10000000000E+04  0.10000000000E+04  0.00000000000E+00 0.  1.
    9000005    2    1    2  501    0 -0.29901100248E+02 -0.10400114473E+02 -0.89827422525E+03  0.89883765968E+03  0.32119359402E+01 0.  0.
         13    1    3    3    0    0 -0.16813013211E+02 -0.58304649225E+01 -0.45934419196E+03  0.45968876255E+03  0.00000000000E+00 0.  1.
          3    1    3    3  501    0 -0.13088087037E+02 -0.45696495509E+01 -0.43893003329E+03  0.43914889712E+03  0.00000000000E+00 0.  1.
         -1    1    1    2    0  502  0.29901100248E+02  0.10400114473E+02 -0.98974129278E+02  0.10391398579E+03  0.00000000000E+00 0. -1.
<mgrwt>
<rscale>  1 0.30000000E+03</rscale>
<asrwt>0</asrwt>
<pdfrwt beam="1">  1       21 0.10006005E-01 0.30000000E+03</pdfrwt>
<pdfrwt beam="2">0</pdfrwt>
<totfact> 0.85939746E+03</totfact>
</mgrwt>
</event>
<event>
 6    1  0.1280499E-001  0.3000000E+03  0.7818608E-02  0.1093470E+00
         21   -1    0    0  501  502  0.00000000000E+00  0.00000000000E+00  0.18576009535E+01  0.18576009535E+01  0.00000000000E+00 0. -1.
         13   -1    0    0    0    0 -0.00000000000E+00 -0.00000000000E+00 -0.10000000000E+04  0.10000000000E+04  0.00000000000E+00 0.  1.
    9000005    2    1    2  501    0  0.42062135705E+02  0.69993111648E+01 -0.56778580094E+03  0.56939371212E+03  0.32046885172E+01 0.  0.
         13    1    3    3    0    0  0.59799751766E+01 -0.12147977356E-01 -0.73093797022E+02  0.73338007975E+02  0.00000000000E+00 0.  1.
          1    1    3    3  501    0  0.36082160528E+02  0.70114591422E+01 -0.49469200392E+03  0.49605570414E+03  0.00000000000E+00 0.  1.
         -3    1    1    2    0  502 -0.42062135705E+02 -0.69993111648E+01 -0.43035659810E+03  0.43246388884E+03  0.00000000000E+00 0. -1.
<mgrwt>
<rscale>  1 0.30000000E+03</rscale>
<asrwt>0</asrwt>
<pdfrwt beam="1">  1       21 0.67549268E-02 0.30000000E+03</pdfrwt>
<pdfrwt beam="2">0</pdfrwt>
<totfact> 0.17166254E+04</totfact>
</mgrwt>
</event>
<event>
 6    1  0.1280499E-001  0.3000000E+03  0.7818608E-02  0.1093470E+00
         21   -1    0    0  501  502  0.00000000000E+00  0.00000000000E+00  0.29363301962E+01  0.29363301962E+01  0.00000000000E+00 0. -1.
         13   -1    0    0    0    0 -0.00000000000E+00 -0.00000000000E+00 -0.10000000000E+04  0.10000000000E+04  0.00000000000E+00 0.  1.
    9000005    2    1    2  501    0 -0.23591910641E+02  0.20964966848E+02 -0.90608251527E+03  0.90663638958E+03  0.28125340570E+01 0.  0.
         13    1    3    3    0    0 -0.18867142821E+02  0.17643200379E+02 -0.71423669653E+03  0.71470365206E+03  0.00000000000E+00 0.  1.
          3    1    3    3  501    0 -0.47247678198E+01  0.33217664687E+01 -0.19184581874E+03  0.19193273752E+03  0.00000000000E+00 0.  1.
         -1    1    1    2    0  502  0.23591910641E+02 -0.20964966848E+02 -0.90981154535E+02  0.96299940619E+02  0.00000000000E+00 0. -1.
<mgrwt>
<rscale>  1 0.30000000E+03</rscale>
<asrwt>0</asrwt>
<pdfrwt beam="1">  1       21 0.10677587E-01 0.30000000E+03</pdfrwt>
<pdfrwt beam="2">0</pdfrwt>
<totfact> 0.76502327E+03</totfact>
</mgrwt>
</event>
<event>
 6    1  0.1280499E-001  0.3000000E+03  0.7818608E-02  0.1093470E+00
         21   -1    0    0  501  502  0.00000000000E+00  0.00000000000E+00  0.29218430847E+01  0.29218430847E+01  0.00000000000E+00 0. -1.
         13   -1    0    0    0    0 -0.00000000000E+00 -0.00000000000E+00 -0.10000000000E+04  0.10000000000E+04  0.00000000000E+00 0.  1.
    9000005    2    1    2  501    0 -0.14522127413E+02  0.51099762917E+02 -0.40938058490E+03  0.41282819450E+03  0.35463955119E+01 0.  0.
         13    1    3    3    0    0 -0.97107547799E+01  0.38558050138E+02 -0.31332014844E+03  0.31583308473E+03  0.00000000000E+00 0.  1.
          1    1    3    3  501    0 -0.48113726327E+01  0.12541712779E+02 -0.96060436462E+02  0.96995109770E+02  0.00000000000E+00 0.  1.
         -1    1    1    2    0  502  0.14522127413E+02 -0.51099762917E+02 -0.58769757201E+03  0.59009364859E+03  0.00000000000E+00 0. -1.
<mgrwt>
<rscale>  1 0.30000000E+03</rscale>
<asrwt>0</asrwt>
<pdfrwt beam="1">  1       21 0.10624906E-01 0.30000000E+03</pdfrwt>
<pdfrwt beam="2">0</pdfrwt>
<totfact> 0.77184332E+03</totfact>
</mgrwt>
</event>
<event>
 6    1  0.1280499E-001  0.3000000E+03  0.7818608E-02  0.1093470E+00
         21   -1    0    0  501  502  0.00000000000E+00  0.00000000000E+00  0.27652537316E+01  0.27652537316E+01  0.00000000000E+00 0. -1.
         13   -1    0    0    0    0 -0.00000000000E+00 -0.00000000000E+00 -0.10000000000E+04  0.10000000000E+04  0.00000000000E+00 0.  1.
    9000005    2    1    2  501    0 -0.38382568325E+02  0.57709571165E+01 -0.83663217011E+03  0.83753900592E+03  0.34165592294E+01 0.  0.
         13    1    3    3    0    0 -0.31302797542E+01  0.32964087665E+00 -0.50478597290E+02  0.50576635898E+02  0.00000000000E+00 0.  1.
          3    1    3    3  501    0 -0.35252288570E+02  0.54413162399E+01 -0.78615357282E+03  0.78696237002E+03  0.00000000000E+00 0.  1.
         -3    1    1    2    0  502  0.38382568325E+02 -0.57709571165E+01 -0.16060257616E+03  0.16522624781E+03  0.00000000000E+00 0. -1.
<mgrwt>
<rscale>  1 0.30000000E+03</rscale>
<asrwt>0</asrwt>
<pdfrwt beam="1">  1       21 0.10055489E-01 0.30000000E+03</pdfrwt>
<pdfrwt beam="2">0</pdfrwt>
<totfact> 0.85185377E+03</totfact>
</mgrwt>
</event>
<event>
 6    1  0.1280499E-001  0.3000000E+03  0.7818608E-02  0.1093470E+00
         21   -1    0    0  501  502  0.00000000000E+00  0.00000000000E+00  0.14815364159E+01  0.14815364159E+01  0.00000000000E+00 0. -1.
         13   -1    0    0    0    0 -0.00000000000E+00 -0.00000000000E+00 -0.10000000000E+04  0.10000000000E+04  0.00000000000E+00 0.  1.
    9000005    2    1    2  501    0 -0.12154975936E+02  0.33408563945E+02 -0.30928432819E+03  0.31133114051E+03  0.25313630179E+01 0.  0.
         13    1    3    3    0    0 -0.80569483847E+01  0.22620176445E+02 -0.21888057117E+03  0.22019375839E+03  0.00000000000E+00 0.  1.
          3    1    3    3  501    0 -0.40980275515E+01  0.10788387500E+02 -0.90403757026E+02  0.91137382117E+02  0.00000000000E+00 0.  1.
         -3    1    1    2    0  502  0.12154975936E+02 -0.33408563945E+02 -0.68923413539E+03  0.69015039591E+03  0.00000000000E+00 0. -1.
<mgrwt>
<rscale>  1 0.30000000E+03</rscale>
<asrwt>0</asrwt>
<pdfrwt beam="1">  1       21 0.53874165E-02 0.30000000E+03</pdfrwt>
<pdfrwt beam="2">0</pdfrwt>
<totfact> 0.25356985E+04</totfact>
</mgrwt>
</event>
<event>
 6    1  0.1280499E-001  0.3000000E+03  0.7818608E-02  0.1093470E+00
         21   -1    0    0  501  502  0.00000000000E+00  0.00000000000E+00  0.14245491700E+01  0.14245491700E+01  0.00000000000E+00 0. -1.
         13   -1    0    0    0    0 -0.00000000000E+00 -0.00000000000E+00 -0.10000000000E+04  0.10000000000E+04  0.00000000000E+00 0.  1.
    9000005    2    1    2  501    0 -0.64939708484E+01 -0.34593403054E+02 -0.32403228817E+03  0.32596370391E+03  0.40666074035E+01 0.  0.
         13    1    3    3    0    0 -0.36421607721E+00 -0.12452596602E+02 -0.11338918416E+03  0.11407149907E+03  0.00000000000E+00 0.  1.
          1    1    3    3  501    0 -0.61297547712E+01 -0.22140806452E+02 -0.21064310401E+03  0.21189220483E+03  0.00000000000E+00 0.  1.
         -3    1    1    2    0  502  0.64939708484E+01  0.34593403054E+02 -0.67454316266E+03  0.67546084526E+03  0.00000000000E+00 0. -1.
<mgrwt>
<rscale>  1 0.30000000E+03</rscale>
<asrwt>0</asrwt>
<pdfrwt beam="1">  1       21 0.51801897E-02 0.30000000E+03</pdfrwt>
<pdfrwt beam="2">0</pdfrwt>
<totfact> 0.27116102E+04</totfact>
</mgrwt>
</event>
<event>
 6    1  0.1280499E-001  0.3000000E+03  0.7818608E-02  0.1093470E+00
         21   -1    0    0  501  502  0.00000000000E+00  0.00000000000E+00  0.12105564331E+02  0.12105564331E+02  0.00000000000E+00 0. -1.
         13   -1    0    0    0    0 -0.00000000000E+00 -0.00000000000E+00 -0.10000000000E+04  0.10000000000E+04  0.00000000000E+00 0.  1.
    9000005    2    1    2  501    0  0.16699167987E+02  0.36875369232E+02 -0.96449213878E+03  0.96534743598E+03  0.34541732144E+01 0.  0.
         13    1    3    3    0    0  0.12301011918E+02  0.25334411066E+02 -0.70268504362E+03  0.70324918614E+03  0.00000000000E+00 0.  1.
          1    1    3    3  501    0  0.43981560683E+01  0.11540958166E+02 -0.26180709517E+03  0.26209824984E+03  0.00000000000E+00 0.  1.
         -3    1    1    2    0  502 -0.16699167987E+02 -0.36875369232E+02 -0.23402296887E+02  0.46758128353E+02  0.00000000000E+00 0. -1.
<mgrwt>
<rscale>  1 0.30000000E+03</rscale>
<asrwt>0</asrwt>
<pdfrwt beam="1">  1       21 0.44020327E-01 0.30000000E+03</pdfrwt>
<pdfrwt beam="2">0</pdfrwt>
<totfact> 0.49365259E+02</totfact>
</mgrwt>
</event>
<event>
 6    1  0.1280499E-001  0.3000000E+03  0.7818608E-02  0.1093470E+00
         21   -1    0    0  501  502  0.00000000000E+00  0.00000000000E+00  0.11686867041E+01  0.11686867041E+01  0.00000000000E+00 0. -1.
         13   -1    0    0    0    0 -0.00000000000E+00 -0.00000000000E+00 -0.10000000000E+04  0.10000000000E+04  0.00000000000E+00 0.  1.
    9000005    2    1    2  501    0 -0.19791556670E+02  0.25724281536E+02 -0.65487632019E+03  0.65568571801E+03  0.27058601759E+01 0.  0.
         13    1    3    3    0    0 -0.14638558096E+02  0.20852201295E+02 -0.51103250897E+03  0.51166720327E+03  0.00000000000E+00 0.  1.
          1    1    3    3  501    0 -0.51529985740E+01  0.48720802415E+01 -0.14384381123E+03  0.14401851474E+03  0.00000000000E+00 0.  1.
         -3    1    1    2    0  502  0.19791556670E+02 -0.25724281536E+02 -0.34395499310E+03  0.34548296869E+03  0.00000000000E+00 0. -1.
<mgrwt>
<rscale>  1 0.30000000E+03</rscale>
<asrwt>0</asrwt>
<pdfrwt beam="1">  1       21 0.42497788E-02 0.30000000E+03</pdfrwt>
<pdfrwt beam="2">0</pdfrwt>
<totfact> 0.37963284E+04</totfact>
</mgrwt>
</event>
<event>
 6    1  0.1280499E-001  0.3000000E+03  0.7818608E-02  0.1093470E+00
         21   -1    0    0  501  502  0.00000000000E+00  0.00000000000E+00  0.25320287956E+01  0.25320287956E+01  0.00000000000E+00 0. -1.
         13   -1    0    0    0    0 -0.00000000000E+00 -0.00000000000E+00 -0.10000000000E+04  0.10000000000E+04  0.00000000000E+00 0.  1.
    9000005    2    1    2  501    0 -0.20026275814E+02 -0.30970057293E+02 -0.83949933898E+03  0.84031524502E+03  0.32209770559E+01 0.  0.
         13    1    3    3    0    0 -0.17852632301E+02 -0.27695154571E+02 -0.77020761933E+03  0.77091213179E+03  0.00000000000E+00 0.  1.
          3    1    3    3  501    0 -0.21736435131E+01 -0.32749027221E+01 -0.69291719643E+02  0.69403113223E+02  0.00000000000E+00 0.  1.
         -1    1    1    2    0  502  0.20026275814E+02  0.30970057293E+02 -0.15796863223E+03  0.16221678378E+03  0.00000000000E+00 0. -1.
<mgrwt>
<rscale>  1 0.30000000E+03</rscale>
<asrwt>0</asrwt>
<pdfrwt beam="1">  1       21 0.92073969E-02 0.30000000E+03</pdfrwt>
<pdfrwt beam="2">0</pdfrwt>
<totfact> 0.99671094E+03</totfact>
</mgrwt>
</event>
<event>
 6    1  0.1280499E-001  0.3000000E+03  0.7818608E-02  0.1093470E+00
         21   -1    0    0  501  502  0.00000000000E+00  0.00000000000E+00  0.14353602960E+01  0.14353602960E+01  0.00000000000E+00 0. -1.
         13   -1    0    0    0    0 -0.00000000000E+00 -0.00000000000E+00 -0.10000000000E+04  0.10000000000E+04  0.00000000000E+00 0.  1.
    9000005    2    1    2  501    0  0.31831439222E+02 -0.18186371787E+02 -0.37835718214E+03  0.38014535147E+03  0.35137344853E+01 0.  0.
         13    1    3    3    0    0  0.19255416873E+02 -0.95606248545E+01 -0.20885046262E+03  0.20995402441E+03  0.00000000000E+00 0.  1.
          3    1    3    3  501    0  0.12576022348E+02 -0.86257469326E+01 -0.16950671951E+03  0.17019132706E+03  0.00000000000E+00 0.  1.
         -3    1    1    2    0  502 -0.31831439222E+02  0.18186371787E+02 -0.62020745757E+03  0.62129000882E+03  0.00000000000E+00 0. -1.
<mgrwt>
<rscale>  1 0.30000000E+03</rscale>
<asrwt>0</asrwt>
<pdfrwt beam="1">  1       21 0.52195030E-02 0.30000000E+03</pdfrwt>
<pdfrwt beam="2">0</pdfrwt>
<totfact> 0.26768127E+04</totfact>
</mgrwt>
</event>
<event>
 6    1  0.1280499E-001  0.3000000E+03  0.7818608E-02  0.1093470E+00
         21   -1    0    0  501  502  0.00000000000E+00  0.00000000000E+00  0.10958686936E+02  0.10958686936E+02  0.00000000000E+00 0. -1.
         13   -1    0    0    0    0 -0.00000000000E+00 -0.00000000000E+00 -0.10000000000E+04  0.10000000000E+04  0.00000000000E+00 0.  1.
    9000005    2    1    2  501    0  0.81018653391E+02 -0.28495117881E+02 -0.78343458880E+03  0.78813562035E+03  0.34651401826E+01 0.  0.
         13    1    3    3    0    0  0.58375439916E+01 -0.16728575020E+01 -0.48379930675E+02  0.48759543314E+02  0.00000000000E+00 0.  1.
          3    1    3    3  501    0  0.75181109399E+02 -0.26822260379E+02 -0.73505465813E+03  0.73937607704E+03  0.00000000000E+00 0.  1.
         -3    1    1    2    0  502 -0.81018653391E+02  0.28495117881E+02 -0.20560672426E+03  0.22282306659E+03  0.00000000000E+00 0. -1.
<mgrwt>
<rscale>  1 0.30000000E+03</rscale>
<asrwt>0</asrwt>
<pdfrwt beam="1">  1       21 0.39849855E-01 0.30000000E+03</pdfrwt>
<pdfrwt beam="2">0</pdfrwt>
<totfact> 0.60877826E+02</totfact>
</mgrwt>
</event>
<event>
 6    1  0.1280499E-001  0.3000000E+03  0.7818608E-02  0.1093470E+00
         21   -1    0    0  501  502  0.00000000000E+00  0.00000000000E+00  0.37195903472E+01  0.37195903472E+01  0.00000000000E+00 0. -1.
         13   -1    0    0    0    0 -0.00000000000E+00 -0.00000000000E+00 -0.10000000000E+04  0.10000000000E+04  0.00000000000E+00 0.  1.
    9000005    2    1    2  501    0 -0.39305008537E+02  0.37827713265E+02 -0.27565574702E+03  0.28103312722E+03  0.42081046980E+01 0.  0.
         13    1    3    3    0    0 -0.23764850243E+02  0.19984298718E+02 -0.15712676969E+03  0.16016542091E+03  0.00000000000E+00 0.  1.
          3    1    3    3  501    0 -0.15540158294E+02  0.17843414546E+02 -0.11852897733E+03  0.12086770631E+03  0.00000000000E+00 0.  1.
         -3    1    1    2    0  502  0.39305008537E+02 -0.37827713265E+02 -0.72062466264E+03  0.72268646313E+03  0.00000000000E+00 0. -1.
<mgrwt>
<rscale>  1 0.30000000E+03</rscale>
<asrwt>0</asrwt>
<pdfrwt beam="1">  1       21 0.13525812E-01 0.30000000E+03</pdfrwt>
<pdfrwt beam="2">0</pdfrwt>
<totfact> 0.49818412E+03</totfact>
</mgrwt>
</event>
<event>
 6    1  0.1280499E-001  0.3000000E+03  0.7818608E-02  0.1093470E+00
         21   -1    0    0  501  502  0.00000000000E+00  0.00000000000E+00  0.41663637532E+01  0.41663637532E+01  0.00000000000E+00 0. -1.
         13   -1    0    0    0    0 -0.00000000000E+00 -0.00000000000E+00 -0.10000000000E+04  0.10000000000E+04  0.00000000000E+00 0.  1.
    9000005    2    1    2  501    0  0.15799548655E+02  0.47620713058E+02 -0.18282876935E+03  0.18961478672E+03  0.31702351431E+01 0.  0.
         13    1    3    3    0    0  0.14995163102E+02  0.42048239421E+02 -0.16274415782E+03  0.16875594882E+03  0.00000000000E+00 0.  1.
          3    1    3    3  501    0  0.80438555346E+00  0.55724736373E+01 -0.20084611525E+02  0.20858837903E+02  0.00000000000E+00 0.  1.
         -1    1    1    2    0  502 -0.15799548655E+02 -0.47620713058E+02 -0.81300486690E+03  0.81455157703E+03  0.00000000000E+00 0. -1.
<mgrwt>
<rscale>  1 0.30000000E+03</rscale>
<asrwt>0</asrwt>
<pdfrwt beam="1">  1       21 0.15150446E-01 0.30000000E+03</pdfrwt>
<pdfrwt beam="2">0</pdfrwt>
<totfact> 0.40426232E+03</totfact>
</mgrwt>
</event>
<event>
 6    1  0.1280499E-001  0.3000000E+03  0.7818608E-02  0.1093470E+00
         21   -1    0    0  501  502  0.00000000000E+00  0.00000000000E+00  0.12626895302E+01  0.12626895302E+01  0.00000000000E+00 0. -1.
         13   -1    0    0    0    0 -0.00000000000E+00 -0.00000000000E+00 -0.10000000000E+04  0.10000000000E+04  0.00000000000E+00 0.  1.
    9000005    2    1    2  501    0 -0.84159579542E+01  0.32363786002E+02 -0.66665503277E+03  0.66750097489E+03  0.32211454695E+01 0.  0.
         13    1    3    3    0    0 -0.36752769096E+01  0.10621785136E+02 -0.24899125653E+03  0.24924481099E+03  0.00000000000E+00 0.  1.
          3    1    3    3  501    0 -0.47406810446E+01  0.21742000866E+02 -0.41766377624E+03  0.41825616390E+03  0.00000000000E+00 0.  1.
         -3    1    1    2    0  502  0.84159579542E+01 -0.32363786002E+02 -0.33208227770E+03  0.33376171464E+03  0.00000000000E+00 0. -1.
<mgrwt>
<rscale>  1 0.30000000E+03</rscale>
<asrwt>0</asrwt>
<pdfrwt beam="1">  1       21 0.45916080E-02 0.30000000E+03</pdfrwt>
<pdfrwt beam="2">0</pdfrwt>
<totfact> 0.33298926E+04</totfact>
</mgrwt>
</event>
<event>
 6    1  0.1280499E-001  0.3000000E+03  0.7818608E-02  0.1093470E+00
         21   -1    0    0  501  502  0.00000000000E+00  0.00000000000E+00  0.33408241930E+02  0.33408241930E+02  0.00000000000E+00 0. -1.
         13   -1    0    0    0    0 -0.00000000000E+00 -0.00000000000E+00 -0.10000000000E+04  0.10000000000E+04  0.00000000000E+00 0.  1.
    9000005    2    1    2  501    0 -0.86475599866E+02  0.31854690860E+02 -0.92950389004E+03  0.93406912246E+03  0.38591753168E+01 0.  0.
         13    1    3    3    0    0 -0.13131393703E+02  0.46206654310E+01 -0.12710478224E+03  0.12786481032E+03  0.00000000000E+00 0.  1.
          3    1    3    3  501    0 -0.73344206163E+02  0.27234025429E+02 -0.80239910780E+03  0.80620431214E+03  0.00000000000E+00 0.  1.
         -1    1    1    2    0  502  0.86475599866E+02 -0.31854690860E+02 -0.37087868033E+02  0.99339119471E+02  0.00000000000E+00 0. -1.
<mgrwt>
<rscale>  1 0.30000000E+03</rscale>
<asrwt>0</asrwt>
<pdfrwt beam="1">  1       21 0.12148477E+00 0.30000000E+03</pdfrwt>
<pdfrwt beam="2">0</pdfrwt>
<totfact> 0.43889933E+01</totfact>
</mgrwt>
</event>
<event>
 6    1  0.1280499E-001  0.3000000E+03  0.7818608E-02  0.1093470E+00
         21   -1    0    0  501  502  0.00000000000E+00  0.00000000000E+00  0.20460376759E+01  0.20460376759E+01  0.00000000000E+00 0. -1.
         13   -1    0    0    0    0 -0.00000000000E+00 -0.00000000000E+00 -0.10000000000E+04  0.10000000000E+04  0.00000000000E+00 0.  1.
    9000005    2    1    2  501    0  0.30467104804E+02 -0.32021681142E+01 -0.86732941112E+03  0.86787721964E+03  0.34731284778E+01 0.  0.
         13    1    3    3    0    0  0.15308006338E+02 -0.30703529621E+01 -0.46676948244E+03  0.46703052562E+03  0.00000000000E+00 0.  1.
          1    1    3    3  501    0  0.15159098466E+02 -0.13181515205E+00 -0.40055992868E+03  0.40084669402E+03  0.00000000000E+00 0.  1.
         -1    1    1    2    0  502 -0.30467104804E+02  0.32021681142E+01 -0.13062455120E+03  0.13416881804E+03  0.00000000000E+00 0. -1.
<mgrwt>
<rscale>  1 0.30000000E+03</rscale>
<asrwt>0</asrwt>
<pdfrwt beam="1">  1       21 0.74401527E-02 0.30000000E+03</pdfrwt>
<pdfrwt beam="2">0</pdfrwt>
<totfact> 0.14506493E+04</totfact>
</mgrwt>
</event>
<event>
 6    1  0.1280499E-001  0.3000000E+03  0.7818608E-02  0.1093470E+00
         21   -1    0    0  501  502  0.00000000000E+00  0.00000000000E+00  0.16071987431E+01  0.16071987431E+01  0.00000000000E+00 0. -1.
         13   -1    0    0    0    0 -0.00000000000E+00 -0.00000000000E+00 -0.10000000000E+04  0.10000000000E+04  0.00000000000E+00 0.  1.
    9000005    2    1    2  501    0  0.34735086175E+02 -0.61122053996E+01 -0.73641584586E+03  0.73726686806E+03  0.32017869199E+01 0.  0.
         13    1    3    3    0    0  0.31301346463E+02 -0.48822433331E+01 -0.67470088924E+03  0.67544422459E+03  0.00000000000E+00 0.  1.
          1    1    3    3  501    0  0.34337397127E+01 -0.12299620666E+01 -0.61714956614E+02  0.61822643465E+02  0.00000000000E+00 0.  1.
         -1    1    1    2    0  502 -0.34735086175E+02  0.61122053996E+01 -0.26197695540E+03  0.26434033069E+03  0.00000000000E+00 0. -1.
<mgrwt>
<rscale>  1 0.30000000E+03</rscale>
<asrwt>0</asrwt>
<pdfrwt beam="1">  1       21 0.58443714E-02 0.30000000E+03</pdfrwt>
<pdfrwt beam="2">0</pdfrwt>
<totfact> 0.22048203E+04</totfact>
</mgrwt>
</event>
<event>
 6    1  0.1280499E-001  0.3000000E+03  0.7818608E-02  0.1093470E+00
         21   -1    0    0  501  502  0.00000000000E+00  0.00000000000E+00  0.88180654187E+01  0.88180654187E+01  0.00000000000E+00 0. -1.
         13   -1    0    0    0    0 -0.00000000000E+00 -0.00000000000E+00 -0.10000000000E+04  0.10000000000E+04  0.00000000000E+00 0.  1.
    9000005    2    1    2  501    0  0.77418501181E+02  0.20513246252E+02 -0.75879890263E+03  0.76302080926E+03  0.32500972796E+01 0.  0.
         13    1    3    3    0    0  0.75771987227E+02  0.20536274817E+02 -0.74213866473E+03  0.74627939160E+03  0.00000000000E+00 0.  1.
          3    1    3    3  501    0  0.16465139546E+01 -0.23028564769E-01 -0.16660237897E+02  0.16741417661E+02  0.00000000000E+00 0.  1.
         -1    1    1    2    0  502 -0.77418501181E+02 -0.20513246252E+02 -0.23238303195E+03  0.24579725616E+03  0.00000000000E+00 0. -1.
<mgrwt>
<rscale>  1 0.30000000E+03</rscale>
<asrwt>0</asrwt>
<pdfrwt beam="1">  1       21 0.32065760E-01 0.30000000E+03</pdfrwt>
<pdfrwt beam="2">0</pdfrwt>
<totfact> 0.95101213E+02</totfact>
</mgrwt>
</event>
<event>
 6    1  0.1280499E-001  0.3000000E+03  0.7818608E-02  0.1093470E+00
         21   -1    0    0  501  502  0.00000000000E+00  0.00000000000E+00  0.31587911204E+01  0.31587911204E+01  0.00000000000E+00 0. -1.
         13   -1    0    0    0    0 -0.00000000000E+00 -0.00000000000E+00 -0.10000000000E+04  0.10000000000E+04  0.00000000000E+00 0.  1.
    9000005    2    1    2  501    0  0.42333945067E+02  0.13543008077E+02 -0.80516503972E+03  0.80639667638E+03  0.30467227384E+01 0.  0.
         13    1    3    3    0    0  0.58678701823E+01  0.24400297148E+01 -0.13276548109E+03  0.13291748799E+03  0.00000000000E+00 0.  1.
          3    1    3    3  501    0  0.36466074885E+02  0.11102978363E+02 -0.67239955863E+03  0.67347918839E+03  0.00000000000E+00 0.  1.
         -1    1    1    2    0  502 -0.42333945067E+02 -0.13543008077E+02 -0.19167616916E+03  0.19676211474E+03  0.00000000000E+00 0. -1.
<mgrwt>
<rscale>  1 0.30000000E+03</rscale>
<asrwt>0</asrwt>
<pdfrwt beam="1">  1       21 0.11486537E-01 0.30000000E+03</pdfrwt>
<pdfrwt beam="2">0</pdfrwt>
<totfact> 0.67077322E+03</totfact>
</mgrwt>
</event>
<event>
 6    1  0.1280499E-001  0.3000000E+03  0.7818608E-02  0.1093470E+00
         21   -1    0    0  501  502  0.00000000000E+00  0.00000000000E+00  0.14305313242E+01  0.14305313242E+01  0.00000000000E+00 0. -1.
         13   -1    0    0    0    0 -0.00000000000E+00 -0.00000000000E+00 -0.10000000000E+04  0.10000000000E+04  0.00000000000E+00 0.  1.
    9000005    2    1    2  501    0 -0.27271345439E+02 -0.16901014271E+02 -0.76365733026E+03  0.76433754674E+03  0.31617600175E+01 0.  0.
         13    1    3    3    0    0 -0.21357555260E+02 -0.11873515243E+02 -0.56255523511E+03  0.56308571113E+03  0.00000000000E+00 0.  1.
          1    1    3    3  501    0 -0.59137901791E+01 -0.50274990281E+01 -0.20110209515E+03  0.20125183560E+03  0.00000000000E+00 0.  1.
         -1    1    1    2    0  502  0.27271345439E+02  0.16901014271E+02 -0.23491213842E+03  0.23709298459E+03  0.00000000000E+00 0. -1.
<mgrwt>
<rscale>  1 0.30000000E+03</rscale>
<asrwt>0</asrwt>
<pdfrwt beam="1">  1       21 0.52019431E-02 0.30000000E+03</pdfrwt>
<pdfrwt beam="2">0</pdfrwt>
<totfact> 0.26922695E+04</totfact>
</mgrwt>
</event>
<event>
 6    1  0.1280499E-001  0.3000000E+03  0.7818608E-02  0.1093470E+00
         21   -1    0    0  501  502  0.00000000000E+00  0.00000000000E+00  0.11872557829E+01  0.11872557829E+01  0.00000000000E+00 0. -1.
         13   -1    0    0    0    0 -0.00000000000E+00 -0.00000000000E+00 -0.10000000000E+04  0.10000000000E+04  0.00000000000E+00 0.  1.
    9000005    2    1    2  501    0 -0.29224561124E+02  0.74182330470E+01 -0.26040224063E+03  0.26216142609E+03  0.31908066226E+01 0.  0.
         13    1    3    3    0    0 -0.18182462244E+02  0.39104261951E+01 -0.17222876051E+03  0.17323001851E+03  0.00000000000E+00 0.  1.
          1    1    3    3  501    0 -0.11042098879E+02  0.35078068519E+01 -0.88173480127E+02  0.88931407581E+02  0.00000000000E+00 0.  1.
         -1    1    1    2    0  502  0.29224561124E+02 -0.74182330470E+01 -0.73841050358E+03  0.73902582969E+03  0.00000000000E+00 0. -1.
<mgrwt>
<rscale>  1 0.30000000E+03</rscale>
<asrwt>0</asrwt>
<pdfrwt beam="1">  1       21 0.43173029E-02 0.30000000E+03</pdfrwt>
<pdfrwt beam="2">0</pdfrwt>
<totfact> 0.36964803E+04</totfact>
</mgrwt>
</event>
<event>
 6    1  0.1280499E-001  0.3000000E+03  0.7818608E-02  0.1093470E+00
         21   -1    0    0  501  502  0.00000000000E+00  0.00000000000E+00  0.16560278853E+01  0.16560278853E+01  0.00000000000E+00 0. -1.
         13   -1    0    0    0    0 -0.00000000000E+00 -0.00000000000E+00 -0.10000000000E+04  0.10000000000E+04  0.00000000000E+00 0.  1.
    9000005    2    1    2  501    0 -0.22925069887E+02  0.28685387024E+02 -0.71388310155E+03  0.71483483421E+03  0.33685702675E+01 0.  0.
         13    1    3    3    0    0 -0.18508578808E+02  0.20846226385E+02 -0.53886194059E+03  0.53958254573E+03  0.00000000000E+00 0.  1.
          3    1    3    3  501    0 -0.44164910791E+01  0.78391606390E+01 -0.17502116096E+03  0.17525228848E+03  0.00000000000E+00 0.  1.
         -1    1    1    2    0  502  0.22925069887E+02 -0.28685387024E+02 -0.28446087057E+03  0.28682119368E+03  0.00000000000E+00 0. -1.
<mgrwt>
<rscale>  1 0.30000000E+03</rscale>
<asrwt>0</asrwt>
<pdfrwt beam="1">  1       21 0.60219323E-02 0.30000000E+03</pdfrwt>
<pdfrwt beam="2">0</pdfrwt>
<totfact> 0.20939474E+04</totfact>
</mgrwt>
</event>
<event>
 6    1  0.1280499E-001  0.3000000E+03  0.7818608E-02  0.1093470E+00
         21   -1    0    0  501  502  0.00000000000E+00  0.00000000000E+00  0.15520626544E+01  0.15520626544E+01  0.00000000000E+00 0. -1.
         13   -1    0    0    0    0 -0.00000000000E+00 -0.00000000000E+00 -0.10000000000E+04  0.10000000000E+04  0.00000000000E+00 0.  1.
    9000005    2    1    2  501    0  0.25665446962E+02  0.16323733204E+02 -0.81686237075E+03  0.81743661672E+03  0.36483125261E+01 0.  0.
         13    1    3    3    0    0  0.59519114406E+01  0.56599717315E+01 -0.21068361597E+03  0.21084365433E+03  0.00000000000E+00 0.  1.
          1    1    3    3  501    0  0.19713535522E+02  0.10663761472E+02 -0.60617875477E+03  0.60659296240E+03  0.00000000000E+00 0.  1.
         -3    1    1    2    0  502 -0.25665446962E+02 -0.16323733204E+02 -0.18158556660E+03  0.18411544593E+03  0.00000000000E+00 0. -1.
<mgrwt>
<rscale>  1 0.30000000E+03</rscale>
<asrwt>0</asrwt>
<pdfrwt beam="1">  1       21 0.56438761E-02 0.30000000E+03</pdfrwt>
<pdfrwt beam="2">0</pdfrwt>
<totfact> 0.23413100E+04</totfact>
</mgrwt>
</event>
<event>
 6    1  0.1280499E-001  0.3000000E+03  0.7818608E-02  0.1093470E+00
         21   -1    0    0  501  502  0.00000000000E+00  0.00000000000E+00  0.86806732353E+01  0.86806732353E+01  0.00000000000E+00 0. -1.
         13   -1    0    0    0    0 -0.00000000000E+00 -0.00000000000E+00 -0.10000000000E+04  0.10000000000E+04  0.00000000000E+00 0.  1.
    9000005    2    1    2  501    0  0.47975880148E+01 -0.33655989004E+02 -0.96520714943E+03  0.96581357336E+03  0.39082898305E+01 0.  0.
         13    1    3    3    0    0  0.26702824371E+01 -0.74748428944E+01 -0.23637093628E+03  0.23650417164E+03  0.00000000000E+00 0.  1.
          1    1    3    3  501    0  0.21273055777E+01 -0.26181146109E+02 -0.72883621315E+03  0.72930940172E+03  0.00000000000E+00 0.  1.
         -1    1    1    2    0  502 -0.47975880148E+01  0.33655989004E+02 -0.26112177336E+02  0.42867099876E+02  0.00000000000E+00 0. -1.
<mgrwt>
<rscale>  1 0.30000000E+03</rscale>
<asrwt>0</asrwt>
<pdfrwt beam="1">  1       21 0.31566151E-01 0.30000000E+03</pdfrwt>
<pdfrwt beam="2">0</pdfrwt>
<totfact> 0.98165232E+02</totfact>
</mgrwt>
</event>
<event>
 6    1  0.1280499E-001  0.3000000E+03  0.7818608E-02  0.1093470E+00
         21   -1    0    0  501  502  0.00000000000E+00  0.00000000000E+00  0.13548106921E+01  0.13548106921E+01  0.00000000000E+00 0. -1.
         13   -1    0    0    0    0 -0.00000000000E+00 -0.00000000000E+00 -0.10000000000E+04  0.10000000000E+04  0.00000000000E+00 0.  1.
    9000005    2    1    2  501    0  0.22812118229E+02  0.24350202600E+02 -0.70724561101E+03  0.70805114665E+03  0.51717388988E+01 0.  0.
         13    1    3    3    0    0  0.11300750538E+02  0.15797232193E+02 -0.40449671475E+03  0.40496277823E+03  0.00000000000E+00 0.  1.
          1    1    3    3  501    0  0.11511367691E+02  0.85529704078E+01 -0.30274889626E+03  0.30308836843E+03  0.00000000000E+00 0.  1.
         -1    1    1    2    0  502 -0.22812118229E+02 -0.24350202600E+02 -0.29139957830E+03  0.29330366404E+03  0.00000000000E+00 0. -1.
<mgrwt>
<rscale>  1 0.30000000E+03</rscale>
<asrwt>0</asrwt>
<pdfrwt beam="1">  1       21 0.49265947E-02 0.30000000E+03</pdfrwt>
<pdfrwt beam="2">0</pdfrwt>
<totfact> 0.29539865E+04</totfact>
</mgrwt>
</event>
<event>
 6    1  0.1280499E-001  0.3000000E+03  0.7818608E-02  0.1093470E+00
         21   -1    0    0  501  502  0.00000000000E+00  0.00000000000E+00  0.32263067184E+01  0.32263067184E+01  0.00000000000E+00 0. -1.
         13   -1    0    0    0    0 -0.00000000000E+00 -0.00000000000E+00 -0.10000000000E+04  0.10000000000E+04  0.00000000000E+00 0.  1.
    9000005    2    1    2  501    0 -0.53093157798E+02  0.17257903461E+01 -0.67570012879E+03  0.67778799371E+03  0.20096307287E+01 0.  0.
         13    1    3    3    0    0 -0.20066890477E+02 -0.31740618006E+00 -0.25635951522E+03  0.25714389335E+03  0.00000000000E+00 0.  1.
          1    1    3    3  501    0 -0.33026267321E+02  0.20431965262E+01 -0.41934061356E+03  0.42064410036E+03  0.00000000000E+00 0.  1.
         -3    1    1    2    0  502  0.53093157798E+02 -0.17257903461E+01 -0.32107356450E+03  0.32543831301E+03  0.00000000000E+00 0. -1.
<mgrwt>
<rscale>  1 0.30000000E+03</rscale>
<asrwt>0</asrwt>
<pdfrwt beam="1">  1       21 0.11732049E-01 0.30000000E+03</pdfrwt>
<pdfrwt beam="2">0</pdfrwt>
<totfact> 0.64560475E+03</totfact>
</mgrwt>
</event>
<event>
 6    1  0.1280499E-001  0.3000000E+03  0.7818608E-02  0.1093470E+00
         21   -1    0    0  501  502  0.00000000000E+00  0.00000000000E+00  0.24761985655E+01  0.24761985655E+01  0.00000000000E+00 0. -1.
         13   -1    0    0    0    0 -0.00000000000E+00 -0.00000000000E+00 -0.10000000000E+04  0.10000000000E+04  0.00000000000E+00 0.  1.
    9000005    2    1    2  501    0 -0.29470206427E+02 -0.20482220966E+02 -0.84571380509E+03  0.84648168125E+03  0.33737410009E+01 0.  0.
         13    1    3    3    0    0 -0.85995811180E+01 -0.65917493320E+01 -0.22212058150E+03  0.22238470424E+03  0.00000000000E+00 0.  1.
          1    1    3    3  501    0 -0.20870625309E+02 -0.13890471634E+02 -0.62359322360E+03  0.62409697702E+03  0.00000000000E+00 0.  1.
         -1    1    1    2    0  502  0.29470206427E+02  0.20482220966E+02 -0.15180999634E+03  0.15599451731E+03  0.00000000000E+00 0. -1.
<mgrwt>
<rscale>  1 0.30000000E+03</rscale>
<asrwt>0</asrwt>
<pdfrwt beam="1">  1       21 0.90043774E-02 0.30000000E+03</pdfrwt>
<pdfrwt beam="2">0</pdfrwt>
<totfact> 0.10369153E+04</totfact>
</mgrwt>
</event>
<event>
 6    1  0.1280499E-001  0.3000000E+03  0.7818608E-02  0.1093470E+00
         21   -1    0    0  501  502  0.00000000000E+00  0.00000000000E+00  0.17793595951E+01  0.17793595951E+01  0.00000000000E+00 0. -1.
         13   -1    0    0    0    0 -0.00000000000E+00 -0.00000000000E+00 -0.10000000000E+04  0.10000000000E+04  0.00000000000E+00 0.  1.
    9000005    2    1    2  501    0 -0.30262953640E+02  0.78277162917E+01 -0.83487662552E+03  0.83547125184E+03  0.40141389248E+01 0.  0.
         13    1    3    3    0    0 -0.11718959318E+01  0.11961417322E+01 -0.41578659035E+02  0.41612365738E+02  0.00000000000E+00 0.  1.
          3    1    3    3  501    0 -0.29091057708E+02  0.66315745596E+01 -0.79329796648E+03  0.79385888610E+03  0.00000000000E+00 0.  1.
         -3    1    1    2    0  502  0.30262953640E+02 -0.78277162917E+01 -0.16334401489E+03  0.16630810776E+03  0.00000000000E+00 0. -1.
<mgrwt>
<rscale>  1 0.30000000E+03</rscale>
<asrwt>0</asrwt>
<pdfrwt beam="1">  1       21 0.64704122E-02 0.30000000E+03</pdfrwt>
<pdfrwt beam="2">0</pdfrwt>
<totfact> 0.18495551E+04</totfact>
</mgrwt>
</event>
<event>
 6    1  0.1280499E-001  0.3000000E+03  0.7818608E-02  0.1093470E+00
         21   -1    0    0  501  502  0.00000000000E+00  0.00000000000E+00  0.13358781159E+01  0.13358781159E+01  0.00000000000E+00 0. -1.
         13   -1    0    0    0    0 -0.00000000000E+00 -0.00000000000E+00 -0.10000000000E+04  0.10000000000E+04  0.00000000000E+00 0.  1.
    9000005    2    1    2  501    0  0.23268104224E+02 -0.25624875609E+02 -0.34220083412E+03  0.34396072868E+03  0.30875673412E+01 0.  0.
         13    1    3    3    0    0  0.63609525910E+00 -0.11244367414E+00 -0.64358709891E+01  0.64682065634E+01  0.00000000000E+00 0.  1.
          1    1    3    3  501    0  0.22632008965E+02 -0.25512431935E+02 -0.33576496313E+03  0.33749252211E+03  0.00000000000E+00 0.  1.
         -1    1    1    2    0  502 -0.23268104224E+02  0.25624875609E+02 -0.65646328776E+03  0.65737514944E+03  0.00000000000E+00 0. -1.
<mgrwt>
<rscale>  1 0.30000000E+03</rscale>
<asrwt>0</asrwt>
<pdfrwt beam="1">  1       21 0.48577488E-02 0.30000000E+03</pdfrwt>
<pdfrwt beam="2">0</pdfrwt>
<totfact> 0.30256366E+04</totfact>
</mgrwt>
</event>
<event>
 6    1  0.1280499E-001  0.3000000E+03  0.7818608E-02  0.1093470E+00
         21   -1    0    0  501  502  0.00000000000E+00  0.00000000000E+00  0.44381723918E+01  0.44381723918E+01  0.00000000000E+00 0. -1.
         13   -1    0    0    0    0 -0.00000000000E+00 -0.00000000000E+00 -0.10000000000E+04  0.10000000000E+04  0.00000000000E+00 0.  1.
    9000005    2    1    2  501    0  0.37489758395E+02  0.13227670577E+02 -0.90062898954E+03  0.90151734361E+03  0.45266738603E+01 0.  0.
         13    1    3    3    0    0  0.21585038156E+02  0.87024638144E+01 -0.57040722819E+03  0.57088182027E+03  0.00000000000E+00 0.  1.
          3    1    3    3  501    0  0.15904720240E+02  0.45252067621E+01 -0.33022176136E+03  0.33063552334E+03  0.00000000000E+00 0.  1.
         -3    1    1    2    0  502 -0.37489758395E+02 -0.13227670577E+02 -0.94932838066E+02  0.10292082878E+03  0.00000000000E+00 0. -1.
<mgrwt>
<rscale>  1 0.30000000E+03</rscale>
<asrwt>0</asrwt>
<pdfrwt beam="1">  1       21 0.16138843E-01 0.30000000E+03</pdfrwt>
<pdfrwt beam="2">0</pdfrwt>
<totfact> 0.35942926E+03</totfact>
</mgrwt>
</event>
<event>
 6    1  0.1280499E-001  0.3000000E+03  0.7818608E-02  0.1093470E+00
         21   -1    0    0  501  502  0.00000000000E+00  0.00000000000E+00  0.38247212203E+01  0.38247212203E+01  0.00000000000E+00 0. -1.
         13   -1    0    0    0    0 -0.00000000000E+00 -0.00000000000E+00 -0.10000000000E+04  0.10000000000E+04  0.00000000000E+00 0.  1.
    9000005    2    1    2  501    0 -0.44448929643E+02 -0.81861430626E+01 -0.84052528349E+03  0.84174560067E+03  0.31912030246E+01 0.  0.
         13    1    3    3    0    0 -0.20161673439E+02 -0.52016120267E+01 -0.39798868928E+03  0.39853299316E+03  0.00000000000E+00 0.  1.
          3    1    3    3  501    0 -0.24287256204E+02 -0.29845310358E+01 -0.44253659421E+03  0.44321260751E+03  0.00000000000E+00 0.  1.
         -3    1    1    2    0  502  0.44448929643E+02  0.81861430626E+01 -0.15564999529E+03  0.16207912055E+03  0.00000000000E+00 0. -1.
<mgrwt>
<rscale>  1 0.30000000E+03</rscale>
<asrwt>0</asrwt>
<pdfrwt beam="1">  1       21 0.13908106E-01 0.30000000E+03</pdfrwt>
<pdfrwt beam="2">0</pdfrwt>
<totfact> 0.47335896E+03</totfact>
</mgrwt>
</event>
<event>
 6    1  0.1280499E-001  0.3000000E+03  0.7818608E-02  0.1093470E+00
         21   -1    0    0  501  502  0.00000000000E+00  0.00000000000E+00  0.14064662375E+01  0.14064662375E+01  0.00000000000E+00 0. -1.
         13   -1    0    0    0    0 -0.00000000000E+00 -0.00000000000E+00 -0.10000000000E+04  0.10000000000E+04  0.00000000000E+00 0.  1.
    9000005    2    1    2  501    0 -0.29024399351E+01  0.31844913263E+02 -0.75686649192E+03  0.75757356153E+03  0.69492363292E+01 0.  0.
         13    1    3    3    0    0 -0.45358795857E+01  0.28792342352E+02 -0.65489150318E+03  0.65553981886E+03  0.00000000000E+00 0.  1.
          1    1    3    3  501    0  0.16334396506E+01  0.30525709103E+01 -0.10197498874E+03  0.10203374267E+03  0.00000000000E+00 0.  1.
         -1    1    1    2    0  502  0.29024399351E+01 -0.31844913263E+02 -0.24172704185E+03  0.24383290471E+03  0.00000000000E+00 0. -1.
<mgrwt>
<rscale>  1 0.30000000E+03</rscale>
<asrwt>0</asrwt>
<pdfrwt beam="1">  1       21 0.51144335E-02 0.30000000E+03</pdfrwt>
<pdfrwt beam="2">0</pdfrwt>
<totfact> 0.27714036E+04</totfact>
</mgrwt>
</event>
<event>
 6    1  0.1280499E-001  0.3000000E+03  0.7818608E-02  0.1093470E+00
         21   -1    0    0  501  502  0.00000000000E+00  0.00000000000E+00  0.14207978270E+01  0.14207978270E+01  0.00000000000E+00 0. -1.
         13   -1    0    0    0    0 -0.00000000000E+00 -0.00000000000E+00 -0.10000000000E+04  0.10000000000E+04  0.00000000000E+00 0.  1.
    9000005    2    1    2  501    0 -0.61877439124E+01 -0.31755964270E+02 -0.75518598072E+03  0.75588670713E+03  0.34812512140E+01 0.  0.
         13    1    3    3    0    0 -0.41820865885E+01 -0.13704907004E+02 -0.35377093527E+03  0.35406099611E+03  0.00000000000E+00 0.  1.
          1    1    3    3  501    0 -0.20056573239E+01 -0.18051057265E+02 -0.40141504544E+03  0.40182571102E+03  0.00000000000E+00 0.  1.
         -1    1    1    2    0  502  0.61877439124E+01  0.31755964270E+02 -0.24339322146E+03  0.24553409069E+03  0.00000000000E+00 0. -1.
<mgrwt>
<rscale>  1 0.30000000E+03</rscale>
<asrwt>0</asrwt>
<pdfrwt beam="1">  1       21 0.51665484E-02 0.30000000E+03</pdfrwt>
<pdfrwt beam="2">0</pdfrwt>
<totfact> 0.27238487E+04</totfact>
</mgrwt>
</event>
<event>
 6    1  0.1280499E-001  0.3000000E+03  0.7818608E-02  0.1093470E+00
         21   -1    0    0  501  502  0.00000000000E+00  0.00000000000E+00  0.20316014726E+01  0.20316014726E+01  0.00000000000E+00 0. -1.
         13   -1    0    0    0    0 -0.00000000000E+00 -0.00000000000E+00 -0.10000000000E+04  0.10000000000E+04  0.00000000000E+00 0.  1.
    9000005    2    1    2  501    0 -0.43415567842E+01  0.40373270476E+02 -0.71561775994E+03  0.71677604378E+03  0.32044515808E+01 0.  0.
         13    1    3    3    0    0  0.34974829509E+00  0.78919951035E+01 -0.13149830995E+03  0.13173538413E+03  0.00000000000E+00 0.  1.
          3    1    3    3  501    0 -0.46913050793E+01  0.32481275373E+02 -0.58411944998E+03  0.58504065965E+03  0.00000000000E+00 0.  1.
         -1    1    1    2    0  502  0.43415567842E+01 -0.40373270476E+02 -0.28235063859E+03  0.28525555770E+03  0.00000000000E+00 0. -1.
<mgrwt>
<rscale>  1 0.30000000E+03</rscale>
<asrwt>0</asrwt>
<pdfrwt beam="1">  1       21 0.73876573E-02 0.30000000E+03</pdfrwt>
<pdfrwt beam="2">0</pdfrwt>
<totfact> 0.14687306E+04</totfact>
</mgrwt>
</event>
<event>
 6    1  0.1280499E-001  0.3000000E+03  0.7818608E-02  0.1093470E+00
         21   -1    0    0  501  502  0.00000000000E+00  0.00000000000E+00  0.15578031016E+02  0.15578031016E+02  0.00000000000E+00 0. -1.
         13   -1    0    0    0    0 -0.00000000000E+00 -0.00000000000E+00 -0.10000000000E+04  0.10000000000E+04  0.00000000000E+00 0.  1.
    9000005    2    1    2  501    0  0.85597176124E+02 -0.29416597486E+02 -0.84158905392E+03  0.84648203936E+03  0.82155045740E+01 0.  0.
         13    1    3    3    0    0  0.78858571102E+02 -0.28186528898E+02 -0.79365132934E+03  0.79805738341E+03  0.00000000000E+00 0.  1.
          1    1    3    3  501    0  0.67386050227E+01 -0.12300685878E+01 -0.47937724582E+02  0.48424655956E+02  0.00000000000E+00 0.  1.
         -1    1    1    2    0  502 -0.85597176124E+02  0.29416597486E+02 -0.14283291506E+03  0.16909599166E+03  0.00000000000E+00 0. -1.
<mgrwt>
<rscale>  1 0.30000000E+03</rscale>
<asrwt>0</asrwt>
<pdfrwt beam="1">  1       21 0.56647505E-01 0.30000000E+03</pdfrwt>
<pdfrwt beam="2">0</pdfrwt>
<totfact> 0.28556066E+02</totfact>
</mgrwt>
</event>
<event>
 6    1  0.1280499E-001  0.3000000E+03  0.7818608E-02  0.1093470E+00
         21   -1    0    0  501  502  0.00000000000E+00  0.00000000000E+00  0.15811983637E+01  0.15811983637E+01  0.00000000000E+00 0. -1.
         13   -1    0    0    0    0 -0.00000000000E+00 -0.00000000000E+00 -0.10000000000E+04  0.10000000000E+04  0.00000000000E+00 0.  1.
    9000005    2    1    2  501    0  0.93323600810E+01  0.34665968872E+02 -0.71320152660E+03  0.71411343266E+03  0.35713878201E+01 0.  0.
         13    1    3    3    0    0  0.27120214980E+00  0.73574704255E-01 -0.33484400373E+01  0.33602104884E+01  0.00000000000E+00 0.  1.
          3    1    3    3  501    0  0.90611579312E+01  0.34592394167E+02 -0.70985308656E+03  0.71075322217E+03  0.00000000000E+00 0.  1.
         -1    1    1    2    0  502 -0.93323600810E+01 -0.34665968872E+02 -0.28521727503E+03  0.28746776571E+03  0.00000000000E+00 0. -1.
<mgrwt>
<rscale>  1 0.30000000E+03</rscale>
<asrwt>0</asrwt>
<pdfrwt beam="1">  1       21 0.57498244E-02 0.30000000E+03</pdfrwt>
<pdfrwt beam="2">0</pdfrwt>
<totfact> 0.22676223E+04</totfact>
</mgrwt>
</event>
<event>
 6    1  0.1280499E-001  0.3000000E+03  0.7818608E-02  0.1093470E+00
         21   -1    0    0  501  502  0.00000000000E+00  0.00000000000E+00  0.79616734304E+01  0.79616734304E+01  0.00000000000E+00 0. -1.
         13   -1    0    0    0    0 -0.00000000000E+00 -0.00000000000E+00 -0.10000000000E+04  0.10000000000E+04  0.00000000000E+00 0.  1.
    9000005    2    1    2  501    0 -0.62726697747E+01 -0.63649075923E+02 -0.84736275948E+03  0.84977959175E+03  0.33402319547E+01 0.  0.
         13    1    3    3    0    0 -0.35092394579E+01 -0.20835339994E+02 -0.27162951284E+03  0.27245002918E+03  0.00000000000E+00 0.  1.
          1    1    3    3  501    0 -0.27634303168E+01 -0.42813735929E+02 -0.57573324664E+03  0.57732956257E+03  0.00000000000E+00 0.  1.
         -3    1    1    2    0  502  0.62726697747E+01  0.63649075923E+02 -0.14467556709E+03  0.15818208168E+03  0.00000000000E+00 0. -1.
<mgrwt>
<rscale>  1 0.30000000E+03</rscale>
<asrwt>0</asrwt>
<pdfrwt beam="1">  1       21 0.28951601E-01 0.30000000E+03</pdfrwt>
<pdfrwt beam="2">0</pdfrwt>
<totfact> 0.11672649E+03</totfact>
</mgrwt>
</event>
<event>
 6    1  0.1280499E-001  0.3000000E+03  0.7818608E-02  0.1093470E+00
         21   -1    0    0  501  502  0.00000000000E+00  0.00000000000E+00  0.26512149239E+01  0.26512149239E+01  0.00000000000E+00 0. -1.
         13   -1    0    0    0    0 -0.00000000000E+00 -0.00000000000E+00 -0.10000000000E+04  0.10000000000E+04  0.00000000000E+00 0.  1.
    9000005    2    1    2  501    0  0.72149534481E+00  0.51336577770E+02 -0.46710754457E+03  0.46993014540E+03  0.29864018955E+01 0.  0.
         13    1    3    3    0    0  0.14784252290E+01  0.13145935301E+02 -0.12172070558E+03  0.12243745964E+03  0.00000000000E+00 0.  1.
          3    1    3    3  501    0 -0.75692988420E+00  0.38190642469E+02 -0.34538683898E+03  0.34749268576E+03  0.00000000000E+00 0.  1.
         -3    1    1    2    0  502 -0.72149534481E+00 -0.51336577770E+02 -0.53024124051E+03  0.53272106952E+03  0.00000000000E+00 0. -1.
<mgrwt>
<rscale>  1 0.30000000E+03</rscale>
<asrwt>0</asrwt>
<pdfrwt beam="1">  1       21 0.96408019E-02 0.30000000E+03</pdfrwt>
<pdfrwt beam="2">0</pdfrwt>
<totfact> 0.91836995E+03</totfact>
</mgrwt>
</event>
<event>
 6    1  0.1280499E-001  0.3000000E+03  0.7818608E-02  0.1093470E+00
         21   -1    0    0  501  502  0.00000000000E+00  0.00000000000E+00  0.21104595847E+01  0.21104595847E+01  0.00000000000E+00 0. -1.
         13   -1    0    0    0    0 -0.00000000000E+00 -0.00000000000E+00 -0.10000000000E+04  0.10000000000E+04  0.00000000000E+00 0.  1.
    9000005    2    1    2  501    0 -0.26607896718E+02  0.20949489092E+02 -0.83720496137E+03  0.83789598030E+03  0.32657638738E+01 0.  0.
         13    1    3    3    0    0 -0.11210703145E+02  0.69703599433E+01 -0.30954239763E+03  0.30982375911E+03  0.00000000000E+00 0.  1.
          1    1    3    3  501    0 -0.15397193573E+02  0.13979129149E+02 -0.52766256374E+03  0.52807222119E+03  0.00000000000E+00 0.  1.
         -3    1    1    2    0  502  0.26607896718E+02 -0.20949489092E+02 -0.16068457905E+03  0.16421447928E+03  0.00000000000E+00 0. -1.
<mgrwt>
<rscale>  1 0.30000000E+03</rscale>
<asrwt>0</asrwt>
<pdfrwt beam="1">  1       21 0.76744147E-02 0.30000000E+03</pdfrwt>
<pdfrwt beam="2">0</pdfrwt>
<totfact> 0.13739852E+04</totfact>
</mgrwt>
</event>
<event>
 6    1  0.1280499E-001  0.3000000E+03  0.7818608E-02  0.1093470E+00
         21   -1    0    0  501  502  0.00000000000E+00  0.00000000000E+00  0.47144958333E+01  0.47144958333E+01  0.00000000000E+00 0. -1.
         13   -1    0    0    0    0 -0.00000000000E+00 -0.00000000000E+00 -0.10000000000E+04  0.10000000000E+04  0.00000000000E+00 0.  1.
    9000005    2    1    2  501    0 -0.32819356340E+02 -0.28055276265E+02 -0.88815259626E+03  0.88920835472E+03  0.35007420689E+01 0.  0.
         13    1    3    3    0    0 -0.17217381874E+02 -0.12492578977E+02 -0.44544487162E+03  0.44595250467E+03  0.00000000000E+00 0.  1.
          1    1    3    3  501    0 -0.15601974467E+02 -0.15562697288E+02 -0.44270772463E+03  0.44325585005E+03  0.00000000000E+00 0.  1.
         -1    1    1    2    0  502  0.32819356340E+02  0.28055276265E+02 -0.10713290791E+03  0.11550614111E+03  0.00000000000E+00 0. -1.
<mgrwt>
<rscale>  1 0.30000000E+03</rscale>
<asrwt>0</asrwt>
<pdfrwt beam="1">  1       21 0.17143657E-01 0.30000000E+03</pdfrwt>
<pdfrwt beam="2">0</pdfrwt>
<totfact> 0.32105009E+03</totfact>
</mgrwt>
</event>
<event>
 6    1  0.1280499E-001  0.3000000E+03  0.7818608E-02  0.1093470E+00
         21   -1    0    0  501  502  0.00000000000E+00  0.00000000000E+00  0.47187715200E+01  0.47187715200E+01  0.00000000000E+00 0. -1.
         13   -1    0    0    0    0 -0.00000000000E+00 -0.00000000000E+00 -0.10000000000E+04  0.10000000000E+04  0.00000000000E+00 0.  1.
    9000005    2    1    2  501    0 -0.23648387278E+02  0.26165187146E+02 -0.92867505662E+03  0.92935136896E+03  0.35697275348E+01 0.  0.
         13    1    3    3    0    0 -0.15158618808E+02  0.15864571850E+02 -0.61890969889E+03  0.61929854170E+03  0.00000000000E+00 0.  1.
          1    1    3    3  501    0 -0.84897684703E+01  0.10300615296E+02 -0.30976535773E+03  0.31005282726E+03  0.00000000000E+00 0.  1.
         -3    1    1    2    0  502  0.23648387278E+02 -0.26165187146E+02 -0.66606171857E+02  0.75367402560E+02  0.00000000000E+00 0. -1.
<mgrwt>
<rscale>  1 0.30000000E+03</rscale>
<asrwt>0</asrwt>
<pdfrwt beam="1">  1       21 0.17159205E-01 0.30000000E+03</pdfrwt>
<pdfrwt beam="2">0</pdfrwt>
<totfact> 0.32050502E+03</totfact>
</mgrwt>
</event>
<event>
 6    1  0.1280499E-001  0.3000000E+03  0.7818608E-02  0.1093470E+00
         21   -1    0    0  501  502  0.00000000000E+00  0.00000000000E+00  0.30436410298E+01  0.30436410298E+01  0.00000000000E+00 0. -1.
         13   -1    0    0    0    0 -0.00000000000E+00 -0.00000000000E+00 -0.10000000000E+04  0.10000000000E+04  0.00000000000E+00 0.  1.
    9000005    2    1    2  501    0 -0.28091573197E+02  0.44000978872E+02 -0.65968992715E+03  0.66176095957E+03  0.33977951208E+01 0.  0.
         13    1    3    3    0    0 -0.26374242751E+02  0.39545585279E+02 -0.59664988537E+03  0.59854034092E+03  0.00000000000E+00 0.  1.
          3    1    3    3  501    0 -0.17173304451E+01  0.44553935928E+01 -0.63040041780E+02  0.63220618658E+02  0.00000000000E+00 0.  1.
         -1    1    1    2    0  502  0.28091573197E+02 -0.44000978872E+02 -0.33726643182E+03  0.34128268146E+03  0.00000000000E+00 0. -1.
<mgrwt>
<rscale>  1 0.30000000E+03</rscale>
<asrwt>0</asrwt>
<pdfrwt beam="1">  1       21 0.11067809E-01 0.30000000E+03</pdfrwt>
<pdfrwt beam="2">0</pdfrwt>
<totfact> 0.71722606E+03</totfact>
</mgrwt>
</event>
<event>
 6    1  0.1280499E-001  0.3000000E+03  0.7818608E-02  0.1093470E+00
         21   -1    0    0  501  502  0.00000000000E+00  0.00000000000E+00  0.10751502227E+01  0.10751502227E+01  0.00000000000E+00 0. -1.
         13   -1    0    0    0    0 -0.00000000000E+00 -0.00000000000E+00 -0.10000000000E+04  0.10000000000E+04  0.00000000000E+00 0.  1.
    9000005    2    1    2  501    0  0.22405386775E+02 -0.23496343746E+02 -0.56177956649E+03  0.56272588511E+03  0.31718952135E+01 0.  0.
         13    1    3    3    0    0  0.19739124553E+02 -0.19126600454E+02 -0.46685282323E+03  0.46766122187E+03  0.00000000000E+00 0.  1.
          1    1    3    3  501    0  0.26662622221E+01 -0.43697432919E+01 -0.94926743259E+02  0.95064663237E+02  0.00000000000E+00 0.  1.
         -3    1    1    2    0  502 -0.22405386775E+02  0.23496343746E+02 -0.43714528329E+03  0.43834926511E+03  0.00000000000E+00 0. -1.
<mgrwt>
<rscale>  1 0.30000000E+03</rscale>
<asrwt>0</asrwt>
<pdfrwt beam="1">  1       21 0.39096454E-02 0.30000000E+03</pdfrwt>
<pdfrwt beam="2">0</pdfrwt>
<totfact> 0.43695735E+04</totfact>
</mgrwt>
</event>
<event>
 6    1  0.1280499E-001  0.3000000E+03  0.7818608E-02  0.1093470E+00
         21   -1    0    0  501  502  0.00000000000E+00  0.00000000000E+00  0.17095878406E+02  0.17095878406E+02  0.00000000000E+00 0. -1.
         13   -1    0    0    0    0 -0.00000000000E+00 -0.00000000000E+00 -0.10000000000E+04  0.10000000000E+04  0.00000000000E+00 0.  1.
    9000005    2    1    2  501    0  0.47824338398E+02  0.39479966205E+02 -0.93914162798E+03  0.94119468657E+03  0.38217201053E+01 0.  0.
         13    1    3    3    0    0  0.41100288895E+02  0.35516698322E+02 -0.82582949582E+03  0.82761405606E+03  0.00000000000E+00 0.  1.
          3    1    3    3  501    0  0.67240495035E+01  0.39632678828E+01 -0.11331213216E+03  0.11358063052E+03  0.00000000000E+00 0.  1.
         -1    1    1    2    0  502 -0.47824338398E+02 -0.39479966205E+02 -0.43762493611E+02  0.75901191834E+02  0.00000000000E+00 0. -1.
<mgrwt>
<rscale>  1 0.30000000E+03</rscale>
<asrwt>0</asrwt>
<pdfrwt beam="1">  1       21 0.62166962E-01 0.30000000E+03</pdfrwt>
<pdfrwt beam="2">0</pdfrwt>
<totfact> 0.23179137E+02</totfact>
</mgrwt>
</event>
<event>
 6    1  0.1280499E-001  0.3000000E+03  0.7818608E-02  0.1093470E+00
         21   -1    0    0  501  502  0.00000000000E+00  0.00000000000E+00  0.31527553553E+01  0.31527553553E+01  0.00000000000E+00 0. -1.
         13   -1    0    0    0    0 -0.00000000000E+00 -0.00000000000E+00 -0.10000000000E+04  0.10000000000E+04  0.00000000000E+00 0.  1.
    9000005    2    1    2  501    0 -0.47018808852E-01 -0.39038414561E+02 -0.85872527837E+03  0.85961991037E+03  0.36450746733E+01 0.  0.
         13    1    3    3    0    0  0.16150655261E+00 -0.38219632374E+02 -0.82605689777E+03  0.82694060532E+03  0.00000000000E+00 0.  1.
          3    1    3    3  501    0 -0.20852536146E+00 -0.81878218670E+00 -0.32668380606E+02  0.32679305049E+02  0.00000000000E+00 0.  1.
         -3    1    1    2    0  502  0.47018808852E-01  0.39038414561E+02 -0.13812196627E+03  0.14353284498E+03  0.00000000000E+00 0. -1.
<mgrwt>
<rscale>  1 0.30000000E+03</rscale>
<asrwt>0</asrwt>
<pdfrwt beam="1">  1       21 0.11464589E-01 0.30000000E+03</pdfrwt>
<pdfrwt beam="2">0</pdfrwt>
<totfact> 0.67309444E+03</totfact>
</mgrwt>
</event>
<event>
 6    1  0.1280499E-001  0.3000000E+03  0.7818608E-02  0.1093470E+00
         21   -1    0    0  501  502  0.00000000000E+00  0.00000000000E+00  0.17635945967E+01  0.17635945967E+01  0.00000000000E+00 0. -1.
         13   -1    0    0    0    0 -0.00000000000E+00 -0.00000000000E+00 -0.10000000000E+04  0.10000000000E+04  0.00000000000E+00 0.  1.
    9000005    2    1    2  501    0 -0.36615500087E+02 -0.16884584929E+02 -0.63712914999E+03  0.63841220274E+03  0.32867583728E+01 0.  0.
         13    1    3    3    0    0 -0.28421762099E+02 -0.14159791705E+02 -0.51529139915E+03  0.51626884692E+03  0.00000000000E+00 0.  1.
          3    1    3    3  501    0 -0.81937379883E+01 -0.27247932243E+01 -0.12183775085E+03  0.12214335582E+03  0.00000000000E+00 0.  1.
         -3    1    1    2    0  502  0.36615500087E+02  0.16884584929E+02 -0.36110725541E+03  0.36335139186E+03  0.00000000000E+00 0. -1.
<mgrwt>
<rscale>  1 0.30000000E+03</rscale>
<asrwt>0</asrwt>
<pdfrwt beam="1">  1       21 0.64130848E-02 0.30000000E+03</pdfrwt>
<pdfrwt beam="2">0</pdfrwt>
<totfact> 0.18782595E+04</totfact>
</mgrwt>
</event>
<event>
 6    1  0.1280499E-001  0.3000000E+03  0.7818608E-02  0.1093470E+00
         21   -1    0    0  501  502  0.00000000000E+00  0.00000000000E+00  0.73613635862E+01  0.73613635862E+01  0.00000000000E+00 0. -1.
         13   -1    0    0    0    0 -0.00000000000E+00 -0.00000000000E+00 -0.10000000000E+04  0.10000000000E+04  0.00000000000E+00 0.  1.
    9000005    2    1    2  501    0  0.37486500231E+02 -0.55624132730E+01 -0.94819520095E+03  0.94895419710E+03  0.19367366408E+01 0.  0.
         13    1    3    3    0    0  0.17848844094E+02 -0.35912870899E+01 -0.44853788049E+03  0.44890723854E+03  0.00000000000E+00 0.  1.
          1    1    3    3  501    0  0.19637656137E+02 -0.19711261831E+01 -0.49965732046E+03  0.50004695857E+03  0.00000000000E+00 0.  1.
         -1    1    1    2    0  502 -0.37486500231E+02  0.55624132730E+01 -0.44443435460E+02  0.58407166482E+02  0.00000000000E+00 0. -1.
<mgrwt>
<rscale>  1 0.30000000E+03</rscale>
<asrwt>0</asrwt>
<pdfrwt beam="1">  1       21 0.26768651E-01 0.30000000E+03</pdfrwt>
<pdfrwt beam="2">0</pdfrwt>
<totfact> 0.13634449E+03</totfact>
</mgrwt>
</event>
<event>
 6    1  0.1280499E-001  0.3000000E+03  0.7818608E-02  0.1093470E+00
         21   -1    0    0  501  502  0.00000000000E+00  0.00000000000E+00  0.30977494438E+01  0.30977494438E+01  0.00000000000E+00 0. -1.
         13   -1    0    0    0    0 -0.00000000000E+00 -0.00000000000E+00 -0.10000000000E+04  0.10000000000E+04  0.00000000000E+00 0.  1.
    9000005    2    1    2  501    0  0.27854955220E+02 -0.42619810273E+02 -0.70039176154E+03  0.70224759263E+03  0.32733719790E+01 0.  0.
         13    1    3    3    0    0  0.14796298061E+02 -0.24144471897E+02 -0.36990760826E+03  0.37098992521E+03  0.00000000000E+00 0.  1.
          3    1    3    3  501    0  0.13058657160E+02 -0.18475338376E+02 -0.33048415328E+03  0.33125766742E+03  0.00000000000E+00 0.  1.
         -3    1    1    2    0  502 -0.27854955220E+02  0.42619810273E+02 -0.29651048901E+03  0.30085015681E+03  0.00000000000E+00 0. -1.
<mgrwt>
<rscale>  1 0.30000000E+03</rscale>
<asrwt>0</asrwt>
<pdfrwt beam="1">  1       21 0.11264567E-01 0.30000000E+03</pdfrwt>
<pdfrwt beam="2">0</pdfrwt>
<totfact> 0.69481529E+03</totfact>
</mgrwt>
</event>
<event>
 6    1  0.1280499E-001  0.3000000E+03  0.7818608E-02  0.1093470E+00
         21   -1    0    0  501  502  0.00000000000E+00  0.00000000000E+00  0.13088418681E+01  0.13088418681E+01  0.00000000000E+00 0. -1.
         13   -1    0    0    0    0 -0.00000000000E+00 -0.00000000000E+00 -0.10000000000E+04  0.10000000000E+04  0.00000000000E+00 0.  1.
    9000005    2    1    2  501    0  0.69429229224E+01 -0.32704005600E+02 -0.68864228886E+03  0.68946263378E+03  0.35728439850E+01 0.  0.
         13    1    3    3    0    0  0.36987485106E+01 -0.95335016585E+01 -0.21169518218E+03  0.21194201696E+03  0.00000000000E+00 0.  1.
          1    1    3    3  501    0  0.32441744118E+01 -0.23170503941E+02 -0.47694710668E+03  0.47752061682E+03  0.00000000000E+00 0.  1.
         -1    1    1    2    0  502 -0.69429229224E+01  0.32704005600E+02 -0.31004886928E+03  0.31184620809E+03  0.00000000000E+00 0. -1.
<mgrwt>
<rscale>  1 0.30000000E+03</rscale>
<asrwt>0</asrwt>
<pdfrwt beam="1">  1       21 0.47594350E-02 0.30000000E+03</pdfrwt>
<pdfrwt beam="2">0</pdfrwt>
<totfact> 0.31327631E+04</totfact>
</mgrwt>
</event>
<event>
 6    1  0.1280499E-001  0.3000000E+03  0.7818608E-02  0.1093470E+00
         21   -1    0    0  501  502  0.00000000000E+00  0.00000000000E+00  0.43711931944E+01  0.43711931944E+01  0.00000000000E+00 0. -1.
         13   -1    0    0    0    0 -0.00000000000E+00 -0.00000000000E+00 -0.10000000000E+04  0.10000000000E+04  0.00000000000E+00 0.  1.
    9000005    2    1    2  501    0  0.30633406843E+02  0.21815433189E+02 -0.91075252497E+03  0.91153638313E+03  0.37546377973E+01 0.  0.
         13    1    3    3    0    0  0.17539631582E+02  0.12091844033E+02 -0.55945544036E+03  0.55986091230E+03  0.00000000000E+00 0.  1.
          3    1    3    3  501    0  0.13093775261E+02  0.97235891558E+01 -0.35129708460E+03  0.35167547084E+03  0.00000000000E+00 0.  1.
         -1    1    1    2    0  502 -0.30633406843E+02 -0.21815433189E+02 -0.84876281839E+02  0.92834810060E+02  0.00000000000E+00 0. -1.
<mgrwt>
<rscale>  1 0.30000000E+03</rscale>
<asrwt>0</asrwt>
<pdfrwt beam="1">  1       21 0.15895281E-01 0.30000000E+03</pdfrwt>
<pdfrwt beam="2">0</pdfrwt>
<totfact> 0.36976343E+03</totfact>
</mgrwt>
</event>
<event>
 6    1  0.1280499E-001  0.3000000E+03  0.7818608E-02  0.1093470E+00
         21   -1    0    0  501  502  0.00000000000E+00  0.00000000000E+00  0.22932612926E+01  0.22932612926E+01  0.00000000000E+00 0. -1.
         13   -1    0    0    0    0 -0.00000000000E+00 -0.00000000000E+00 -0.10000000000E+04  0.10000000000E+04  0.00000000000E+00 0.  1.
    9000005    2    1    2  501    0 -0.30454548183E+02  0.22848576173E+02 -0.80243665858E+03  0.80334618006E+03  0.33101427511E+01 0.  0.
         13    1    3    3    0    0 -0.74366958470E+01  0.56631549157E+01 -0.16858482242E+03  0.16884376837E+03  0.00000000000E+00 0.  1.
          1    1    3    3  501    0 -0.23017852336E+02  0.17185421257E+02 -0.63385183616E+03  0.63450241169E+03  0.00000000000E+00 0.  1.
         -3    1    1    2    0  502  0.30454548183E+02 -0.22848576173E+02 -0.19527008013E+03  0.19894708123E+03  0.00000000000E+00 0. -1.
<mgrwt>
<rscale>  1 0.30000000E+03</rscale>
<asrwt>0</asrwt>
<pdfrwt beam="1">  1       21 0.83391496E-02 0.30000000E+03</pdfrwt>
<pdfrwt beam="2">0</pdfrwt>
<totfact> 0.11874372E+04</totfact>
</mgrwt>
</event>
<event>
 6    1  0.1280499E-001  0.3000000E+03  0.7818608E-02  0.1093470E+00
         21   -1    0    0  501  502  0.00000000000E+00  0.00000000000E+00  0.59487845155E+01  0.59487845155E+01  0.00000000000E+00 0. -1.
         13   -1    0    0    0    0 -0.00000000000E+00 -0.00000000000E+00 -0.10000000000E+04  0.10000000000E+04  0.00000000000E+00 0.  1.
    9000005    2    1    2  501    0 -0.41109299879E+02  0.23020495228E+02 -0.89517785500E+03  0.89642317495E+03  0.33464561884E+01 0.  0.
         13    1    3    3    0    0 -0.14644919427E+02  0.72731950352E+01 -0.28494063521E+03  0.28540942280E+03  0.00000000000E+00 0.  1.
          1    1    3    3  501    0 -0.26464380452E+02  0.15747300193E+02 -0.61023721979E+03  0.61101375215E+03  0.00000000000E+00 0.  1.
         -1    1    1    2    0  502  0.41109299879E+02 -0.23020495228E+02 -0.98873360484E+02  0.10952560956E+03  0.00000000000E+00 0. -1.
<mgrwt>
<rscale>  1 0.30000000E+03</rscale>
<asrwt>0</asrwt>
<pdfrwt beam="1">  1       21 0.21631989E-01 0.30000000E+03</pdfrwt>
<pdfrwt beam="2">0</pdfrwt>
<totfact> 0.20645157E+03</totfact>
</mgrwt>
</event>
<event>
 6    1  0.1280499E-001  0.3000000E+03  0.7818608E-02  0.1093470E+00
         21   -1    0    0  501  502  0.00000000000E+00  0.00000000000E+00  0.37686428924E+01  0.37686428924E+01  0.00000000000E+00 0. -1.
         13   -1    0    0    0    0 -0.00000000000E+00 -0.00000000000E+00 -0.10000000000E+04  0.10000000000E+04  0.00000000000E+00 0.  1.
    9000005    2    1    2  501    0  0.13286050225E+02  0.30062392459E+02 -0.92174962084E+03  0.92235736844E+03  0.63627840926E+01 0.  0.
         13    1    3    3    0    0  0.67472359317E+01  0.81598323519E+01 -0.31080187876E+03  0.31098217939E+03  0.00000000000E+00 0.  1.
          1    1    3    3  501    0  0.65388142935E+01  0.21902560107E+02 -0.61094774208E+03  0.61137518905E+03  0.00000000000E+00 0.  1.
         -3    1    1    2    0  502 -0.13286050225E+02 -0.30062392459E+02 -0.74481736267E+02  0.81411274455E+02  0.00000000000E+00 0. -1.
<mgrwt>
<rscale>  1 0.30000000E+03</rscale>
<asrwt>0</asrwt>
<pdfrwt beam="1">  1       21 0.13704185E-01 0.30000000E+03</pdfrwt>
<pdfrwt beam="2">0</pdfrwt>
<totfact> 0.48636431E+03</totfact>
</mgrwt>
</event>
<event>
 6    1  0.1280499E-001  0.3000000E+03  0.7818608E-02  0.1093470E+00
         21   -1    0    0  501  502  0.00000000000E+00  0.00000000000E+00  0.15035565431E+01  0.15035565431E+01  0.00000000000E+00 0. -1.
         13   -1    0    0    0    0 -0.00000000000E+00 -0.00000000000E+00 -0.10000000000E+04  0.10000000000E+04  0.00000000000E+00 0.  1.
    9000005    2    1    2  501    0 -0.37482696566E+02 -0.75410469074E+01 -0.58028335519E+03  0.58154640738E+03  0.23731209158E+01 0.  0.
         13    1    3    3    0    0 -0.29394883064E+02 -0.51195092745E+01 -0.44294715364E+03  0.44395095387E+03  0.00000000000E+00 0.  1.
          1    1    3    3  501    0 -0.80878135019E+01 -0.24215376330E+01 -0.13733620154E+03  0.13759545351E+03  0.00000000000E+00 0.  1.
         -3    1    1    2    0  502  0.37482696566E+02  0.75410469074E+01 -0.41821308827E+03  0.41995714916E+03  0.00000000000E+00 0. -1.
<mgrwt>
<rscale>  1 0.30000000E+03</rscale>
<asrwt>0</asrwt>
<pdfrwt beam="1">  1       21 0.54674899E-02 0.30000000E+03</pdfrwt>
<pdfrwt beam="2">0</pdfrwt>
<totfact> 0.24724153E+04</totfact>
</mgrwt>
</event>
<event>
 6    1  0.1280499E-001  0.3000000E+03  0.7818608E-02  0.1093470E+00
         21   -1    0    0  501  502  0.00000000000E+00  0.00000000000E+00  0.98690771152E+00  0.98690771152E+00  0.00000000000E+00 0. -1.
         13   -1    0    0    0    0 -0.00000000000E+00 -0.00000000000E+00 -0.10000000000E+04  0.10000000000E+04  0.00000000000E+00 0.  1.
    9000005    2    1    2  501    0 -0.30525964980E+02  0.56574951803E+01 -0.56577268477E+03  0.56663556088E+03  0.36450280558E+01 0.  0.
         13    1    3    3    0    0 -0.23683707713E+02  0.31271329455E+01 -0.44928176411E+03  0.44991643728E+03  0.00000000000E+00 0.  1.
          3    1    3    3  501    0 -0.68422572675E+01  0.25303622348E+01 -0.11649092066E+03  0.11671912360E+03  0.00000000000E+00 0.  1.
         -3    1    1    2    0  502  0.30525964980E+02 -0.56574951803E+01 -0.43324040752E+03  0.43435134684E+03  0.00000000000E+00 0. -1.
<mgrwt>
<rscale>  1 0.30000000E+03</rscale>
<asrwt>0</asrwt>
<pdfrwt beam="1">  1       21 0.35887629E-02 0.30000000E+03</pdfrwt>
<pdfrwt beam="2">0</pdfrwt>
<totfact> 0.50454121E+04</totfact>
</mgrwt>
</event>
<event>
 6    1  0.1280499E-001  0.3000000E+03  0.7818608E-02  0.1093470E+00
         21   -1    0    0  501  502  0.00000000000E+00  0.00000000000E+00  0.15291666683E+01  0.15291666683E+01  0.00000000000E+00 0. -1.
         13   -1    0    0    0    0 -0.00000000000E+00 -0.00000000000E+00 -0.10000000000E+04  0.10000000000E+04  0.00000000000E+00 0.  1.
    9000005    2    1    2  501    0  0.34936942946E+02  0.16517065615E+02 -0.42853895301E+03  0.43028862921E+03  0.30441310392E+01 0.  0.
         13    1    3    3    0    0  0.16175791533E+02  0.93274248037E+01 -0.20733140904E+03  0.20817053168E+03  0.00000000000E+00 0.  1.
          3    1    3    3  501    0  0.18761151413E+02  0.71896408111E+01 -0.22120754398E+03  0.22211809753E+03  0.00000000000E+00 0.  1.
         -1    1    1    2    0  502 -0.34936942946E+02 -0.16517065615E+02 -0.56993188032E+03  0.57124053746E+03  0.00000000000E+00 0. -1.
<mgrwt>
<rscale>  1 0.30000000E+03</rscale>
<asrwt>0</asrwt>
<pdfrwt beam="1">  1       21 0.55606178E-02 0.30000000E+03</pdfrwt>
<pdfrwt beam="2">0</pdfrwt>
<totfact> 0.24018274E+04</totfact>
</mgrwt>
</event>
<event>
 6    1  0.1280499E-001  0.3000000E+03  0.7818608E-02  0.1093470E+00
         21   -1    0    0  501  502  0.00000000000E+00  0.00000000000E+00  0.32067502654E+01  0.32067502654E+01  0.00000000000E+00 0. -1.
         13   -1    0    0    0    0 -0.00000000000E+00 -0.00000000000E+00 -0.10000000000E+04  0.10000000000E+04  0.00000000000E+00 0.  1.
    9000005    2    1    2  501    0 -0.17839287183E+02 -0.26284724434E+02 -0.91350951027E+03  0.91407029216E+03  0.39682156558E+01 0.  0.
         13    1    3    3    0    0 -0.13800054335E+02 -0.21839490376E+02 -0.70084654586E+03  0.70132252615E+03  0.00000000000E+00 0.  1.
          3    1    3    3  501    0 -0.40392328472E+01 -0.44452340575E+01 -0.21266296441E+03  0.21274776600E+03  0.00000000000E+00 0.  1.
         -1    1    1    2    0  502  0.17839287183E+02  0.26284724434E+02 -0.83283739461E+02  0.89136458110E+02  0.00000000000E+00 0. -1.
<mgrwt>
<rscale>  1 0.30000000E+03</rscale>
<asrwt>0</asrwt>
<pdfrwt beam="1">  1       21 0.11660935E-01 0.30000000E+03</pdfrwt>
<pdfrwt beam="2">0</pdfrwt>
<totfact> 0.65274774E+03</totfact>
</mgrwt>
</event>
<event>
 6    1  0.1280499E-001  0.3000000E+03  0.7818608E-02  0.1093470E+00
         21   -1    0    0  501  502  0.00000000000E+00  0.00000000000E+00  0.31749428486E+01  0.31749428486E+01  0.00000000000E+00 0. -1.
         13   -1    0    0    0    0 -0.00000000000E+00 -0.00000000000E+00 -0.10000000000E+04  0.10000000000E+04  0.00000000000E+00 0.  1.
    9000005    2    1    2  501    0 -0.34109331902E+02  0.15795819464E+02 -0.87188289067E+03  0.87270080978E+03  0.37381692293E+01 0.  0.
         13    1    3    3    0    0 -0.16357765467E+02  0.73983692100E+01 -0.45957418731E+03  0.45992471776E+03  0.00000000000E+00 0.  1.
          1    1    3    3  501    0 -0.17751566435E+02  0.83974502538E+01 -0.41230870336E+03  0.41277609202E+03  0.00000000000E+00 0.  1.
         -3    1    1    2    0  502  0.34109331902E+02 -0.15795819464E+02 -0.12494216648E+03  0.13047413307E+03  0.00000000000E+00 0. -1.
<mgrwt>
<rscale>  1 0.30000000E+03</rscale>
<asrwt>0</asrwt>
<pdfrwt beam="1">  1       21 0.11545271E-01 0.30000000E+03</pdfrwt>
<pdfrwt beam="2">0</pdfrwt>
<totfact> 0.66462028E+03</totfact>
</mgrwt>
</event>
<event>
 6    1  0.1280499E-001  0.3000000E+03  0.7818608E-02  0.1093470E+00
         21   -1    0    0  501  502  0.00000000000E+00  0.00000000000E+00  0.30868884875E+01  0.30868884875E+01  0.00000000000E+00 0. -1.
         13   -1    0    0    0    0 -0.00000000000E+00 -0.00000000000E+00 -0.10000000000E+04  0.10000000000E+04  0.00000000000E+00 0.  1.
    9000005    2    1    2  501    0  0.38261045274E+02  0.26038677838E+02 -0.77546474741E+03  0.77685404761E+03  0.38362063839E+01 0.  0.
         13    1    3    3    0    0  0.26167255296E+01  0.20429897971E+01 -0.41473743853E+02  0.41606399616E+02  0.00000000000E+00 0.  1.
          3    1    3    3  501    0  0.35644319744E+02  0.23995688041E+02 -0.73399100356E+03  0.73524764799E+03  0.00000000000E+00 0.  1.
         -1    1    1    2    0  502 -0.38261045274E+02 -0.26038677838E+02 -0.22144836410E+03  0.22623284088E+03  0.00000000000E+00 0. -1.
<mgrwt>
<rscale>  1 0.30000000E+03</rscale>
<asrwt>0</asrwt>
<pdfrwt beam="1">  1       21 0.11225073E-01 0.30000000E+03</pdfrwt>
<pdfrwt beam="2">0</pdfrwt>
<totfact> 0.69922840E+03</totfact>
</mgrwt>
</event>
<event>
 6    1  0.1280499E-001  0.3000000E+03  0.7818608E-02  0.1093470E+00
         21   -1    0    0  501  502  0.00000000000E+00  0.00000000000E+00  0.12458754025E+01  0.12458754025E+01  0.00000000000E+00 0. -1.
         13   -1    0    0    0    0 -0.00000000000E+00 -0.00000000000E+00 -0.10000000000E+04  0.10000000000E+04  0.00000000000E+00 0.  1.
    9000005    2    1    2  501    0  0.46291257144E+01 -0.31979885186E+02 -0.69707247408E+03  0.69783862414E+03  0.49567485706E+01 0.  0.
         13    1    3    3    0    0  0.52855804187E+01 -0.22860073186E+02 -0.47826376390E+03  0.47883895849E+03  0.00000000000E+00 0.  1.
          3    1    3    3  501    0 -0.65645470435E+00 -0.91198120002E+01 -0.21880871018E+03  0.21899966565E+03  0.00000000000E+00 0.  1.
         -3    1    1    2    0  502 -0.46291257144E+01  0.31979885186E+02 -0.30168165052E+03  0.30340725127E+03  0.00000000000E+00 0. -1.
<mgrwt>
<rscale>  1 0.30000000E+03</rscale>
<asrwt>0</asrwt>
<pdfrwt beam="1">  1       21 0.45304656E-02 0.30000000E+03</pdfrwt>
<pdfrwt beam="2">0</pdfrwt>
<totfact> 0.34065802E+04</totfact>
</mgrwt>
</event>
<event>
 6    1  0.1280499E-001  0.3000000E+03  0.7818608E-02  0.1093470E+00
         21   -1    0    0  501  502  0.00000000000E+00  0.00000000000E+00  0.11158502668E+01  0.11158502668E+01  0.00000000000E+00 0. -1.
         13   -1    0    0    0    0 -0.00000000000E+00 -0.00000000000E+00 -0.10000000000E+04  0.10000000000E+04  0.00000000000E+00 0.  1.
    9000005    2    1    2  501    0 -0.28272155117E+02 -0.10288613544E+02 -0.71537260215E+03  0.71601241651E+03  0.32634911091E+01 0.  0.
         13    1    3    3    0    0 -0.24339916604E+02 -0.94611662418E+01 -0.59506442520E+03  0.59563715074E+03  0.00000000000E+00 0.  1.
          3    1    3    3  501    0 -0.39322385131E+01 -0.82744730240E+00 -0.12030817695E+03  0.12037526577E+03  0.00000000000E+00 0.  1.
         -3    1    1    2    0  502  0.28272155117E+02  0.10288613544E+02 -0.28351154759E+03  0.28510343376E+03  0.00000000000E+00 0. -1.
<mgrwt>
<rscale>  1 0.30000000E+03</rscale>
<asrwt>0</asrwt>
<pdfrwt beam="1">  1       21 0.40576459E-02 0.30000000E+03</pdfrwt>
<pdfrwt beam="2">0</pdfrwt>
<totfact> 0.41045890E+04</totfact>
</mgrwt>
</event>
<event>
 6    1  0.1280499E-001  0.3000000E+03  0.7818608E-02  0.1093470E+00
         21   -1    0    0  501  502  0.00000000000E+00  0.00000000000E+00  0.24374820539E+01  0.24374820539E+01  0.00000000000E+00 0. -1.
         13   -1    0    0    0    0 -0.00000000000E+00 -0.00000000000E+00 -0.10000000000E+04  0.10000000000E+04  0.00000000000E+00 0.  1.
    9000005    2    1    2  501    0  0.36424378568E+01 -0.42236240429E+02 -0.75510272480E+03  0.75629947472E+03  0.34063339080E+01 0.  0.
         13    1    3    3    0    0 -0.56043480803E+00 -0.73473014589E+01 -0.13986206370E+03  0.14005603803E+03  0.00000000000E+00 0.  1.
          3    1    3    3  501    0  0.42028726648E+01 -0.34888938970E+02 -0.61524066109E+03  0.61624343669E+03  0.00000000000E+00 0.  1.
         -1    1    1    2    0  502 -0.36424378568E+01  0.42236240429E+02 -0.24245979315E+03  0.24613800733E+03  0.00000000000E+00 0. -1.
<mgrwt>
<rscale>  1 0.30000000E+03</rscale>
<asrwt>0</asrwt>
<pdfrwt beam="1">  1       21 0.88635898E-02 0.30000000E+03</pdfrwt>
<pdfrwt beam="2">0</pdfrwt>
<totfact> 0.10662537E+04</totfact>
</mgrwt>
</event>
<event>
 6    1  0.1280499E-001  0.3000000E+03  0.7818608E-02  0.1093470E+00
         21   -1    0    0  501  502  0.00000000000E+00  0.00000000000E+00  0.15396982866E+01  0.15396982866E+01  0.00000000000E+00 0. -1.
         13   -1    0    0    0    0 -0.00000000000E+00 -0.00000000000E+00 -0.10000000000E+04  0.10000000000E+04  0.00000000000E+00 0.  1.
    9000005    2    1    2  501    0 -0.36314094246E+02  0.35151225104E+01 -0.67896540329E+03  0.67996846256E+03  0.56587707292E+01 0.  0.
         13    1    3    3    0    0 -0.28402041858E+02  0.45798155960E+01 -0.55649615077E+03  0.55723928121E+03  0.00000000000E+00 0.  1.
          1    1    3    3  501    0 -0.79120523881E+01 -0.10646930855E+01 -0.12246925251E+03  0.12272918135E+03  0.00000000000E+00 0.  1.
         -1    1    1    2    0  502  0.36314094246E+02 -0.35151225104E+01 -0.31949489843E+03  0.32157123573E+03  0.00000000000E+00 0. -1.
<mgrwt>
<rscale>  1 0.30000000E+03</rscale>
<asrwt>0</asrwt>
<pdfrwt beam="1">  1       21 0.55989147E-02 0.30000000E+03</pdfrwt>
<pdfrwt beam="2">0</pdfrwt>
<totfact> 0.23736960E+04</totfact>
</mgrwt>
</event>
<event>
 6    1  0.1280499E-001  0.3000000E+03  0.7818608E-02  0.1093470E+00
         21   -1    0    0  501  502  0.00000000000E+00  0.00000000000E+00  0.10713817372E+01  0.10713817372E+01  0.00000000000E+00 0. -1.
         13   -1    0    0    0    0 -0.00000000000E+00 -0.00000000000E+00 -0.10000000000E+04  0.10000000000E+04  0.00000000000E+00 0.  1.
    9000005    2    1    2  501    0  0.31650303317E+02  0.46454619721E+01 -0.44676076891E+03  0.44797766827E+03  0.80922565106E+01 0.  0.
         13    1    3    3    0    0  0.15030669604E+02  0.39620022128E+00 -0.25852097025E+03  0.25895785383E+03  0.00000000000E+00 0.  1.
          3    1    3    3  501    0  0.16619633713E+02  0.42492617508E+01 -0.18823979866E+03  0.18901981443E+03  0.00000000000E+00 0.  1.
         -3    1    1    2    0  502 -0.31650303317E+02 -0.46454619721E+01 -0.55216784936E+03  0.55309371347E+03  0.00000000000E+00 0. -1.
<mgrwt>
<rscale>  1 0.30000000E+03</rscale>
<asrwt>0</asrwt>
<pdfrwt beam="1">  1       21 0.38959418E-02 0.30000000E+03</pdfrwt>
<pdfrwt beam="2">0</pdfrwt>
<totfact> 0.43954569E+04</totfact>
</mgrwt>
</event>
<event>
 6    1  0.1280499E-001  0.3000000E+03  0.7818608E-02  0.1093470E+00
         21   -1    0    0  501  502  0.00000000000E+00  0.00000000000E+00  0.17700382687E+01  0.17700382687E+01  0.00000000000E+00 0. -1.
         13   -1    0    0    0    0 -0.00000000000E+00 -0.00000000000E+00 -0.10000000000E+04  0.10000000000E+04  0.00000000000E+00 0.  1.
    9000005    2    1    2  501    0 -0.41842580845E+02 -0.18536517635E+01 -0.46763065876E+03  0.46952023046E+03  0.40713884668E+01 0.  0.
         13    1    3    3    0    0 -0.13143356225E+02  0.70551279623E+00 -0.16250576283E+03  0.16303793581E+03  0.00000000000E+00 0.  1.
          1    1    3    3  501    0 -0.28699224621E+02 -0.25591645598E+01 -0.30512489593E+03  0.30648229465E+03  0.00000000000E+00 0.  1.
         -1    1    1    2    0  502  0.41842580845E+02  0.18536517635E+01 -0.53059930298E+03  0.53224980781E+03  0.00000000000E+00 0. -1.
<mgrwt>
<rscale>  1 0.30000000E+03</rscale>
<asrwt>0</asrwt>
<pdfrwt beam="1">  1       21 0.64365164E-02 0.30000000E+03</pdfrwt>
<pdfrwt beam="2">0</pdfrwt>
<totfact> 0.18664444E+04</totfact>
</mgrwt>
</event>
<event>
 6    1  0.1280499E-001  0.3000000E+03  0.7818608E-02  0.1093470E+00
         21   -1    0    0  501  502  0.00000000000E+00  0.00000000000E+00  0.10687605339E+01  0.10687605339E+01  0.00000000000E+00 0. -1.
         13   -1    0    0    0    0 -0.00000000000E+00 -0.00000000000E+00 -0.10000000000E+04  0.10000000000E+04  0.00000000000E+00 0.  1.
    9000005    2    1    2  501    0 -0.14399164509E+02  0.29137808389E+02 -0.47825453146E+03  0.47937863980E+03  0.44872724073E+01 0.  0.
         13    1    3    3    0    0 -0.26002083128E+01  0.55175989877E+01 -0.11822998733E+03  0.11838722434E+03  0.00000000000E+00 0.  1.
          1    1    3    3  501    0 -0.11798956196E+02  0.23620209401E+02 -0.36002454413E+03  0.36099141546E+03  0.00000000000E+00 0.  1.
         -3    1    1    2    0  502  0.14399164509E+02 -0.29137808389E+02 -0.52067670800E+03  0.52169012074E+03  0.00000000000E+00 0. -1.
<mgrwt>
<rscale>  1 0.30000000E+03</rscale>
<asrwt>0</asrwt>
<pdfrwt beam="1">  1       21 0.38864101E-02 0.30000000E+03</pdfrwt>
<pdfrwt beam="2">0</pdfrwt>
<totfact> 0.44136024E+04</totfact>
</mgrwt>
</event>
<event>
 6    1  0.1280499E-001  0.3000000E+03  0.7818608E-02  0.1093470E+00
         21   -1    0    0  501  502  0.00000000000E+00  0.00000000000E+00  0.25606944351E+01  0.25606944351E+01  0.00000000000E+00 0. -1.
         13   -1    0    0    0    0 -0.00000000000E+00 -0.00000000000E+00 -0.10000000000E+04  0.10000000000E+04  0.00000000000E+00 0.  1.
    9000005    2    1    2  501    0 -0.40098774944E+02  0.30782568682E+02 -0.50530251237E+03  0.50783440496E+03  0.31105565146E+01 0.  0.
         13    1    3    3    0    0 -0.99956027112E+01  0.93781807834E+01 -0.13959874762E+03  0.14026999924E+03  0.00000000000E+00 0.  1.
          1    1    3    3  501    0 -0.30103172233E+02  0.21404387899E+02 -0.36570376475E+03  0.36756440572E+03  0.00000000000E+00 0.  1.
         -3    1    1    2    0  502  0.40098774944E+02 -0.30782568682E+02 -0.49213679319E+03  0.49472628948E+03  0.00000000000E+00 0. -1.
<mgrwt>
<rscale>  1 0.30000000E+03</rscale>
<asrwt>0</asrwt>
<pdfrwt beam="1">  1       21 0.93116358E-02 0.30000000E+03</pdfrwt>
<pdfrwt beam="2">0</pdfrwt>
<totfact> 0.97697541E+03</totfact>
</mgrwt>
</event>
<event>
 6    1  0.1280499E-001  0.3000000E+03  0.7818608E-02  0.1093470E+00
         21   -1    0    0  501  502  0.00000000000E+00  0.00000000000E+00  0.29062449674E+01  0.29062449674E+01  0.00000000000E+00 0. -1.
         13   -1    0    0    0    0 -0.00000000000E+00 -0.00000000000E+00 -0.10000000000E+04  0.10000000000E+04  0.00000000000E+00 0.  1.
    9000005    2    1    2  501    0  0.65172128251E+01  0.51102943354E+02 -0.64446757412E+03  0.64653676206E+03  0.41648194451E+01 0.  0.
         13    1    3    3    0    0  0.23345077597E+01  0.29893349500E+02 -0.35629833087E+03  0.35755777554E+03  0.00000000000E+00 0.  1.
          1    1    3    3  501    0  0.41827050654E+01  0.21209593853E+02 -0.28816924324E+03  0.28897898651E+03  0.00000000000E+00 0.  1.
         -3    1    1    2    0  502 -0.65172128251E+01 -0.51102943354E+02 -0.35262618092E+03  0.35636948291E+03  0.00000000000E+00 0. -1.
<mgrwt>
<rscale>  1 0.30000000E+03</rscale>
<asrwt>0</asrwt>
<pdfrwt beam="1">  1       21 0.10568186E-01 0.30000000E+03</pdfrwt>
<pdfrwt beam="2">0</pdfrwt>
<totfact> 0.77928992E+03</totfact>
</mgrwt>
</event>
<event>
 6    1  0.1280499E-001  0.3000000E+03  0.7818608E-02  0.1093470E+00
         21   -1    0    0  501  502  0.00000000000E+00  0.00000000000E+00  0.47276199804E+01  0.47276199804E+01  0.00000000000E+00 0. -1.
         13   -1    0    0    0    0 -0.00000000000E+00 -0.00000000000E+00 -0.10000000000E+04  0.10000000000E+04  0.00000000000E+00 0.  1.
    9000005    2    1    2  501    0 -0.61835057195E+01  0.58922786778E+02 -0.75230384278E+03  0.75463995408E+03  0.32027949362E+01 0.  0.
         13    1    3    3    0    0 -0.55770704689E+01  0.52104656682E+02 -0.65157891349E+03  0.65368270550E+03  0.00000000000E+00 0.  1.
          1    1    3    3  501    0 -0.60643525053E+00  0.68181300955E+01 -0.10072492929E+03  0.10095724858E+03  0.00000000000E+00 0.  1.
         -3    1    1    2    0  502  0.61835057195E+01 -0.58922786778E+02 -0.24296853724E+03  0.25008766590E+03  0.00000000000E+00 0. -1.
<mgrwt>
<rscale>  1 0.30000000E+03</rscale>
<asrwt>0</asrwt>
<pdfrwt beam="1">  1       21 0.17191382E-01 0.30000000E+03</pdfrwt>
<pdfrwt beam="2">0</pdfrwt>
<totfact> 0.31938137E+03</totfact>
</mgrwt>
</event>
<event>
 6    1  0.1280499E-001  0.3000000E+03  0.7818608E-02  0.1093470E+00
         21   -1    0    0  501  502  0.00000000000E+00  0.00000000000E+00  0.10506759587E+01  0.10506759587E+01  0.00000000000E+00 0. -1.
         13   -1    0    0    0    0 -0.00000000000E+00 -0.00000000000E+00 -0.10000000000E+04  0.10000000000E+04  0.00000000000E+00 0.  1.
    9000005    2    1    2  501    0  0.29640171644E+02 -0.89348975068E+01 -0.64374675963E+03  0.64450161351E+03  0.37506152357E+01 0.  0.
         13    1    3    3    0    0  0.23903200628E+02 -0.73048479764E+01 -0.48624011063E+03  0.48688208941E+03  0.00000000000E+00 0.  1.
          3    1    3    3  501    0  0.57369710159E+01 -0.16300495304E+01 -0.15750664900E+03  0.15761952410E+03  0.00000000000E+00 0.  1.
         -1    1    1    2    0  502 -0.29640171644E+02  0.89348975068E+01 -0.35520256441E+03  0.35654906245E+03  0.00000000000E+00 0. -1.
<mgrwt>
<rscale>  1 0.30000000E+03</rscale>
<asrwt>0</asrwt>
<pdfrwt beam="1">  1       21 0.38206479E-02 0.30000000E+03</pdfrwt>
<pdfrwt beam="2">0</pdfrwt>
<totfact> 0.45420611E+04</totfact>
</mgrwt>
</event>
<event>
 6    1  0.1280499E-001  0.3000000E+03  0.7818608E-02  0.1093470E+00
         21   -1    0    0  501  502  0.00000000000E+00  0.00000000000E+00  0.14466947907E+01  0.14466947907E+01  0.00000000000E+00 0. -1.
         13   -1    0    0    0    0 -0.00000000000E+00 -0.00000000000E+00 -0.10000000000E+04  0.10000000000E+04  0.00000000000E+00 0.  1.
    9000005    2    1    2  501    0  0.34952659070E+02  0.24820644436E+01 -0.69232062076E+03  0.69321576506E+03  0.35222113791E+01 0.  0.
         13    1    3    3    0    0  0.10703798131E+02 -0.19623052124E+00 -0.18620706562E+03  0.18651455999E+03  0.00000000000E+00 0.  1.
          1    1    3    3  501    0  0.24248860939E+02  0.26782949649E+01 -0.50611355514E+03  0.50670120507E+03  0.00000000000E+00 0.  1.
         -3    1    1    2    0  502 -0.34952659070E+02 -0.24820644436E+01 -0.30623268445E+03  0.30823092973E+03  0.00000000000E+00 0. -1.
<mgrwt>
<rscale>  1 0.30000000E+03</rscale>
<asrwt>0</asrwt>
<pdfrwt beam="1">  1       21 0.52607194E-02 0.30000000E+03</pdfrwt>
<pdfrwt beam="2">0</pdfrwt>
<totfact> 0.26410685E+04</totfact>
</mgrwt>
</event>
<event>
 6    1  0.1280499E-001  0.3000000E+03  0.7818608E-02  0.1093470E+00
         21   -1    0    0  501  502  0.00000000000E+00  0.00000000000E+00  0.25793512388E+01  0.25793512388E+01  0.00000000000E+00 0. -1.
         13   -1    0    0    0    0 -0.00000000000E+00 -0.00000000000E+00 -0.10000000000E+04  0.10000000000E+04  0.00000000000E+00 0.  1.
    9000005    2    1    2  501    0  0.41391895586E+02 -0.12358352849E+02 -0.75974400729E+03  0.76100906373E+03  0.76039833655E+01 0.  0.
         13    1    3    3    0    0  0.41134438069E+02 -0.11174814900E+02 -0.74257660064E+03  0.74379898245E+03  0.00000000000E+00 0.  1.
          1    1    3    3  501    0  0.25745751694E+00 -0.11835379490E+01 -0.17167406653E+02  0.17210081279E+02  0.00000000000E+00 0.  1.
         -1    1    1    2    0  502 -0.41391895586E+02  0.12358352849E+02 -0.23767664147E+03  0.24157028750E+03  0.00000000000E+00 0. -1.
<mgrwt>
<rscale>  1 0.30000000E+03</rscale>
<asrwt>0</asrwt>
<pdfrwt beam="1">  1       21 0.93794788E-02 0.30000000E+03</pdfrwt>
<pdfrwt beam="2">0</pdfrwt>
<totfact> 0.96444489E+03</totfact>
</mgrwt>
</event>
<event>
 6    1  0.1280499E-001  0.3000000E+03  0.7818608E-02  0.1093470E+00
         21   -1    0    0  501  502  0.00000000000E+00  0.00000000000E+00  0.35783169756E+01  0.35783169756E+01  0.00000000000E+00 0. -1.
         13   -1    0    0    0    0 -0.00000000000E+00 -0.00000000000E+00 -0.10000000000E+04  0.10000000000E+04  0.00000000000E+00 0.  1.
    9000005    2    1    2  501    0  0.20645216993E+02  0.43837378443E+02 -0.79145337783E+03  0.79296030524E+03  0.62972750932E+01 0.  0.
         13    1    3    3    0    0  0.66860510308E+01  0.91388181051E+01 -0.15991392930E+03  0.16031433517E+03  0.00000000000E+00 0.  1.
          1    1    3    3  501    0  0.13959165963E+02  0.34698560338E+02 -0.63153944852E+03  0.63264597007E+03  0.00000000000E+00 0.  1.
         -1    1    1    2    0  502 -0.20645216993E+02 -0.43837378443E+02 -0.20496830520E+03  0.21061801174E+03  0.00000000000E+00 0. -1.
<mgrwt>
<rscale>  1 0.30000000E+03</rscale>
<asrwt>0</asrwt>
<pdfrwt beam="1">  1       21 0.13012089E-01 0.30000000E+03</pdfrwt>
<pdfrwt beam="2">0</pdfrwt>
<totfact> 0.53474395E+03</totfact>
</mgrwt>
</event>
<event>
 6    1  0.1280499E-001  0.3000000E+03  0.7818608E-02  0.1093470E+00
         21   -1    0    0  501  502  0.00000000000E+00  0.00000000000E+00  0.13344418069E+01  0.13344418069E+01  0.00000000000E+00 0. -1.
         13   -1    0    0    0    0 -0.00000000000E+00 -0.00000000000E+00 -0.10000000000E+04  0.10000000000E+04  0.00000000000E+00 0.  1.
    9000005    2    1    2  501    0  0.10952947922E+02  0.34133678263E+02 -0.54979404796E+03  0.55103375587E+03  0.89235571153E+01 0.  0.
         13    1    3    3    0    0  0.31938256997E+01  0.21805248134E+02 -0.29361478987E+03  0.29444068027E+03  0.00000000000E+00 0.  1.
          3    1    3    3  501    0  0.77591222223E+01  0.12328430129E+02 -0.25617925809E+03  0.25659307559E+03  0.00000000000E+00 0.  1.
         -1    1    1    2    0  502 -0.10952947922E+02 -0.34133678263E+02 -0.44887151023E+03  0.45030068594E+03  0.00000000000E+00 0. -1.
<mgrwt>
<rscale>  1 0.30000000E+03</rscale>
<asrwt>0</asrwt>
<pdfrwt beam="1">  1       21 0.48525259E-02 0.30000000E+03</pdfrwt>
<pdfrwt beam="2">0</pdfrwt>
<totfact> 0.30311828E+04</totfact>
</mgrwt>
</event>
<event>
 6    1  0.1280499E-001  0.3000000E+03  0.7818608E-02  0.1093470E+00
         21   -1    0    0  501  502  0.00000000000E+00  0.00000000000E+00  0.18910996992E+01  0.18910996992E+01  0.00000000000E+00 0. -1.
         13   -1    0    0    0    0 -0.00000000000E+00 -0.00000000000E+00 -0.10000000000E+04  0.10000000000E+04  0.00000000000E+00 0.  1.
    9000005    2    1    2  501    0  0.19749874919E+02  0.23562141703E+02 -0.85310166466E+03  0.85366043328E+03  0.29074059670E+01 0.  0.
         13    1    3    3    0    0  0.14990184588E+02  0.16067663835E+02 -0.62407531528E+03  0.62446206818E+03  0.00000000000E+00 0.  1.
          3    1    3    3  501    0  0.47596903301E+01  0.74944778682E+01 -0.22902634938E+03  0.22919836510E+03  0.00000000000E+00 0.  1.
         -3    1    1    2    0  502 -0.19749874919E+02 -0.23562141703E+02 -0.14500723564E+03  0.14823066642E+03  0.00000000000E+00 0. -1.
<mgrwt>
<rscale>  1 0.30000000E+03</rscale>
<asrwt>0</asrwt>
<pdfrwt beam="1">  1       21 0.68767407E-02 0.30000000E+03</pdfrwt>
<pdfrwt beam="2">0</pdfrwt>
<totfact> 0.16641582E+04</totfact>
</mgrwt>
</event>
<event>
 6    1  0.1280499E-001  0.3000000E+03  0.7818608E-02  0.1093470E+00
         21   -1    0    0  501  502  0.00000000000E+00  0.00000000000E+00  0.13393785473E+01  0.13393785473E+01  0.00000000000E+00 0. -1.
         13   -1    0    0    0    0 -0.00000000000E+00 -0.00000000000E+00 -0.10000000000E+04  0.10000000000E+04  0.00000000000E+00 0.  1.
    9000005    2    1    2  501    0 -0.29331892643E+02 -0.93543299878E+01 -0.76912428294E+03  0.76974750884E+03  0.33468411483E+01 0.  0.
         13    1    3    3    0    0 -0.25888347592E+02 -0.74649205919E+01 -0.64900546724E+03  0.64956449109E+03  0.00000000000E+00 0.  1.
          1    1    3    3  501    0 -0.34435450506E+01 -0.18894093959E+01 -0.12011881570E+03  0.12018301775E+03  0.00000000000E+00 0.  1.
         -3    1    1    2    0  502  0.29331892643E+02  0.93543299878E+01 -0.22953633852E+03  0.23159186971E+03  0.00000000000E+00 0. -1.
<mgrwt>
<rscale>  1 0.30000000E+03</rscale>
<asrwt>0</asrwt>
<pdfrwt beam="1">  1       21 0.48704777E-02 0.30000000E+03</pdfrwt>
<pdfrwt beam="2">0</pdfrwt>
<totfact> 0.30121862E+04</totfact>
</mgrwt>
</event>
<event>
 6    1  0.1280499E-001  0.3000000E+03  0.7818608E-02  0.1093470E+00
         21   -1    0    0  501  502  0.00000000000E+00  0.00000000000E+00  0.23545508540E+01  0.23545508540E+01  0.00000000000E+00 0. -1.
         13   -1    0    0    0    0 -0.00000000000E+00 -0.00000000000E+00 -0.10000000000E+04  0.10000000000E+04  0.00000000000E+00 0.  1.
    9000005    2    1    2  501    0 -0.42928749820E+02  0.75432282163E+01 -0.71831332422E+03  0.71964230516E+03  0.33522772095E+01 0.  0.
         13    1    3    3    0    0 -0.67026492128E+01  0.24074904428E+01 -0.11310219018E+03  0.11332619706E+03  0.00000000000E+00 0.  1.
          1    1    3    3  501    0 -0.36226100607E+02  0.51357377734E+01 -0.60521113405E+03  0.60631610810E+03  0.00000000000E+00 0.  1.
         -1    1    1    2    0  502  0.42928749820E+02 -0.75432282163E+01 -0.27933212492E+03  0.28271224570E+03  0.00000000000E+00 0. -1.
<mgrwt>
<rscale>  1 0.30000000E+03</rscale>
<asrwt>0</asrwt>
<pdfrwt beam="1">  1       21 0.85620212E-02 0.30000000E+03</pdfrwt>
<pdfrwt beam="2">0</pdfrwt>
<totfact> 0.11334973E+04</totfact>
</mgrwt>
</event>
<event>
 6    1  0.1280499E-001  0.3000000E+03  0.7818608E-02  0.1093470E+00
         21   -1    0    0  501  502  0.00000000000E+00  0.00000000000E+00  0.26755904652E+01  0.26755904652E+01  0.00000000000E+00 0. -1.
         13   -1    0    0    0    0 -0.00000000000E+00 -0.00000000000E+00 -0.10000000000E+04  0.10000000000E+04  0.00000000000E+00 0.  1.
    9000005    2    1    2  501    0 -0.18470892049E+02 -0.25570171459E+02 -0.89580354554E+03  0.89636710845E+03  0.38721301722E+01 0.  0.
         13    1    3    3    0    0 -0.97920619714E+01 -0.12400364033E+02 -0.39713075113E+03  0.39744494839E+03  0.00000000000E+00 0.  1.
          3    1    3    3  501    0 -0.86788300781E+01 -0.13169807426E+02 -0.49867279441E+03  0.49892216006E+03  0.00000000000E+00 0.  1.
         -3    1    1    2    0  502  0.18470892049E+02  0.25570171459E+02 -0.10152086399E+03  0.10630848201E+03  0.00000000000E+00 0. -1.
<mgrwt>
<rscale>  1 0.30000000E+03</rscale>
<asrwt>0</asrwt>
<pdfrwt beam="1">  1       21 0.97294404E-02 0.30000000E+03</pdfrwt>
<pdfrwt beam="2">0</pdfrwt>
<totfact> 0.90350008E+03</totfact>
</mgrwt>
</event>
<event>
 6    1  0.1280499E-001  0.3000000E+03  0.7818608E-02  0.1093470E+00
         21   -1    0    0  501  502  0.00000000000E+00  0.00000000000E+00  0.19305989212E+01  0.19305989212E+01  0.00000000000E+00 0. -1.
         13   -1    0    0    0    0 -0.00000000000E+00 -0.00000000000E+00 -0.10000000000E+04  0.10000000000E+04  0.00000000000E+00 0.  1.
    9000005    2    1    2  501    0 -0.39454981661E+02 -0.67379933558E+00 -0.71184962494E+03  0.71300342845E+03  0.93193814807E+01 0.  0.
         13    1    3    3    0    0 -0.14093188809E+02  0.42267515659E+01 -0.26173401190E+03  0.26214724180E+03  0.00000000000E+00 0.  1.
          3    1    3    3  501    0 -0.25361792852E+02 -0.49005509015E+01 -0.45011561304E+03  0.45085618665E+03  0.00000000000E+00 0.  1.
         -1    1    1    2    0  502  0.39454981661E+02  0.67379933558E+00 -0.28621977614E+03  0.28892717047E+03  0.00000000000E+00 0. -1.
<mgrwt>
<rscale>  1 0.30000000E+03</rscale>
<asrwt>0</asrwt>
<pdfrwt beam="1">  1       21 0.70203745E-02 0.30000000E+03</pdfrwt>
<pdfrwt beam="2">0</pdfrwt>
<totfact> 0.16053869E+04</totfact>
</mgrwt>
</event>
<event>
 6    1  0.1280499E-001  0.3000000E+03  0.7818608E-02  0.1093470E+00
         21   -1    0    0  501  502  0.00000000000E+00  0.00000000000E+00  0.27946888182E+01  0.27946888182E+01  0.00000000000E+00 0. -1.
         13   -1    0    0    0    0 -0.00000000000E+00 -0.00000000000E+00 -0.10000000000E+04  0.10000000000E+04  0.00000000000E+00 0.  1.
    9000005    2    1    2  501    0 -0.16616456586E+02 -0.31837138514E+02 -0.86639778612E+03  0.86714691467E+03  0.29896172667E+01 0.  0.
         13    1    3    3    0    0 -0.94040902536E+01 -0.15165572115E+02 -0.44623381063E+03  0.44659046703E+03  0.00000000000E+00 0.  1.
          1    1    3    3  501    0 -0.72123663326E+01 -0.16671566400E+02 -0.42016397549E+03  0.42055644765E+03  0.00000000000E+00 0.  1.
         -1    1    1    2    0  502  0.16616456586E+02  0.31837138514E+02 -0.13080752506E+03  0.13564777414E+03  0.00000000000E+00 0. -1.
<mgrwt>
<rscale>  1 0.30000000E+03</rscale>
<asrwt>0</asrwt>
<pdfrwt beam="1">  1       21 0.10162526E-01 0.30000000E+03</pdfrwt>
<pdfrwt beam="2">0</pdfrwt>
<totfact> 0.83587804E+03</totfact>
</mgrwt>
</event>
<event>
 6    1  0.1280499E-001  0.3000000E+03  0.7818608E-02  0.1093470E+00
         21   -1    0    0  501  502  0.00000000000E+00  0.00000000000E+00  0.45168102450E+01  0.45168102450E+01  0.00000000000E+00 0. -1.
         13   -1    0    0    0    0 -0.00000000000E+00 -0.00000000000E+00 -0.10000000000E+04  0.10000000000E+04  0.00000000000E+00 0.  1.
    9000005    2    1    2  501    0 -0.11497627874E+02 -0.34849241118E+02 -0.91842688650E+03  0.91916847151E+03  0.40085060982E+01 0.  0.
         13    1    3    3    0    0 -0.53058042982E+01 -0.22286366044E+02 -0.57097129216E+03  0.57143070458E+03  0.00000000000E+00 0.  1.
          3    1    3    3  501    0 -0.61918235759E+01 -0.12562875074E+02 -0.34745559435E+03  0.34773776693E+03  0.00000000000E+00 0.  1.
         -1    1    1    2    0  502  0.11497627874E+02  0.34849241118E+02 -0.77056303254E+02  0.85348338732E+02  0.00000000000E+00 0. -1.
<mgrwt>
<rscale>  1 0.30000000E+03</rscale>
<asrwt>0</asrwt>
<pdfrwt beam="1">  1       21 0.16424799E-01 0.30000000E+03</pdfrwt>
<pdfrwt beam="2">0</pdfrwt>
<totfact> 0.34783856E+03</totfact>
</mgrwt>
</event>
<event>
 6    1  0.1280499E-001  0.3000000E+03  0.7818608E-02  0.1093470E+00
         21   -1    0    0  501  502  0.00000000000E+00  0.00000000000E+00  0.14080850781E+01  0.14080850781E+01  0.00000000000E+00 0. -1.
         13   -1    0    0    0    0 -0.00000000000E+00 -0.00000000000E+00 -0.10000000000E+04  0.10000000000E+04  0.00000000000E+00 0.  1.
    9000005    2    1    2  501    0  0.17767191249E+02 -0.31411184501E+02 -0.63409219456E+03  0.63512625132E+03  0.31793581806E+01 0.  0.
         13    1    3    3    0    0  0.30532887384E+01 -0.66607730914E+01 -0.14934873383E+03  0.14952836777E+03  0.00000000000E+00 0.  1.
          3    1    3    3  501    0  0.14713902511E+02 -0.24750411409E+02 -0.48474346072E+03  0.48559788355E+03  0.00000000000E+00 0.  1.
         -3    1    1    2    0  502 -0.17767191249E+02  0.31411184501E+02 -0.36449972037E+03  0.36628183376E+03  0.00000000000E+00 0. -1.
<mgrwt>
<rscale>  1 0.30000000E+03</rscale>
<asrwt>0</asrwt>
<pdfrwt beam="1">  1       21 0.51203202E-02 0.30000000E+03</pdfrwt>
<pdfrwt beam="2">0</pdfrwt>
<totfact> 0.27659676E+04</totfact>
</mgrwt>
</event>
<event>
 6    1  0.1280499E-001  0.3000000E+03  0.7818608E-02  0.1093470E+00
         21   -1    0    0  501  502  0.00000000000E+00  0.00000000000E+00  0.19430909617E+01  0.19430909617E+01  0.00000000000E+00 0. -1.
         13   -1    0    0    0    0 -0.00000000000E+00 -0.00000000000E+00 -0.10000000000E+04  0.10000000000E+04  0.00000000000E+00 0.  1.
    9000005    2    1    2  501    0  0.31985713596E+02 -0.30143073183E+02 -0.47329176108E+03  0.47534063061E+03  0.34544563511E+01 0.  0.
         13    1    3    3    0    0  0.20549526675E+02 -0.17755759197E+02 -0.30481057895E+03  0.30601803717E+03  0.00000000000E+00 0.  1.
          3    1    3    3  501    0  0.11436186921E+02 -0.12387313987E+02 -0.16848118213E+03  0.16932259344E+03  0.00000000000E+00 0.  1.
         -1    1    1    2    0  502 -0.31985713596E+02  0.30143073183E+02 -0.52476514796E+03  0.52660246035E+03  0.00000000000E+00 0. -1.
<mgrwt>
<rscale>  1 0.30000000E+03</rscale>
<asrwt>0</asrwt>
<pdfrwt beam="1">  1       21 0.70658002E-02 0.30000000E+03</pdfrwt>
<pdfrwt beam="2">0</pdfrwt>
<totfact> 0.15874588E+04</totfact>
</mgrwt>
</event>
<event>
 6    1  0.1280499E-001  0.3000000E+03  0.7818608E-02  0.1093470E+00
         21   -1    0    0  501  502  0.00000000000E+00  0.00000000000E+00  0.14740829685E+01  0.14740829685E+01  0.00000000000E+00 0. -1.
         13   -1    0    0    0    0 -0.00000000000E+00 -0.00000000000E+00 -0.10000000000E+04  0.10000000000E+04  0.00000000000E+00 0.  1.
    9000005    2    1    2  501    0  0.14503374024E+02  0.33476751439E+02 -0.65305835995E+03  0.65408543356E+03  0.33900065322E+01 0.  0.
         13    1    3    3    0    0  0.13575140588E+02  0.31051562301E+02 -0.58861282416E+03  0.58958760225E+03  0.00000000000E+00 0.  1.
          3    1    3    3  501    0  0.92823343504E+00  0.24251891379E+01 -0.64445535792E+02  0.64497831306E+02  0.00000000000E+00 0.  1.
         -1    1    1    2    0  502 -0.14503374024E+02 -0.33476751439E+02 -0.34546755708E+03  0.34738864941E+03  0.00000000000E+00 0. -1.
<mgrwt>
<rscale>  1 0.30000000E+03</rscale>
<asrwt>0</asrwt>
<pdfrwt beam="1">  1       21 0.53603130E-02 0.30000000E+03</pdfrwt>
<pdfrwt beam="2">0</pdfrwt>
<totfact> 0.25576864E+04</totfact>
</mgrwt>
</event>
<event>
 6    1  0.1280499E-001  0.3000000E+03  0.7818608E-02  0.1093470E+00
         21   -1    0    0  501  502  0.00000000000E+00  0.00000000000E+00  0.10551306486E+01  0.10551306486E+01  0.00000000000E+00 0. -1.
         13   -1    0    0    0    0 -0.00000000000E+00 -0.00000000000E+00 -0.10000000000E+04  0.10000000000E+04  0.00000000000E+00 0.  1.
    9000005    2    1    2  501    0  0.31948921040E+02 -0.53816145825E+01 -0.49409907559E+03  0.49517078536E+03  0.32426597728E+01 0.  0.
         13    1    3    3    0    0  0.28675235469E+02 -0.44930453717E+01 -0.45500158457E+03  0.45592641791E+03  0.00000000000E+00 0.  1.
          1    1    3    3  501    0  0.32736855709E+01 -0.88856921081E+00 -0.39097491017E+02  0.39244367447E+02  0.00000000000E+00 0.  1.
         -3    1    1    2    0  502 -0.31948921040E+02  0.53816145825E+01 -0.50484579376E+03  0.50588434529E+03  0.00000000000E+00 0. -1.
<mgrwt>
<rscale>  1 0.30000000E+03</rscale>
<asrwt>0</asrwt>
<pdfrwt beam="1">  1       21 0.38368468E-02 0.30000000E+03</pdfrwt>
<pdfrwt beam="2">0</pdfrwt>
<totfact> 0.45098787E+04</totfact>
</mgrwt>
</event>
<event>
 6    1  0.1280499E-001  0.3000000E+03  0.7818608E-02  0.1093470E+00
         21   -1    0    0  501  502  0.00000000000E+00  0.00000000000E+00  0.25227008201E+01  0.25227008201E+01  0.00000000000E+00 0. -1.
         13   -1    0    0    0    0 -0.00000000000E+00 -0.00000000000E+00 -0.10000000000E+04  0.10000000000E+04  0.00000000000E+00 0.  1.
    9000005    2    1    2  501    0  0.38630685312E+02 -0.10020783733E+02 -0.80273387534E+03  0.80373198905E+03  0.32695047525E+01 0.  0.
         13    1    3    3    0    0  0.47971808734E+01 -0.21707384539E+01 -0.93415259316E+02  0.93563538427E+02  0.00000000000E+00 0.  1.
          3    1    3    3  501    0  0.33833504439E+02 -0.78500452795E+01 -0.70931861602E+03  0.71016845063E+03  0.00000000000E+00 0.  1.
         -1    1    1    2    0  502 -0.38630685312E+02  0.10020783733E+02 -0.19474342384E+03  0.19879071177E+03  0.00000000000E+00 0. -1.
<mgrwt>
<rscale>  1 0.30000000E+03</rscale>
<asrwt>0</asrwt>
<pdfrwt beam="1">  1       21 0.91734769E-02 0.30000000E+03</pdfrwt>
<pdfrwt beam="2">0</pdfrwt>
<totfact> 0.10032627E+04</totfact>
</mgrwt>
</event>
<event>
 6    1  0.1280499E-001  0.3000000E+03  0.7818608E-02  0.1093470E+00
         21   -1    0    0  501  502  0.00000000000E+00  0.00000000000E+00  0.22985584283E+01  0.22985584283E+01  0.00000000000E+00 0. -1.
         13   -1    0    0    0    0 -0.00000000000E+00 -0.00000000000E+00 -0.10000000000E+04  0.10000000000E+04  0.00000000000E+00 0.  1.
    9000005    2    1    2  501    0  0.17968812924E+02  0.28018017669E+02 -0.85918421227E+03  0.85983835218E+03  0.40735373780E+01 0.  0.
         13    1    3    3    0    0  0.13659803474E+02  0.23417679083E+02 -0.66675411629E+03  0.66730504982E+03  0.00000000000E+00 0.  1.
          1    1    3    3  501    0  0.43090094494E+01  0.46003385867E+01 -0.19243009599E+03  0.19253330236E+03  0.00000000000E+00 0.  1.
         -1    1    1    2    0  502 -0.17968812924E+02 -0.28018017669E+02 -0.13851722930E+03  0.14246020625E+03  0.00000000000E+00 0. -1.
<mgrwt>
<rscale>  1 0.30000000E+03</rscale>
<asrwt>0</asrwt>
<pdfrwt beam="1">  1       21 0.83584119E-02 0.30000000E+03</pdfrwt>
<pdfrwt beam="2">0</pdfrwt>
<totfact> 0.11826220E+04</totfact>
</mgrwt>
</event>
<event>
 6    1  0.1280499E-001  0.3000000E+03  0.7818608E-02  0.1093470E+00
         21   -1    0    0  501  502  0.00000000000E+00  0.00000000000E+00  0.17720635998E+01  0.17720635998E+01  0.00000000000E+00 0. -1.
         13   -1    0    0    0    0 -0.00000000000E+00 -0.00000000000E+00 -0.10000000000E+04  0.10000000000E+04  0.00000000000E+00 0.  1.
    9000005    2    1    2  501    0  0.35844550161E+02  0.19889071473E+02 -0.60957835719E+03  0.61096661026E+03  0.37441096748E+01 0.  0.
         13    1    3    3    0    0  0.16657798863E+02  0.10502169556E+02 -0.27003040456E+03  0.27074747868E+03  0.00000000000E+00 0.  1.
          3    1    3    3  501    0  0.19186751298E+02  0.93869019165E+01 -0.33954795263E+03  0.34021913157E+03  0.00000000000E+00 0.  1.
         -1    1    1    2    0  502 -0.35844550161E+02 -0.19889071473E+02 -0.38864957921E+03  0.39080545334E+03  0.00000000000E+00 0. -1.
<mgrwt>
<rscale>  1 0.30000000E+03</rscale>
<asrwt>0</asrwt>
<pdfrwt beam="1">  1       21 0.64438812E-02 0.30000000E+03</pdfrwt>
<pdfrwt beam="2">0</pdfrwt>
<totfact> 0.18627545E+04</totfact>
</mgrwt>
</event>
<event>
 6    1  0.1280499E-001  0.3000000E+03  0.7818608E-02  0.1093470E+00
         21   -1    0    0  501  502  0.00000000000E+00  0.00000000000E+00  0.13463674186E+01  0.13463674186E+01  0.00000000000E+00 0. -1.
         13   -1    0    0    0    0 -0.00000000000E+00 -0.00000000000E+00 -0.10000000000E+04  0.10000000000E+04  0.00000000000E+00 0.  1.
    9000005    2    1    2  501    0  0.56876014644E+01  0.31322934658E+02 -0.25676177878E+03  0.25877179353E+03  0.47702242580E+01 0.  0.
         13    1    3    3    0    0  0.16891877973E+01  0.21322163256E+01 -0.23250451619E+02  0.23409041039E+02  0.00000000000E+00 0.  1.
          3    1    3    3  501    0  0.39984136670E+01  0.29190718332E+02 -0.23351132716E+03  0.23536275249E+03  0.00000000000E+00 0.  1.
         -3    1    1    2    0  502 -0.56876014644E+01 -0.31322934658E+02 -0.74189185380E+03  0.74257457389E+03  0.00000000000E+00 0. -1.
<mgrwt>
<rscale>  1 0.30000000E+03</rscale>
<asrwt>0</asrwt>
<pdfrwt beam="1">  1       21 0.48958918E-02 0.30000000E+03</pdfrwt>
<pdfrwt beam="2">0</pdfrwt>
<totfact> 0.29856091E+04</totfact>
</mgrwt>
</event>
<event>
 6    1  0.1280499E-001  0.3000000E+03  0.7818608E-02  0.1093470E+00
         21   -1    0    0  501  502  0.00000000000E+00  0.00000000000E+00  0.13193400981E+01  0.13193400981E+01  0.00000000000E+00 0. -1.
         13   -1    0    0    0    0 -0.00000000000E+00 -0.00000000000E+00 -0.10000000000E+04  0.10000000000E+04  0.00000000000E+00 0.  1.
    9000005    2    1    2  501    0 -0.34628715744E+02  0.34023958088E+00 -0.64608479246E+03  0.64702693339E+03  0.43623114605E+01 0.  0.
         13    1    3    3    0    0 -0.29013453059E+02 -0.81065508859E+00 -0.55982229057E+03  0.56057420083E+03  0.00000000000E+00 0.  1.
          3    1    3    3  501    0 -0.56152626848E+01  0.11508946695E+01 -0.86262501889E+02  0.86452732552E+02  0.00000000000E+00 0.  1.
         -3    1    1    2    0  502  0.34628715744E+02 -0.34023958088E+00 -0.35259586744E+03  0.35429240671E+03  0.00000000000E+00 0. -1.
<mgrwt>
<rscale>  1 0.30000000E+03</rscale>
<asrwt>0</asrwt>
<pdfrwt beam="1">  1       21 0.47976105E-02 0.30000000E+03</pdfrwt>
<pdfrwt beam="2">0</pdfrwt>
<totfact> 0.30904716E+04</totfact>
</mgrwt>
</event>
<event>
 6    1  0.1280499E-001  0.3000000E+03  0.7818608E-02  0.1093470E+00
         21   -1    0    0  501  502  0.00000000000E+00  0.00000000000E+00  0.15115418264E+01  0.15115418264E+01  0.00000000000E+00 0. -1.
         13   -1    0    0    0    0 -0.00000000000E+00 -0.00000000000E+00 -0.10000000000E+04  0.10000000000E+04  0.00000000000E+00 0.  1.
    9000005    2    1    2  501    0 -0.45004504250E+01 -0.34561818953E+02 -0.71988981073E+03  0.72074120909E+03  0.34318384159E+01 0.  0.
         13    1    3    3    0    0 -0.43081945412E+01 -0.21768730985E+02 -0.47229852760E+03  0.47281956110E+03  0.00000000000E+00 0.  1.
          1    1    3    3  501    0 -0.19225588383E+00 -0.12793087968E+02 -0.24759128313E+03  0.24792164799E+03  0.00000000000E+00 0.  1.
         -3    1    1    2    0  502  0.45004504250E+01  0.34561818953E+02 -0.27859864745E+03  0.28077033273E+03  0.00000000000E+00 0. -1.
<mgrwt>
<rscale>  1 0.30000000E+03</rscale>
<asrwt>0</asrwt>
<pdfrwt beam="1">  1       21 0.54965273E-02 0.30000000E+03</pdfrwt>
<pdfrwt beam="2">0</pdfrwt>
<totfact> 0.24500668E+04</totfact>
</mgrwt>
</event>
<event>
 6    1  0.1280499E-001  0.3000000E+03  0.7818608E-02  0.1093470E+00
         21   -1    0    0  501  502  0.00000000000E+00  0.00000000000E+00  0.10495973257E+01  0.10495973257E+01  0.00000000000E+00 0. -1.
         13   -1    0    0    0    0 -0.00000000000E+00 -0.00000000000E+00 -0.10000000000E+04  0.10000000000E+04  0.00000000000E+00 0.  1.
    9000005    2    1    2  501    0 -0.66117614293E+01 -0.30042652764E+02 -0.65331538432E+03  0.65404838366E+03  0.34670450967E+01 0.  0.
         13    1    3    3    0    0 -0.42065958680E+01 -0.22899746576E+02 -0.46566864873E+03  0.46625034504E+03  0.00000000000E+00 0.  1.
          3    1    3    3  501    0 -0.24051655613E+01 -0.71429061878E+01 -0.18764673559E+03  0.18779803862E+03  0.00000000000E+00 0.  1.
         -1    1    1    2    0  502  0.66117614293E+01  0.30042652764E+02 -0.34563501836E+03  0.34700121367E+03  0.00000000000E+00 0. -1.
<mgrwt>
<rscale>  1 0.30000000E+03</rscale>
<asrwt>0</asrwt>
<pdfrwt beam="1">  1       21 0.38167256E-02 0.30000000E+03</pdfrwt>
<pdfrwt beam="2">0</pdfrwt>
<totfact> 0.45499078E+04</totfact>
</mgrwt>
</event>
<event>
 6    1  0.1280499E-001  0.3000000E+03  0.7818608E-02  0.1093470E+00
         21   -1    0    0  501  502  0.00000000000E+00  0.00000000000E+00  0.55415015862E+01  0.55415015862E+01  0.00000000000E+00 0. -1.
         13   -1    0    0    0    0 -0.00000000000E+00 -0.00000000000E+00 -0.10000000000E+04  0.10000000000E+04  0.00000000000E+00 0.  1.
    9000005    2    1    2  501    0 -0.45005974877E+02  0.16106474310E+01 -0.89749597976E+03  0.89863096898E+03  0.32330717373E+01 0.  0.
         13    1    3    3    0    0 -0.19386121833E+02 -0.58074462984E+00 -0.40529888909E+03  0.40576267507E+03  0.00000000000E+00 0.  1.
          3    1    3    3  501    0 -0.25619853045E+02  0.21913920608E+01 -0.49219709068E+03  0.49286829391E+03  0.00000000000E+00 0.  1.
         -1    1    1    2    0  502  0.45005974877E+02 -0.16106474310E+01 -0.96962518651E+02  0.10691053261E+03  0.00000000000E+00 0. -1.
<mgrwt>
<rscale>  1 0.30000000E+03</rscale>
<asrwt>0</asrwt>
<pdfrwt beam="1">  1       21 0.20150957E-01 0.30000000E+03</pdfrwt>
<pdfrwt beam="2">0</pdfrwt>
<totfact> 0.23650133E+03</totfact>
</mgrwt>
</event>
<event>
 6    1  0.1280499E-001  0.3000000E+03  0.7818608E-02  0.1093470E+00
         21   -1    0    0  501  502  0.00000000000E+00  0.00000000000E+00  0.27895253500E+01  0.27895253500E+01  0.00000000000E+00 0. -1.
         13   -1    0    0    0    0 -0.00000000000E+00 -0.00000000000E+00 -0.10000000000E+04  0.10000000000E+04  0.00000000000E+00 0.  1.
    9000005    2    1    2  501    0 -0.15025052297E+02 -0.38590364141E+02 -0.80745731319E+03  0.80856998286E+03  0.91179030959E+01 0.  0.
         13    1    3    3    0    0 -0.52347494718E+01 -0.45527204657E+01 -0.14725180933E+03  0.14741514582E+03  0.00000000000E+00 0.  1.
          1    1    3    3  501    0 -0.97903028251E+01 -0.34037643675E+02 -0.66020550386E+03  0.66115483704E+03  0.00000000000E+00 0.  1.
         -1    1    1    2    0  502  0.15025052297E+02  0.38590364141E+02 -0.18975316146E+03  0.19421954249E+03  0.00000000000E+00 0. -1.
<mgrwt>
<rscale>  1 0.30000000E+03</rscale>
<asrwt>0</asrwt>
<pdfrwt beam="1">  1       21 0.10143750E-01 0.30000000E+03</pdfrwt>
<pdfrwt beam="2">0</pdfrwt>
<totfact> 0.83864728E+03</totfact>
</mgrwt>
</event>
<event>
 6    1  0.1280499E-001  0.3000000E+03  0.7818608E-02  0.1093470E+00
         21   -1    0    0  501  502  0.00000000000E+00  0.00000000000E+00  0.39870194528E+01  0.39870194528E+01  0.00000000000E+00 0. -1.
         13   -1    0    0    0    0 -0.00000000000E+00 -0.00000000000E+00 -0.10000000000E+04  0.10000000000E+04  0.00000000000E+00 0.  1.
    9000005    2    1    2  501    0 -0.41422935646E+02 -0.53101646573E+01 -0.87436489544E+03  0.87537009188E+03  0.38431688271E+01 0.  0.
         13    1    3    3    0    0 -0.17336245692E+02 -0.10965458710E+01 -0.33163557919E+03  0.33209020644E+03  0.00000000000E+00 0.  1.
          3    1    3    3  501    0 -0.24086689954E+02 -0.42136187863E+01 -0.54272931625E+03  0.54327988545E+03  0.00000000000E+00 0.  1.
         -1    1    1    2    0  502  0.41422935646E+02  0.53101646573E+01 -0.12164808511E+03  0.12861692757E+03  0.00000000000E+00 0. -1.
<mgrwt>
<rscale>  1 0.30000000E+03</rscale>
<asrwt>0</asrwt>
<pdfrwt beam="1">  1       21 0.14498283E-01 0.30000000E+03</pdfrwt>
<pdfrwt beam="2">0</pdfrwt>
<totfact> 0.43851345E+03</totfact>
</mgrwt>
</event>
<event>
 6    1  0.1280499E-001  0.3000000E+03  0.7818608E-02  0.1093470E+00
         21   -1    0    0  501  502  0.00000000000E+00  0.00000000000E+00  0.18591695450E+01  0.18591695450E+01  0.00000000000E+00 0. -1.
         13   -1    0    0    0    0 -0.00000000000E+00 -0.00000000000E+00 -0.10000000000E+04  0.10000000000E+04  0.00000000000E+00 0.  1.
    9000005    2    1    2  501    0  0.15640605819E+02 -0.33932274902E+02 -0.74842247705E+03  0.74936108270E+03  0.31305413971E+01 0.  0.
         13    1    3    3    0    0  0.14676296273E+02 -0.29428600082E+02 -0.65310339222E+03  0.65393078924E+03  0.00000000000E+00 0.  1.
          3    1    3    3  501    0  0.96430954645E+00 -0.45036748192E+01 -0.95319084824E+02  0.95430293469E+02  0.00000000000E+00 0.  1.
         -1    1    1    2    0  502 -0.15640605819E+02  0.33932274902E+02 -0.24971835341E+03  0.25249808684E+03  0.00000000000E+00 0. -1.
<mgrwt>
<rscale>  1 0.30000000E+03</rscale>
<asrwt>0</asrwt>
<pdfrwt beam="1">  1       21 0.67606308E-02 0.30000000E+03</pdfrwt>
<pdfrwt beam="2">0</pdfrwt>
<totfact> 0.17141122E+04</totfact>
</mgrwt>
</event>
<event>
 6    1  0.1280499E-001  0.3000000E+03  0.7818608E-02  0.1093470E+00
         21   -1    0    0  501  502  0.00000000000E+00  0.00000000000E+00  0.15025915946E+01  0.15025915946E+01  0.00000000000E+00 0. -1.
         13   -1    0    0    0    0 -0.00000000000E+00 -0.00000000000E+00 -0.10000000000E+04  0.10000000000E+04  0.00000000000E+00 0.  1.
    9000005    2    1    2  501    0  0.32076270906E+02  0.14542769031E+02 -0.70674161355E+03  0.70762876983E+03  0.37931889851E+01 0.  0.
         13    1    3    3    0    0  0.10161467032E+02  0.48036242895E+01 -0.26215439026E+03  0.26239522585E+03  0.00000000000E+00 0.  1.
          1    1    3    3  501    0  0.21914803874E+02  0.97391447415E+01 -0.44458722329E+03  0.44523354398E+03  0.00000000000E+00 0.  1.
         -3    1    1    2    0  502 -0.32076270906E+02 -0.14542769031E+02 -0.29175579486E+03  0.29387382177E+03  0.00000000000E+00 0. -1.
<mgrwt>
<rscale>  1 0.30000000E+03</rscale>
<asrwt>0</asrwt>
<pdfrwt beam="1">  1       21 0.54639810E-02 0.30000000E+03</pdfrwt>
<pdfrwt beam="2">0</pdfrwt>
<totfact> 0.24751372E+04</totfact>
</mgrwt>
</event>
<event>
 6    1  0.1280499E-001  0.3000000E+03  0.7818608E-02  0.1093470E+00
         21   -1    0    0  501  502  0.00000000000E+00  0.00000000000E+00  0.25049690941E+01  0.25049690941E+01  0.00000000000E+00 0. -1.
         13   -1    0    0    0    0 -0.00000000000E+00 -0.00000000000E+00 -0.10000000000E+04  0.10000000000E+04  0.00000000000E+00 0.  1.
    9000005    2    1    2  501    0  0.29415848437E+02  0.37893764950E+02 -0.63988683554E+03  0.64169359046E+03  0.37778531616E+01 0.  0.
         13    1    3    3    0    0  0.12901390357E+02  0.16956108183E+02 -0.30929194390E+03  0.31002493777E+03  0.00000000000E+00 0.  1.
          1    1    3    3  501    0  0.16514458080E+02  0.20937656766E+02 -0.33059489164E+03  0.33166865268E+03  0.00000000000E+00 0.  1.
         -1    1    1    2    0  502 -0.29415848437E+02 -0.37893764950E+02 -0.35760819537E+03  0.36081137864E+03  0.00000000000E+00 0. -1.
<mgrwt>
<rscale>  1 0.30000000E+03</rscale>
<asrwt>0</asrwt>
<pdfrwt beam="1">  1       21 0.91089977E-02 0.30000000E+03</pdfrwt>
<pdfrwt beam="2">0</pdfrwt>
<totfact> 0.10158974E+04</totfact>
</mgrwt>
</event>
<event>
 6    1  0.1280499E-001  0.3000000E+03  0.7818608E-02  0.1093470E+00
         21   -1    0    0  501  502  0.00000000000E+00  0.00000000000E+00  0.65054001309E+01  0.65054001309E+01  0.00000000000E+00 0. -1.
         13   -1    0    0    0    0 -0.00000000000E+00 -0.00000000000E+00 -0.10000000000E+04  0.10000000000E+04  0.00000000000E+00 0.  1.
    9000005    2    1    2  501    0  0.69105964921E+02  0.68153385889E+01 -0.75246658441E+03  0.75567360895E+03  0.38156771258E+01 0.  0.
         13    1    3    3    0    0  0.59665158893E+02  0.71655699556E+01 -0.64717017508E+03  0.64995423846E+03  0.00000000000E+00 0.  1.
          3    1    3    3  501    0  0.94408060275E+01 -0.35023136666E+00 -0.10529640932E+03  0.10571937049E+03  0.00000000000E+00 0.  1.
         -1    1    1    2    0  502 -0.69105964921E+02 -0.68153385889E+01 -0.24102801546E+03  0.25083179118E+03  0.00000000000E+00 0. -1.
<mgrwt>
<rscale>  1 0.30000000E+03</rscale>
<asrwt>0</asrwt>
<pdfrwt beam="1">  1       21 0.23656050E-01 0.30000000E+03</pdfrwt>
<pdfrwt beam="2">0</pdfrwt>
<totfact> 0.17369622E+03</totfact>
</mgrwt>
</event>
<event>
 6    1  0.1280499E-001  0.3000000E+03  0.7818608E-02  0.1093470E+00
         21   -1    0    0  501  502  0.00000000000E+00  0.00000000000E+00  0.39107211319E+01  0.39107211319E+01  0.00000000000E+00 0. -1.
         13   -1    0    0    0    0 -0.00000000000E+00 -0.00000000000E+00 -0.10000000000E+04  0.10000000000E+04  0.00000000000E+00 0.  1.
    9000005    2    1    2  501    0  0.10751367661E+02  0.55350612650E+02 -0.71426203212E+03  0.71649833581E+03  0.45091531319E+01 0.  0.
         13    1    3    3    0    0  0.74410466953E+01  0.29978366184E+02 -0.41063505462E+03  0.41179511860E+03  0.00000000000E+00 0.  1.
          3    1    3    3  501    0  0.33103209659E+01  0.25372246465E+02 -0.30362697749E+03  0.30470321721E+03  0.00000000000E+00 0.  1.
         -3    1    1    2    0  502 -0.10751367661E+02 -0.55350612650E+02 -0.28182724675E+03  0.28741238533E+03  0.00000000000E+00 0. -1.
<mgrwt>
<rscale>  1 0.30000000E+03</rscale>
<asrwt>0</asrwt>
<pdfrwt beam="1">  1       21 0.14220834E-01 0.30000000E+03</pdfrwt>
<pdfrwt beam="2">0</pdfrwt>
<totfact> 0.45440126E+03</totfact>
</mgrwt>
</event>
<event>
 6    1  0.1280499E-001  0.3000000E+03  0.7818608E-02  0.1093470E+00
         21   -1    0    0  501  502  0.00000000000E+00  0.00000000000E+00  0.12923590668E+01  0.12923590668E+01  0.00000000000E+00 0. -1.
         13   -1    0    0    0    0 -0.00000000000E+00 -0.00000000000E+00 -0.10000000000E+04  0.10000000000E+04  0.00000000000E+00 0.  1.
    9000005    2    1    2  501    0  0.17233193898E+02  0.29695976098E+02 -0.35517946344E+03  0.35684891764E+03  0.31408285671E+01 0.  0.
         13    1    3    3    0    0  0.10916512254E+02  0.21644596278E+02 -0.24785441486E+03  0.24903708510E+03  0.00000000000E+00 0.  1.
          1    1    3    3  501    0  0.63166816447E+01  0.80513798202E+01 -0.10732504858E+03  0.10781183254E+03  0.00000000000E+00 0.  1.
         -1    1    1    2    0  502 -0.17233193898E+02 -0.29695976098E+02 -0.64352817750E+03  0.64444344143E+03  0.00000000000E+00 0. -1.
<mgrwt>
<rscale>  1 0.30000000E+03</rscale>
<asrwt>0</asrwt>
<pdfrwt beam="1">  1       21 0.46994974E-02 0.30000000E+03</pdfrwt>
<pdfrwt beam="2">0</pdfrwt>
<totfact> 0.32010152E+04</totfact>
</mgrwt>
</event>
<event>
 6    1  0.1280499E-001  0.3000000E+03  0.7818608E-02  0.1093470E+00
         21   -1    0    0  501  502  0.00000000000E+00  0.00000000000E+00  0.56317910027E+01  0.56317910027E+01  0.00000000000E+00 0. -1.
         13   -1    0    0    0    0 -0.00000000000E+00 -0.00000000000E+00 -0.10000000000E+04  0.10000000000E+04  0.00000000000E+00 0.  1.
    9000005    2    1    2  501    0 -0.26923423720E+02  0.36884264808E+02 -0.10292514350E+03  0.11301986034E+03  0.97254270768E+01 0.  0.
         13    1    3    3    0    0 -0.11712349727E+02  0.86612129417E+01 -0.34890170866E+02  0.37808990582E+02  0.00000000000E+00 0.  1.
          1    1    3    3  501    0 -0.15211073993E+02  0.28223051866E+02 -0.68034972629E+02  0.75210869755E+02  0.00000000000E+00 0.  1.
         -3    1    1    2    0  502  0.26923423720E+02 -0.36884264808E+02 -0.89144306550E+03  0.89261193067E+03  0.00000000000E+00 0. -1.
<mgrwt>
<rscale>  1 0.30000000E+03</rscale>
<asrwt>0</asrwt>
<pdfrwt beam="1">  1       21 0.20479283E-01 0.30000000E+03</pdfrwt>
<pdfrwt beam="2">0</pdfrwt>
<totfact> 0.22930621E+03</totfact>
</mgrwt>
</event>
<event>
 6    1  0.1280499E-001  0.3000000E+03  0.7818608E-02  0.1093470E+00
         21   -1    0    0  501  502  0.00000000000E+00  0.00000000000E+00  0.10240610207E+01  0.10240610207E+01  0.00000000000E+00 0. -1.
         13   -1    0    0    0    0 -0.00000000000E+00 -0.00000000000E+00 -0.10000000000E+04  0.10000000000E+04  0.00000000000E+00 0.  1.
    9000005    2    1    2  501    0 -0.27615344034E+02  0.15799813067E+02 -0.46729238694E+03  0.46838943876E+03  0.37749348373E+01 0.  0.
         13    1    3    3    0    0 -0.10037878924E+02  0.36961094520E+01 -0.15724588295E+03  0.15760928889E+03  0.00000000000E+00 0.  1.
          1    1    3    3  501    0 -0.17577465111E+02  0.12103703615E+02 -0.31004650398E+03  0.31078014987E+03  0.00000000000E+00 0.  1.
         -1    1    1    2    0  502  0.27615344034E+02 -0.15799813067E+02 -0.53168355204E+03  0.53263462226E+03  0.00000000000E+00 0. -1.
<mgrwt>
<rscale>  1 0.30000000E+03</rscale>
<asrwt>0</asrwt>
<pdfrwt beam="1">  1       21 0.37238661E-02 0.30000000E+03</pdfrwt>
<pdfrwt beam="2">0</pdfrwt>
<totfact> 0.47420852E+04</totfact>
</mgrwt>
</event>
<event>
 6    1  0.1280499E-001  0.3000000E+03  0.7818608E-02  0.1093470E+00
         21   -1    0    0  501  502  0.00000000000E+00  0.00000000000E+00  0.25257256782E+01  0.25257256782E+01  0.00000000000E+00 0. -1.
         13   -1    0    0    0    0 -0.00000000000E+00 -0.00000000000E+00 -0.10000000000E+04  0.10000000000E+04  0.00000000000E+00 0.  1.
    9000005    2    1    2  501    0  0.17949612794E+02 -0.35641683437E+02 -0.80305679913E+03  0.80405488939E+03  0.33947492559E+01 0.  0.
         13    1    3    3    0    0  0.11148312416E+02 -0.24776373276E+02 -0.52411840022E+03  0.52482211366E+03  0.00000000000E+00 0.  1.
          1    1    3    3  501    0  0.68013003774E+01 -0.10865310162E+02 -0.27893839891E+03  0.27923277573E+03  0.00000000000E+00 0.  1.
         -1    1    1    2    0  502 -0.17949612794E+02  0.35641683437E+02 -0.19441747519E+03  0.19847083629E+03  0.00000000000E+00 0. -1.
<mgrwt>
<rscale>  1 0.30000000E+03</rscale>
<asrwt>0</asrwt>
<pdfrwt beam="1">  1       21 0.91844764E-02 0.30000000E+03</pdfrwt>
<pdfrwt beam="2">0</pdfrwt>
<totfact> 0.10011310E+04</totfact>
</mgrwt>
</event>
<event>
 6    1  0.1280499E-001  0.3000000E+03  0.7818608E-02  0.1093470E+00
         21   -1    0    0  501  502  0.00000000000E+00  0.00000000000E+00  0.24025062132E+01  0.24025062132E+01  0.00000000000E+00 0. -1.
         13   -1    0    0    0    0 -0.00000000000E+00 -0.00000000000E+00 -0.10000000000E+04  0.10000000000E+04  0.00000000000E+00 0.  1.
    9000005    2    1    2  501    0  0.19383111190E+02  0.24672666507E+02 -0.88376285667E+03  0.88432299876E+03  0.24359478356E+01 0.  0.
         13    1    3    3    0    0  0.99441062458E+01  0.10707708286E+02 -0.41479566991E+03  0.41505299425E+03  0.00000000000E+00 0.  1.
          3    1    3    3  501    0  0.94390049439E+01  0.13964958220E+02 -0.46896718676E+03  0.46927000451E+03  0.00000000000E+00 0.  1.
         -1    1    1    2    0  502 -0.19383111190E+02 -0.24672666507E+02 -0.11383463712E+03  0.11807950745E+03  0.00000000000E+00 0. -1.
<mgrwt>
<rscale>  1 0.30000000E+03</rscale>
<asrwt>0</asrwt>
<pdfrwt beam="1">  1       21 0.87364047E-02 0.30000000E+03</pdfrwt>
<pdfrwt beam="2">0</pdfrwt>
<totfact> 0.10938537E+04</totfact>
</mgrwt>
</event>
<event>
 6    1  0.1280499E-001  0.3000000E+03  0.7818608E-02  0.1093470E+00
         21   -1    0    0  501  502  0.00000000000E+00  0.00000000000E+00  0.17558731295E+01  0.17558731295E+01  0.00000000000E+00 0. -1.
         13   -1    0    0    0    0 -0.00000000000E+00 -0.00000000000E+00 -0.10000000000E+04  0.10000000000E+04  0.00000000000E+00 0.  1.
    9000005    2    1    2  501    0  0.25666042381E+02 -0.17814000721E+02 -0.83234614444E+03  0.83294170036E+03  0.39607678459E+01 0.  0.
         13    1    3    3    0    0  0.24902711561E+02 -0.17722789046E+02 -0.82145698527E+03  0.82202543814E+03  0.00000000000E+00 0.  1.
          1    1    3    3  501    0  0.76333082022E+00 -0.91211675039E-01 -0.10889159168E+02  0.10916262222E+02  0.00000000000E+00 0.  1.
         -1    1    1    2    0  502 -0.25666042381E+02  0.17814000721E+02 -0.16589798243E+03  0.16881417277E+03  0.00000000000E+00 0. -1.
<mgrwt>
<rscale>  1 0.30000000E+03</rscale>
<asrwt>0</asrwt>
<pdfrwt beam="1">  1       21 0.63850067E-02 0.30000000E+03</pdfrwt>
<pdfrwt beam="2">0</pdfrwt>
<totfact> 0.18925704E+04</totfact>
</mgrwt>
</event>
<event>
 6    1  0.1280499E-001  0.3000000E+03  0.7818608E-02  0.1093470E+00
         21   -1    0    0  501  502  0.00000000000E+00  0.00000000000E+00  0.10884984696E+01  0.10884984696E+01  0.00000000000E+00 0. -1.
         13   -1    0    0    0    0 -0.00000000000E+00 -0.00000000000E+00 -0.10000000000E+04  0.10000000000E+04  0.00000000000E+00 0.  1.
    9000005    2    1    2  501    0  0.61524943078E+01 -0.30627258074E+02 -0.65728643106E+03  0.65803810728E+03  0.35799511245E+01 0.  0.
         13    1    3    3    0    0  0.61421049889E+01 -0.26998208017E+02 -0.56011382187E+03  0.56079775511E+03  0.00000000000E+00 0.  1.
          3    1    3    3  501    0  0.10389318892E-01 -0.36290500577E+01 -0.97172609189E+02  0.97240352164E+02  0.00000000000E+00 0.  1.
         -3    1    1    2    0  502 -0.61524943078E+01  0.30627258074E+02 -0.34162507047E+03  0.34305039119E+03  0.00000000000E+00 0. -1.
<mgrwt>
<rscale>  1 0.30000000E+03</rscale>
<asrwt>0</asrwt>
<pdfrwt beam="1">  1       21 0.39581846E-02 0.30000000E+03</pdfrwt>
<pdfrwt beam="2">0</pdfrwt>
<totfact> 0.42797872E+04</totfact>
</mgrwt>
</event>
<event>
 6    1  0.1280499E-001  0.3000000E+03  0.7818608E-02  0.1093470E+00
         21   -1    0    0  501  502  0.00000000000E+00  0.00000000000E+00  0.52645210495E+01  0.52645210495E+01  0.00000000000E+00 0. -1.
         13   -1    0    0    0    0 -0.00000000000E+00 -0.00000000000E+00 -0.10000000000E+04  0.10000000000E+04  0.00000000000E+00 0.  1.
    9000005    2    1    2  501    0 -0.33099407654E+02  0.12165544244E+02 -0.93659560447E+03  0.93726587210E+03  0.35238395057E+01 0.  0.
         13    1    3    3    0    0 -0.12019298415E+02  0.54383858427E+01 -0.31333750521E+03  0.31361510127E+03  0.00000000000E+00 0.  1.
          3    1    3    3  501    0 -0.21080109239E+02  0.67271584015E+01 -0.62325809926E+03  0.62365077083E+03  0.00000000000E+00 0.  1.
         -3    1    1    2    0  502  0.33099407654E+02 -0.12165544244E+02 -0.58139874482E+02  0.67998648947E+02  0.00000000000E+00 0. -1.
<mgrwt>
<rscale>  1 0.30000000E+03</rscale>
<asrwt>0</asrwt>
<pdfrwt beam="1">  1       21 0.19143753E-01 0.30000000E+03</pdfrwt>
<pdfrwt beam="2">0</pdfrwt>
<totfact> 0.26075501E+03</totfact>
</mgrwt>
</event>
<event>
 6    1  0.1280499E-001  0.3000000E+03  0.7818608E-02  0.1093470E+00
         21   -1    0    0  501  502  0.00000000000E+00  0.00000000000E+00  0.36700943640E+01  0.36700943640E+01  0.00000000000E+00 0. -1.
         13   -1    0    0    0    0 -0.00000000000E+00 -0.00000000000E+00 -0.10000000000E+04  0.10000000000E+04  0.00000000000E+00 0.  1.
    9000005    2    1    2  501    0 -0.36943971062E+02 -0.45628256835E+01 -0.10317470587E+03  0.10973951136E+03  0.34733333073E+01 0.  0.
         13    1    3    3    0    0 -0.36259647578E+02 -0.49409373911E+01 -0.10135110197E+03  0.10775537470E+03  0.00000000000E+00 0.  1.
          3    1    3    3  501    0 -0.68432348413E+00  0.37811170751E+00 -0.18236039012E+01  0.19841366593E+01  0.00000000000E+00 0.  1.
         -3    1    1    2    0  502  0.36943971062E+02  0.45628256835E+01 -0.89315519976E+03  0.89393058301E+03  0.00000000000E+00 0. -1.
<mgrwt>
<rscale>  1 0.30000000E+03</rscale>
<asrwt>0</asrwt>
<pdfrwt beam="1">  1       21 0.13345826E-01 0.30000000E+03</pdfrwt>
<pdfrwt beam="2">0</pdfrwt>
<totfact> 0.51055312E+03</totfact>
</mgrwt>
</event>
<event>
 6    1  0.1280499E-001  0.3000000E+03  0.7818608E-02  0.1093470E+00
         21   -1    0    0  501  502  0.00000000000E+00  0.00000000000E+00  0.26472305785E+01  0.26472305785E+01  0.00000000000E+00 0. -1.
         13   -1    0    0    0    0 -0.00000000000E+00 -0.00000000000E+00 -0.10000000000E+04  0.10000000000E+04  0.00000000000E+00 0.  1.
    9000005    2    1    2  501    0 -0.27037545380E+02  0.33252948492E+02 -0.77556541720E+03  0.77675695401E+03  0.35863351705E+01 0.  0.
         13    1    3    3    0    0 -0.32712775087E+01  0.41718875279E+01 -0.11930570014E+03  0.11942343149E+03  0.00000000000E+00 0.  1.
          3    1    3    3  501    0 -0.23766267871E+02  0.29081060964E+02 -0.65625971706E+03  0.65733352252E+03  0.00000000000E+00 0.  1.
         -3    1    1    2    0  502  0.27037545380E+02 -0.33252948492E+02 -0.22178735222E+03  0.22589027657E+03  0.00000000000E+00 0. -1.
<mgrwt>
<rscale>  1 0.30000000E+03</rscale>
<asrwt>0</asrwt>
<pdfrwt beam="1">  1       21 0.96263133E-02 0.30000000E+03</pdfrwt>
<pdfrwt beam="2">0</pdfrwt>
<totfact> 0.92083615E+03</totfact>
</mgrwt>
</event>
<event>
 6    1  0.1280499E-001  0.3000000E+03  0.7818608E-02  0.1093470E+00
         21   -1    0    0  501  502  0.00000000000E+00  0.00000000000E+00  0.10718468470E+01  0.10718468470E+01  0.00000000000E+00 0. -1.
         13   -1    0    0    0    0 -0.00000000000E+00 -0.00000000000E+00 -0.10000000000E+04  0.10000000000E+04  0.00000000000E+00 0.  1.
    9000005    2    1    2  501    0 -0.26508195688E+02  0.17974773408E+02 -0.58982448052E+03  0.59071640107E+03  0.52126532331E+01 0.  0.
         13    1    3    3    0    0 -0.20073361083E+02  0.10742594908E+02 -0.41648510337E+03  0.41710692215E+03  0.00000000000E+00 0.  1.
          3    1    3    3  501    0 -0.64348346048E+01  0.72321785004E+01 -0.17333937715E+03  0.17360947892E+03  0.00000000000E+00 0.  1.
         -3    1    1    2    0  502  0.26508195688E+02 -0.17974773408E+02 -0.40910367263E+03  0.41035544578E+03  0.00000000000E+00 0. -1.
<mgrwt>
<rscale>  1 0.30000000E+03</rscale>
<asrwt>0</asrwt>
<pdfrwt beam="1">  1       21 0.38976331E-02 0.30000000E+03</pdfrwt>
<pdfrwt beam="2">0</pdfrwt>
<totfact> 0.43922494E+04</totfact>
</mgrwt>
</event>
<event>
 6    1  0.1280499E-001  0.3000000E+03  0.7818608E-02  0.1093470E+00
         21   -1    0    0  501  502  0.00000000000E+00  0.00000000000E+00  0.10020909590E+01  0.10020909590E+01  0.00000000000E+00 0. -1.
         13   -1    0    0    0    0 -0.00000000000E+00 -0.00000000000E+00 -0.10000000000E+04  0.10000000000E+04  0.00000000000E+00 0.  1.
    9000005    2    1    2  501    0 -0.31150665678E+01 -0.31230287191E+02 -0.44410827024E+03  0.44522556598E+03  0.29350335358E+01 0.  0.
         13    1    3    3    0    0 -0.12284713934E+01 -0.17559810098E+02 -0.22952214688E+03  0.23019615979E+03  0.00000000000E+00 0.  1.
          1    1    3    3  501    0 -0.18865951744E+01 -0.13670477093E+02 -0.21458612337E+03  0.21502940619E+03  0.00000000000E+00 0.  1.
         -1    1    1    2    0  502  0.31150665678E+01  0.31230287191E+02 -0.55488963880E+03  0.55577652498E+03  0.00000000000E+00 0. -1.
<mgrwt>
<rscale>  1 0.30000000E+03</rscale>
<asrwt>0</asrwt>
<pdfrwt beam="1">  1       21 0.36439748E-02 0.30000000E+03</pdfrwt>
<pdfrwt beam="2">0</pdfrwt>
<totfact> 0.49178567E+04</totfact>
</mgrwt>
</event>
<event>
 6    1  0.1280499E-001  0.3000000E+03  0.7818608E-02  0.1093470E+00
         21   -1    0    0  501  502  0.00000000000E+00  0.00000000000E+00  0.11655118649E+01  0.11655118649E+01  0.00000000000E+00 0. -1.
         13   -1    0    0    0    0 -0.00000000000E+00 -0.00000000000E+00 -0.10000000000E+04  0.10000000000E+04  0.00000000000E+00 0.  1.
    9000005    2    1    2  501    0  0.25439509088E+02  0.16770506656E+02 -0.72350997316E+03  0.72416008401E+03  0.35675610582E+01 0.  0.
         13    1    3    3    0    0  0.22762583929E+02  0.13709169046E+02 -0.61434010165E+03  0.61491449571E+03  0.00000000000E+00 0.  1.
          3    1    3    3  501    0  0.26769251588E+01  0.30613376091E+01 -0.10916987152E+03  0.10924558830E+03  0.00000000000E+00 0.  1.
         -3    1    1    2    0  502 -0.25439509088E+02 -0.16770506656E+02 -0.27532451497E+03  0.27700542786E+03  0.00000000000E+00 0. -1.
<mgrwt>
<rscale>  1 0.30000000E+03</rscale>
<asrwt>0</asrwt>
<pdfrwt beam="1">  1       21 0.42382339E-02 0.30000000E+03</pdfrwt>
<pdfrwt beam="2">0</pdfrwt>
<totfact> 0.38138187E+04</totfact>
</mgrwt>
</event>
<event>
 6    1  0.1280499E-001  0.3000000E+03  0.7818608E-02  0.1093470E+00
         21   -1    0    0  501  502  0.00000000000E+00  0.00000000000E+00  0.23583543456E+01  0.23583543456E+01  0.00000000000E+00 0. -1.
         13   -1    0    0    0    0 -0.00000000000E+00 -0.00000000000E+00 -0.10000000000E+04  0.10000000000E+04  0.00000000000E+00 0.  1.
    9000005    2    1    2  501    0 -0.44134970555E+02 -0.36249393559E+01 -0.70362829870E+03  0.70502876618E+03  0.34267475549E+01 0.  0.
         13    1    3    3    0    0 -0.26297157008E+02 -0.11726959984E+01 -0.39589405691E+03  0.39676821947E+03  0.00000000000E+00 0.  1.
          3    1    3    3  501    0 -0.17837813548E+02 -0.24522433575E+01 -0.30773424179E+03  0.30826054671E+03  0.00000000000E+00 0.  1.
         -1    1    1    2    0  502  0.44134970555E+02  0.36249393559E+01 -0.29401334696E+03  0.29732958817E+03  0.00000000000E+00 0. -1.
<mgrwt>
<rscale>  1 0.30000000E+03</rscale>
<asrwt>0</asrwt>
<pdfrwt beam="1">  1       21 0.85758521E-02 0.30000000E+03</pdfrwt>
<pdfrwt beam="2">0</pdfrwt>
<totfact> 0.11302738E+04</totfact>
</mgrwt>
</event>
<event>
 6    1  0.1280499E-001  0.3000000E+03  0.7818608E-02  0.1093470E+00
         21   -1    0    0  501  502  0.00000000000E+00  0.00000000000E+00  0.23567057162E+01  0.23567057162E+01  0.00000000000E+00 0. -1.
         13   -1    0    0    0    0 -0.00000000000E+00 -0.00000000000E+00 -0.10000000000E+04  0.10000000000E+04  0.00000000000E+00 0.  1.
    9000005    2    1    2  501    0  0.18168001789E+02  0.43400332503E+02 -0.62067904028E+03  0.62246762461E+03  0.31316910822E+01 0.  0.
         13    1    3    3    0    0  0.56803993997E+01  0.15881201580E+02 -0.20663999909E+03  0.20732720209E+03  0.00000000000E+00 0.  1.
          1    1    3    3  501    0  0.12487602390E+02  0.27519130923E+02 -0.41403904119E+03  0.41514042252E+03  0.00000000000E+00 0.  1.
         -3    1    1    2    0  502 -0.18168001789E+02 -0.43400332503E+02 -0.37696425400E+03  0.37988908111E+03  0.00000000000E+00 0. -1.
<mgrwt>
<rscale>  1 0.30000000E+03</rscale>
<asrwt>0</asrwt>
<pdfrwt beam="1">  1       21 0.85698570E-02 0.30000000E+03</pdfrwt>
<pdfrwt beam="2">0</pdfrwt>
<totfact> 0.11316693E+04</totfact>
</mgrwt>
</event>
<event>
 6    1  0.1280499E-001  0.3000000E+03  0.7818608E-02  0.1093470E+00
         21   -1    0    0  501  502  0.00000000000E+00  0.00000000000E+00  0.17362790846E+01  0.17362790846E+01  0.00000000000E+00 0. -1.
         13   -1    0    0    0    0 -0.00000000000E+00 -0.00000000000E+00 -0.10000000000E+04  0.10000000000E+04  0.00000000000E+00 0.  1.
    9000005    2    1    2  501    0 -0.40966196680E+02  0.41337933801E+01 -0.56882209978E+03  0.57032531089E+03  0.41305594709E+01 0.  0.
         13    1    3    3    0    0 -0.20556726721E+02  0.22218355935E+01 -0.25723361563E+03  0.25806326468E+03  0.00000000000E+00 0.  1.
          1    1    3    3  501    0 -0.20409469959E+02  0.19119577866E+01 -0.31158848415E+03  0.31226204621E+03  0.00000000000E+00 0.  1.
         -3    1    1    2    0  502  0.40966196680E+02 -0.41337933801E+01 -0.42944162113E+03  0.43141096820E+03  0.00000000000E+00 0. -1.
<mgrwt>
<rscale>  1 0.30000000E+03</rscale>
<asrwt>0</asrwt>
<pdfrwt beam="1">  1       21 0.63137554E-02 0.30000000E+03</pdfrwt>
<pdfrwt beam="2">0</pdfrwt>
<totfact> 0.19296527E+04</totfact>
</mgrwt>
</event>
<event>
 6    1  0.1280499E-001  0.3000000E+03  0.7818608E-02  0.1093470E+00
         21   -1    0    0  501  502  0.00000000000E+00  0.00000000000E+00  0.16923996235E+01  0.16923996235E+01  0.00000000000E+00 0. -1.
         13   -1    0    0    0    0 -0.00000000000E+00 -0.00000000000E+00 -0.10000000000E+04  0.10000000000E+04  0.00000000000E+00 0.  1.
    9000005    2    1    2  501    0 -0.36106515735E+02 -0.10340413459E+02 -0.70215701802E+03  0.70316975047E+03  0.35518148409E+01 0.  0.
         13    1    3    3    0    0 -0.29623899305E+02 -0.70370521005E+01 -0.56926798470E+03  0.57008169056E+03  0.00000000000E+00 0.  1.
          3    1    3    3  501    0 -0.64826164303E+01 -0.33033613588E+01 -0.13288903332E+03  0.13308805990E+03  0.00000000000E+00 0.  1.
         -1    1    1    2    0  502  0.36106515735E+02  0.10340413459E+02 -0.29615058236E+03  0.29852264916E+03  0.00000000000E+00 0. -1.
<mgrwt>
<rscale>  1 0.30000000E+03</rscale>
<asrwt>0</asrwt>
<pdfrwt beam="1">  1       21 0.61541934E-02 0.30000000E+03</pdfrwt>
<pdfrwt beam="2">0</pdfrwt>
<totfact> 0.20168961E+04</totfact>
</mgrwt>
</event>
<event>
 6    1  0.1280499E-001  0.3000000E+03  0.7818608E-02  0.1093470E+00
         21   -1    0    0  501  502  0.00000000000E+00  0.00000000000E+00  0.29524655550E+01  0.29524655550E+01  0.00000000000E+00 0. -1.
         13   -1    0    0    0    0 -0.00000000000E+00 -0.00000000000E+00 -0.10000000000E+04  0.10000000000E+04  0.00000000000E+00 0.  1.
    9000005    2    1    2  501    0 -0.48383059954E+02 -0.14008035238E+02 -0.68507698112E+03  0.68694175104E+03  0.46210095886E+01 0.  0.
         13    1    3    3    0    0 -0.58446021536E+01 -0.70394139353E+00 -0.96727670325E+02  0.96906641229E+02  0.00000000000E+00 0.  1.
          3    1    3    3  501    0 -0.42538457801E+02 -0.13304093844E+02 -0.58834931079E+03  0.59003510982E+03  0.00000000000E+00 0.  1.
         -3    1    1    2    0  502  0.48383059954E+02  0.14008035238E+02 -0.31197055333E+03  0.31601071451E+03  0.00000000000E+00 0. -1.
<mgrwt>
<rscale>  1 0.30000000E+03</rscale>
<asrwt>0</asrwt>
<pdfrwt beam="1">  1       21 0.10736261E-01 0.30000000E+03</pdfrwt>
<pdfrwt beam="2">0</pdfrwt>
<totfact> 0.75753415E+03</totfact>
</mgrwt>
</event>
<event>
 6    1  0.1280499E-001  0.3000000E+03  0.7818608E-02  0.1093470E+00
         21   -1    0    0  501  502  0.00000000000E+00  0.00000000000E+00  0.15252682094E+01  0.15252682094E+01  0.00000000000E+00 0. -1.
         13   -1    0    0    0    0 -0.00000000000E+00 -0.00000000000E+00 -0.10000000000E+04  0.10000000000E+04  0.00000000000E+00 0.  1.
    9000005    2    1    2  501    0 -0.34621258231E+02 -0.49774693168E+00 -0.72998609446E+03  0.73081319303E+03  0.30570778498E+01 0.  0.
         13    1    3    3    0    0 -0.18377586258E+02 -0.16228601967E+01 -0.40231738838E+03  0.40274017721E+03  0.00000000000E+00 0.  1.
          3    1    3    3  501    0 -0.16243671973E+02  0.11251132651E+01 -0.32766870608E+03  0.32807301582E+03  0.00000000000E+00 0.  1.
         -1    1    1    2    0  502  0.34621258231E+02  0.49774693168E+00 -0.26848863733E+03  0.27071207518E+03  0.00000000000E+00 0. -1.
<mgrwt>
<rscale>  1 0.30000000E+03</rscale>
<asrwt>0</asrwt>
<pdfrwt beam="1">  1       21 0.55464415E-02 0.30000000E+03</pdfrwt>
<pdfrwt beam="2">0</pdfrwt>
<totfact> 0.24123709E+04</totfact>
</mgrwt>
</event>
<event>
 6    1  0.1280499E-001  0.3000000E+03  0.7818608E-02  0.1093470E+00
         21   -1    0    0  501  502  0.00000000000E+00  0.00000000000E+00  0.14004354325E+01  0.14004354325E+01  0.00000000000E+00 0. -1.
         13   -1    0    0    0    0 -0.00000000000E+00 -0.00000000000E+00 -0.10000000000E+04  0.10000000000E+04  0.00000000000E+00 0.  1.
    9000005    2    1    2  501    0 -0.22065889800E+02  0.21882320074E+02 -0.77751235431E+03  0.77813983890E+03  0.32261981753E+01 0.  0.
         13    1    3    3    0    0 -0.15569189307E+02  0.17162364009E+02 -0.59434534715E+03  0.59479688808E+03  0.00000000000E+00 0.  1.
          3    1    3    3  501    0 -0.64967004927E+01  0.47199560646E+01 -0.18316700716E+03  0.18334295082E+03  0.00000000000E+00 0.  1.
         -1    1    1    2    0  502  0.22065889800E+02 -0.21882320074E+02 -0.22108721026E+03  0.22326059653E+03  0.00000000000E+00 0. -1.
<mgrwt>
<rscale>  1 0.30000000E+03</rscale>
<asrwt>0</asrwt>
<pdfrwt beam="1">  1       21 0.50925032E-02 0.30000000E+03</pdfrwt>
<pdfrwt beam="2">0</pdfrwt>
<totfact> 0.27918015E+04</totfact>
</mgrwt>
</event>
<event>
 6    1  0.1280499E-001  0.3000000E+03  0.7818608E-02  0.1093470E+00
         21   -1    0    0  501  502  0.00000000000E+00  0.00000000000E+00  0.10728902989E+01  0.10728902989E+01  0.00000000000E+00 0. -1.
         13   -1    0    0    0    0 -0.00000000000E+00 -0.00000000000E+00 -0.10000000000E+04  0.10000000000E+04  0.00000000000E+00 0.  1.
    9000005    2    1    2  501    0 -0.21870242830E+02 -0.21529763079E+02 -0.66221580899E+03  0.66296589799E+03  0.72226037876E+01 0.  0.
         13    1    3    3    0    0 -0.14937560714E+02 -0.11970865003E+02 -0.34531720893E+03  0.34584737546E+03  0.00000000000E+00 0.  1.
          1    1    3    3  501    0 -0.69326821161E+01 -0.95588980766E+01 -0.31689860005E+03  0.31711852253E+03  0.00000000000E+00 0.  1.
         -3    1    1    2    0  502  0.21870242830E+02  0.21529763079E+02 -0.33671130072E+03  0.33810699231E+03  0.00000000000E+00 0. -1.
<mgrwt>
<rscale>  1 0.30000000E+03</rscale>
<asrwt>0</asrwt>
<pdfrwt beam="1">  1       21 0.39014275E-02 0.30000000E+03</pdfrwt>
<pdfrwt beam="2">0</pdfrwt>
<totfact> 0.43850667E+04</totfact>
</mgrwt>
</event>
<event>
 6    1  0.1280499E-001  0.3000000E+03  0.7818608E-02  0.1093470E+00
         21   -1    0    0  501  502  0.00000000000E+00  0.00000000000E+00  0.39835623968E+01  0.39835623968E+01  0.00000000000E+00 0. -1.
         13   -1    0    0    0    0 -0.00000000000E+00 -0.00000000000E+00 -0.10000000000E+04  0.10000000000E+04  0.00000000000E+00 0.  1.
    9000005    2    1    2  501    0  0.54699814123E+02 -0.29431191006E+02 -0.58542763196E+03  0.58872288284E+03  0.32948207916E+01 0.  0.
         13    1    3    3    0    0  0.28059654987E+01 -0.98252356143E+00 -0.23415217335E+02  0.23603203126E+02  0.00000000000E+00 0.  1.
          1    1    3    3  501    0  0.51893848625E+02 -0.28448667445E+02 -0.56201241463E+03  0.56511967971E+03  0.00000000000E+00 0.  1.
         -3    1    1    2    0  502 -0.54699814123E+02  0.29431191006E+02 -0.41058880564E+03  0.41526067956E+03  0.00000000000E+00 0. -1.
<mgrwt>
<rscale>  1 0.30000000E+03</rscale>
<asrwt>0</asrwt>
<pdfrwt beam="1">  1       21 0.14485712E-01 0.30000000E+03</pdfrwt>
<pdfrwt beam="2">0</pdfrwt>
<totfact> 0.43921534E+03</totfact>
</mgrwt>
</event>
<event>
 6    1  0.1280499E-001  0.3000000E+03  0.7818608E-02  0.1093470E+00
         21   -1    0    0  501  502  0.00000000000E+00  0.00000000000E+00  0.54283744730E+01  0.54283744730E+01  0.00000000000E+00 0. -1.
         13   -1    0    0    0    0 -0.00000000000E+00 -0.00000000000E+00 -0.10000000000E+04  0.10000000000E+04  0.00000000000E+00 0.  1.
    9000005    2    1    2  501    0 -0.28394386148E+02  0.32685637699E+02 -0.90395920204E+03  0.90500326124E+03  0.37512446538E+01 0.  0.
         13    1    3    3    0    0 -0.71569890046E+01  0.69146520667E+01 -0.23626046714E+03  0.23646996265E+03  0.00000000000E+00 0.  1.
          3    1    3    3  501    0 -0.21237397143E+02  0.25770985633E+02 -0.66769873490E+03  0.66853329859E+03  0.00000000000E+00 0.  1.
         -3    1    1    2    0  502  0.28394386148E+02 -0.32685637699E+02 -0.90612423488E+02  0.10042511323E+03  0.00000000000E+00 0. -1.
<mgrwt>
<rscale>  1 0.30000000E+03</rscale>
<asrwt>0</asrwt>
<pdfrwt beam="1">  1       21 0.19739585E-01 0.30000000E+03</pdfrwt>
<pdfrwt beam="2">0</pdfrwt>
<totfact> 0.24599475E+03</totfact>
</mgrwt>
</event>
<event>
 6    1  0.1280499E-001  0.3000000E+03  0.7818608E-02  0.1093470E+00
         21   -1    0    0  501  502  0.00000000000E+00  0.00000000000E+00  0.16165279409E+01  0.16165279409E+01  0.00000000000E+00 0. -1.
         13   -1    0    0    0    0 -0.00000000000E+00 -0.00000000000E+00 -0.10000000000E+04  0.10000000000E+04  0.00000000000E+00 0.  1.
    9000005    2    1    2  501    0 -0.12149412889E+02  0.36994298659E+02 -0.62078989974E+03  0.62202056876E+03  0.36471878711E+01 0.  0.
         13    1    3    3    0    0 -0.70701025569E+01  0.16849283478E+02 -0.27327881398E+03  0.27388901926E+03  0.00000000000E+00 0.  1.
          3    1    3    3  501    0 -0.50793103325E+01  0.20145015180E+02 -0.34751108576E+03  0.34813154950E+03  0.00000000000E+00 0.  1.
         -1    1    1    2    0  502  0.12149412889E+02 -0.36994298659E+02 -0.37759357232E+03  0.37959595918E+03  0.00000000000E+00 0. -1.
<mgrwt>
<rscale>  1 0.30000000E+03</rscale>
<asrwt>0</asrwt>
<pdfrwt beam="1">  1       21 0.58782958E-02 0.30000000E+03</pdfrwt>
<pdfrwt beam="2">0</pdfrwt>
<totfact> 0.21829402E+04</totfact>
</mgrwt>
</event>
<event>
 6    1  0.1280499E-001  0.3000000E+03  0.7818608E-02  0.1093470E+00
         21   -1    0    0  501  502  0.00000000000E+00  0.00000000000E+00  0.11015168086E+01  0.11015168086E+01  0.00000000000E+00 0. -1.
         13   -1    0    0    0    0 -0.00000000000E+00 -0.00000000000E+00 -0.10000000000E+04  0.10000000000E+04  0.00000000000E+00 0.  1.
    9000005    2    1    2  501    0  0.27408826717E+02  0.17028377452E+02 -0.61237170701E+03  0.61323020036E+03  0.33108402378E+01 0.  0.
         13    1    3    3    0    0  0.17013269472E+02  0.87917527596E+01 -0.35025075861E+03  0.35077391602E+03  0.00000000000E+00 0.  1.
          3    1    3    3  501    0  0.10395557244E+02  0.82366246925E+01 -0.26212094840E+03  0.26245628434E+03  0.00000000000E+00 0.  1.
         -3    1    1    2    0  502 -0.27408826717E+02 -0.17028377452E+02 -0.38652677618E+03  0.38787131645E+03  0.00000000000E+00 0. -1.
<mgrwt>
<rscale>  1 0.30000000E+03</rscale>
<asrwt>0</asrwt>
<pdfrwt beam="1">  1       21 0.40055241E-02 0.30000000E+03</pdfrwt>
<pdfrwt beam="2">0</pdfrwt>
<totfact> 0.41949712E+04</totfact>
</mgrwt>
</event>
<event>
 6    1  0.1280499E-001  0.3000000E+03  0.7818608E-02  0.1093470E+00
         21   -1    0    0  501  502  0.00000000000E+00  0.00000000000E+00  0.48226731776E+01  0.48226731776E+01  0.00000000000E+00 0. -1.
         13   -1    0    0    0    0 -0.00000000000E+00 -0.00000000000E+00 -0.10000000000E+04  0.10000000000E+04  0.00000000000E+00 0.  1.
    9000005    2    1    2  501    0  0.53950462231E+02  0.94224223074E+01 -0.18954703933E+03  0.19733298622E+03  0.35767184383E+01 0.  0.
         13    1    3    3    0    0  0.44257349216E+02  0.83309109470E+01 -0.15115082820E+03  0.15771711988E+03  0.00000000000E+00 0.  1.
          1    1    3    3  501    0  0.96931130151E+01  0.10915113603E+01 -0.38396211131E+02  0.39615866344E+02  0.00000000000E+00 0.  1.
         -3    1    1    2    0  502 -0.53950462231E+02 -0.94224223074E+01 -0.80563028749E+03  0.80748968696E+03  0.00000000000E+00 0. -1.
<mgrwt>
<rscale>  1 0.30000000E+03</rscale>
<asrwt>0</asrwt>
<pdfrwt beam="1">  1       21 0.17537030E-01 0.30000000E+03</pdfrwt>
<pdfrwt beam="2">0</pdfrwt>
<totfact> 0.30767055E+03</totfact>
</mgrwt>
</event>
<event>
 6    1  0.1280499E-001  0.3000000E+03  0.7818608E-02  0.1093470E+00
         21   -1    0    0  501  502  0.00000000000E+00  0.00000000000E+00  0.12094047968E+01  0.12094047968E+01  0.00000000000E+00 0. -1.
         13   -1    0    0    0    0 -0.00000000000E+00 -0.00000000000E+00 -0.10000000000E+04  0.10000000000E+04  0.00000000000E+00 0.  1.
    9000005    2    1    2  501    0  0.30784807034E+02  0.20130566066E+00 -0.73121260208E+03  0.73186626442E+03  0.29350769442E+01 0.  0.
         13    1    3    3    0    0  0.24238972968E+02 -0.62372130892E+00 -0.55206065299E+03  0.55259287130E+03  0.00000000000E+00 0.  1.
          1    1    3    3  501    0  0.65458340661E+01  0.82502696958E+00 -0.17915194910E+03  0.17927339311E+03  0.00000000000E+00 0.  1.
         -3    1    1    2    0  502 -0.30784807034E+02 -0.20130566066E+00 -0.26757799312E+03  0.26934314038E+03  0.00000000000E+00 0. -1.
<mgrwt>
<rscale>  1 0.30000000E+03</rscale>
<asrwt>0</asrwt>
<pdfrwt beam="1">  1       21 0.43978449E-02 0.30000000E+03</pdfrwt>
<pdfrwt beam="2">0</pdfrwt>
<totfact> 0.35826124E+04</totfact>
</mgrwt>
</event>
<event>
 6    1  0.1280499E-001  0.3000000E+03  0.7818608E-02  0.1093470E+00
         21   -1    0    0  501  502  0.00000000000E+00  0.00000000000E+00  0.16442495249E+01  0.16442495249E+01  0.00000000000E+00 0. -1.
         13   -1    0    0    0    0 -0.00000000000E+00 -0.00000000000E+00 -0.10000000000E+04  0.10000000000E+04  0.00000000000E+00 0.  1.
    9000005    2    1    2  501    0 -0.25848562745E+02  0.15627514282E+02 -0.83197871537E+03  0.83254757537E+03  0.58749496746E+01 0.  0.
         13    1    3    3    0    0 -0.24806031565E+02  0.13658405414E+02 -0.73941472399E+03  0.73995677258E+03  0.00000000000E+00 0.  1.
          3    1    3    3  501    0 -0.10425311800E+01  0.19691088678E+01 -0.92563991383E+02  0.92590802792E+02  0.00000000000E+00 0.  1.
         -1    1    1    2    0  502  0.25848562745E+02 -0.15627514282E+02 -0.16637703511E+03  0.16909667415E+03  0.00000000000E+00 0. -1.
<mgrwt>
<rscale>  1 0.30000000E+03</rscale>
<asrwt>0</asrwt>
<pdfrwt beam="1">  1       21 0.59791018E-02 0.30000000E+03</pdfrwt>
<pdfrwt beam="2">0</pdfrwt>
<totfact> 0.21198837E+04</totfact>
</mgrwt>
</event>
<event>
 6    1  0.1280499E-001  0.3000000E+03  0.7818608E-02  0.1093470E+00
         21   -1    0    0  501  502  0.00000000000E+00  0.00000000000E+00  0.24310382724E+01  0.24310382724E+01  0.00000000000E+00 0. -1.
         13   -1    0    0    0    0 -0.00000000000E+00 -0.00000000000E+00 -0.10000000000E+04  0.10000000000E+04  0.00000000000E+00 0.  1.
    9000005    2    1    2  501    0 -0.79051075405E+01 -0.30174885089E+02 -0.88672081018E+03  0.88727754454E+03  0.38251062668E+01 0.  0.
         13    1    3    3    0    0 -0.68393158499E+01 -0.23500867136E+02 -0.73226415821E+03  0.73267309518E+03  0.00000000000E+00 0.  1.
          3    1    3    3  501    0 -0.10657916906E+01 -0.66740179539E+01 -0.15445665196E+03  0.15460444937E+03  0.00000000000E+00 0.  1.
         -3    1    1    2    0  502  0.79051075405E+01  0.30174885089E+02 -0.11084815155E+03  0.11515349373E+03  0.00000000000E+00 0. -1.
<mgrwt>
<rscale>  1 0.30000000E+03</rscale>
<asrwt>0</asrwt>
<pdfrwt beam="1">  1       21 0.88401578E-02 0.30000000E+03</pdfrwt>
<pdfrwt beam="2">0</pdfrwt>
<totfact> 0.10712586E+04</totfact>
</mgrwt>
</event>
<event>
 6    1  0.1280499E-001  0.3000000E+03  0.7818608E-02  0.1093470E+00
         21   -1    0    0  501  502  0.00000000000E+00  0.00000000000E+00  0.13260762807E+01  0.13260762807E+01  0.00000000000E+00 0. -1.
         13   -1    0    0    0    0 -0.00000000000E+00 -0.00000000000E+00 -0.10000000000E+04  0.10000000000E+04  0.00000000000E+00 0.  1.
    9000005    2    1    2  501    0 -0.35553596532E+02  0.67571884620E+01 -0.46483912369E+03  0.46626597540E+03  0.43394802914E+01 0.  0.
         13    1    3    3    0    0 -0.21535859060E+02  0.24183286866E+01 -0.25962497827E+03  0.26052786968E+03  0.00000000000E+00 0.  1.
          3    1    3    3  501    0 -0.14017737472E+02  0.43388597755E+01 -0.20521414542E+03  0.20573810573E+03  0.00000000000E+00 0.  1.
         -1    1    1    2    0  502  0.35553596532E+02 -0.67571884620E+01 -0.53383480003E+03  0.53506010088E+03  0.00000000000E+00 0. -1.
<mgrwt>
<rscale>  1 0.30000000E+03</rscale>
<asrwt>0</asrwt>
<pdfrwt beam="1">  1       21 0.48221057E-02 0.30000000E+03</pdfrwt>
<pdfrwt beam="2">0</pdfrwt>
<totfact> 0.30638036E+04</totfact>
</mgrwt>
</event>
<event>
 6    1  0.1280499E-001  0.3000000E+03  0.7818608E-02  0.1093470E+00
         21   -1    0    0  501  502  0.00000000000E+00  0.00000000000E+00  0.31475569736E+01  0.31475569736E+01  0.00000000000E+00 0. -1.
         13   -1    0    0    0    0 -0.00000000000E+00 -0.00000000000E+00 -0.10000000000E+04  0.10000000000E+04  0.00000000000E+00 0.  1.
    9000005    2    1    2  501    0  0.34481072105E+02  0.30058990104E+02 -0.78844670729E+03  0.78978064786E+03  0.35741107902E+01 0.  0.
         13    1    3    3    0    0  0.20874325830E+02  0.19346310737E+02 -0.46389860584E+03  0.46477084000E+03  0.00000000000E+00 0.  1.
          3    1    3    3  501    0  0.13606746275E+02  0.10712679366E+02 -0.32454810146E+03  0.32500980786E+03  0.00000000000E+00 0.  1.
         -1    1    1    2    0  502 -0.34481072105E+02 -0.30058990104E+02 -0.20840573573E+03  0.21336690912E+03  0.00000000000E+00 0. -1.
<mgrwt>
<rscale>  1 0.30000000E+03</rscale>
<asrwt>0</asrwt>
<pdfrwt beam="1">  1       21 0.11445686E-01 0.30000000E+03</pdfrwt>
<pdfrwt beam="2">0</pdfrwt>
<totfact> 0.67510329E+03</totfact>
</mgrwt>
</event>
<event>
 6    1  0.1280499E-001  0.3000000E+03  0.7818608E-02  0.1093470E+00
         21   -1    0    0  501  502  0.00000000000E+00  0.00000000000E+00  0.22685491775E+01  0.22685491775E+01  0.00000000000E+00 0. -1.
         13   -1    0    0    0    0 -0.00000000000E+00 -0.00000000000E+00 -0.10000000000E+04  0.10000000000E+04  0.00000000000E+00 0.  1.
    9000005    2    1    2  501    0 -0.70978558093E+01 -0.34973791949E+02 -0.83038449151E+03  0.83115878770E+03  0.36029094889E+01 0.  0.
         13    1    3    3    0    0 -0.58973343999E+01 -0.29973368569E+02 -0.73697841846E+03  0.73761125985E+03  0.00000000000E+00 0.  1.
          1    1    3    3  501    0 -0.12005214094E+01 -0.50004233803E+01 -0.93406073044E+02  0.93547527852E+02  0.00000000000E+00 0.  1.
         -3    1    1    2    0  502  0.70978558093E+01  0.34973791949E+02 -0.16734695932E+03  0.17110976148E+03  0.00000000000E+00 0. -1.
<mgrwt>
<rscale>  1 0.30000000E+03</rscale>
<asrwt>0</asrwt>
<pdfrwt beam="1">  1       21 0.82492871E-02 0.30000000E+03</pdfrwt>
<pdfrwt beam="2">0</pdfrwt>
<totfact> 0.12103020E+04</totfact>
</mgrwt>
</event>
<event>
 6    1  0.1280499E-001  0.3000000E+03  0.7818608E-02  0.1093470E+00
         21   -1    0    0  501  502  0.00000000000E+00  0.00000000000E+00  0.95376755264E+00  0.95376755264E+00  0.00000000000E+00 0. -1.
         13   -1    0    0    0    0 -0.00000000000E+00 -0.00000000000E+00 -0.10000000000E+04  0.10000000000E+04  0.00000000000E+00 0.  1.
    9000005    2    1    2  501    0 -0.23615631429E+02 -0.19763626198E+02 -0.49802332176E+03  0.49898538608E+03  0.32996261425E+01 0.  0.
         13    1    3    3    0    0 -0.51826374777E+01 -0.58603267330E+01 -0.11311324892E+03  0.11338346547E+03  0.00000000000E+00 0.  1.
          1    1    3    3  501    0 -0.18432993951E+02 -0.13903299465E+02 -0.38491007284E+03  0.38560192061E+03  0.00000000000E+00 0.  1.
         -1    1    1    2    0  502  0.23615631429E+02  0.19763626198E+02 -0.50102291069E+03  0.50196838148E+03  0.00000000000E+00 0. -1.
<mgrwt>
<rscale>  1 0.30000000E+03</rscale>
<asrwt>0</asrwt>
<pdfrwt beam="1">  1       21 0.34682530E-02 0.30000000E+03</pdfrwt>
<pdfrwt beam="2">0</pdfrwt>
<totfact> 0.53425507E+04</totfact>
</mgrwt>
</event>
<event>
 6    1  0.1280499E-001  0.3000000E+03  0.7818608E-02  0.1093470E+00
         21   -1    0    0  501  502  0.00000000000E+00  0.00000000000E+00  0.11137773056E+01  0.11137773056E+01  0.00000000000E+00 0. -1.
         13   -1    0    0    0    0 -0.00000000000E+00 -0.00000000000E+00 -0.10000000000E+04  0.10000000000E+04  0.00000000000E+00 0.  1.
    9000005    2    1    2  501    0 -0.28771955707E+02  0.14160886849E+02 -0.63471436142E+03  0.63553273199E+03  0.33431547484E+01 0.  0.
         13    1    3    3    0    0 -0.15402276998E+02  0.81400713660E+01 -0.31307090586E+03  0.31355523117E+03  0.00000000000E+00 0.  1.
          1    1    3    3  501    0 -0.13369678709E+02  0.60208154826E+01 -0.32164345556E+03  0.32197750082E+03  0.00000000000E+00 0.  1.
         -1    1    1    2    0  502  0.28771955707E+02 -0.14160886849E+02 -0.36417186127E+03  0.36558104531E+03  0.00000000000E+00 0. -1.
<mgrwt>
<rscale>  1 0.30000000E+03</rscale>
<asrwt>0</asrwt>
<pdfrwt beam="1">  1       21 0.40501078E-02 0.30000000E+03</pdfrwt>
<pdfrwt beam="2">0</pdfrwt>
<totfact> 0.41174712E+04</totfact>
</mgrwt>
</event>
<event>
 6    1  0.1280499E-001  0.3000000E+03  0.7818608E-02  0.1093470E+00
         21   -1    0    0  501  502  0.00000000000E+00  0.00000000000E+00  0.20792764456E+01  0.20792764456E+01  0.00000000000E+00 0. -1.
         13   -1    0    0    0    0 -0.00000000000E+00 -0.00000000000E+00 -0.10000000000E+04  0.10000000000E+04  0.00000000000E+00 0.  1.
    9000005    2    1    2  501    0 -0.32934178923E+02  0.35681381713E+01 -0.84297882998E+03  0.84363565197E+03  0.32270320161E+01 0.  0.
         13    1    3    3    0    0 -0.15612958345E+02  0.11012940753E+01 -0.36020068331E+03  0.36054057965E+03  0.00000000000E+00 0.  1.
          1    1    3    3  501    0 -0.17321220577E+02  0.24668440960E+01 -0.48277814666E+03  0.48309507232E+03  0.00000000000E+00 0.  1.
         -3    1    1    2    0  502  0.32934178923E+02 -0.35681381713E+01 -0.15494189358E+03  0.15844362448E+03  0.00000000000E+00 0. -1.
<mgrwt>
<rscale>  1 0.30000000E+03</rscale>
<asrwt>0</asrwt>
<pdfrwt beam="1">  1       21 0.75610212E-02 0.30000000E+03</pdfrwt>
<pdfrwt beam="2">0</pdfrwt>
<totfact> 0.14102913E+04</totfact>
</mgrwt>
</event>
<event>
 6    1  0.1280499E-001  0.3000000E+03  0.7818608E-02  0.1093470E+00
         21   -1    0    0  501  502  0.00000000000E+00  0.00000000000E+00  0.14474411507E+01  0.14474411507E+01  0.00000000000E+00 0. -1.
         13   -1    0    0    0    0 -0.00000000000E+00 -0.00000000000E+00 -0.10000000000E+04  0.10000000000E+04  0.00000000000E+00 0.  1.
    9000005    2    1    2  501    0 -0.12776255532E+02 -0.30251823597E+02 -0.75128827134E+03  0.75201201180E+03  0.30973709160E+01 0.  0.
         13    1    3    3    0    0 -0.76478682081E+01 -0.17549623983E+02 -0.40291968841E+03  0.40337421149E+03  0.00000000000E+00 0.  1.
          1    1    3    3  501    0 -0.51283873238E+01 -0.12702199615E+02 -0.34836858293E+03  0.34863780031E+03  0.00000000000E+00 0.  1.
         -1    1    1    2    0  502  0.12776255532E+02  0.30251823597E+02 -0.24726428751E+03  0.24943542935E+03  0.00000000000E+00 0. -1.
<mgrwt>
<rscale>  1 0.30000000E+03</rscale>
<asrwt>0</asrwt>
<pdfrwt beam="1">  1       21 0.52634335E-02 0.30000000E+03</pdfrwt>
<pdfrwt beam="2">0</pdfrwt>
<totfact> 0.26387408E+04</totfact>
</mgrwt>
</event>
<event>
 6    1  0.1280499E-001  0.3000000E+03  0.7818608E-02  0.1093470E+00
         21   -1    0    0  501  502  0.00000000000E+00  0.00000000000E+00  0.10954898407E+01  0.10954898407E+01  0.00000000000E+00 0. -1.
         13   -1    0    0    0    0 -0.00000000000E+00 -0.00000000000E+00 -0.10000000000E+04  0.10000000000E+04  0.00000000000E+00 0.  1.
    9000005    2    1    2  501    0  0.30107274130E+02 -0.79009182566E+01 -0.66654196324E+03  0.66727857136E+03  0.36919616066E+01 0.  0.
         13    1    3    3    0    0  0.27809954527E+00  0.22956075679E+00 -0.42178489941E+01  0.42332360712E+01  0.00000000000E+00 0.  1.
          1    1    3    3  501    0  0.29829174584E+02 -0.81304790134E+01 -0.66232411424E+03  0.66304533529E+03  0.00000000000E+00 0.  1.
         -3    1    1    2    0  502 -0.30107274130E+02  0.79009182566E+01 -0.33236254692E+03  0.33381691848E+03  0.00000000000E+00 0. -1.
<mgrwt>
<rscale>  1 0.30000000E+03</rscale>
<asrwt>0</asrwt>
<pdfrwt beam="1">  1       21 0.39836078E-02 0.30000000E+03</pdfrwt>
<pdfrwt beam="2">0</pdfrwt>
<totfact> 0.42339076E+04</totfact>
</mgrwt>
</event>
<event>
 6    1  0.1280499E-001  0.3000000E+03  0.7818608E-02  0.1093470E+00
         21   -1    0    0  501  502  0.00000000000E+00  0.00000000000E+00  0.82358642216E+01  0.82358642216E+01  0.00000000000E+00 0. -1.
         13   -1    0    0    0    0 -0.00000000000E+00 -0.00000000000E+00 -0.10000000000E+04  0.10000000000E+04  0.00000000000E+00 0.  1.
    9000005    2    1    2  501    0  0.68245450261E+02  0.29433705796E+01 -0.82768887986E+03  0.83050912308E+03  0.32275014356E+01 0.  0.
         13    1    3    3    0    0  0.58195712841E+02  0.34053768332E+01 -0.71426363723E+03  0.71663859863E+03  0.00000000000E+00 0.  1.
          3    1    3    3  501    0  0.10049737420E+02 -0.46200625362E+00 -0.11342524263E+03  0.11387052445E+03  0.00000000000E+00 0.  1.
         -3    1    1    2    0  502 -0.68245450261E+02 -0.29433705796E+01 -0.16407525592E+03  0.17772674114E+03  0.00000000000E+00 0. -1.
<mgrwt>
<rscale>  1 0.30000000E+03</rscale>
<asrwt>0</asrwt>
<pdfrwt beam="1">  1       21 0.29948660E-01 0.30000000E+03</pdfrwt>
<pdfrwt beam="2">0</pdfrwt>
<totfact> 0.10910108E+03</totfact>
</mgrwt>
</event>
<event>
 6    1  0.1280499E-001  0.3000000E+03  0.7818608E-02  0.1093470E+00
         21   -1    0    0  501  502  0.00000000000E+00  0.00000000000E+00  0.11872301352E+01  0.11872301352E+01  0.00000000000E+00 0. -1.
         13   -1    0    0    0    0 -0.00000000000E+00 -0.00000000000E+00 -0.10000000000E+04  0.10000000000E+04  0.00000000000E+00 0.  1.
    9000005    2    1    2  501    0  0.22601773455E+02 -0.23586962711E+02 -0.65630178536E+03  0.65712188826E+03  0.31555649917E+01 0.  0.
         13    1    3    3    0    0  0.12393117395E+02 -0.12971169080E+02 -0.32868293592E+03  0.32917216309E+03  0.00000000000E+00 0.  1.
          1    1    3    3  501    0  0.10208656060E+02 -0.10615793631E+02 -0.32761884944E+03  0.32794972517E+03  0.00000000000E+00 0.  1.
         -3    1    1    2    0  502 -0.22601773455E+02  0.23586962711E+02 -0.34251098451E+03  0.34406534188E+03  0.00000000000E+00 0. -1.
<mgrwt>
<rscale>  1 0.30000000E+03</rscale>
<asrwt>0</asrwt>
<pdfrwt beam="1">  1       21 0.43172096E-02 0.30000000E+03</pdfrwt>
<pdfrwt beam="2">0</pdfrwt>
<totfact> 0.36966154E+04</totfact>
</mgrwt>
</event>
<event>
 6    1  0.1280499E-001  0.3000000E+03  0.7818608E-02  0.1093470E+00
         21   -1    0    0  501  502  0.00000000000E+00  0.00000000000E+00  0.22576139384E+01  0.22576139384E+01  0.00000000000E+00 0. -1.
         13   -1    0    0    0    0 -0.00000000000E+00 -0.00000000000E+00 -0.10000000000E+04  0.10000000000E+04  0.00000000000E+00 0.  1.
    9000005    2    1    2  501    0  0.40277889677E+02 -0.55557303150E+01 -0.75776630533E+03  0.75886144745E+03  0.27835950940E+01 0.  0.
         13    1    3    3    0    0  0.38689315775E+02 -0.57958457515E+01 -0.72204238459E+03  0.72310141760E+03  0.00000000000E+00 0.  1.
          3    1    3    3  501    0  0.15885739021E+01  0.24011543656E+00 -0.35723920733E+02  0.35760029852E+02  0.00000000000E+00 0.  1.
         -1    1    1    2    0  502 -0.40277889677E+02  0.55557303150E+01 -0.23997608073E+03  0.24339616649E+03  0.00000000000E+00 0. -1.
<mgrwt>
<rscale>  1 0.30000000E+03</rscale>
<asrwt>0</asrwt>
<pdfrwt beam="1">  1       21 0.82095225E-02 0.30000000E+03</pdfrwt>
<pdfrwt beam="2">0</pdfrwt>
<totfact> 0.12206356E+04</totfact>
</mgrwt>
</event>
<event>
 6    1  0.1280499E-001  0.3000000E+03  0.7818608E-02  0.1093470E+00
         21   -1    0    0  501  502  0.00000000000E+00  0.00000000000E+00  0.17047114791E+01  0.17047114791E+01  0.00000000000E+00 0. -1.
         13   -1    0    0    0    0 -0.00000000000E+00 -0.00000000000E+00 -0.10000000000E+04  0.10000000000E+04  0.00000000000E+00 0.  1.
    9000005    2    1    2  501    0  0.39786032660E+02  0.10667439359E+02 -0.51535370237E+03  0.51700965447E+03  0.35807274620E+01 0.  0.
         13    1    3    3    0    0  0.34464718964E+02  0.94098699215E+01 -0.46067260835E+03  0.46205585657E+03  0.00000000000E+00 0.  1.
          3    1    3    3  501    0  0.53213136956E+01  0.12575694373E+01 -0.54681094021E+02  0.54953797900E+02  0.00000000000E+00 0.  1.
         -3    1    1    2    0  502 -0.39786032660E+02 -0.10667439359E+02 -0.48294158615E+03  0.48469505701E+03  0.00000000000E+00 0. -1.
<mgrwt>
<rscale>  1 0.30000000E+03</rscale>
<asrwt>0</asrwt>
<pdfrwt beam="1">  1       21 0.61989639E-02 0.30000000E+03</pdfrwt>
<pdfrwt beam="2">0</pdfrwt>
<totfact> 0.19918089E+04</totfact>
</mgrwt>
</event>
<event>
 6    1  0.1280499E-001  0.3000000E+03  0.7818608E-02  0.1093470E+00
         21   -1    0    0  501  502  0.00000000000E+00  0.00000000000E+00  0.29307506813E+01  0.29307506813E+01  0.00000000000E+00 0. -1.
         13   -1    0    0    0    0 -0.00000000000E+00 -0.00000000000E+00 -0.10000000000E+04  0.10000000000E+04  0.00000000000E+00 0.  1.
    9000005    2    1    2  501    0  0.24278197726E+02 -0.43130775068E+02 -0.70080301372E+03  0.70255868640E+03  0.37615367449E+01 0.  0.
         13    1    3    3    0    0  0.10530269456E+02 -0.22487103860E+02 -0.34613242121E+03  0.34702191491E+03  0.00000000000E+00 0.  1.
          3    1    3    3  501    0  0.13747928270E+02 -0.20643671208E+02 -0.35467059251E+03  0.35553677149E+03  0.00000000000E+00 0.  1.
         -3    1    1    2    0  502 -0.24278197726E+02  0.43130775068E+02 -0.29626623560E+03  0.30037206428E+03  0.00000000000E+00 0. -1.
<mgrwt>
<rscale>  1 0.30000000E+03</rscale>
<asrwt>0</asrwt>
<pdfrwt beam="1">  1       21 0.10657298E-01 0.30000000E+03</pdfrwt>
<pdfrwt beam="2">0</pdfrwt>
<totfact> 0.76763907E+03</totfact>
</mgrwt>
</event>
<event>
 6    1  0.1280499E-001  0.3000000E+03  0.7818608E-02  0.1093470E+00
         21   -1    0    0  501  502  0.00000000000E+00  0.00000000000E+00  0.38127413080E+01  0.38127413080E+01  0.00000000000E+00 0. -1.
         13   -1    0    0    0    0 -0.00000000000E+00 -0.00000000000E+00 -0.10000000000E+04  0.10000000000E+04  0.00000000000E+00 0.  1.
    9000005    2    1    2  501    0  0.12908556313E+02 -0.57555154494E+02 -0.35156080473E+03  0.35649327475E+03  0.36371535629E+01 0.  0.
         13    1    3    3    0    0  0.32058471077E+00 -0.59888103908E+01 -0.33043456916E+02  0.33583309387E+02  0.00000000000E+00 0.  1.
          3    1    3    3  501    0  0.12587971602E+02 -0.51566344103E+02 -0.31851734781E+03  0.32290996536E+03  0.00000000000E+00 0.  1.
         -1    1    1    2    0  502 -0.12908556313E+02  0.57555154494E+02 -0.64462645396E+03  0.64731946656E+03  0.00000000000E+00 0. -1.
<mgrwt>
<rscale>  1 0.30000000E+03</rscale>
<asrwt>0</asrwt>
<pdfrwt beam="1">  1       21 0.13864543E-01 0.30000000E+03</pdfrwt>
<pdfrwt beam="2">0</pdfrwt>
<totfact> 0.47609320E+03</totfact>
</mgrwt>
</event>
<event>
 6    1  0.1280499E-001  0.3000000E+03  0.7818608E-02  0.1093470E+00
         21   -1    0    0  501  502  0.00000000000E+00  0.00000000000E+00  0.14054804570E+01  0.14054804570E+01  0.00000000000E+00 0. -1.
         13   -1    0    0    0    0 -0.00000000000E+00 -0.00000000000E+00 -0.10000000000E+04  0.10000000000E+04  0.00000000000E+00 0.  1.
    9000005    2    1    2  501    0 -0.20390739118E+02  0.23176709022E+02 -0.78265109689E+03  0.78326675425E+03  0.33356816419E+01 0.  0.
         13    1    3    3    0    0 -0.11888829455E+02  0.12948227222E+02 -0.48553981136E+03  0.48585791058E+03  0.00000000000E+00 0.  1.
          3    1    3    3  501    0 -0.85019096628E+01  0.10228481800E+02 -0.29711128553E+03  0.29740884367E+03  0.00000000000E+00 0.  1.
         -1    1    1    2    0  502  0.20390739118E+02 -0.23176709022E+02 -0.21594342266E+03  0.21813872621E+03  0.00000000000E+00 0. -1.
<mgrwt>
<rscale>  1 0.30000000E+03</rscale>
<asrwt>0</asrwt>
<pdfrwt beam="1">  1       21 0.51108488E-02 0.30000000E+03</pdfrwt>
<pdfrwt beam="2">0</pdfrwt>
<totfact> 0.27747219E+04</totfact>
</mgrwt>
</event>
<event>
 6    1  0.1280499E-001  0.3000000E+03  0.7818608E-02  0.1093470E+00
         21   -1    0    0  501  502  0.00000000000E+00  0.00000000000E+00  0.20698100646E+01  0.20698100646E+01  0.00000000000E+00 0. -1.
         13   -1    0    0    0    0 -0.00000000000E+00 -0.00000000000E+00 -0.10000000000E+04  0.10000000000E+04  0.00000000000E+00 0.  1.
    9000005    2    1    2  501    0 -0.21425520183E+01  0.42014479417E+02 -0.31065644071E+03  0.31350970856E+03  0.33325961217E+01 0.  0.
         13    1    3    3    0    0 -0.75919297374E+00  0.33979598423E+02 -0.24369406764E+03  0.24605281565E+03  0.00000000000E+00 0.  1.
          1    1    3    3  501    0 -0.13833590445E+01  0.80348809936E+01 -0.66962373063E+02  0.67456892910E+02  0.00000000000E+00 0.  1.
         -1    1    1    2    0  502  0.21425520183E+01 -0.42014479417E+02 -0.68727374923E+03  0.68856010151E+03  0.00000000000E+00 0. -1.
<mgrwt>
<rscale>  1 0.30000000E+03</rscale>
<asrwt>0</asrwt>
<pdfrwt beam="1">  1       21 0.75265979E-02 0.30000000E+03</pdfrwt>
<pdfrwt beam="2">0</pdfrwt>
<totfact> 0.14216068E+04</totfact>
</mgrwt>
</event>
<event>
 6    1  0.1280499E-001  0.3000000E+03  0.7818608E-02  0.1093470E+00
         21   -1    0    0  501  502  0.00000000000E+00  0.00000000000E+00  0.16859070656E+01  0.16859070656E+01  0.00000000000E+00 0. -1.
         13   -1    0    0    0    0 -0.00000000000E+00 -0.00000000000E+00 -0.10000000000E+04  0.10000000000E+04  0.00000000000E+00 0.  1.
    9000005    2    1    2  501    0  0.32067208981E+02  0.19390744345E+02 -0.29715364079E+03  0.29952475284E+03  0.32379728838E+01 0.  0.
         13    1    3    3    0    0  0.25277789173E+02  0.14294514043E+02 -0.22115040957E+03  0.22304888121E+03  0.00000000000E+00 0.  1.
          3    1    3    3  501    0  0.67894198080E+01  0.50962303021E+01 -0.76003231227E+02  0.76475871630E+02  0.00000000000E+00 0.  1.
         -3    1    1    2    0  502 -0.32067208981E+02 -0.19390744345E+02 -0.70116045214E+03  0.70216115423E+03  0.00000000000E+00 0. -1.
<mgrwt>
<rscale>  1 0.30000000E+03</rscale>
<asrwt>0</asrwt>
<pdfrwt beam="1">  1       21 0.61305841E-02 0.30000000E+03</pdfrwt>
<pdfrwt beam="2">0</pdfrwt>
<totfact> 0.20303237E+04</totfact>
</mgrwt>
</event>
<event>
 6    1  0.1280499E-001  0.3000000E+03  0.7818608E-02  0.1093470E+00
         21   -1    0    0  501  502  0.00000000000E+00  0.00000000000E+00  0.10089374913E+01  0.10089374913E+01  0.00000000000E+00 0. -1.
         13   -1    0    0    0    0 -0.00000000000E+00 -0.00000000000E+00 -0.10000000000E+04  0.10000000000E+04  0.00000000000E+00 0.  1.
    9000005    2    1    2  501    0  0.10438527251E+02 -0.29387433011E+02 -0.58716665464E+03  0.58800539394E+03  0.36164776267E+01 0.  0.
         13    1    3    3    0    0  0.17899200688E+01 -0.83329719588E+01 -0.13892409463E+03  0.13918529486E+03  0.00000000000E+00 0.  1.
          3    1    3    3  501    0  0.86486071824E+01 -0.21054461052E+02 -0.44824256001E+03  0.44882009908E+03  0.00000000000E+00 0.  1.
         -3    1    1    2    0  502 -0.10438527251E+02  0.29387433011E+02 -0.41182440787E+03  0.41300354355E+03  0.00000000000E+00 0. -1.
<mgrwt>
<rscale>  1 0.30000000E+03</rscale>
<asrwt>0</asrwt>
<pdfrwt beam="1">  1       21 0.36688713E-02 0.30000000E+03</pdfrwt>
<pdfrwt beam="2">0</pdfrwt>
<totfact> 0.48619946E+04</totfact>
</mgrwt>
</event>
<event>
 6    1  0.1280499E-001  0.3000000E+03  0.7818608E-02  0.1093470E+00
         21   -1    0    0  501  502  0.00000000000E+00  0.00000000000E+00  0.15095214804E+01  0.15095214804E+01  0.00000000000E+00 0. -1.
         13   -1    0    0    0    0 -0.00000000000E+00 -0.00000000000E+00 -0.10000000000E+04  0.10000000000E+04  0.00000000000E+00 0.  1.
    9000005    2    1    2  501    0  0.36405138837E+02 -0.18666450647E+01 -0.67112436355E+03  0.67212009887E+03  0.29491450668E+01 0.  0.
         13    1    3    3    0    0  0.34789087977E+02 -0.23931732719E+01 -0.64101147882E+03  0.64195928524E+03  0.00000000000E+00 0.  1.
          3    1    3    3  501    0  0.16160508606E+01  0.52652820720E+00 -0.30112884732E+02  0.30160813636E+02  0.00000000000E+00 0.  1.
         -1    1    1    2    0  502 -0.36405138837E+02  0.18666450647E+01 -0.32736611497E+03  0.32938942261E+03  0.00000000000E+00 0. -1.
<mgrwt>
<rscale>  1 0.30000000E+03</rscale>
<asrwt>0</asrwt>
<pdfrwt beam="1">  1       21 0.54891806E-02 0.30000000E+03</pdfrwt>
<pdfrwt beam="2">0</pdfrwt>
<totfact> 0.24556917E+04</totfact>
</mgrwt>
</event>
<event>
 6    1  0.1280499E-001  0.3000000E+03  0.7818608E-02  0.1093470E+00
         21   -1    0    0  501  502  0.00000000000E+00  0.00000000000E+00  0.14872095965E+01  0.14872095965E+01  0.00000000000E+00 0. -1.
         13   -1    0    0    0    0 -0.00000000000E+00 -0.00000000000E+00 -0.10000000000E+04  0.10000000000E+04  0.00000000000E+00 0.  1.
    9000005    2    1    2  501    0 -0.23393683436E+02 -0.30463273817E+02 -0.46872575571E+03  0.47030967091E+03  0.34751990839E+01 0.  0.
         13    1    3    3    0    0 -0.99877783483E+01 -0.10289667520E+02 -0.17781475156E+03  0.17839203695E+03  0.00000000000E+00 0.  1.
          3    1    3    3  501    0 -0.13405905087E+02 -0.20173606297E+02 -0.29091100415E+03  0.29191763396E+03  0.00000000000E+00 0.  1.
         -3    1    1    2    0  502  0.23393683436E+02  0.30463273817E+02 -0.52978703469E+03  0.53117753869E+03  0.00000000000E+00 0. -1.
<mgrwt>
<rscale>  1 0.30000000E+03</rscale>
<asrwt>0</asrwt>
<pdfrwt beam="1">  1       21 0.54080463E-02 0.30000000E+03</pdfrwt>
<pdfrwt beam="2">0</pdfrwt>
<totfact> 0.25191574E+04</totfact>
</mgrwt>
</event>
<event>
 6    1  0.1280499E-001  0.3000000E+03  0.7818608E-02  0.1093470E+00
         21   -1    0    0  501  502  0.00000000000E+00  0.00000000000E+00  0.13709333678E+01  0.13709333678E+01  0.00000000000E+00 0. -1.
         13   -1    0    0    0    0 -0.00000000000E+00 -0.00000000000E+00 -0.10000000000E+04  0.10000000000E+04  0.00000000000E+00 0.  1.
    9000005    2    1    2  501    0 -0.33968083866E+02 -0.23582895366E+00 -0.69711547294E+03  0.69794988348E+03  0.31891838475E+01 0.  0.
         13    1    3    3    0    0 -0.20488843045E+02 -0.53721817494E+00 -0.38902908162E+03  0.38956861736E+03  0.00000000000E+00 0.  1.
          1    1    3    3  501    0 -0.13479240821E+02  0.30138922128E+00 -0.30808639133E+03  0.30838126612E+03  0.00000000000E+00 0.  1.
         -3    1    1    2    0  502  0.33968083866E+02  0.23582895366E+00 -0.30151359369E+03  0.30342104989E+03  0.00000000000E+00 0. -1.
<mgrwt>
<rscale>  1 0.30000000E+03</rscale>
<asrwt>0</asrwt>
<pdfrwt beam="1">  1       21 0.49852228E-02 0.30000000E+03</pdfrwt>
<pdfrwt beam="2">0</pdfrwt>
<totfact> 0.28950351E+04</totfact>
</mgrwt>
</event>
<event>
 6    1  0.1280499E-001  0.3000000E+03  0.7818608E-02  0.1093470E+00
         21   -1    0    0  501  502  0.00000000000E+00  0.00000000000E+00  0.41687270047E+01  0.41687270047E+01  0.00000000000E+00 0. -1.
         13   -1    0    0    0    0 -0.00000000000E+00 -0.00000000000E+00 -0.10000000000E+04  0.10000000000E+04  0.00000000000E+00 0.  1.
    9000005    2    1    2  501    0  0.61055948539E+02 -0.96291814287E+01 -0.64217298852E+03  0.64514960193E+03  0.33632880824E+01 0.  0.
         13    1    3    3    0    0  0.74710807476E+01 -0.22236221283E+01 -0.76613814561E+02  0.77009337905E+02  0.00000000000E+00 0.  1.
          1    1    3    3  501    0  0.53584867792E+02 -0.74055593004E+01 -0.56555917396E+03  0.56814026403E+03  0.00000000000E+00 0.  1.
         -1    1    1    2    0  502 -0.61055948539E+02  0.96291814287E+01 -0.35365828448E+03  0.35901912507E+03  0.00000000000E+00 0. -1.
<mgrwt>
<rscale>  1 0.30000000E+03</rscale>
<asrwt>0</asrwt>
<pdfrwt beam="1">  1       21 0.15159039E-01 0.30000000E+03</pdfrwt>
<pdfrwt beam="2">0</pdfrwt>
<totfact> 0.40383771E+03</totfact>
</mgrwt>
</event>
<event>
 6    1  0.1280499E-001  0.3000000E+03  0.7818608E-02  0.1093470E+00
         21   -1    0    0  501  502  0.00000000000E+00  0.00000000000E+00  0.23352810298E+01  0.23352810298E+01  0.00000000000E+00 0. -1.
         13   -1    0    0    0    0 -0.00000000000E+00 -0.00000000000E+00 -0.10000000000E+04  0.10000000000E+04  0.00000000000E+00 0.  1.
    9000005    2    1    2  501    0  0.37838956265E+02  0.19234324023E+02 -0.26295344069E+03  0.26639886512E+03  0.47008014185E+01 0.  0.
         13    1    3    3    0    0  0.22208091527E+01  0.23830372722E+01 -0.17033447800E+02  0.17342122243E+02  0.00000000000E+00 0.  1.
          3    1    3    3  501    0  0.35618147113E+02  0.16851286751E+02 -0.24591999289E+03  0.24905674287E+03  0.00000000000E+00 0.  1.
         -3    1    1    2    0  502 -0.37838956265E+02 -0.19234324023E+02 -0.73471127828E+03  0.73593641591E+03  0.00000000000E+00 0. -1.
<mgrwt>
<rscale>  1 0.30000000E+03</rscale>
<asrwt>0</asrwt>
<pdfrwt beam="1">  1       21 0.84919489E-02 0.30000000E+03</pdfrwt>
<pdfrwt beam="2">0</pdfrwt>
<totfact> 0.11500463E+04</totfact>
</mgrwt>
</event>
<event>
 6    1  0.1280499E-001  0.3000000E+03  0.7818608E-02  0.1093470E+00
         21   -1    0    0  501  502  0.00000000000E+00  0.00000000000E+00  0.22920397302E+01  0.22920397302E+01  0.00000000000E+00 0. -1.
         13   -1    0    0    0    0 -0.00000000000E+00 -0.00000000000E+00 -0.10000000000E+04  0.10000000000E+04  0.00000000000E+00 0.  1.
    9000005    2    1    2  501    0  0.47386883966E+02  0.32911437286E+01 -0.44148782690E+03  0.44404730382E+03  0.31872143104E+01 0.  0.
         13    1    3    3    0    0  0.16609539808E+02  0.23440380524E+01 -0.14691472865E+03  0.14786922879E+03  0.00000000000E+00 0.  1.
          1    1    3    3  501    0  0.30777344158E+02  0.94710567623E+00 -0.29457309824E+03  0.29617807504E+03  0.00000000000E+00 0.  1.
         -1    1    1    2    0  502 -0.47386883966E+02 -0.32911437286E+01 -0.55622013337E+03  0.55824473591E+03  0.00000000000E+00 0. -1.
<mgrwt>
<rscale>  1 0.30000000E+03</rscale>
<asrwt>0</asrwt>
<pdfrwt beam="1">  1       21 0.83347075E-02 0.30000000E+03</pdfrwt>
<pdfrwt beam="2">0</pdfrwt>
<totfact> 0.11885518E+04</totfact>
</mgrwt>
</event>
<event>
 6    1  0.1280499E-001  0.3000000E+03  0.7818608E-02  0.1093470E+00
         21   -1    0    0  501  502  0.00000000000E+00  0.00000000000E+00  0.20946737592E+01  0.20946737592E+01  0.00000000000E+00 0. -1.
         13   -1    0    0    0    0 -0.00000000000E+00 -0.00000000000E+00 -0.10000000000E+04  0.10000000000E+04  0.00000000000E+00 0.  1.
    9000005    2    1    2  501    0 -0.17239754909E+02 -0.36119373388E+02 -0.74123955416E+03  0.74232720690E+03  0.34332436448E+01 0.  0.
         13    1    3    3    0    0 -0.35324290561E+01 -0.10190693141E+02 -0.18251218126E+03  0.18283058986E+03  0.00000000000E+00 0.  1.
          3    1    3    3  501    0 -0.13707325853E+02 -0.25928680247E+02 -0.55872737290E+03  0.55949661704E+03  0.00000000000E+00 0.  1.
         -3    1    1    2    0  502  0.17239754909E+02  0.36119373388E+02 -0.25666577208E+03  0.25976746686E+03  0.00000000000E+00 0. -1.
<mgrwt>
<rscale>  1 0.30000000E+03</rscale>
<asrwt>0</asrwt>
<pdfrwt beam="1">  1       21 0.76170116E-02 0.30000000E+03</pdfrwt>
<pdfrwt beam="2">0</pdfrwt>
<totfact> 0.13921816E+04</totfact>
</mgrwt>
</event>
<event>
 6    1  0.1280499E-001  0.3000000E+03  0.7818608E-02  0.1093470E+00
         21   -1    0    0  501  502  0.00000000000E+00  0.00000000000E+00  0.83275179917E+01  0.83275179917E+01  0.00000000000E+00 0. -1.
         13   -1    0    0    0    0 -0.00000000000E+00 -0.00000000000E+00 -0.10000000000E+04  0.10000000000E+04  0.00000000000E+00 0.  1.
    9000005    2    1    2  501    0  0.22034841479E+01 -0.77396082458E+02 -0.76170814342E+03  0.76567837634E+03  0.83109156896E+01 0.  0.
         13    1    3    3    0    0  0.46574202024E+01 -0.66564873830E+02 -0.66121723420E+03  0.66457565769E+03  0.00000000000E+00 0.  1.
          1    1    3    3  501    0 -0.24539360545E+01 -0.10831208628E+02 -0.10049090922E+03  0.10110271865E+03  0.00000000000E+00 0.  1.
         -3    1    1    2    0  502 -0.22034841479E+01  0.77396082458E+02 -0.22996433859E+03  0.24264914166E+03  0.00000000000E+00 0. -1.
<mgrwt>
<rscale>  1 0.30000000E+03</rscale>
<asrwt>0</asrwt>
<pdfrwt beam="1">  1       21 0.30281947E-01 0.30000000E+03</pdfrwt>
<pdfrwt beam="2">0</pdfrwt>
<totfact> 0.10671088E+03</totfact>
</mgrwt>
</event>
<event>
 6    1  0.1280499E-001  0.3000000E+03  0.7818608E-02  0.1093470E+00
         21   -1    0    0  501  502  0.00000000000E+00  0.00000000000E+00  0.16606581959E+01  0.16606581959E+01  0.00000000000E+00 0. -1.
         13   -1    0    0    0    0 -0.00000000000E+00 -0.00000000000E+00 -0.10000000000E+04  0.10000000000E+04  0.00000000000E+00 0.  1.
    9000005    2    1    2  501    0  0.36164897817E+02  0.18639806414E+02 -0.50408620732E+03  0.50573576150E+03  0.32270467256E+01 0.  0.
         13    1    3    3    0    0  0.11243610268E+02  0.42595712909E+01 -0.15543777403E+03  0.15590209850E+03  0.00000000000E+00 0.  1.
          3    1    3    3  501    0  0.24921287549E+02  0.14380235123E+02 -0.34864843329E+03  0.34983366300E+03  0.00000000000E+00 0.  1.
         -1    1    1    2    0  502 -0.36164897817E+02 -0.18639806414E+02 -0.49425313448E+03  0.49592489670E+03  0.00000000000E+00 0. -1.
<mgrwt>
<rscale>  1 0.30000000E+03</rscale>
<asrwt>0</asrwt>
<pdfrwt beam="1">  1       21 0.60387698E-02 0.30000000E+03</pdfrwt>
<pdfrwt beam="2">0</pdfrwt>
<totfact> 0.20838863E+04</totfact>
</mgrwt>
</event>
<event>
 6    1  0.1280499E-001  0.3000000E+03  0.7818608E-02  0.1093470E+00
         21   -1    0    0  501  502  0.00000000000E+00  0.00000000000E+00  0.18355599826E+01  0.18355599826E+01  0.00000000000E+00 0. -1.
         13   -1    0    0    0    0 -0.00000000000E+00 -0.00000000000E+00 -0.10000000000E+04  0.10000000000E+04  0.00000000000E+00 0.  1.
    9000005    2    1    2  501    0  0.26645416313E+02  0.27883075112E+02 -0.71634559501E+03  0.71738994921E+03  0.31438264230E+01 0.  0.
         13    1    3    3    0    0  0.13621110121E+02  0.16054291969E+02 -0.37253576775E+03  0.37313023622E+03  0.00000000000E+00 0.  1.
          1    1    3    3  501    0  0.13024306192E+02  0.11828783143E+02 -0.34380982726E+03  0.34425971298E+03  0.00000000000E+00 0.  1.
         -1    1    1    2    0  502 -0.26645416313E+02 -0.27883075112E+02 -0.28181884501E+03  0.28444561078E+03  0.00000000000E+00 0. -1.
<mgrwt>
<rscale>  1 0.30000000E+03</rscale>
<asrwt>0</asrwt>
<pdfrwt beam="1">  1       21 0.66747776E-02 0.30000000E+03</pdfrwt>
<pdfrwt beam="2">0</pdfrwt>
<totfact> 0.17525455E+04</totfact>
</mgrwt>
</event>
<event>
 6    1  0.1280499E-001  0.3000000E+03  0.7818608E-02  0.1093470E+00
         21   -1    0    0  501  502  0.00000000000E+00  0.00000000000E+00  0.46537842153E+01  0.46537842153E+01  0.00000000000E+00 0. -1.
         13   -1    0    0    0    0 -0.00000000000E+00 -0.00000000000E+00 -0.10000000000E+04  0.10000000000E+04  0.00000000000E+00 0.  1.
    9000005    2    1    2  501    0  0.62168902115E+02 -0.18035213479E+02 -0.65259913179E+03  0.65584752725E+03  0.77531196088E+01 0.  0.
         13    1    3    3    0    0  0.33494843162E+02 -0.56974294483E+01 -0.33695397316E+03  0.33866258319E+03  0.00000000000E+00 0.  1.
          1    1    3    3  501    0  0.28674058953E+02 -0.12337784030E+02 -0.31564515863E+03  0.31718494406E+03  0.00000000000E+00 0.  1.
         -1    1    1    2    0  502 -0.62168902115E+02  0.18035213479E+02 -0.34274708399E+03  0.34880625697E+03  0.00000000000E+00 0. -1.
<mgrwt>
<rscale>  1 0.30000000E+03</rscale>
<asrwt>0</asrwt>
<pdfrwt beam="1">  1       21 0.16922887E-01 0.30000000E+03</pdfrwt>
<pdfrwt beam="2">0</pdfrwt>
<totfact> 0.32894061E+03</totfact>
</mgrwt>
</event>
<event>
 6    1  0.1280499E-001  0.3000000E+03  0.7818608E-02  0.1093470E+00
         21   -1    0    0  501  502  0.00000000000E+00  0.00000000000E+00  0.31340003334E+01  0.31340003334E+01  0.00000000000E+00 0. -1.
         13   -1    0    0    0    0 -0.00000000000E+00 -0.00000000000E+00 -0.10000000000E+04  0.10000000000E+04  0.00000000000E+00 0.  1.
    9000005    2    1    2  501    0 -0.37232676465E+02  0.25678118886E+02 -0.79379487457E+03  0.79508708295E+03  0.27438273021E+01 0.  0.
         13    1    3    3    0    0 -0.29786379221E+02  0.20076624019E+02 -0.64782637065E+03  0.64882147447E+03  0.00000000000E+00 0.  1.
          1    1    3    3  501    0 -0.74462972433E+01  0.56014948672E+01 -0.14596850392E+03  0.14626560848E+03  0.00000000000E+00 0.  1.
         -3    1    1    2    0  502  0.37232676465E+02 -0.25678118886E+02 -0.20307112510E+03  0.20804691739E+03  0.00000000000E+00 0. -1.
<mgrwt>
<rscale>  1 0.30000000E+03</rscale>
<asrwt>0</asrwt>
<pdfrwt beam="1">  1       21 0.11396389E-01 0.30000000E+03</pdfrwt>
<pdfrwt beam="2">0</pdfrwt>
<totfact> 0.68038455E+03</totfact>
</mgrwt>
</event>
<event>
 6    1  0.1280499E-001  0.3000000E+03  0.7818608E-02  0.1093470E+00
         21   -1    0    0  501  502  0.00000000000E+00  0.00000000000E+00  0.59080947206E+01  0.59080947206E+01  0.00000000000E+00 0. -1.
         13   -1    0    0    0    0 -0.00000000000E+00 -0.00000000000E+00 -0.10000000000E+04  0.10000000000E+04  0.00000000000E+00 0.  1.
    9000005    2    1    2  501    0  0.89880256441E+01 -0.48457751624E+02 -0.88293571201E+03  0.88431599959E+03  0.32213787263E+01 0.  0.
         13    1    3    3    0    0  0.85357248709E+01 -0.47346405079E+02 -0.86795883116E+03  0.86929113262E+03  0.00000000000E+00 0.  1.
          3    1    3    3  501    0  0.45230077314E+00 -0.11113465449E+01 -0.14976880854E+02  0.15024866962E+02  0.00000000000E+00 0.  1.
         -3    1    1    2    0  502 -0.89880256441E+01  0.48457751624E+02 -0.11115619327E+03  0.12159209514E+03  0.00000000000E+00 0. -1.
<mgrwt>
<rscale>  1 0.30000000E+03</rscale>
<asrwt>0</asrwt>
<pdfrwt beam="1">  1       21 0.21484026E-01 0.30000000E+03</pdfrwt>
<pdfrwt beam="2">0</pdfrwt>
<totfact> 0.20919234E+03</totfact>
</mgrwt>
</event>
<event>
 6    1  0.1280499E-001  0.3000000E+03  0.7818608E-02  0.1093470E+00
         21   -1    0    0  501  502  0.00000000000E+00  0.00000000000E+00  0.20603154084E+01  0.20603154084E+01  0.00000000000E+00 0. -1.
         13   -1    0    0    0    0 -0.00000000000E+00 -0.00000000000E+00 -0.10000000000E+04  0.10000000000E+04  0.00000000000E+00 0.  1.
    9000005    2    1    2  501    0  0.28310932674E+02 -0.34152936292E+02 -0.60113459396E+03  0.60278320373E+03  0.41059306408E+01 0.  0.
         13    1    3    3    0    0  0.13860211199E+02 -0.19924000454E+02 -0.32726484222E+03  0.32816359975E+03  0.00000000000E+00 0.  1.
          1    1    3    3  501    0  0.14450721475E+02 -0.14228935838E+02 -0.27386975174E+03  0.27461960397E+03  0.00000000000E+00 0.  1.
         -3    1    1    2    0  502 -0.28310932674E+02  0.34152936292E+02 -0.39680509063E+03  0.39927711168E+03  0.00000000000E+00 0. -1.
<mgrwt>
<rscale>  1 0.30000000E+03</rscale>
<asrwt>0</asrwt>
<pdfrwt beam="1">  1       21 0.74920718E-02 0.30000000E+03</pdfrwt>
<pdfrwt beam="2">0</pdfrwt>
<totfact> 0.14330976E+04</totfact>
</mgrwt>
</event>
<event>
 6    1  0.1280499E-001  0.3000000E+03  0.7818608E-02  0.1093470E+00
         21   -1    0    0  501  502  0.00000000000E+00  0.00000000000E+00  0.27068582739E+01  0.27068582739E+01  0.00000000000E+00 0. -1.
         13   -1    0    0    0    0 -0.00000000000E+00 -0.00000000000E+00 -0.10000000000E+04  0.10000000000E+04  0.00000000000E+00 0.  1.
    9000005    2    1    2  501    0 -0.38733089532E+02  0.24130390339E+02 -0.73893093848E+03  0.74034535952E+03  0.31291462049E+01 0.  0.
         13    1    3    3    0    0 -0.20649531643E+02  0.11117827321E+02 -0.38700992487E+03  0.38771986174E+03  0.00000000000E+00 0.  1.
          1    1    3    3  501    0 -0.18083557889E+02  0.13012563018E+02 -0.35192101361E+03  0.35262549778E+03  0.00000000000E+00 0.  1.
         -3    1    1    2    0  502  0.38733089532E+02 -0.24130390339E+02 -0.25836220325E+03  0.26236149875E+03  0.00000000000E+00 0. -1.
<mgrwt>
<rscale>  1 0.30000000E+03</rscale>
<asrwt>0</asrwt>
<pdfrwt beam="1">  1       21 0.98431418E-02 0.30000000E+03</pdfrwt>
<pdfrwt beam="2">0</pdfrwt>
<totfact> 0.88495896E+03</totfact>
</mgrwt>
</event>
<event>
 6    1  0.1280499E-001  0.3000000E+03  0.7818608E-02  0.1093470E+00
         21   -1    0    0  501  502  0.00000000000E+00  0.00000000000E+00  0.36742567983E+01  0.36742567983E+01  0.00000000000E+00 0. -1.
         13   -1    0    0    0    0 -0.00000000000E+00 -0.00000000000E+00 -0.10000000000E+04  0.10000000000E+04  0.00000000000E+00 0.  1.
    9000005    2    1    2  501    0  0.50609508690E+02 -0.33201824860E+02 -0.48246909942E+03  0.48626500494E+03  0.36796189762E+01 0.  0.
         13    1    3    3    0    0  0.45228764615E+02 -0.30427092807E+02 -0.42649356973E+03  0.42996303811E+03  0.00000000000E+00 0.  1.
          3    1    3    3  501    0  0.53807440752E+01 -0.27747320533E+01 -0.55975529689E+02  0.56301966828E+02  0.00000000000E+00 0.  1.
         -1    1    1    2    0  502 -0.50609508690E+02  0.33201824860E+02 -0.51385664379E+03  0.51740925186E+03  0.00000000000E+00 0. -1.
<mgrwt>
<rscale>  1 0.30000000E+03</rscale>
<asrwt>0</asrwt>
<pdfrwt beam="1">  1       21 0.13360962E-01 0.30000000E+03</pdfrwt>
<pdfrwt beam="2">0</pdfrwt>
<totfact> 0.50949526E+03</totfact>
</mgrwt>
</event>
<event>
 6    1  0.1280499E-001  0.3000000E+03  0.7818608E-02  0.1093470E+00
         21   -1    0    0  501  502  0.00000000000E+00  0.00000000000E+00  0.57050500547E+01  0.57050500547E+01  0.00000000000E+00 0. -1.
         13   -1    0    0    0    0 -0.00000000000E+00 -0.00000000000E+00 -0.10000000000E+04  0.10000000000E+04  0.00000000000E+00 0.  1.
    9000005    2    1    2  501    0  0.40001263150E+02  0.49231260170E+02 -0.76988284383E+03  0.77249996563E+03  0.35757011949E+01 0.  0.
         13    1    3    3    0    0  0.13379577727E+02  0.14282938961E+02 -0.22633790554E+03  0.22718244415E+03  0.00000000000E+00 0.  1.
          3    1    3    3  501    0  0.26621685423E+02  0.34948321209E+02 -0.54354493829E+03  0.54531752148E+03  0.00000000000E+00 0.  1.
         -1    1    1    2    0  502 -0.40001263150E+02 -0.49231260170E+02 -0.22441210611E+03  0.23320508442E+03  0.00000000000E+00 0. -1.
<mgrwt>
<rscale>  1 0.30000000E+03</rscale>
<asrwt>0</asrwt>
<pdfrwt beam="1">  1       21 0.20745680E-01 0.30000000E+03</pdfrwt>
<pdfrwt beam="2">0</pdfrwt>
<totfact> 0.22370388E+03</totfact>
</mgrwt>
</event>
<event>
 6    1  0.1280499E-001  0.3000000E+03  0.7818608E-02  0.1093470E+00
         21   -1    0    0  501  502  0.00000000000E+00  0.00000000000E+00  0.15412394343E+02  0.15412394343E+02  0.00000000000E+00 0. -1.
         13   -1    0    0    0    0 -0.00000000000E+00 -0.00000000000E+00 -0.10000000000E+04  0.10000000000E+04  0.00000000000E+00 0.  1.
    9000005    2    1    2  501    0 -0.91184321527E+02  0.64841041128E+02 -0.71214894301E+03  0.72089284318E+03  0.33813051288E+01 0.  0.
         13    1    3    3    0    0 -0.76483721111E+02  0.55524011123E+02 -0.60647128214E+03  0.61379157005E+03  0.00000000000E+00 0.  1.
          1    1    3    3  501    0 -0.14700600416E+02  0.93170300046E+01 -0.10567766087E+03  0.10710127313E+03  0.00000000000E+00 0.  1.
         -3    1    1    2    0  502  0.91184321527E+02 -0.64841041128E+02 -0.27243866265E+03  0.29451955116E+03  0.00000000000E+00 0. -1.
<mgrwt>
<rscale>  1 0.30000000E+03</rscale>
<asrwt>0</asrwt>
<pdfrwt beam="1">  1       21 0.56045189E-01 0.30000000E+03</pdfrwt>
<pdfrwt beam="2">0</pdfrwt>
<totfact> 0.29242623E+02</totfact>
</mgrwt>
</event>
<event>
 6    1  0.1280499E-001  0.3000000E+03  0.7818608E-02  0.1093470E+00
         21   -1    0    0  501  502  0.00000000000E+00  0.00000000000E+00  0.22324232156E+01  0.22324232156E+01  0.00000000000E+00 0. -1.
         13   -1    0    0    0    0 -0.00000000000E+00 -0.00000000000E+00 -0.10000000000E+04  0.10000000000E+04  0.00000000000E+00 0.  1.
    9000005    2    1    2  501    0  0.26227356108E+02  0.20145249360E+02 -0.85655177051E+03  0.85719584431E+03  0.31740590228E+01 0.  0.
         13    1    3    3    0    0  0.13387115960E+02  0.93061217579E+01 -0.45759387947E+03  0.45788424007E+03  0.00000000000E+00 0.  1.
          3    1    3    3  501    0  0.12840240148E+02  0.10839127602E+02 -0.39895789105E+03  0.39931160424E+03  0.00000000000E+00 0.  1.
         -3    1    1    2    0  502 -0.26227356108E+02 -0.20145249360E+02 -0.14121580627E+03  0.14503657891E+03  0.00000000000E+00 0. -1.
<mgrwt>
<rscale>  1 0.30000000E+03</rscale>
<asrwt>0</asrwt>
<pdfrwt beam="1">  1       21 0.81179197E-02 0.30000000E+03</pdfrwt>
<pdfrwt beam="2">0</pdfrwt>
<totfact> 0.12449612E+04</totfact>
</mgrwt>
</event>
<event>
 6    1  0.1280499E-001  0.3000000E+03  0.7818608E-02  0.1093470E+00
         21   -1    0    0  501  502  0.00000000000E+00  0.00000000000E+00  0.47866141834E+01  0.47866141834E+01  0.00000000000E+00 0. -1.
         13   -1    0    0    0    0 -0.00000000000E+00 -0.00000000000E+00 -0.10000000000E+04  0.10000000000E+04  0.00000000000E+00 0.  1.
    9000005    2    1    2  501    0 -0.36460058777E+02  0.37314133995E+02 -0.82734126636E+03  0.82899489375E+03  0.41572059251E+01 0.  0.
         13    1    3    3    0    0 -0.20136833373E+02  0.22627546660E+02 -0.45582320512E+03  0.45682851515E+03  0.00000000000E+00 0.  1.
          1    1    3    3  501    0 -0.16323225404E+02  0.14686587335E+02 -0.37151806124E+03  0.37216637860E+03  0.00000000000E+00 0.  1.
         -3    1    1    2    0  502  0.36460058777E+02 -0.37314133995E+02 -0.16787211946E+03  0.17579172043E+03  0.00000000000E+00 0. -1.
<mgrwt>
<rscale>  1 0.30000000E+03</rscale>
<asrwt>0</asrwt>
<pdfrwt beam="1">  1       21 0.17405906E-01 0.30000000E+03</pdfrwt>
<pdfrwt beam="2">0</pdfrwt>
<totfact> 0.31203702E+03</totfact>
</mgrwt>
</event>
<event>
 6    1  0.1280499E-001  0.3000000E+03  0.7818608E-02  0.1093470E+00
         21   -1    0    0  501  502  0.00000000000E+00  0.00000000000E+00  0.22113361463E+01  0.22113361463E+01  0.00000000000E+00 0. -1.
         13   -1    0    0    0    0 -0.00000000000E+00 -0.00000000000E+00 -0.10000000000E+04  0.10000000000E+04  0.00000000000E+00 0.  1.
    9000005    2    1    2  501    0 -0.23606584677E+02 -0.26346415658E+02 -0.82852976753E+03  0.82929523382E+03  0.41957954554E+01 0.  0.
         13    1    3    3    0    0 -0.26365609633E+01 -0.51749744504E+01 -0.14469708449E+03  0.14481359769E+03  0.00000000000E+00 0.  1.
          1    1    3    3  501    0 -0.20970023714E+02 -0.21171441208E+02 -0.68383268304E+03  0.68448163614E+03  0.00000000000E+00 0.  1.
         -3    1    1    2    0  502  0.23606584677E+02  0.26346415658E+02 -0.16925889633E+03  0.17291610233E+03  0.00000000000E+00 0. -1.
<mgrwt>
<rscale>  1 0.30000000E+03</rscale>
<asrwt>0</asrwt>
<pdfrwt beam="1">  1       21 0.80412393E-02 0.30000000E+03</pdfrwt>
<pdfrwt beam="2">0</pdfrwt>
<totfact> 0.12659009E+04</totfact>
</mgrwt>
</event>
<event>
 6    1  0.1280499E-001  0.3000000E+03  0.7818608E-02  0.1093470E+00
         21   -1    0    0  501  502  0.00000000000E+00  0.00000000000E+00  0.41906595438E+01  0.41906595438E+01  0.00000000000E+00 0. -1.
         13   -1    0    0    0    0 -0.00000000000E+00 -0.00000000000E+00 -0.10000000000E+04  0.10000000000E+04  0.00000000000E+00 0.  1.
    9000005    2    1    2  501    0  0.15577345315E+02 -0.37521754525E+02 -0.88873394134E+03  0.88966696398E+03  0.29584722711E+01 0.  0.
         13    1    3    3    0    0  0.97311504204E+01 -0.19642878605E+02 -0.47313777390E+03  0.47364532200E+03  0.00000000000E+00 0.  1.
          1    1    3    3  501    0  0.58461948951E+01 -0.17878875920E+02 -0.41559616744E+03  0.41602164197E+03  0.00000000000E+00 0.  1.
         -3    1    1    2    0  502 -0.15577345315E+02  0.37521754525E+02 -0.10707539912E+03  0.11452369557E+03  0.00000000000E+00 0. -1.
<mgrwt>
<rscale>  1 0.30000000E+03</rscale>
<asrwt>0</asrwt>
<pdfrwt beam="1">  1       21 0.15238794E-01 0.30000000E+03</pdfrwt>
<pdfrwt beam="2">0</pdfrwt>
<totfact> 0.39992820E+03</totfact>
</mgrwt>
</event>
<event>
 6    1  0.1280499E-001  0.3000000E+03  0.7818608E-02  0.1093470E+00
         21   -1    0    0  501  502  0.00000000000E+00  0.00000000000E+00  0.14148614963E+01  0.14148614963E+01  0.00000000000E+00 0. -1.
         13   -1    0    0    0    0 -0.00000000000E+00 -0.00000000000E+00 -0.10000000000E+04  0.10000000000E+04  0.00000000000E+00 0.  1.
    9000005    2    1    2  501    0 -0.10931446977E+02 -0.35333218505E+02 -0.41349611132E+03  0.41515800431E+03  0.30334148900E+01 0.  0.
         13    1    3    3    0    0 -0.56804560672E+01 -0.15995876798E+02 -0.17473446841E+03  0.17555702808E+03  0.00000000000E+00 0.  1.
          3    1    3    3  501    0 -0.52509909094E+01 -0.19337341707E+02 -0.23876164290E+03  0.23960097623E+03  0.00000000000E+00 0.  1.
         -1    1    1    2    0  502  0.10931446977E+02  0.35333218505E+02 -0.58508902719E+03  0.58625685719E+03  0.00000000000E+00 0. -1.
<mgrwt>
<rscale>  1 0.30000000E+03</rscale>
<asrwt>0</asrwt>
<pdfrwt beam="1">  1       21 0.51449617E-02 0.30000000E+03</pdfrwt>
<pdfrwt beam="2">0</pdfrwt>
<totfact> 0.27433917E+04</totfact>
</mgrwt>
</event>
<event>
 6    1  0.1280499E-001  0.3000000E+03  0.7818608E-02  0.1093470E+00
         21   -1    0    0  501  502  0.00000000000E+00  0.00000000000E+00  0.12143479280E+01  0.12143479280E+01  0.00000000000E+00 0. -1.
         13   -1    0    0    0    0 -0.00000000000E+00 -0.00000000000E+00 -0.10000000000E+04  0.10000000000E+04  0.00000000000E+00 0.  1.
    9000005    2    1    2  501    0  0.17551760504E+02 -0.27905078310E+02 -0.65954254527E+03  0.66037326589E+03  0.31182669249E+01 0.  0.
         13    1    3    3    0    0  0.16122600282E+02 -0.26674142193E+02 -0.61167611599E+03  0.61246968821E+03  0.00000000000E+00 0.  1.
          3    1    3    3  501    0  0.14291602227E+01 -0.12309361170E+01 -0.47866429278E+02  0.47903577679E+02  0.00000000000E+00 0.  1.
         -3    1    1    2    0  502 -0.17551760504E+02  0.27905078310E+02 -0.33924310681E+03  0.34084108204E+03  0.00000000000E+00 0. -1.
<mgrwt>
<rscale>  1 0.30000000E+03</rscale>
<asrwt>0</asrwt>
<pdfrwt beam="1">  1       21 0.44158200E-02 0.30000000E+03</pdfrwt>
<pdfrwt beam="2">0</pdfrwt>
<totfact> 0.35579407E+04</totfact>
</mgrwt>
</event>
<event>
 6    1  0.1280499E-001  0.3000000E+03  0.7818608E-02  0.1093470E+00
         21   -1    0    0  501  502  0.00000000000E+00  0.00000000000E+00  0.24197416754E+01  0.24197416754E+01  0.00000000000E+00 0. -1.
         13   -1    0    0    0    0 -0.00000000000E+00 -0.00000000000E+00 -0.10000000000E+04  0.10000000000E+04  0.00000000000E+00 0.  1.
    9000005    2    1    2  501    0 -0.36827064195E+02 -0.31753377962E+02 -0.43656905918E+03  0.43930512170E+03  0.56512693760E+01 0.  0.
         13    1    3    3    0    0 -0.16010554322E+02 -0.12206383231E+02 -0.15843990104E+03  0.15971391888E+03  0.00000000000E+00 0.  1.
          3    1    3    3  501    0 -0.20816509872E+02 -0.19546994731E+02 -0.27812915814E+03  0.27959120282E+03  0.00000000000E+00 0.  1.
         -1    1    1    2    0  502  0.36827064195E+02  0.31753377962E+02 -0.56101119914E+03  0.56311461998E+03  0.00000000000E+00 0. -1.
<mgrwt>
<rscale>  1 0.30000000E+03</rscale>
<asrwt>0</asrwt>
<pdfrwt beam="1">  1       21 0.87990792E-02 0.30000000E+03</pdfrwt>
<pdfrwt beam="2">0</pdfrwt>
<totfact> 0.10801191E+04</totfact>
</mgrwt>
</event>
<event>
 6    1  0.1280499E-001  0.3000000E+03  0.7818608E-02  0.1093470E+00
         21   -1    0    0  501  502  0.00000000000E+00  0.00000000000E+00  0.37453626807E+01  0.37453626807E+01  0.00000000000E+00 0. -1.
         13   -1    0    0    0    0 -0.00000000000E+00 -0.00000000000E+00 -0.10000000000E+04  0.10000000000E+04  0.00000000000E+00 0.  1.
    9000005    2    1    2  501    0 -0.35435559710E+02  0.12867914776E+02 -0.89330996362E+03  0.89411476491E+03  0.41544699099E+01 0.  0.
         13    1    3    3    0    0 -0.25409481566E+02  0.10977374815E+02 -0.63273169167E+03  0.63333682836E+03  0.00000000000E+00 0.  1.
          3    1    3    3  501    0 -0.10026078145E+02  0.18905399606E+01 -0.26057827194E+03  0.26077793655E+03  0.00000000000E+00 0.  1.
         -3    1    1    2    0  502  0.35435559710E+02 -0.12867914776E+02 -0.10294467370E+03  0.10963059777E+03  0.00000000000E+00 0. -1.
<mgrwt>
<rscale>  1 0.30000000E+03</rscale>
<asrwt>0</asrwt>
<pdfrwt beam="1">  1       21 0.13619529E-01 0.30000000E+03</pdfrwt>
<pdfrwt beam="2">0</pdfrwt>
<totfact> 0.49192094E+03</totfact>
</mgrwt>
</event>
<event>
 6    1  0.1280499E-001  0.3000000E+03  0.7818608E-02  0.1093470E+00
         21   -1    0    0  501  502  0.00000000000E+00  0.00000000000E+00  0.35008345710E+01  0.35008345710E+01  0.00000000000E+00 0. -1.
         13   -1    0    0    0    0 -0.00000000000E+00 -0.00000000000E+00 -0.10000000000E+04  0.10000000000E+04  0.00000000000E+00 0.  1.
    9000005    2    1    2  501    0  0.39255682620E+00  0.59083820847E+02 -0.49733474397E+03  0.50085168095E+03  0.44166460966E+01 0.  0.
         13    1    3    3    0    0  0.96862467470E-01  0.37775006844E+02 -0.29969055227E+03  0.30206189373E+03  0.00000000000E+00 0.  1.
          1    1    3    3  501    0  0.29569435873E+00  0.21308814003E+02 -0.19764419170E+03  0.19878978722E+03  0.00000000000E+00 0.  1.
         -3    1    1    2    0  502 -0.39255682620E+00 -0.59083820847E+02 -0.49916442146E+03  0.50264915362E+03  0.00000000000E+00 0. -1.
<mgrwt>
<rscale>  1 0.30000000E+03</rscale>
<asrwt>0</asrwt>
<pdfrwt beam="1">  1       21 0.12730334E-01 0.30000000E+03</pdfrwt>
<pdfrwt beam="2">0</pdfrwt>
<totfact> 0.55653859E+03</totfact>
</mgrwt>
</event>
<event>
 6    1  0.1280499E-001  0.3000000E+03  0.7818608E-02  0.1093470E+00
         21   -1    0    0  501  502  0.00000000000E+00  0.00000000000E+00  0.13152198925E+02  0.13152198925E+02  0.00000000000E+00 0. -1.
         13   -1    0    0    0    0 -0.00000000000E+00 -0.00000000000E+00 -0.10000000000E+04  0.10000000000E+04  0.00000000000E+00 0.  1.
    9000005    2    1    2  501    0  0.90167346339E+02 -0.70524228672E+02 -0.46490433816E+03  0.47880325333E+03  0.35629464354E+01 0.  0.
         13    1    3    3    0    0  0.18539515720E+01 -0.21497529778E+01 -0.11601054979E+02  0.11943326627E+02  0.00000000000E+00 0.  1.
          1    1    3    3  501    0  0.88313394767E+02 -0.68374475694E+02 -0.45330328318E+03  0.46685992670E+03  0.00000000000E+00 0.  1.
         -3    1    1    2    0  502 -0.90167346339E+02  0.70524228672E+02 -0.52194346292E+03  0.53434894559E+03  0.00000000000E+00 0. -1.
<mgrwt>
<rscale>  1 0.30000000E+03</rscale>
<asrwt>0</asrwt>
<pdfrwt beam="1">  1       21 0.47826279E-01 0.30000000E+03</pdfrwt>
<pdfrwt beam="2">0</pdfrwt>
<totfact> 0.41355609E+02</totfact>
</mgrwt>
</event>
<event>
 6    1  0.1280499E-001  0.3000000E+03  0.7818608E-02  0.1093470E+00
         21   -1    0    0  501  502  0.00000000000E+00  0.00000000000E+00  0.39880329733E+01  0.39880329733E+01  0.00000000000E+00 0. -1.
         13   -1    0    0    0    0 -0.00000000000E+00 -0.00000000000E+00 -0.10000000000E+04  0.10000000000E+04  0.00000000000E+00 0.  1.
    9000005    2    1    2  501    0  0.38540627505E+02  0.48237032542E+02 -0.39466180925E+03  0.39947649170E+03  0.33663722307E+01 0.  0.
         13    1    3    3    0    0  0.25406069289E+02  0.29532580464E+02 -0.25386865216E+03  0.25684028931E+03  0.00000000000E+00 0.  1.
          3    1    3    3  501    0  0.13134558216E+02  0.18704452078E+02 -0.14079315709E+03  0.14263620238E+03  0.00000000000E+00 0.  1.
         -1    1    1    2    0  502 -0.38540627505E+02 -0.48237032542E+02 -0.60135015778E+03  0.60451154128E+03  0.00000000000E+00 0. -1.
<mgrwt>
<rscale>  1 0.30000000E+03</rscale>
<asrwt>0</asrwt>
<pdfrwt beam="1">  1       21 0.14501969E-01 0.30000000E+03</pdfrwt>
<pdfrwt beam="2">0</pdfrwt>
<totfact> 0.43830799E+03</totfact>
</mgrwt>
</event>
<event>
 6    1  0.1280499E-001  0.3000000E+03  0.7818608E-02  0.1093470E+00
         21   -1    0    0  501  502  0.00000000000E+00  0.00000000000E+00  0.16442899910E+01  0.16442899910E+01  0.00000000000E+00 0. -1.
         13   -1    0    0    0    0 -0.00000000000E+00 -0.00000000000E+00 -0.10000000000E+04  0.10000000000E+04  0.00000000000E+00 0.  1.
    9000005    2    1    2  501    0  0.28471996326E+02 -0.28776240619E+02 -0.47693185072E+03  0.47865139555E+03  0.21075181370E+01 0.  0.
         13    1    3    3    0    0  0.35991493327E+01 -0.35858406794E+01 -0.68585582584E+02  0.68773499749E+02  0.00000000000E+00 0.  1.
          3    1    3    3  501    0  0.24872846993E+02 -0.25190399940E+02 -0.40834626814E+03  0.40987789580E+03  0.00000000000E+00 0.  1.
         -1    1    1    2    0  502 -0.28471996326E+02  0.28776240619E+02 -0.52142385929E+03  0.52299289444E+03  0.00000000000E+00 0. -1.
<mgrwt>
<rscale>  1 0.30000000E+03</rscale>
<asrwt>0</asrwt>
<pdfrwt beam="1">  1       21 0.59792489E-02 0.30000000E+03</pdfrwt>
<pdfrwt beam="2">0</pdfrwt>
<totfact> 0.21197937E+04</totfact>
</mgrwt>
</event>
<event>
 6    1  0.1280499E-001  0.3000000E+03  0.7818608E-02  0.1093470E+00
         21   -1    0    0  501  502  0.00000000000E+00  0.00000000000E+00  0.17199038979E+01  0.17199038979E+01  0.00000000000E+00 0. -1.
         13   -1    0    0    0    0 -0.00000000000E+00 -0.00000000000E+00 -0.10000000000E+04  0.10000000000E+04  0.00000000000E+00 0.  1.
    9000005    2    1    2  501    0  0.26367369423E+02  0.19157748149E+02 -0.80839986394E+03  0.80906279905E+03  0.31646951731E+01 0.  0.
         13    1    3    3    0    0  0.34800069611E+01  0.33597445225E+01 -0.14378477741E+03  0.14386612022E+03  0.00000000000E+00 0.  1.
          3    1    3    3  501    0  0.22887362462E+02  0.15798003627E+02 -0.66461508653E+03  0.66519667883E+03  0.00000000000E+00 0.  1.
         -3    1    1    2    0  502 -0.26367369423E+02 -0.19157748149E+02 -0.18988023216E+03  0.19265710485E+03  0.00000000000E+00 0. -1.
<mgrwt>
<rscale>  1 0.30000000E+03</rscale>
<asrwt>0</asrwt>
<pdfrwt beam="1">  1       21 0.62542092E-02 0.30000000E+03</pdfrwt>
<pdfrwt beam="2">0</pdfrwt>
<totfact> 0.19615137E+04</totfact>
</mgrwt>
</event>
<event>
 6    1  0.1280499E-001  0.3000000E+03  0.7818608E-02  0.1093470E+00
         21   -1    0    0  501  502  0.00000000000E+00  0.00000000000E+00  0.14270465423E+01  0.14270465423E+01  0.00000000000E+00 0. -1.
         13   -1    0    0    0    0 -0.00000000000E+00 -0.00000000000E+00 -0.10000000000E+04  0.10000000000E+04  0.00000000000E+00 0.  1.
    9000005    2    1    2  501    0  0.36480948726E+02  0.95655827023E+01 -0.49564656223E+03  0.49708855408E+03  0.30258797240E+01 0.  0.
         13    1    3    3    0    0  0.13675094669E+02  0.23181569348E+01 -0.19236543351E+03  0.19286482851E+03  0.00000000000E+00 0.  1.
          1    1    3    3  501    0  0.22805854058E+02  0.72474257675E+01 -0.30328112872E+03  0.30422372557E+03  0.00000000000E+00 0.  1.
         -3    1    1    2    0  502 -0.36480948726E+02 -0.95655827023E+01 -0.50292639123E+03  0.50433849247E+03  0.00000000000E+00 0. -1.
<mgrwt>
<rscale>  1 0.30000000E+03</rscale>
<asrwt>0</asrwt>
<pdfrwt beam="1">  1       21 0.51892711E-02 0.30000000E+03</pdfrwt>
<pdfrwt beam="2">0</pdfrwt>
<totfact> 0.27035099E+04</totfact>
</mgrwt>
</event>
<event>
 6    1  0.1280499E-001  0.3000000E+03  0.7818608E-02  0.1093470E+00
         21   -1    0    0  501  502  0.00000000000E+00  0.00000000000E+00  0.20878483159E+01  0.20878483159E+01  0.00000000000E+00 0. -1.
         13   -1    0    0    0    0 -0.00000000000E+00 -0.00000000000E+00 -0.10000000000E+04  0.10000000000E+04  0.00000000000E+00 0.  1.
    9000005    2    1    2  501    0 -0.38176597001E+02  0.19037058683E+02 -0.32728680639E+03  0.33010703318E+03  0.58427352403E+01 0.  0.
         13    1    3    3    0    0 -0.13984972038E+02  0.40410168589E+01 -0.11744328349E+03  0.11834202169E+03  0.00000000000E+00 0.  1.
          1    1    3    3  501    0 -0.24191624963E+02  0.14996041824E+02 -0.20984352290E+03  0.21176501149E+03  0.00000000000E+00 0.  1.
         -3    1    1    2    0  502  0.38176597001E+02 -0.19037058683E+02 -0.67062534530E+03  0.67198081514E+03  0.00000000000E+00 0. -1.
<mgrwt>
<rscale>  1 0.30000000E+03</rscale>
<asrwt>0</asrwt>
<pdfrwt beam="1">  1       21 0.75921917E-02 0.30000000E+03</pdfrwt>
<pdfrwt beam="2">0</pdfrwt>
<totfact> 0.14001648E+04</totfact>
</mgrwt>
</event>
<event>
 6    1  0.1280499E-001  0.3000000E+03  0.7818608E-02  0.1093470E+00
         21   -1    0    0  501  502  0.00000000000E+00  0.00000000000E+00  0.14427504394E+01  0.14427504394E+01  0.00000000000E+00 0. -1.
         13   -1    0    0    0    0 -0.00000000000E+00 -0.00000000000E+00 -0.10000000000E+04  0.10000000000E+04  0.00000000000E+00 0.  1.
    9000005    2    1    2  501    0  0.35317863890E+02  0.68765359295E+01 -0.65809636497E+03  0.65908584282E+03  0.29469250914E+01 0.  0.
         13    1    3    3    0    0  0.10011791350E+02  0.95529322008E+00 -0.16777840829E+03  0.16807957294E+03  0.00000000000E+00 0.  1.
          1    1    3    3  501    0  0.25306072540E+02  0.59212427095E+01 -0.49031795668E+03  0.49100626988E+03  0.00000000000E+00 0.  1.
         -1    1    1    2    0  502 -0.35317863890E+02 -0.68765359295E+01 -0.34046088460E+03  0.34235690762E+03  0.00000000000E+00 0. -1.
<mgrwt>
<rscale>  1 0.30000000E+03</rscale>
<asrwt>0</asrwt>
<pdfrwt beam="1">  1       21 0.52463763E-02 0.30000000E+03</pdfrwt>
<pdfrwt beam="2">0</pdfrwt>
<totfact> 0.26534229E+04</totfact>
</mgrwt>
</event>
<event>
 6    1  0.1280499E-001  0.3000000E+03  0.7818608E-02  0.1093470E+00
         21   -1    0    0  501  502  0.00000000000E+00  0.00000000000E+00  0.10508206560E+01  0.10508206560E+01  0.00000000000E+00 0. -1.
         13   -1    0    0    0    0 -0.00000000000E+00 -0.00000000000E+00 -0.10000000000E+04  0.10000000000E+04  0.00000000000E+00 0.  1.
    9000005    2    1    2  501    0 -0.65162988937E+01 -0.31570335352E+02 -0.53691715333E+03  0.53789561849E+03  0.35381678061E+01 0.  0.
         13    1    3    3    0    0 -0.29501981892E+01 -0.21101965470E+02 -0.36904098906E+03  0.36965558054E+03  0.00000000000E+00 0.  1.
          3    1    3    3  501    0 -0.35661007046E+01 -0.10468369882E+02 -0.16787616426E+03  0.16824003795E+03  0.00000000000E+00 0.  1.
         -3    1    1    2    0  502  0.65162988937E+01  0.31570335352E+02 -0.46203202602E+03  0.46315520216E+03  0.00000000000E+00 0. -1.
<mgrwt>
<rscale>  1 0.30000000E+03</rscale>
<asrwt>0</asrwt>
<pdfrwt beam="1">  1       21 0.38211741E-02 0.30000000E+03</pdfrwt>
<pdfrwt beam="2">0</pdfrwt>
<totfact> 0.45410101E+04</totfact>
</mgrwt>
</event>
<event>
 6    1  0.1280499E-001  0.3000000E+03  0.7818608E-02  0.1093470E+00
         21   -1    0    0  501  502  0.00000000000E+00  0.00000000000E+00  0.94739249308E+00  0.94739249308E+00  0.00000000000E+00 0. -1.
         13   -1    0    0    0    0 -0.00000000000E+00 -0.00000000000E+00 -0.10000000000E+04  0.10000000000E+04  0.00000000000E+00 0.  1.
    9000005    2    1    2  501    0  0.13911657983E+02 -0.27297196381E+02 -0.53017927722E+03  0.53107414255E+03  0.33177904082E+01 0.  0.
         13    1    3    3    0    0  0.14023836890E+02 -0.26821413805E+02 -0.52504893820E+03  0.52592056790E+03  0.00000000000E+00 0.  1.
          1    1    3    3  501    0 -0.11217890680E+00 -0.47578257621E+00 -0.51303390172E+01  0.51535746428E+01  0.00000000000E+00 0.  1.
         -3    1    1    2    0  502 -0.13911657983E+02  0.27297196381E+02 -0.46887333029E+03  0.46987324995E+03  0.00000000000E+00 0. -1.
<mgrwt>
<rscale>  1 0.30000000E+03</rscale>
<asrwt>0</asrwt>
<pdfrwt beam="1">  1       21 0.34450709E-02 0.30000000E+03</pdfrwt>
<pdfrwt beam="2">0</pdfrwt>
<totfact> 0.54028310E+04</totfact>
</mgrwt>
</event>
<event>
 6    1  0.1280499E-001  0.3000000E+03  0.7818608E-02  0.1093470E+00
         21   -1    0    0  501  502  0.00000000000E+00  0.00000000000E+00  0.80138018725E+01  0.80138018725E+01  0.00000000000E+00 0. -1.
         13   -1    0    0    0    0 -0.00000000000E+00 -0.00000000000E+00 -0.10000000000E+04  0.10000000000E+04  0.00000000000E+00 0.  1.
    9000005    2    1    2  501    0 -0.42715183020E+01  0.34332958983E+02 -0.96081615728E+03  0.96144590105E+03  0.36789401946E+01 0.  0.
         13    1    3    3    0    0 -0.10366353598E+01  0.15296205409E+02 -0.47027372013E+03  0.47052355983E+03  0.00000000000E+00 0.  1.
          1    1    3    3  501    0 -0.32348829422E+01  0.19036753574E+02 -0.49054243715E+03  0.49092234121E+03  0.00000000000E+00 0.  1.
         -3    1    1    2    0  502  0.42715183020E+01 -0.34332958983E+02 -0.31170040845E+02  0.46567900827E+02  0.00000000000E+00 0. -1.
<mgrwt>
<rscale>  1 0.30000000E+03</rscale>
<asrwt>0</asrwt>
<pdfrwt beam="1">  1       21 0.29141159E-01 0.30000000E+03</pdfrwt>
<pdfrwt beam="2">0</pdfrwt>
<totfact> 0.11521914E+03</totfact>
</mgrwt>
</event>
<event>
 6    1  0.1280499E-001  0.3000000E+03  0.7818608E-02  0.1093470E+00
         21   -1    0    0  501  502  0.00000000000E+00  0.00000000000E+00  0.14525825125E+01  0.14525825125E+01  0.00000000000E+00 0. -1.
         13   -1    0    0    0    0 -0.00000000000E+00 -0.00000000000E+00 -0.10000000000E+04  0.10000000000E+04  0.00000000000E+00 0.  1.
    9000005    2    1    2  501    0  0.14309413088E+01  0.32486960372E+02 -0.75956184536E+03  0.76026478458E+03  0.33008416824E+01 0.  0.
         13    1    3    3    0    0 -0.82341194109E+00  0.13240312767E+02 -0.29005160271E+03  0.29035481075E+03  0.00000000000E+00 0.  1.
          3    1    3    3  501    0  0.22543532499E+01  0.19246647605E+02 -0.46951024265E+03  0.46990997383E+03  0.00000000000E+00 0.  1.
         -3    1    1    2    0  502 -0.14309413088E+01 -0.32486960372E+02 -0.23898557213E+03  0.24118779793E+03  0.00000000000E+00 0. -1.
<mgrwt>
<rscale>  1 0.30000000E+03</rscale>
<asrwt>0</asrwt>
<pdfrwt beam="1">  1       21 0.52821294E-02 0.30000000E+03</pdfrwt>
<pdfrwt beam="2">0</pdfrwt>
<totfact> 0.26227921E+04</totfact>
</mgrwt>
</event>
<event>
 6    1  0.1280499E-001  0.3000000E+03  0.7818608E-02  0.1093470E+00
         21   -1    0    0  501  502  0.00000000000E+00  0.00000000000E+00  0.14147537770E+01  0.14147537770E+01  0.00000000000E+00 0. -1.
         13   -1    0    0    0    0 -0.00000000000E+00 -0.00000000000E+00 -0.10000000000E+04  0.10000000000E+04  0.00000000000E+00 0.  1.
    9000005    2    1    2  501    0 -0.31527723780E+02 -0.20197853584E+02 -0.52221333489E+03  0.52357362059E+03  0.45407474213E+01 0.  0.
         13    1    3    3    0    0 -0.25057458526E+02 -0.15424983987E+02 -0.38326139909E+03  0.38438926415E+03  0.00000000000E+00 0.  1.
          3    1    3    3  501    0 -0.64702652539E+01 -0.47728695966E+01 -0.13895193580E+03  0.13918435645E+03  0.00000000000E+00 0.  1.
         -3    1    1    2    0  502  0.31527723780E+02  0.20197853584E+02 -0.47637191133E+03  0.47784113318E+03  0.00000000000E+00 0. -1.
<mgrwt>
<rscale>  1 0.30000000E+03</rscale>
<asrwt>0</asrwt>
<pdfrwt beam="1">  1       21 0.51445700E-02 0.30000000E+03</pdfrwt>
<pdfrwt beam="2">0</pdfrwt>
<totfact> 0.27437483E+04</totfact>
</mgrwt>
</event>
<event>
 6    1  0.1280499E-001  0.3000000E+03  0.7818608E-02  0.1093470E+00
         21   -1    0    0  501  502  0.00000000000E+00  0.00000000000E+00  0.21048772440E+01  0.21048772440E+01  0.00000000000E+00 0. -1.
         13   -1    0    0    0    0 -0.00000000000E+00 -0.00000000000E+00 -0.10000000000E+04  0.10000000000E+04  0.00000000000E+00 0.  1.
    9000005    2    1    2  501    0 -0.15691687713E+02  0.43050882964E+02 -0.49676709635E+03  0.49888632986E+03  0.32271523665E+01 0.  0.
         13    1    3    3    0    0 -0.97543869711E+01  0.29572922527E+02 -0.32441050993E+03  0.32590164891E+03  0.00000000000E+00 0.  1.
          3    1    3    3  501    0 -0.59373007423E+01  0.13477960437E+02 -0.17235658643E+03  0.17298468095E+03  0.00000000000E+00 0.  1.
         -1    1    1    2    0  502  0.15691687713E+02 -0.43050882964E+02 -0.50112802640E+03  0.50321854739E+03  0.00000000000E+00 0. -1.
<mgrwt>
<rscale>  1 0.30000000E+03</rscale>
<asrwt>0</asrwt>
<pdfrwt beam="1">  1       21 0.76541152E-02 0.30000000E+03</pdfrwt>
<pdfrwt beam="2">0</pdfrwt>
<totfact> 0.13803778E+04</totfact>
</mgrwt>
</event>
<event>
 6    1  0.1280499E-001  0.3000000E+03  0.7818608E-02  0.1093470E+00
         21   -1    0    0  501  502  0.00000000000E+00  0.00000000000E+00  0.37037979812E+01  0.37037979812E+01  0.00000000000E+00 0. -1.
         13   -1    0    0    0    0 -0.00000000000E+00 -0.00000000000E+00 -0.10000000000E+04  0.10000000000E+04  0.00000000000E+00 0.  1.
    9000005    2    1    2  501    0 -0.22948784514E+02  0.46787999521E+02 -0.24080274972E+03  0.24641513434E+03  0.43232569103E+01 0.  0.
         13    1    3    3    0    0 -0.11412269289E+02  0.23507618977E+02 -0.13091793961E+03  0.13350039308E+03  0.00000000000E+00 0.  1.
          1    1    3    3  501    0 -0.11536515225E+02  0.23280380544E+02 -0.10988481011E+03  0.11291474127E+03  0.00000000000E+00 0.  1.
         -1    1    1    2    0  502  0.22948784514E+02 -0.46787999521E+02 -0.75549345230E+03  0.75728866364E+03  0.00000000000E+00 0. -1.
<mgrwt>
<rscale>  1 0.30000000E+03</rscale>
<asrwt>0</asrwt>
<pdfrwt beam="1">  1       21 0.13468385E-01 0.30000000E+03</pdfrwt>
<pdfrwt beam="2">0</pdfrwt>
<totfact> 0.50208127E+03</totfact>
</mgrwt>
</event>
<event>
 6    1  0.1280499E-001  0.3000000E+03  0.7818608E-02  0.1093470E+00
         21   -1    0    0  501  502  0.00000000000E+00  0.00000000000E+00  0.39857513524E+01  0.39857513524E+01  0.00000000000E+00 0. -1.
         13   -1    0    0    0    0 -0.00000000000E+00 -0.00000000000E+00 -0.10000000000E+04  0.10000000000E+04  0.00000000000E+00 0.  1.
    9000005    2    1    2  501    0  0.73560218056E+01  0.35415479040E+02 -0.90936645255E+03  0.91009108813E+03  0.31743447265E+01 0.  0.
         13    1    3    3    0    0  0.66501888570E+01  0.33094746443E+02 -0.86494667164E+03  0.86560512477E+03  0.00000000000E+00 0.  1.
          1    1    3    3  501    0  0.70583294859E+00  0.23207325974E+01 -0.44419780909E+02  0.44485963359E+02  0.00000000000E+00 0.  1.
         -3    1    1    2    0  502 -0.73560218056E+01 -0.35415479040E+02 -0.86647796102E+02  0.93894663223E+02  0.00000000000E+00 0. -1.
<mgrwt>
<rscale>  1 0.30000000E+03</rscale>
<asrwt>0</asrwt>
<pdfrwt beam="1">  1       21 0.14493672E-01 0.30000000E+03</pdfrwt>
<pdfrwt beam="2">0</pdfrwt>
<totfact> 0.43877072E+03</totfact>
</mgrwt>
</event>
<event>
 6    1  0.1280499E-001  0.3000000E+03  0.7818608E-02  0.1093470E+00
         21   -1    0    0  501  502  0.00000000000E+00  0.00000000000E+00  0.19316663005E+01  0.19316663005E+01  0.00000000000E+00 0. -1.
         13   -1    0    0    0    0 -0.00000000000E+00 -0.00000000000E+00 -0.10000000000E+04  0.10000000000E+04  0.00000000000E+00 0.  1.
    9000005    2    1    2  501    0 -0.34380203675E+02  0.20525945524E+02 -0.70453066735E+03  0.70567557031E+03  0.33520820600E+01 0.  0.
         13    1    3    3    0    0 -0.22525117989E+02  0.15268422689E+02 -0.47530240268E+03  0.47608074910E+03  0.00000000000E+00 0.  1.
          1    1    3    3  501    0 -0.11855085686E+02  0.52575228354E+01 -0.22922826468E+03  0.22959482122E+03  0.00000000000E+00 0.  1.
         -3    1    1    2    0  502  0.34380203675E+02 -0.20525945524E+02 -0.29353766635E+03  0.29625609599E+03  0.00000000000E+00 0. -1.
<mgrwt>
<rscale>  1 0.30000000E+03</rscale>
<asrwt>0</asrwt>
<pdfrwt beam="1">  1       21 0.70242559E-02 0.30000000E+03</pdfrwt>
<pdfrwt beam="2">0</pdfrwt>
<totfact> 0.16038430E+04</totfact>
</mgrwt>
</event>
<event>
 6    1  0.1280499E-001  0.3000000E+03  0.7818608E-02  0.1093470E+00
         21   -1    0    0  501  502  0.00000000000E+00  0.00000000000E+00  0.23828986927E+01  0.23828986927E+01  0.00000000000E+00 0. -1.
         13   -1    0    0    0    0 -0.00000000000E+00 -0.00000000000E+00 -0.10000000000E+04  0.10000000000E+04  0.00000000000E+00 0.  1.
    9000005    2    1    2  501    0  0.42065073386E+02  0.23111379589E+02 -0.58677660333E+03  0.58874837276E+03  0.37759696009E+01 0.  0.
         13    1    3    3    0    0  0.49185140946E+01  0.40223721819E+01 -0.71154191555E+02  0.71437316822E+02  0.00000000000E+00 0.  1.
          3    1    3    3  501    0  0.37146559292E+02  0.19089007407E+02 -0.51562241178E+03  0.51731105594E+03  0.00000000000E+00 0.  1.
         -3    1    1    2    0  502 -0.42065073386E+02 -0.23111379589E+02 -0.41084049798E+03  0.41363452593E+03  0.00000000000E+00 0. -1.
<mgrwt>
<rscale>  1 0.30000000E+03</rscale>
<asrwt>0</asrwt>
<pdfrwt beam="1">  1       21 0.86651044E-02 0.30000000E+03</pdfrwt>
<pdfrwt beam="2">0</pdfrwt>
<totfact> 0.11098038E+04</totfact>
</mgrwt>
</event>
<event>
 6    1  0.1280499E-001  0.3000000E+03  0.7818608E-02  0.1093470E+00
         21   -1    0    0  501  502  0.00000000000E+00  0.00000000000E+00  0.18660457467E+01  0.18660457467E+01  0.00000000000E+00 0. -1.
         13   -1    0    0    0    0 -0.00000000000E+00 -0.00000000000E+00 -0.10000000000E+04  0.10000000000E+04  0.00000000000E+00 0.  1.
    9000005    2    1    2  501    0 -0.33848066175E+02  0.11788512904E+02 -0.77792395431E+03  0.77875821375E+03  0.37438194452E+01 0.  0.
         13    1    3    3    0    0 -0.19668638264E+02  0.49692263752E+01 -0.44976395907E+03  0.45022124275E+03  0.00000000000E+00 0.  1.
          1    1    3    3  501    0 -0.14179427911E+02  0.68192865291E+01 -0.32815999524E+03  0.32853697101E+03  0.00000000000E+00 0.  1.
         -3    1    1    2    0  502  0.33848066175E+02 -0.11788512904E+02 -0.22020999995E+03  0.22310783199E+03  0.00000000000E+00 0. -1.
<mgrwt>
<rscale>  1 0.30000000E+03</rscale>
<asrwt>0</asrwt>
<pdfrwt beam="1">  1       21 0.67856352E-02 0.30000000E+03</pdfrwt>
<pdfrwt beam="2">0</pdfrwt>
<totfact> 0.17031619E+04</totfact>
</mgrwt>
</event>
<event>
 6    1  0.1280499E-001  0.3000000E+03  0.7818608E-02  0.1093470E+00
         21   -1    0    0  501  502  0.00000000000E+00  0.00000000000E+00  0.11984619386E+01  0.11984619386E+01  0.00000000000E+00 0. -1.
         13   -1    0    0    0    0 -0.00000000000E+00 -0.00000000000E+00 -0.10000000000E+04  0.10000000000E+04  0.00000000000E+00 0.  1.
    9000005    2    1    2  501    0 -0.24749139766E+02  0.17147154291E+02 -0.74515559270E+03  0.74577173974E+03  0.34764392409E+01 0.  0.
         13    1    3    3    0    0 -0.38655147326E+01  0.39362580875E+01 -0.11622203539E+03  0.11635290216E+03  0.00000000000E+00 0.  1.
          1    1    3    3  501    0 -0.20883625034E+02  0.13210896203E+02 -0.62893355731E+03  0.62941883757E+03  0.00000000000E+00 0.  1.
         -3    1    1    2    0  502  0.24749139766E+02 -0.17147154291E+02 -0.25364594536E+03  0.25542672220E+03  0.00000000000E+00 0. -1.
<mgrwt>
<rscale>  1 0.30000000E+03</rscale>
<asrwt>0</asrwt>
<pdfrwt beam="1">  1       21 0.43580526E-02 0.30000000E+03</pdfrwt>
<pdfrwt beam="2">0</pdfrwt>
<totfact> 0.36381801E+04</totfact>
</mgrwt>
</event>
<event>
 6    1  0.1280499E-001  0.3000000E+03  0.7818608E-02  0.1093470E+00
         21   -1    0    0  501  502  0.00000000000E+00  0.00000000000E+00  0.14803309028E+02  0.14803309028E+02  0.00000000000E+00 0. -1.
         13   -1    0    0    0    0 -0.00000000000E+00 -0.00000000000E+00 -0.10000000000E+04  0.10000000000E+04  0.00000000000E+00 0.  1.
    9000005    2    1    2  501    0  0.35306974766E+02 -0.64017285497E+02 -0.89816202081E+03  0.90113788280E+03  0.31101254121E+01 0.  0.
         13    1    3    3    0    0  0.50981809811E+01 -0.74324261718E+01 -0.10431817009E+03  0.10470679547E+03  0.00000000000E+00 0.  1.
          3    1    3    3  501    0  0.30208793785E+02 -0.56584859325E+02 -0.79384385072E+03  0.79643108733E+03  0.00000000000E+00 0.  1.
         -1    1    1    2    0  502 -0.35306974766E+02  0.64017285497E+02 -0.87034670160E+02  0.11366542623E+03  0.00000000000E+00 0. -1.
<mgrwt>
<rscale>  1 0.30000000E+03</rscale>
<asrwt>0</asrwt>
<pdfrwt beam="1">  1       21 0.53830328E-01 0.30000000E+03</pdfrwt>
<pdfrwt beam="2">0</pdfrwt>
<totfact> 0.31972774E+02</totfact>
</mgrwt>
</event>
<event>
 6    1  0.1280499E-001  0.3000000E+03  0.7818608E-02  0.1093470E+00
         21   -1    0    0  501  502  0.00000000000E+00  0.00000000000E+00  0.14484951146E+01  0.14484951146E+01  0.00000000000E+00 0. -1.
         13   -1    0    0    0    0 -0.00000000000E+00 -0.00000000000E+00 -0.10000000000E+04  0.10000000000E+04  0.00000000000E+00 0.  1.
    9000005    2    1    2  501    0  0.26959971780E+02 -0.18588240001E+02 -0.75379493773E+03  0.75451097283E+03  0.27635545396E+01 0.  0.
         13    1    3    3    0    0  0.11890038006E+02 -0.97433572993E+01 -0.34060354857E+03  0.34095026516E+03  0.00000000000E+00 0.  1.
          1    1    3    3  501    0  0.15069933774E+02 -0.88448827016E+01 -0.41319138916E+03  0.41356070767E+03  0.00000000000E+00 0.  1.
         -1    1    1    2    0  502 -0.26959971780E+02  0.18588240001E+02 -0.24475656715E+03  0.24693752228E+03  0.00000000000E+00 0. -1.
<mgrwt>
<rscale>  1 0.30000000E+03</rscale>
<asrwt>0</asrwt>
<pdfrwt beam="1">  1       21 0.52672661E-02 0.30000000E+03</pdfrwt>
<pdfrwt beam="2">0</pdfrwt>
<totfact> 0.26354591E+04</totfact>
</mgrwt>
</event>
<event>
 6    1  0.1280499E-001  0.3000000E+03  0.7818608E-02  0.1093470E+00
         21   -1    0    0  501  502  0.00000000000E+00  0.00000000000E+00  0.11201114170E+01  0.11201114170E+01  0.00000000000E+00 0. -1.
         13   -1    0    0    0    0 -0.00000000000E+00 -0.00000000000E+00 -0.10000000000E+04  0.10000000000E+04  0.00000000000E+00 0.  1.
    9000005    2    1    2  501    0  0.21800592970E+02  0.25110686151E+02 -0.54665660153E+03  0.54767583284E+03  0.30928106912E+01 0.  0.
         13    1    3    3    0    0  0.13712675677E+02  0.16079530259E+02 -0.37097594748E+03  0.37157737065E+03  0.00000000000E+00 0.  1.
          3    1    3    3  501    0  0.80879172923E+01  0.90311558919E+01 -0.17568065404E+03  0.17609846219E+03  0.00000000000E+00 0.  1.
         -1    1    1    2    0  502 -0.21800592970E+02 -0.25110686151E+02 -0.45222328706E+03  0.45344427857E+03  0.00000000000E+00 0. -1.
<mgrwt>
<rscale>  1 0.30000000E+03</rscale>
<asrwt>0</asrwt>
<pdfrwt beam="1">  1       21 0.40731410E-02 0.30000000E+03</pdfrwt>
<pdfrwt beam="2">0</pdfrwt>
<totfact> 0.40783053E+04</totfact>
</mgrwt>
</event>
<event>
 6    1  0.1280499E-001  0.3000000E+03  0.7818608E-02  0.1093470E+00
         21   -1    0    0  501  502  0.00000000000E+00  0.00000000000E+00  0.10152058966E+01  0.10152058966E+01  0.00000000000E+00 0. -1.
         13   -1    0    0    0    0 -0.00000000000E+00 -0.00000000000E+00 -0.10000000000E+04  0.10000000000E+04  0.00000000000E+00 0.  1.
    9000005    2    1    2  501    0 -0.10360667840E+02 -0.29346440479E+02 -0.40824014256E+03  0.40945134600E+03  0.46726585625E+01 0.  0.
         13    1    3    3    0    0 -0.85128170956E+01 -0.26187617433E+02 -0.34006575764E+03  0.34117880779E+03  0.00000000000E+00 0.  1.
          1    1    3    3  501    0 -0.18478507444E+01 -0.31588230465E+01 -0.68174384912E+02  0.68272538209E+02  0.00000000000E+00 0.  1.
         -1    1    1    2    0  502  0.10360667840E+02  0.29346440479E+02 -0.59074465155E+03  0.59156385990E+03  0.00000000000E+00 0. -1.
<mgrwt>
<rscale>  1 0.30000000E+03</rscale>
<asrwt>0</asrwt>
<pdfrwt beam="1">  1       21 0.36916656E-02 0.30000000E+03</pdfrwt>
<pdfrwt beam="2">0</pdfrwt>
<totfact> 0.48117214E+04</totfact>
</mgrwt>
</event>
<event>
 6    1  0.1280499E-001  0.3000000E+03  0.7818608E-02  0.1093470E+00
         21   -1    0    0  501  502  0.00000000000E+00  0.00000000000E+00  0.14524757190E+01  0.14524757190E+01  0.00000000000E+00 0. -1.
         13   -1    0    0    0    0 -0.00000000000E+00 -0.00000000000E+00 -0.10000000000E+04  0.10000000000E+04  0.00000000000E+00 0.  1.
    9000005    2    1    2  501    0 -0.31262281537E+02 -0.18911942559E+01 -0.21713940754E+03  0.21941695749E+03  0.36567833956E+01 0.  0.
         13    1    3    3    0    0 -0.15527047522E+02  0.42187792965E+00 -0.98781792181E+02  0.99995548162E+02  0.00000000000E+00 0.  1.
          1    1    3    3  501    0 -0.15735234015E+02 -0.23130721855E+01 -0.11835761536E+03  0.11942140933E+03  0.00000000000E+00 0.  1.
         -3    1    1    2    0  502  0.31262281537E+02  0.18911942559E+01 -0.78140811674E+03  0.78203551823E+03  0.00000000000E+00 0. -1.
<mgrwt>
<rscale>  1 0.30000000E+03</rscale>
<asrwt>0</asrwt>
<pdfrwt beam="1">  1       21 0.52817410E-02 0.30000000E+03</pdfrwt>
<pdfrwt beam="2">0</pdfrwt>
<totfact> 0.26231218E+04</totfact>
</mgrwt>
</event>
<event>
 6    1  0.1280499E-001  0.3000000E+03  0.7818608E-02  0.1093470E+00
         21   -1    0    0  501  502  0.00000000000E+00  0.00000000000E+00  0.12994748585E+01  0.12994748585E+01  0.00000000000E+00 0. -1.
         13   -1    0    0    0    0 -0.00000000000E+00 -0.00000000000E+00 -0.10000000000E+04  0.10000000000E+04  0.00000000000E+00 0.  1.
    9000005    2    1    2  501    0  0.21476994520E+02 -0.22995544931E+02 -0.26234468259E+03  0.26427167129E+03  0.49726633016E+01 0.  0.
         13    1    3    3    0    0  0.87509565547E+01 -0.85276367037E+01 -0.12202077099E+03  0.12263102536E+03  0.00000000000E+00 0.  1.
          1    1    3    3  501    0  0.12726037965E+02 -0.14467908228E+02 -0.14032391160E+03  0.14164064593E+03  0.00000000000E+00 0.  1.
         -1    1    1    2    0  502 -0.21476994520E+02  0.22995544931E+02 -0.73635584255E+03  0.73702780357E+03  0.00000000000E+00 0. -1.
<mgrwt>
<rscale>  1 0.30000000E+03</rscale>
<asrwt>0</asrwt>
<pdfrwt beam="1">  1       21 0.47253731E-02 0.30000000E+03</pdfrwt>
<pdfrwt beam="2">0</pdfrwt>
<totfact> 0.31712672E+04</totfact>
</mgrwt>
</event>
<event>
 6    1  0.1280499E-001  0.3000000E+03  0.7818608E-02  0.1093470E+00
         21   -1    0    0  501  502  0.00000000000E+00  0.00000000000E+00  0.13506624718E+01  0.13506624718E+01  0.00000000000E+00 0. -1.
         13   -1    0    0    0    0 -0.00000000000E+00 -0.00000000000E+00 -0.10000000000E+04  0.10000000000E+04  0.00000000000E+00 0.  1.
    9000005    2    1    2  501    0  0.25202663355E+02  0.16320760838E+02 -0.78730523046E+03  0.78788433475E+03  0.32645942325E+01 0.  0.
         13    1    3    3    0    0  0.24592197363E+02  0.16146286904E+02 -0.77879447607E+03  0.77934993085E+03  0.00000000000E+00 0.  1.
          3    1    3    3  501    0  0.61046599196E+00  0.17447393375E+00 -0.85107543816E+01  0.85344039056E+01  0.00000000000E+00 0.  1.
         -3    1    1    2    0  502 -0.25202663355E+02 -0.16320760838E+02 -0.21134410707E+03  0.21346632772E+03  0.00000000000E+00 0. -1.
<mgrwt>
<rscale>  1 0.30000000E+03</rscale>
<asrwt>0</asrwt>
<pdfrwt beam="1">  1       21 0.49115103E-02 0.30000000E+03</pdfrwt>
<pdfrwt beam="2">0</pdfrwt>
<totfact> 0.29694572E+04</totfact>
</mgrwt>
</event>
<event>
 6    1  0.1280499E-001  0.3000000E+03  0.7818608E-02  0.1093470E+00
         21   -1    0    0  501  502  0.00000000000E+00  0.00000000000E+00  0.27253500567E+01  0.27253500567E+01  0.00000000000E+00 0. -1.
         13   -1    0    0    0    0 -0.00000000000E+00 -0.00000000000E+00 -0.10000000000E+04  0.10000000000E+04  0.00000000000E+00 0.  1.
    9000005    2    1    2  501    0 -0.64653827345E+01  0.45693220331E+02 -0.72644019422E+03  0.72798734037E+03  0.10979089521E+02 0.  0.
         13    1    3    3    0    0 -0.18437812108E+01  0.33063033963E+02 -0.57427523922E+03  0.57522918400E+03  0.00000000000E+00 0.  1.
          3    1    3    3  501    0 -0.46216015237E+01  0.12630186368E+02 -0.15216495500E+03  0.15275815637E+03  0.00000000000E+00 0.  1.
         -1    1    1    2    0  502  0.64653827345E+01 -0.45693220331E+02 -0.27083445573E+03  0.27473800969E+03  0.00000000000E+00 0. -1.
<mgrwt>
<rscale>  1 0.30000000E+03</rscale>
<asrwt>0</asrwt>
<pdfrwt beam="1">  1       21 0.99103847E-02 0.30000000E+03</pdfrwt>
<pdfrwt beam="2">0</pdfrwt>
<totfact> 0.87426614E+03</totfact>
</mgrwt>
</event>
<event>
 6    1  0.1280499E-001  0.3000000E+03  0.7818608E-02  0.1093470E+00
         21   -1    0    0  501  502  0.00000000000E+00  0.00000000000E+00  0.98998194316E+00  0.98998194316E+00  0.00000000000E+00 0. -1.
         13   -1    0    0    0    0 -0.00000000000E+00 -0.00000000000E+00 -0.10000000000E+04  0.10000000000E+04  0.00000000000E+00 0.  1.
    9000005    2    1    2  501    0  0.26433669266E+02 -0.15998742481E+02 -0.41417726099E+03  0.41534157857E+03  0.33353767900E+01 0.  0.
         13    1    3    3    0    0  0.10946109377E+02 -0.56654609093E+01 -0.14646919545E+03  0.14698687007E+03  0.00000000000E+00 0.  1.
          1    1    3    3  501    0  0.15487559889E+02 -0.10333281571E+02 -0.26770806554E+03  0.26835470850E+03  0.00000000000E+00 0.  1.
         -3    1    1    2    0  502 -0.26433669266E+02  0.15998742481E+02 -0.58483275707E+03  0.58564840337E+03  0.00000000000E+00 0. -1.
<mgrwt>
<rscale>  1 0.30000000E+03</rscale>
<asrwt>0</asrwt>
<pdfrwt beam="1">  1       21 0.35999419E-02 0.30000000E+03</pdfrwt>
<pdfrwt beam="2">0</pdfrwt>
<totfact> 0.50191669E+04</totfact>
</mgrwt>
</event>
<event>
 6    1  0.1280499E-001  0.3000000E+03  0.7818608E-02  0.1093470E+00
         21   -1    0    0  501  502  0.00000000000E+00  0.00000000000E+00  0.33513793960E+01  0.33513793960E+01  0.00000000000E+00 0. -1.
         13   -1    0    0    0    0 -0.00000000000E+00 -0.00000000000E+00 -0.10000000000E+04  0.10000000000E+04  0.00000000000E+00 0.  1.
    9000005    2    1    2  501    0  0.49311533888E+02 -0.29769262734E+02 -0.49409119241E+03  0.49750376893E+03  0.81275646559E+01 0.  0.
         13    1    3    3    0    0  0.36528849592E+00 -0.66094315464E+00 -0.18473273305E+02  0.18488702176E+02  0.00000000000E+00 0.  1.
          1    1    3    3  501    0  0.48946245392E+02 -0.29108319579E+02 -0.47561791910E+03  0.47901506676E+03  0.00000000000E+00 0.  1.
         -3    1    1    2    0  502 -0.49311533888E+02  0.29769262734E+02 -0.50255742820E+03  0.50584761046E+03  0.00000000000E+00 0. -1.
<mgrwt>
<rscale>  1 0.30000000E+03</rscale>
<asrwt>0</asrwt>
<pdfrwt beam="1">  1       21 0.12186860E-01 0.30000000E+03</pdfrwt>
<pdfrwt beam="2">0</pdfrwt>
<totfact> 0.60255900E+03</totfact>
</mgrwt>
</event>
<event>
 6    1  0.1280499E-001  0.3000000E+03  0.7818608E-02  0.1093470E+00
         21   -1    0    0  501  502  0.00000000000E+00  0.00000000000E+00  0.12824547803E+01  0.12824547803E+01  0.00000000000E+00 0. -1.
         13   -1    0    0    0    0 -0.00000000000E+00 -0.00000000000E+00 -0.10000000000E+04  0.10000000000E+04  0.00000000000E+00 0.  1.
    9000005    2    1    2  501    0  0.29891203060E+02 -0.34227488177E+01 -0.23190083802E+03  0.23387574275E+03  0.38295094029E+01 0.  0.
         13    1    3    3    0    0  0.20695945078E+02 -0.26040088220E+01 -0.17357143130E+03  0.17482032138E+03  0.00000000000E+00 0.  1.
          3    1    3    3  501    0  0.91952579817E+01 -0.81873999570E+00 -0.58329406718E+02  0.59055421365E+02  0.00000000000E+00 0.  1.
         -3    1    1    2    0  502 -0.29891203060E+02  0.34227488177E+01 -0.76681670720E+03  0.76740671203E+03  0.00000000000E+00 0. -1.
<mgrwt>
<rscale>  1 0.30000000E+03</rscale>
<asrwt>0</asrwt>
<pdfrwt beam="1">  1       21 0.46634818E-02 0.30000000E+03</pdfrwt>
<pdfrwt beam="2">0</pdfrwt>
<totfact> 0.32431543E+04</totfact>
</mgrwt>
</event>
<event>
 6    1  0.1280499E-001  0.3000000E+03  0.7818608E-02  0.1093470E+00
         21   -1    0    0  501  502  0.00000000000E+00  0.00000000000E+00  0.24155833329E+01  0.24155833329E+01  0.00000000000E+00 0. -1.
         13   -1    0    0    0    0 -0.00000000000E+00 -0.00000000000E+00 -0.10000000000E+04  0.10000000000E+04  0.00000000000E+00 0.  1.
    9000005    2    1    2  501    0 -0.32524639427E+02 -0.35889601117E+02 -0.58106095991E+03  0.58308551564E+03  0.33111607399E+01 0.  0.
         13    1    3    3    0    0 -0.29863745329E+02 -0.33686698222E+02 -0.53050595171E+03  0.53241262356E+03  0.00000000000E+00 0.  1.
          1    1    3    3  501    0 -0.26608940974E+01 -0.22029028956E+01 -0.50555008199E+02  0.50672892088E+02  0.00000000000E+00 0.  1.
         -1    1    1    2    0  502  0.32524639427E+02  0.35889601117E+02 -0.41652345676E+03  0.41933006769E+03  0.00000000000E+00 0. -1.
<mgrwt>
<rscale>  1 0.30000000E+03</rscale>
<asrwt>0</asrwt>
<pdfrwt beam="1">  1       21 0.87839579E-02 0.30000000E+03</pdfrwt>
<pdfrwt beam="2">0</pdfrwt>
<totfact> 0.10834087E+04</totfact>
</mgrwt>
</event>
<event>
 6    1  0.1280499E-001  0.3000000E+03  0.7818608E-02  0.1093470E+00
         21   -1    0    0  501  502  0.00000000000E+00  0.00000000000E+00  0.13107752231E+01  0.13107752231E+01  0.00000000000E+00 0. -1.
         13   -1    0    0    0    0 -0.00000000000E+00 -0.00000000000E+00 -0.10000000000E+04  0.10000000000E+04  0.00000000000E+00 0.  1.
    9000005    2    1    2  501    0  0.31112039204E+02 -0.67762957307E+01 -0.26451201459E+03  0.26644340411E+03  0.34065473104E+01 0.  0.
         13    1    3    3    0    0  0.22029793413E+02 -0.62766215471E+01 -0.18493973148E+03  0.18635292338E+03  0.00000000000E+00 0.  1.
          3    1    3    3  501    0  0.90822457907E+01 -0.49967418361E+00 -0.79572283112E+02  0.80090480724E+02  0.00000000000E+00 0.  1.
         -3    1    1    2    0  502 -0.31112039204E+02  0.67762957307E+01 -0.73417721019E+03  0.73486737112E+03  0.00000000000E+00 0. -1.
<mgrwt>
<rscale>  1 0.30000000E+03</rscale>
<asrwt>0</asrwt>
<pdfrwt beam="1">  1       21 0.47664654E-02 0.30000000E+03</pdfrwt>
<pdfrwt beam="2">0</pdfrwt>
<totfact> 0.31249069E+04</totfact>
</mgrwt>
</event>
<event>
 6    1  0.1280499E-001  0.3000000E+03  0.7818608E-02  0.1093470E+00
         21   -1    0    0  501  502  0.00000000000E+00  0.00000000000E+00  0.12597946923E+01  0.12597946923E+01  0.00000000000E+00 0. -1.
         13   -1    0    0    0    0 -0.00000000000E+00 -0.00000000000E+00 -0.10000000000E+04  0.10000000000E+04  0.00000000000E+00 0.  1.
    9000005    2    1    2  501    0  0.28410469067E+02 -0.12733164033E+02 -0.73752132593E+03  0.73819213959E+03  0.45431848450E+01 0.  0.
         13    1    3    3    0    0  0.23619936219E+01  0.57503128739E-01 -0.43072944740E+02  0.43137696845E+02  0.00000000000E+00 0.  1.
          3    1    3    3  501    0  0.26048475445E+02 -0.12790667161E+02 -0.69444838119E+03  0.69505444275E+03  0.00000000000E+00 0.  1.
         -3    1    1    2    0  502 -0.28410469067E+02  0.12733164033E+02 -0.26121887937E+03  0.26306765510E+03  0.00000000000E+00 0. -1.
<mgrwt>
<rscale>  1 0.30000000E+03</rscale>
<asrwt>0</asrwt>
<pdfrwt beam="1">  1       21 0.45810813E-02 0.30000000E+03</pdfrwt>
<pdfrwt beam="2">0</pdfrwt>
<totfact> 0.33429016E+04</totfact>
</mgrwt>
</event>
<event>
 6    1  0.1280499E-001  0.3000000E+03  0.7818608E-02  0.1093470E+00
         21   -1    0    0  501  502  0.00000000000E+00  0.00000000000E+00  0.19538339012E+01  0.19538339012E+01  0.00000000000E+00 0. -1.
         13   -1    0    0    0    0 -0.00000000000E+00 -0.00000000000E+00 -0.10000000000E+04  0.10000000000E+04  0.00000000000E+00 0.  1.
    9000005    2    1    2  501    0  0.40636746545E+02  0.98877820731E+01 -0.65956744739E+03  0.66090111595E+03  0.34574559285E+01 0.  0.
         13    1    3    3    0    0  0.40601327436E+02  0.97121782606E+01 -0.65809879755E+03  0.65942158103E+03  0.00000000000E+00 0.  1.
          3    1    3    3  501    0  0.35419109544E-01  0.17560381250E+00 -0.14686498400E+01  0.14795349150E+01  0.00000000000E+00 0.  1.
         -3    1    1    2    0  502 -0.40636746545E+02 -0.98877820731E+01 -0.33847871871E+03  0.34105271795E+03  0.00000000000E+00 0. -1.
<mgrwt>
<rscale>  1 0.30000000E+03</rscale>
<asrwt>0</asrwt>
<pdfrwt beam="1">  1       21 0.71048655E-02 0.30000000E+03</pdfrwt>
<pdfrwt beam="2">0</pdfrwt>
<totfact> 0.15722842E+04</totfact>
</mgrwt>
</event>
<event>
 6    1  0.1280499E-001  0.3000000E+03  0.7818608E-02  0.1093470E+00
         21   -1    0    0  501  502  0.00000000000E+00  0.00000000000E+00  0.10113260072E+01  0.10113260072E+01  0.00000000000E+00 0. -1.
         13   -1    0    0    0    0 -0.00000000000E+00 -0.00000000000E+00 -0.10000000000E+04  0.10000000000E+04  0.00000000000E+00 0.  1.
    9000005    2    1    2  501    0  0.31175875648E+02 -0.39745174657E+01 -0.43382790420E+03  0.43497738028E+03  0.33073969156E+01 0.  0.
         13    1    3    3    0    0  0.16829186503E+02 -0.25600430094E+01 -0.25668006235E+03  0.25724391100E+03  0.00000000000E+00 0.  1.
          3    1    3    3  501    0  0.14346689146E+02 -0.14144744563E+01 -0.17714784186E+03  0.17773346928E+03  0.00000000000E+00 0.  1.
         -3    1    1    2    0  502 -0.31175875648E+02  0.39745174657E+01 -0.56516076979E+03  0.56603394573E+03  0.00000000000E+00 0. -1.
<mgrwt>
<rscale>  1 0.30000000E+03</rscale>
<asrwt>0</asrwt>
<pdfrwt beam="1">  1       21 0.36775569E-02 0.30000000E+03</pdfrwt>
<pdfrwt beam="2">0</pdfrwt>
<totfact> 0.48427413E+04</totfact>
</mgrwt>
</event>
<event>
 6    1  0.1280499E-001  0.3000000E+03  0.7818608E-02  0.1093470E+00
         21   -1    0    0  501  502  0.00000000000E+00  0.00000000000E+00  0.58633120618E+01  0.58633120618E+01  0.00000000000E+00 0. -1.
         13   -1    0    0    0    0 -0.00000000000E+00 -0.00000000000E+00 -0.10000000000E+04  0.10000000000E+04  0.00000000000E+00 0.  1.
    9000005    2    1    2  501    0 -0.35866322276E+01 -0.44124651249E+02 -0.90739299595E+03  0.90847585457E+03  0.25456714660E+01 0.  0.
         13    1    3    3    0    0 -0.16851745620E+01 -0.87363119624E+01 -0.17591064063E+03  0.17613550592E+03  0.00000000000E+00 0.  1.
          1    1    3    3  501    0 -0.19014576656E+01 -0.35388339286E+02 -0.73148235532E+03  0.73234034864E+03  0.00000000000E+00 0.  1.
         -3    1    1    2    0  502  0.35866322276E+01  0.44124651249E+02 -0.86743691984E+02  0.97387457496E+02  0.00000000000E+00 0. -1.
<mgrwt>
<rscale>  1 0.30000000E+03</rscale>
<asrwt>0</asrwt>
<pdfrwt beam="1">  1       21 0.21321180E-01 0.30000000E+03</pdfrwt>
<pdfrwt beam="2">0</pdfrwt>
<totfact> 0.21227113E+03</totfact>
</mgrwt>
</event>
<event>
 6    1  0.1280499E-001  0.3000000E+03  0.7818608E-02  0.1093470E+00
         21   -1    0    0  501  502  0.00000000000E+00  0.00000000000E+00  0.30590048881E+01  0.30590048881E+01  0.00000000000E+00 0. -1.
         13   -1    0    0    0    0 -0.00000000000E+00 -0.00000000000E+00 -0.10000000000E+04  0.10000000000E+04  0.00000000000E+00 0.  1.
    9000005    2    1    2  501    0  0.41051010676E+02 -0.51590429295E+01 -0.83111014574E+03  0.83214478136E+03  0.30102471788E+01 0.  0.
         13    1    3    3    0    0  0.99213266736E+01  0.29037996208E-01 -0.19464257424E+03  0.19489526745E+03  0.00000000000E+00 0.  1.
          3    1    3    3  501    0  0.31129684002E+02 -0.51880809257E+01 -0.63646757150E+03  0.63724951391E+03  0.00000000000E+00 0.  1.
         -1    1    1    2    0  502 -0.41051010676E+02  0.51590429295E+01 -0.16583084937E+03  0.17091422353E+03  0.00000000000E+00 0. -1.
<mgrwt>
<rscale>  1 0.30000000E+03</rscale>
<asrwt>0</asrwt>
<pdfrwt beam="1">  1       21 0.11123678E-01 0.30000000E+03</pdfrwt>
<pdfrwt beam="2">0</pdfrwt>
<totfact> 0.71075326E+03</totfact>
</mgrwt>
</event>
<event>
 6    1  0.1280499E-001  0.3000000E+03  0.7818608E-02  0.1093470E+00
         21   -1    0    0  501  502  0.00000000000E+00  0.00000000000E+00  0.49331273055E+01  0.49331273055E+01  0.00000000000E+00 0. -1.
         13   -1    0    0    0    0 -0.00000000000E+00 -0.00000000000E+00 -0.10000000000E+04  0.10000000000E+04  0.00000000000E+00 0.  1.
    9000005    2    1    2  501    0 -0.22677670604E+02  0.25942449377E+02 -0.93533489756E+03  0.93597519609E+03  0.33029809763E+01 0.  0.
         13    1    3    3    0    0 -0.30131513879E+01  0.52385814615E+01 -0.15240370769E+03  0.15252347995E+03  0.00000000000E+00 0.  1.
          1    1    3    3  501    0 -0.19664519216E+02  0.20703867915E+02 -0.78293118987E+03  0.78345171614E+03  0.00000000000E+00 0.  1.
         -1    1    1    2    0  502  0.22677670604E+02 -0.25942449377E+02 -0.59731975134E+02  0.68957931212E+02  0.00000000000E+00 0. -1.
<mgrwt>
<rscale>  1 0.30000000E+03</rscale>
<asrwt>0</asrwt>
<pdfrwt beam="1">  1       21 0.17938683E-01 0.30000000E+03</pdfrwt>
<pdfrwt beam="2">0</pdfrwt>
<totfact> 0.29484372E+03</totfact>
</mgrwt>
</event>
<event>
 6    1  0.1280499E-001  0.3000000E+03  0.7818608E-02  0.1093470E+00
         21   -1    0    0  501  502  0.00000000000E+00  0.00000000000E+00  0.10921692962E+01  0.10921692962E+01  0.00000000000E+00 0. -1.
         13   -1    0    0    0    0 -0.00000000000E+00 -0.00000000000E+00 -0.10000000000E+04  0.10000000000E+04  0.00000000000E+00 0.  1.
    9000005    2    1    2  501    0  0.16202685036E+02  0.28321982400E+02 -0.57323785374E+03  0.57417345223E+03  0.29756680998E+01 0.  0.
         13    1    3    3    0    0  0.21796700668E+01  0.24242505736E+01 -0.47994024398E+02  0.48104618597E+02  0.00000000000E+00 0.  1.
          1    1    3    3  501    0  0.14023014970E+02  0.25897731827E+02 -0.52524382934E+03  0.52606883364E+03  0.00000000000E+00 0.  1.
         -3    1    1    2    0  502 -0.16202685036E+02 -0.28321982400E+02 -0.42566997696E+03  0.42691871706E+03  0.00000000000E+00 0. -1.
<mgrwt>
<rscale>  1 0.30000000E+03</rscale>
<asrwt>0</asrwt>
<pdfrwt beam="1">  1       21 0.39715331E-02 0.30000000E+03</pdfrwt>
<pdfrwt beam="2">0</pdfrwt>
<totfact> 0.42556016E+04</totfact>
</mgrwt>
</event>
<event>
 6    1  0.1280499E-001  0.3000000E+03  0.7818608E-02  0.1093470E+00
         21   -1    0    0  501  502  0.00000000000E+00  0.00000000000E+00  0.11204122226E+01  0.11204122226E+01  0.00000000000E+00 0. -1.
         13   -1    0    0    0    0 -0.00000000000E+00 -0.00000000000E+00 -0.10000000000E+04  0.10000000000E+04  0.00000000000E+00 0.  1.
    9000005    2    1    2  501    0  0.12384855566E+01 -0.31579801219E+02 -0.66159292583E+03  0.66235632023E+03  0.34464122614E+01 0.  0.
         13    1    3    3    0    0  0.17416424179E-01 -0.26388889598E+00 -0.16932447964E+02  0.16934513124E+02  0.00000000000E+00 0.  1.
          3    1    3    3  501    0  0.12210691324E+01 -0.31315912323E+02 -0.64466047786E+03  0.64542180711E+03  0.00000000000E+00 0.  1.
         -3    1    1    2    0  502 -0.12384855566E+01  0.31579801219E+02 -0.33728666195E+03  0.33876409199E+03  0.00000000000E+00 0. -1.
<mgrwt>
<rscale>  1 0.30000000E+03</rscale>
<asrwt>0</asrwt>
<pdfrwt beam="1">  1       21 0.40742349E-02 0.30000000E+03</pdfrwt>
<pdfrwt beam="2">0</pdfrwt>
<totfact> 0.40764598E+04</totfact>
</mgrwt>
</event>
<event>
 6    1  0.1280499E-001  0.3000000E+03  0.7818608E-02  0.1093470E+00
         21   -1    0    0  501  502  0.00000000000E+00  0.00000000000E+00  0.17552988037E+01  0.17552988037E+01  0.00000000000E+00 0. -1.
         13   -1    0    0    0    0 -0.00000000000E+00 -0.00000000000E+00 -0.10000000000E+04  0.10000000000E+04  0.00000000000E+00 0.  1.
    9000005    2    1    2  501    0  0.24935877329E+02  0.20302693986E+02 -0.81988867142E+03  0.82052375983E+03  0.27945591921E+01 0.  0.
         13    1    3    3    0    0  0.17496473524E+02  0.12585947705E+02 -0.54058629104E+03  0.54101577678E+03  0.00000000000E+00 0.  1.
          3    1    3    3  501    0  0.74394038048E+01  0.77167462812E+01 -0.27930238038E+03  0.27950798305E+03  0.00000000000E+00 0.  1.
         -1    1    1    2    0  502 -0.24935877329E+02 -0.20302693986E+02 -0.17835602977E+03  0.18123153897E+03  0.00000000000E+00 0. -1.
<mgrwt>
<rscale>  1 0.30000000E+03</rscale>
<asrwt>0</asrwt>
<pdfrwt beam="1">  1       21 0.63829182E-02 0.30000000E+03</pdfrwt>
<pdfrwt beam="2">0</pdfrwt>
<totfact> 0.18936416E+04</totfact>
</mgrwt>
</event>
<event>
 6    1  0.1280499E-001  0.3000000E+03  0.7818608E-02  0.1093470E+00
         21   -1    0    0  501  502  0.00000000000E+00  0.00000000000E+00  0.11935558312E+01  0.11935558312E+01  0.00000000000E+00 0. -1.
         13   -1    0    0    0    0 -0.00000000000E+00 -0.00000000000E+00 -0.10000000000E+04  0.10000000000E+04  0.00000000000E+00 0.  1.
    9000005    2    1    2  501    0  0.16586183756E+02  0.26126716601E+02 -0.72050996287E+03  0.72118170195E+03  0.32762505207E+01 0.  0.
         13    1    3    3    0    0  0.12513428604E+02  0.17101203527E+02 -0.47672232806E+03  0.47719305855E+03  0.00000000000E+00 0.  1.
          1    1    3    3  501    0  0.40727551519E+01  0.90255130747E+01 -0.24378763481E+03  0.24398864339E+03  0.00000000000E+00 0.  1.
         -1    1    1    2    0  502 -0.16586183756E+02 -0.26126716601E+02 -0.27829648130E+03  0.28001185388E+03  0.00000000000E+00 0. -1.
<mgrwt>
<rscale>  1 0.30000000E+03</rscale>
<asrwt>0</asrwt>
<pdfrwt beam="1">  1       21 0.43402122E-02 0.30000000E+03</pdfrwt>
<pdfrwt beam="2">0</pdfrwt>
<totfact> 0.36635276E+04</totfact>
</mgrwt>
</event>
<event>
 6    1  0.1280499E-001  0.3000000E+03  0.7818608E-02  0.1093470E+00
         21   -1    0    0  501  502  0.00000000000E+00  0.00000000000E+00  0.49648390881E+01  0.49648390881E+01  0.00000000000E+00 0. -1.
         13   -1    0    0    0    0 -0.00000000000E+00 -0.00000000000E+00 -0.10000000000E+04  0.10000000000E+04  0.00000000000E+00 0.  1.
    9000005    2    1    2  501    0  0.81381467139E+01 -0.40358824366E+02 -0.90524072730E+03  0.90618172087E+03  0.30777833964E+01 0.  0.
         13    1    3    3    0    0  0.77742363108E+01 -0.38641941101E+02 -0.85051903850E+03  0.85143189581E+03  0.00000000000E+00 0.  1.
          3    1    3    3  501    0  0.36391040317E+00 -0.17168832647E+01 -0.54721688800E+02  0.54749825060E+02  0.00000000000E+00 0.  1.
         -1    1    1    2    0  502 -0.81381467139E+01  0.40358824366E+02 -0.89794433616E+02  0.98783118216E+02  0.00000000000E+00 0. -1.
<mgrwt>
<rscale>  1 0.30000000E+03</rscale>
<asrwt>0</asrwt>
<pdfrwt beam="1">  1       21 0.18053998E-01 0.30000000E+03</pdfrwt>
<pdfrwt beam="2">0</pdfrwt>
<totfact> 0.29130687E+03</totfact>
</mgrwt>
</event>
<event>
 6    1  0.1280499E-001  0.3000000E+03  0.7818608E-02  0.1093470E+00
         21   -1    0    0  501  502  0.00000000000E+00  0.00000000000E+00  0.10435023069E+02  0.10435023069E+02  0.00000000000E+00 0. -1.
         13   -1    0    0    0    0 -0.00000000000E+00 -0.00000000000E+00 -0.10000000000E+04  0.10000000000E+04  0.00000000000E+00 0.  1.
    9000005    2    1    2  501    0 -0.87760817542E+02 -0.10544477876E+02 -0.74786490499E+03  0.75307909855E+03  0.36146157486E+01 0.  0.
         13    1    3    3    0    0 -0.30492750380E+02 -0.23194576452E+01 -0.26790841010E+03  0.26964811128E+03  0.00000000000E+00 0.  1.
          1    1    3    3  501    0 -0.57268067162E+02 -0.82250202310E+01 -0.47995649489E+03  0.48343098728E+03  0.00000000000E+00 0.  1.
         -1    1    1    2    0  502  0.87760817542E+02  0.10544477876E+02 -0.24170007194E+03  0.25735592452E+03  0.00000000000E+00 0. -1.
<mgrwt>
<rscale>  1 0.30000000E+03</rscale>
<asrwt>0</asrwt>
<pdfrwt beam="1">  1       21 0.37945618E-01 0.30000000E+03</pdfrwt>
<pdfrwt beam="2">0</pdfrwt>
<totfact> 0.67395597E+02</totfact>
</mgrwt>
</event>
<event>
 6    1  0.1280499E-001  0.3000000E+03  0.7818608E-02  0.1093470E+00
         21   -1    0    0  501  502  0.00000000000E+00  0.00000000000E+00  0.10272270919E+01  0.10272270919E+01  0.00000000000E+00 0. -1.
         13   -1    0    0    0    0 -0.00000000000E+00 -0.00000000000E+00 -0.10000000000E+04  0.10000000000E+04  0.00000000000E+00 0.  1.
    9000005    2    1    2  501    0 -0.31862869816E+02 -0.54179658782E+00 -0.53993293687E+03  0.54088256822E+03  0.32924569954E+01 0.  0.
         13    1    3    3    0    0 -0.18144330357E+02 -0.31856401054E+00 -0.27954579191E+03  0.28013419638E+03  0.00000000000E+00 0.  1.
          1    1    3    3  501    0 -0.13718539459E+02 -0.22323257729E+00 -0.26038714496E+03  0.26074837184E+03  0.00000000000E+00 0.  1.
         -1    1    1    2    0  502  0.31862869816E+02  0.54179658782E+00 -0.45903983604E+03  0.46014465887E+03  0.00000000000E+00 0. -1.
<mgrwt>
<rscale>  1 0.30000000E+03</rscale>
<asrwt>0</asrwt>
<pdfrwt beam="1">  1       21 0.37353791E-02 0.30000000E+03</pdfrwt>
<pdfrwt beam="2">0</pdfrwt>
<totfact> 0.47175718E+04</totfact>
</mgrwt>
</event>
<event>
 6    1  0.1280499E-001  0.3000000E+03  0.7818608E-02  0.1093470E+00
         21   -1    0    0  501  502  0.00000000000E+00  0.00000000000E+00  0.20585489218E+01  0.20585489218E+01  0.00000000000E+00 0. -1.
         13   -1    0    0    0    0 -0.00000000000E+00 -0.00000000000E+00 -0.10000000000E+04  0.10000000000E+04  0.00000000000E+00 0.  1.
    9000005    2    1    2  501    0  0.23827022914E+02  0.38419516517E+02 -0.46355646047E+03  0.46576468875E+03  0.28925720092E+01 0.  0.
         13    1    3    3    0    0  0.11622592400E+01  0.24483150265E+01 -0.22078845010E+02  0.22244560908E+02  0.00000000000E+00 0.  1.
          1    1    3    3  501    0  0.22664763674E+02  0.35971201491E+02 -0.44147761546E+03  0.44352012784E+03  0.00000000000E+00 0.  1.
         -1    1    1    2    0  502 -0.23827022914E+02 -0.38419516517E+02 -0.53438499061E+03  0.53629386017E+03  0.00000000000E+00 0. -1.
<mgrwt>
<rscale>  1 0.30000000E+03</rscale>
<asrwt>0</asrwt>
<pdfrwt beam="1">  1       21 0.74856482E-02 0.30000000E+03</pdfrwt>
<pdfrwt beam="2">0</pdfrwt>
<totfact> 0.14352513E+04</totfact>
</mgrwt>
</event>
<event>
 6    1  0.1280499E-001  0.3000000E+03  0.7818608E-02  0.1093470E+00
         21   -1    0    0  501  502  0.00000000000E+00  0.00000000000E+00  0.19349863324E+01  0.19349863324E+01  0.00000000000E+00 0. -1.
         13   -1    0    0    0    0 -0.00000000000E+00 -0.00000000000E+00 -0.10000000000E+04  0.10000000000E+04  0.00000000000E+00 0.  1.
    9000005    2    1    2  501    0  0.80490872522E+00  0.43840686326E+02 -0.46159881203E+03  0.46367980600E+03  0.16868814068E+01 0.  0.
         13    1    3    3    0    0  0.73499379498E+00  0.91719492948E+01 -0.92778518083E+02  0.93233675716E+02  0.00000000000E+00 0.  1.
          3    1    3    3  501    0  0.69914930248E-01  0.34668737031E+02 -0.36882029394E+03  0.37044613028E+03  0.00000000000E+00 0.  1.
         -1    1    1    2    0  502 -0.80490872522E+00 -0.43840686326E+02 -0.53646620164E+03  0.53825518034E+03  0.00000000000E+00 0. -1.
<mgrwt>
<rscale>  1 0.30000000E+03</rscale>
<asrwt>0</asrwt>
<pdfrwt beam="1">  1       21 0.70363288E-02 0.30000000E+03</pdfrwt>
<pdfrwt beam="2">0</pdfrwt>
<totfact> 0.15990552E+04</totfact>
</mgrwt>
</event>
<event>
 6    1  0.1280499E-001  0.3000000E+03  0.7818608E-02  0.1093470E+00
         21   -1    0    0  501  502  0.00000000000E+00  0.00000000000E+00  0.32920828268E+01  0.32920828268E+01  0.00000000000E+00 0. -1.
         13   -1    0    0    0    0 -0.00000000000E+00 -0.00000000000E+00 -0.10000000000E+04  0.10000000000E+04  0.00000000000E+00 0.  1.
    9000005    2    1    2  501    0  0.26723582997E+02  0.48927718480E+02 -0.61521438832E+03  0.61774651603E+03  0.37340247582E+01 0.  0.
         13    1    3    3    0    0  0.10325234043E+02  0.15629912176E+02 -0.19757455345E+03  0.19846059756E+03  0.00000000000E+00 0.  1.
          3    1    3    3  501    0  0.16398348955E+02  0.33297806304E+02 -0.41763983487E+03  0.41928591847E+03  0.00000000000E+00 0.  1.
         -1    1    1    2    0  502 -0.26723582997E+02 -0.48927718480E+02 -0.38149352885E+03  0.38554556680E+03  0.00000000000E+00 0. -1.
<mgrwt>
<rscale>  1 0.30000000E+03</rscale>
<asrwt>0</asrwt>
<pdfrwt beam="1">  1       21 0.11971236E-01 0.30000000E+03</pdfrwt>
<pdfrwt beam="2">0</pdfrwt>
<totfact> 0.62241675E+03</totfact>
</mgrwt>
</event>
<event>
 6    1  0.1280499E-001  0.3000000E+03  0.7818608E-02  0.1093470E+00
         21   -1    0    0  501  502  0.00000000000E+00  0.00000000000E+00  0.13824354746E+01  0.13824354746E+01  0.00000000000E+00 0. -1.
         13   -1    0    0    0    0 -0.00000000000E+00 -0.00000000000E+00 -0.10000000000E+04  0.10000000000E+04  0.00000000000E+00 0.  1.
    9000005    2    1    2  501    0 -0.19655190429E+02 -0.29825798144E+02 -0.41633380427E+03  0.41800410008E+03  0.10848334595E+02 0.  0.
         13    1    3    3    0    0 -0.46777727077E+01 -0.50981736357E+01 -0.43049549820E+02  0.43602026004E+02  0.00000000000E+00 0.  1.
          3    1    3    3  501    0 -0.14977417721E+02 -0.24727624509E+02 -0.37328425445E+03  0.37440207408E+03  0.00000000000E+00 0.  1.
         -3    1    1    2    0  502  0.19655190429E+02  0.29825798144E+02 -0.58228376026E+03  0.58337833539E+03  0.00000000000E+00 0. -1.
<mgrwt>
<rscale>  1 0.30000000E+03</rscale>
<asrwt>0</asrwt>
<pdfrwt beam="1">  1       21 0.50270487E-02 0.30000000E+03</pdfrwt>
<pdfrwt beam="2">0</pdfrwt>
<totfact> 0.28540911E+04</totfact>
</mgrwt>
</event>
<event>
 6    1  0.1280499E-001  0.3000000E+03  0.7818608E-02  0.1093470E+00
         21   -1    0    0  501  502  0.00000000000E+00  0.00000000000E+00  0.98895946753E+01  0.98895946753E+01  0.00000000000E+00 0. -1.
         13   -1    0    0    0    0 -0.00000000000E+00 -0.00000000000E+00 -0.10000000000E+04  0.10000000000E+04  0.00000000000E+00 0.  1.
    9000005    2    1    2  501    0 -0.76281212853E+02  0.69165043516E+00 -0.81893519414E+03  0.82248560662E+03  0.29015654005E+01 0.  0.
         13    1    3    3    0    0 -0.19471911729E+02 -0.85896014534E+00 -0.21706698174E+03  0.21794028476E+03  0.00000000000E+00 0.  1.
          3    1    3    3  501    0 -0.56809301124E+02  0.15506105805E+01 -0.60186821240E+03  0.60454532186E+03  0.00000000000E+00 0.  1.
         -1    1    1    2    0  502  0.76281212853E+02 -0.69165043516E+00 -0.17117521118E+03  0.18740398805E+03  0.00000000000E+00 0. -1.
<mgrwt>
<rscale>  1 0.30000000E+03</rscale>
<asrwt>0</asrwt>
<pdfrwt beam="1">  1       21 0.35962238E-01 0.30000000E+03</pdfrwt>
<pdfrwt beam="2">0</pdfrwt>
<totfact> 0.75277853E+02</totfact>
</mgrwt>
</event>
<event>
 6    1  0.1280499E-001  0.3000000E+03  0.7818608E-02  0.1093470E+00
         21   -1    0    0  501  502  0.00000000000E+00  0.00000000000E+00  0.25622134329E+01  0.25622134329E+01  0.00000000000E+00 0. -1.
         13   -1    0    0    0    0 -0.00000000000E+00 -0.00000000000E+00 -0.10000000000E+04  0.10000000000E+04  0.00000000000E+00 0.  1.
    9000005    2    1    2  501    0  0.18297109507E+02  0.30633413745E+02 -0.85407548633E+03  0.85482616711E+03  0.31063437241E+01 0.  0.
         13    1    3    3    0    0  0.83936028610E+01  0.15854414600E+02 -0.39900992447E+03  0.39941298785E+03  0.00000000000E+00 0.  1.
          3    1    3    3  501    0  0.99035066463E+01  0.14778999145E+02 -0.45506556186E+03  0.45541317926E+03  0.00000000000E+00 0.  1.
         -1    1    1    2    0  502 -0.18297109507E+02 -0.30633413745E+02 -0.14336230024E+03  0.14773604632E+03  0.00000000000E+00 0. -1.
<mgrwt>
<rscale>  1 0.30000000E+03</rscale>
<asrwt>0</asrwt>
<pdfrwt beam="1">  1       21 0.93171594E-02 0.30000000E+03</pdfrwt>
<pdfrwt beam="2">0</pdfrwt>
<totfact> 0.97594607E+03</totfact>
</mgrwt>
</event>
<event>
 6    1  0.1280499E-001  0.3000000E+03  0.7818608E-02  0.1093470E+00
         21   -1    0    0  501  502  0.00000000000E+00  0.00000000000E+00  0.37395872571E+01  0.37395872571E+01  0.00000000000E+00 0. -1.
         13   -1    0    0    0    0 -0.00000000000E+00 -0.00000000000E+00 -0.10000000000E+04  0.10000000000E+04  0.00000000000E+00 0.  1.
    9000005    2    1    2  501    0  0.59594694737E+02  0.30558597524E+01 -0.39029548215E+03  0.39484356737E+03  0.31643942926E+01 0.  0.
         13    1    3    3    0    0  0.16178532889E+02  0.14861697559E+00 -0.11411597356E+03  0.11525720123E+03  0.00000000000E+00 0.  1.
          3    1    3    3  501    0  0.43416161848E+02  0.29072427768E+01 -0.27617950858E+03  0.27958636614E+03  0.00000000000E+00 0.  1.
         -1    1    1    2    0  502 -0.59594694737E+02 -0.30558597524E+01 -0.60596493059E+03  0.60889601988E+03  0.00000000000E+00 0. -1.
<mgrwt>
<rscale>  1 0.30000000E+03</rscale>
<asrwt>0</asrwt>
<pdfrwt beam="1">  1       21 0.13598528E-01 0.30000000E+03</pdfrwt>
<pdfrwt beam="2">0</pdfrwt>
<totfact> 0.49331417E+03</totfact>
</mgrwt>
</event>
<event>
 6    1  0.1280499E-001  0.3000000E+03  0.7818608E-02  0.1093470E+00
         21   -1    0    0  501  502  0.00000000000E+00  0.00000000000E+00  0.10683348713E+01  0.10683348713E+01  0.00000000000E+00 0. -1.
         13   -1    0    0    0    0 -0.00000000000E+00 -0.00000000000E+00 -0.10000000000E+04  0.10000000000E+04  0.00000000000E+00 0.  1.
    9000005    2    1    2  501    0 -0.15112165045E+02 -0.26123885846E+02 -0.68989504375E+03  0.69056154220E+03  0.30392804930E+01 0.  0.
         13    1    3    3    0    0 -0.41970366734E+01 -0.72901312354E+01 -0.16276433405E+03  0.16298156205E+03  0.00000000000E+00 0.  1.
          3    1    3    3  501    0 -0.10915128372E+02 -0.18833754611E+02 -0.52713070971E+03  0.52757998015E+03  0.00000000000E+00 0.  1.
         -1    1    1    2    0  502  0.15112165045E+02  0.26123885846E+02 -0.30903662137E+03  0.31050679267E+03  0.00000000000E+00 0. -1.
<mgrwt>
<rscale>  1 0.30000000E+03</rscale>
<asrwt>0</asrwt>
<pdfrwt beam="1">  1       21 0.38848623E-02 0.30000000E+03</pdfrwt>
<pdfrwt beam="2">0</pdfrwt>
<totfact> 0.44165601E+04</totfact>
</mgrwt>
</event>
<event>
 6    1  0.1280499E-001  0.3000000E+03  0.7818608E-02  0.1093470E+00
         21   -1    0    0  501  502  0.00000000000E+00  0.00000000000E+00  0.14534686137E+01  0.14534686137E+01  0.00000000000E+00 0. -1.
         13   -1    0    0    0    0 -0.00000000000E+00 -0.00000000000E+00 -0.10000000000E+04  0.10000000000E+04  0.00000000000E+00 0.  1.
    9000005    2    1    2  501    0  0.28126428689E+02  0.20848805712E+02 -0.69621756103E+03  0.69710403949E+03  0.30628252119E+01 0.  0.
         13    1    3    3    0    0  0.12551804797E+02  0.11206796746E+02 -0.33202275946E+03  0.33244887260E+03  0.00000000000E+00 0.  1.
          1    1    3    3  501    0  0.15574623892E+02  0.96420089653E+01 -0.36419480157E+03  0.36465516688E+03  0.00000000000E+00 0.  1.
         -1    1    1    2    0  502 -0.28126428689E+02 -0.20848805712E+02 -0.30232897036E+03  0.30434942913E+03  0.00000000000E+00 0. -1.
<mgrwt>
<rscale>  1 0.30000000E+03</rscale>
<asrwt>0</asrwt>
<pdfrwt beam="1">  1       21 0.52853516E-02 0.30000000E+03</pdfrwt>
<pdfrwt beam="2">0</pdfrwt>
<totfact> 0.26200584E+04</totfact>
</mgrwt>
</event>
<event>
 6    1  0.1280499E-001  0.3000000E+03  0.7818608E-02  0.1093470E+00
         21   -1    0    0  501  502  0.00000000000E+00  0.00000000000E+00  0.22732340018E+01  0.22732340018E+01  0.00000000000E+00 0. -1.
         13   -1    0    0    0    0 -0.00000000000E+00 -0.00000000000E+00 -0.10000000000E+04  0.10000000000E+04  0.00000000000E+00 0.  1.
    9000005    2    1    2  501    0  0.12880635815E+02  0.32598307747E+02 -0.83823853739E+03  0.83897885102E+03  0.36202839289E+01 0.  0.
         13    1    3    3    0    0  0.10155614789E+02  0.28976914389E+02 -0.73122649864E+03  0.73187088369E+03  0.00000000000E+00 0.  1.
          1    1    3    3  501    0  0.27250210263E+01  0.36213933580E+01 -0.10701203875E+03  0.10710796734E+03  0.00000000000E+00 0.  1.
         -3    1    1    2    0  502 -0.12880635815E+02 -0.32598307747E+02 -0.15948822861E+03  0.16329438298E+03  0.00000000000E+00 0. -1.
<mgrwt>
<rscale>  1 0.30000000E+03</rscale>
<asrwt>0</asrwt>
<pdfrwt beam="1">  1       21 0.82663229E-02 0.30000000E+03</pdfrwt>
<pdfrwt beam="2">0</pdfrwt>
<totfact> 0.12059159E+04</totfact>
</mgrwt>
</event>
<event>
 6    1  0.1280499E-001  0.3000000E+03  0.7818608E-02  0.1093470E+00
         21   -1    0    0  501  502  0.00000000000E+00  0.00000000000E+00  0.24567690817E+01  0.24567690817E+01  0.00000000000E+00 0. -1.
         13   -1    0    0    0    0 -0.00000000000E+00 -0.00000000000E+00 -0.10000000000E+04  0.10000000000E+04  0.00000000000E+00 0.  1.
    9000005    2    1    2  501    0 -0.18701180956E+02 -0.34343993333E+02 -0.80641212693E+03  0.80736616716E+03  0.32195286036E+01 0.  0.
         13    1    3    3    0    0 -0.15333536835E+02 -0.27023147108E+02 -0.61464069038E+03  0.61542550004E+03  0.00000000000E+00 0.  1.
          1    1    3    3  501    0 -0.33676441205E+01 -0.73208462252E+01 -0.19177143655E+03  0.19194066711E+03  0.00000000000E+00 0.  1.
         -1    1    1    2    0  502  0.18701180956E+02  0.34343993333E+02 -0.19113110399E+03  0.19509060193E+03  0.00000000000E+00 0. -1.
<mgrwt>
<rscale>  1 0.30000000E+03</rscale>
<asrwt>0</asrwt>
<pdfrwt beam="1">  1       21 0.89337246E-02 0.30000000E+03</pdfrwt>
<pdfrwt beam="2">0</pdfrwt>
<totfact> 0.10514835E+04</totfact>
</mgrwt>
</event>
<event>
 6    1  0.1280499E-001  0.3000000E+03  0.7818608E-02  0.1093470E+00
         21   -1    0    0  501  502  0.00000000000E+00  0.00000000000E+00  0.12937007663E+01  0.12937007663E+01  0.00000000000E+00 0. -1.
         13   -1    0    0    0    0 -0.00000000000E+00 -0.00000000000E+00 -0.10000000000E+04  0.10000000000E+04  0.00000000000E+00 0.  1.
    9000005    2    1    2  501    0  0.25359742190E+02 -0.21249544560E+02 -0.69331925574E+03  0.69411963611E+03  0.39773327630E+01 0.  0.
         13    1    3    3    0    0  0.58121857017E+00  0.93031204232E-01 -0.88270963903E+01  0.88466999788E+01  0.00000000000E+00 0.  1.
          3    1    3    3  501    0  0.24778523620E+02 -0.21342575764E+02 -0.68449215935E+03  0.68527293613E+03  0.00000000000E+00 0.  1.
         -1    1    1    2    0  502 -0.25359742190E+02  0.21249544560E+02 -0.30538704349E+03  0.30717406466E+03  0.00000000000E+00 0. -1.
<mgrwt>
<rscale>  1 0.30000000E+03</rscale>
<asrwt>0</asrwt>
<pdfrwt beam="1">  1       21 0.47043763E-02 0.30000000E+03</pdfrwt>
<pdfrwt beam="2">0</pdfrwt>
<totfact> 0.31953728E+04</totfact>
</mgrwt>
</event>
<event>
 6    1  0.1280499E-001  0.3000000E+03  0.7818608E-02  0.1093470E+00
         21   -1    0    0  501  502  0.00000000000E+00  0.00000000000E+00  0.21970675185E+01  0.21970675185E+01  0.00000000000E+00 0. -1.
         13   -1    0    0    0    0 -0.00000000000E+00 -0.00000000000E+00 -0.10000000000E+04  0.10000000000E+04  0.00000000000E+00 0.  1.
    9000005    2    1    2  501    0  0.31714420405E+02  0.16275416360E+01 -0.86729187404E+03  0.86787808253E+03  0.29526264580E+01 0.  0.
         13    1    3    3    0    0  0.10588042606E+01 -0.48085763415E+00 -0.29765670084E+02  0.29788377030E+02  0.00000000000E+00 0.  1.
          3    1    3    3  501    0  0.30655616144E+02  0.21083992702E+01 -0.83752620396E+03  0.83808970550E+03  0.00000000000E+00 0.  1.
         -3    1    1    2    0  502 -0.31714420405E+02 -0.16275416360E+01 -0.13051105844E+03  0.13431898499E+03  0.00000000000E+00 0. -1.
<mgrwt>
<rscale>  1 0.30000000E+03</rscale>
<asrwt>0</asrwt>
<pdfrwt beam="1">  1       21 0.79893533E-02 0.30000000E+03</pdfrwt>
<pdfrwt beam="2">0</pdfrwt>
<totfact> 0.12803782E+04</totfact>
</mgrwt>
</event>
<event>
 6    1  0.1280499E-001  0.3000000E+03  0.7818608E-02  0.1093470E+00
         21   -1    0    0  501  502  0.00000000000E+00  0.00000000000E+00  0.34807266026E+01  0.34807266026E+01  0.00000000000E+00 0. -1.
         13   -1    0    0    0    0 -0.00000000000E+00 -0.00000000000E+00 -0.10000000000E+04  0.10000000000E+04  0.00000000000E+00 0.  1.
    9000005    2    1    2  501    0 -0.15731298990E+02  0.33320988110E+02 -0.88999946379E+03  0.89076767565E+03  0.32006901911E+01 0.  0.
         13    1    3    3    0    0 -0.13570661796E+02  0.29201832498E+02 -0.74998049212E+03  0.75067146505E+03  0.00000000000E+00 0.  1.
          3    1    3    3  501    0 -0.21606371937E+01  0.41191556120E+01 -0.14001897167E+03  0.14009621060E+03  0.00000000000E+00 0.  1.
         -3    1    1    2    0  502  0.15731298990E+02 -0.33320988110E+02 -0.10651980961E+03  0.11271305095E+03  0.00000000000E+00 0. -1.
<mgrwt>
<rscale>  1 0.30000000E+03</rscale>
<asrwt>0</asrwt>
<pdfrwt beam="1">  1       21 0.12657214E-01 0.30000000E+03</pdfrwt>
<pdfrwt beam="2">0</pdfrwt>
<totfact> 0.56241415E+03</totfact>
</mgrwt>
</event>
<event>
 6    1  0.1280499E-001  0.3000000E+03  0.7818608E-02  0.1093470E+00
         21   -1    0    0  501  502  0.00000000000E+00  0.00000000000E+00  0.10291975014E+01  0.10291975014E+01  0.00000000000E+00 0. -1.
         13   -1    0    0    0    0 -0.00000000000E+00 -0.00000000000E+00 -0.10000000000E+04  0.10000000000E+04  0.00000000000E+00 0.  1.
    9000005    2    1    2  501    0  0.16131807831E+02 -0.26674547125E+02 -0.61250709505E+03  0.61331027371E+03  0.35754255606E+01 0.  0.
         13    1    3    3    0    0  0.12999271102E+02 -0.22780233983E+02 -0.53462778889E+03  0.53527076584E+03  0.00000000000E+00 0.  1.
          1    1    3    3  501    0  0.31325367293E+01 -0.38943131415E+01 -0.77879306158E+02  0.78039507872E+02  0.00000000000E+00 0.  1.
         -3    1    1    2    0  502 -0.16131807831E+02  0.26674547125E+02 -0.38646370745E+03  0.38771892379E+03  0.00000000000E+00 0. -1.
<mgrwt>
<rscale>  1 0.30000000E+03</rscale>
<asrwt>0</asrwt>
<pdfrwt beam="1">  1       21 0.37425443E-02 0.30000000E+03</pdfrwt>
<pdfrwt beam="2">0</pdfrwt>
<totfact> 0.47024163E+04</totfact>
</mgrwt>
</event>
<event>
 6    1  0.1280499E-001  0.3000000E+03  0.7818608E-02  0.1093470E+00
         21   -1    0    0  501  502  0.00000000000E+00  0.00000000000E+00  0.37936640245E+01  0.37936640245E+01  0.00000000000E+00 0. -1.
         13   -1    0    0    0    0 -0.00000000000E+00 -0.00000000000E+00 -0.10000000000E+04  0.10000000000E+04  0.00000000000E+00 0.  1.
    9000005    2    1    2  501    0  0.97644408335E+01  0.42743425412E+02 -0.85048042924E+03  0.85161487242E+03  0.29301337093E+01 0.  0.
         13    1    3    3    0    0  0.39442334811E+01  0.12262470692E+02 -0.23550326654E+03  0.23585528130E+03  0.00000000000E+00 0.  1.
          3    1    3    3  501    0  0.58202073524E+01  0.30480954720E+02 -0.61497716270E+03  0.61575959112E+03  0.00000000000E+00 0.  1.
         -1    1    1    2    0  502 -0.97644408335E+01 -0.42743425412E+02 -0.14572590673E+03  0.15217879161E+03  0.00000000000E+00 0. -1.
<mgrwt>
<rscale>  1 0.30000000E+03</rscale>
<asrwt>0</asrwt>
<pdfrwt beam="1">  1       21 0.13795171E-01 0.30000000E+03</pdfrwt>
<pdfrwt beam="2">0</pdfrwt>
<totfact> 0.48049633E+03</totfact>
</mgrwt>
</event>
<event>
 6    1  0.1280499E-001  0.3000000E+03  0.7818608E-02  0.1093470E+00
         21   -1    0    0  501  502  0.00000000000E+00  0.00000000000E+00  0.21934819495E+01  0.21934819495E+01  0.00000000000E+00 0. -1.
         13   -1    0    0    0    0 -0.00000000000E+00 -0.00000000000E+00 -0.10000000000E+04  0.10000000000E+04  0.00000000000E+00 0.  1.
    9000005    2    1    2  501    0  0.31680101932E+02 -0.27846921578E+02 -0.71592230013E+03  0.71717104036E+03  0.32374991404E+01 0.  0.
         13    1    3    3    0    0  0.26322201216E+02 -0.21426800404E+02 -0.57573234163E+03  0.57673190934E+03  0.00000000000E+00 0.  1.
          3    1    3    3  501    0  0.53579007162E+01 -0.64201211745E+01 -0.14018995851E+03  0.14043913102E+03  0.00000000000E+00 0.  1.
         -3    1    1    2    0  502 -0.31680101932E+02  0.27846921578E+02 -0.28188421792E+03  0.28502244159E+03  0.00000000000E+00 0. -1.
<mgrwt>
<rscale>  1 0.30000000E+03</rscale>
<asrwt>0</asrwt>
<pdfrwt beam="1">  1       21 0.79763148E-02 0.30000000E+03</pdfrwt>
<pdfrwt beam="2">0</pdfrwt>
<totfact> 0.12840563E+04</totfact>
</mgrwt>
</event>
<event>
 6    1  0.1280499E-001  0.3000000E+03  0.7818608E-02  0.1093470E+00
         21   -1    0    0  501  502  0.00000000000E+00  0.00000000000E+00  0.36661078482E+01  0.36661078482E+01  0.00000000000E+00 0. -1.
         13   -1    0    0    0    0 -0.00000000000E+00 -0.00000000000E+00 -0.10000000000E+04  0.10000000000E+04  0.00000000000E+00 0.  1.
    9000005    2    1    2  501    0  0.38470323044E+02  0.90152172540E+01 -0.87818171996E+03  0.87908209728E+03  0.45782722521E+01 0.  0.
         13    1    3    3    0    0  0.23508841743E+02  0.72329297664E+01 -0.57616198557E+03  0.57668675599E+03  0.00000000000E+00 0.  1.
          1    1    3    3  501    0  0.14961481301E+02  0.17822874876E+01 -0.30201973439E+03  0.30239534129E+03  0.00000000000E+00 0.  1.
         -1    1    1    2    0  502 -0.38470323044E+02 -0.90152172540E+01 -0.11815217219E+03  0.12458401057E+03  0.00000000000E+00 0. -1.
<mgrwt>
<rscale>  1 0.30000000E+03</rscale>
<asrwt>0</asrwt>
<pdfrwt beam="1">  1       21 0.13331329E-01 0.30000000E+03</pdfrwt>
<pdfrwt beam="2">0</pdfrwt>
<totfact> 0.51156937E+03</totfact>
</mgrwt>
</event>
<event>
 6    1  0.1280499E-001  0.3000000E+03  0.7818608E-02  0.1093470E+00
         21   -1    0    0  501  502  0.00000000000E+00  0.00000000000E+00  0.11436549750E+01  0.11436549750E+01  0.00000000000E+00 0. -1.
         13   -1    0    0    0    0 -0.00000000000E+00 -0.00000000000E+00 -0.10000000000E+04  0.10000000000E+04  0.00000000000E+00 0.  1.
    9000005    2    1    2  501    0 -0.32142908793E+02 -0.54878470741E+01 -0.62672406436E+03  0.62758547026E+03  0.41456710157E+01 0.  0.
         13    1    3    3    0    0 -0.32366270564E+01 -0.55115378168E+00 -0.42934803219E+02  0.43060153885E+02  0.00000000000E+00 0.  1.
          1    1    3    3  501    0 -0.28906281736E+02 -0.49366932925E+01 -0.58378926114E+03  0.58452531638E+03  0.00000000000E+00 0.  1.
         -3    1    1    2    0  502  0.32142908793E+02  0.54878470741E+01 -0.37213228067E+03  0.37355818471E+03  0.00000000000E+00 0. -1.
<mgrwt>
<rscale>  1 0.30000000E+03</rscale>
<asrwt>0</asrwt>
<pdfrwt beam="1">  1       21 0.41587541E-02 0.30000000E+03</pdfrwt>
<pdfrwt beam="2">0</pdfrwt>
<totfact> 0.39377050E+04</totfact>
</mgrwt>
</event>
<event>
 6    1  0.1280499E-001  0.3000000E+03  0.7818608E-02  0.1093470E+00
         21   -1    0    0  501  502  0.00000000000E+00  0.00000000000E+00  0.11947893537E+01  0.11947893537E+01  0.00000000000E+00 0. -1.
         13   -1    0    0    0    0 -0.00000000000E+00 -0.00000000000E+00 -0.10000000000E+04  0.10000000000E+04  0.00000000000E+00 0.  1.
    9000005    2    1    2  501    0  0.10390440211E+02  0.30148571587E+02 -0.68983153515E+03  0.69057986736E+03  0.40135641016E+01 0.  0.
         13    1    3    3    0    0  0.70990590653E+01  0.18559552766E+02 -0.46760199535E+03  0.46802401615E+03  0.00000000000E+00 0.  1.
          1    1    3    3  501    0  0.32913811454E+01  0.11589018820E+02 -0.22222953980E+03  0.22255585121E+03  0.00000000000E+00 0.  1.
         -1    1    1    2    0  502 -0.10390440211E+02 -0.30148571587E+02 -0.30897367550E+03  0.31061492200E+03  0.00000000000E+00 0. -1.
<mgrwt>
<rscale>  1 0.30000000E+03</rscale>
<asrwt>0</asrwt>
<pdfrwt beam="1">  1       21 0.43446977E-02 0.30000000E+03</pdfrwt>
<pdfrwt beam="2">0</pdfrwt>
<totfact> 0.36571289E+04</totfact>
</mgrwt>
</event>
<event>
 6    1  0.1280499E-001  0.3000000E+03  0.7818608E-02  0.1093470E+00
         21   -1    0    0  501  502  0.00000000000E+00  0.00000000000E+00  0.25321491852E+01  0.25321491852E+01  0.00000000000E+00 0. -1.
         13   -1    0    0    0    0 -0.00000000000E+00 -0.00000000000E+00 -0.10000000000E+04  0.10000000000E+04  0.00000000000E+00 0.  1.
    9000005    2    1    2  501    0  0.36282232849E+02 -0.23734703571E+02 -0.75269310062E+03  0.75394732482E+03  0.31509207039E+01 0.  0.
         13    1    3    3    0    0  0.74633900071E+01 -0.63755923938E+01 -0.16293700860E+03  0.16323240837E+03  0.00000000000E+00 0.  1.
          3    1    3    3  501    0  0.28818842841E+02 -0.17359111177E+02 -0.58975609202E+03  0.59071491645E+03  0.00000000000E+00 0.  1.
         -3    1    1    2    0  502 -0.36282232849E+02  0.23734703571E+02 -0.24477475019E+03  0.24858482437E+03  0.00000000000E+00 0. -1.
<mgrwt>
<rscale>  1 0.30000000E+03</rscale>
<asrwt>0</asrwt>
<pdfrwt beam="1">  1       21 0.92078346E-02 0.30000000E+03</pdfrwt>
<pdfrwt beam="2">0</pdfrwt>
<totfact> 0.99662681E+03</totfact>
</mgrwt>
</event>
<event>
 6    1  0.1280499E-001  0.3000000E+03  0.7818608E-02  0.1093470E+00
         21   -1    0    0  501  502  0.00000000000E+00  0.00000000000E+00  0.26539356742E+01  0.26539356742E+01  0.00000000000E+00 0. -1.
         13   -1    0    0    0    0 -0.00000000000E+00 -0.00000000000E+00 -0.10000000000E+04  0.10000000000E+04  0.00000000000E+00 0.  1.
    9000005    2    1    2  501    0  0.10390417857E+02  0.44038006559E+02 -0.73789561383E+03  0.73928756905E+03  0.29775898222E+01 0.  0.
         13    1    3    3    0    0  0.93304095426E+01  0.41694915705E+02 -0.70315560868E+03  0.70445250553E+03  0.00000000000E+00 0.  1.
          3    1    3    3  501    0  0.10600083145E+01  0.23430908541E+01 -0.34740005152E+02  0.34835063518E+02  0.00000000000E+00 0.  1.
         -3    1    1    2    0  502 -0.10390417857E+02 -0.44038006559E+02 -0.25945045050E+03  0.26336636662E+03  0.00000000000E+00 0. -1.
<mgrwt>
<rscale>  1 0.30000000E+03</rscale>
<asrwt>0</asrwt>
<pdfrwt beam="1">  1       21 0.96506955E-02 0.30000000E+03</pdfrwt>
<pdfrwt beam="2">0</pdfrwt>
<totfact> 0.91669170E+03</totfact>
</mgrwt>
</event>
<event>
 6    1  0.1280499E-001  0.3000000E+03  0.7818608E-02  0.1093470E+00
         21   -1    0    0  501  502  0.00000000000E+00  0.00000000000E+00  0.19276367574E+02  0.19276367574E+02  0.00000000000E+00 0. -1.
         13   -1    0    0    0    0 -0.00000000000E+00 -0.00000000000E+00 -0.10000000000E+04  0.10000000000E+04  0.00000000000E+00 0.  1.
    9000005    2    1    2  501    0 -0.11180092941E+03  0.28360944346E+02 -0.77400503406E+03  0.78255634330E+03  0.26166223328E+01 0.  0.
         13    1    3    3    0    0 -0.10309261369E+03  0.25464220904E+02 -0.71402787395E+03  0.72188109708E+03  0.00000000000E+00 0.  1.
          1    1    3    3  501    0 -0.87083157177E+01  0.28967234419E+01 -0.59977160105E+02  0.60675246218E+02  0.00000000000E+00 0.  1.
         -3    1    1    2    0  502  0.11180092941E+03 -0.28360944346E+02 -0.20671859837E+03  0.23672002427E+03  0.00000000000E+00 0. -1.
<mgrwt>
<rscale>  1 0.30000000E+03</rscale>
<asrwt>0</asrwt>
<pdfrwt beam="1">  1       21 0.70096030E-01 0.30000000E+03</pdfrwt>
<pdfrwt beam="2">0</pdfrwt>
<totfact> 0.17585246E+02</totfact>
</mgrwt>
</event>
<event>
 6    1  0.1280499E-001  0.3000000E+03  0.7818608E-02  0.1093470E+00
         21   -1    0    0  501  502  0.00000000000E+00  0.00000000000E+00  0.11367936855E+02  0.11367936855E+02  0.00000000000E+00 0. -1.
         13   -1    0    0    0    0 -0.00000000000E+00 -0.00000000000E+00 -0.10000000000E+04  0.10000000000E+04  0.00000000000E+00 0.  1.
    9000005    2    1    2  501    0  0.41142039269E+02 -0.33993936292E+02 -0.93206736163E+03  0.93360020217E+03  0.33934916760E+01 0.  0.
         13    1    3    3    0    0  0.30985826625E+02 -0.26433738977E+02 -0.68765131858E+03  0.68885644365E+03  0.00000000000E+00 0.  1.
          3    1    3    3  501    0  0.10156212644E+02 -0.75601973147E+01 -0.24441604304E+03  0.24474375852E+03  0.00000000000E+00 0.  1.
         -1    1    1    2    0  502 -0.41142039269E+02  0.33993936292E+02 -0.56564701517E+02  0.77767734682E+02  0.00000000000E+00 0. -1.
<mgrwt>
<rscale>  1 0.30000000E+03</rscale>
<asrwt>0</asrwt>
<pdfrwt beam="1">  1       21 0.41338039E-01 0.30000000E+03</pdfrwt>
<pdfrwt beam="2">0</pdfrwt>
<totfact> 0.56378955E+02</totfact>
</mgrwt>
</event>
<event>
 6    1  0.1280499E-001  0.3000000E+03  0.7818608E-02  0.1093470E+00
         21   -1    0    0  501  502  0.00000000000E+00  0.00000000000E+00  0.12828868202E+01  0.12828868202E+01  0.00000000000E+00 0. -1.
         13   -1    0    0    0    0 -0.00000000000E+00 -0.00000000000E+00 -0.10000000000E+04  0.10000000000E+04  0.00000000000E+00 0.  1.
    9000005    2    1    2  501    0  0.27689778353E+02 -0.20962420522E+02 -0.61735258136E+03  0.61834026314E+03  0.37847604148E+01 0.  0.
         13    1    3    3    0    0  0.41256747358E+01 -0.35617132441E+01 -0.75496342156E+02  0.75692831049E+02  0.00000000000E+00 0.  1.
          3    1    3    3  501    0  0.23564103618E+02 -0.17400707278E+02 -0.54185623921E+03  0.54264743210E+03  0.00000000000E+00 0.  1.
         -3    1    1    2    0  502 -0.27689778353E+02  0.20962420522E+02 -0.38136453182E+03  0.38294262368E+03  0.00000000000E+00 0. -1.
<mgrwt>
<rscale>  1 0.30000000E+03</rscale>
<asrwt>0</asrwt>
<pdfrwt beam="1">  1       21 0.46650528E-02 0.30000000E+03</pdfrwt>
<pdfrwt beam="2">0</pdfrwt>
<totfact> 0.32412981E+04</totfact>
</mgrwt>
</event>
<event>
 6    1  0.1280499E-001  0.3000000E+03  0.7818608E-02  0.1093470E+00
         21   -1    0    0  501  502  0.00000000000E+00  0.00000000000E+00  0.29101375081E+01  0.29101375081E+01  0.00000000000E+00 0. -1.
         13   -1    0    0    0    0 -0.00000000000E+00 -0.00000000000E+00 -0.10000000000E+04  0.10000000000E+04  0.00000000000E+00 0.  1.
    9000005    2    1    2  501    0  0.22551677394E+02  0.47144679539E+02 -0.60659822995E+03  0.60893689724E+03  0.10560931769E+02 0.  0.
         13    1    3    3    0    0  0.11625957220E+02  0.31408656346E+02 -0.33751011983E+03  0.33916772777E+03  0.00000000000E+00 0.  1.
          1    1    3    3  501    0  0.10925720174E+02  0.15736023192E+02 -0.26908811012E+03  0.26976916947E+03  0.00000000000E+00 0.  1.
         -3    1    1    2    0  502 -0.22551677394E+02 -0.47144679539E+02 -0.39049163254E+03  0.39397324027E+03  0.00000000000E+00 0. -1.
<mgrwt>
<rscale>  1 0.30000000E+03</rscale>
<asrwt>0</asrwt>
<pdfrwt beam="1">  1       21 0.10582341E-01 0.30000000E+03</pdfrwt>
<pdfrwt beam="2">0</pdfrwt>
<totfact> 0.77742144E+03</totfact>
</mgrwt>
</event>
<event>
 6    1  0.1280499E-001  0.3000000E+03  0.7818608E-02  0.1093470E+00
         21   -1    0    0  501  502  0.00000000000E+00  0.00000000000E+00  0.25453208116E+01  0.25453208116E+01  0.00000000000E+00 0. -1.
         13   -1    0    0    0    0 -0.00000000000E+00 -0.00000000000E+00 -0.10000000000E+04  0.10000000000E+04  0.00000000000E+00 0.  1.
    9000005    2    1    2  501    0  0.28087682453E+02 -0.13568912400E+02 -0.89127242381E+03  0.89187597254E+03  0.10157935986E+02 0.  0.
         13    1    3    3    0    0  0.25706837244E+02 -0.14729730670E+02 -0.85159576240E+03  0.85211099569E+03  0.00000000000E+00 0.  1.
          1    1    3    3  501    0  0.23808452087E+01  0.11608182696E+01 -0.39676661409E+02  0.39764976845E+02  0.00000000000E+00 0.  1.
         -1    1    1    2    0  502 -0.28087682453E+02  0.13568912400E+02 -0.10618225538E+03  0.11066934827E+03  0.00000000000E+00 0. -1.
<mgrwt>
<rscale>  1 0.30000000E+03</rscale>
<asrwt>0</asrwt>
<pdfrwt beam="1">  1       21 0.92557316E-02 0.30000000E+03</pdfrwt>
<pdfrwt beam="2">0</pdfrwt>
<totfact> 0.98748580E+03</totfact>
</mgrwt>
</event>
<event>
 6    1  0.1280499E-001  0.3000000E+03  0.7818608E-02  0.1093470E+00
         21   -1    0    0  501  502  0.00000000000E+00  0.00000000000E+00  0.54383471402E+01  0.54383471402E+01  0.00000000000E+00 0. -1.
         13   -1    0    0    0    0 -0.00000000000E+00 -0.00000000000E+00 -0.10000000000E+04  0.10000000000E+04  0.00000000000E+00 0.  1.
    9000005    2    1    2  501    0 -0.14716396868E+02 -0.31087618344E+02 -0.94194976888E+03  0.94258118615E+03  0.26292683464E+01 0.  0.
         13    1    3    3    0    0 -0.14818159107E+01 -0.52124156472E+01 -0.15767679953E+03  0.15776988992E+03  0.00000000000E+00 0.  1.
          3    1    3    3  501    0 -0.13234580958E+02 -0.25875202697E+02 -0.78427296934E+03  0.78481129623E+03  0.00000000000E+00 0.  1.
         -3    1    1    2    0  502  0.14716396868E+02  0.31087618344E+02 -0.52611883982E+02  0.62857160986E+02  0.00000000000E+00 0. -1.
<mgrwt>
<rscale>  1 0.30000000E+03</rscale>
<asrwt>0</asrwt>
<pdfrwt beam="1">  1       21 0.19775849E-01 0.30000000E+03</pdfrwt>
<pdfrwt beam="2">0</pdfrwt>
<totfact> 0.24513588E+03</totfact>
</mgrwt>
</event>
<event>
 6    1  0.1280499E-001  0.3000000E+03  0.7818608E-02  0.1093470E+00
         21   -1    0    0  501  502  0.00000000000E+00  0.00000000000E+00  0.23997518970E+01  0.23997518970E+01  0.00000000000E+00 0. -1.
         13   -1    0    0    0    0 -0.00000000000E+00 -0.00000000000E+00 -0.10000000000E+04  0.10000000000E+04  0.00000000000E+00 0.  1.
    9000005    2    1    2  501    0  0.57228879234E+01 -0.37030320944E+02 -0.82109633261E+03  0.82196242677E+03  0.43643415613E+01 0.  0.
         13    1    3    3    0    0  0.16806857658E+01 -0.24291125866E+02 -0.53861522577E+03  0.53916532245E+03  0.00000000000E+00 0.  1.
          3    1    3    3  501    0  0.40422021575E+01 -0.12739195078E+02 -0.28248110684E+03  0.28279710432E+03  0.00000000000E+00 0.  1.
         -1    1    1    2    0  502 -0.57228879234E+01  0.37030320944E+02 -0.17650391549E+03  0.18043732513E+03  0.00000000000E+00 0. -1.
<mgrwt>
<rscale>  1 0.30000000E+03</rscale>
<asrwt>0</asrwt>
<pdfrwt beam="1">  1       21 0.87263889E-02 0.30000000E+03</pdfrwt>
<pdfrwt beam="2">0</pdfrwt>
<totfact> 0.10960731E+04</totfact>
</mgrwt>
</event>
<event>
 6    1  0.1280499E-001  0.3000000E+03  0.7818608E-02  0.1093470E+00
         21   -1    0    0  501  502  0.00000000000E+00  0.00000000000E+00  0.22558918856E+01  0.22558918856E+01  0.00000000000E+00 0. -1.
         13   -1    0    0    0    0 -0.00000000000E+00 -0.00000000000E+00 -0.10000000000E+04  0.10000000000E+04  0.00000000000E+00 0.  1.
    9000005    2    1    2  501    0 -0.20317277715E+01  0.31045344839E+02 -0.87735659704E+03  0.87791324362E+03  0.30205310392E+01 0.  0.
         13    1    3    3    0    0  0.32303986402E+00  0.65848162545E+01 -0.15959131340E+03  0.15972742868E+03  0.00000000000E+00 0.  1.
          3    1    3    3  501    0 -0.23547676355E+01  0.24460528584E+02 -0.71776528364E+03  0.71818581495E+03  0.00000000000E+00 0.  1.
         -1    1    1    2    0  502  0.20317277715E+01 -0.31045344839E+02 -0.12038751107E+03  0.12434264826E+03  0.00000000000E+00 0. -1.
<mgrwt>
<rscale>  1 0.30000000E+03</rscale>
<asrwt>0</asrwt>
<pdfrwt beam="1">  1       21 0.82032605E-02 0.30000000E+03</pdfrwt>
<pdfrwt beam="2">0</pdfrwt>
<totfact> 0.12222752E+04</totfact>
</mgrwt>
</event>
<event>
 6    1  0.1280499E-001  0.3000000E+03  0.7818608E-02  0.1093470E+00
         21   -1    0    0  501  502  0.00000000000E+00  0.00000000000E+00  0.13558155656E+01  0.13558155656E+01  0.00000000000E+00 0. -1.
         13   -1    0    0    0    0 -0.00000000000E+00 -0.00000000000E+00 -0.10000000000E+04  0.10000000000E+04  0.00000000000E+00 0.  1.
    9000005    2    1    2  501    0 -0.14638286828E+02 -0.31698992018E+02 -0.34606623800E+03  0.34784446776E+03  0.38506015919E+01 0.  0.
         13    1    3    3    0    0 -0.34171755858E+01 -0.10962715732E+02 -0.12363118264E+03  0.12416330998E+03  0.00000000000E+00 0.  1.
          1    1    3    3  501    0 -0.11221111242E+02 -0.20736276286E+02 -0.22243505537E+03  0.22368115778E+03  0.00000000000E+00 0.  1.
         -1    1    1    2    0  502  0.14638286828E+02  0.31698992018E+02 -0.65257794643E+03  0.65351134780E+03  0.00000000000E+00 0. -1.
<mgrwt>
<rscale>  1 0.30000000E+03</rscale>
<asrwt>0</asrwt>
<pdfrwt beam="1">  1       21 0.49302488E-02 0.30000000E+03</pdfrwt>
<pdfrwt beam="2">0</pdfrwt>
<totfact> 0.29502578E+04</totfact>
</mgrwt>
</event>
<event>
 6    1  0.1280499E-001  0.3000000E+03  0.7818608E-02  0.1093470E+00
         21   -1    0    0  501  502  0.00000000000E+00  0.00000000000E+00  0.10323836074E+01  0.10323836074E+01  0.00000000000E+00 0. -1.
         13   -1    0    0    0    0 -0.00000000000E+00 -0.00000000000E+00 -0.10000000000E+04  0.10000000000E+04  0.00000000000E+00 0.  1.
    9000005    2    1    2  501    0  0.31855697357E+02 -0.18406582968E+01 -0.52832580602E+03  0.52931012725E+03  0.47833063883E+01 0.  0.
         13    1    3    3    0    0  0.12706403604E+02  0.11105974968E+01 -0.18650461599E+03  0.18694025224E+03  0.00000000000E+00 0.  1.
          1    1    3    3  501    0  0.19149293754E+02 -0.29512557936E+01 -0.34182119003E+03  0.34236987501E+03  0.00000000000E+00 0.  1.
         -1    1    1    2    0  502 -0.31855697357E+02  0.18406582968E+01 -0.47064181037E+03  0.47172225636E+03  0.00000000000E+00 0. -1.
<mgrwt>
<rscale>  1 0.30000000E+03</rscale>
<asrwt>0</asrwt>
<pdfrwt beam="1">  1       21 0.37541301E-02 0.30000000E+03</pdfrwt>
<pdfrwt beam="2">0</pdfrwt>
<totfact> 0.46780719E+04</totfact>
</mgrwt>
</event>
<event>
 6    1  0.1280499E-001  0.3000000E+03  0.7818608E-02  0.1093470E+00
         21   -1    0    0  501  502  0.00000000000E+00  0.00000000000E+00  0.11891311525E+01  0.11891311525E+01  0.00000000000E+00 0. -1.
         13   -1    0    0    0    0 -0.00000000000E+00 -0.00000000000E+00 -0.10000000000E+04  0.10000000000E+04  0.00000000000E+00 0.  1.
    9000005    2    1    2  501    0 -0.12643943240E+02 -0.31721303645E+02 -0.53026968548E+03  0.53140519048E+03  0.62790700640E+01 0.  0.
         13    1    3    3    0    0 -0.52091392830E+01 -0.60236881329E+01 -0.12572599113E+03  0.12597795361E+03  0.00000000000E+00 0.  1.
          3    1    3    3  501    0 -0.74348039566E+01 -0.25697615512E+02 -0.40454369436E+03  0.40542723687E+03  0.00000000000E+00 0.  1.
         -1    1    1    2    0  502  0.12643943240E+02  0.31721303645E+02 -0.46854118336E+03  0.46978394067E+03  0.00000000000E+00 0. -1.
<mgrwt>
<rscale>  1 0.30000000E+03</rscale>
<asrwt>0</asrwt>
<pdfrwt beam="1">  1       21 0.43241224E-02 0.30000000E+03</pdfrwt>
<pdfrwt beam="2">0</pdfrwt>
<totfact> 0.36866232E+04</totfact>
</mgrwt>
</event>
<event>
 6    1  0.1280499E-001  0.3000000E+03  0.7818608E-02  0.1093470E+00
         21   -1    0    0  501  502  0.00000000000E+00  0.00000000000E+00  0.23476129304E+01  0.23476129304E+01  0.00000000000E+00 0. -1.
         13   -1    0    0    0    0 -0.00000000000E+00 -0.00000000000E+00 -0.10000000000E+04  0.10000000000E+04  0.00000000000E+00 0.  1.
    9000005    2    1    2  501    0 -0.20191588472E+02 -0.42452911817E+02 -0.61799505708E+03  0.61979090055E+03  0.35944223217E+01 0.  0.
         13    1    3    3    0    0 -0.61416442194E+01 -0.11148796564E+02 -0.18634647313E+03  0.18678068290E+03  0.00000000000E+00 0.  1.
          1    1    3    3  501    0 -0.14049944252E+02 -0.31304115253E+02 -0.43164858395E+03  0.43301021765E+03  0.00000000000E+00 0.  1.
         -1    1    1    2    0  502  0.20191588472E+02  0.42452911817E+02 -0.37965732999E+03  0.38255671238E+03  0.00000000000E+00 0. -1.
<mgrwt>
<rscale>  1 0.30000000E+03</rscale>
<asrwt>0</asrwt>
<pdfrwt beam="1">  1       21 0.85367923E-02 0.30000000E+03</pdfrwt>
<pdfrwt beam="2">0</pdfrwt>
<totfact> 0.11394135E+04</totfact>
</mgrwt>
</event>
<event>
 6    1  0.1280499E-001  0.3000000E+03  0.7818608E-02  0.1093470E+00
         21   -1    0    0  501  502  0.00000000000E+00  0.00000000000E+00  0.27100265601E+01  0.27100265601E+01  0.00000000000E+00 0. -1.
         13   -1    0    0    0    0 -0.00000000000E+00 -0.00000000000E+00 -0.10000000000E+04  0.10000000000E+04  0.00000000000E+00 0.  1.
    9000005    2    1    2  501    0  0.20972115013E+02  0.45770559549E+02 -0.62493373259E+03  0.62696550720E+03  0.29670456481E+01 0.  0.
         13    1    3    3    0    0  0.84098817477E+01  0.14982201111E+02 -0.21214064733E+03  0.21283525720E+03  0.00000000000E+00 0.  1.
          1    1    3    3  501    0  0.12562233265E+02  0.30788358438E+02 -0.41279308526E+03  0.41413024999E+03  0.00000000000E+00 0.  1.
         -1    1    1    2    0  502 -0.20972115013E+02 -0.45770559549E+02 -0.37235624085E+03  0.37574451936E+03  0.00000000000E+00 0. -1.
<mgrwt>
<rscale>  1 0.30000000E+03</rscale>
<asrwt>0</asrwt>
<pdfrwt beam="1">  1       21 0.98546628E-02 0.30000000E+03</pdfrwt>
<pdfrwt beam="2">0</pdfrwt>
<totfact> 0.88311277E+03</totfact>
</mgrwt>
</event>
<event>
 6    1  0.1280499E-001  0.3000000E+03  0.7818608E-02  0.1093470E+00
         21   -1    0    0  501  502  0.00000000000E+00  0.00000000000E+00  0.20206764348E+01  0.20206764348E+01  0.00000000000E+00 0. -1.
         13   -1    0    0    0    0 -0.00000000000E+00 -0.00000000000E+00 -0.10000000000E+04  0.10000000000E+04  0.00000000000E+00 0.  1.
    9000005    2    1    2  501    0  0.23645375102E+02 -0.34815071240E+02 -0.32495805879E+03  0.32768484335E+03  0.29023501300E+01 0.  0.
         13    1    3    3    0    0  0.17387762083E+02 -0.23320473690E+02 -0.22099747966E+03  0.22290371190E+03  0.00000000000E+00 0.  1.
          1    1    3    3  501    0  0.62576130195E+01 -0.11494597550E+02 -0.10396057913E+03  0.10478113144E+03  0.00000000000E+00 0.  1.
         -3    1    1    2    0  502 -0.23645375102E+02  0.34815071240E+02 -0.67302126477E+03  0.67433583309E+03  0.00000000000E+00 0. -1.
<mgrwt>
<rscale>  1 0.30000000E+03</rscale>
<asrwt>0</asrwt>
<pdfrwt beam="1">  1       21 0.73479298E-02 0.30000000E+03</pdfrwt>
<pdfrwt beam="2">0</pdfrwt>
<totfact> 0.14826420E+04</totfact>
</mgrwt>
</event>
<event>
 6    1  0.1280499E-001  0.3000000E+03  0.7818608E-02  0.1093470E+00
         21   -1    0    0  501  502  0.00000000000E+00  0.00000000000E+00  0.21973959720E+01  0.21973959720E+01  0.00000000000E+00 0. -1.
         13   -1    0    0    0    0 -0.00000000000E+00 -0.00000000000E+00 -0.10000000000E+04  0.10000000000E+04  0.00000000000E+00 0.  1.
    9000005    2    1    2  501    0  0.20201416431E+02 -0.27453669992E+02 -0.84264112230E+03  0.84333617782E+03  0.31696373682E+01 0.  0.
         13    1    3    3    0    0  0.11651485083E+02 -0.17475032526E+02 -0.48834884466E+03  0.48880029454E+03  0.00000000000E+00 0.  1.
          1    1    3    3  501    0  0.85499313474E+01 -0.99786374666E+01 -0.35429227764E+03  0.35453588327E+03  0.00000000000E+00 0.  1.
         -1    1    1    2    0  502 -0.20201416431E+02  0.27453669992E+02 -0.15516148173E+03  0.15886121816E+03  0.00000000000E+00 0. -1.
<mgrwt>
<rscale>  1 0.30000000E+03</rscale>
<asrwt>0</asrwt>
<pdfrwt beam="1">  1       21 0.79905477E-02 0.30000000E+03</pdfrwt>
<pdfrwt beam="2">0</pdfrwt>
<totfact> 0.12800421E+04</totfact>
</mgrwt>
</event>
<event>
 6    1  0.1280499E-001  0.3000000E+03  0.7818608E-02  0.1093470E+00
         21   -1    0    0  501  502  0.00000000000E+00  0.00000000000E+00  0.50412237464E+01  0.50412237464E+01  0.00000000000E+00 0. -1.
         13   -1    0    0    0    0 -0.00000000000E+00 -0.00000000000E+00 -0.10000000000E+04  0.10000000000E+04  0.00000000000E+00 0.  1.
    9000005    2    1    2  501    0  0.64270779620E+02  0.90020351259E+01 -0.70079369887E+03  0.70380234428E+03  0.37632021557E+01 0.  0.
         13    1    3    3    0    0  0.12161915886E+02  0.45971061562E+00 -0.12284465494E+03  0.12344607235E+03  0.00000000000E+00 0.  1.
          1    1    3    3  501    0  0.52108863734E+02  0.85423245103E+01 -0.57794904393E+03  0.58035627193E+03  0.00000000000E+00 0.  1.
         -3    1    1    2    0  502 -0.64270779620E+02 -0.90020351259E+01 -0.29416507738E+03  0.30123887947E+03  0.00000000000E+00 0. -1.
<mgrwt>
<rscale>  1 0.30000000E+03</rscale>
<asrwt>0</asrwt>
<pdfrwt beam="1">  1       21 0.18331761E-01 0.30000000E+03</pdfrwt>
<pdfrwt beam="2">0</pdfrwt>
<totfact> 0.28303990E+03</totfact>
</mgrwt>
</event>
<event>
 6    1  0.1280499E-001  0.3000000E+03  0.7818608E-02  0.1093470E+00
         21   -1    0    0  501  502  0.00000000000E+00  0.00000000000E+00  0.14683653915E+01  0.14683653915E+01  0.00000000000E+00 0. -1.
         13   -1    0    0    0    0 -0.00000000000E+00 -0.00000000000E+00 -0.10000000000E+04  0.10000000000E+04  0.00000000000E+00 0.  1.
    9000005    2    1    2  501    0 -0.62989974557E+01  0.35898708046E+02 -0.65143485580E+03  0.65246325301E+03  0.35398546077E+01 0.  0.
         13    1    3    3    0    0 -0.30577457179E+01  0.12773359997E+02 -0.20849105227E+03  0.20890434991E+03  0.00000000000E+00 0.  1.
          3    1    3    3  501    0 -0.32412517379E+01  0.23125348049E+02 -0.44294380353E+03  0.44355890310E+03  0.00000000000E+00 0.  1.
         -3    1    1    2    0  502  0.62989974557E+01 -0.35898708046E+02 -0.34709677881E+03  0.34900511238E+03  0.00000000000E+00 0. -1.
<mgrwt>
<rscale>  1 0.30000000E+03</rscale>
<asrwt>0</asrwt>
<pdfrwt beam="1">  1       21 0.53395218E-02 0.30000000E+03</pdfrwt>
<pdfrwt beam="2">0</pdfrwt>
<totfact> 0.25747538E+04</totfact>
</mgrwt>
</event>
<event>
 6    1  0.1280499E-001  0.3000000E+03  0.7818608E-02  0.1093470E+00
         21   -1    0    0  501  502  0.00000000000E+00  0.00000000000E+00  0.14648419471E+01  0.14648419471E+01  0.00000000000E+00 0. -1.
         13   -1    0    0    0    0 -0.00000000000E+00 -0.00000000000E+00 -0.10000000000E+04  0.10000000000E+04  0.00000000000E+00 0.  1.
    9000005    2    1    2  501    0  0.79188198157E+01  0.32213781485E+02 -0.25207785360E+03  0.25427079567E+03  0.31556027755E+01 0.  0.
         13    1    3    3    0    0  0.29333147792E+01  0.69095876552E+01 -0.52778919096E+02  0.53310046315E+02  0.00000000000E+00 0.  1.
          3    1    3    3  501    0  0.49855050365E+01  0.25304193829E+02 -0.19929893450E+03  0.20096074935E+03  0.00000000000E+00 0.  1.
         -3    1    1    2    0  502 -0.79188198157E+01 -0.32213781485E+02 -0.74645730446E+03  0.74719404628E+03  0.00000000000E+00 0. -1.
<mgrwt>
<rscale>  1 0.30000000E+03</rscale>
<asrwt>0</asrwt>
<pdfrwt beam="1">  1       21 0.53267092E-02 0.30000000E+03</pdfrwt>
<pdfrwt beam="2">0</pdfrwt>
<totfact> 0.25853594E+04</totfact>
</mgrwt>
</event>
<event>
 6    1  0.1280499E-001  0.3000000E+03  0.7818608E-02  0.1093470E+00
         21   -1    0    0  501  502  0.00000000000E+00  0.00000000000E+00  0.20747276218E+01  0.20747276218E+01  0.00000000000E+00 0. -1.
         13   -1    0    0    0    0 -0.00000000000E+00 -0.00000000000E+00 -0.10000000000E+04  0.10000000000E+04  0.00000000000E+00 0.  1.
    9000005    2    1    2  501    0  0.11149125802E+02 -0.39221375719E+02 -0.72118341061E+03  0.72234507711E+03  0.37788053043E+01 0.  0.
         13    1    3    3    0    0  0.75644296876E+00 -0.72378960646E+01 -0.11611680521E+03  0.11634462513E+03  0.00000000000E+00 0.  1.
          1    1    3    3  501    0  0.10392682833E+02 -0.31983479654E+02 -0.60506660539E+03  0.60600045197E+03  0.00000000000E+00 0.  1.
         -3    1    1    2    0  502 -0.11149125802E+02  0.39221375719E+02 -0.27674186177E+03  0.27972965051E+03  0.00000000000E+00 0. -1.
<mgrwt>
<rscale>  1 0.30000000E+03</rscale>
<asrwt>0</asrwt>
<pdfrwt beam="1">  1       21 0.75444800E-02 0.30000000E+03</pdfrwt>
<pdfrwt beam="2">0</pdfrwt>
<totfact> 0.14157112E+04</totfact>
</mgrwt>
</event>
<event>
 6    1  0.1280499E-001  0.3000000E+03  0.7818608E-02  0.1093470E+00
         21   -1    0    0  501  502  0.00000000000E+00  0.00000000000E+00  0.26365843834E+01  0.26365843834E+01  0.00000000000E+00 0. -1.
         13   -1    0    0    0    0 -0.00000000000E+00 -0.00000000000E+00 -0.10000000000E+04  0.10000000000E+04  0.00000000000E+00 0.  1.
    9000005    2    1    2  501    0  0.16819084686E+02 -0.31950289748E+02 -0.85486059098E+03  0.85563060609E+03  0.36607980311E+01 0.  0.
         13    1    3    3    0    0  0.92129824615E+00 -0.41640896196E+01 -0.92978689189E+02  0.93076447483E+02  0.00000000000E+00 0.  1.
          3    1    3    3  501    0  0.15897786440E+02 -0.27786200128E+02 -0.76188190179E+03  0.76255415861E+03  0.00000000000E+00 0.  1.
         -1    1    1    2    0  502 -0.16819084686E+02  0.31950289748E+02 -0.14250282463E+03  0.14700597829E+03  0.00000000000E+00 0. -1.
<mgrwt>
<rscale>  1 0.30000000E+03</rscale>
<asrwt>0</asrwt>
<pdfrwt beam="1">  1       21 0.95875998E-02 0.30000000E+03</pdfrwt>
<pdfrwt beam="2">0</pdfrwt>
<totfact> 0.92747586E+03</totfact>
</mgrwt>
</event>
<event>
 6    1  0.1280499E-001  0.3000000E+03  0.7818608E-02  0.1093470E+00
         21   -1    0    0  501  502  0.00000000000E+00  0.00000000000E+00  0.62487739933E+01  0.62487739933E+01  0.00000000000E+00 0. -1.
         13   -1    0    0    0    0 -0.00000000000E+00 -0.00000000000E+00 -0.10000000000E+04  0.10000000000E+04  0.00000000000E+00 0.  1.
    9000005    2    1    2  501    0  0.75116631872E+02 -0.16822350576E+02 -0.61069186939E+03  0.61553152258E+03  0.29993472855E+01 0.  0.
         13    1    3    3    0    0  0.16738667451E+02 -0.38656257624E+01 -0.12660303614E+03  0.12776327645E+03  0.00000000000E+00 0.  1.
          3    1    3    3  501    0  0.58377964421E+02 -0.12956724813E+02 -0.48408883325E+03  0.48776824612E+03  0.00000000000E+00 0.  1.
         -3    1    1    2    0  502 -0.75116631872E+02  0.16822350576E+02 -0.38305935662E+03  0.39071725142E+03  0.00000000000E+00 0. -1.
<mgrwt>
<rscale>  1 0.30000000E+03</rscale>
<asrwt>0</asrwt>
<pdfrwt beam="1">  1       21 0.22722862E-01 0.30000000E+03</pdfrwt>
<pdfrwt beam="2">0</pdfrwt>
<totfact> 0.18777799E+03</totfact>
</mgrwt>
</event>
<event>
 6    1  0.1280499E-001  0.3000000E+03  0.7818608E-02  0.1093470E+00
         21   -1    0    0  501  502  0.00000000000E+00  0.00000000000E+00  0.12024028852E+01  0.12024028852E+01  0.00000000000E+00 0. -1.
         13   -1    0    0    0    0 -0.00000000000E+00 -0.00000000000E+00 -0.10000000000E+04  0.10000000000E+04  0.00000000000E+00 0.  1.
    9000005    2    1    2  501    0  0.10920594342E+02  0.29166727001E+02 -0.28261096128E+03  0.28433891889E+03  0.31157683280E+01 0.  0.
         13    1    3    3    0    0  0.20885661481E+01  0.35527012612E+01 -0.44962618601E+02  0.45151089314E+02  0.00000000000E+00 0.  1.
          3    1    3    3  501    0  0.88320281939E+01  0.25614025739E+02 -0.23764834268E+03  0.23918782957E+03  0.00000000000E+00 0.  1.
         -1    1    1    2    0  502 -0.10920594342E+02 -0.29166727001E+02 -0.71618663583E+03  0.71686348400E+03  0.00000000000E+00 0. -1.
<mgrwt>
<rscale>  1 0.30000000E+03</rscale>
<asrwt>0</asrwt>
<pdfrwt beam="1">  1       21 0.43723833E-02 0.30000000E+03</pdfrwt>
<pdfrwt beam="2">0</pdfrwt>
<totfact> 0.36180152E+04</totfact>
</mgrwt>
</event>
<event>
 6    1  0.1280499E-001  0.3000000E+03  0.7818608E-02  0.1093470E+00
         21   -1    0    0  501  502  0.00000000000E+00  0.00000000000E+00  0.86346284818E+01  0.86346284818E+01  0.00000000000E+00 0. -1.
         13   -1    0    0    0    0 -0.00000000000E+00 -0.00000000000E+00 -0.10000000000E+04  0.10000000000E+04  0.00000000000E+00 0.  1.
    9000005    2    1    2  501    0 -0.19415934783E+02  0.52642269420E+02 -0.89763448451E+03  0.89939330740E+03  0.35308008568E+01 0.  0.
         13    1    3    3    0    0 -0.17951518736E+01  0.68073368553E+01 -0.12877681226E+03  0.12896910398E+03  0.00000000000E+00 0.  1.
          3    1    3    3  501    0 -0.17620782910E+02  0.45834932565E+02 -0.76885767225E+03  0.77042420341E+03  0.00000000000E+00 0.  1.
         -1    1    1    2    0  502  0.19415934783E+02 -0.52642269420E+02 -0.93730887009E+02  0.10924132109E+03  0.00000000000E+00 0. -1.
<mgrwt>
<rscale>  1 0.30000000E+03</rscale>
<asrwt>0</asrwt>
<pdfrwt beam="1">  1       21 0.31398715E-01 0.30000000E+03</pdfrwt>
<pdfrwt beam="2">0</pdfrwt>
<totfact> 0.99223227E+02</totfact>
</mgrwt>
</event>
<event>
 6    1  0.1280499E-001  0.3000000E+03  0.7818608E-02  0.1093470E+00
         21   -1    0    0  501  502  0.00000000000E+00  0.00000000000E+00  0.38732018540E+01  0.38732018540E+01  0.00000000000E+00 0. -1.
         13   -1    0    0    0    0 -0.00000000000E+00 -0.00000000000E+00 -0.10000000000E+04  0.10000000000E+04  0.00000000000E+00 0.  1.
    9000005    2    1    2  501    0  0.12898145628E+02  0.35688959418E+02 -0.89581529687E+03  0.89662367377E+03  0.29836693117E+01 0.  0.
         13    1    3    3    0    0  0.72065581587E+01  0.15594705867E+02 -0.40785228578E+03  0.40821393453E+03  0.00000000000E+00 0.  1.
          1    1    3    3  501    0  0.56915874693E+01  0.20094253551E+02 -0.48796301109E+03  0.48840973924E+03  0.00000000000E+00 0.  1.
         -1    1    1    2    0  502 -0.12898145628E+02 -0.35688959418E+02 -0.10031150128E+03  0.10724952808E+03  0.00000000000E+00 0. -1.
<mgrwt>
<rscale>  1 0.30000000E+03</rscale>
<asrwt>0</asrwt>
<pdfrwt beam="1">  1       21 0.14084400E-01 0.30000000E+03</pdfrwt>
<pdfrwt beam="2">0</pdfrwt>
<totfact> 0.46253006E+03</totfact>
</mgrwt>
</event>
<event>
 6    1  0.1280499E-001  0.3000000E+03  0.7818608E-02  0.1093470E+00
         21   -1    0    0  501  502  0.00000000000E+00  0.00000000000E+00  0.28750515724E+01  0.28750515724E+01  0.00000000000E+00 0. -1.
         13   -1    0    0    0    0 -0.00000000000E+00 -0.00000000000E+00 -0.10000000000E+04  0.10000000000E+04  0.00000000000E+00 0.  1.
    9000005    2    1    2  501    0  0.37298182579E+02  0.26940636314E+02 -0.75569566179E+03  0.75710065756E+03  0.29189230611E+01 0.  0.
         13    1    3    3    0    0  0.21433729066E+02  0.16544895651E+02 -0.42534938884E+03  0.42621032473E+03  0.00000000000E+00 0.  1.
          3    1    3    3  501    0  0.15864453513E+02  0.10395740664E+02 -0.33034627295E+03  0.33089033283E+03  0.00000000000E+00 0.  1.
         -1    1    1    2    0  502 -0.37298182579E+02 -0.26940636314E+02 -0.24142928663E+03  0.24577439401E+03  0.00000000000E+00 0. -1.
<mgrwt>
<rscale>  1 0.30000000E+03</rscale>
<asrwt>0</asrwt>
<pdfrwt beam="1">  1       21 0.10454755E-01 0.30000000E+03</pdfrwt>
<pdfrwt beam="2">0</pdfrwt>
<totfact> 0.79451245E+03</totfact>
</mgrwt>
</event>
<event>
 6    1  0.1280499E-001  0.3000000E+03  0.7818608E-02  0.1093470E+00
         21   -1    0    0  501  502  0.00000000000E+00  0.00000000000E+00  0.17450911062E+01  0.17450911062E+01  0.00000000000E+00 0. -1.
         13   -1    0    0    0    0 -0.00000000000E+00 -0.00000000000E+00 -0.10000000000E+04  0.10000000000E+04  0.00000000000E+00 0.  1.
    9000005    2    1    2  501    0  0.41627539032E+02  0.57255049353E+00 -0.52806662772E+03  0.52971733813E+03  0.35937712062E+01 0.  0.
         13    1    3    3    0    0  0.13611399931E+02 -0.13054549149E+01 -0.18302797593E+03  0.18353804617E+03  0.00000000000E+00 0.  1.
          1    1    3    3  501    0  0.28016139101E+02  0.18780054084E+01 -0.34503865179E+03  0.34617929196E+03  0.00000000000E+00 0.  1.
         -3    1    1    2    0  502 -0.41627539032E+02 -0.57255049353E+00 -0.47018828118E+03  0.47202775297E+03  0.00000000000E+00 0. -1.
<mgrwt>
<rscale>  1 0.30000000E+03</rscale>
<asrwt>0</asrwt>
<pdfrwt beam="1">  1       21 0.63457992E-02 0.30000000E+03</pdfrwt>
<pdfrwt beam="2">0</pdfrwt>
<totfact> 0.19128378E+04</totfact>
</mgrwt>
</event>
<event>
 6    1  0.1280499E-001  0.3000000E+03  0.7818608E-02  0.1093470E+00
         21   -1    0    0  501  502  0.00000000000E+00  0.00000000000E+00  0.31459656607E+01  0.31459656607E+01  0.00000000000E+00 0. -1.
         13   -1    0    0    0    0 -0.00000000000E+00 -0.00000000000E+00 -0.10000000000E+04  0.10000000000E+04  0.00000000000E+00 0.  1.
    9000005    2    1    2  501    0 -0.15358500358E+02 -0.40311238829E+02 -0.81880636328E+03  0.81994702276E+03  0.28948369053E+01 0.  0.
         13    1    3    3    0    0 -0.18482397424E+01 -0.44464470043E+01 -0.10991165368E+03  0.11001708275E+03  0.00000000000E+00 0.  1.
          3    1    3    3  501    0 -0.13510260616E+02 -0.35864791825E+02 -0.70889470960E+03  0.70992994002E+03  0.00000000000E+00 0.  1.
         -3    1    1    2    0  502  0.15358500358E+02  0.40311238829E+02 -0.17804767106E+03  0.18319894290E+03  0.00000000000E+00 0. -1.
<mgrwt>
<rscale>  1 0.30000000E+03</rscale>
<asrwt>0</asrwt>
<pdfrwt beam="1">  1       21 0.11439899E-01 0.30000000E+03</pdfrwt>
<pdfrwt beam="2">0</pdfrwt>
<totfact> 0.67572002E+03</totfact>
</mgrwt>
</event>
<event>
 6    1  0.1280499E-001  0.3000000E+03  0.7818608E-02  0.1093470E+00
         21   -1    0    0  501  502  0.00000000000E+00  0.00000000000E+00  0.12236995052E+01  0.12236995052E+01  0.00000000000E+00 0. -1.
         13   -1    0    0    0    0 -0.00000000000E+00 -0.00000000000E+00 -0.10000000000E+04  0.10000000000E+04  0.00000000000E+00 0.  1.
    9000005    2    1    2  501    0 -0.12561725348E+02  0.31648753503E+02 -0.61010132010E+03  0.61106004035E+03  0.33632692748E+01 0.  0.
         13    1    3    3    0    0 -0.33831006701E+01  0.66625895892E+01 -0.15662326547E+03  0.15680141185E+03  0.00000000000E+00 0.  1.
          3    1    3    3  501    0 -0.91786246780E+01  0.24986163914E+02 -0.45347805463E+03  0.45425862850E+03  0.00000000000E+00 0.  1.
         -1    1    1    2    0  502  0.12561725348E+02 -0.31648753503E+02 -0.38867498039E+03  0.39016365916E+03  0.00000000000E+00 0. -1.
<mgrwt>
<rscale>  1 0.30000000E+03</rscale>
<asrwt>0</asrwt>
<pdfrwt beam="1">  1       21 0.44498258E-02 0.30000000E+03</pdfrwt>
<pdfrwt beam="2">0</pdfrwt>
<totfact> 0.35119786E+04</totfact>
</mgrwt>
</event>
<event>
 6    1  0.1280499E-001  0.3000000E+03  0.7818608E-02  0.1093470E+00
         21   -1    0    0  501  502  0.00000000000E+00  0.00000000000E+00  0.14949326353E+01  0.14949326353E+01  0.00000000000E+00 0. -1.
         13   -1    0    0    0    0 -0.00000000000E+00 -0.00000000000E+00 -0.10000000000E+04  0.10000000000E+04  0.00000000000E+00 0.  1.
    9000005    2    1    2  501    0  0.27918493343E+02  0.16321470148E+02 -0.77294118619E+03  0.77362458101E+03  0.33290207317E+01 0.  0.
         13    1    3    3    0    0  0.18650956122E+02  0.11211204640E+02 -0.48202095293E+03  0.48251191523E+03  0.00000000000E+00 0.  1.
          1    1    3    3  501    0  0.92675372210E+01  0.51102655089E+01 -0.29092023326E+03  0.29111266578E+03  0.00000000000E+00 0.  1.
         -1    1    1    2    0  502 -0.27918493343E+02 -0.16321470148E+02 -0.22556388118E+03  0.22787035163E+03  0.00000000000E+00 0. -1.
<mgrwt>
<rscale>  1 0.30000000E+03</rscale>
<asrwt>0</asrwt>
<pdfrwt beam="1">  1       21 0.54361301E-02 0.30000000E+03</pdfrwt>
<pdfrwt beam="2">0</pdfrwt>
<totfact> 0.24969060E+04</totfact>
</mgrwt>
</event>
<event>
 6    1  0.1280499E-001  0.3000000E+03  0.7818608E-02  0.1093470E+00
         21   -1    0    0  501  502  0.00000000000E+00  0.00000000000E+00  0.28414786833E+01  0.28414786833E+01  0.00000000000E+00 0. -1.
         13   -1    0    0    0    0 -0.00000000000E+00 -0.00000000000E+00 -0.10000000000E+04  0.10000000000E+04  0.00000000000E+00 0.  1.
    9000005    2    1    2  501    0 -0.86649807174E+01  0.31282745637E+02 -0.89619869292E+03  0.89679158941E+03  0.30603228586E+01 0.  0.
         13    1    3    3    0    0 -0.38207985406E+01  0.11089062809E+02 -0.28908455256E+03  0.28932238825E+03  0.00000000000E+00 0.  1.
          1    1    3    3  501    0 -0.48441821768E+01  0.20193682828E+02 -0.60711414036E+03  0.60746920116E+03  0.00000000000E+00 0.  1.
         -3    1    1    2    0  502  0.86649807174E+01 -0.31282745637E+02 -0.10095982840E+03  0.10604988927E+03  0.00000000000E+00 0. -1.
<mgrwt>
<rscale>  1 0.30000000E+03</rscale>
<asrwt>0</asrwt>
<pdfrwt beam="1">  1       21 0.10332672E-01 0.30000000E+03</pdfrwt>
<pdfrwt beam="2">0</pdfrwt>
<totfact> 0.81140640E+03</totfact>
</mgrwt>
</event>
<event>
 6    1  0.1280499E-001  0.3000000E+03  0.7818608E-02  0.1093470E+00
         21   -1    0    0  501  502  0.00000000000E+00  0.00000000000E+00  0.13840698119E+01  0.13840698119E+01  0.00000000000E+00 0. -1.
         13   -1    0    0    0    0 -0.00000000000E+00 -0.00000000000E+00 -0.10000000000E+04  0.10000000000E+04  0.00000000000E+00 0.  1.
    9000005    2    1    2  501    0  0.19871546622E+02  0.30958579122E+02 -0.56816862392E+03  0.56936764019E+03  0.32576842166E+01 0.  0.
         13    1    3    3    0    0  0.13889510706E+02  0.21000771561E+02 -0.36527614098E+03  0.36614288206E+03  0.00000000000E+00 0.  1.
          3    1    3    3  501    0  0.59820359160E+01  0.99578075614E+01 -0.20289248294E+03  0.20322475813E+03  0.00000000000E+00 0.  1.
         -3    1    1    2    0  502 -0.19871546622E+02 -0.30958579122E+02 -0.43044730627E+03  0.43201642962E+03  0.00000000000E+00 0. -1.
<mgrwt>
<rscale>  1 0.30000000E+03</rscale>
<asrwt>0</asrwt>
<pdfrwt beam="1">  1       21 0.50329917E-02 0.30000000E+03</pdfrwt>
<pdfrwt beam="2">0</pdfrwt>
<totfact> 0.28483466E+04</totfact>
</mgrwt>
</event>
<event>
 6    1  0.1280499E-001  0.3000000E+03  0.7818608E-02  0.1093470E+00
         21   -1    0    0  501  502  0.00000000000E+00  0.00000000000E+00  0.22693981891E+01  0.22693981891E+01  0.00000000000E+00 0. -1.
         13   -1    0    0    0    0 -0.00000000000E+00 -0.00000000000E+00 -0.10000000000E+04  0.10000000000E+04  0.00000000000E+00 0.  1.
    9000005    2    1    2  501    0 -0.27557084710E+02 -0.13910409973E+02 -0.88010039367E+03  0.88065624803E+03  0.50825033434E+01 0.  0.
         13    1    3    3    0    0 -0.14247931234E+02 -0.99433973473E+01 -0.47256474012E+03  0.47288403261E+03  0.00000000000E+00 0.  1.
          3    1    3    3  501    0 -0.13309153476E+02 -0.39670126258E+01 -0.40753565356E+03  0.40777221543E+03  0.00000000000E+00 0.  1.
         -1    1    1    2    0  502  0.27557084710E+02  0.13910409973E+02 -0.11763020814E+03  0.12161315015E+03  0.00000000000E+00 0. -1.
<mgrwt>
<rscale>  1 0.30000000E+03</rscale>
<asrwt>0</asrwt>
<pdfrwt beam="1">  1       21 0.82523745E-02 0.30000000E+03</pdfrwt>
<pdfrwt beam="2">0</pdfrwt>
<totfact> 0.12095053E+04</totfact>
</mgrwt>
</event>
<event>
 6    1  0.1280499E-001  0.3000000E+03  0.7818608E-02  0.1093470E+00
         21   -1    0    0  501  502  0.00000000000E+00  0.00000000000E+00  0.14639553667E+02  0.14639553667E+02  0.00000000000E+00 0. -1.
         13   -1    0    0    0    0 -0.00000000000E+00 -0.00000000000E+00 -0.10000000000E+04  0.10000000000E+04  0.00000000000E+00 0.  1.
    9000005    2    1    2  501    0  0.65018555859E+02  0.19652971203E+02 -0.91249630121E+03  0.91502612321E+03  0.31071773104E+01 0.  0.
         13    1    3    3    0    0  0.17817559969E+02  0.67394546427E+01 -0.24878445594E+03  0.24951270751E+03  0.00000000000E+00 0.  1.
          3    1    3    3  501    0  0.47200995890E+02  0.12913516561E+02 -0.66371184527E+03  0.66551341570E+03  0.00000000000E+00 0.  1.
         -1    1    1    2    0  502 -0.65018555859E+02 -0.19652971203E+02 -0.72864145123E+02  0.99613430458E+02  0.00000000000E+00 0. -1.
<mgrwt>
<rscale>  1 0.30000000E+03</rscale>
<asrwt>0</asrwt>
<pdfrwt beam="1">  1       21 0.53234853E-01 0.30000000E+03</pdfrwt>
<pdfrwt beam="2">0</pdfrwt>
<totfact> 0.32766107E+02</totfact>
</mgrwt>
</event>
<event>
 6    1  0.1280499E-001  0.3000000E+03  0.7818608E-02  0.1093470E+00
         21   -1    0    0  501  502  0.00000000000E+00  0.00000000000E+00  0.23221568159E+01  0.23221568159E+01  0.00000000000E+00 0. -1.
         13   -1    0    0    0    0 -0.00000000000E+00 -0.00000000000E+00 -0.10000000000E+04  0.10000000000E+04  0.00000000000E+00 0.  1.
    9000005    2    1    2  501    0  0.11172913126E+02 -0.36154691220E+02 -0.80550550667E+03  0.80645944314E+03  0.10281851889E+02 0.  0.
         13    1    3    3    0    0  0.50027959322E+01 -0.16022377232E+02 -0.25532441834E+03  0.25587556183E+03  0.00000000000E+00 0.  1.
          3    1    3    3  501    0  0.61701171940E+01 -0.20132313988E+02 -0.55018108833E+03  0.55058388132E+03  0.00000000000E+00 0.  1.
         -1    1    1    2    0  502 -0.11172913126E+02  0.36154691220E+02 -0.19217233651E+03  0.19586271367E+03  0.00000000000E+00 0. -1.
<mgrwt>
<rscale>  1 0.30000000E+03</rscale>
<asrwt>0</asrwt>
<pdfrwt beam="1">  1       21 0.84442244E-02 0.30000000E+03</pdfrwt>
<pdfrwt beam="2">0</pdfrwt>
<totfact> 0.11615293E+04</totfact>
</mgrwt>
</event>
<event>
 6    1  0.1280499E-001  0.3000000E+03  0.7818608E-02  0.1093470E+00
         21   -1    0    0  501  502  0.00000000000E+00  0.00000000000E+00  0.29259985481E+01  0.29259985481E+01  0.00000000000E+00 0. -1.
         13   -1    0    0    0    0 -0.00000000000E+00 -0.00000000000E+00 -0.10000000000E+04  0.10000000000E+04  0.00000000000E+00 0.  1.
    9000005    2    1    2  501    0  0.97244908249E+01  0.46826843894E+02 -0.72975322667E+03  0.73136069211E+03  0.78339707124E+01 0.  0.
         13    1    3    3    0    0  0.10915496371E+01  0.17370044141E+02 -0.22258373010E+03  0.22326313359E+03  0.00000000000E+00 0.  1.
          3    1    3    3  501    0  0.86329411878E+01  0.29456799753E+02 -0.50716949657E+03  0.50809755852E+03  0.00000000000E+00 0.  1.
         -3    1    1    2    0  502 -0.97244908249E+01 -0.46826843894E+02 -0.26732077478E+03  0.27156530644E+03  0.00000000000E+00 0. -1.
<mgrwt>
<rscale>  1 0.30000000E+03</rscale>
<asrwt>0</asrwt>
<pdfrwt beam="1">  1       21 0.10640017E-01 0.30000000E+03</pdfrwt>
<pdfrwt beam="2">0</pdfrwt>
<totfact> 0.76987767E+03</totfact>
</mgrwt>
</event>
<event>
 6    1  0.1280499E-001  0.3000000E+03  0.7818608E-02  0.1093470E+00
         21   -1    0    0  501  502  0.00000000000E+00  0.00000000000E+00  0.12254541578E+01  0.12254541578E+01  0.00000000000E+00 0. -1.
         13   -1    0    0    0    0 -0.00000000000E+00 -0.00000000000E+00 -0.10000000000E+04  0.10000000000E+04  0.00000000000E+00 0.  1.
    9000005    2    1    2  501    0 -0.81159449363E+01  0.33437745841E+02 -0.41494500453E+03  0.41638283881E+03  0.33704997066E+01 0.  0.
         13    1    3    3    0    0 -0.64592659921E+01  0.24628304326E+02 -0.32296843295E+03  0.32397049892E+03  0.00000000000E+00 0.  1.
          3    1    3    3  501    0 -0.16566789443E+01  0.88094415153E+01 -0.91976571579E+02  0.92412339892E+02  0.00000000000E+00 0.  1.
         -1    1    1    2    0  502  0.81159449363E+01 -0.33437745841E+02 -0.58382954132E+03  0.58484261534E+03  0.00000000000E+00 0. -1.
<mgrwt>
<rscale>  1 0.30000000E+03</rscale>
<asrwt>0</asrwt>
<pdfrwt beam="1">  1       21 0.44562063E-02 0.30000000E+03</pdfrwt>
<pdfrwt beam="2">0</pdfrwt>
<totfact> 0.35034568E+04</totfact>
</mgrwt>
</event>
<event>
 6    1  0.1280499E-001  0.3000000E+03  0.7818608E-02  0.1093470E+00
         21   -1    0    0  501  502  0.00000000000E+00  0.00000000000E+00  0.34233290219E+01  0.34233290219E+01  0.00000000000E+00 0. -1.
         13   -1    0    0    0    0 -0.00000000000E+00 -0.00000000000E+00 -0.10000000000E+04  0.10000000000E+04  0.00000000000E+00 0.  1.
    9000005    2    1    2  501    0 -0.57811152360E+01  0.47151894092E+02 -0.79089006036E+03  0.79232215850E+03  0.32546670287E+01 0.  0.
         13    1    3    3    0    0 -0.36762522994E+01  0.34766807087E+02 -0.55925031762E+03  0.56034200580E+03  0.00000000000E+00 0.  1.
          3    1    3    3  501    0 -0.21048629366E+01  0.12385087005E+02 -0.23163974274E+03  0.23198015270E+03  0.00000000000E+00 0.  1.
         -1    1    1    2    0  502  0.57811152360E+01 -0.47151894092E+02 -0.20568661062E+03  0.21110117053E+03  0.00000000000E+00 0. -1.
<mgrwt>
<rscale>  1 0.30000000E+03</rscale>
<asrwt>0</asrwt>
<pdfrwt beam="1">  1       21 0.12448495E-01 0.30000000E+03</pdfrwt>
<pdfrwt beam="2">0</pdfrwt>
<totfact> 0.57971209E+03</totfact>
</mgrwt>
</event>
<event>
 6    1  0.1280499E-001  0.3000000E+03  0.7818608E-02  0.1093470E+00
         21   -1    0    0  501  502  0.00000000000E+00  0.00000000000E+00  0.20922702533E+01  0.20922702533E+01  0.00000000000E+00 0. -1.
         13   -1    0    0    0    0 -0.00000000000E+00 -0.00000000000E+00 -0.10000000000E+04  0.10000000000E+04  0.00000000000E+00 0.  1.
    9000005    2    1    2  501    0 -0.38699272584E+02 -0.17010322243E+02 -0.68851042070E+03  0.68982046620E+03  0.43233568648E+01 0.  0.
         13    1    3    3    0    0 -0.11014461055E+01 -0.15100882855E+00 -0.31207888887E+02  0.31227685089E+02  0.00000000000E+00 0.  1.
          1    1    3    3  501    0 -0.37597826478E+02 -0.16859313414E+02 -0.65730253181E+03  0.65859278111E+03  0.00000000000E+00 0.  1.
         -3    1    1    2    0  502  0.38699272584E+02  0.17010322243E+02 -0.30939730905E+03  0.31227180405E+03  0.00000000000E+00 0. -1.
<mgrwt>
<rscale>  1 0.30000000E+03</rscale>
<asrwt>0</asrwt>
<pdfrwt beam="1">  1       21 0.76082715E-02 0.30000000E+03</pdfrwt>
<pdfrwt beam="2">0</pdfrwt>
<totfact> 0.13949848E+04</totfact>
</mgrwt>
</event>
<event>
 6    1  0.1280499E-001  0.3000000E+03  0.7818608E-02  0.1093470E+00
         21   -1    0    0  501  502  0.00000000000E+00  0.00000000000E+00  0.10049683155E+01  0.10049683155E+01  0.00000000000E+00 0. -1.
         13   -1    0    0    0    0 -0.00000000000E+00 -0.00000000000E+00 -0.10000000000E+04  0.10000000000E+04  0.00000000000E+00 0.  1.
    9000005    2    1    2  501    0 -0.21708764436E+02 -0.21087001504E+02 -0.64471209137E+03  0.64543172145E+03  0.35347156293E+01 0.  0.
         13    1    3    3    0    0 -0.85094483372E+01 -0.10304026543E+02 -0.26296405869E+03  0.26330339884E+03  0.00000000000E+00 0.  1.
          3    1    3    3  501    0 -0.13199316099E+02 -0.10782974961E+02 -0.38174803268E+03  0.38212832262E+03  0.00000000000E+00 0.  1.
         -1    1    1    2    0  502  0.21708764436E+02  0.21087001504E+02 -0.35428294031E+03  0.35557324686E+03  0.00000000000E+00 0. -1.
<mgrwt>
<rscale>  1 0.30000000E+03</rscale>
<asrwt>0</asrwt>
<pdfrwt beam="1">  1       21 0.36544379E-02 0.30000000E+03</pdfrwt>
<pdfrwt beam="2">0</pdfrwt>
<totfact> 0.48942572E+04</totfact>
</mgrwt>
</event>
<event>
 6    1  0.1280499E-001  0.3000000E+03  0.7818608E-02  0.1093470E+00
         21   -1    0    0  501  502  0.00000000000E+00  0.00000000000E+00  0.13489493040E+01  0.13489493040E+01  0.00000000000E+00 0. -1.
         13   -1    0    0    0    0 -0.00000000000E+00 -0.00000000000E+00 -0.10000000000E+04  0.10000000000E+04  0.00000000000E+00 0.  1.
    9000005    2    1    2  501    0 -0.14994735740E+02  0.27241229581E+02 -0.76201179163E+03  0.76267539480E+03  0.66978025361E+01 0.  0.
         13    1    3    3    0    0 -0.80194181376E+01  0.18889911714E+02 -0.43714879100E+03  0.43763021525E+03  0.00000000000E+00 0.  1.
          3    1    3    3  501    0 -0.69753176022E+01  0.83513178671E+01 -0.32486300064E+03  0.32504517955E+03  0.00000000000E+00 0.  1.
         -3    1    1    2    0  502  0.14994735740E+02 -0.27241229581E+02 -0.23663925906E+03  0.23867355450E+03  0.00000000000E+00 0. -1.
<mgrwt>
<rscale>  1 0.30000000E+03</rscale>
<asrwt>0</asrwt>
<pdfrwt beam="1">  1       21 0.49052805E-02 0.30000000E+03</pdfrwt>
<pdfrwt beam="2">0</pdfrwt>
<totfact> 0.29758833E+04</totfact>
</mgrwt>
</event>
<event>
 6    1  0.1280499E-001  0.3000000E+03  0.7818608E-02  0.1093470E+00
         21   -1    0    0  501  502  0.00000000000E+00  0.00000000000E+00  0.11308070454E+01  0.11308070454E+01  0.00000000000E+00 0. -1.
         13   -1    0    0    0    0 -0.00000000000E+00 -0.00000000000E+00 -0.10000000000E+04  0.10000000000E+04  0.00000000000E+00 0.  1.
    9000005    2    1    2  501    0 -0.10925971264E+02  0.29660362284E+02 -0.66675142038E+03  0.66751226920E+03  0.40073688841E+01 0.  0.
         13    1    3    3    0    0 -0.98742462295E+00  0.76107153686E+01 -0.16319418128E+03  0.16337453535E+03  0.00000000000E+00 0.  1.
          3    1    3    3  501    0 -0.99385466409E+01  0.22049646916E+02 -0.50355723910E+03  0.50413773385E+03  0.00000000000E+00 0.  1.
         -1    1    1    2    0  502  0.10925971264E+02 -0.29660362284E+02 -0.33211777257E+03  0.33361853785E+03  0.00000000000E+00 0. -1.
<mgrwt>
<rscale>  1 0.30000000E+03</rscale>
<asrwt>0</asrwt>
<pdfrwt beam="1">  1       21 0.41120343E-02 0.30000000E+03</pdfrwt>
<pdfrwt beam="2">0</pdfrwt>
<totfact> 0.40134774E+04</totfact>
</mgrwt>
</event>
<event>
 6    1  0.1280499E-001  0.3000000E+03  0.7818608E-02  0.1093470E+00
         21   -1    0    0  501  502  0.00000000000E+00  0.00000000000E+00  0.30325291218E+01  0.30325291218E+01  0.00000000000E+00 0. -1.
         13   -1    0    0    0    0 -0.00000000000E+00 -0.00000000000E+00 -0.10000000000E+04  0.10000000000E+04  0.00000000000E+00 0.  1.
    9000005    2    1    2  501    0  0.50935511520E+02  0.17534791601E+02 -0.40454348477E+03  0.40816441385E+03  0.63923715190E+01 0.  0.
         13    1    3    3    0    0  0.14144092187E+02  0.65430506543E+01 -0.13589011283E+03  0.13678080867E+03  0.00000000000E+00 0.  1.
          3    1    3    3  501    0  0.36791419333E+02  0.10991740947E+02 -0.26865337195E+03  0.27138360519E+03  0.00000000000E+00 0.  1.
         -3    1    1    2    0  502 -0.50935511520E+02 -0.17534791601E+02 -0.59242398610E+03  0.59486811527E+03  0.00000000000E+00 0. -1.
<mgrwt>
<rscale>  1 0.30000000E+03</rscale>
<asrwt>0</asrwt>
<pdfrwt beam="1">  1       21 0.11027402E-01 0.30000000E+03</pdfrwt>
<pdfrwt beam="2">0</pdfrwt>
<totfact> 0.72196303E+03</totfact>
</mgrwt>
</event>
<event>
 6    1  0.1280499E-001  0.3000000E+03  0.7818608E-02  0.1093470E+00
         21   -1    0    0  501  502  0.00000000000E+00  0.00000000000E+00  0.14114464498E+01  0.14114464498E+01  0.00000000000E+00 0. -1.
         13   -1    0    0    0    0 -0.00000000000E+00 -0.00000000000E+00 -0.10000000000E+04  0.10000000000E+04  0.00000000000E+00 0.  1.
    9000005    2    1    2  501    0 -0.31395659673E+02  0.17778111548E+02 -0.63406071106E+03  0.63510242848E+03  0.45122780208E+01 0.  0.
         13    1    3    3    0    0 -0.12867332003E+02  0.58085337199E+01 -0.27935662056E+03  0.27971311865E+03  0.00000000000E+00 0.  1.
          3    1    3    3  501    0 -0.18528327670E+02  0.11969577828E+02 -0.35470409050E+03  0.35538930983E+03  0.00000000000E+00 0.  1.
         -1    1    1    2    0  502  0.31395659673E+02 -0.17778111548E+02 -0.36452784249E+03  0.36630901797E+03  0.00000000000E+00 0. -1.
<mgrwt>
<rscale>  1 0.30000000E+03</rscale>
<asrwt>0</asrwt>
<pdfrwt beam="1">  1       21 0.51325434E-02 0.30000000E+03</pdfrwt>
<pdfrwt beam="2">0</pdfrwt>
<totfact> 0.27547331E+04</totfact>
</mgrwt>
</event>
<event>
 6    1  0.1280499E-001  0.3000000E+03  0.7818608E-02  0.1093470E+00
         21   -1    0    0  501  502  0.00000000000E+00  0.00000000000E+00  0.60289041628E+01  0.60289041628E+01  0.00000000000E+00 0. -1.
         13   -1    0    0    0    0 -0.00000000000E+00 -0.00000000000E+00 -0.10000000000E+04  0.10000000000E+04  0.00000000000E+00 0.  1.
    9000005    2    1    2  501    0  0.74253282375E+02  0.12433071529E+02 -0.37472542063E+03  0.38222337559E+03  0.27270446189E+01 0.  0.
         13    1    3    3    0    0  0.64112812300E+02  0.11422267013E+02 -0.32068456276E+03  0.32723005620E+03  0.00000000000E+00 0.  1.
          1    1    3    3  501    0  0.10140470075E+02  0.10108045162E+01 -0.54040857867E+02  0.54993319395E+02  0.00000000000E+00 0.  1.
         -3    1    1    2    0  502 -0.74253282375E+02 -0.12433071529E+02 -0.61924567521E+03  0.62380552857E+03  0.00000000000E+00 0. -1.
<mgrwt>
<rscale>  1 0.30000000E+03</rscale>
<asrwt>0</asrwt>
<pdfrwt beam="1">  1       21 0.21923334E-01 0.30000000E+03</pdfrwt>
<pdfrwt beam="2">0</pdfrwt>
<totfact> 0.20120692E+03</totfact>
</mgrwt>
</event>
<event>
 6    1  0.1280499E-001  0.3000000E+03  0.7818608E-02  0.1093470E+00
         21   -1    0    0  501  502  0.00000000000E+00  0.00000000000E+00  0.43617899794E+01  0.43617899794E+01  0.00000000000E+00 0. -1.
         13   -1    0    0    0    0 -0.00000000000E+00 -0.00000000000E+00 -0.10000000000E+04  0.10000000000E+04  0.00000000000E+00 0.  1.
    9000005    2    1    2  501    0 -0.30850372679E+02  0.34465298070E+02 -0.85615600733E+03  0.85740980077E+03  0.29757858439E+01 0.  0.
         13    1    3    3    0    0 -0.21531662835E+02  0.22015465999E+02 -0.56233132140E+03  0.56317387038E+03  0.00000000000E+00 0.  1.
          3    1    3    3  501    0 -0.93187098440E+01  0.12449832071E+02 -0.29382468593E+03  0.29423593039E+03  0.00000000000E+00 0.  1.
         -3    1    1    2    0  502  0.30850372679E+02 -0.34465298070E+02 -0.13948220269E+03  0.14695198921E+03  0.00000000000E+00 0. -1.
<mgrwt>
<rscale>  1 0.30000000E+03</rscale>
<asrwt>0</asrwt>
<pdfrwt beam="1">  1       21 0.15861088E-01 0.30000000E+03</pdfrwt>
<pdfrwt beam="2">0</pdfrwt>
<totfact> 0.37124981E+03</totfact>
</mgrwt>
</event>
<event>
 6    1  0.1280499E-001  0.3000000E+03  0.7818608E-02  0.1093470E+00
         21   -1    0    0  501  502  0.00000000000E+00  0.00000000000E+00  0.19856395623E+01  0.19856395623E+01  0.00000000000E+00 0. -1.
         13   -1    0    0    0    0 -0.00000000000E+00 -0.00000000000E+00 -0.10000000000E+04  0.10000000000E+04  0.00000000000E+00 0.  1.
    9000005    2    1    2  501    0  0.32714105328E+02 -0.23097963824E+01 -0.83772990322E+03  0.83838045910E+03  0.38542981876E+01 0.  0.
         13    1    3    3    0    0  0.23636198719E+02  0.70553956938E-01 -0.60079695972E+03  0.60126172477E+03  0.00000000000E+00 0.  1.
          3    1    3    3  501    0  0.90779066085E+01 -0.23803503393E+01 -0.23693294350E+03  0.23711873433E+03  0.00000000000E+00 0.  1.
         -3    1    1    2    0  502 -0.32714105328E+02  0.23097963824E+01 -0.16028445722E+03  0.16360518046E+03  0.00000000000E+00 0. -1.
<mgrwt>
<rscale>  1 0.30000000E+03</rscale>
<asrwt>0</asrwt>
<pdfrwt beam="1">  1       21 0.72205227E-02 0.30000000E+03</pdfrwt>
<pdfrwt beam="2">0</pdfrwt>
<totfact> 0.15286311E+04</totfact>
</mgrwt>
</event>
<event>
 6    1  0.1280499E-001  0.3000000E+03  0.7818608E-02  0.1093470E+00
         21   -1    0    0  501  502  0.00000000000E+00  0.00000000000E+00  0.10619342031E+01  0.10619342031E+01  0.00000000000E+00 0. -1.
         13   -1    0    0    0    0 -0.00000000000E+00 -0.00000000000E+00 -0.10000000000E+04  0.10000000000E+04  0.00000000000E+00 0.  1.
    9000005    2    1    2  501    0  0.11038242936E+02 -0.30280079958E+02 -0.43479716127E+03  0.43600115321E+03  0.31157836359E+01 0.  0.
         13    1    3    3    0    0  0.17890754569E+01 -0.58082545979E+01 -0.67221074779E+02  0.67495255440E+02  0.00000000000E+00 0.  1.
          3    1    3    3  501    0  0.92491674794E+01 -0.24471825360E+02 -0.36757608649E+03  0.36850589777E+03  0.00000000000E+00 0.  1.
         -3    1    1    2    0  502 -0.11038242936E+02  0.30280079958E+02 -0.56414090453E+03  0.56506078099E+03  0.00000000000E+00 0. -1.
<mgrwt>
<rscale>  1 0.30000000E+03</rscale>
<asrwt>0</asrwt>
<pdfrwt beam="1">  1       21 0.38615871E-02 0.30000000E+03</pdfrwt>
<pdfrwt beam="2">0</pdfrwt>
<totfact> 0.44614135E+04</totfact>
</mgrwt>
</event>
<event>
 6    1  0.1280499E-001  0.3000000E+03  0.7818608E-02  0.1093470E+00
         21   -1    0    0  501  502  0.00000000000E+00  0.00000000000E+00  0.12797645748E+01  0.12797645748E+01  0.00000000000E+00 0. -1.
         13   -1    0    0    0    0 -0.00000000000E+00 -0.00000000000E+00 -0.10000000000E+04  0.10000000000E+04  0.00000000000E+00 0.  1.
    9000005    2    1    2  501    0 -0.30230161951E+02  0.48742120925E+00 -0.76147281505E+03  0.76211363247E+03  0.78892627359E+01 0.  0.
         13    1    3    3    0    0  0.33805107083E+00  0.14606482514E+00 -0.30042990143E+02  0.30045247049E+02  0.00000000000E+00 0.  1.
          1    1    3    3  501    0 -0.30568213022E+02  0.34135638410E+00 -0.73142982490E+03  0.73206838542E+03  0.00000000000E+00 0.  1.
         -1    1    1    2    0  502  0.30230161951E+02 -0.48742120925E+00 -0.23724742038E+03  0.23916613211E+03  0.00000000000E+00 0. -1.
<mgrwt>
<rscale>  1 0.30000000E+03</rscale>
<asrwt>0</asrwt>
<pdfrwt beam="1">  1       21 0.46536992E-02 0.30000000E+03</pdfrwt>
<pdfrwt beam="2">0</pdfrwt>
<totfact> 0.32547504E+04</totfact>
</mgrwt>
</event>
<event>
 6    1  0.1280499E-001  0.3000000E+03  0.7818608E-02  0.1093470E+00
         21   -1    0    0  501  502  0.00000000000E+00  0.00000000000E+00  0.23995795212E+01  0.23995795212E+01  0.00000000000E+00 0. -1.
         13   -1    0    0    0    0 -0.00000000000E+00 -0.00000000000E+00 -0.10000000000E+04  0.10000000000E+04  0.00000000000E+00 0.  1.
    9000005    2    1    2  501    0 -0.44063747173E+02  0.13602316667E+02 -0.33197559471E+03  0.33517919201E+03  0.32647263968E+01 0.  0.
         13    1    3    3    0    0 -0.38561093383E+02  0.10744244138E+02 -0.28702564980E+03  0.28980358926E+03  0.00000000000E+00 0.  1.
          1    1    3    3  501    0 -0.55026537897E+01  0.28580725289E+01 -0.44949944907E+02  0.45375602745E+02  0.00000000000E+00 0.  1.
         -1    1    1    2    0  502  0.44063747173E+02 -0.13602316667E+02 -0.66562482577E+03  0.66722038751E+03  0.00000000000E+00 0. -1.
<mgrwt>
<rscale>  1 0.30000000E+03</rscale>
<asrwt>0</asrwt>
<pdfrwt beam="1">  1       21 0.87257621E-02 0.30000000E+03</pdfrwt>
<pdfrwt beam="2">0</pdfrwt>
<totfact> 0.10962122E+04</totfact>
</mgrwt>
</event>
<event>
 6    1  0.1280499E-001  0.3000000E+03  0.7818608E-02  0.1093470E+00
         21   -1    0    0  501  502  0.00000000000E+00  0.00000000000E+00  0.11039738475E+01  0.11039738475E+01  0.00000000000E+00 0. -1.
         13   -1    0    0    0    0 -0.00000000000E+00 -0.00000000000E+00 -0.10000000000E+04  0.10000000000E+04  0.00000000000E+00 0.  1.
    9000005    2    1    2  501    0 -0.28878296081E+02 -0.14460021592E+02 -0.45071811207E+03  0.45197550646E+03  0.95913336756E+01 0.  0.
         13    1    3    3    0    0 -0.24063813599E+02 -0.14325608689E+02 -0.33948060955E+03  0.34063378349E+03  0.00000000000E+00 0.  1.
          1    1    3    3  501    0 -0.48144824819E+01 -0.13441290270E+00 -0.11123750252E+03  0.11134172297E+03  0.00000000000E+00 0.  1.
         -1    1    1    2    0  502  0.28878296081E+02  0.14460021592E+02 -0.54817791408E+03  0.54912846739E+03  0.00000000000E+00 0. -1.
<mgrwt>
<rscale>  1 0.30000000E+03</rscale>
<asrwt>0</asrwt>
<pdfrwt beam="1">  1       21 0.40144588E-02 0.30000000E+03</pdfrwt>
<pdfrwt beam="2">0</pdfrwt>
<totfact> 0.41792583E+04</totfact>
</mgrwt>
</event>
<event>
 6    1  0.1280499E-001  0.3000000E+03  0.7818608E-02  0.1093470E+00
         21   -1    0    0  501  502  0.00000000000E+00  0.00000000000E+00  0.17993116534E+01  0.17993116534E+01  0.00000000000E+00 0. -1.
         13   -1    0    0    0    0 -0.00000000000E+00 -0.00000000000E+00 -0.10000000000E+04  0.10000000000E+04  0.00000000000E+00 0.  1.
    9000005    2    1    2  501    0  0.41580876891E+02  0.38520571544E+01 -0.41852815926E+03  0.42062459727E+03  0.39273481007E+01 0.  0.
         13    1    3    3    0    0  0.28864599727E+02  0.14865880108E+01 -0.30254539365E+03  0.30392283606E+03  0.00000000000E+00 0.  1.
          3    1    3    3  501    0  0.12716277164E+02  0.23654691437E+01 -0.11598276562E+03  0.11670176121E+03  0.00000000000E+00 0.  1.
         -3    1    1    2    0  502 -0.41580876891E+02 -0.38520571544E+01 -0.57967252908E+03  0.58117471438E+03  0.00000000000E+00 0. -1.
<mgrwt>
<rscale>  1 0.30000000E+03</rscale>
<asrwt>0</asrwt>
<pdfrwt beam="1">  1       21 0.65429653E-02 0.30000000E+03</pdfrwt>
<pdfrwt beam="2">0</pdfrwt>
<totfact> 0.18141876E+04</totfact>
</mgrwt>
</event>
<event>
 6    1  0.1280499E-001  0.3000000E+03  0.7818608E-02  0.1093470E+00
         21   -1    0    0  501  502  0.00000000000E+00  0.00000000000E+00  0.10494777992E+01  0.10494777992E+01  0.00000000000E+00 0. -1.
         13   -1    0    0    0    0 -0.00000000000E+00 -0.00000000000E+00 -0.10000000000E+04  0.10000000000E+04  0.00000000000E+00 0.  1.
    9000005    2    1    2  501    0  0.46435435426E+01 -0.31600540517E+02 -0.42340813663E+03  0.42462151678E+03  0.29708062095E+01 0.  0.
         13    1    3    3    0    0 -0.18319792805E-01 -0.25263739589E+01 -0.25262595711E+02  0.25388612468E+02  0.00000000000E+00 0.  1.
          1    1    3    3  501    0  0.46618633354E+01 -0.29074166558E+02 -0.39814554092E+03  0.39923290431E+03  0.00000000000E+00 0.  1.
         -1    1    1    2    0  502 -0.46435435426E+01  0.31600540517E+02 -0.57554238557E+03  0.57642796102E+03  0.00000000000E+00 0. -1.
<mgrwt>
<rscale>  1 0.30000000E+03</rscale>
<asrwt>0</asrwt>
<pdfrwt beam="1">  1       21 0.38162910E-02 0.30000000E+03</pdfrwt>
<pdfrwt beam="2">0</pdfrwt>
<totfact> 0.45507786E+04</totfact>
</mgrwt>
</event>
<event>
 6    1  0.1280499E-001  0.3000000E+03  0.7818608E-02  0.1093470E+00
         21   -1    0    0  501  502  0.00000000000E+00  0.00000000000E+00  0.12151257578E+01  0.12151257578E+01  0.00000000000E+00 0. -1.
         13   -1    0    0    0    0 -0.00000000000E+00 -0.00000000000E+00 -0.10000000000E+04  0.10000000000E+04  0.00000000000E+00 0.  1.
    9000005    2    1    2  501    0  0.75160741813E+01  0.33114739845E+02 -0.60855758429E+03  0.60951317888E+03  0.33021906034E+01 0.  0.
         13    1    3    3    0    0  0.50450082172E+01  0.27819265620E+02 -0.50557187476E+03  0.50636181155E+03  0.00000000000E+00 0.  1.
          3    1    3    3  501    0  0.24710659642E+01  0.52954742245E+01 -0.10298570953E+03  0.10315136732E+03  0.00000000000E+00 0.  1.
         -3    1    1    2    0  502 -0.75160741813E+01 -0.33114739845E+02 -0.39022728995E+03  0.39170194688E+03  0.00000000000E+00 0. -1.
<mgrwt>
<rscale>  1 0.30000000E+03</rscale>
<asrwt>0</asrwt>
<pdfrwt beam="1">  1       21 0.44186484E-02 0.30000000E+03</pdfrwt>
<pdfrwt beam="2">0</pdfrwt>
<totfact> 0.35540824E+04</totfact>
</mgrwt>
</event>
<event>
 6    1  0.1280499E-001  0.3000000E+03  0.7818608E-02  0.1093470E+00
         21   -1    0    0  501  502  0.00000000000E+00  0.00000000000E+00  0.14623108873E+01  0.14623108873E+01  0.00000000000E+00 0. -1.
         13   -1    0    0    0    0 -0.00000000000E+00 -0.00000000000E+00 -0.10000000000E+04  0.10000000000E+04  0.00000000000E+00 0.  1.
    9000005    2    1    2  501    0  0.32441981944E+02 -0.51572745066E+01 -0.75453150789E+03  0.75525488585E+03  0.36147636027E+01 0.  0.
         13    1    3    3    0    0  0.24056483932E+02 -0.22380704087E+01 -0.55911663506E+03  0.55963839662E+03  0.00000000000E+00 0.  1.
          3    1    3    3  501    0  0.83854980117E+01 -0.29192040979E+01 -0.19541487284E+03  0.19561648922E+03  0.00000000000E+00 0.  1.
         -1    1    1    2    0  502 -0.32441981944E+02  0.51572745066E+01 -0.24400618122E+03  0.24620742504E+03  0.00000000000E+00 0. -1.
<mgrwt>
<rscale>  1 0.30000000E+03</rscale>
<asrwt>0</asrwt>
<pdfrwt beam="1">  1       21 0.53175053E-02 0.30000000E+03</pdfrwt>
<pdfrwt beam="2">0</pdfrwt>
<totfact> 0.25930197E+04</totfact>
</mgrwt>
</event>
<event>
 6    1  0.1280499E-001  0.3000000E+03  0.7818608E-02  0.1093470E+00
         21   -1    0    0  501  502  0.00000000000E+00  0.00000000000E+00  0.13290892200E+01  0.13290892200E+01  0.00000000000E+00 0. -1.
         13   -1    0    0    0    0 -0.00000000000E+00 -0.00000000000E+00 -0.10000000000E+04  0.10000000000E+04  0.00000000000E+00 0.  1.
    9000005    2    1    2  501    0 -0.14053184018E+02  0.27175249335E+02 -0.77082678648E+03  0.77144013530E+03  0.31561742210E+01 0.  0.
         13    1    3    3    0    0 -0.12527016170E+02  0.21650332112E+02 -0.63504449082E+03  0.63553691344E+03  0.00000000000E+00 0.  1.
          3    1    3    3  501    0 -0.15261678487E+01  0.55249172230E+01 -0.13578229565E+03  0.13590322186E+03  0.00000000000E+00 0.  1.
         -3    1    1    2    0  502  0.14053184018E+02 -0.27175249335E+02 -0.22784412430E+03  0.22988895392E+03  0.00000000000E+00 0. -1.
<mgrwt>
<rscale>  1 0.30000000E+03</rscale>
<asrwt>0</asrwt>
<pdfrwt beam="1">  1       21 0.48330619E-02 0.30000000E+03</pdfrwt>
<pdfrwt beam="2">0</pdfrwt>
<totfact> 0.30519919E+04</totfact>
</mgrwt>
</event>
<event>
 6    1  0.1280499E-001  0.3000000E+03  0.7818608E-02  0.1093470E+00
         21   -1    0    0  501  502  0.00000000000E+00  0.00000000000E+00  0.17938059822E+01  0.17938059822E+01  0.00000000000E+00 0. -1.
         13   -1    0    0    0    0 -0.00000000000E+00 -0.00000000000E+00 -0.10000000000E+04  0.10000000000E+04  0.00000000000E+00 0.  1.
    9000005    2    1    2  501    0 -0.23971871467E+02  0.24137599558E+02 -0.79682066905E+03  0.79755521022E+03  0.37229535123E+01 0.  0.
         13    1    3    3    0    0 -0.19313140584E+02  0.21288989738E+02 -0.67860671319E+03  0.67921520129E+03  0.00000000000E+00 0.  1.
          1    1    3    3  501    0 -0.46587308837E+01  0.28486098205E+01 -0.11821395586E+03  0.11834000892E+03  0.00000000000E+00 0.  1.
         -3    1    1    2    0  502  0.23971871467E+02 -0.24137599558E+02 -0.20138552497E+03  0.20423859577E+03  0.00000000000E+00 0. -1.
<mgrwt>
<rscale>  1 0.30000000E+03</rscale>
<asrwt>0</asrwt>
<pdfrwt beam="1">  1       21 0.65229446E-02 0.30000000E+03</pdfrwt>
<pdfrwt beam="2">0</pdfrwt>
<totfact> 0.18238422E+04</totfact>
</mgrwt>
</event>
<event>
 6    1  0.1280499E-001  0.3000000E+03  0.7818608E-02  0.1093470E+00
         21   -1    0    0  501  502  0.00000000000E+00  0.00000000000E+00  0.13774072145E+01  0.13774072145E+01  0.00000000000E+00 0. -1.
         13   -1    0    0    0    0 -0.00000000000E+00 -0.00000000000E+00 -0.10000000000E+04  0.10000000000E+04  0.00000000000E+00 0.  1.
    9000005    2    1    2  501    0  0.35649223190E+02  0.26979683809E+00 -0.63355549013E+03  0.63457374127E+03  0.45093390944E+01 0.  0.
         13    1    3    3    0    0  0.35153729273E+02  0.82286400199E+00 -0.61635300855E+03  0.61735524047E+03  0.00000000000E+00 0.  1.
          1    1    3    3  501    0  0.49549391772E+00 -0.55306716390E+00 -0.17202481577E+02  0.17218500803E+02  0.00000000000E+00 0.  1.
         -3    1    1    2    0  502 -0.35649223190E+02 -0.26979683809E+00 -0.36506710266E+03  0.36680366594E+03  0.00000000000E+00 0. -1.
<mgrwt>
<rscale>  1 0.30000000E+03</rscale>
<asrwt>0</asrwt>
<pdfrwt beam="1">  1       21 0.50087641E-02 0.30000000E+03</pdfrwt>
<pdfrwt beam="2">0</pdfrwt>
<totfact> 0.28718785E+04</totfact>
</mgrwt>
</event>
<event>
 6    1  0.1280499E-001  0.3000000E+03  0.7818608E-02  0.1093470E+00
         21   -1    0    0  501  502  0.00000000000E+00  0.00000000000E+00  0.14174913301E+01  0.14174913301E+01  0.00000000000E+00 0. -1.
         13   -1    0    0    0    0 -0.00000000000E+00 -0.00000000000E+00 -0.10000000000E+04  0.10000000000E+04  0.00000000000E+00 0.  1.
    9000005    2    1    2  501    0 -0.14326094002E+02 -0.34573597481E+02 -0.53290448477E+03  0.53423809051E+03  0.47515098842E+01 0.  0.
         13    1    3    3    0    0 -0.13223293977E+02 -0.27072026818E+02 -0.41990770204E+03  0.42098720690E+03  0.00000000000E+00 0.  1.
          1    1    3    3  501    0 -0.11028000252E+01 -0.75015706623E+01 -0.11299678273E+03  0.11325088361E+03  0.00000000000E+00 0.  1.
         -3    1    1    2    0  502  0.14326094002E+02  0.34573597481E+02 -0.46567802390E+03  0.46717940082E+03  0.00000000000E+00 0. -1.
<mgrwt>
<rscale>  1 0.30000000E+03</rscale>
<asrwt>0</asrwt>
<pdfrwt beam="1">  1       21 0.51545248E-02 0.30000000E+03</pdfrwt>
<pdfrwt beam="2">0</pdfrwt>
<totfact> 0.27347072E+04</totfact>
</mgrwt>
</event>
<event>
 6    1  0.1280499E-001  0.3000000E+03  0.7818608E-02  0.1093470E+00
         21   -1    0    0  501  502  0.00000000000E+00  0.00000000000E+00  0.12191668210E+01  0.12191668210E+01  0.00000000000E+00 0. -1.
         13   -1    0    0    0    0 -0.00000000000E+00 -0.00000000000E+00 -0.10000000000E+04  0.10000000000E+04  0.00000000000E+00 0.  1.
    9000005    2    1    2  501    0 -0.26503272518E+01 -0.30902693913E+02 -0.27209209771E+03  0.27386882553E+03  0.28325311439E+01 0.  0.
         13    1    3    3    0    0 -0.91904583281E+00 -0.52507082009E+01 -0.55791347938E+02  0.56045419854E+02  0.00000000000E+00 0.  1.
          1    1    3    3  501    0 -0.17312814190E+01 -0.25651985712E+02 -0.21630074978E+03  0.21782340568E+03  0.00000000000E+00 0.  1.
         -1    1    1    2    0  502  0.26503272518E+01  0.30902693913E+02 -0.72668873547E+03  0.72735034129E+03  0.00000000000E+00 0. -1.
<mgrwt>
<rscale>  1 0.30000000E+03</rscale>
<asrwt>0</asrwt>
<pdfrwt beam="1">  1       21 0.44333432E-02 0.30000000E+03</pdfrwt>
<pdfrwt beam="2">0</pdfrwt>
<totfact> 0.35341410E+04</totfact>
</mgrwt>
</event>
<event>
 6    1  0.1280499E-001  0.3000000E+03  0.7818608E-02  0.1093470E+00
         21   -1    0    0  501  502  0.00000000000E+00  0.00000000000E+00  0.20070897795E+01  0.20070897795E+01  0.00000000000E+00 0. -1.
         13   -1    0    0    0    0 -0.00000000000E+00 -0.00000000000E+00 -0.10000000000E+04  0.10000000000E+04  0.00000000000E+00 0.  1.
    9000005    2    1    2  501    0  0.33419881424E+02 -0.29738769144E+02 -0.49599812738E+03  0.49802291854E+03  0.33767082369E+01 0.  0.
         13    1    3    3    0    0  0.11369985827E+02 -0.80875207000E+01 -0.15849259800E+03  0.15910558817E+03  0.00000000000E+00 0.  1.
          1    1    3    3  501    0  0.22049895597E+02 -0.21651248444E+02 -0.33750552938E+03  0.33891733036E+03  0.00000000000E+00 0.  1.
         -1    1    1    2    0  502 -0.33419881424E+02  0.29738769144E+02 -0.50199478284E+03  0.50398417124E+03  0.00000000000E+00 0. -1.
<mgrwt>
<rscale>  1 0.30000000E+03</rscale>
<asrwt>0</asrwt>
<pdfrwt beam="1">  1       21 0.72985237E-02 0.30000000E+03</pdfrwt>
<pdfrwt beam="2">0</pdfrwt>
<totfact> 0.15002231E+04</totfact>
</mgrwt>
</event>
<event>
 6    1  0.1280499E-001  0.3000000E+03  0.7818608E-02  0.1093470E+00
         21   -1    0    0  501  502  0.00000000000E+00  0.00000000000E+00  0.50535113013E+01  0.50535113013E+01  0.00000000000E+00 0. -1.
         13   -1    0    0    0    0 -0.00000000000E+00 -0.00000000000E+00 -0.10000000000E+04  0.10000000000E+04  0.00000000000E+00 0.  1.
    9000005    2    1    2  501    0  0.51205341093E+02 -0.49235633614E+02 -0.48597695025E+03  0.49115067453E+03  0.30420950584E+01 0.  0.
         13    1    3    3    0    0  0.16389324293E+02 -0.15256055017E+02 -0.14388941918E+03  0.14562115958E+03  0.00000000000E+00 0.  1.
          1    1    3    3  501    0  0.34816016801E+02 -0.33979578596E+02 -0.34208753107E+03  0.34552951495E+03  0.00000000000E+00 0.  1.
         -1    1    1    2    0  502 -0.51205341093E+02  0.49235633614E+02 -0.50896953845E+03  0.51390283677E+03  0.00000000000E+00 0. -1.
<mgrwt>
<rscale>  1 0.30000000E+03</rscale>
<asrwt>0</asrwt>
<pdfrwt beam="1">  1       21 0.18376443E-01 0.30000000E+03</pdfrwt>
<pdfrwt beam="2">0</pdfrwt>
<totfact> 0.28174233E+03</totfact>
</mgrwt>
</event>
<event>
 6    1  0.1280499E-001  0.3000000E+03  0.7818608E-02  0.1093470E+00
         21   -1    0    0  501  502  0.00000000000E+00  0.00000000000E+00  0.11566078150E+01  0.11566078150E+01  0.00000000000E+00 0. -1.
         13   -1    0    0    0    0 -0.00000000000E+00 -0.00000000000E+00 -0.10000000000E+04  0.10000000000E+04  0.00000000000E+00 0.  1.
    9000005    2    1    2  501    0  0.15198245955E+02 -0.30290053490E+02 -0.52089762988E+03  0.52201088288E+03  0.35421755397E+01 0.  0.
         13    1    3    3    0    0  0.90261178934E+01 -0.21300001852E+02 -0.36491713073E+03  0.36564965907E+03  0.00000000000E+00 0.  1.
          1    1    3    3  501    0  0.61721280611E+01 -0.89900516375E+01 -0.15598049916E+03  0.15636122381E+03  0.00000000000E+00 0.  1.
         -1    1    1    2    0  502 -0.15198245955E+02  0.30290053490E+02 -0.47794576230E+03  0.47914572493E+03  0.00000000000E+00 0. -1.
<mgrwt>
<rscale>  1 0.30000000E+03</rscale>
<asrwt>0</asrwt>
<pdfrwt beam="1">  1       21 0.42058555E-02 0.30000000E+03</pdfrwt>
<pdfrwt beam="2">0</pdfrwt>
<totfact> 0.38635454E+04</totfact>
</mgrwt>
</event>
<event>
 6    1  0.1280499E-001  0.3000000E+03  0.7818608E-02  0.1093470E+00
         21   -1    0    0  501  502  0.00000000000E+00  0.00000000000E+00  0.11674213520E+01  0.11674213520E+01  0.00000000000E+00 0. -1.
         13   -1    0    0    0    0 -0.00000000000E+00 -0.00000000000E+00 -0.10000000000E+04  0.10000000000E+04  0.00000000000E+00 0.  1.
    9000005    2    1    2  501    0 -0.13987649986E+02  0.30182155169E+02 -0.38919944859E+03  0.39062735706E+03  0.26276333899E+01 0.  0.
         13    1    3    3    0    0 -0.76550432016E+00  0.34792434955E+01 -0.38720718303E+02  0.38884253344E+02  0.00000000000E+00 0.  1.
          3    1    3    3  501    0 -0.13222145666E+02  0.26702911673E+02 -0.35047873029E+03  0.35174310372E+03  0.00000000000E+00 0.  1.
         -3    1    1    2    0  502  0.13987649986E+02 -0.30182155169E+02 -0.60963313005E+03  0.61054006429E+03  0.00000000000E+00 0. -1.
<mgrwt>
<rscale>  1 0.30000000E+03</rscale>
<asrwt>0</asrwt>
<pdfrwt beam="1">  1       21 0.42451775E-02 0.30000000E+03</pdfrwt>
<pdfrwt beam="2">0</pdfrwt>
<totfact> 0.38032843E+04</totfact>
</mgrwt>
</event>
<event>
 6    1  0.1280499E-001  0.3000000E+03  0.7818608E-02  0.1093470E+00
         21   -1    0    0  501  502  0.00000000000E+00  0.00000000000E+00  0.36508004776E+01  0.36508004776E+01  0.00000000000E+00 0. -1.
         13   -1    0    0    0    0 -0.00000000000E+00 -0.00000000000E+00 -0.10000000000E+04  0.10000000000E+04  0.00000000000E+00 0.  1.
    9000005    2    1    2  501    0 -0.38370679768E+02 -0.34817375972E+02 -0.75599758095E+03  0.75777794861E+03  0.32431868910E+01 0.  0.
         13    1    3    3    0    0 -0.25714457501E+02 -0.25169351772E+02 -0.51499765423E+03  0.51625314862E+03  0.00000000000E+00 0.  1.
          1    1    3    3  501    0 -0.12656222267E+02 -0.96480241995E+01 -0.24099992671E+03  0.24152479999E+03  0.00000000000E+00 0.  1.
         -1    1    1    2    0  502  0.38370679768E+02  0.34817375972E+02 -0.24035161858E+03  0.24587285187E+03  0.00000000000E+00 0. -1.
<mgrwt>
<rscale>  1 0.30000000E+03</rscale>
<asrwt>0</asrwt>
<pdfrwt beam="1">  1       21 0.13275666E-01 0.30000000E+03</pdfrwt>
<pdfrwt beam="2">0</pdfrwt>
<totfact> 0.51549995E+03</totfact>
</mgrwt>
</event>
<event>
 6    1  0.1280499E-001  0.3000000E+03  0.7818608E-02  0.1093470E+00
         21   -1    0    0  501  502  0.00000000000E+00  0.00000000000E+00  0.17158965581E+01  0.17158965581E+01  0.00000000000E+00 0. -1.
         13   -1    0    0    0    0 -0.00000000000E+00 -0.00000000000E+00 -0.10000000000E+04  0.10000000000E+04  0.00000000000E+00 0.  1.
    9000005    2    1    2  501    0  0.24130101362E+02  0.19903399290E+02 -0.82707895383E+03  0.82767679075E+03  0.32965120019E+01 0.  0.
         13    1    3    3    0    0  0.22100239065E+02  0.17369454830E+02 -0.75930838483E+03  0.75982849499E+03  0.00000000000E+00 0.  1.
          1    1    3    3  501    0  0.20298622970E+01  0.25339444602E+01 -0.67770568996E+02  0.67848295760E+02  0.00000000000E+00 0.  1.
         -1    1    1    2    0  502 -0.24130101362E+02 -0.19903399290E+02 -0.17120514962E+03  0.17403910581E+03  0.00000000000E+00 0. -1.
<mgrwt>
<rscale>  1 0.30000000E+03</rscale>
<asrwt>0</asrwt>
<pdfrwt beam="1">  1       21 0.62396370E-02 0.30000000E+03</pdfrwt>
<pdfrwt beam="2">0</pdfrwt>
<totfact> 0.19694350E+04</totfact>
</mgrwt>
</event>
<event>
 6    1  0.1280499E-001  0.3000000E+03  0.7818608E-02  0.1093470E+00
         21   -1    0    0  501  502  0.00000000000E+00  0.00000000000E+00  0.12375443692E+01  0.12375443692E+01  0.00000000000E+00 0. -1.
         13   -1    0    0    0    0 -0.00000000000E+00 -0.00000000000E+00 -0.10000000000E+04  0.10000000000E+04  0.00000000000E+00 0.  1.
    9000005    2    1    2  501    0  0.29330302499E+02  0.80448431592E+01 -0.74967286735E+03  0.75029809124E+03  0.35821130250E+01 0.  0.
         13    1    3    3    0    0  0.22528559696E+02  0.75062035720E+01 -0.60027419547E+03  0.60074369647E+03  0.00000000000E+00 0.  1.
          1    1    3    3  501    0  0.68017428033E+01  0.53863958718E+00 -0.14939867187E+03  0.14955439477E+03  0.00000000000E+00 0.  1.
         -1    1    1    2    0  502 -0.29330302499E+02 -0.80448431592E+01 -0.24908958828E+03  0.25093945313E+03  0.00000000000E+00 0. -1.
<mgrwt>
<rscale>  1 0.30000000E+03</rscale>
<asrwt>0</asrwt>
<pdfrwt beam="1">  1       21 0.45001708E-02 0.30000000E+03</pdfrwt>
<pdfrwt beam="2">0</pdfrwt>
<totfact> 0.34455969E+04</totfact>
</mgrwt>
</event>
<event>
 6    1  0.1280499E-001  0.3000000E+03  0.7818608E-02  0.1093470E+00
         21   -1    0    0  501  502  0.00000000000E+00  0.00000000000E+00  0.95150090390E+00  0.95150090390E+00  0.00000000000E+00 0. -1.
         13   -1    0    0    0    0 -0.00000000000E+00 -0.00000000000E+00 -0.10000000000E+04  0.10000000000E+04  0.00000000000E+00 0.  1.
    9000005    2    1    2  501    0  0.98434739546E+01 -0.29081348988E+02 -0.53426362531E+03  0.53515369312E+03  0.30389289512E+01 0.  0.
         13    1    3    3    0    0  0.60421439437E+01 -0.18872107314E+02 -0.36860600910E+03  0.36913825849E+03  0.00000000000E+00 0.  1.
          1    1    3    3  501    0  0.38013300109E+01 -0.10209241674E+02 -0.16565761621E+03  0.16601543462E+03  0.00000000000E+00 0.  1.
         -1    1    1    2    0  502 -0.98434739546E+01  0.29081348988E+02 -0.46478487379E+03  0.46579780779E+03  0.00000000000E+00 0. -1.
<mgrwt>
<rscale>  1 0.30000000E+03</rscale>
<asrwt>0</asrwt>
<pdfrwt beam="1">  1       21 0.34600106E-02 0.30000000E+03</pdfrwt>
<pdfrwt beam="2">0</pdfrwt>
<totfact> 0.53638629E+04</totfact>
</mgrwt>
</event>
<event>
 6    1  0.1280499E-001  0.3000000E+03  0.7818608E-02  0.1093470E+00
         21   -1    0    0  501  502  0.00000000000E+00  0.00000000000E+00  0.98614235505E+00  0.98614235505E+00  0.00000000000E+00 0. -1.
         13   -1    0    0    0    0 -0.00000000000E+00 -0.00000000000E+00 -0.10000000000E+04  0.10000000000E+04  0.00000000000E+00 0.  1.
    9000005    2    1    2  501    0  0.93214139639E+00 -0.31004761419E+02 -0.44248876215E+03  0.44359727807E+03  0.44806651204E+01 0.  0.
         13    1    3    3    0    0  0.94503798789E+00 -0.27544968216E+02 -0.40984834904E+03  0.41077401035E+03  0.00000000000E+00 0.  1.
          1    1    3    3  501    0 -0.12896591508E-01 -0.34597932030E+01 -0.32640413114E+02  0.32823267717E+02  0.00000000000E+00 0.  1.
         -1    1    1    2    0  502 -0.93214139639E+00  0.31004761419E+02 -0.55652509549E+03  0.55738886428E+03  0.00000000000E+00 0. -1.
<mgrwt>
<rscale>  1 0.30000000E+03</rscale>
<asrwt>0</asrwt>
<pdfrwt beam="1">  1       21 0.35859798E-02 0.30000000E+03</pdfrwt>
<pdfrwt beam="2">0</pdfrwt>
<totfact> 0.50519797E+04</totfact>
</mgrwt>
</event>
<event>
 6    1  0.1280499E-001  0.3000000E+03  0.7818608E-02  0.1093470E+00
         21   -1    0    0  501  502  0.00000000000E+00  0.00000000000E+00  0.94370208171E+00  0.94370208171E+00  0.00000000000E+00 0. -1.
         13   -1    0    0    0    0 -0.00000000000E+00 -0.00000000000E+00 -0.10000000000E+04  0.10000000000E+04  0.00000000000E+00 0.  1.
    9000005    2    1    2  501    0 -0.18254258436E+02 -0.24167534556E+02 -0.57549777258E+03  0.57630372273E+03  0.33176663027E+01 0.  0.
         13    1    3    3    0    0 -0.14334533761E+02 -0.18407234873E+02 -0.41577096094E+03  0.41642501980E+03  0.00000000000E+00 0.  1.
          1    1    3    3  501    0 -0.39197246752E+01 -0.57602996832E+01 -0.15972681164E+03  0.15987870293E+03  0.00000000000E+00 0.  1.
         -1    1    1    2    0  502  0.18254258436E+02  0.24167534556E+02 -0.42355852534E+03  0.42463997935E+03  0.00000000000E+00 0. -1.
<mgrwt>
<rscale>  1 0.30000000E+03</rscale>
<asrwt>0</asrwt>
<pdfrwt beam="1">  1       21 0.34316512E-02 0.30000000E+03</pdfrwt>
<pdfrwt beam="2">0</pdfrwt>
<totfact> 0.54382114E+04</totfact>
</mgrwt>
</event>
<event>
 6    1  0.1280499E-001  0.3000000E+03  0.7818608E-02  0.1093470E+00
         21   -1    0    0  501  502  0.00000000000E+00  0.00000000000E+00  0.12920091577E+02  0.12920091577E+02  0.00000000000E+00 0. -1.
         13   -1    0    0    0    0 -0.00000000000E+00 -0.00000000000E+00 -0.10000000000E+04  0.10000000000E+04  0.00000000000E+00 0.  1.
    9000005    2    1    2  501    0 -0.43520083184E+02 -0.11320979354E+02 -0.95865976241E+03  0.95972359815E+03  0.43223323753E+01 0.  0.
         13    1    3    3    0    0 -0.66531481082E+01 -0.13236658863E+01 -0.17934268904E+03  0.17947093520E+03  0.00000000000E+00 0.  1.
          1    1    3    3  501    0 -0.36866935076E+02 -0.99973134678E+01 -0.77931707338E+03  0.78025266295E+03  0.00000000000E+00 0.  1.
         -3    1    1    2    0  502  0.43520083184E+02  0.11320979354E+02 -0.28420146010E+02  0.53196493428E+02  0.00000000000E+00 0. -1.
<mgrwt>
<rscale>  1 0.30000000E+03</rscale>
<asrwt>0</asrwt>
<pdfrwt beam="1">  1       21 0.46982250E-01 0.30000000E+03</pdfrwt>
<pdfrwt beam="2">0</pdfrwt>
<totfact> 0.42966407E+02</totfact>
</mgrwt>
</event>
<event>
 6    1  0.1280499E-001  0.3000000E+03  0.7818608E-02  0.1093470E+00
         21   -1    0    0  501  502  0.00000000000E+00  0.00000000000E+00  0.13631262198E+01  0.13631262198E+01  0.00000000000E+00 0. -1.
         13   -1    0    0    0    0 -0.00000000000E+00 -0.00000000000E+00 -0.10000000000E+04  0.10000000000E+04  0.00000000000E+00 0.  1.
    9000005    2    1    2  501    0  0.30299905868E+02  0.12858918931E+02 -0.72510414259E+03  0.72585706254E+03  0.30035889953E+01 0.  0.
         13    1    3    3    0    0  0.28967985070E+02  0.11843699975E+02 -0.67532432777E+03  0.67604908481E+03  0.00000000000E+00 0.  1.
          3    1    3    3  501    0  0.13319207986E+01  0.10152189564E+01 -0.49779814821E+02  0.49807977736E+02  0.00000000000E+00 0.  1.
         -3    1    1    2    0  502 -0.30299905868E+02 -0.12858918931E+02 -0.27353273119E+03  0.27550606368E+03  0.00000000000E+00 0. -1.
<mgrwt>
<rscale>  1 0.30000000E+03</rscale>
<asrwt>0</asrwt>
<pdfrwt beam="1">  1       21 0.49568331E-02 0.30000000E+03</pdfrwt>
<pdfrwt beam="2">0</pdfrwt>
<totfact> 0.29233501E+04</totfact>
</mgrwt>
</event>
<event>
 6    1  0.1280499E-001  0.3000000E+03  0.7818608E-02  0.1093470E+00
         21   -1    0    0  501  502  0.00000000000E+00  0.00000000000E+00  0.14007182244E+01  0.14007182244E+01  0.00000000000E+00 0. -1.
         13   -1    0    0    0    0 -0.00000000000E+00 -0.00000000000E+00 -0.10000000000E+04  0.10000000000E+04  0.00000000000E+00 0.  1.
    9000005    2    1    2  501    0  0.34568436788E+02 -0.97481862156E+01 -0.63723937622E+03  0.63826026978E+03  0.34850268664E+01 0.  0.
         13    1    3    3    0    0  0.40912027239E+01 -0.20561932338E+01 -0.95593569316E+02  0.95703167998E+02  0.00000000000E+00 0.  1.
          1    1    3    3  501    0  0.30477234064E+02 -0.76919929818E+01 -0.54164580691E+03  0.54255710178E+03  0.00000000000E+00 0.  1.
         -3    1    1    2    0  502 -0.34568436788E+02  0.97481862156E+01 -0.36135990555E+03  0.36314044845E+03  0.00000000000E+00 0. -1.
<mgrwt>
<rscale>  1 0.30000000E+03</rscale>
<asrwt>0</asrwt>
<pdfrwt beam="1">  1       21 0.50935316E-02 0.30000000E+03</pdfrwt>
<pdfrwt beam="2">0</pdfrwt>
<totfact> 0.27908398E+04</totfact>
</mgrwt>
</event>
<event>
 6    1  0.1280499E-001  0.3000000E+03  0.7818608E-02  0.1093470E+00
         21   -1    0    0  501  502  0.00000000000E+00  0.00000000000E+00  0.23629254427E+01  0.23629254427E+01  0.00000000000E+00 0. -1.
         13   -1    0    0    0    0 -0.00000000000E+00 -0.00000000000E+00 -0.10000000000E+04  0.10000000000E+04  0.00000000000E+00 0.  1.
    9000005    2    1    2  501    0 -0.39754801727E+02 -0.25011520912E+02 -0.62067802016E+03  0.62248906594E+03  0.67388478809E+01 0.  0.
         13    1    3    3    0    0 -0.13787002265E+02 -0.12486826440E+02 -0.23516355071E+03  0.23589806665E+03  0.00000000000E+00 0.  1.
          3    1    3    3  501    0 -0.25967799463E+02 -0.12524694472E+02 -0.38551446945E+03  0.38659099929E+03  0.00000000000E+00 0.  1.
         -1    1    1    2    0  502  0.39754801727E+02  0.25011520912E+02 -0.37695905440E+03  0.37987385950E+03  0.00000000000E+00 0. -1.
<mgrwt>
<rscale>  1 0.30000000E+03</rscale>
<asrwt>0</asrwt>
<pdfrwt beam="1">  1       21 0.85924743E-02 0.30000000E+03</pdfrwt>
<pdfrwt beam="2">0</pdfrwt>
<totfact> 0.11264182E+04</totfact>
</mgrwt>
</event>
<event>
 6    1  0.1280499E-001  0.3000000E+03  0.7818608E-02  0.1093470E+00
         21   -1    0    0  501  502  0.00000000000E+00  0.00000000000E+00  0.30997285106E+01  0.30997285106E+01  0.00000000000E+00 0. -1.
         13   -1    0    0    0    0 -0.00000000000E+00 -0.00000000000E+00 -0.10000000000E+04  0.10000000000E+04  0.00000000000E+00 0.  1.
    9000005    2    1    2  501    0  0.14482470013E+02  0.52947704745E+02 -0.55920385586E+03  0.56197462876E+03  0.96607238483E+01 0.  0.
         13    1    3    3    0    0  0.10582434500E+02  0.23685327870E+02 -0.28946557376E+03  0.29062570613E+03  0.00000000000E+00 0.  1.
          1    1    3    3  501    0  0.39000355129E+01  0.29262376875E+02 -0.26973828210E+03  0.27134892263E+03  0.00000000000E+00 0.  1.
         -1    1    1    2    0  502 -0.14482470013E+02 -0.52947704745E+02 -0.43769641563E+03  0.44112509975E+03  0.00000000000E+00 0. -1.
<mgrwt>
<rscale>  1 0.30000000E+03</rscale>
<asrwt>0</asrwt>
<pdfrwt beam="1">  1       21 0.11271764E-01 0.30000000E+03</pdfrwt>
<pdfrwt beam="2">0</pdfrwt>
<totfact> 0.69401565E+03</totfact>
</mgrwt>
</event>
<event>
 6    1  0.1280499E-001  0.3000000E+03  0.7818608E-02  0.1093470E+00
         21   -1    0    0  501  502  0.00000000000E+00  0.00000000000E+00  0.17250146261E+01  0.17250146261E+01  0.00000000000E+00 0. -1.
         13   -1    0    0    0    0 -0.00000000000E+00 -0.00000000000E+00 -0.10000000000E+04  0.10000000000E+04  0.00000000000E+00 0.  1.
    9000005    2    1    2  501    0 -0.30729696033E+02 -0.82599104166E+01 -0.82044763881E+03  0.82107312417E+03  0.37692004095E+01 0.  0.
         13    1    3    3    0    0 -0.18000878037E+02 -0.67129645441E+01 -0.48270081185E+03  0.48308298383E+03  0.00000000000E+00 0.  1.
          1    1    3    3  501    0 -0.12728817995E+02 -0.15469458725E+01 -0.33774682696E+03  0.33799014034E+03  0.00000000000E+00 0.  1.
         -3    1    1    2    0  502  0.30729696033E+02  0.82599104166E+01 -0.17782734657E+03  0.18065189046E+03  0.00000000000E+00 0. -1.
<mgrwt>
<rscale>  1 0.30000000E+03</rscale>
<asrwt>0</asrwt>
<pdfrwt beam="1">  1       21 0.62727937E-02 0.30000000E+03</pdfrwt>
<pdfrwt beam="2">0</pdfrwt>
<totfact> 0.19514828E+04</totfact>
</mgrwt>
</event>
<event>
 6    1  0.1280499E-001  0.3000000E+03  0.7818608E-02  0.1093470E+00
         21   -1    0    0  501  502  0.00000000000E+00  0.00000000000E+00  0.12680580008E+01  0.12680580008E+01  0.00000000000E+00 0. -1.
         13   -1    0    0    0    0 -0.00000000000E+00 -0.00000000000E+00 -0.10000000000E+04  0.10000000000E+04  0.00000000000E+00 0.  1.
    9000005    2    1    2  501    0  0.12104748335E+02  0.29096975692E+02 -0.73128905630E+03  0.73197480514E+03  0.32050842583E+01 0.  0.
         13    1    3    3    0    0  0.14056243446E+01  0.42462049566E+01 -0.13097344690E+03  0.13104979905E+03  0.00000000000E+00 0.  1.
          3    1    3    3  501    0  0.10699123990E+02  0.24850770735E+02 -0.60031560940E+03  0.60092500609E+03  0.00000000000E+00 0.  1.
         -1    1    1    2    0  502 -0.12104748335E+02 -0.29096975692E+02 -0.26744288570E+03  0.26929325286E+03  0.00000000000E+00 0. -1.
<mgrwt>
<rscale>  1 0.30000000E+03</rscale>
<asrwt>0</asrwt>
<pdfrwt beam="1">  1       21 0.46111297E-02 0.30000000E+03</pdfrwt>
<pdfrwt beam="2">0</pdfrwt>
<totfact> 0.33059767E+04</totfact>
</mgrwt>
</event>
<event>
 6    1  0.1280499E-001  0.3000000E+03  0.7818608E-02  0.1093470E+00
         21   -1    0    0  501  502  0.00000000000E+00  0.00000000000E+00  0.40405317478E+02  0.40405317478E+02  0.00000000000E+00 0. -1.
         13   -1    0    0    0    0 -0.00000000000E+00 -0.00000000000E+00 -0.10000000000E+04  0.10000000000E+04  0.00000000000E+00 0.  1.
    9000005    2    1    2  501    0  0.10952296972E+03  0.70099777653E+02 -0.87647640660E+03  0.88607480360E+03  0.28994000497E+01 0.  0.
         13    1    3    3    0    0  0.42158713909E+02  0.27781402097E+02 -0.33186224439E+03  0.33568096865E+03  0.00000000000E+00 0.  1.
          1    1    3    3  501    0  0.67364255809E+02  0.42318375557E+02 -0.54461416221E+03  0.55039383495E+03  0.00000000000E+00 0.  1.
         -1    1    1    2    0  502 -0.10952296972E+03 -0.70099777653E+02 -0.83118275923E+02  0.15433051388E+03  0.00000000000E+00 0. -1.
<mgrwt>
<rscale>  1 0.30000000E+03</rscale>
<asrwt>0</asrwt>
<pdfrwt beam="1">  1       21 0.14692874E+00 0.30000000E+03</pdfrwt>
<pdfrwt beam="2">0</pdfrwt>
<totfact> 0.25459725E+01</totfact>
</mgrwt>
</event>
<event>
 6    1  0.1280499E-001  0.3000000E+03  0.7818608E-02  0.1093470E+00
         21   -1    0    0  501  502  0.00000000000E+00  0.00000000000E+00  0.37960201621E+01  0.37960201621E+01  0.00000000000E+00 0. -1.
         13   -1    0    0    0    0 -0.00000000000E+00 -0.00000000000E+00 -0.10000000000E+04  0.10000000000E+04  0.00000000000E+00 0.  1.
    9000005    2    1    2  501    0  0.13850687085E+02 -0.27773940085E+02 -0.67570258290E+02  0.74643814075E+02  0.65365047035E+01 0.  0.
         13    1    3    3    0    0  0.65980480304E+01 -0.10683510385E+02 -0.34566141526E+02  0.36776212040E+02  0.00000000000E+00 0.  1.
          3    1    3    3  501    0  0.72526390541E+01 -0.17090429699E+02 -0.33004116764E+02  0.37867602036E+02  0.00000000000E+00 0.  1.
         -1    1    1    2    0  502 -0.13850687085E+02  0.27773940085E+02 -0.92863372155E+03  0.92915220609E+03  0.00000000000E+00 0. -1.
<mgrwt>
<rscale>  1 0.30000000E+03</rscale>
<asrwt>0</asrwt>
<pdfrwt beam="1">  1       21 0.13803739E-01 0.30000000E+03</pdfrwt>
<pdfrwt beam="2">0</pdfrwt>
<totfact> 0.47994924E+03</totfact>
</mgrwt>
</event>
<event>
 6    1  0.1280499E-001  0.3000000E+03  0.7818608E-02  0.1093470E+00
         21   -1    0    0  501  502  0.00000000000E+00  0.00000000000E+00  0.46068676830E+01  0.46068676830E+01  0.00000000000E+00 0. -1.
         13   -1    0    0    0    0 -0.00000000000E+00 -0.00000000000E+00 -0.10000000000E+04  0.10000000000E+04  0.00000000000E+00 0.  1.
    9000005    2    1    2  501    0  0.37858534290E+02 -0.47584070491E+02 -0.72052705784E+03  0.72309510722E+03  0.31273976792E+01 0.  0.
         13    1    3    3    0    0  0.28659229619E+01 -0.24206733274E+01 -0.42754030114E+02  0.42918297552E+02  0.00000000000E+00 0.  1.
          3    1    3    3  501    0  0.34992611328E+02 -0.45163397163E+02 -0.67777302773E+03  0.68017680967E+03  0.00000000000E+00 0.  1.
         -3    1    1    2    0  502 -0.37858534290E+02  0.47584070491E+02 -0.27486607447E+03  0.28151176046E+03  0.00000000000E+00 0. -1.
<mgrwt>
<rscale>  1 0.30000000E+03</rscale>
<asrwt>0</asrwt>
<pdfrwt beam="1">  1       21 0.16752281E-01 0.30000000E+03</pdfrwt>
<pdfrwt beam="2">0</pdfrwt>
<totfact> 0.33523746E+03</totfact>
</mgrwt>
</event>
<event>
 6    1  0.1280499E-001  0.3000000E+03  0.7818608E-02  0.1093470E+00
         21   -1    0    0  501  502  0.00000000000E+00  0.00000000000E+00  0.20015794975E+01  0.20015794975E+01  0.00000000000E+00 0. -1.
         13   -1    0    0    0    0 -0.00000000000E+00 -0.00000000000E+00 -0.10000000000E+04  0.10000000000E+04  0.00000000000E+00 0.  1.
    9000005    2    1    2  501    0 -0.31361903238E+02  0.11990291434E+02 -0.82985414492E+03  0.83053778310E+03  0.27876970435E+01 0.  0.
         13    1    3    3    0    0 -0.20493903919E+02  0.92174263096E+01 -0.54760164129E+03  0.54806251339E+03  0.00000000000E+00 0.  1.
          1    1    3    3  501    0 -0.10867999319E+02  0.27728651245E+01 -0.28225250363E+03  0.28247526971E+03  0.00000000000E+00 0.  1.
         -3    1    1    2    0  502  0.31361903238E+02 -0.11990291434E+02 -0.16814427558E+03  0.17146379640E+03  0.00000000000E+00 0. -1.
<mgrwt>
<rscale>  1 0.30000000E+03</rscale>
<asrwt>0</asrwt>
<pdfrwt beam="1">  1       21 0.72784862E-02 0.30000000E+03</pdfrwt>
<pdfrwt beam="2">0</pdfrwt>
<totfact> 0.15074437E+04</totfact>
</mgrwt>
</event>
<event>
 6    1  0.1280499E-001  0.3000000E+03  0.7818608E-02  0.1093470E+00
         21   -1    0    0  501  502  0.00000000000E+00  0.00000000000E+00  0.17229230710E+01  0.17229230710E+01  0.00000000000E+00 0. -1.
         13   -1    0    0    0    0 -0.00000000000E+00 -0.00000000000E+00 -0.10000000000E+04  0.10000000000E+04  0.00000000000E+00 0.  1.
    9000005    2    1    2  501    0  0.27520592144E+02 -0.16508357549E+02 -0.81560206900E+03  0.81625037151E+03  0.52938805625E+01 0.  0.
         13    1    3    3    0    0  0.31443072115E+01 -0.34716240832E+01 -0.15359236156E+03  0.15366376401E+03  0.00000000000E+00 0.  1.
          1    1    3    3  501    0  0.24376284932E+02 -0.13036733466E+02 -0.66200970744E+03  0.66258660750E+03  0.00000000000E+00 0.  1.
         -3    1    1    2    0  502 -0.27520592144E+02  0.16508357549E+02 -0.18267500793E+03  0.18547255156E+03  0.00000000000E+00 0. -1.
<mgrwt>
<rscale>  1 0.30000000E+03</rscale>
<asrwt>0</asrwt>
<pdfrwt beam="1">  1       21 0.62651880E-02 0.30000000E+03</pdfrwt>
<pdfrwt beam="2">0</pdfrwt>
<totfact> 0.19555783E+04</totfact>
</mgrwt>
</event>
<event>
 6    1  0.1280499E-001  0.3000000E+03  0.7818608E-02  0.1093470E+00
         21   -1    0    0  501  502  0.00000000000E+00  0.00000000000E+00  0.57628182319E+01  0.57628182319E+01  0.00000000000E+00 0. -1.
         13   -1    0    0    0    0 -0.00000000000E+00 -0.00000000000E+00 -0.10000000000E+04  0.10000000000E+04  0.00000000000E+00 0.  1.
    9000005    2    1    2  501    0 -0.25958745768E+02 -0.45281091851E+02 -0.86218332655E+03  0.86376826046E+03  0.33593782567E+01 0.  0.
         13    1    3    3    0    0 -0.11314209338E+02 -0.16716553744E+02 -0.32222692694E+03  0.32285855564E+03  0.00000000000E+00 0.  1.
          1    1    3    3  501    0 -0.14644536430E+02 -0.28564538108E+02 -0.53995639961E+03  0.54090970482E+03  0.00000000000E+00 0.  1.
         -3    1    1    2    0  502  0.25958745768E+02  0.45281091851E+02 -0.13205385521E+03  0.14199455778E+03  0.00000000000E+00 0. -1.
<mgrwt>
<rscale>  1 0.30000000E+03</rscale>
<asrwt>0</asrwt>
<pdfrwt beam="1">  1       21 0.20955747E-01 0.30000000E+03</pdfrwt>
<pdfrwt beam="2">0</pdfrwt>
<totfact> 0.21942770E+03</totfact>
</mgrwt>
</event>
<event>
 6    1  0.1280499E-001  0.3000000E+03  0.7818608E-02  0.1093470E+00
         21   -1    0    0  501  502  0.00000000000E+00  0.00000000000E+00  0.12702173538E+01  0.12702173538E+01  0.00000000000E+00 0. -1.
         13   -1    0    0    0    0 -0.00000000000E+00 -0.00000000000E+00 -0.10000000000E+04  0.10000000000E+04  0.00000000000E+00 0.  1.
    9000005    2    1    2  501    0  0.27918835338E+02  0.22019484392E+02 -0.50469322804E+03  0.50595573508E+03  0.34106267601E+01 0.  0.
         13    1    3    3    0    0  0.27945168920E+02  0.21920988171E+02 -0.49933987917E+03  0.50060141541E+03  0.00000000000E+00 0.  1.
          1    1    3    3  501    0 -0.26333581621E-01  0.98496221202E-01 -0.53533488729E+01  0.53543196690E+01  0.00000000000E+00 0.  1.
         -1    1    1    2    0  502 -0.27918835338E+02 -0.22019484392E+02 -0.49403655461E+03  0.49531448227E+03  0.00000000000E+00 0. -1.
<mgrwt>
<rscale>  1 0.30000000E+03</rscale>
<asrwt>0</asrwt>
<pdfrwt beam="1">  1       21 0.46189819E-02 0.30000000E+03</pdfrwt>
<pdfrwt beam="2">0</pdfrwt>
<totfact> 0.32964329E+04</totfact>
</mgrwt>
</event>
<event>
 6    1  0.1280499E-001  0.3000000E+03  0.7818608E-02  0.1093470E+00
         21   -1    0    0  501  502  0.00000000000E+00  0.00000000000E+00  0.33540610431E+01  0.33540610431E+01  0.00000000000E+00 0. -1.
         13   -1    0    0    0    0 -0.00000000000E+00 -0.00000000000E+00 -0.10000000000E+04  0.10000000000E+04  0.00000000000E+00 0.  1.
    9000005    2    1    2  501    0  0.33310511658E+02 -0.34042064175E+02 -0.78344032923E+03  0.78489334526E+03  0.32189523162E+01 0.  0.
         13    1    3    3    0    0  0.11110887227E+02 -0.95083080005E+01 -0.22829051907E+03  0.22875843336E+03  0.00000000000E+00 0.  1.
          1    1    3    3  501    0  0.22199624431E+02 -0.24533756174E+02 -0.55514981016E+03  0.55613491190E+03  0.00000000000E+00 0.  1.
         -1    1    1    2    0  502 -0.33310511658E+02  0.34042064175E+02 -0.21320560973E+03  0.21846071578E+03  0.00000000000E+00 0. -1.
<mgrwt>
<rscale>  1 0.30000000E+03</rscale>
<asrwt>0</asrwt>
<pdfrwt beam="1">  1       21 0.12196611E-01 0.30000000E+03</pdfrwt>
<pdfrwt beam="2">0</pdfrwt>
<totfact> 0.60168327E+03</totfact>
</mgrwt>
</event>
<event>
 6    1  0.1280499E-001  0.3000000E+03  0.7818608E-02  0.1093470E+00
         21   -1    0    0  501  502  0.00000000000E+00  0.00000000000E+00  0.16629123343E+01  0.16629123343E+01  0.00000000000E+00 0. -1.
         13   -1    0    0    0    0 -0.00000000000E+00 -0.00000000000E+00 -0.10000000000E+04  0.10000000000E+04  0.00000000000E+00 0.  1.
    9000005    2    1    2  501    0 -0.79143991736E+01  0.31571883236E+02 -0.80021239439E+03  0.80088239632E+03  0.36489826966E+01 0.  0.
         13    1    3    3    0    0  0.24564427580E+00  0.12448685503E+01 -0.43660356802E+02  0.43678791134E+02  0.00000000000E+00 0.  1.
          3    1    3    3  501    0 -0.81600434494E+01  0.30327014686E+02 -0.75655203758E+03  0.75720360518E+03  0.00000000000E+00 0.  1.
         -3    1    1    2    0  502  0.79143991736E+01 -0.31571883236E+02 -0.19812469328E+03  0.20078051602E+03  0.00000000000E+00 0. -1.
<mgrwt>
<rscale>  1 0.30000000E+03</rscale>
<asrwt>0</asrwt>
<pdfrwt beam="1">  1       21 0.60469667E-02 0.30000000E+03</pdfrwt>
<pdfrwt beam="2">0</pdfrwt>
<totfact> 0.20790156E+04</totfact>
</mgrwt>
</event>
<event>
 6    1  0.1280499E-001  0.3000000E+03  0.7818608E-02  0.1093470E+00
         21   -1    0    0  501  502  0.00000000000E+00  0.00000000000E+00  0.12397490500E+01  0.12397490500E+01  0.00000000000E+00 0. -1.
         13   -1    0    0    0    0 -0.00000000000E+00 -0.00000000000E+00 -0.10000000000E+04  0.10000000000E+04  0.00000000000E+00 0.  1.
    9000005    2    1    2  501    0 -0.11672818960E+02 -0.29849596328E+02 -0.69655557629E+03  0.69734022867E+03  0.81529474066E+01 0.  0.
         13    1    3    3    0    0 -0.10888310358E+02 -0.18452882016E+02 -0.49134878051E+03  0.49181570559E+03  0.00000000000E+00 0.  1.
          1    1    3    3  501    0 -0.78450860243E+00 -0.11396714312E+02 -0.20520679578E+03  0.20552452308E+03  0.00000000000E+00 0.  1.
         -1    1    1    2    0  502  0.11672818960E+02  0.29849596328E+02 -0.30220467466E+03  0.30389952038E+03  0.00000000000E+00 0. -1.
<mgrwt>
<rscale>  1 0.30000000E+03</rscale>
<asrwt>0</asrwt>
<pdfrwt beam="1">  1       21 0.45081879E-02 0.30000000E+03</pdfrwt>
<pdfrwt beam="2">0</pdfrwt>
<totfact> 0.34352050E+04</totfact>
</mgrwt>
</event>
<event>
 6    1  0.1280499E-001  0.3000000E+03  0.7818608E-02  0.1093470E+00
         21   -1    0    0  501  502  0.00000000000E+00  0.00000000000E+00  0.18156338126E+01  0.18156338126E+01  0.00000000000E+00 0. -1.
         13   -1    0    0    0    0 -0.00000000000E+00 -0.00000000000E+00 -0.10000000000E+04  0.10000000000E+04  0.00000000000E+00 0.  1.
    9000005    2    1    2  501    0  0.22152627069E+02  0.28521463066E+02 -0.76262841636E+03  0.76350739174E+03  0.61010702125E+01 0.  0.
         13    1    3    3    0    0  0.31367519630E+01  0.20980431423E+01 -0.11412760116E+03  0.11418997480E+03  0.00000000000E+00 0.  1.
          3    1    3    3  501    0  0.19015875106E+02  0.26423419924E+02 -0.64850081520E+03  0.64931741694E+03  0.00000000000E+00 0.  1.
         -3    1    1    2    0  502 -0.22152627069E+02 -0.28521463066E+02 -0.23555594982E+03  0.23830824207E+03  0.00000000000E+00 0. -1.
<mgrwt>
<rscale>  1 0.30000000E+03</rscale>
<asrwt>0</asrwt>
<pdfrwt beam="1">  1       21 0.66023187E-02 0.30000000E+03</pdfrwt>
<pdfrwt beam="2">0</pdfrwt>
<totfact> 0.17860242E+04</totfact>
</mgrwt>
</event>
<event>
 6    1  0.1280499E-001  0.3000000E+03  0.7818608E-02  0.1093470E+00
         21   -1    0    0  501  502  0.00000000000E+00  0.00000000000E+00  0.14845269476E+01  0.14845269476E+01  0.00000000000E+00 0. -1.
         13   -1    0    0    0    0 -0.00000000000E+00 -0.00000000000E+00 -0.10000000000E+04  0.10000000000E+04  0.00000000000E+00 0.  1.
    9000005    2    1    2  501    0  0.24611607150E+02 -0.17899642783E+02 -0.19456951478E+03  0.19696278564E+03  0.33036988374E+01 0.  0.
         13    1    3    3    0    0  0.19832098001E+02 -0.14261665483E+02 -0.14704333068E+03  0.14905853988E+03  0.00000000000E+00 0.  1.
          3    1    3    3  501    0  0.47795091499E+01 -0.36379773003E+01 -0.47526184100E+02  0.47904245758E+02  0.00000000000E+00 0.  1.
         -3    1    1    2    0  502 -0.24611607150E+02  0.17899642783E+02 -0.80394595827E+03  0.80452174131E+03  0.00000000000E+00 0. -1.
<mgrwt>
<rscale>  1 0.30000000E+03</rscale>
<asrwt>0</asrwt>
<pdfrwt beam="1">  1       21 0.53982912E-02 0.30000000E+03</pdfrwt>
<pdfrwt beam="2">0</pdfrwt>
<totfact> 0.25269583E+04</totfact>
</mgrwt>
</event>
<event>
 6    1  0.1280499E-001  0.3000000E+03  0.7818608E-02  0.1093470E+00
         21   -1    0    0  501  502  0.00000000000E+00  0.00000000000E+00  0.18031293040E+02  0.18031293040E+02  0.00000000000E+00 0. -1.
         13   -1    0    0    0    0 -0.00000000000E+00 -0.00000000000E+00 -0.10000000000E+04  0.10000000000E+04  0.00000000000E+00 0.  1.
    9000005    2    1    2  501    0 -0.77289075262E+02  0.80282895258E+01 -0.90608967109E+03  0.90942336206E+03  0.37821703571E+01 0.  0.
         13    1    3    3    0    0 -0.31982645895E+02  0.15184323799E+01 -0.37875389938E+03  0.38010486917E+03  0.00000000000E+00 0.  1.
          3    1    3    3  501    0 -0.45306429367E+02  0.65098571459E+01 -0.52733577171E+03  0.52931849289E+03  0.00000000000E+00 0.  1.
         -3    1    1    2    0  502  0.77289075262E+02 -0.80282895258E+01 -0.75879035871E+02  0.10860793098E+03  0.00000000000E+00 0. -1.
<mgrwt>
<rscale>  1 0.30000000E+03</rscale>
<asrwt>0</asrwt>
<pdfrwt beam="1">  1       21 0.65568477E-01 0.30000000E+03</pdfrwt>
<pdfrwt beam="2">0</pdfrwt>
<totfact> 0.20528123E+02</totfact>
</mgrwt>
</event>
<event>
 6    1  0.1280499E-001  0.3000000E+03  0.7818608E-02  0.1093470E+00
         21   -1    0    0  501  502  0.00000000000E+00  0.00000000000E+00  0.12359336947E+01  0.12359336947E+01  0.00000000000E+00 0. -1.
         13   -1    0    0    0    0 -0.00000000000E+00 -0.00000000000E+00 -0.10000000000E+04  0.10000000000E+04  0.00000000000E+00 0.  1.
    9000005    2    1    2  501    0  0.27172411786E+02 -0.14421692259E+02 -0.73876233419E+03  0.73942068228E+03  0.51801348438E+01 0.  0.
         13    1    3    3    0    0  0.28407522414E+01 -0.15322564978E+00 -0.91113672402E+02  0.91158075067E+02  0.00000000000E+00 0.  1.
          1    1    3    3  501    0  0.24331659545E+02 -0.14268466609E+02 -0.64764866179E+03  0.64826260721E+03  0.00000000000E+00 0.  1.
         -3    1    1    2    0  502 -0.27172411786E+02  0.14421692259E+02 -0.26000173212E+03  0.26181525142E+03  0.00000000000E+00 0. -1.
<mgrwt>
<rscale>  1 0.30000000E+03</rscale>
<asrwt>0</asrwt>
<pdfrwt beam="1">  1       21 0.44943138E-02 0.30000000E+03</pdfrwt>
<pdfrwt beam="2">0</pdfrwt>
<totfact> 0.34532196E+04</totfact>
</mgrwt>
</event>
<event>
 6    1  0.1280499E-001  0.3000000E+03  0.7818608E-02  0.1093470E+00
         21   -1    0    0  501  502  0.00000000000E+00  0.00000000000E+00  0.10704282762E+01  0.10704282762E+01  0.00000000000E+00 0. -1.
         13   -1    0    0    0    0 -0.00000000000E+00 -0.00000000000E+00 -0.10000000000E+04  0.10000000000E+04  0.00000000000E+00 0.  1.
    9000005    2    1    2  501    0 -0.51790716950E+01 -0.30949321384E+02 -0.63777023928E+03  0.63855043339E+03  0.33308556394E+01 0.  0.
         13    1    3    3    0    0 -0.15879969111E+01 -0.60120100492E+01 -0.15226668237E+03  0.15239359750E+03  0.00000000000E+00 0.  1.
          3    1    3    3  501    0 -0.35910747839E+01 -0.24937311335E+02 -0.48550355691E+03  0.48615683590E+03  0.00000000000E+00 0.  1.
         -3    1    1    2    0  502  0.51790716950E+01  0.30949321384E+02 -0.36115933244E+03  0.36251999488E+03  0.00000000000E+00 0. -1.
<mgrwt>
<rscale>  1 0.30000000E+03</rscale>
<asrwt>0</asrwt>
<pdfrwt beam="1">  1       21 0.38924747E-02 0.30000000E+03</pdfrwt>
<pdfrwt beam="2">0</pdfrwt>
<totfact> 0.44020437E+04</totfact>
</mgrwt>
</event>
<event>
 6    1  0.1280499E-001  0.3000000E+03  0.7818608E-02  0.1093470E+00
         21   -1    0    0  501  502  0.00000000000E+00  0.00000000000E+00  0.99613315555E+00  0.99613315555E+00  0.00000000000E+00 0. -1.
         13   -1    0    0    0    0 -0.00000000000E+00 -0.00000000000E+00 -0.10000000000E+04  0.10000000000E+04  0.00000000000E+00 0.  1.
    9000005    2    1    2  501    0 -0.20990262305E+02 -0.22244876228E+02 -0.61840139097E+03  0.61916675991E+03  0.34308302038E+01 0.  0.
         13    1    3    3    0    0 -0.97805833392E+01 -0.90045786733E+01 -0.24006114815E+03  0.24042898557E+03  0.00000000000E+00 0.  1.
          3    1    3    3  501    0 -0.11209678965E+02 -0.13240297555E+02 -0.37834024281E+03  0.37873777434E+03  0.00000000000E+00 0.  1.
         -1    1    1    2    0  502  0.20990262305E+02  0.22244876228E+02 -0.38060247588E+03  0.38182937325E+03  0.00000000000E+00 0. -1.
<mgrwt>
<rscale>  1 0.30000000E+03</rscale>
<asrwt>0</asrwt>
<pdfrwt beam="1">  1       21 0.36223100E-02 0.30000000E+03</pdfrwt>
<pdfrwt beam="2">0</pdfrwt>
<totfact> 0.49672956E+04</totfact>
</mgrwt>
</event>
<event>
 6    1  0.1280499E-001  0.3000000E+03  0.7818608E-02  0.1093470E+00
         21   -1    0    0  501  502  0.00000000000E+00  0.00000000000E+00  0.12858552980E+01  0.12858552980E+01  0.00000000000E+00 0. -1.
         13   -1    0    0    0    0 -0.00000000000E+00 -0.00000000000E+00 -0.10000000000E+04  0.10000000000E+04  0.00000000000E+00 0.  1.
    9000005    2    1    2  501    0 -0.28571806210E+02 -0.20731464193E+02 -0.58224765253E+03  0.58332595194E+03  0.32704136860E+01 0.  0.
         13    1    3    3    0    0 -0.28372492514E+02 -0.20050879142E+02 -0.57025579528E+03  0.57131314367E+03  0.00000000000E+00 0.  1.
          1    1    3    3  501    0 -0.19931369621E+00 -0.68058505156E+00 -0.11991857253E+02  0.12012808262E+02  0.00000000000E+00 0.  1.
         -1    1    1    2    0  502  0.28571806210E+02  0.20731464193E+02 -0.41646649217E+03  0.41795990336E+03  0.00000000000E+00 0. -1.
<mgrwt>
<rscale>  1 0.30000000E+03</rscale>
<asrwt>0</asrwt>
<pdfrwt beam="1">  1       21 0.46758473E-02 0.30000000E+03</pdfrwt>
<pdfrwt beam="2">0</pdfrwt>
<totfact> 0.32285889E+04</totfact>
</mgrwt>
</event>
<event>
 6    1  0.1280499E-001  0.3000000E+03  0.7818608E-02  0.1093470E+00
         21   -1    0    0  501  502  0.00000000000E+00  0.00000000000E+00  0.14580617419E+01  0.14580617419E+01  0.00000000000E+00 0. -1.
         13   -1    0    0    0    0 -0.00000000000E+00 -0.00000000000E+00 -0.10000000000E+04  0.10000000000E+04  0.00000000000E+00 0.  1.
    9000005    2    1    2  501    0 -0.35071816428E+02 -0.93977042923E+01 -0.65156786686E+03  0.65258938247E+03  0.37239543578E+01 0.  0.
         13    1    3    3    0    0 -0.96171590142E+00 -0.43852965303E+00 -0.33044241662E+02  0.33061142037E+02  0.00000000000E+00 0.  1.
          1    1    3    3  501    0 -0.34110100526E+02 -0.89591746393E+01 -0.61852362520E+03  0.61952824043E+03  0.00000000000E+00 0.  1.
         -1    1    1    2    0  502  0.35071816428E+02  0.93977042923E+01 -0.34697407140E+03  0.34886867927E+03  0.00000000000E+00 0. -1.
<mgrwt>
<rscale>  1 0.30000000E+03</rscale>
<asrwt>0</asrwt>
<pdfrwt beam="1">  1       21 0.53020539E-02 0.30000000E+03</pdfrwt>
<pdfrwt beam="2">0</pdfrwt>
<totfact> 0.26059590E+04</totfact>
</mgrwt>
</event>
<event>
 6    1  0.1280499E-001  0.3000000E+03  0.7818608E-02  0.1093470E+00
         21   -1    0    0  501  502  0.00000000000E+00  0.00000000000E+00  0.15382117099E+01  0.15382117099E+01  0.00000000000E+00 0. -1.
         13   -1    0    0    0    0 -0.00000000000E+00 -0.00000000000E+00 -0.10000000000E+04  0.10000000000E+04  0.00000000000E+00 0.  1.
    9000005    2    1    2  501    0  0.36419802873E+02 -0.74498962431E+01 -0.65370486664E+03  0.65478291180E+03  0.53577897410E+01 0.  0.
         13    1    3    3    0    0  0.22302517463E+02 -0.59456735196E+01 -0.36486285473E+03  0.36559219915E+03  0.00000000000E+00 0.  1.
          1    1    3    3  501    0  0.14117285410E+02 -0.15042227235E+01 -0.28884201191E+03  0.28919071264E+03  0.00000000000E+00 0.  1.
         -1    1    1    2    0  502 -0.36419802873E+02  0.74498962431E+01 -0.34475692165E+03  0.34675529991E+03  0.00000000000E+00 0. -1.
<mgrwt>
<rscale>  1 0.30000000E+03</rscale>
<asrwt>0</asrwt>
<pdfrwt beam="1">  1       21 0.55935089E-02 0.30000000E+03</pdfrwt>
<pdfrwt beam="2">0</pdfrwt>
<totfact> 0.23776360E+04</totfact>
</mgrwt>
</event>
<event>
 6    1  0.1280499E-001  0.3000000E+03  0.7818608E-02  0.1093470E+00
         21   -1    0    0  501  502  0.00000000000E+00  0.00000000000E+00  0.35695052562E+01  0.35695052562E+01  0.00000000000E+00 0. -1.
         13   -1    0    0    0    0 -0.00000000000E+00 -0.00000000000E+00 -0.10000000000E+04  0.10000000000E+04  0.00000000000E+00 0.  1.
    9000005    2    1    2  501    0 -0.17433826470E+02 -0.41314224001E+02 -0.82967157773E+03  0.83088673306E+03  0.26519558771E+01 0.  0.
         13    1    3    3    0    0 -0.26046745062E+01 -0.88918504794E+01 -0.17445666183E+03  0.17470253630E+03  0.00000000000E+00 0.  1.
          3    1    3    3  501    0 -0.14829151964E+02 -0.32422373522E+02 -0.65521491590E+03  0.65618419676E+03  0.00000000000E+00 0.  1.
         -3    1    1    2    0  502  0.17433826470E+02  0.41314224001E+02 -0.16675891702E+03  0.17268277220E+03  0.00000000000E+00 0. -1.
<mgrwt>
<rscale>  1 0.30000000E+03</rscale>
<asrwt>0</asrwt>
<pdfrwt beam="1">  1       21 0.12980046E-01 0.30000000E+03</pdfrwt>
<pdfrwt beam="2">0</pdfrwt>
<totfact> 0.53715700E+03</totfact>
</mgrwt>
</event>
<event>
 6    1  0.1280499E-001  0.3000000E+03  0.7818608E-02  0.1093470E+00
         21   -1    0    0  501  502  0.00000000000E+00  0.00000000000E+00  0.26617277070E+01  0.26617277070E+01  0.00000000000E+00 0. -1.
         13   -1    0    0    0    0 -0.00000000000E+00 -0.00000000000E+00 -0.10000000000E+04  0.10000000000E+04  0.00000000000E+00 0.  1.
    9000005    2    1    2  501    0 -0.25044633183E+02  0.18707701952E+02 -0.89733844028E+03  0.89788969820E+03  0.35244819380E+01 0.  0.
         13    1    3    3    0    0 -0.20888032469E+02  0.16078375818E+02 -0.71756965639E+03  0.71805364412E+03  0.00000000000E+00 0.  1.
          1    1    3    3  501    0 -0.41566007137E+01  0.26293261341E+01 -0.17976878389E+03  0.17983605408E+03  0.00000000000E+00 0.  1.
         -1    1    1    2    0  502  0.25044633183E+02 -0.18707701952E+02 -0.99999832016E+02  0.10477202951E+03  0.00000000000E+00 0. -1.
<mgrwt>
<rscale>  1 0.30000000E+03</rscale>
<asrwt>0</asrwt>
<pdfrwt beam="1">  1       21 0.96790303E-02 0.30000000E+03</pdfrwt>
<pdfrwt beam="2">0</pdfrwt>
<totfact> 0.91191119E+03</totfact>
</mgrwt>
</event>
<event>
 6    1  0.1280499E-001  0.3000000E+03  0.7818608E-02  0.1093470E+00
         21   -1    0    0  501  502  0.00000000000E+00  0.00000000000E+00  0.97169856835E+01  0.97169856835E+01  0.00000000000E+00 0. -1.
         13   -1    0    0    0    0 -0.00000000000E+00 -0.00000000000E+00 -0.10000000000E+04  0.10000000000E+04  0.00000000000E+00 0.  1.
    9000005    2    1    2  501    0  0.39168353480E+02  0.10391001997E+02 -0.95535092514E+03  0.95621573625E+03  0.33183201020E+01 0.  0.
         13    1    3    3    0    0  0.38751895286E+02  0.10179987407E+02 -0.94997971101E+03  0.95082427023E+03  0.00000000000E+00 0.  1.
          3    1    3    3  501    0  0.41645819432E+00  0.21101459011E+00 -0.53712141251E+01  0.53914660124E+01  0.00000000000E+00 0.  1.
         -3    1    1    2    0  502 -0.39168353480E+02 -0.10391001997E+02 -0.34932089179E+02  0.53501249437E+02  0.00000000000E+00 0. -1.
<mgrwt>
<rscale>  1 0.30000000E+03</rscale>
<asrwt>0</asrwt>
<pdfrwt beam="1">  1       21 0.35334568E-01 0.30000000E+03</pdfrwt>
<pdfrwt beam="2">0</pdfrwt>
<totfact> 0.78044915E+02</totfact>
</mgrwt>
</event>
<event>
 6    1  0.1280499E-001  0.3000000E+03  0.7818608E-02  0.1093470E+00
         21   -1    0    0  501  502  0.00000000000E+00  0.00000000000E+00  0.13747865381E+01  0.13747865381E+01  0.00000000000E+00 0. -1.
         13   -1    0    0    0    0 -0.00000000000E+00 -0.00000000000E+00 -0.10000000000E+04  0.10000000000E+04  0.00000000000E+00 0.  1.
    9000005    2    1    2  501    0  0.36866765317E+02  0.65393487631E+00 -0.54343349991E+03  0.54469209352E+03  0.31499052750E+01 0.  0.
         13    1    3    3    0    0  0.16158809317E+02 -0.12762622550E+01 -0.23780521419E+03  0.23835699248E+03  0.00000000000E+00 0.  1.
          1    1    3    3  501    0  0.20707956000E+02  0.19301971313E+01 -0.30562828572E+03  0.30633510105E+03  0.00000000000E+00 0.  1.
         -1    1    1    2    0  502 -0.36866765317E+02 -0.65393487631E+00 -0.45519171355E+03  0.45668269301E+03  0.00000000000E+00 0. -1.
<mgrwt>
<rscale>  1 0.30000000E+03</rscale>
<asrwt>0</asrwt>
<pdfrwt beam="1">  1       21 0.49992343E-02 0.30000000E+03</pdfrwt>
<pdfrwt beam="2">0</pdfrwt>
<totfact> 0.28812176E+04</totfact>
</mgrwt>
</event>
<event>
 6    1  0.1280499E-001  0.3000000E+03  0.7818608E-02  0.1093470E+00
         21   -1    0    0  501  502  0.00000000000E+00  0.00000000000E+00  0.12744376166E+01  0.12744376166E+01  0.00000000000E+00 0. -1.
         13   -1    0    0    0    0 -0.00000000000E+00 -0.00000000000E+00 -0.10000000000E+04  0.10000000000E+04  0.00000000000E+00 0.  1.
    9000005    2    1    2  501    0  0.27972960674E+02 -0.15508747392E+02 -0.72033243479E+03  0.72104998960E+03  0.33560569562E+01 0.  0.
         13    1    3    3    0    0  0.64299847690E+01 -0.47063271780E+01 -0.20361740520E+03  0.20377326105E+03  0.00000000000E+00 0.  1.
          3    1    3    3  501    0  0.21542975905E+02 -0.10802420214E+02 -0.51671502959E+03  0.51727672855E+03  0.00000000000E+00 0.  1.
         -1    1    1    2    0  502 -0.27972960674E+02  0.15508747392E+02 -0.27839312759E+03  0.28022444801E+03  0.00000000000E+00 0. -1.
<mgrwt>
<rscale>  1 0.30000000E+03</rscale>
<asrwt>0</asrwt>
<pdfrwt beam="1">  1       21 0.46343284E-02 0.30000000E+03</pdfrwt>
<pdfrwt beam="2">0</pdfrwt>
<totfact> 0.32779049E+04</totfact>
</mgrwt>
</event>
<event>
 6    1  0.1280499E-001  0.3000000E+03  0.7818608E-02  0.1093470E+00
         21   -1    0    0  501  502  0.00000000000E+00  0.00000000000E+00  0.49835592768E+01  0.49835592768E+01  0.00000000000E+00 0. -1.
         13   -1    0    0    0    0 -0.00000000000E+00 -0.00000000000E+00 -0.10000000000E+04  0.10000000000E+04  0.00000000000E+00 0.  1.
    9000005    2    1    2  501    0 -0.48864349645E+02  0.44047568669E+02 -0.67953238383E+03  0.68271332621E+03  0.23048056166E+01 0.  0.
         13    1    3    3    0    0 -0.48086274771E+02  0.43165720326E+02 -0.66419904587E+03  0.66733495470E+03  0.00000000000E+00 0.  1.
          3    1    3    3  501    0 -0.77807487448E+00  0.88184834343E+00 -0.15333337965E+02  0.15378371506E+02  0.00000000000E+00 0.  1.
         -3    1    1    2    0  502  0.48864349645E+02 -0.44047568669E+02 -0.31548405689E+03  0.32227023307E+03  0.00000000000E+00 0. -1.
<mgrwt>
<rscale>  1 0.30000000E+03</rscale>
<asrwt>0</asrwt>
<pdfrwt beam="1">  1       21 0.18122072E-01 0.30000000E+03</pdfrwt>
<pdfrwt beam="2">0</pdfrwt>
<totfact> 0.28924826E+03</totfact>
</mgrwt>
</event>
<event>
 6    1  0.1280499E-001  0.3000000E+03  0.7818608E-02  0.1093470E+00
         21   -1    0    0  501  502  0.00000000000E+00  0.00000000000E+00  0.51683744510E+01  0.51683744510E+01  0.00000000000E+00 0. -1.
         13   -1    0    0    0    0 -0.00000000000E+00 -0.00000000000E+00 -0.10000000000E+04  0.10000000000E+04  0.00000000000E+00 0.  1.
    9000005    2    1    2  501    0 -0.44758351884E+01 -0.44497195891E+02 -0.89084824352E+03  0.89197571885E+03  0.31711987399E+01 0.  0.
         13    1    3    3    0    0 -0.19808798507E+01 -0.33449352492E+02 -0.66608370692E+03  0.66692599866E+03  0.00000000000E+00 0.  1.
          1    1    3    3  501    0 -0.24949553377E+01 -0.11047843399E+02 -0.22476453660E+03  0.22504972019E+03  0.00000000000E+00 0.  1.
         -3    1    1    2    0  502  0.44758351884E+01  0.44497195891E+02 -0.10398338203E+03  0.11319265560E+03  0.00000000000E+00 0. -1.
<mgrwt>
<rscale>  1 0.30000000E+03</rscale>
<asrwt>0</asrwt>
<pdfrwt beam="1">  1       21 0.18794129E-01 0.30000000E+03</pdfrwt>
<pdfrwt beam="2">0</pdfrwt>
<totfact> 0.27002376E+03</totfact>
</mgrwt>
</event>
<event>
 6    1  0.1280499E-001  0.3000000E+03  0.7818608E-02  0.1093470E+00
         21   -1    0    0  501  502  0.00000000000E+00  0.00000000000E+00  0.10066964624E+01  0.10066964624E+01  0.00000000000E+00 0. -1.
         13   -1    0    0    0    0 -0.00000000000E+00 -0.00000000000E+00 -0.10000000000E+04  0.10000000000E+04  0.00000000000E+00 0.  1.
    9000005    2    1    2  501    0  0.31459759779E+02 -0.32605390309E+01 -0.52558862695E+03  0.52654665029E+03  0.27608967595E+01 0.  0.
         13    1    3    3    0    0  0.24808763333E+02 -0.35965465054E+01 -0.42286200786E+03  0.42360439985E+03  0.00000000000E+00 0.  1.
          1    1    3    3  501    0  0.66509964464E+01  0.33600747456E+00 -0.10272661910E+03  0.10294225044E+03  0.00000000000E+00 0.  1.
         -3    1    1    2    0  502 -0.31459759779E+02  0.32605390309E+01 -0.47340467659E+03  0.47446004617E+03  0.00000000000E+00 0. -1.
<mgrwt>
<rscale>  1 0.30000000E+03</rscale>
<asrwt>0</asrwt>
<pdfrwt beam="1">  1       21 0.36607221E-02 0.30000000E+03</pdfrwt>
<pdfrwt beam="2">0</pdfrwt>
<totfact> 0.48801690E+04</totfact>
</mgrwt>
</event>
<event>
 6    1  0.1280499E-001  0.3000000E+03  0.7818608E-02  0.1093470E+00
         21   -1    0    0  501  502  0.00000000000E+00  0.00000000000E+00  0.11781617765E+01  0.11781617765E+01  0.00000000000E+00 0. -1.
         13   -1    0    0    0    0 -0.00000000000E+00 -0.00000000000E+00 -0.10000000000E+04  0.10000000000E+04  0.00000000000E+00 0.  1.
    9000005    2    1    2  501    0  0.26417551479E+02  0.20893977784E+02 -0.41130784325E+03  0.41269949639E+03  0.35052905748E+01 0.  0.
         13    1    3    3    0    0  0.22306060604E+02  0.15898275792E+02 -0.33117444229E+03  0.33230532157E+03  0.00000000000E+00 0.  1.
          3    1    3    3  501    0  0.41114908743E+01  0.49957019921E+01 -0.80133400959E+02  0.80394174820E+02  0.00000000000E+00 0.  1.
         -1    1    1    2    0  502 -0.26417551479E+02 -0.20893977784E+02 -0.58751399497E+03  0.58847866539E+03  0.00000000000E+00 0. -1.
<mgrwt>
<rscale>  1 0.30000000E+03</rscale>
<asrwt>0</asrwt>
<pdfrwt beam="1">  1       21 0.42842337E-02 0.30000000E+03</pdfrwt>
<pdfrwt beam="2">0</pdfrwt>
<totfact> 0.37448639E+04</totfact>
</mgrwt>
</event>
<event>
 6    1  0.1280499E-001  0.3000000E+03  0.7818608E-02  0.1093470E+00
         21   -1    0    0  501  502  0.00000000000E+00  0.00000000000E+00  0.17528802386E+01  0.17528802386E+01  0.00000000000E+00 0. -1.
         13   -1    0    0    0    0 -0.00000000000E+00 -0.00000000000E+00 -0.10000000000E+04  0.10000000000E+04  0.00000000000E+00 0.  1.
    9000005    2    1    2  501    0  0.32664047163E+02 -0.20638226540E+02 -0.69048016491E+03  0.69157007144E+03  0.36645892116E+01 0.  0.
         13    1    3    3    0    0  0.30349815041E+02 -0.18655097150E+02 -0.64986516486E+03  0.65084088410E+03  0.00000000000E+00 0.  1.
          3    1    3    3  501    0  0.23142321226E+01 -0.19831293905E+01 -0.40615000050E+02  0.40729187343E+02  0.00000000000E+00 0.  1.
         -3    1    1    2    0  502 -0.32664047163E+02  0.20638226540E+02 -0.30776695485E+03  0.31018280879E+03  0.00000000000E+00 0. -1.
<mgrwt>
<rscale>  1 0.30000000E+03</rscale>
<asrwt>0</asrwt>
<pdfrwt beam="1">  1       21 0.63741234E-02 0.30000000E+03</pdfrwt>
<pdfrwt beam="2">0</pdfrwt>
<totfact> 0.18981628E+04</totfact>
</mgrwt>
</event>
<event>
 6    1  0.1280499E-001  0.3000000E+03  0.7818608E-02  0.1093470E+00
         21   -1    0    0  501  502  0.00000000000E+00  0.00000000000E+00  0.25502373275E+01  0.25502373275E+01  0.00000000000E+00 0. -1.
         13   -1    0    0    0    0 -0.00000000000E+00 -0.00000000000E+00 -0.10000000000E+04  0.10000000000E+04  0.00000000000E+00 0.  1.
    9000005    2    1    2  501    0 -0.21111580165E+02  0.24745365115E+02 -0.88200720664E+03  0.88261268835E+03  0.32269424669E+01 0.  0.
         13    1    3    3    0    0 -0.46318625417E+01  0.49558739966E+01 -0.22074861270E+03  0.22085281263E+03  0.00000000000E+00 0.  1.
          1    1    3    3  501    0 -0.16479717623E+02  0.19789491118E+02 -0.66125859394E+03  0.66175987572E+03  0.00000000000E+00 0.  1.
         -1    1    1    2    0  502  0.21111580165E+02 -0.24745365115E+02 -0.11544255603E+03  0.11993754898E+03  0.00000000000E+00 0. -1.
<mgrwt>
<rscale>  1 0.30000000E+03</rscale>
<asrwt>0</asrwt>
<pdfrwt beam="1">  1       21 0.92736098E-02 0.30000000E+03</pdfrwt>
<pdfrwt beam="2">0</pdfrwt>
<totfact> 0.98410612E+03</totfact>
</mgrwt>
</event>
<event>
 6    1  0.1280499E-001  0.3000000E+03  0.7818608E-02  0.1093470E+00
         21   -1    0    0  501  502  0.00000000000E+00  0.00000000000E+00  0.22425149461E+01  0.22425149461E+01  0.00000000000E+00 0. -1.
         13   -1    0    0    0    0 -0.00000000000E+00 -0.00000000000E+00 -0.10000000000E+04  0.10000000000E+04  0.00000000000E+00 0.  1.
    9000005    2    1    2  501    0 -0.28394554371E+02  0.35603749681E+02 -0.36368170019E+03  0.36653347878E+03  0.29213534533E+01 0.  0.
         13    1    3    3    0    0 -0.22883907109E+02  0.30004447495E+02 -0.29484059334E+03  0.29724554758E+03  0.00000000000E+00 0.  1.
          1    1    3    3  501    0 -0.55106472616E+01  0.55993021865E+01 -0.68841106849E+02  0.69287931203E+02  0.00000000000E+00 0.  1.
         -3    1    1    2    0  502  0.28394554371E+02 -0.35603749681E+02 -0.63407578486E+03  0.63570903616E+03  0.00000000000E+00 0. -1.
<mgrwt>
<rscale>  1 0.30000000E+03</rscale>
<asrwt>0</asrwt>
<pdfrwt beam="1">  1       21 0.81546170E-02 0.30000000E+03</pdfrwt>
<pdfrwt beam="2">0</pdfrwt>
<totfact> 0.12351275E+04</totfact>
</mgrwt>
</event>
<event>
 6    1  0.1280499E-001  0.3000000E+03  0.7818608E-02  0.1093470E+00
         21   -1    0    0  501  502  0.00000000000E+00  0.00000000000E+00  0.15230774993E+01  0.15230774993E+01  0.00000000000E+00 0. -1.
         13   -1    0    0    0    0 -0.00000000000E+00 -0.00000000000E+00 -0.10000000000E+04  0.10000000000E+04  0.00000000000E+00 0.  1.
    9000005    2    1    2  501    0 -0.31681515594E+02  0.20842945686E+02 -0.61454022718E+03  0.61571803239E+03  0.32951141402E+01 0.  0.
         13    1    3    3    0    0 -0.29470759447E+02  0.19827085627E+02 -0.56181923538E+03  0.56294093139E+03  0.00000000000E+00 0.  1.
          3    1    3    3  501    0 -0.22107561467E+01  0.10158600590E+01 -0.52720991796E+02  0.52777101003E+02  0.00000000000E+00 0.  1.
         -3    1    1    2    0  502  0.31681515594E+02 -0.20842945686E+02 -0.38393669532E+03  0.38580504511E+03  0.00000000000E+00 0. -1.
<mgrwt>
<rscale>  1 0.30000000E+03</rscale>
<asrwt>0</asrwt>
<pdfrwt beam="1">  1       21 0.55384753E-02 0.30000000E+03</pdfrwt>
<pdfrwt beam="2">0</pdfrwt>
<totfact> 0.24183270E+04</totfact>
</mgrwt>
</event>
<event>
 6    1  0.1280499E-001  0.3000000E+03  0.7818608E-02  0.1093470E+00
         21   -1    0    0  501  502  0.00000000000E+00  0.00000000000E+00  0.21146359199E+01  0.21146359199E+01  0.00000000000E+00 0. -1.
         13   -1    0    0    0    0 -0.00000000000E+00 -0.00000000000E+00 -0.10000000000E+04  0.10000000000E+04  0.00000000000E+00 0.  1.
    9000005    2    1    2  501    0 -0.24533593719E+02 -0.22582132323E+02 -0.84371111921E+03  0.84437577672E+03  0.31858607234E+01 0.  0.
         13    1    3    3    0    0 -0.19827888646E+02 -0.17860887745E+02 -0.64154321283E+03  0.64209800685E+03  0.00000000000E+00 0.  1.
          1    1    3    3  501    0 -0.47057050730E+01 -0.47212445787E+01 -0.20216790638E+03  0.20227776987E+03  0.00000000000E+00 0.  1.
         -1    1    1    2    0  502  0.24533593719E+02  0.22582132323E+02 -0.15417424487E+03  0.15773885920E+03  0.00000000000E+00 0. -1.
<mgrwt>
<rscale>  1 0.30000000E+03</rscale>
<asrwt>0</asrwt>
<pdfrwt beam="1">  1       21 0.76896014E-02 0.30000000E+03</pdfrwt>
<pdfrwt beam="2">0</pdfrwt>
<totfact> 0.13692325E+04</totfact>
</mgrwt>
</event>
<event>
 6    1  0.1280499E-001  0.3000000E+03  0.7818608E-02  0.1093470E+00
         21   -1    0    0  501  502  0.00000000000E+00  0.00000000000E+00  0.27419699828E+01  0.27419699828E+01  0.00000000000E+00 0. -1.
         13   -1    0    0    0    0 -0.00000000000E+00 -0.00000000000E+00 -0.10000000000E+04  0.10000000000E+04  0.00000000000E+00 0.  1.
    9000005    2    1    2  501    0  0.26973239389E+02 -0.36468912663E+02 -0.74807389064E+03  0.74946292909E+03  0.47538407617E+01 0.  0.
         13    1    3    3    0    0  0.12736071483E+02 -0.13356543394E+02 -0.30946261087E+03  0.31001243894E+03  0.00000000000E+00 0.  1.
          1    1    3    3  501    0  0.14237167907E+02 -0.23112369270E+02 -0.43861127976E+03  0.43945049016E+03  0.00000000000E+00 0.  1.
         -3    1    1    2    0  502 -0.26973239389E+02  0.36468912663E+02 -0.24918413938E+03  0.25327904089E+03  0.00000000000E+00 0. -1.
<mgrwt>
<rscale>  1 0.30000000E+03</rscale>
<asrwt>0</asrwt>
<pdfrwt beam="1">  1       21 0.99708210E-02 0.30000000E+03</pdfrwt>
<pdfrwt beam="2">0</pdfrwt>
<totfact> 0.86482323E+03</totfact>
</mgrwt>
</event>
<event>
 6    1  0.1280499E-001  0.3000000E+03  0.7818608E-02  0.1093470E+00
         21   -1    0    0  501  502  0.00000000000E+00  0.00000000000E+00  0.25701756962E+01  0.25701756962E+01  0.00000000000E+00 0. -1.
         13   -1    0    0    0    0 -0.00000000000E+00 -0.00000000000E+00 -0.10000000000E+04  0.10000000000E+04  0.00000000000E+00 0.  1.
    9000005    2    1    2  501    0  0.30726564395E+02  0.10965985607E+02 -0.88227134413E+03  0.88287953214E+03  0.30280343281E+01 0.  0.
         13    1    3    3    0    0  0.14370998366E+02  0.66503879157E+01 -0.41350246874E+03  0.41380556413E+03  0.00000000000E+00 0.  1.
          1    1    3    3  501    0  0.16355566030E+02  0.43155976917E+01 -0.46876887539E+03  0.46907396800E+03  0.00000000000E+00 0.  1.
         -1    1    1    2    0  502 -0.30726564395E+02 -0.10965985607E+02 -0.11515848017E+03  0.11969064356E+03  0.00000000000E+00 0. -1.
<mgrwt>
<rscale>  1 0.30000000E+03</rscale>
<asrwt>0</asrwt>
<pdfrwt beam="1">  1       21 0.93461131E-02 0.30000000E+03</pdfrwt>
<pdfrwt beam="2">0</pdfrwt>
<totfact> 0.97057710E+03</totfact>
</mgrwt>
</event>
<event>
 6    1  0.1280499E-001  0.3000000E+03  0.7818608E-02  0.1093470E+00
         21   -1    0    0  501  502  0.00000000000E+00  0.00000000000E+00  0.12927879057E+01  0.12927879057E+01  0.00000000000E+00 0. -1.
         13   -1    0    0    0    0 -0.00000000000E+00 -0.00000000000E+00 -0.10000000000E+04  0.10000000000E+04  0.00000000000E+00 0.  1.
    9000005    2    1    2  501    0  0.34973912320E+02 -0.62951197978E+01 -0.56942261529E+03  0.57053987946E+03  0.32918354437E+01 0.  0.
         13    1    3    3    0    0  0.34607126953E+02 -0.64168409108E+01 -0.56641837688E+03  0.56751088690E+03  0.00000000000E+00 0.  1.
          3    1    3    3  501    0  0.36678536728E+00  0.12172111294E+00 -0.30042384113E+01  0.30289925663E+01  0.00000000000E+00 0.  1.
         -1    1    1    2    0  502 -0.34973912320E+02  0.62951197978E+01 -0.42928459681E+03  0.43075290844E+03  0.00000000000E+00 0. -1.
<mgrwt>
<rscale>  1 0.30000000E+03</rscale>
<asrwt>0</asrwt>
<pdfrwt beam="1">  1       21 0.47010568E-02 0.30000000E+03</pdfrwt>
<pdfrwt beam="2">0</pdfrwt>
<totfact> 0.31992101E+04</totfact>
</mgrwt>
</event>
<event>
 6    1  0.1280499E-001  0.3000000E+03  0.7818608E-02  0.1093470E+00
         21   -1    0    0  501  502  0.00000000000E+00  0.00000000000E+00  0.18274536903E+01  0.18274536903E+01  0.00000000000E+00 0. -1.
         13   -1    0    0    0    0 -0.00000000000E+00 -0.00000000000E+00 -0.10000000000E+04  0.10000000000E+04  0.00000000000E+00 0.  1.
    9000005    2    1    2  501    0 -0.30785968531E+02 -0.29067072407E+02 -0.56315401639E+03  0.56475332733E+03  0.33472379318E+01 0.  0.
         13    1    3    3    0    0 -0.37335435117E+01 -0.22631509517E+01 -0.63885378083E+02  0.64034387107E+02  0.00000000000E+00 0.  1.
          3    1    3    3  501    0 -0.27052425020E+02 -0.26803921455E+02 -0.49926863830E+03  0.50071894022E+03  0.00000000000E+00 0.  1.
         -1    1    1    2    0  502  0.30785968531E+02  0.29067072407E+02 -0.43501852992E+03  0.43707412636E+03  0.00000000000E+00 0. -1.
<mgrwt>
<rscale>  1 0.30000000E+03</rscale>
<asrwt>0</asrwt>
<pdfrwt beam="1">  1       21 0.66453002E-02 0.30000000E+03</pdfrwt>
<pdfrwt beam="2">0</pdfrwt>
<totfact> 0.17660477E+04</totfact>
</mgrwt>
</event>
<event>
 6    1  0.1280499E-001  0.3000000E+03  0.7818608E-02  0.1093470E+00
         21   -1    0    0  501  502  0.00000000000E+00  0.00000000000E+00  0.11739531722E+01  0.11739531722E+01  0.00000000000E+00 0. -1.
         13   -1    0    0    0    0 -0.00000000000E+00 -0.00000000000E+00 -0.10000000000E+04  0.10000000000E+04  0.00000000000E+00 0.  1.
    9000005    2    1    2  501    0  0.14004681249E+01  0.32558076702E+02 -0.65242967428E+03  0.65324804643E+03  0.25574619209E+01 0.  0.
         13    1    3    3    0    0  0.47094858334E+00  0.83142620030E+01 -0.18988044511E+03  0.19006296899E+03  0.00000000000E+00 0.  1.
          3    1    3    3  501    0  0.92951954157E+00  0.24243814699E+02 -0.46254922917E+03  0.46318507744E+03  0.00000000000E+00 0.  1.
         -3    1    1    2    0  502 -0.14004681249E+01 -0.32558076702E+02 -0.34639637255E+03  0.34792590674E+03  0.00000000000E+00 0. -1.
<mgrwt>
<rscale>  1 0.30000000E+03</rscale>
<asrwt>0</asrwt>
<pdfrwt beam="1">  1       21 0.42689296E-02 0.30000000E+03</pdfrwt>
<pdfrwt beam="2">0</pdfrwt>
<totfact> 0.37675886E+04</totfact>
</mgrwt>
</event>
<event>
 6    1  0.1280499E-001  0.3000000E+03  0.7818608E-02  0.1093470E+00
         21   -1    0    0  501  502  0.00000000000E+00  0.00000000000E+00  0.17122933383E+01  0.17122933383E+01  0.00000000000E+00 0. -1.
         13   -1    0    0    0    0 -0.00000000000E+00 -0.00000000000E+00 -0.10000000000E+04  0.10000000000E+04  0.00000000000E+00 0.  1.
    9000005    2    1    2  501    0 -0.37546358132E+02  0.76688873622E+01 -0.31234446915E+03  0.31469943615E+03  0.28507661409E+01 0.  0.
         13    1    3    3    0    0 -0.21795422234E+02  0.34048652859E+01 -0.17156216943E+03  0.17297459790E+03  0.00000000000E+00 0.  1.
          3    1    3    3  501    0 -0.15750935898E+02  0.42640220763E+01 -0.14078229971E+03  0.14172483825E+03  0.00000000000E+00 0.  1.
         -1    1    1    2    0  502  0.37546358132E+02 -0.76688873622E+01 -0.68594323752E+03  0.68701285718E+03  0.00000000000E+00 0. -1.
<mgrwt>
<rscale>  1 0.30000000E+03</rscale>
<asrwt>0</asrwt>
<pdfrwt beam="1">  1       21 0.62265344E-02 0.30000000E+03</pdfrwt>
<pdfrwt beam="2">0</pdfrwt>
<totfact> 0.19765999E+04</totfact>
</mgrwt>
</event>
<event>
 6    1  0.1280499E-001  0.3000000E+03  0.7818608E-02  0.1093470E+00
         21   -1    0    0  501  502  0.00000000000E+00  0.00000000000E+00  0.24034655480E+01  0.24034655480E+01  0.00000000000E+00 0. -1.
         13   -1    0    0    0    0 -0.00000000000E+00 -0.00000000000E+00 -0.10000000000E+04  0.10000000000E+04  0.00000000000E+00 0.  1.
    9000005    2    1    2  501    0 -0.32991728107E+02 -0.29957076199E+02 -0.70536818239E+03  0.70679681764E+03  0.56203346716E+01 0.  0.
         13    1    3    3    0    0 -0.92267844055E+01 -0.55772361086E+01 -0.15139630287E+03  0.15177970759E+03  0.00000000000E+00 0.  1.
          1    1    3    3  501    0 -0.23764943701E+02 -0.24379840090E+02 -0.55397187951E+03  0.55501711004E+03  0.00000000000E+00 0.  1.
         -1    1    1    2    0  502  0.32991728107E+02  0.29957076199E+02 -0.29222835207E+03  0.29560664791E+03  0.00000000000E+00 0. -1.
<mgrwt>
<rscale>  1 0.30000000E+03</rscale>
<asrwt>0</asrwt>
<pdfrwt beam="1">  1       21 0.87398932E-02 0.30000000E+03</pdfrwt>
<pdfrwt beam="2">0</pdfrwt>
<totfact> 0.10930822E+04</totfact>
</mgrwt>
</event>
<event>
 6    1  0.1280499E-001  0.3000000E+03  0.7818608E-02  0.1093470E+00
         21   -1    0    0  501  502  0.00000000000E+00  0.00000000000E+00  0.11475102290E+02  0.11475102290E+02  0.00000000000E+00 0. -1.
         13   -1    0    0    0    0 -0.00000000000E+00 -0.00000000000E+00 -0.10000000000E+04  0.10000000000E+04  0.00000000000E+00 0.  1.
    9000005    2    1    2  501    0 -0.10011781348E+03  0.15538797610E+02 -0.65816233688E+03  0.66592560887E+03  0.37714786097E+01 0.  0.
         13    1    3    3    0    0 -0.77207801804E+02  0.10375882031E+02 -0.50512266950E+03  0.51109452631E+03  0.00000000000E+00 0.  1.
          3    1    3    3  501    0 -0.22910011672E+02  0.51629155788E+01 -0.15303966738E+03  0.15483108256E+03  0.00000000000E+00 0.  1.
         -3    1    1    2    0  502  0.10011781348E+03 -0.15538797610E+02 -0.33036256083E+03  0.34554949342E+03  0.00000000000E+00 0. -1.
<mgrwt>
<rscale>  1 0.30000000E+03</rscale>
<asrwt>0</asrwt>
<pdfrwt beam="1">  1       21 0.41727733E-01 0.30000000E+03</pdfrwt>
<pdfrwt beam="2">0</pdfrwt>
<totfact> 0.55276853E+02</totfact>
</mgrwt>
</event>
<event>
 6    1  0.1280499E-001  0.3000000E+03  0.7818608E-02  0.1093470E+00
         21   -1    0    0  501  502  0.00000000000E+00  0.00000000000E+00  0.27420865449E+01  0.27420865449E+01  0.00000000000E+00 0. -1.
         13   -1    0    0    0    0 -0.00000000000E+00 -0.00000000000E+00 -0.10000000000E+04  0.10000000000E+04  0.00000000000E+00 0.  1.
    9000005    2    1    2  501    0  0.31314678781E+02  0.24727130221E+02 -0.82272352543E+03  0.82370496001E+03  0.48807546414E+01 0.  0.
         13    1    3    3    0    0  0.24332908304E+02  0.21360302897E+02 -0.64398149262E+03  0.64479494090E+03  0.00000000000E+00 0.  1.
          3    1    3    3  501    0  0.69817704767E+01  0.33668273241E+01 -0.17874203281E+03  0.17891001911E+03  0.00000000000E+00 0.  1.
         -1    1    1    2    0  502 -0.31314678781E+02 -0.24727130221E+02 -0.17453438803E+03  0.17903712654E+03  0.00000000000E+00 0. -1.
<mgrwt>
<rscale>  1 0.30000000E+03</rscale>
<asrwt>0</asrwt>
<pdfrwt beam="1">  1       21 0.99712448E-02 0.30000000E+03</pdfrwt>
<pdfrwt beam="2">0</pdfrwt>
<totfact> 0.86475755E+03</totfact>
</mgrwt>
</event>
<event>
 6    1  0.1280499E-001  0.3000000E+03  0.7818608E-02  0.1093470E+00
         21   -1    0    0  501  502  0.00000000000E+00  0.00000000000E+00  0.11838491625E+01  0.11838491625E+01  0.00000000000E+00 0. -1.
         13   -1    0    0    0    0 -0.00000000000E+00 -0.00000000000E+00 -0.10000000000E+04  0.10000000000E+04  0.00000000000E+00 0.  1.
    9000005    2    1    2  501    0 -0.29625635723E+02 -0.16377639737E+02 -0.58018214059E+03  0.58118344451E+03  0.41200162043E+01 0.  0.
         13    1    3    3    0    0 -0.48160347745E+01 -0.34076666163E+01 -0.12755801681E+03  0.12769437746E+03  0.00000000000E+00 0.  1.
          3    1    3    3  501    0 -0.24809600948E+02 -0.12969973121E+02 -0.45262412378E+03  0.45348906705E+03  0.00000000000E+00 0.  1.
         -3    1    1    2    0  502  0.29625635723E+02  0.16377639737E+02 -0.41863401024E+03  0.42000040465E+03  0.00000000000E+00 0. -1.
<mgrwt>
<rscale>  1 0.30000000E+03</rscale>
<asrwt>0</asrwt>
<pdfrwt beam="1">  1       21 0.43049151E-02 0.30000000E+03</pdfrwt>
<pdfrwt beam="2">0</pdfrwt>
<totfact> 0.37144906E+04</totfact>
</mgrwt>
</event>
<event>
 6    1  0.1280499E-001  0.3000000E+03  0.7818608E-02  0.1093470E+00
         21   -1    0    0  501  502  0.00000000000E+00  0.00000000000E+00  0.11879740291E+01  0.11879740291E+01  0.00000000000E+00 0. -1.
         13   -1    0    0    0    0 -0.00000000000E+00 -0.00000000000E+00 -0.10000000000E+04  0.10000000000E+04  0.00000000000E+00 0.  1.
    9000005    2    1    2  501    0 -0.16886163783E+02 -0.26912236982E+02 -0.30929765681E+03  0.31094202054E+03  0.32386113516E+01 0.  0.
         13    1    3    3    0    0 -0.14483013431E+02 -0.21842568518E+02 -0.26420883294E+03  0.26550548559E+03  0.00000000000E+00 0.  1.
          3    1    3    3  501    0 -0.24031503519E+01 -0.50696684646E+01 -0.45088823865E+02  0.45436534942E+02  0.00000000000E+00 0.  1.
         -3    1    1    2    0  502  0.16886163783E+02  0.26912236982E+02 -0.68951436917E+03  0.69024595349E+03  0.00000000000E+00 0. -1.
<mgrwt>
<rscale>  1 0.30000000E+03</rscale>
<asrwt>0</asrwt>
<pdfrwt beam="1">  1       21 0.43199147E-02 0.30000000E+03</pdfrwt>
<pdfrwt beam="2">0</pdfrwt>
<totfact> 0.36927003E+04</totfact>
</mgrwt>
</event>
<event>
 6    1  0.1280499E-001  0.3000000E+03  0.7818608E-02  0.1093470E+00
         21   -1    0    0  501  502  0.00000000000E+00  0.00000000000E+00  0.80492892927E+01  0.80492892927E+01  0.00000000000E+00 0. -1.
         13   -1    0    0    0    0 -0.00000000000E+00 -0.00000000000E+00 -0.10000000000E+04  0.10000000000E+04  0.00000000000E+00 0.  1.
    9000005    2    1    2  501    0  0.48038272036E+02  0.67813233626E+01 -0.91990380216E+03  0.92119067453E+03  0.39486315255E+01 0.  0.
         13    1    3    3    0    0  0.22696198475E+02  0.48363533834E+01 -0.41769653910E+03  0.41834065845E+03  0.00000000000E+00 0.  1.
          1    1    3    3  501    0  0.25342073560E+02  0.19449699792E+01 -0.50220726306E+03  0.50285001608E+03  0.00000000000E+00 0.  1.
         -3    1    1    2    0  502 -0.48038272036E+02 -0.67813233626E+01 -0.72046908545E+02  0.86858614758E+02  0.00000000000E+00 0. -1.
<mgrwt>
<rscale>  1 0.30000000E+03</rscale>
<asrwt>0</asrwt>
<pdfrwt beam="1">  1       21 0.29270205E-01 0.30000000E+03</pdfrwt>
<pdfrwt beam="2">0</pdfrwt>
<totfact> 0.11420894E+03</totfact>
</mgrwt>
</event>
<event>
 6    1  0.1280499E-001  0.3000000E+03  0.7818608E-02  0.1093470E+00
         21   -1    0    0  501  502  0.00000000000E+00  0.00000000000E+00  0.20991061004E+01  0.20991061004E+01  0.00000000000E+00 0. -1.
         13   -1    0    0    0    0 -0.00000000000E+00 -0.00000000000E+00 -0.10000000000E+04  0.10000000000E+04  0.00000000000E+00 0.  1.
    9000005    2    1    2  501    0 -0.17651743106E+01  0.43401642504E+02 -0.65392123278E+03  0.65538766170E+03  0.57610779546E+01 0.  0.
         13    1    3    3    0    0 -0.51910160933E+00  0.10260898986E+02 -0.19434561570E+03  0.19461699272E+03  0.00000000000E+00 0.  1.
          3    1    3    3  501    0 -0.12460727012E+01  0.33140743518E+02 -0.45957561707E+03  0.46077066897E+03  0.00000000000E+00 0.  1.
         -1    1    1    2    0  502  0.17651743106E+01 -0.43401642504E+02 -0.34397966112E+03  0.34671144440E+03  0.00000000000E+00 0. -1.
<mgrwt>
<rscale>  1 0.30000000E+03</rscale>
<asrwt>0</asrwt>
<pdfrwt beam="1">  1       21 0.76331292E-02 0.30000000E+03</pdfrwt>
<pdfrwt beam="2">0</pdfrwt>
<totfact> 0.13870350E+04</totfact>
</mgrwt>
</event>
<event>
 6    1  0.1280499E-001  0.3000000E+03  0.7818608E-02  0.1093470E+00
         21   -1    0    0  501  502  0.00000000000E+00  0.00000000000E+00  0.26993632647E+01  0.26993632647E+01  0.00000000000E+00 0. -1.
         13   -1    0    0    0    0 -0.00000000000E+00 -0.00000000000E+00 -0.10000000000E+04  0.10000000000E+04  0.00000000000E+00 0.  1.
    9000005    2    1    2  501    0 -0.39453996646E+02 -0.11657051682E+02 -0.80434529768E+03  0.80540702288E+03  0.40755240323E+01 0.  0.
         13    1    3    3    0    0 -0.24883269140E+02 -0.55032991089E+01 -0.47891991513E+03  0.47959748591E+03  0.00000000000E+00 0.  1.
          1    1    3    3  501    0 -0.14570727506E+02 -0.61537525731E+01 -0.32542538255E+03  0.32580953697E+03  0.00000000000E+00 0.  1.
         -1    1    1    2    0  502  0.39453996646E+02  0.11657051682E+02 -0.19295533906E+03  0.19729234039E+03  0.00000000000E+00 0. -1.
<mgrwt>
<rscale>  1 0.30000000E+03</rscale>
<asrwt>0</asrwt>
<pdfrwt beam="1">  1       21 0.98158871E-02 0.30000000E+03</pdfrwt>
<pdfrwt beam="2">0</pdfrwt>
<totfact> 0.88934995E+03</totfact>
</mgrwt>
</event>
<event>
 6    1  0.1280499E-001  0.3000000E+03  0.7818608E-02  0.1093470E+00
         21   -1    0    0  501  502  0.00000000000E+00  0.00000000000E+00  0.41606422430E+01  0.41606422430E+01  0.00000000000E+00 0. -1.
         13   -1    0    0    0    0 -0.00000000000E+00 -0.00000000000E+00 -0.10000000000E+04  0.10000000000E+04  0.00000000000E+00 0.  1.
    9000005    2    1    2  501    0 -0.45117334342E+02  0.12385435869E+02 -0.84337837736E+03  0.84468235713E+03  0.34963072794E+01 0.  0.
         13    1    3    3    0    0 -0.42684727490E+02  0.11857854931E+02 -0.78241830194E+03  0.78367148340E+03  0.00000000000E+00 0.  1.
          3    1    3    3  501    0 -0.24326068521E+01  0.52758093756E+00 -0.60960075415E+02  0.61010873722E+02  0.00000000000E+00 0.  1.
         -1    1    1    2    0  502  0.45117334342E+02 -0.12385435869E+02 -0.15246098040E+03  0.15947828512E+03  0.00000000000E+00 0. -1.
<mgrwt>
<rscale>  1 0.30000000E+03</rscale>
<asrwt>0</asrwt>
<pdfrwt beam="1">  1       21 0.15129640E-01 0.30000000E+03</pdfrwt>
<pdfrwt beam="2">0</pdfrwt>
<totfact> 0.40529304E+03</totfact>
</mgrwt>
</event>
<event>
 6    1  0.1280499E-001  0.3000000E+03  0.7818608E-02  0.1093470E+00
         21   -1    0    0  501  502  0.00000000000E+00  0.00000000000E+00  0.34888766234E+01  0.34888766234E+01  0.00000000000E+00 0. -1.
         13   -1    0    0    0    0 -0.00000000000E+00 -0.00000000000E+00 -0.10000000000E+04  0.10000000000E+04  0.00000000000E+00 0.  1.
    9000005    2    1    2  501    0 -0.79870667362E+01 -0.36214879568E+02 -0.88867395942E+03  0.88945307230E+03  0.31703215135E+01 0.  0.
         13    1    3    3    0    0 -0.21582718072E+01 -0.76848425852E+01 -0.22204462663E+03  0.22218805359E+03  0.00000000000E+00 0.  1.
          3    1    3    3  501    0 -0.58287949290E+01 -0.28530036983E+02 -0.66662933278E+03  0.66726501870E+03  0.00000000000E+00 0.  1.
         -1    1    1    2    0  502  0.79870667362E+01  0.36214879568E+02 -0.10783716396E+03  0.11403580433E+03  0.00000000000E+00 0. -1.
<mgrwt>
<rscale>  1 0.30000000E+03</rscale>
<asrwt>0</asrwt>
<pdfrwt beam="1">  1       21 0.12686851E-01 0.30000000E+03</pdfrwt>
<pdfrwt beam="2">0</pdfrwt>
<totfact> 0.56002146E+03</totfact>
</mgrwt>
</event>
<event>
 6    1  0.1280499E-001  0.3000000E+03  0.7818608E-02  0.1093470E+00
         21   -1    0    0  501  502  0.00000000000E+00  0.00000000000E+00  0.16791782572E+01  0.16791782572E+01  0.00000000000E+00 0. -1.
         13   -1    0    0    0    0 -0.00000000000E+00 -0.00000000000E+00 -0.10000000000E+04  0.10000000000E+04  0.00000000000E+00 0.  1.
    9000005    2    1    2  501    0 -0.34467618822E+02  0.15734036938E+02 -0.68172733436E+03  0.68282652747E+03  0.80206936969E+01 0.  0.
         13    1    3    3    0    0  0.14932528985E+00  0.10660693723E+00 -0.38581158489E+00  0.42721617513E+00  0.00000000000E+00 0.  1.
          3    1    3    3  501    0 -0.34616944112E+02  0.15627430001E+02 -0.68134152278E+03  0.68239931129E+03  0.00000000000E+00 0.  1.
         -3    1    1    2    0  502  0.34467618822E+02 -0.15734036938E+02 -0.31659348738E+03  0.31885265079E+03  0.00000000000E+00 0. -1.
<mgrwt>
<rscale>  1 0.30000000E+03</rscale>
<asrwt>0</asrwt>
<pdfrwt beam="1">  1       21 0.61061156E-02 0.30000000E+03</pdfrwt>
<pdfrwt beam="2">0</pdfrwt>
<totfact> 0.20443871E+04</totfact>
</mgrwt>
</event>
<event>
 6    1  0.1280499E-001  0.3000000E+03  0.7818608E-02  0.1093470E+00
         21   -1    0    0  501  502  0.00000000000E+00  0.00000000000E+00  0.31378955092E+01  0.31378955092E+01  0.00000000000E+00 0. -1.
         13   -1    0    0    0    0 -0.00000000000E+00 -0.00000000000E+00 -0.10000000000E+04  0.10000000000E+04  0.00000000000E+00 0.  1.
    9000005    2    1    2  501    0 -0.17478779199E+02  0.51068344335E+02 -0.36621406366E+03  0.37018415713E+03  0.31758868670E+01 0.  0.
         13    1    3    3    0    0 -0.19416559206E+01  0.50819586963E+01 -0.30960190794E+02  0.31434531107E+02  0.00000000000E+00 0.  1.
          1    1    3    3  501    0 -0.15537123279E+02  0.45986385639E+02 -0.33525387286E+03  0.33874962603E+03  0.00000000000E+00 0.  1.
         -1    1    1    2    0  502  0.17478779199E+02 -0.51068344335E+02 -0.63064804084E+03  0.63295373838E+03  0.00000000000E+00 0. -1.
<mgrwt>
<rscale>  1 0.30000000E+03</rscale>
<asrwt>0</asrwt>
<pdfrwt beam="1">  1       21 0.11410553E-01 0.30000000E+03</pdfrwt>
<pdfrwt beam="2">0</pdfrwt>
<totfact> 0.67886078E+03</totfact>
</mgrwt>
</event>
<event>
 6    1  0.1280499E-001  0.3000000E+03  0.7818608E-02  0.1093470E+00
         21   -1    0    0  501  502  0.00000000000E+00  0.00000000000E+00  0.30227180076E+01  0.30227180076E+01  0.00000000000E+00 0. -1.
         13   -1    0    0    0    0 -0.00000000000E+00 -0.00000000000E+00 -0.10000000000E+04  0.10000000000E+04  0.00000000000E+00 0.  1.
    9000005    2    1    2  501    0 -0.19008792195E+02  0.26723315120E+02 -0.90092149052E+03  0.90152303905E+03  0.29644760523E+01 0.  0.
         13    1    3    3    0    0 -0.37757910855E+00  0.30831812068E+00 -0.68067763034E+01  0.68242090891E+01  0.00000000000E+00 0.  1.
          3    1    3    3  501    0 -0.18631213086E+02  0.26414996999E+02 -0.89411471421E+03  0.89469882997E+03  0.00000000000E+00 0.  1.
         -1    1    1    2    0  502  0.19008792195E+02 -0.26723315120E+02 -0.96055791475E+02  0.10149967895E+03  0.00000000000E+00 0. -1.
<mgrwt>
<rscale>  1 0.30000000E+03</rscale>
<asrwt>0</asrwt>
<pdfrwt beam="1">  1       21 0.10991725E-01 0.30000000E+03</pdfrwt>
<pdfrwt beam="2">0</pdfrwt>
<totfact> 0.72618479E+03</totfact>
</mgrwt>
</event>
<event>
 6    1  0.1280499E-001  0.3000000E+03  0.7818608E-02  0.1093470E+00
         21   -1    0    0  501  502  0.00000000000E+00  0.00000000000E+00  0.10520472428E+01  0.10520472428E+01  0.00000000000E+00 0. -1.
         13   -1    0    0    0    0 -0.00000000000E+00 -0.00000000000E+00 -0.10000000000E+04  0.10000000000E+04  0.00000000000E+00 0.  1.
    9000005    2    1    2  501    0  0.51009673674E+00  0.30291634778E+02 -0.33454204880E+03  0.33595577710E+03  0.54825559326E+01 0.  0.
         13    1    3    3    0    0  0.22554104729E+01  0.13996347654E+02 -0.17545416164E+03  0.17602598518E+03  0.00000000000E+00 0.  1.
          3    1    3    3  501    0 -0.17453137361E+01  0.16295287124E+02 -0.15908788716E+03  0.15992979192E+03  0.00000000000E+00 0.  1.
         -3    1    1    2    0  502 -0.51009673674E+00 -0.30291634778E+02 -0.66440590396E+03  0.66509627014E+03  0.00000000000E+00 0. -1.
<mgrwt>
<rscale>  1 0.30000000E+03</rscale>
<asrwt>0</asrwt>
<pdfrwt beam="1">  1       21 0.38256344E-02 0.30000000E+03</pdfrwt>
<pdfrwt beam="2">0</pdfrwt>
<totfact> 0.45321161E+04</totfact>
</mgrwt>
</event>
<event>
 6    1  0.1280499E-001  0.3000000E+03  0.7818608E-02  0.1093470E+00
         21   -1    0    0  501  502  0.00000000000E+00  0.00000000000E+00  0.15410072566E+01  0.15410072566E+01  0.00000000000E+00 0. -1.
         13   -1    0    0    0    0 -0.00000000000E+00 -0.00000000000E+00 -0.10000000000E+04  0.10000000000E+04  0.00000000000E+00 0.  1.
    9000005    2    1    2  501    0  0.21811830715E+02 -0.31992669749E+02 -0.55112609408E+03  0.55253542922E+03  0.74928029690E+01 0.  0.
         13    1    3    3    0    0  0.18305912348E+02 -0.28147540910E+02 -0.43557065538E+03  0.43686289189E+03  0.00000000000E+00 0.  1.
          3    1    3    3  501    0  0.35059183669E+01 -0.38451288393E+01 -0.11555543870E+03  0.11567253733E+03  0.00000000000E+00 0.  1.
         -3    1    1    2    0  502 -0.21811830715E+02  0.31992669749E+02 -0.44733289867E+03  0.44900557803E+03  0.00000000000E+00 0. -1.
<mgrwt>
<rscale>  1 0.30000000E+03</rscale>
<asrwt>0</asrwt>
<pdfrwt beam="1">  1       21 0.56036746E-02 0.30000000E+03</pdfrwt>
<pdfrwt beam="2">0</pdfrwt>
<totfact> 0.23702349E+04</totfact>
</mgrwt>
</event>
<event>
 6    1  0.1280499E-001  0.3000000E+03  0.7818608E-02  0.1093470E+00
         21   -1    0    0  501  502  0.00000000000E+00  0.00000000000E+00  0.11266492598E+01  0.11266492598E+01  0.00000000000E+00 0. -1.
         13   -1    0    0    0    0 -0.00000000000E+00 -0.00000000000E+00 -0.10000000000E+04  0.10000000000E+04  0.00000000000E+00 0.  1.
    9000005    2    1    2  501    0  0.78595893663E+01  0.32047851579E+02 -0.58560856043E+03  0.58654659083E+03  0.32679094184E+01 0.  0.
         13    1    3    3    0    0  0.38331133684E+01  0.16851022699E+02 -0.27810855373E+03  0.27864496654E+03  0.00000000000E+00 0.  1.
          1    1    3    3  501    0  0.40264759979E+01  0.15196828880E+02 -0.30750000670E+03  0.30790162428E+03  0.00000000000E+00 0.  1.
         -1    1    1    2    0  502 -0.78595893663E+01 -0.32047851579E+02 -0.41326479031E+03  0.41458005843E+03  0.00000000000E+00 0. -1.
<mgrwt>
<rscale>  1 0.30000000E+03</rscale>
<asrwt>0</asrwt>
<pdfrwt beam="1">  1       21 0.40969150E-02 0.30000000E+03</pdfrwt>
<pdfrwt beam="2">0</pdfrwt>
<totfact> 0.40384861E+04</totfact>
</mgrwt>
</event>
<event>
 6    1  0.1280499E-001  0.3000000E+03  0.7818608E-02  0.1093470E+00
         21   -1    0    0  501  502  0.00000000000E+00  0.00000000000E+00  0.32083495375E+01  0.32083495375E+01  0.00000000000E+00 0. -1.
         13   -1    0    0    0    0 -0.00000000000E+00 -0.00000000000E+00 -0.10000000000E+04  0.10000000000E+04  0.00000000000E+00 0.  1.
    9000005    2    1    2  501    0  0.50088505679E+02 -0.21363240345E+02 -0.63485861284E+03  0.63720183298E+03  0.39333468952E+01 0.  0.
         13    1    3    3    0    0  0.36856568421E+02 -0.15393657116E+02 -0.48489483272E+03  0.48653712101E+03  0.00000000000E+00 0.  1.
          1    1    3    3  501    0  0.13231937258E+02 -0.59695832293E+01 -0.14996378012E+03  0.15066471198E+03  0.00000000000E+00 0.  1.
         -1    1    1    2    0  502 -0.50088505679E+02  0.21363240345E+02 -0.36193303762E+03  0.36600651655E+03  0.00000000000E+00 0. -1.
<mgrwt>
<rscale>  1 0.30000000E+03</rscale>
<asrwt>0</asrwt>
<pdfrwt beam="1">  1       21 0.11666750E-01 0.30000000E+03</pdfrwt>
<pdfrwt beam="2">0</pdfrwt>
<totfact> 0.65215919E+03</totfact>
</mgrwt>
</event>
<event>
 6    1  0.1280499E-001  0.3000000E+03  0.7818608E-02  0.1093470E+00
         21   -1    0    0  501  502  0.00000000000E+00  0.00000000000E+00  0.15683455886E+01  0.15683455886E+01  0.00000000000E+00 0. -1.
         13   -1    0    0    0    0 -0.00000000000E+00 -0.00000000000E+00 -0.10000000000E+04  0.10000000000E+04  0.00000000000E+00 0.  1.
    9000005    2    1    2  501    0  0.37933368933E+02  0.20752812134E+01 -0.36071745752E+03  0.36272357244E+03  0.28387618067E+01 0.  0.
         13    1    3    3    0    0  0.10688710361E+02 -0.39147108981E+00 -0.10941433034E+03  0.10993587887E+03  0.00000000000E+00 0.  1.
          1    1    3    3  501    0  0.27244658572E+02  0.24667523033E+01 -0.25130312719E+03  0.25278769357E+03  0.00000000000E+00 0.  1.
         -1    1    1    2    0  502 -0.37933368933E+02 -0.20752812134E+01 -0.63771419689E+03  0.63884477315E+03  0.00000000000E+00 0. -1.
<mgrwt>
<rscale>  1 0.30000000E+03</rscale>
<asrwt>0</asrwt>
<pdfrwt beam="1">  1       21 0.57030869E-02 0.30000000E+03</pdfrwt>
<pdfrwt beam="2">0</pdfrwt>
<totfact> 0.22996840E+04</totfact>
</mgrwt>
</event>
<event>
 6    1  0.1280499E-001  0.3000000E+03  0.7818608E-02  0.1093470E+00
         21   -1    0    0  501  502  0.00000000000E+00  0.00000000000E+00  0.22381142109E+01  0.22381142109E+01  0.00000000000E+00 0. -1.
         13   -1    0    0    0    0 -0.00000000000E+00 -0.00000000000E+00 -0.10000000000E+04  0.10000000000E+04  0.00000000000E+00 0.  1.
    9000005    2    1    2  501    0  0.39867394713E+02 -0.23423873209E+02 -0.60066225889E+03  0.60245542239E+03  0.43931439000E+01 0.  0.
         13    1    3    3    0    0  0.18957422706E+02 -0.90620162020E+01 -0.28850337934E+03  0.28926752999E+03  0.00000000000E+00 0.  1.
          1    1    3    3  501    0  0.20909972007E+02 -0.14361857007E+02 -0.31215887955E+03  0.31318789240E+03  0.00000000000E+00 0.  1.
         -3    1    1    2    0  502 -0.39867394713E+02  0.23423873209E+02 -0.39709962690E+03  0.39978269182E+03  0.00000000000E+00 0. -1.
<mgrwt>
<rscale>  1 0.30000000E+03</rscale>
<asrwt>0</asrwt>
<pdfrwt beam="1">  1       21 0.81386143E-02 0.30000000E+03</pdfrwt>
<pdfrwt beam="2">0</pdfrwt>
<totfact> 0.12394010E+04</totfact>
</mgrwt>
</event>
<event>
 6    1  0.1280499E-001  0.3000000E+03  0.7818608E-02  0.1093470E+00
         21   -1    0    0  501  502  0.00000000000E+00  0.00000000000E+00  0.21357127690E+01  0.21357127690E+01  0.00000000000E+00 0. -1.
         13   -1    0    0    0    0 -0.00000000000E+00 -0.00000000000E+00 -0.10000000000E+04  0.10000000000E+04  0.00000000000E+00 0.  1.
    9000005    2    1    2  501    0  0.26534826678E+02  0.16338104832E+02 -0.86865326068E+03  0.86922025061E+03  0.37849834086E+01 0.  0.
         13    1    3    3    0    0  0.20748955860E+02  0.14076052911E+02 -0.72281585716E+03  0.72325059129E+03  0.00000000000E+00 0.  1.
          3    1    3    3  501    0  0.57858708180E+01  0.22620519207E+01 -0.14583740351E+03  0.14596965932E+03  0.00000000000E+00 0.  1.
         -3    1    1    2    0  502 -0.26534826678E+02 -0.16338104832E+02 -0.12921102656E+03  0.13291546215E+03  0.00000000000E+00 0. -1.
<mgrwt>
<rscale>  1 0.30000000E+03</rscale>
<asrwt>0</asrwt>
<pdfrwt beam="1">  1       21 0.77662446E-02 0.30000000E+03</pdfrwt>
<pdfrwt beam="2">0</pdfrwt>
<totfact> 0.13456295E+04</totfact>
</mgrwt>
</event>
<event>
 6    1  0.1280499E-001  0.3000000E+03  0.7818608E-02  0.1093470E+00
         21   -1    0    0  501  502  0.00000000000E+00  0.00000000000E+00  0.22229956550E+01  0.22229956550E+01  0.00000000000E+00 0. -1.
         13   -1    0    0    0    0 -0.00000000000E+00 -0.00000000000E+00 -0.10000000000E+04  0.10000000000E+04  0.00000000000E+00 0.  1.
    9000005    2    1    2  501    0 -0.36395046724E+02  0.48929536820E+01 -0.81277612977E+03  0.81361264595E+03  0.34583386593E+01 0.  0.
         13    1    3    3    0    0 -0.31278872209E+02  0.51645404539E+01 -0.68278143486E+03  0.68351702840E+03  0.00000000000E+00 0.  1.
          3    1    3    3  501    0 -0.51161745155E+01 -0.27158677185E+00 -0.12999469491E+03  0.13009561755E+03  0.00000000000E+00 0.  1.
         -1    1    1    2    0  502  0.36395046724E+02 -0.48929536820E+01 -0.18500087457E+03  0.18861034970E+03  0.00000000000E+00 0. -1.
<mgrwt>
<rscale>  1 0.30000000E+03</rscale>
<asrwt>0</asrwt>
<pdfrwt beam="1">  1       21 0.80836376E-02 0.30000000E+03</pdfrwt>
<pdfrwt beam="2">0</pdfrwt>
<totfact> 0.12542566E+04</totfact>
</mgrwt>
</event>
<event>
 6    1  0.1280499E-001  0.3000000E+03  0.7818608E-02  0.1093470E+00
         21   -1    0    0  501  502  0.00000000000E+00  0.00000000000E+00  0.12357613183E+01  0.12357613183E+01  0.00000000000E+00 0. -1.
         13   -1    0    0    0    0 -0.00000000000E+00 -0.00000000000E+00 -0.10000000000E+04  0.10000000000E+04  0.00000000000E+00 0.  1.
    9000005    2    1    2  501    0 -0.98028070176E+01 -0.33173378977E+02 -0.47067848913E+03  0.47201829469E+03  0.81524413648E+01 0.  0.
         13    1    3    3    0    0 -0.65609991883E+01 -0.95840243031E+01 -0.17252838541E+03  0.17291889429E+03  0.00000000000E+00 0.  1.
          3    1    3    3  501    0 -0.32418078292E+01 -0.23589354673E+02 -0.29815010372E+03  0.29909940040E+03  0.00000000000E+00 0.  1.
         -3    1    1    2    0  502  0.98028070176E+01  0.33173378977E+02 -0.52808574956E+03  0.52921746663E+03  0.00000000000E+00 0. -1.
<mgrwt>
<rscale>  1 0.30000000E+03</rscale>
<asrwt>0</asrwt>
<pdfrwt beam="1">  1       21 0.44936870E-02 0.30000000E+03</pdfrwt>
<pdfrwt beam="2">0</pdfrwt>
<totfact> 0.34540370E+04</totfact>
</mgrwt>
</event>
<event>
 6    1  0.1280499E-001  0.3000000E+03  0.7818608E-02  0.1093470E+00
         21   -1    0    0  501  502  0.00000000000E+00  0.00000000000E+00  0.28737941178E+01  0.28737941178E+01  0.00000000000E+00 0. -1.
         13   -1    0    0    0    0 -0.00000000000E+00 -0.00000000000E+00 -0.10000000000E+04  0.10000000000E+04  0.00000000000E+00 0.  1.
    9000005    2    1    2  501    0  0.32011284241E+02  0.40430298650E+02 -0.63431102301E+03  0.63641207949E+03  0.32449402073E+01 0.  0.
         13    1    3    3    0    0  0.80301207038E+01  0.12492445255E+02 -0.18033169780E+03  0.18094215998E+03  0.00000000000E+00 0.  1.
          3    1    3    3  501    0  0.23981163538E+02  0.27937853395E+02 -0.45397932522E+03  0.45546991951E+03  0.00000000000E+00 0.  1.
         -1    1    1    2    0  502 -0.32011284241E+02 -0.40430298650E+02 -0.36281518287E+03  0.36646171463E+03  0.00000000000E+00 0. -1.
<mgrwt>
<rscale>  1 0.30000000E+03</rscale>
<asrwt>0</asrwt>
<pdfrwt beam="1">  1       21 0.10450182E-01 0.30000000E+03</pdfrwt>
<pdfrwt beam="2">0</pdfrwt>
<totfact> 0.79513553E+03</totfact>
</mgrwt>
</event>
<event>
 6    1  0.1280499E-001  0.3000000E+03  0.7818608E-02  0.1093470E+00
         21   -1    0    0  501  502  0.00000000000E+00  0.00000000000E+00  0.28898099598E+01  0.28898099598E+01  0.00000000000E+00 0. -1.
         13   -1    0    0    0    0 -0.00000000000E+00 -0.00000000000E+00 -0.10000000000E+04  0.10000000000E+04  0.00000000000E+00 0.  1.
    9000005    2    1    2  501    0  0.47600410699E+02 -0.13406628501E+02 -0.69421168933E+03  0.69598096597E+03  0.37548107957E+01 0.  0.
         13    1    3    3    0    0  0.35799429919E+02 -0.10031172970E+02 -0.49813255541E+03  0.49951803408E+03  0.00000000000E+00 0.  1.
          1    1    3    3  501    0  0.11800980780E+02 -0.33754555312E+01 -0.19607913392E+03  0.19646293189E+03  0.00000000000E+00 0.  1.
         -3    1    1    2    0  502 -0.47600410699E+02  0.13406628501E+02 -0.30289850071E+03  0.30690884399E+03  0.00000000000E+00 0. -1.
<mgrwt>
<rscale>  1 0.30000000E+03</rscale>
<asrwt>0</asrwt>
<pdfrwt beam="1">  1       21 0.10508422E-01 0.30000000E+03</pdfrwt>
<pdfrwt beam="2">0</pdfrwt>
<totfact> 0.78725456E+03</totfact>
</mgrwt>
</event>
<event>
 6    1  0.1280499E-001  0.3000000E+03  0.7818608E-02  0.1093470E+00
         21   -1    0    0  501  502  0.00000000000E+00  0.00000000000E+00  0.34809077291E+01  0.34809077291E+01  0.00000000000E+00 0. -1.
         13   -1    0    0    0    0 -0.00000000000E+00 -0.00000000000E+00 -0.10000000000E+04  0.10000000000E+04  0.00000000000E+00 0.  1.
    9000005    2    1    2  501    0  0.50769268353E+02  0.21582119010E+02 -0.32163256610E+03  0.32634345516E+03  0.30391902067E+01 0.  0.
         13    1    3    3    0    0  0.46778258719E+02  0.19805126746E+02 -0.29091044118E+03  0.29531226409E+03  0.00000000000E+00 0.  1.
          3    1    3    3  501    0  0.39910096341E+01  0.17769922637E+01 -0.30722124921E+02  0.31031191068E+02  0.00000000000E+00 0.  1.
         -1    1    1    2    0  502 -0.50769268353E+02 -0.21582119010E+02 -0.67488652617E+03  0.67713745257E+03  0.00000000000E+00 0. -1.
<mgrwt>
<rscale>  1 0.30000000E+03</rscale>
<asrwt>0</asrwt>
<pdfrwt beam="1">  1       21 0.12657873E-01 0.30000000E+03</pdfrwt>
<pdfrwt beam="2">0</pdfrwt>
<totfact> 0.56236081E+03</totfact>
</mgrwt>
</event>
<event>
 6    1  0.1280499E-001  0.3000000E+03  0.7818608E-02  0.1093470E+00
         21   -1    0    0  501  502  0.00000000000E+00  0.00000000000E+00  0.39893752224E+01  0.39893752224E+01  0.00000000000E+00 0. -1.
         13   -1    0    0    0    0 -0.00000000000E+00 -0.00000000000E+00 -0.10000000000E+04  0.10000000000E+04  0.00000000000E+00 0.  1.
    9000005    2    1    2  501    0 -0.24660713018E+02  0.32985079773E+02 -0.87839417377E+03  0.87937077387E+03  0.45240666084E+01 0.  0.
         13    1    3    3    0    0 -0.20644315036E+02  0.30028453707E+02 -0.76827201765E+03  0.76913574151E+03  0.00000000000E+00 0.  1.
          1    1    3    3  501    0 -0.40163979817E+01  0.29566260661E+01 -0.11012215612E+03  0.11023503236E+03  0.00000000000E+00 0.  1.
         -1    1    1    2    0  502  0.24660713018E+02 -0.32985079773E+02 -0.11761645101E+03  0.12461860135E+03  0.00000000000E+00 0. -1.
<mgrwt>
<rscale>  1 0.30000000E+03</rscale>
<asrwt>0</asrwt>
<pdfrwt beam="1">  1       21 0.14506850E-01 0.30000000E+03</pdfrwt>
<pdfrwt beam="2">0</pdfrwt>
<totfact> 0.43803611E+03</totfact>
</mgrwt>
</event>
<event>
 6    1  0.1280499E-001  0.3000000E+03  0.7818608E-02  0.1093470E+00
         21   -1    0    0  501  502  0.00000000000E+00  0.00000000000E+00  0.56041698090E+01  0.56041698090E+01  0.00000000000E+00 0. -1.
         13   -1    0    0    0    0 -0.00000000000E+00 -0.00000000000E+00 -0.10000000000E+04  0.10000000000E+04  0.00000000000E+00 0.  1.
    9000005    2    1    2  501    0 -0.36252839476E+02 -0.33005806484E+02 -0.87709151937E+03  0.87846663417E+03  0.32314646046E+01 0.  0.
         13    1    3    3    0    0 -0.13876874743E+02 -0.14331489690E+02 -0.37389933994E+03  0.37443113607E+03  0.00000000000E+00 0.  1.
          3    1    3    3  501    0 -0.22375964734E+02 -0.18674316794E+02 -0.50319217943E+03  0.50403549810E+03  0.00000000000E+00 0.  1.
         -1    1    1    2    0  502  0.36252839476E+02  0.33005806484E+02 -0.11730431082E+03  0.12713753564E+03  0.00000000000E+00 0. -1.
<mgrwt>
<rscale>  1 0.30000000E+03</rscale>
<asrwt>0</asrwt>
<pdfrwt beam="1">  1       21 0.20378842E-01 0.30000000E+03</pdfrwt>
<pdfrwt beam="2">0</pdfrwt>
<totfact> 0.23147249E+03</totfact>
</mgrwt>
</event>
<event>
 6    1  0.1280499E-001  0.3000000E+03  0.7818608E-02  0.1093470E+00
         21   -1    0    0  501  502  0.00000000000E+00  0.00000000000E+00  0.70235237073E+01  0.70235237073E+01  0.00000000000E+00 0. -1.
         13   -1    0    0    0    0 -0.00000000000E+00 -0.00000000000E+00 -0.10000000000E+04  0.10000000000E+04  0.00000000000E+00 0.  1.
    9000005    2    1    2  501    0 -0.39597584467E+02 -0.65382571910E+02 -0.70268369311E+03  0.70683566691E+03  0.30721388724E+01 0.  0.
         13    1    3    3    0    0 -0.32604300125E+02 -0.55918951169E+02 -0.59227516389E+03  0.59580184562E+03  0.00000000000E+00 0.  1.
          1    1    3    3  501    0 -0.69932843419E+01 -0.94636207415E+01 -0.11040852922E+03  0.11103382128E+03  0.00000000000E+00 0.  1.
         -1    1    1    2    0  502  0.39597584467E+02  0.65382571910E+02 -0.29029278318E+03  0.30018785680E+03  0.00000000000E+00 0. -1.
<mgrwt>
<rscale>  1 0.30000000E+03</rscale>
<asrwt>0</asrwt>
<pdfrwt beam="1">  1       21 0.25540140E-01 0.30000000E+03</pdfrwt>
<pdfrwt beam="2">0</pdfrwt>
<totfact> 0.14955861E+03</totfact>
</mgrwt>
</event>
<event>
 6    1  0.1280499E-001  0.3000000E+03  0.7818608E-02  0.1093470E+00
         21   -1    0    0  501  502  0.00000000000E+00  0.00000000000E+00  0.42735315701E+01  0.42735315701E+01  0.00000000000E+00 0. -1.
         13   -1    0    0    0    0 -0.00000000000E+00 -0.00000000000E+00 -0.10000000000E+04  0.10000000000E+04  0.00000000000E+00 0.  1.
    9000005    2    1    2  501    0 -0.37706340427E+02  0.13861498223E+02 -0.89381437011E+03  0.89472908842E+03  0.47015110828E+01 0.  0.
         13    1    3    3    0    0 -0.23269248065E+02  0.78653434893E+01 -0.59361517471E+03  0.59412313302E+03  0.00000000000E+00 0.  1.
          1    1    3    3  501    0 -0.14437092362E+02  0.59961547334E+01 -0.30019919539E+03  0.30060595540E+03  0.00000000000E+00 0.  1.
         -3    1    1    2    0  502  0.37706340427E+02 -0.13861498223E+02 -0.10191209832E+03  0.10954444315E+03  0.00000000000E+00 0. -1.
<mgrwt>
<rscale>  1 0.30000000E+03</rscale>
<asrwt>0</asrwt>
<pdfrwt beam="1">  1       21 0.15540148E-01 0.30000000E+03</pdfrwt>
<pdfrwt beam="2">0</pdfrwt>
<totfact> 0.38564748E+03</totfact>
</mgrwt>
</event>
<event>
 6    1  0.1280499E-001  0.3000000E+03  0.7818608E-02  0.1093470E+00
         21   -1    0    0  501  502  0.00000000000E+00  0.00000000000E+00  0.21092158010E+01  0.21092158010E+01  0.00000000000E+00 0. -1.
         13   -1    0    0    0    0 -0.00000000000E+00 -0.00000000000E+00 -0.10000000000E+04  0.10000000000E+04  0.00000000000E+00 0.  1.
    9000005    2    1    2  501    0  0.11286076586E+02 -0.33921578387E+02 -0.81306160399E+03  0.81385440215E+03  0.34303083774E+01 0.  0.
         13    1    3    3    0    0  0.11280369902E+02 -0.30948950652E+02 -0.74429121297E+03  0.74501979436E+03  0.00000000000E+00 0.  1.
          3    1    3    3  501    0  0.57066839129E-02 -0.29726277352E+01 -0.68770391023E+02  0.68834607791E+02  0.00000000000E+00 0.  1.
         -3    1    1    2    0  502 -0.11286076586E+02  0.33921578387E+02 -0.18482918021E+03  0.18825481365E+03  0.00000000000E+00 0. -1.
<mgrwt>
<rscale>  1 0.30000000E+03</rscale>
<asrwt>0</asrwt>
<pdfrwt beam="1">  1       21 0.76698918E-02 0.30000000E+03</pdfrwt>
<pdfrwt beam="2">0</pdfrwt>
<totfact> 0.13754055E+04</totfact>
</mgrwt>
</event>
<event>
 6    1  0.1280499E-001  0.3000000E+03  0.7818608E-02  0.1093470E+00
         21   -1    0    0  501  502  0.00000000000E+00  0.00000000000E+00  0.22500186184E+01  0.22500186184E+01  0.00000000000E+00 0. -1.
         13   -1    0    0    0    0 -0.00000000000E+00 -0.00000000000E+00 -0.10000000000E+04  0.10000000000E+04  0.00000000000E+00 0.  1.
    9000005    2    1    2  501    0 -0.31762407019E+02  0.12964312928E+02 -0.84467154079E+03  0.84537448553E+03  0.33294214240E+01 0.  0.
         13    1    3    3    0    0 -0.28652894303E+02  0.10610384605E+02 -0.74141061160E+03  0.74203993397E+03  0.00000000000E+00 0.  1.
          3    1    3    3  501    0 -0.31095127165E+01  0.23539283234E+01 -0.10326092920E+03  0.10333455156E+03  0.00000000000E+00 0.  1.
         -3    1    1    2    0  502  0.31762407019E+02 -0.12964312928E+02 -0.15307844059E+03  0.15687553309E+03  0.00000000000E+00 0. -1.
<mgrwt>
<rscale>  1 0.30000000E+03</rscale>
<asrwt>0</asrwt>
<pdfrwt beam="1">  1       21 0.81819031E-02 0.30000000E+03</pdfrwt>
<pdfrwt beam="2">0</pdfrwt>
<totfact> 0.12278928E+04</totfact>
</mgrwt>
</event>
<event>
 6    1  0.1280499E-001  0.3000000E+03  0.7818608E-02  0.1093470E+00
         21   -1    0    0  501  502  0.00000000000E+00  0.00000000000E+00  0.13176224415E+01  0.13176224415E+01  0.00000000000E+00 0. -1.
         13   -1    0    0    0    0 -0.00000000000E+00 -0.00000000000E+00 -0.10000000000E+04  0.10000000000E+04  0.00000000000E+00 0.  1.
    9000005    2    1    2  501    0  0.39737886417E+01  0.35687830803E+02 -0.55149219472E+03  0.55268807383E+03  0.55725980505E+01 0.  0.
         13    1    3    3    0    0  0.16470769047E+01  0.30965057945E+01 -0.70659295736E+02  0.70746288131E+02  0.00000000000E+00 0.  1.
          1    1    3    3  501    0  0.23267117370E+01  0.32591325008E+02 -0.48083289899E+03  0.48194178570E+03  0.00000000000E+00 0.  1.
         -3    1    1    2    0  502 -0.39737886417E+01 -0.35687830803E+02 -0.44719018283E+03  0.44862954861E+03  0.00000000000E+00 0. -1.
<mgrwt>
<rscale>  1 0.30000000E+03</rscale>
<asrwt>0</asrwt>
<pdfrwt beam="1">  1       21 0.47913644E-02 0.30000000E+03</pdfrwt>
<pdfrwt beam="2">0</pdfrwt>
<totfact> 0.30973298E+04</totfact>
</mgrwt>
</event>
<event>
 6    1  0.1280499E-001  0.3000000E+03  0.7818608E-02  0.1093470E+00
         21   -1    0    0  501  502  0.00000000000E+00  0.00000000000E+00  0.14827016569E+01  0.14827016569E+01  0.00000000000E+00 0. -1.
         13   -1    0    0    0    0 -0.00000000000E+00 -0.00000000000E+00 -0.10000000000E+04  0.10000000000E+04  0.00000000000E+00 0.  1.
    9000005    2    1    2  501    0 -0.17334595855E+02 -0.25063189383E+02 -0.80382839203E+03  0.80442326413E+03  0.52964488634E+01 0.  0.
         13    1    3    3    0    0 -0.75512405045E+01 -0.13342973464E+02 -0.46153694912E+03  0.46179152393E+03  0.00000000000E+00 0.  1.
          1    1    3    3  501    0 -0.97833553504E+01 -0.11720215919E+02 -0.34229144291E+03  0.34263174020E+03  0.00000000000E+00 0.  1.
         -1    1    1    2    0  502  0.17334595855E+02  0.25063189383E+02 -0.19468890631E+03  0.19705943752E+03  0.00000000000E+00 0. -1.
<mgrwt>
<rscale>  1 0.30000000E+03</rscale>
<asrwt>0</asrwt>
<pdfrwt beam="1">  1       21 0.53916538E-02 0.30000000E+03</pdfrwt>
<pdfrwt beam="2">0</pdfrwt>
<totfact> 0.25322874E+04</totfact>
</mgrwt>
</event>
<event>
 6    1  0.1280499E-001  0.3000000E+03  0.7818608E-02  0.1093470E+00
         21   -1    0    0  501  502  0.00000000000E+00  0.00000000000E+00  0.25913110523E+01  0.25913110523E+01  0.00000000000E+00 0. -1.
         13   -1    0    0    0    0 -0.00000000000E+00 -0.00000000000E+00 -0.10000000000E+04  0.10000000000E+04  0.00000000000E+00 0.  1.
    9000005    2    1    2  501    0  0.72259141665E+01 -0.43696100234E+02 -0.74520528995E+03  0.74652858928E+03  0.35280935645E+01 0.  0.
         13    1    3    3    0    0  0.18900052767E+01 -0.10984362148E+02 -0.16297606047E+03  0.16335674035E+03  0.00000000000E+00 0.  1.
          3    1    3    3  501    0  0.53359088897E+01 -0.32711738087E+02 -0.58222922947E+03  0.58317184893E+03  0.00000000000E+00 0.  1.
         -1    1    1    2    0  502 -0.72259141665E+01  0.43696100234E+02 -0.25220339900E+03  0.25606272177E+03  0.00000000000E+00 0. -1.
<mgrwt>
<rscale>  1 0.30000000E+03</rscale>
<asrwt>0</asrwt>
<pdfrwt beam="1">  1       21 0.94229692E-02 0.30000000E+03</pdfrwt>
<pdfrwt beam="2">0</pdfrwt>
<totfact> 0.95653889E+03</totfact>
</mgrwt>
</event>
<event>
 6    1  0.1280499E-001  0.3000000E+03  0.7818608E-02  0.1093470E+00
         21   -1    0    0  501  502  0.00000000000E+00  0.00000000000E+00  0.15503064798E+01  0.15503064798E+01  0.00000000000E+00 0. -1.
         13   -1    0    0    0    0 -0.00000000000E+00 -0.00000000000E+00 -0.10000000000E+04  0.10000000000E+04  0.00000000000E+00 0.  1.
    9000005    2    1    2  501    0 -0.61259428719E+01  0.37034165508E+02 -0.64801443778E+03  0.64911034698E+03  0.35319097079E+01 0.  0.
         13    1    3    3    0    0 -0.20068493269E+01  0.66615235197E+01 -0.13884456537E+03  0.13901876375E+03  0.00000000000E+00 0.  1.
          3    1    3    3  501    0 -0.41190935450E+01  0.30372641988E+02 -0.50916987241E+03  0.51009158323E+03  0.00000000000E+00 0.  1.
         -1    1    1    2    0  502  0.61259428719E+01 -0.37034165508E+02 -0.35043525574E+03  0.35243995950E+03  0.00000000000E+00 0. -1.
<mgrwt>
<rscale>  1 0.30000000E+03</rscale>
<asrwt>0</asrwt>
<pdfrwt beam="1">  1       21 0.56374900E-02 0.30000000E+03</pdfrwt>
<pdfrwt beam="2">0</pdfrwt>
<totfact> 0.23458685E+04</totfact>
</mgrwt>
</event>
<event>
 6    1  0.1280499E-001  0.3000000E+03  0.7818608E-02  0.1093470E+00
         21   -1    0    0  501  502  0.00000000000E+00  0.00000000000E+00  0.23701576098E+01  0.23701576098E+01  0.00000000000E+00 0. -1.
         13   -1    0    0    0    0 -0.00000000000E+00 -0.00000000000E+00 -0.10000000000E+04  0.10000000000E+04  0.00000000000E+00 0.  1.
    9000005    2    1    2  501    0  0.41502624950E+02  0.34219380230E+01 -0.75797807465E+03  0.75912717761E+03  0.30220191981E+01 0.  0.
         13    1    3    3    0    0  0.30367146588E+02  0.33413217014E+01 -0.53593521408E+03  0.53680525493E+03  0.00000000000E+00 0.  1.
          1    1    3    3  501    0  0.11135478362E+02  0.80616321601E-01 -0.22204286057E+03  0.22232192268E+03  0.00000000000E+00 0.  1.
         -1    1    1    2    0  502 -0.41502624950E+02 -0.34219380230E+01 -0.23965176774E+03  0.24324298000E+03  0.00000000000E+00 0. -1.
<mgrwt>
<rscale>  1 0.30000000E+03</rscale>
<asrwt>0</asrwt>
<pdfrwt beam="1">  1       21 0.86187731E-02 0.30000000E+03</pdfrwt>
<pdfrwt beam="2">0</pdfrwt>
<totfact> 0.11203588E+04</totfact>
</mgrwt>
</event>
<event>
 6    1  0.1280499E-001  0.3000000E+03  0.7818608E-02  0.1093470E+00
         21   -1    0    0  501  502  0.00000000000E+00  0.00000000000E+00  0.14605297727E+01  0.14605297727E+01  0.00000000000E+00 0. -1.
         13   -1    0    0    0    0 -0.00000000000E+00 -0.00000000000E+00 -0.10000000000E+04  0.10000000000E+04  0.00000000000E+00 0.  1.
    9000005    2    1    2  501    0 -0.10864767370E+02 -0.34556166003E+02 -0.65700760228E+03  0.65801302490E+03  0.31590674630E+01 0.  0.
         13    1    3    3    0    0 -0.73981157967E+01 -0.20736089138E+02 -0.42194170700E+03  0.42251570576E+03  0.00000000000E+00 0.  1.
          3    1    3    3  501    0 -0.34666515728E+01 -0.13820076865E+02 -0.23506589528E+03  0.23549731914E+03  0.00000000000E+00 0.  1.
         -3    1    1    2    0  502  0.10864767370E+02  0.34556166003E+02 -0.34153186795E+03  0.34344750487E+03  0.00000000000E+00 0. -1.
<mgrwt>
<rscale>  1 0.30000000E+03</rscale>
<asrwt>0</asrwt>
<pdfrwt beam="1">  1       21 0.53110286E-02 0.30000000E+03</pdfrwt>
<pdfrwt beam="2">0</pdfrwt>
<totfact> 0.25984313E+04</totfact>
</mgrwt>
</event>
<event>
 6    1  0.1280499E-001  0.3000000E+03  0.7818608E-02  0.1093470E+00
         21   -1    0    0  501  502  0.00000000000E+00  0.00000000000E+00  0.23572386217E+01  0.23572386217E+01  0.00000000000E+00 0. -1.
         13   -1    0    0    0    0 -0.00000000000E+00 -0.00000000000E+00 -0.10000000000E+04  0.10000000000E+04  0.00000000000E+00 0.  1.
    9000005    2    1    2  501    0  0.36336426600E+02  0.11870775109E+02 -0.80740388533E+03  0.80831579676E+03  0.34845438143E+01 0.  0.
         13    1    3    3    0    0  0.14651609781E+01  0.77144261573E+00 -0.23554103743E+02  0.23612234616E+02  0.00000000000E+00 0.  1.
          1    1    3    3  501    0  0.34871265622E+02  0.11099332493E+02 -0.78384978158E+03  0.78470356214E+03  0.00000000000E+00 0.  1.
         -3    1    1    2    0  502 -0.36336426600E+02 -0.11870775109E+02 -0.19023887605E+03  0.19404144187E+03  0.00000000000E+00 0. -1.
<mgrwt>
<rscale>  1 0.30000000E+03</rscale>
<asrwt>0</asrwt>
<pdfrwt beam="1">  1       21 0.85717949E-02 0.30000000E+03</pdfrwt>
<pdfrwt beam="2">0</pdfrwt>
<totfact> 0.11312179E+04</totfact>
</mgrwt>
</event>
<event>
 6    1  0.1280499E-001  0.3000000E+03  0.7818608E-02  0.1093470E+00
         21   -1    0    0  501  502  0.00000000000E+00  0.00000000000E+00  0.18019489374E+01  0.18019489374E+01  0.00000000000E+00 0. -1.
         13   -1    0    0    0    0 -0.00000000000E+00 -0.00000000000E+00 -0.10000000000E+04  0.10000000000E+04  0.00000000000E+00 0.  1.
    9000005    2    1    2  501    0 -0.28649573382E+00  0.41095915657E+02 -0.62219179030E+03  0.62355644071E+03  0.33248259211E+01 0.  0.
         13    1    3    3    0    0  0.10538098587E+01  0.92366983306E+01 -0.12836746755E+03  0.12870366675E+03  0.00000000000E+00 0.  1.
          3    1    3    3  501    0 -0.13403055925E+01  0.31859217326E+02 -0.49382432276E+03  0.49485277396E+03  0.00000000000E+00 0.  1.
         -1    1    1    2    0  502  0.28649573382E+00 -0.41095915657E+02 -0.37600626076E+03  0.37824550823E+03  0.00000000000E+00 0. -1.
<mgrwt>
<rscale>  1 0.30000000E+03</rscale>
<asrwt>0</asrwt>
<pdfrwt beam="1">  1       21 0.65525554E-02 0.30000000E+03</pdfrwt>
<pdfrwt beam="2">0</pdfrwt>
<totfact> 0.18095909E+04</totfact>
</mgrwt>
</event>
<event>
 6    1  0.1280499E-001  0.3000000E+03  0.7818608E-02  0.1093470E+00
         21   -1    0    0  501  502  0.00000000000E+00  0.00000000000E+00  0.26503235892E+01  0.26503235892E+01  0.00000000000E+00 0. -1.
         13   -1    0    0    0    0 -0.00000000000E+00 -0.00000000000E+00 -0.10000000000E+04  0.10000000000E+04  0.00000000000E+00 0.  1.
    9000005    2    1    2  501    0 -0.36077739081E+02 -0.10139065098E+02 -0.84214060408E+03  0.84298110291E+03  0.34552751184E+01 0.  0.
         13    1    3    3    0    0 -0.22160815181E+02 -0.73068936629E+01 -0.55243707596E+03  0.55292966580E+03  0.00000000000E+00 0.  1.
          3    1    3    3  501    0 -0.13916923900E+02 -0.28321714352E+01 -0.28970352812E+03  0.29005143711E+03  0.00000000000E+00 0.  1.
         -3    1    1    2    0  502  0.36077739081E+02  0.10139065098E+02 -0.15520907233E+03  0.15966922067E+03  0.00000000000E+00 0. -1.
<mgrwt>
<rscale>  1 0.30000000E+03</rscale>
<asrwt>0</asrwt>
<pdfrwt beam="1">  1       21 0.96375606E-02 0.30000000E+03</pdfrwt>
<pdfrwt beam="2">0</pdfrwt>
<totfact> 0.91892079E+03</totfact>
</mgrwt>
</event>
<event>
 6    1  0.1280499E-001  0.3000000E+03  0.7818608E-02  0.1093470E+00
         21   -1    0    0  501  502  0.00000000000E+00  0.00000000000E+00  0.21072956193E+01  0.21072956193E+01  0.00000000000E+00 0. -1.
         13   -1    0    0    0    0 -0.00000000000E+00 -0.00000000000E+00 -0.10000000000E+04  0.10000000000E+04  0.00000000000E+00 0.  1.
    9000005    2    1    2  501    0  0.37397353616E+02 -0.19729028679E+02 -0.69297436486E+03  0.69427131590E+03  0.33753675915E+01 0.  0.
         13    1    3    3    0    0  0.19154398228E+02 -0.92543702569E+01 -0.32368797626E+03  0.32438625174E+03  0.00000000000E+00 0.  1.
          1    1    3    3  501    0  0.18242955388E+02 -0.10474658422E+02 -0.36928638860E+03  0.36988506417E+03  0.00000000000E+00 0.  1.
         -3    1    1    2    0  502 -0.37397353616E+02  0.19729028679E+02 -0.30491833952E+03  0.30783597972E+03  0.00000000000E+00 0. -1.
<mgrwt>
<rscale>  1 0.30000000E+03</rscale>
<asrwt>0</asrwt>
<pdfrwt beam="1">  1       21 0.76629093E-02 0.30000000E+03</pdfrwt>
<pdfrwt beam="2">0</pdfrwt>
<totfact> 0.13776027E+04</totfact>
</mgrwt>
</event>
<event>
 6    1  0.1280499E-001  0.3000000E+03  0.7818608E-02  0.1093470E+00
         21   -1    0    0  501  502  0.00000000000E+00  0.00000000000E+00  0.16842454679E+02  0.16842454679E+02  0.00000000000E+00 0. -1.
         13   -1    0    0    0    0 -0.00000000000E+00 -0.00000000000E+00 -0.10000000000E+04  0.10000000000E+04  0.00000000000E+00 0.  1.
    9000005    2    1    2  501    0 -0.14986928211E+02  0.63094461686E+02 -0.93181622049E+03  0.93412939194E+03  0.10522974772E+02 0.  0.
         13    1    3    3    0    0 -0.13922140444E+02  0.45463738990E+02 -0.72685508921E+03  0.72840860667E+03  0.00000000000E+00 0.  1.
          3    1    3    3  501    0 -0.10647877672E+01  0.17630722696E+02 -0.20496113128E+03  0.20572078527E+03  0.00000000000E+00 0.  1.
         -1    1    1    2    0  502  0.14986928211E+02 -0.63094461686E+02 -0.51341324828E+02  0.82713062740E+02  0.00000000000E+00 0. -1.
<mgrwt>
<rscale>  1 0.30000000E+03</rscale>
<asrwt>0</asrwt>
<pdfrwt beam="1">  1       21 0.61245419E-01 0.30000000E+03</pdfrwt>
<pdfrwt beam="2">0</pdfrwt>
<totfact> 0.23975380E+02</totfact>
</mgrwt>
</event>
<event>
 6    1  0.1280499E-001  0.3000000E+03  0.7818608E-02  0.1093470E+00
         21   -1    0    0  501  502  0.00000000000E+00  0.00000000000E+00  0.20465424770E+01  0.20465424770E+01  0.00000000000E+00 0. -1.
         13   -1    0    0    0    0 -0.00000000000E+00 -0.00000000000E+00 -0.10000000000E+04  0.10000000000E+04  0.00000000000E+00 0.  1.
    9000005    2    1    2  501    0  0.38879003632E+02  0.16244730930E+02 -0.68023377873E+03  0.68154496292E+03  0.31740430706E+01 0.  0.
         13    1    3    3    0    0  0.10871458235E+02  0.30501111761E+01 -0.17743080772E+03  0.17778971655E+03  0.00000000000E+00 0.  1.
          1    1    3    3  501    0  0.28007545396E+02  0.13194619754E+02 -0.50280297101E+03  0.50375524637E+03  0.00000000000E+00 0.  1.
         -1    1    1    2    0  502 -0.38879003632E+02 -0.16244730930E+02 -0.31771967879E+03  0.32050157955E+03  0.00000000000E+00 0. -1.
<mgrwt>
<rscale>  1 0.30000000E+03</rscale>
<asrwt>0</asrwt>
<pdfrwt beam="1">  1       21 0.74419883E-02 0.30000000E+03</pdfrwt>
<pdfrwt beam="2">0</pdfrwt>
<totfact> 0.14500232E+04</totfact>
</mgrwt>
</event>
<event>
 6    1  0.1280499E-001  0.3000000E+03  0.7818608E-02  0.1093470E+00
         21   -1    0    0  501  502  0.00000000000E+00  0.00000000000E+00  0.38667463491E+01  0.38667463491E+01  0.00000000000E+00 0. -1.
         13   -1    0    0    0    0 -0.00000000000E+00 -0.00000000000E+00 -0.10000000000E+04  0.10000000000E+04  0.00000000000E+00 0.  1.
    9000005    2    1    2  501    0 -0.40390807907E+02 -0.79063504455E+01 -0.87422190259E+03  0.87519543930E+03  0.30322036823E+01 0.  0.
         13    1    3    3    0    0 -0.17204601813E+01 -0.94699353882E+00 -0.46636858589E+02  0.46678189330E+02  0.00000000000E+00 0.  1.
          3    1    3    3  501    0 -0.38670347726E+02 -0.69593569067E+01 -0.82758504400E+03  0.82851724997E+03  0.00000000000E+00 0.  1.
         -1    1    1    2    0  502  0.40390807907E+02  0.79063504455E+01 -0.12191135106E+03  0.12867130705E+03  0.00000000000E+00 0. -1.
<mgrwt>
<rscale>  1 0.30000000E+03</rscale>
<asrwt>0</asrwt>
<pdfrwt beam="1">  1       21 0.14060925E-01 0.30000000E+03</pdfrwt>
<pdfrwt beam="2">0</pdfrwt>
<totfact> 0.46395052E+03</totfact>
</mgrwt>
</event>
<event>
 6    1  0.1280499E-001  0.3000000E+03  0.7818608E-02  0.1093470E+00
         21   -1    0    0  501  502  0.00000000000E+00  0.00000000000E+00  0.12345417478E+01  0.12345417478E+01  0.00000000000E+00 0. -1.
         13   -1    0    0    0    0 -0.00000000000E+00 -0.00000000000E+00 -0.10000000000E+04  0.10000000000E+04  0.00000000000E+00 0.  1.
    9000005    2    1    2  501    0  0.31105914667E+02 -0.62050531948E+01 -0.71301410656E+03  0.71372816685E+03  0.35636204099E+01 0.  0.
         13    1    3    3    0    0  0.20353887868E+02 -0.56130539566E+01 -0.45581907809E+03  0.45630781176E+03  0.00000000000E+00 0.  1.
          1    1    3    3  501    0  0.10752026799E+02 -0.59199923818E+00 -0.25719502847E+03  0.25742035509E+03  0.00000000000E+00 0.  1.
         -3    1    1    2    0  502 -0.31105914667E+02  0.62050531948E+01 -0.28575135169E+03  0.28750637490E+03  0.00000000000E+00 0. -1.
<mgrwt>
<rscale>  1 0.30000000E+03</rscale>
<asrwt>0</asrwt>
<pdfrwt beam="1">  1       21 0.44892522E-02 0.30000000E+03</pdfrwt>
<pdfrwt beam="2">0</pdfrwt>
<totfact> 0.34598282E+04</totfact>
</mgrwt>
</event>
<event>
 6    1  0.1280499E-001  0.3000000E+03  0.7818608E-02  0.1093470E+00
         21   -1    0    0  501  502  0.00000000000E+00  0.00000000000E+00  0.18790636139E+01  0.18790636139E+01  0.00000000000E+00 0. -1.
         13   -1    0    0    0    0 -0.00000000000E+00 -0.00000000000E+00 -0.10000000000E+04  0.10000000000E+04  0.00000000000E+00 0.  1.
    9000005    2    1    2  501    0 -0.17870632171E+02 -0.27150958466E+02 -0.83013168731E+03  0.83077406122E+03  0.32231159338E+01 0.  0.
         13    1    3    3    0    0 -0.14088954422E+02 -0.23318563743E+02 -0.70690557966E+03  0.70743038711E+03  0.00000000000E+00 0.  1.
          1    1    3    3  501    0 -0.37816777494E+01 -0.38323947231E+01 -0.12322610766E+03  0.12334367412E+03  0.00000000000E+00 0.  1.
         -3    1    1    2    0  502  0.17870632171E+02  0.27150958466E+02 -0.16798924907E+03  0.17110500239E+03  0.00000000000E+00 0. -1.
<mgrwt>
<rscale>  1 0.30000000E+03</rscale>
<asrwt>0</asrwt>
<pdfrwt beam="1">  1       21 0.68329730E-02 0.30000000E+03</pdfrwt>
<pdfrwt beam="2">0</pdfrwt>
<totfact> 0.16827230E+04</totfact>
</mgrwt>
</event>
<event>
 6    1  0.1280499E-001  0.3000000E+03  0.7818608E-02  0.1093470E+00
         21   -1    0    0  501  502  0.00000000000E+00  0.00000000000E+00  0.10067990277E+01  0.10067990277E+01  0.00000000000E+00 0. -1.
         13   -1    0    0    0    0 -0.00000000000E+00 -0.00000000000E+00 -0.10000000000E+04  0.10000000000E+04  0.00000000000E+00 0.  1.
    9000005    2    1    2  501    0  0.30289414728E+02 -0.69575762989E+00 -0.64456101851E+03  0.64528203930E+03  0.34743241765E+01 0.  0.
         13    1    3    3    0    0  0.15318165878E+02 -0.13828806533E+01 -0.29683694157E+03  0.29723514000E+03  0.00000000000E+00 0.  1.
          3    1    3    3  501    0  0.14971248850E+02  0.68712302339E+00 -0.34772407694E+03  0.34804689930E+03  0.00000000000E+00 0.  1.
         -1    1    1    2    0  502 -0.30289414728E+02  0.69575762989E+00 -0.35443218246E+03  0.35572475973E+03  0.00000000000E+00 0. -1.
<mgrwt>
<rscale>  1 0.30000000E+03</rscale>
<asrwt>0</asrwt>
<pdfrwt beam="1">  1       21 0.36610951E-02 0.30000000E+03</pdfrwt>
<pdfrwt beam="2">0</pdfrwt>
<totfact> 0.48793349E+04</totfact>
</mgrwt>
</event>
<event>
 6    1  0.1280499E-001  0.3000000E+03  0.7818608E-02  0.1093470E+00
         21   -1    0    0  501  502  0.00000000000E+00  0.00000000000E+00  0.10085687154E+01  0.10085687154E+01  0.00000000000E+00 0. -1.
         13   -1    0    0    0    0 -0.00000000000E+00 -0.00000000000E+00 -0.10000000000E+04  0.10000000000E+04  0.00000000000E+00 0.  1.
    9000005    2    1    2  501    0 -0.98786332447E+01 -0.29499036438E+02 -0.59377353221E+03  0.59459827569E+03  0.35101789441E+01 0.  0.
         13    1    3    3    0    0 -0.71485813992E+01 -0.24723360880E+02 -0.50346723101E+03  0.50412458727E+03  0.00000000000E+00 0.  1.
          1    1    3    3  501    0 -0.27300518455E+01 -0.47756755573E+01 -0.90306301195E+02  0.90473688416E+02  0.00000000000E+00 0.  1.
         -1    1    1    2    0  502  0.98786332447E+01  0.29499036438E+02 -0.40521789908E+03  0.40641029303E+03  0.00000000000E+00 0. -1.
<mgrwt>
<rscale>  1 0.30000000E+03</rscale>
<asrwt>0</asrwt>
<pdfrwt beam="1">  1       21 0.36675303E-02 0.30000000E+03</pdfrwt>
<pdfrwt beam="2">0</pdfrwt>
<totfact> 0.48649780E+04</totfact>
</mgrwt>
</event>
<event>
 6    1  0.1280499E-001  0.3000000E+03  0.7818608E-02  0.1093470E+00
         21   -1    0    0  501  502  0.00000000000E+00  0.00000000000E+00  0.20617809291E+01  0.20617809291E+01  0.00000000000E+00 0. -1.
         13   -1    0    0    0    0 -0.00000000000E+00 -0.00000000000E+00 -0.10000000000E+04  0.10000000000E+04  0.00000000000E+00 0.  1.
    9000005    2    1    2  501    0 -0.10167266157E+02 -0.29267208519E+02 -0.86475118412E+03  0.86531848466E+03  0.46396833086E+01 0.  0.
         13    1    3    3    0    0 -0.98521152786E+01 -0.23923581651E+02 -0.68820004925E+03  0.68868622007E+03  0.00000000000E+00 0.  1.
          1    1    3    3  501    0 -0.31515087874E+00 -0.53436268680E+01 -0.17655113487E+03  0.17663226459E+03  0.00000000000E+00 0.  1.
         -3    1    1    2    0  502  0.10167266157E+02  0.29267208519E+02 -0.13318703495E+03  0.13674329627E+03  0.00000000000E+00 0. -1.
<mgrwt>
<rscale>  1 0.30000000E+03</rscale>
<asrwt>0</asrwt>
<pdfrwt beam="1">  1       21 0.74974010E-02 0.30000000E+03</pdfrwt>
<pdfrwt beam="2">0</pdfrwt>
<totfact> 0.14313146E+04</totfact>
</mgrwt>
</event>
<event>
 6    1  0.1280499E-001  0.3000000E+03  0.7818608E-02  0.1093470E+00
         21   -1    0    0  501  502  0.00000000000E+00  0.00000000000E+00  0.10183085909E+01  0.10183085909E+01  0.00000000000E+00 0. -1.
         13   -1    0    0    0    0 -0.00000000000E+00 -0.00000000000E+00 -0.10000000000E+04  0.10000000000E+04  0.00000000000E+00 0.  1.
    9000005    2    1    2  501    0 -0.28160025386E+02 -0.14280210110E+02 -0.43666919060E+03  0.43782006641E+03  0.30849798327E+01 0.  0.
         13    1    3    3    0    0 -0.77384358323E+01 -0.33283392996E+01 -0.13459269217E+03  0.13485604924E+03  0.00000000000E+00 0.  1.
          1    1    3    3  501    0 -0.20421589554E+02 -0.10951870811E+02 -0.30207649844E+03  0.30296401718E+03  0.00000000000E+00 0.  1.
         -3    1    1    2    0  502  0.28160025386E+02  0.14280210110E+02 -0.56231250080E+03  0.56319824218E+03  0.00000000000E+00 0. -1.
<mgrwt>
<rscale>  1 0.30000000E+03</rscale>
<asrwt>0</asrwt>
<pdfrwt beam="1">  1       21 0.37029481E-02 0.30000000E+03</pdfrwt>
<pdfrwt beam="2">0</pdfrwt>
<totfact> 0.47871398E+04</totfact>
</mgrwt>
</event>
<event>
 6    1  0.1280499E-001  0.3000000E+03  0.7818608E-02  0.1093470E+00
         21   -1    0    0  501  502  0.00000000000E+00  0.00000000000E+00  0.34314990050E+01  0.34314990050E+01  0.00000000000E+00 0. -1.
         13   -1    0    0    0    0 -0.00000000000E+00 -0.00000000000E+00 -0.10000000000E+04  0.10000000000E+04  0.00000000000E+00 0.  1.
    9000005    2    1    2  501    0  0.18225067288E+02  0.38305382152E+02 -0.84409245094E+03  0.84516463191E+03  0.34254809337E+01 0.  0.
         13    1    3    3    0    0  0.10517039061E+02  0.21488840677E+02 -0.44235629080E+03  0.44300278373E+03  0.00000000000E+00 0.  1.
          1    1    3    3  501    0  0.77080282271E+01  0.16816541475E+02 -0.40173616014E+03  0.40216184818E+03  0.00000000000E+00 0.  1.
         -3    1    1    2    0  502 -0.18225067288E+02 -0.38305382152E+02 -0.15247605006E+03  0.15826686710E+03  0.00000000000E+00 0. -1.
<mgrwt>
<rscale>  1 0.30000000E+03</rscale>
<asrwt>0</asrwt>
<pdfrwt beam="1">  1       21 0.12478205E-01 0.30000000E+03</pdfrwt>
<pdfrwt beam="2">0</pdfrwt>
<totfact> 0.57720109E+03</totfact>
</mgrwt>
</event>
<event>
 6    1  0.1280499E-001  0.3000000E+03  0.7818608E-02  0.1093470E+00
         21   -1    0    0  501  502  0.00000000000E+00  0.00000000000E+00  0.15485661847E+01  0.15485661847E+01  0.00000000000E+00 0. -1.
         13   -1    0    0    0    0 -0.00000000000E+00 -0.00000000000E+00 -0.10000000000E+04  0.10000000000E+04  0.00000000000E+00 0.  1.
    9000005    2    1    2  501    0  0.30521827088E+02 -0.13743525319E+02 -0.76159935158E+03  0.76234284871E+03  0.35468611128E+01 0.  0.
         13    1    3    3    0    0  0.29637361173E+02 -0.13488688995E+02 -0.75021686555E+03  0.75092320730E+03  0.00000000000E+00 0.  1.
          3    1    3    3  501    0  0.88446591516E+00 -0.25483632360E+00 -0.11382486030E+02  0.11419641401E+02  0.00000000000E+00 0.  1.
         -1    1    1    2    0  502 -0.30521827088E+02  0.13743525319E+02 -0.23685208223E+03  0.23920571748E+03  0.00000000000E+00 0. -1.
<mgrwt>
<rscale>  1 0.30000000E+03</rscale>
<asrwt>0</asrwt>
<pdfrwt beam="1">  1       21 0.56311616E-02 0.30000000E+03</pdfrwt>
<pdfrwt beam="2">0</pdfrwt>
<totfact> 0.23503992E+04</totfact>
</mgrwt>
</event>
<event>
 6    1  0.1280499E-001  0.3000000E+03  0.7818608E-02  0.1093470E+00
         21   -1    0    0  501  502  0.00000000000E+00  0.00000000000E+00  0.11201891634E+01  0.11201891634E+01  0.00000000000E+00 0. -1.
         13   -1    0    0    0    0 -0.00000000000E+00 -0.00000000000E+00 -0.10000000000E+04  0.10000000000E+04  0.00000000000E+00 0.  1.
    9000005    2    1    2  501    0  0.32004286742E+01 -0.33205471598E+02 -0.47791036490E+03  0.47908378269E+03  0.31792871177E+01 0.  0.
         13    1    3    3    0    0  0.31040567350E+01 -0.25750636771E+02 -0.35352495485E+03  0.35447513900E+03  0.00000000000E+00 0.  1.
          3    1    3    3  501    0  0.96371939212E-01 -0.74548348268E+01 -0.12438541005E+03  0.12460864369E+03  0.00000000000E+00 0.  1.
         -3    1    1    2    0  502 -0.32004286742E+01  0.33205471598E+02 -0.52096944594E+03  0.52203640648E+03  0.00000000000E+00 0. -1.
<mgrwt>
<rscale>  1 0.30000000E+03</rscale>
<asrwt>0</asrwt>
<pdfrwt beam="1">  1       21 0.40734237E-02 0.30000000E+03</pdfrwt>
<pdfrwt beam="2">0</pdfrwt>
<totfact> 0.40778281E+04</totfact>
</mgrwt>
</event>
<event>
 6    1  0.1280499E-001  0.3000000E+03  0.7818608E-02  0.1093470E+00
         21   -1    0    0  501  502  0.00000000000E+00  0.00000000000E+00  0.22151032103E+01  0.22151032103E+01  0.00000000000E+00 0. -1.
         13   -1    0    0    0    0 -0.00000000000E+00 -0.00000000000E+00 -0.10000000000E+04  0.10000000000E+04  0.00000000000E+00 0.  1.
    9000005    2    1    2  501    0 -0.89347798292E+01 -0.32319687332E+02 -0.85031422135E+03  0.85098021109E+03  0.29414550537E+01 0.  0.
         13    1    3    3    0    0 -0.66240320976E+01 -0.18564470872E+02 -0.50242650638E+03  0.50281299873E+03  0.00000000000E+00 0.  1.
          3    1    3    3  501    0 -0.23107477316E+01 -0.13755216460E+02 -0.34788771497E+03  0.34816721236E+03  0.00000000000E+00 0.  1.
         -3    1    1    2    0  502  0.89347798292E+01  0.32319687332E+02 -0.14747067544E+03  0.15123489212E+03  0.00000000000E+00 0. -1.
<mgrwt>
<rscale>  1 0.30000000E+03</rscale>
<asrwt>0</asrwt>
<pdfrwt beam="1">  1       21 0.80549378E-02 0.30000000E+03</pdfrwt>
<pdfrwt beam="2">0</pdfrwt>
<totfact> 0.12621206E+04</totfact>
</mgrwt>
</event>
<event>
 6    1  0.1280499E-001  0.3000000E+03  0.7818608E-02  0.1093470E+00
         21   -1    0    0  501  502  0.00000000000E+00  0.00000000000E+00  0.18821559731E+01  0.18821559731E+01  0.00000000000E+00 0. -1.
         13   -1    0    0    0    0 -0.00000000000E+00 -0.00000000000E+00 -0.10000000000E+04  0.10000000000E+04  0.00000000000E+00 0.  1.
    9000005    2    1    2  501    0  0.11600081508E+02 -0.40121574467E+02 -0.36774508580E+03  0.37012736419E+03  0.36762701215E+01 0.  0.
         13    1    3    3    0    0  0.76274860343E+01 -0.27492250292E+02 -0.23582296704E+03  0.23754257335E+03  0.00000000000E+00 0.  1.
          1    1    3    3  501    0  0.39725954739E+01 -0.12629324175E+02 -0.13192211876E+03  0.13258479084E+03  0.00000000000E+00 0.  1.
         -1    1    1    2    0  502 -0.11600081508E+02  0.40121574467E+02 -0.63037275823E+03  0.63175479179E+03  0.00000000000E+00 0. -1.
<mgrwt>
<rscale>  1 0.30000000E+03</rscale>
<asrwt>0</asrwt>
<pdfrwt beam="1">  1       21 0.68442180E-02 0.30000000E+03</pdfrwt>
<pdfrwt beam="2">0</pdfrwt>
<totfact> 0.16779231E+04</totfact>
</mgrwt>
</event>
<event>
 6    1  0.1280499E-001  0.3000000E+03  0.7818608E-02  0.1093470E+00
         21   -1    0    0  501  502  0.00000000000E+00  0.00000000000E+00  0.18851482708E+01  0.18851482708E+01  0.00000000000E+00 0. -1.
         13   -1    0    0    0    0 -0.00000000000E+00 -0.00000000000E+00 -0.10000000000E+04  0.10000000000E+04  0.00000000000E+00 0.  1.
    9000005    2    1    2  501    0  0.28747955291E+02 -0.16224089985E+02 -0.82355272479E+03  0.82422929503E+03  0.50173944544E+01 0.  0.
         13    1    3    3    0    0  0.97291606361E+01 -0.62059849181E+01 -0.34736336751E+03  0.34755500270E+03  0.00000000000E+00 0.  1.
          3    1    3    3  501    0  0.19018794655E+02 -0.10018105067E+02 -0.47618935727E+03  0.47667429232E+03  0.00000000000E+00 0.  1.
         -1    1    1    2    0  502 -0.28747955291E+02  0.16224089985E+02 -0.17456212694E+03  0.17765585325E+03  0.00000000000E+00 0. -1.
<mgrwt>
<rscale>  1 0.30000000E+03</rscale>
<asrwt>0</asrwt>
<pdfrwt beam="1">  1       21 0.68550991E-02 0.30000000E+03</pdfrwt>
<pdfrwt beam="2">0</pdfrwt>
<totfact> 0.16732984E+04</totfact>
</mgrwt>
</event>
<event>
 6    1  0.1280499E-001  0.3000000E+03  0.7818608E-02  0.1093470E+00
         21   -1    0    0  501  502  0.00000000000E+00  0.00000000000E+00  0.19339923823E+01  0.19339923823E+01  0.00000000000E+00 0. -1.
         13   -1    0    0    0    0 -0.00000000000E+00 -0.00000000000E+00 -0.10000000000E+04  0.10000000000E+04  0.00000000000E+00 0.  1.
    9000005    2    1    2  501    0 -0.15326055371E+01 -0.34632751697E+02 -0.80401812764E+03  0.80481383590E+03  0.88535023740E+01 0.  0.
         13    1    3    3    0    0  0.72914002951E+00 -0.14249157013E+00 -0.48269584127E+02  0.48275301147E+02  0.00000000000E+00 0.  1.
          3    1    3    3  501    0 -0.22617455666E+01 -0.34490260126E+02 -0.75574854351E+03  0.75653853475E+03  0.00000000000E+00 0.  1.
         -1    1    1    2    0  502  0.15326055371E+01  0.34632751697E+02 -0.19404787998E+03  0.19712015649E+03  0.00000000000E+00 0. -1.
<mgrwt>
<rscale>  1 0.30000000E+03</rscale>
<asrwt>0</asrwt>
<pdfrwt beam="1">  1       21 0.70327144E-02 0.30000000E+03</pdfrwt>
<pdfrwt beam="2">0</pdfrwt>
<totfact> 0.16004863E+04</totfact>
</mgrwt>
</event>
<event>
 6    1  0.1280499E-001  0.3000000E+03  0.7818608E-02  0.1093470E+00
         21   -1    0    0  501  502  0.00000000000E+00  0.00000000000E+00  0.39358016262E+01  0.39358016262E+01  0.00000000000E+00 0. -1.
         13   -1    0    0    0    0 -0.00000000000E+00 -0.00000000000E+00 -0.10000000000E+04  0.10000000000E+04  0.00000000000E+00 0.  1.
    9000005    2    1    2  501    0  0.38529207293E+02  0.91437092174E+01 -0.88676220108E+03  0.88768162387E+03  0.79597024398E+01 0.  0.
         13    1    3    3    0    0  0.29259188033E+02  0.33682995299E+01 -0.65815631055E+03  0.65881497755E+03  0.00000000000E+00 0.  1.
          1    1    3    3  501    0  0.92700192601E+01  0.57754096875E+01 -0.22860589053E+03  0.22886664633E+03  0.00000000000E+00 0.  1.
         -3    1    1    2    0  502 -0.38529207293E+02 -0.91437092174E+01 -0.10930199729E+03  0.11625417775E+03  0.00000000000E+00 0. -1.
<mgrwt>
<rscale>  1 0.30000000E+03</rscale>
<asrwt>0</asrwt>
<pdfrwt beam="1">  1       21 0.14312036E-01 0.30000000E+03</pdfrwt>
<pdfrwt beam="2">0</pdfrwt>
<totfact> 0.44908553E+03</totfact>
</mgrwt>
</event>
<event>
 6    1  0.1280499E-001  0.3000000E+03  0.7818608E-02  0.1093470E+00
         21   -1    0    0  501  502  0.00000000000E+00  0.00000000000E+00  0.10326786507E+01  0.10326786507E+01  0.00000000000E+00 0. -1.
         13   -1    0    0    0    0 -0.00000000000E+00 -0.00000000000E+00 -0.10000000000E+04  0.10000000000E+04  0.00000000000E+00 0.  1.
    9000005    2    1    2  501    0  0.31810771959E+02 -0.31795484994E+01 -0.46626263841E+03  0.46736956960E+03  0.33811041578E+01 0.  0.
         13    1    3    3    0    0  0.11532671167E+02 -0.13201659429E+01 -0.14646381604E+03  0.14692309128E+03  0.00000000000E+00 0.  1.
          3    1    3    3  501    0  0.20278100791E+02 -0.18593825565E+01 -0.31979882237E+03  0.32044647831E+03  0.00000000000E+00 0.  1.
         -3    1    1    2    0  502 -0.31810771959E+02  0.31795484994E+01 -0.53270468294E+03  0.53366310906E+03  0.00000000000E+00 0. -1.
<mgrwt>
<rscale>  1 0.30000000E+03</rscale>
<asrwt>0</asrwt>
<pdfrwt beam="1">  1       21 0.37552030E-02 0.30000000E+03</pdfrwt>
<pdfrwt beam="2">0</pdfrwt>
<totfact> 0.46758275E+04</totfact>
</mgrwt>
</event>
<event>
 6    1  0.1280499E-001  0.3000000E+03  0.7818608E-02  0.1093470E+00
         21   -1    0    0  501  502  0.00000000000E+00  0.00000000000E+00  0.15175784086E+01  0.15175784086E+01  0.00000000000E+00 0. -1.
         13   -1    0    0    0    0 -0.00000000000E+00 -0.00000000000E+00 -0.10000000000E+04  0.10000000000E+04  0.00000000000E+00 0.  1.
    9000005    2    1    2  501    0 -0.30485547825E+02  0.23299889280E+02 -0.41665825796E+03  0.41842958260E+03  0.26378409280E+01 0.  0.
         13    1    3    3    0    0 -0.29735357039E+02  0.22252183893E+02 -0.39925588313E+03  0.40097956477E+03  0.00000000000E+00 0.  1.
          1    1    3    3  501    0 -0.75019078675E+00  0.10477053870E+01 -0.17402374829E+02  0.17450017837E+02  0.00000000000E+00 0.  1.
         -3    1    1    2    0  502  0.30485547825E+02 -0.23299889280E+02 -0.58182416363E+03  0.58308799580E+03  0.00000000000E+00 0. -1.
<mgrwt>
<rscale>  1 0.30000000E+03</rscale>
<asrwt>0</asrwt>
<pdfrwt beam="1">  1       21 0.55184786E-02 0.30000000E+03</pdfrwt>
<pdfrwt beam="2">0</pdfrwt>
<totfact> 0.24333780E+04</totfact>
</mgrwt>
</event>
<event>
 6    1  0.1280499E-001  0.3000000E+03  0.7818608E-02  0.1093470E+00
         21   -1    0    0  501  502  0.00000000000E+00  0.00000000000E+00  0.20419574672E+02  0.20419574672E+02  0.00000000000E+00 0. -1.
         13   -1    0    0    0    0 -0.00000000000E+00 -0.00000000000E+00 -0.10000000000E+04  0.10000000000E+04  0.00000000000E+00 0.  1.
    9000005    2    1    2  501    0  0.70357497198E+02  0.50754140302E+02 -0.89518604474E+03  0.89938829092E+03  0.38836829676E+01 0.  0.
         13    1    3    3    0    0  0.11143261952E+01  0.14159923559E+01 -0.21175514098E+02  0.21252038832E+02  0.00000000000E+00 0.  1.
          3    1    3    3  501    0  0.69243171003E+02  0.49338147947E+02 -0.87401053064E+03  0.87813625209E+03  0.00000000000E+00 0.  1.
         -3    1    1    2    0  502 -0.70357497198E+02 -0.50754140302E+02 -0.84394380593E+02  0.12103128375E+03  0.00000000000E+00 0. -1.
<mgrwt>
<rscale>  1 0.30000000E+03</rscale>
<asrwt>0</asrwt>
<pdfrwt beam="1">  1       21 0.74253155E-01 0.30000000E+03</pdfrwt>
<pdfrwt beam="2">0</pdfrwt>
<totfact> 0.15364438E+02</totfact>
</mgrwt>
</event>
<event>
 6    1  0.1280499E-001  0.3000000E+03  0.7818608E-02  0.1093470E+00
         21   -1    0    0  501  502  0.00000000000E+00  0.00000000000E+00  0.13562205104E+01  0.13562205104E+01  0.00000000000E+00 0. -1.
         13   -1    0    0    0    0 -0.00000000000E+00 -0.00000000000E+00 -0.10000000000E+04  0.10000000000E+04  0.00000000000E+00 0.  1.
    9000005    2    1    2  501    0  0.29044616105E+02 -0.12677565590E+02 -0.75350030363E+03  0.75417281866E+03  0.31020058954E+01 0.  0.
         13    1    3    3    0    0  0.29044655424E+02 -0.12523024882E+02 -0.75192725767E+03  0.75259219966E+03  0.00000000000E+00 0.  1.
          1    1    3    3  501    0 -0.39318820712E-04 -0.15454070810E+00 -0.15730459564E+01  0.15806189967E+01  0.00000000000E+00 0.  1.
         -3    1    1    2    0  502 -0.29044616105E+02  0.12677565590E+02 -0.24514347586E+03  0.24718340185E+03  0.00000000000E+00 0. -1.
<mgrwt>
<rscale>  1 0.30000000E+03</rscale>
<asrwt>0</asrwt>
<pdfrwt beam="1">  1       21 0.49317213E-02 0.30000000E+03</pdfrwt>
<pdfrwt beam="2">0</pdfrwt>
<totfact> 0.29487572E+04</totfact>
</mgrwt>
</event>
<event>
 6    1  0.1280499E-001  0.3000000E+03  0.7818608E-02  0.1093470E+00
         21   -1    0    0  501  502  0.00000000000E+00  0.00000000000E+00  0.30048089497E+01  0.30048089497E+01  0.00000000000E+00 0. -1.
         13   -1    0    0    0    0 -0.00000000000E+00 -0.00000000000E+00 -0.10000000000E+04  0.10000000000E+04  0.00000000000E+00 0.  1.
    9000005    2    1    2  501    0  0.19556297332E+02  0.30790077551E+02 -0.87221397996E+03  0.87300162329E+03  0.66430253208E+01 0.  0.
         13    1    3    3    0    0  0.86012133063E+01  0.16845548147E+02 -0.51595634779E+03  0.51630292095E+03  0.00000000000E+00 0.  1.
          3    1    3    3  501    0  0.10955084025E+02  0.13944529404E+02 -0.35625763218E+03  0.35669870234E+03  0.00000000000E+00 0.  1.
         -3    1    1    2    0  502 -0.19556297332E+02 -0.30790077551E+02 -0.12478121109E+03  0.13000318566E+03  0.00000000000E+00 0. -1.
<mgrwt>
<rscale>  1 0.30000000E+03</rscale>
<asrwt>0</asrwt>
<pdfrwt beam="1">  1       21 0.10926601E-01 0.30000000E+03</pdfrwt>
<pdfrwt beam="2">0</pdfrwt>
<totfact> 0.73398777E+03</totfact>
</mgrwt>
</event>
<event>
 6    1  0.1280499E-001  0.3000000E+03  0.7818608E-02  0.1093470E+00
         21   -1    0    0  501  502  0.00000000000E+00  0.00000000000E+00  0.15889364771E+01  0.15889364771E+01  0.00000000000E+00 0. -1.
         13   -1    0    0    0    0 -0.00000000000E+00 -0.00000000000E+00 -0.10000000000E+04  0.10000000000E+04  0.00000000000E+00 0.  1.
    9000005    2    1    2  501    0 -0.57383169961E+01 -0.33221276277E+02 -0.76569965183E+03  0.76644816458E+03  0.32016692046E+01 0.  0.
         13    1    3    3    0    0 -0.38042894135E+01 -0.19584338316E+02 -0.48675138987E+03  0.48716007068E+03  0.00000000000E+00 0.  1.
          1    1    3    3  501    0 -0.19340275825E+01 -0.13636937962E+02 -0.27894826196E+03  0.27928809390E+03  0.00000000000E+00 0.  1.
         -3    1    1    2    0  502  0.57383169961E+01  0.33221276277E+02 -0.23271141169E+03  0.23514077190E+03  0.00000000000E+00 0. -1.
<mgrwt>
<rscale>  1 0.30000000E+03</rscale>
<asrwt>0</asrwt>
<pdfrwt beam="1">  1       21 0.57779630E-02 0.30000000E+03</pdfrwt>
<pdfrwt beam="2">0</pdfrwt>
<totfact> 0.22486481E+04</totfact>
</mgrwt>
</event>
<event>
 6    1  0.1280499E-001  0.3000000E+03  0.7818608E-02  0.1093470E+00
         21   -1    0    0  501  502  0.00000000000E+00  0.00000000000E+00  0.23416954015E+01  0.23416954015E+01  0.00000000000E+00 0. -1.
         13   -1    0    0    0    0 -0.00000000000E+00 -0.00000000000E+00 -0.10000000000E+04  0.10000000000E+04  0.00000000000E+00 0.  1.
    9000005    2    1    2  501    0  0.12771075911E+02 -0.32004645043E+02 -0.15273496509E+03  0.15671598190E+03  0.66732105004E+01 0.  0.
         13    1    3    3    0    0  0.55242410855E+01 -0.97405526112E+01 -0.62352270482E+02  0.63349832194E+02  0.00000000000E+00 0.  1.
          3    1    3    3  501    0  0.72468348255E+01 -0.22264092432E+02 -0.90382694605E+02  0.93366149706E+02  0.00000000000E+00 0.  1.
         -1    1    1    2    0  502 -0.12771075911E+02  0.32004645043E+02 -0.84492333951E+03  0.84562571350E+03  0.00000000000E+00 0. -1.
<mgrwt>
<rscale>  1 0.30000000E+03</rscale>
<asrwt>0</asrwt>
<pdfrwt beam="1">  1       21 0.85152740E-02 0.30000000E+03</pdfrwt>
<pdfrwt beam="2">0</pdfrwt>
<totfact> 0.11444969E+04</totfact>
</mgrwt>
</event>
<event>
 6    1  0.1280499E-001  0.3000000E+03  0.7818608E-02  0.1093470E+00
         21   -1    0    0  501  502  0.00000000000E+00  0.00000000000E+00  0.15197649447E+01  0.15197649447E+01  0.00000000000E+00 0. -1.
         13   -1    0    0    0    0 -0.00000000000E+00 -0.00000000000E+00 -0.10000000000E+04  0.10000000000E+04  0.00000000000E+00 0.  1.
    9000005    2    1    2  501    0  0.32936952780E+02 -0.18585386333E+02 -0.61404325410E+03  0.61522706275E+03  0.49961374536E+01 0.  0.
         13    1    3    3    0    0  0.20739796813E+02 -0.11962965663E+02 -0.42601402564E+03  0.42668630370E+03  0.00000000000E+00 0.  1.
          1    1    3    3  501    0  0.12197155968E+02 -0.66224206699E+01 -0.18802922846E+03  0.18854075905E+03  0.00000000000E+00 0.  1.
         -1    1    1    2    0  502 -0.32936952780E+02  0.18585386333E+02 -0.38443698096E+03  0.38629270220E+03  0.00000000000E+00 0. -1.
<mgrwt>
<rscale>  1 0.30000000E+03</rscale>
<asrwt>0</asrwt>
<pdfrwt beam="1">  1       21 0.55264296E-02 0.30000000E+03</pdfrwt>
<pdfrwt beam="2">0</pdfrwt>
<totfact> 0.24273762E+04</totfact>
</mgrwt>
</event>
<event>
 6    1  0.1280499E-001  0.3000000E+03  0.7818608E-02  0.1093470E+00
         21   -1    0    0  501  502  0.00000000000E+00  0.00000000000E+00  0.14959667840E+01  0.14959667840E+01  0.00000000000E+00 0. -1.
         13   -1    0    0    0    0 -0.00000000000E+00 -0.00000000000E+00 -0.10000000000E+04  0.10000000000E+04  0.00000000000E+00 0.  1.
    9000005    2    1    2  501    0  0.22493580069E+02 -0.28213710252E+02 -0.32249775716E+03  0.32452738564E+03  0.33535154423E+01 0.  0.
         13    1    3    3    0    0  0.22434702385E+02 -0.27372600628E+02 -0.31428515602E+03  0.31627161496E+03  0.00000000000E+00 0.  1.
          3    1    3    3  501    0  0.58877684428E-01 -0.84110962437E+00 -0.82126011429E+01  0.82557706796E+01  0.00000000000E+00 0.  1.
         -3    1    1    2    0  502 -0.22493580069E+02  0.28213710252E+02 -0.67600627605E+03  0.67696858114E+03  0.00000000000E+00 0. -1.
<mgrwt>
<rscale>  1 0.30000000E+03</rscale>
<asrwt>0</asrwt>
<pdfrwt beam="1">  1       21 0.54398907E-02 0.30000000E+03</pdfrwt>
<pdfrwt beam="2">0</pdfrwt>
<totfact> 0.24939494E+04</totfact>
</mgrwt>
</event>
<event>
 6    1  0.1280499E-001  0.3000000E+03  0.7818608E-02  0.1093470E+00
         21   -1    0    0  501  502  0.00000000000E+00  0.00000000000E+00  0.13216704067E+01  0.13216704067E+01  0.00000000000E+00 0. -1.
         13   -1    0    0    0    0 -0.00000000000E+00 -0.00000000000E+00 -0.10000000000E+04  0.10000000000E+04  0.00000000000E+00 0.  1.
    9000005    2    1    2  501    0 -0.24712789742E+01  0.32252470974E+02 -0.27444572910E+03  0.27636705892E+03  0.34588913253E+01 0.  0.
         13    1    3    3    0    0 -0.21240849151E+00  0.22782683527E+02 -0.18876491323E+03  0.19013492119E+03  0.00000000000E+00 0.  1.
          1    1    3    3  501    0 -0.22588704827E+01  0.94697874473E+01 -0.85680815866E+02  0.86232137731E+02  0.00000000000E+00 0.  1.
         -3    1    1    2    0  502  0.24712789742E+01 -0.32252470974E+02 -0.72423260049E+03  0.72495461149E+03  0.00000000000E+00 0. -1.
<mgrwt>
<rscale>  1 0.30000000E+03</rscale>
<asrwt>0</asrwt>
<pdfrwt beam="1">  1       21 0.48060843E-02 0.30000000E+03</pdfrwt>
<pdfrwt beam="2">0</pdfrwt>
<totfact> 0.30812052E+04</totfact>
</mgrwt>
</event>
<event>
 6    1  0.1280499E-001  0.3000000E+03  0.7818608E-02  0.1093470E+00
         21   -1    0    0  501  502  0.00000000000E+00  0.00000000000E+00  0.11462316216E+01  0.11462316216E+01  0.00000000000E+00 0. -1.
         13   -1    0    0    0    0 -0.00000000000E+00 -0.00000000000E+00 -0.10000000000E+04  0.10000000000E+04  0.00000000000E+00 0.  1.
    9000005    2    1    2  501    0  0.19878629863E+02  0.25952118981E+02 -0.37544644949E+03  0.37688237903E+03  0.34086340793E+01 0.  0.
         13    1    3    3    0    0  0.42100661540E+01  0.39627487421E+01 -0.56478561833E+02  0.56773726154E+02  0.00000000000E+00 0.  1.
          1    1    3    3  501    0  0.15668563709E+02  0.21989370239E+02 -0.31896788766E+03  0.32010865288E+03  0.00000000000E+00 0.  1.
         -1    1    1    2    0  502 -0.19878629863E+02 -0.25952118981E+02 -0.62340731889E+03  0.62426385259E+03  0.00000000000E+00 0. -1.
<mgrwt>
<rscale>  1 0.30000000E+03</rscale>
<asrwt>0</asrwt>
<pdfrwt beam="1">  1       21 0.41681238E-02 0.30000000E+03</pdfrwt>
<pdfrwt beam="2">0</pdfrwt>
<totfact> 0.39227772E+04</totfact>
</mgrwt>
</event>
<event>
 6    1  0.1280499E-001  0.3000000E+03  0.7818608E-02  0.1093470E+00
         21   -1    0    0  501  502  0.00000000000E+00  0.00000000000E+00  0.53302318781E+01  0.53302318781E+01  0.00000000000E+00 0. -1.
         13   -1    0    0    0    0 -0.00000000000E+00 -0.00000000000E+00 -0.10000000000E+04  0.10000000000E+04  0.00000000000E+00 0.  1.
    9000005    2    1    2  501    0  0.28366716818E+02  0.15264911888E+02 -0.94839035837E+03  0.94894342558E+03  0.34153969001E+01 0.  0.
         13    1    3    3    0    0  0.15313732864E+02  0.63035096534E+01 -0.48285309346E+03  0.48313699352E+03  0.00000000000E+00 0.  1.
          3    1    3    3  501    0  0.13052983954E+02  0.89614022346E+01 -0.46553726491E+03  0.46580643205E+03  0.00000000000E+00 0.  1.
         -1    1    1    2    0  502 -0.28366716818E+02 -0.15264911888E+02 -0.46279409752E+02  0.56386806302E+02  0.00000000000E+00 0. -1.
<mgrwt>
<rscale>  1 0.30000000E+03</rscale>
<asrwt>0</asrwt>
<pdfrwt beam="1">  1       21 0.19382702E-01 0.30000000E+03</pdfrwt>
<pdfrwt beam="2">0</pdfrwt>
<totfact> 0.25468495E+03</totfact>
</mgrwt>
</event>
<event>
 6    1  0.1280499E-001  0.3000000E+03  0.7818608E-02  0.1093470E+00
         21   -1    0    0  501  502  0.00000000000E+00  0.00000000000E+00  0.32826655917E+01  0.32826655917E+01  0.00000000000E+00 0. -1.
         13   -1    0    0    0    0 -0.00000000000E+00 -0.00000000000E+00 -0.10000000000E+04  0.10000000000E+04  0.00000000000E+00 0.  1.
    9000005    2    1    2  501    0 -0.40278639203E+02 -0.12083101215E+02 -0.83886209154E+03  0.83992218134E+03  0.33603553565E+01 0.  0.
         13    1    3    3    0    0 -0.23658949625E+02 -0.57798048929E+01 -0.46330692908E+03  0.46394661609E+03  0.00000000000E+00 0.  1.
          1    1    3    3  501    0 -0.16619689578E+02 -0.63032963217E+01 -0.37555516245E+03  0.37597556526E+03  0.00000000000E+00 0.  1.
         -3    1    1    2    0  502  0.40278639203E+02  0.12083101215E+02 -0.15785524287E+03  0.16336048425E+03  0.00000000000E+00 0. -1.
<mgrwt>
<rscale>  1 0.30000000E+03</rscale>
<asrwt>0</asrwt>
<pdfrwt beam="1">  1       21 0.11936991E-01 0.30000000E+03</pdfrwt>
<pdfrwt beam="2">0</pdfrwt>
<totfact> 0.62565978E+03</totfact>
</mgrwt>
</event>
<event>
 6    1  0.1280499E-001  0.3000000E+03  0.7818608E-02  0.1093470E+00
         21   -1    0    0  501  502  0.00000000000E+00  0.00000000000E+00  0.17618871426E+01  0.17618871426E+01  0.00000000000E+00 0. -1.
         13   -1    0    0    0    0 -0.00000000000E+00 -0.00000000000E+00 -0.10000000000E+04  0.10000000000E+04  0.00000000000E+00 0.  1.
    9000005    2    1    2  501    0 -0.82338266965E+01  0.32612427093E+02 -0.79818558804E+03  0.79890139570E+03  0.34410451635E+01 0.  0.
         13    1    3    3    0    0 -0.28178786153E+01  0.62875788239E+01 -0.14688333675E+03  0.14704485269E+03  0.00000000000E+00 0.  1.
          1    1    3    3  501    0 -0.54159480812E+01  0.26324848269E+02 -0.65130225129E+03  0.65185654302E+03  0.00000000000E+00 0.  1.
         -3    1    1    2    0  502  0.82338266965E+01 -0.32612427093E+02 -0.20005252481E+03  0.20286049144E+03  0.00000000000E+00 0. -1.
<mgrwt>
<rscale>  1 0.30000000E+03</rscale>
<asrwt>0</asrwt>
<pdfrwt beam="1">  1       21 0.64068758E-02 0.30000000E+03</pdfrwt>
<pdfrwt beam="2">0</pdfrwt>
<totfact> 0.18814096E+04</totfact>
</mgrwt>
</event>
<event>
 6    1  0.1280499E-001  0.3000000E+03  0.7818608E-02  0.1093470E+00
         21   -1    0    0  501  502  0.00000000000E+00  0.00000000000E+00  0.10034838660E+01  0.10034838660E+01  0.00000000000E+00 0. -1.
         13   -1    0    0    0    0 -0.00000000000E+00 -0.00000000000E+00 -0.10000000000E+04  0.10000000000E+04  0.00000000000E+00 0.  1.
    9000005    2    1    2  501    0  0.28404015514E+02 -0.13748011229E+02 -0.50124421060E+03  0.50225188881E+03  0.39249509045E+01 0.  0.
         13    1    3    3    0    0  0.25423328406E+02 -0.13435856153E+02 -0.46134298380E+03  0.46223826816E+03  0.00000000000E+00 0.  1.
          3    1    3    3  501    0  0.29806871080E+01 -0.31215507597E+00 -0.39901226805E+02  0.40013620643E+02  0.00000000000E+00 0.  1.
         -1    1    1    2    0  502 -0.28404015514E+02  0.13748011229E+02 -0.49775230553E+03  0.49875159506E+03  0.00000000000E+00 0. -1.
<mgrwt>
<rscale>  1 0.30000000E+03</rscale>
<asrwt>0</asrwt>
<pdfrwt beam="1">  1       21 0.36490399E-02 0.30000000E+03</pdfrwt>
<pdfrwt beam="2">0</pdfrwt>
<totfact> 0.49064100E+04</totfact>
</mgrwt>
</event>
<event>
 6    1  0.1280499E-001  0.3000000E+03  0.7818608E-02  0.1093470E+00
         21   -1    0    0  501  502  0.00000000000E+00  0.00000000000E+00  0.12118128183E+01  0.12118128183E+01  0.00000000000E+00 0. -1.
         13   -1    0    0    0    0 -0.00000000000E+00 -0.00000000000E+00 -0.10000000000E+04  0.10000000000E+04  0.00000000000E+00 0.  1.
    9000005    2    1    2  501    0  0.28639322146E+02  0.18570505308E+02 -0.59255948991E+03  0.59355162476E+03  0.34216564770E+01 0.  0.
         13    1    3    3    0    0  0.18684598147E+02  0.13828201731E+02 -0.38962429432E+03  0.39031708148E+03  0.00000000000E+00 0.  1.
          3    1    3    3  501    0  0.99547239983E+01  0.47423035771E+01 -0.20293519559E+03  0.20323454328E+03  0.00000000000E+00 0.  1.
         -1    1    1    2    0  502 -0.28639322146E+02 -0.18570505308E+02 -0.40622869727E+03  0.40766018806E+03  0.00000000000E+00 0. -1.
<mgrwt>
<rscale>  1 0.30000000E+03</rscale>
<asrwt>0</asrwt>
<pdfrwt beam="1">  1       21 0.44066014E-02 0.30000000E+03</pdfrwt>
<pdfrwt beam="2">0</pdfrwt>
<totfact> 0.35705607E+04</totfact>
</mgrwt>
</event>
<event>
 6    1  0.1280499E-001  0.3000000E+03  0.7818608E-02  0.1093470E+00
         21   -1    0    0  501  502  0.00000000000E+00  0.00000000000E+00  0.26639478293E+01  0.26639478293E+01  0.00000000000E+00 0. -1.
         13   -1    0    0    0    0 -0.00000000000E+00 -0.00000000000E+00 -0.10000000000E+04  0.10000000000E+04  0.00000000000E+00 0.  1.
    9000005    2    1    2  501    0  0.38605038168E+02  0.32275708100E+02 -0.60757048288E+03  0.60966360520E+03  0.39685675582E+01 0.  0.
         13    1    3    3    0    0  0.22835179685E+02  0.16557510491E+02 -0.34342495223E+03  0.34458133206E+03  0.00000000000E+00 0.  1.
          3    1    3    3  501    0  0.15769858483E+02  0.15718197608E+02 -0.26414553065E+03  0.26508227314E+03  0.00000000000E+00 0.  1.
         -3    1    1    2    0  502 -0.38605038168E+02 -0.32275708100E+02 -0.38976556929E+03  0.39300034263E+03  0.00000000000E+00 0. -1.
<mgrwt>
<rscale>  1 0.30000000E+03</rscale>
<asrwt>0</asrwt>
<pdfrwt beam="1">  1       21 0.96871034E-02 0.30000000E+03</pdfrwt>
<pdfrwt beam="2">0</pdfrwt>
<totfact> 0.91055611E+03</totfact>
</mgrwt>
</event>
<event>
 6    1  0.1280499E-001  0.3000000E+03  0.7818608E-02  0.1093470E+00
         21   -1    0    0  501  502  0.00000000000E+00  0.00000000000E+00  0.18397563226E+01  0.18397563226E+01  0.00000000000E+00 0. -1.
         13   -1    0    0    0    0 -0.00000000000E+00 -0.00000000000E+00 -0.10000000000E+04  0.10000000000E+04  0.00000000000E+00 0.  1.
    9000005    2    1    2  501    0  0.26712927943E+02 -0.17755468426E+02 -0.83124211273E+03  0.83186770092E+03  0.34036278301E+01 0.  0.
         13    1    3    3    0    0  0.48908268404E+01 -0.24418416188E+01 -0.17175936508E+03  0.17184633330E+03  0.00000000000E+00 0.  1.
          3    1    3    3  501    0  0.21822101103E+02 -0.15313626807E+02 -0.65948274765E+03  0.66002136762E+03  0.00000000000E+00 0.  1.
         -3    1    1    2    0  502 -0.26712927943E+02  0.17755468426E+02 -0.16691813095E+03  0.16997205540E+03  0.00000000000E+00 0. -1.
<mgrwt>
<rscale>  1 0.30000000E+03</rscale>
<asrwt>0</asrwt>
<pdfrwt beam="1">  1       21 0.66900371E-02 0.30000000E+03</pdfrwt>
<pdfrwt beam="2">0</pdfrwt>
<totfact> 0.17456182E+04</totfact>
</mgrwt>
</event>
<event>
 6    1  0.1280499E-001  0.3000000E+03  0.7818608E-02  0.1093470E+00
         21   -1    0    0  501  502  0.00000000000E+00  0.00000000000E+00  0.13370197643E+01  0.13370197643E+01  0.00000000000E+00 0. -1.
         13   -1    0    0    0    0 -0.00000000000E+00 -0.00000000000E+00 -0.10000000000E+04  0.10000000000E+04  0.00000000000E+00 0.  1.
    9000005    2    1    2  501    0 -0.32655083845E+02 -0.13916269952E+02 -0.61632375463E+03  0.61735355592E+03  0.32288409125E+01 0.  0.
         13    1    3    3    0    0 -0.20061684756E+02 -0.88485696550E+01 -0.35331734870E+03  0.35399705828E+03  0.00000000000E+00 0.  1.
          3    1    3    3  501    0 -0.12593399088E+02 -0.50677002968E+01 -0.26300640593E+03  0.26335649764E+03  0.00000000000E+00 0.  1.
         -3    1    1    2    0  502  0.32655083845E+02  0.13916269952E+02 -0.38233922561E+03  0.38398346385E+03  0.00000000000E+00 0. -1.
<mgrwt>
<rscale>  1 0.30000000E+03</rscale>
<asrwt>0</asrwt>
<pdfrwt beam="1">  1       21 0.48619003E-02 0.30000000E+03</pdfrwt>
<pdfrwt beam="2">0</pdfrwt>
<totfact> 0.30212395E+04</totfact>
</mgrwt>
</event>
<event>
 6    1  0.1280499E-001  0.3000000E+03  0.7818608E-02  0.1093470E+00
         21   -1    0    0  501  502  0.00000000000E+00  0.00000000000E+00  0.13141804649E+01  0.13141804649E+01  0.00000000000E+00 0. -1.
         13   -1    0    0    0    0 -0.00000000000E+00 -0.00000000000E+00 -0.10000000000E+04  0.10000000000E+04  0.00000000000E+00 0.  1.
    9000005    2    1    2  501    0  0.32322991907E+02 -0.89241967095E+01 -0.31269610245E+03  0.31450539409E+03  0.32207658537E+01 0.  0.
         13    1    3    3    0    0  0.12984160144E+02 -0.51130204241E+01 -0.13514968726E+03  0.13586820584E+03  0.00000000000E+00 0.  1.
          1    1    3    3  501    0  0.19338831764E+02 -0.38111762854E+01 -0.17754641519E+03  0.17863718824E+03  0.00000000000E+00 0.  1.
         -1    1    1    2    0  502 -0.32322991907E+02  0.89241967095E+01 -0.68598971709E+03  0.68680878638E+03  0.00000000000E+00 0. -1.
<mgrwt>
<rscale>  1 0.30000000E+03</rscale>
<asrwt>0</asrwt>
<pdfrwt beam="1">  1       21 0.47788481E-02 0.30000000E+03</pdfrwt>
<pdfrwt beam="2">0</pdfrwt>
<totfact> 0.31111445E+04</totfact>
</mgrwt>
</event>
<event>
 6    1  0.1280499E-001  0.3000000E+03  0.7818608E-02  0.1093470E+00
         21   -1    0    0  501  502  0.00000000000E+00  0.00000000000E+00  0.16736911195E+01  0.16736911195E+01  0.00000000000E+00 0. -1.
         13   -1    0    0    0    0 -0.00000000000E+00 -0.00000000000E+00 -0.10000000000E+04  0.10000000000E+04  0.00000000000E+00 0.  1.
    9000005    2    1    2  501    0  0.64619573302E+01 -0.38194326471E+02 -0.65829126526E+03  0.65943927678E+03  0.34937627124E+01 0.  0.
         13    1    3    3    0    0  0.30548522356E+01 -0.18054579362E+02 -0.28174818531E+03  0.28234259311E+03  0.00000000000E+00 0.  1.
          1    1    3    3  501    0  0.34071050945E+01 -0.20139747108E+02 -0.37654307994E+03  0.37709668367E+03  0.00000000000E+00 0.  1.
         -3    1    1    2    0  502 -0.64619573302E+01  0.38194326471E+02 -0.34003504363E+03  0.34223441434E+03  0.00000000000E+00 0. -1.
<mgrwt>
<rscale>  1 0.30000000E+03</rscale>
<asrwt>0</asrwt>
<pdfrwt beam="1">  1       21 0.60861624E-02 0.30000000E+03</pdfrwt>
<pdfrwt beam="2">0</pdfrwt>
<totfact> 0.20559678E+04</totfact>
</mgrwt>
</event>
<event>
 6    1  0.1280499E-001  0.3000000E+03  0.7818608E-02  0.1093470E+00
         21   -1    0    0  501  502  0.00000000000E+00  0.00000000000E+00  0.23943916543E+01  0.23943916543E+01  0.00000000000E+00 0. -1.
         13   -1    0    0    0    0 -0.00000000000E+00 -0.00000000000E+00 -0.10000000000E+04  0.10000000000E+04  0.00000000000E+00 0.  1.
    9000005    2    1    2  501    0  0.43020793388E+02 -0.57339850549E+01 -0.72906515754E+03  0.73036931750E+03  0.44349477897E+01 0.  0.
         13    1    3    3    0    0  0.25615811257E+02 -0.27673713773E+01 -0.46682725191E+03  0.46753771106E+03  0.00000000000E+00 0.  1.
          1    1    3    3  501    0  0.17404982131E+02 -0.29666136775E+01 -0.26223790563E+03  0.26283160645E+03  0.00000000000E+00 0.  1.
         -1    1    1    2    0  502 -0.43020793388E+02  0.57339850549E+01 -0.26854045081E+03  0.27202507415E+03  0.00000000000E+00 0. -1.
<mgrwt>
<rscale>  1 0.30000000E+03</rscale>
<asrwt>0</asrwt>
<pdfrwt beam="1">  1       21 0.87068971E-02 0.30000000E+03</pdfrwt>
<pdfrwt beam="2">0</pdfrwt>
<totfact> 0.11004121E+04</totfact>
</mgrwt>
</event>
<event>
 6    1  0.1280499E-001  0.3000000E+03  0.7818608E-02  0.1093470E+00
         21   -1    0    0  501  502  0.00000000000E+00  0.00000000000E+00  0.13168182749E+01  0.13168182749E+01  0.00000000000E+00 0. -1.
         13   -1    0    0    0    0 -0.00000000000E+00 -0.00000000000E+00 -0.10000000000E+04  0.10000000000E+04  0.00000000000E+00 0.  1.
    9000005    2    1    2  501    0 -0.18665888325E+02 -0.26723453907E+02 -0.71270189604E+03  0.71348378658E+03  0.72500144926E+01 0.  0.
         13    1    3    3    0    0 -0.90241495231E+01 -0.72200567676E+01 -0.22428331650E+03  0.22458087753E+03  0.00000000000E+00 0.  1.
          3    1    3    3  501    0 -0.96417388024E+01 -0.19503397140E+02 -0.48841857954E+03  0.48890290904E+03  0.00000000000E+00 0.  1.
         -1    1    1    2    0  502  0.18665888325E+02  0.26723453907E+02 -0.28598128568E+03  0.28783303170E+03  0.00000000000E+00 0. -1.
<mgrwt>
<rscale>  1 0.30000000E+03</rscale>
<asrwt>0</asrwt>
<pdfrwt beam="1">  1       21 0.47884402E-02 0.30000000E+03</pdfrwt>
<pdfrwt beam="2">0</pdfrwt>
<totfact> 0.31005488E+04</totfact>
</mgrwt>
</event>
<event>
 6    1  0.1280499E-001  0.3000000E+03  0.7818608E-02  0.1093470E+00
         21   -1    0    0  501  502  0.00000000000E+00  0.00000000000E+00  0.67160848110E+01  0.67160848110E+01  0.00000000000E+00 0. -1.
         13   -1    0    0    0    0 -0.00000000000E+00 -0.00000000000E+00 -0.10000000000E+04  0.10000000000E+04  0.00000000000E+00 0.  1.
    9000005    2    1    2  501    0  0.44849164992E+02 -0.18301857324E+02 -0.90260082829E+03  0.90390641683E+03  0.34856225998E+01 0.  0.
         13    1    3    3    0    0  0.19984069497E+02 -0.89578847513E+01 -0.37888758423E+03  0.37951997077E+03  0.00000000000E+00 0.  1.
          3    1    3    3  501    0  0.24865095494E+02 -0.93439725724E+01 -0.52371324406E+03  0.52438644605E+03  0.00000000000E+00 0.  1.
         -3    1    1    2    0  502 -0.44849164992E+02  0.18301857324E+02 -0.90683086898E+02  0.10280966799E+03  0.00000000000E+00 0. -1.
<mgrwt>
<rscale>  1 0.30000000E+03</rscale>
<asrwt>0</asrwt>
<pdfrwt beam="1">  1       21 0.24422178E-01 0.30000000E+03</pdfrwt>
<pdfrwt beam="2">0</pdfrwt>
<totfact> 0.16325037E+03</totfact>
</mgrwt>
</event>
<event>
 6    1  0.1280499E-001  0.3000000E+03  0.7818608E-02  0.1093470E+00
         21   -1    0    0  501  502  0.00000000000E+00  0.00000000000E+00  0.12594977296E+01  0.12594977296E+01  0.00000000000E+00 0. -1.
         13   -1    0    0    0    0 -0.00000000000E+00 -0.00000000000E+00 -0.10000000000E+04  0.10000000000E+04  0.00000000000E+00 0.  1.
    9000005    2    1    2  501    0 -0.30831218699E+02 -0.25498282852E+01 -0.27500700822E+03  0.27686510509E+03  0.82683842553E+01 0.  0.
         13    1    3    3    0    0 -0.25619586568E+02 -0.52512188602E+01 -0.22460289228E+03  0.22612031694E+03  0.00000000000E+00 0.  1.
          1    1    3    3  501    0 -0.52116321308E+01  0.27013905750E+01 -0.50404115944E+02  0.50744788152E+02  0.00000000000E+00 0.  1.
         -1    1    1    2    0  502  0.30831218699E+02  0.25498282852E+01 -0.72373349405E+03  0.72439439264E+03  0.00000000000E+00 0. -1.
<mgrwt>
<rscale>  1 0.30000000E+03</rscale>
<asrwt>0</asrwt>
<pdfrwt beam="1">  1       21 0.45800014E-02 0.30000000E+03</pdfrwt>
<pdfrwt beam="2">0</pdfrwt>
<totfact> 0.33442407E+04</totfact>
</mgrwt>
</event>
<event>
 6    1  0.1280499E-001  0.3000000E+03  0.7818608E-02  0.1093470E+00
         21   -1    0    0  501  502  0.00000000000E+00  0.00000000000E+00  0.15758778550E+01  0.15758778550E+01  0.00000000000E+00 0. -1.
         13   -1    0    0    0    0 -0.00000000000E+00 -0.00000000000E+00 -0.10000000000E+04  0.10000000000E+04  0.00000000000E+00 0.  1.
    9000005    2    1    2  501    0 -0.12265941111E+02 -0.36275710473E+02 -0.37337809612E+03  0.37535793247E+03  0.39992897899E+01 0.  0.
         13    1    3    3    0    0  0.26385618575E-01 -0.30417861574E+01 -0.26045583010E+02  0.26222615307E+02  0.00000000000E+00 0.  1.
          3    1    3    3  501    0 -0.12292326729E+02 -0.33233924316E+02 -0.34733251311E+03  0.34913531716E+03  0.00000000000E+00 0.  1.
         -3    1    1    2    0  502  0.12265941111E+02  0.36275710473E+02 -0.62504602602E+03  0.62621794539E+03  0.00000000000E+00 0. -1.
<mgrwt>
<rscale>  1 0.30000000E+03</rscale>
<asrwt>0</asrwt>
<pdfrwt beam="1">  1       21 0.57304770E-02 0.30000000E+03</pdfrwt>
<pdfrwt beam="2">0</pdfrwt>
<totfact> 0.22808110E+04</totfact>
</mgrwt>
</event>
<event>
 6    1  0.1280499E-001  0.3000000E+03  0.7818608E-02  0.1093470E+00
         21   -1    0    0  501  502  0.00000000000E+00  0.00000000000E+00  0.17268322711E+01  0.17268322711E+01  0.00000000000E+00 0. -1.
         13   -1    0    0    0    0 -0.00000000000E+00 -0.00000000000E+00 -0.10000000000E+04  0.10000000000E+04  0.00000000000E+00 0.  1.
    9000005    2    1    2  501    0  0.14524522895E+02 -0.35721320729E+02 -0.68473046250E+03  0.68582177925E+03  0.29550131553E+01 0.  0.
         13    1    3    3    0    0  0.14094494412E+02 -0.34420541518E+02 -0.64886849843E+03  0.64993365562E+03  0.00000000000E+00 0.  1.
          3    1    3    3  501    0  0.43002848284E+00 -0.13007792107E+01 -0.35861964069E+02  0.35888123634E+02  0.00000000000E+00 0.  1.
         -1    1    1    2    0  502 -0.14524522895E+02  0.35721320729E+02 -0.31354270523E+03  0.31590505302E+03  0.00000000000E+00 0. -1.
<mgrwt>
<rscale>  1 0.30000000E+03</rscale>
<asrwt>0</asrwt>
<pdfrwt beam="1">  1       21 0.62794033E-02 0.30000000E+03</pdfrwt>
<pdfrwt beam="2">0</pdfrwt>
<totfact> 0.19479345E+04</totfact>
</mgrwt>
</event>
<event>
 6    1  0.1280499E-001  0.3000000E+03  0.7818608E-02  0.1093470E+00
         21   -1    0    0  501  502  0.00000000000E+00  0.00000000000E+00  0.11407516021E+01  0.11407516021E+01  0.00000000000E+00 0. -1.
         13   -1    0    0    0    0 -0.00000000000E+00 -0.00000000000E+00 -0.10000000000E+04  0.10000000000E+04  0.00000000000E+00 0.  1.
    9000005    2    1    2  501    0  0.28932204412E+02  0.17032398068E+02 -0.53768900442E+03  0.53875004131E+03  0.38686559112E+01 0.  0.
         13    1    3    3    0    0  0.28691574184E+02  0.16540910294E+02 -0.52064447606E+03  0.52169673048E+03  0.00000000000E+00 0.  1.
          1    1    3    3  501    0  0.24063022833E+00  0.49148777417E+00 -0.17044528365E+02  0.17053310832E+02  0.00000000000E+00 0.  1.
         -1    1    1    2    0  502 -0.28932204412E+02 -0.17032398068E+02 -0.46117024397E+03  0.46239071029E+03  0.00000000000E+00 0. -1.
<mgrwt>
<rscale>  1 0.30000000E+03</rscale>
<asrwt>0</asrwt>
<pdfrwt beam="1">  1       21 0.41481964E-02 0.30000000E+03</pdfrwt>
<pdfrwt beam="2">0</pdfrwt>
<totfact> 0.39546320E+04</totfact>
</mgrwt>
</event>
<event>
 6    1  0.1280499E-001  0.3000000E+03  0.7818608E-02  0.1093470E+00
         21   -1    0    0  501  502  0.00000000000E+00  0.00000000000E+00  0.23068305392E+01  0.23068305392E+01  0.00000000000E+00 0. -1.
         13   -1    0    0    0    0 -0.00000000000E+00 -0.00000000000E+00 -0.10000000000E+04  0.10000000000E+04  0.00000000000E+00 0.  1.
    9000005    2    1    2  501    0  0.19358494044E+02 -0.43884033259E+02 -0.49852684363E+03  0.50084139752E+03  0.35400545698E+01 0.  0.
         13    1    3    3    0    0  0.16409451486E+02 -0.38873189990E+02 -0.42770903786E+03  0.42978531392E+03  0.00000000000E+00 0.  1.
          1    1    3    3  501    0  0.29490425579E+01 -0.50108432689E+01 -0.70817805766E+02  0.71056083594E+02  0.00000000000E+00 0.  1.
         -3    1    1    2    0  502 -0.19358494044E+02  0.43884033259E+02 -0.49916632583E+03  0.50146543302E+03  0.00000000000E+00 0. -1.
<mgrwt>
<rscale>  1 0.30000000E+03</rscale>
<asrwt>0</asrwt>
<pdfrwt beam="1">  1       21 0.83884924E-02 0.30000000E+03</pdfrwt>
<pdfrwt beam="2">0</pdfrwt>
<totfact> 0.11751621E+04</totfact>
</mgrwt>
</event>
<event>
 6    1  0.1280499E-001  0.3000000E+03  0.7818608E-02  0.1093470E+00
         21   -1    0    0  501  502  0.00000000000E+00  0.00000000000E+00  0.28691478368E+01  0.28691478368E+01  0.00000000000E+00 0. -1.
         13   -1    0    0    0    0 -0.00000000000E+00 -0.00000000000E+00 -0.10000000000E+04  0.10000000000E+04  0.00000000000E+00 0.  1.
    9000005    2    1    2  501    0 -0.22022795479E+02 -0.29810086961E+02 -0.86041266539E+03  0.86121637731E+03  0.31700104207E+01 0.  0.
         13    1    3    3    0    0 -0.71659412636E+01 -0.75194981884E+01 -0.25419067107E+03  0.25440281215E+03  0.00000000000E+00 0.  1.
          1    1    3    3  501    0 -0.14856854215E+02 -0.22290588772E+02 -0.60622199432E+03  0.60681356516E+03  0.00000000000E+00 0.  1.
         -1    1    1    2    0  502  0.22022795479E+02  0.29810086961E+02 -0.13671818677E+03  0.14165277053E+03  0.00000000000E+00 0. -1.
<mgrwt>
<rscale>  1 0.30000000E+03</rscale>
<asrwt>0</asrwt>
<pdfrwt beam="1">  1       21 0.10433287E-01 0.30000000E+03</pdfrwt>
<pdfrwt beam="2">0</pdfrwt>
<totfact> 0.79744427E+03</totfact>
</mgrwt>
</event>
<event>
 6    1  0.1280499E-001  0.3000000E+03  0.7818608E-02  0.1093470E+00
         21   -1    0    0  501  502  0.00000000000E+00  0.00000000000E+00  0.43684878984E+01  0.43684878984E+01  0.00000000000E+00 0. -1.
         13   -1    0    0    0    0 -0.00000000000E+00 -0.00000000000E+00 -0.10000000000E+04  0.10000000000E+04  0.00000000000E+00 0.  1.
    9000005    2    1    2  501    0 -0.39850941405E+02  0.24193013813E+01 -0.89795760790E+03  0.89885004348E+03  0.30958897544E+01 0.  0.
         13    1    3    3    0    0 -0.30771187377E+02  0.31241828056E+01 -0.70100026592E+03  0.70168226378E+03  0.00000000000E+00 0.  1.
          3    1    3    3  501    0 -0.90797540276E+01 -0.70488142431E+00 -0.19695734198E+03  0.19716777970E+03  0.00000000000E+00 0.  1.
         -1    1    1    2    0  502  0.39850941405E+02 -0.24193013813E+01 -0.97673904207E+02  0.10551844442E+03  0.00000000000E+00 0. -1.
<mgrwt>
<rscale>  1 0.30000000E+03</rscale>
<asrwt>0</asrwt>
<pdfrwt beam="1">  1       21 0.15885444E-01 0.30000000E+03</pdfrwt>
<pdfrwt beam="2">0</pdfrwt>
<totfact> 0.37019015E+03</totfact>
</mgrwt>
</event>
<event>
 6    1  0.1280499E-001  0.3000000E+03  0.7818608E-02  0.1093470E+00
         21   -1    0    0  501  502  0.00000000000E+00  0.00000000000E+00  0.12302542626E+01  0.12302542626E+01  0.00000000000E+00 0. -1.
         13   -1    0    0    0    0 -0.00000000000E+00 -0.00000000000E+00 -0.10000000000E+04  0.10000000000E+04  0.00000000000E+00 0.  1.
    9000005    2    1    2  501    0 -0.14697655503E+02 -0.28657667290E+02 -0.69526097122E+03  0.69601744460E+03  0.38964235924E+01 0.  0.
         13    1    3    3    0    0 -0.77735581337E+01 -0.19155267460E+02 -0.45211718494E+03  0.45258955070E+03  0.00000000000E+00 0.  1.
          1    1    3    3  501    0 -0.69240973693E+01 -0.95023998302E+01 -0.24314378628E+03  0.24342789391E+03  0.00000000000E+00 0.  1.
         -1    1    1    2    0  502  0.14697655503E+02  0.28657667290E+02 -0.30350877452E+03  0.30521280966E+03  0.00000000000E+00 0. -1.
<mgrwt>
<rscale>  1 0.30000000E+03</rscale>
<asrwt>0</asrwt>
<pdfrwt beam="1">  1       21 0.44736613E-02 0.30000000E+03</pdfrwt>
<pdfrwt beam="2">0</pdfrwt>
<totfact> 0.34803069E+04</totfact>
</mgrwt>
</event>
<event>
 6    1  0.1280499E-001  0.3000000E+03  0.7818608E-02  0.1093470E+00
         21   -1    0    0  501  502  0.00000000000E+00  0.00000000000E+00  0.13211626821E+01  0.13211626821E+01  0.00000000000E+00 0. -1.
         13   -1    0    0    0    0 -0.00000000000E+00 -0.00000000000E+00 -0.10000000000E+04  0.10000000000E+04  0.00000000000E+00 0.  1.
    9000005    2    1    2  501    0 -0.32897574936E+02  0.47499942486E+01 -0.70119512502E+03  0.70198628005E+03  0.23067584971E+01 0.  0.
         13    1    3    3    0    0 -0.10771952125E+02  0.26473183141E+01 -0.23105455173E+03  0.23132066298E+03  0.00000000000E+00 0.  1.
          3    1    3    3  501    0 -0.22125622810E+02  0.21026759345E+01 -0.47014057330E+03  0.47066561707E+03  0.00000000000E+00 0.  1.
         -1    1    1    2    0  502  0.32897574936E+02 -0.47499942486E+01 -0.29748371229E+03  0.29933488263E+03  0.00000000000E+00 0. -1.
<mgrwt>
<rscale>  1 0.30000000E+03</rscale>
<asrwt>0</asrwt>
<pdfrwt beam="1">  1       21 0.48042381E-02 0.30000000E+03</pdfrwt>
<pdfrwt beam="2">0</pdfrwt>
<totfact> 0.30832204E+04</totfact>
</mgrwt>
</event>
<event>
 6    1  0.1280499E-001  0.3000000E+03  0.7818608E-02  0.1093470E+00
         21   -1    0    0  501  502  0.00000000000E+00  0.00000000000E+00  0.11612510520E+01  0.11612510520E+01  0.00000000000E+00 0. -1.
         13   -1    0    0    0    0 -0.00000000000E+00 -0.00000000000E+00 -0.10000000000E+04  0.10000000000E+04  0.00000000000E+00 0.  1.
    9000005    2    1    2  501    0 -0.26924484713E+02  0.13276218819E+02 -0.73517221631E+03  0.73579127103E+03  0.30693692218E+01 0.  0.
         13    1    3    3    0    0 -0.94980825419E+01  0.62169289697E+01 -0.26313636420E+03  0.26338111159E+03  0.00000000000E+00 0.  1.
          3    1    3    3  501    0 -0.17426402171E+02  0.70592898495E+01 -0.47203585211E+03  0.47241015944E+03  0.00000000000E+00 0.  1.
         -3    1    1    2    0  502  0.26924484713E+02 -0.13276218819E+02 -0.26366653264E+03  0.26536998002E+03  0.00000000000E+00 0. -1.
<mgrwt>
<rscale>  1 0.30000000E+03</rscale>
<asrwt>0</asrwt>
<pdfrwt beam="1">  1       21 0.42227400E-02 0.30000000E+03</pdfrwt>
<pdfrwt beam="2">0</pdfrwt>
<totfact> 0.38374893E+04</totfact>
</mgrwt>
</event>
<event>
 6    1  0.1280499E-001  0.3000000E+03  0.7818608E-02  0.1093470E+00
         21   -1    0    0  501  502  0.00000000000E+00  0.00000000000E+00  0.26369925818E+01  0.26369925818E+01  0.00000000000E+00 0. -1.
         13   -1    0    0    0    0 -0.00000000000E+00 -0.00000000000E+00 -0.10000000000E+04  0.10000000000E+04  0.00000000000E+00 0.  1.
    9000005    2    1    2  501    0  0.29451450973E+02  0.16630569335E+02 -0.87526436892E+03  0.87594034178E+03  0.63089665848E+01 0.  0.
         13    1    3    3    0    0  0.13961295334E+01  0.84684940750E+00 -0.92411142566E+02  0.92425567902E+02  0.00000000000E+00 0.  1.
          1    1    3    3  501    0  0.28055321439E+02  0.15783719928E+02 -0.78285322635E+03  0.78351477388E+03  0.00000000000E+00 0.  1.
         -3    1    1    2    0  502 -0.29451450973E+02 -0.16630569335E+02 -0.12209863850E+03  0.12669665080E+03  0.00000000000E+00 0. -1.
<mgrwt>
<rscale>  1 0.30000000E+03</rscale>
<asrwt>0</asrwt>
<pdfrwt beam="1">  1       21 0.95890842E-02 0.30000000E+03</pdfrwt>
<pdfrwt beam="2">0</pdfrwt>
<totfact> 0.92721992E+03</totfact>
</mgrwt>
</event>
<event>
 6    1  0.1280499E-001  0.3000000E+03  0.7818608E-02  0.1093470E+00
         21   -1    0    0  501  502  0.00000000000E+00  0.00000000000E+00  0.36835977207E+01  0.36835977207E+01  0.00000000000E+00 0. -1.
         13   -1    0    0    0    0 -0.00000000000E+00 -0.00000000000E+00 -0.10000000000E+04  0.10000000000E+04  0.00000000000E+00 0.  1.
    9000005    2    1    2  501    0 -0.52435626340E+02 -0.11064029057E+02 -0.73340281549E+03  0.73536389705E+03  0.29092387425E+01 0.  0.
         13    1    3    3    0    0 -0.36225336055E+02 -0.78555832117E+01 -0.48866732188E+03  0.49007115466E+03  0.00000000000E+00 0.  1.
          1    1    3    3  501    0 -0.16210290284E+02 -0.32084458449E+01 -0.24473549361E+03  0.24529274239E+03  0.00000000000E+00 0.  1.
         -3    1    1    2    0  502  0.52435626340E+02  0.11064029057E+02 -0.26291358679E+03  0.26831970067E+03  0.00000000000E+00 0. -1.
<mgrwt>
<rscale>  1 0.30000000E+03</rscale>
<asrwt>0</asrwt>
<pdfrwt beam="1">  1       21 0.13394929E-01 0.30000000E+03</pdfrwt>
<pdfrwt beam="2">0</pdfrwt>
<totfact> 0.50713327E+03</totfact>
</mgrwt>
</event>
<event>
 6    1  0.1280499E-001  0.3000000E+03  0.7818608E-02  0.1093470E+00
         21   -1    0    0  501  502  0.00000000000E+00  0.00000000000E+00  0.30011247811E+01  0.30011247811E+01  0.00000000000E+00 0. -1.
         13   -1    0    0    0    0 -0.00000000000E+00 -0.00000000000E+00 -0.10000000000E+04  0.10000000000E+04  0.00000000000E+00 0.  1.
    9000005    2    1    2  501    0 -0.31913724192E+02 -0.44451553119E+02 -0.51124387679E+03  0.51417360421E+03  0.31252755374E+01 0.  0.
         13    1    3    3    0    0 -0.24596418889E+02 -0.36389862453E+02 -0.41054354445E+03  0.41288643450E+03  0.00000000000E+00 0.  1.
          1    1    3    3  501    0 -0.73173053027E+01 -0.80616906662E+01 -0.10070033235E+03  0.10128716971E+03  0.00000000000E+00 0.  1.
         -3    1    1    2    0  502  0.31913724192E+02  0.44451553119E+02 -0.48575499843E+03  0.48882752057E+03  0.00000000000E+00 0. -1.
<mgrwt>
<rscale>  1 0.30000000E+03</rscale>
<asrwt>0</asrwt>
<pdfrwt beam="1">  1       21 0.10913204E-01 0.30000000E+03</pdfrwt>
<pdfrwt beam="2">0</pdfrwt>
<totfact> 0.73560866E+03</totfact>
</mgrwt>
</event>
<event>
 6    1  0.1280499E-001  0.3000000E+03  0.7818608E-02  0.1093470E+00
         21   -1    0    0  501  502  0.00000000000E+00  0.00000000000E+00  0.19248276181E+01  0.19248276181E+01  0.00000000000E+00 0. -1.
         13   -1    0    0    0    0 -0.00000000000E+00 -0.00000000000E+00 -0.10000000000E+04  0.10000000000E+04  0.00000000000E+00 0.  1.
    9000005    2    1    2  501    0  0.35568836206E+02  0.87596733411E+01 -0.77407154544E+03  0.77494575618E+03  0.35062203579E+01 0.  0.
         13    1    3    3    0    0  0.19366360019E+02  0.60556431581E+01 -0.45320649923E+03  0.45366050925E+03  0.00000000000E+00 0.  1.
          1    1    3    3  501    0  0.16202476187E+02  0.27040301830E+01 -0.32086504621E+03  0.32128524693E+03  0.00000000000E+00 0.  1.
         -1    1    1    2    0  502 -0.35568836206E+02 -0.87596733411E+01 -0.22400362694E+03  0.22697907143E+03  0.00000000000E+00 0. -1.
<mgrwt>
<rscale>  1 0.30000000E+03</rscale>
<asrwt>0</asrwt>
<pdfrwt beam="1">  1       21 0.69993879E-02 0.30000000E+03</pdfrwt>
<pdfrwt beam="2">0</pdfrwt>
<totfact> 0.16137742E+04</totfact>
</mgrwt>
</event>
<event>
 6    1  0.1280499E-001  0.3000000E+03  0.7818608E-02  0.1093470E+00
         21   -1    0    0  501  502  0.00000000000E+00  0.00000000000E+00  0.10231218610E+01  0.10231218610E+01  0.00000000000E+00 0. -1.
         13   -1    0    0    0    0 -0.00000000000E+00 -0.00000000000E+00 -0.10000000000E+04  0.10000000000E+04  0.00000000000E+00 0.  1.
    9000005    2    1    2  501    0  0.77265391382E+01 -0.30439187578E+02 -0.41424292686E+03  0.41544645111E+03  0.35082389064E+01 0.  0.
         13    1    3    3    0    0  0.59829711986E+01 -0.22014159210E+02 -0.31968635865E+03  0.32049927778E+03  0.00000000000E+00 0.  1.
          3    1    3    3  501    0  0.17435679396E+01 -0.84250283683E+01 -0.94556568208E+02  0.94947173330E+02  0.00000000000E+00 0.  1.
         -1    1    1    2    0  502 -0.77265391382E+01  0.30439187578E+02 -0.58473395128E+03  0.58557667075E+03  0.00000000000E+00 0. -1.
<mgrwt>
<rscale>  1 0.30000000E+03</rscale>
<asrwt>0</asrwt>
<pdfrwt beam="1">  1       21 0.37204510E-02 0.30000000E+03</pdfrwt>
<pdfrwt beam="2">0</pdfrwt>
<totfact> 0.47493952E+04</totfact>
</mgrwt>
</event>
<event>
 6    1  0.1280499E-001  0.3000000E+03  0.7818608E-02  0.1093470E+00
         21   -1    0    0  501  502  0.00000000000E+00  0.00000000000E+00  0.15527022933E+02  0.15527022933E+02  0.00000000000E+00 0. -1.
         13   -1    0    0    0    0 -0.00000000000E+00 -0.00000000000E+00 -0.10000000000E+04  0.10000000000E+04  0.00000000000E+00 0.  1.
    9000005    2    1    2  501    0 -0.63215999116E+02  0.10735159009E+03 -0.49427562430E+03  0.50974636781E+03  0.35128730873E+01 0.  0.
         13    1    3    3    0    0 -0.47538257359E+02  0.80969867861E+02 -0.36624966674E+03  0.37809367067E+03  0.00000000000E+00 0.  1.
          1    1    3    3  501    0 -0.15677741757E+02  0.26381722227E+02 -0.12802595756E+03  0.13165269714E+03  0.00000000000E+00 0.  1.
         -3    1    1    2    0  502  0.63215999116E+02 -0.10735159009E+03 -0.49019735277E+03  0.50578065513E+03  0.00000000000E+00 0. -1.
<mgrwt>
<rscale>  1 0.30000000E+03</rscale>
<asrwt>0</asrwt>
<pdfrwt beam="1">  1       21 0.56462021E-01 0.30000000E+03</pdfrwt>
<pdfrwt beam="2">0</pdfrwt>
<totfact> 0.28765108E+02</totfact>
</mgrwt>
</event>
<event>
 6    1  0.1280499E-001  0.3000000E+03  0.7818608E-02  0.1093470E+00
         21   -1    0    0  501  502  0.00000000000E+00  0.00000000000E+00  0.12370169709E+01  0.12370169709E+01  0.00000000000E+00 0. -1.
         13   -1    0    0    0    0 -0.00000000000E+00 -0.00000000000E+00 -0.10000000000E+04  0.10000000000E+04  0.00000000000E+00 0.  1.
    9000005    2    1    2  501    0  0.19571460253E+02 -0.27319380171E+02 -0.64396179460E+03  0.64484780010E+03  0.35357889003E+01 0.  0.
         13    1    3    3    0    0  0.12200125097E+02 -0.16460455951E+02 -0.35946771292E+03  0.36005114400E+03  0.00000000000E+00 0.  1.
          1    1    3    3  501    0  0.73713351564E+01 -0.10858924220E+02 -0.28449408168E+03  0.28479665610E+03  0.00000000000E+00 0.  1.
         -1    1    1    2    0  502 -0.19571460253E+02  0.27319380171E+02 -0.35480118843E+03  0.35638921687E+03  0.00000000000E+00 0. -1.
<mgrwt>
<rscale>  1 0.30000000E+03</rscale>
<asrwt>0</asrwt>
<pdfrwt beam="1">  1       21 0.44982530E-02 0.30000000E+03</pdfrwt>
<pdfrwt beam="2">0</pdfrwt>
<totfact> 0.34480900E+04</totfact>
</mgrwt>
</event>
<event>
 6    1  0.1280499E-001  0.3000000E+03  0.7818608E-02  0.1093470E+00
         21   -1    0    0  501  502  0.00000000000E+00  0.00000000000E+00  0.12996364707E+01  0.12996364707E+01  0.00000000000E+00 0. -1.
         13   -1    0    0    0    0 -0.00000000000E+00 -0.00000000000E+00 -0.10000000000E+04  0.10000000000E+04  0.00000000000E+00 0.  1.
    9000005    2    1    2  501    0 -0.31534502048E+02  0.53610927942E+01 -0.72840560770E+03  0.72911877534E+03  0.40364704569E+01 0.  0.
         13    1    3    3    0    0 -0.43140839111E+00 -0.23392134338E+00 -0.52234184664E+01  0.52464209581E+01  0.00000000000E+00 0.  1.
          3    1    3    3  501    0 -0.31103093657E+02  0.55950141376E+01 -0.72318218923E+03  0.72387235438E+03  0.00000000000E+00 0.  1.
         -1    1    1    2    0  502  0.31534502048E+02 -0.53610927942E+01 -0.27029475583E+03  0.27218086113E+03  0.00000000000E+00 0. -1.
<mgrwt>
<rscale>  1 0.30000000E+03</rscale>
<asrwt>0</asrwt>
<pdfrwt beam="1">  1       21 0.47259608E-02 0.30000000E+03</pdfrwt>
<pdfrwt beam="2">0</pdfrwt>
<totfact> 0.31705967E+04</totfact>
</mgrwt>
</event>
<event>
 6    1  0.1280499E-001  0.3000000E+03  0.7818608E-02  0.1093470E+00
         21   -1    0    0  501  502  0.00000000000E+00  0.00000000000E+00  0.31879625447E+01  0.31879625447E+01  0.00000000000E+00 0. -1.
         13   -1    0    0    0    0 -0.00000000000E+00 -0.00000000000E+00 -0.10000000000E+04  0.10000000000E+04  0.00000000000E+00 0.  1.
    9000005    2    1    2  501    0  0.13683761295E+02 -0.40828125053E+02 -0.82261640224E+03  0.82374911378E+03  0.32674298497E+01 0.  0.
         13    1    3    3    0    0  0.99767361507E+01 -0.31969046498E+02 -0.61607492360E+03  0.61698449469E+03  0.00000000000E+00 0.  1.
          1    1    3    3  501    0  0.37070251445E+01 -0.88590785553E+01 -0.20654147863E+03  0.20676461908E+03  0.00000000000E+00 0.  1.
         -3    1    1    2    0  502 -0.13683761295E+02  0.40828125053E+02 -0.17419563522E+03  0.17943884877E+03  0.00000000000E+00 0. -1.
<mgrwt>
<rscale>  1 0.30000000E+03</rscale>
<asrwt>0</asrwt>
<pdfrwt beam="1">  1       21 0.11592616E-01 0.30000000E+03</pdfrwt>
<pdfrwt beam="2">0</pdfrwt>
<totfact> 0.65972177E+03</totfact>
</mgrwt>
</event>
<event>
 6    1  0.1280499E-001  0.3000000E+03  0.7818608E-02  0.1093470E+00
         21   -1    0    0  501  502  0.00000000000E+00  0.00000000000E+00  0.62118832259E+01  0.62118832259E+01  0.00000000000E+00 0. -1.
         13   -1    0    0    0    0 -0.00000000000E+00 -0.00000000000E+00 -0.10000000000E+04  0.10000000000E+04  0.00000000000E+00 0.  1.
    9000005    2    1    2  501    0  0.39256080530E+02 -0.20196899079E+02 -0.91360267093E+03  0.91467686088E+03  0.38684498307E+01 0.  0.
         13    1    3    3    0    0  0.10894929868E+02 -0.38743162355E+01 -0.22404922376E+03  0.22434741918E+03  0.00000000000E+00 0.  1.
          1    1    3    3  501    0  0.28361150662E+02 -0.16322582843E+02 -0.68955344717E+03  0.69032944170E+03  0.00000000000E+00 0.  1.
         -1    1    1    2    0  502 -0.39256080530E+02  0.20196899079E+02 -0.80185445840E+02  0.91535022344E+02  0.00000000000E+00 0. -1.
<mgrwt>
<rscale>  1 0.30000000E+03</rscale>
<asrwt>0</asrwt>
<pdfrwt beam="1">  1       21 0.22588714E-01 0.30000000E+03</pdfrwt>
<pdfrwt beam="2">0</pdfrwt>
<totfact> 0.18993789E+03</totfact>
</mgrwt>
</event>
<event>
 6    1  0.1280499E-001  0.3000000E+03  0.7818608E-02  0.1093470E+00
         21   -1    0    0  501  502  0.00000000000E+00  0.00000000000E+00  0.30188321283E+01  0.30188321283E+01  0.00000000000E+00 0. -1.
         13   -1    0    0    0    0 -0.00000000000E+00 -0.00000000000E+00 -0.10000000000E+04  0.10000000000E+04  0.00000000000E+00 0.  1.
    9000005    2    1    2  501    0  0.31392791035E+02  0.27491416898E+02 -0.82451652779E+03  0.82557775061E+03  0.31356610887E+01 0.  0.
         13    1    3    3    0    0  0.19975882615E+01  0.16072083707E+01 -0.37807187504E+02  0.37894022017E+02  0.00000000000E+00 0.  1.
          1    1    3    3  501    0  0.29395202774E+02  0.25884208528E+02 -0.78670934028E+03  0.78768372859E+03  0.00000000000E+00 0.  1.
         -3    1    1    2    0  502 -0.31392791035E+02 -0.27491416898E+02 -0.17246464009E+03  0.17744108152E+03  0.00000000000E+00 0. -1.
<mgrwt>
<rscale>  1 0.30000000E+03</rscale>
<asrwt>0</asrwt>
<pdfrwt beam="1">  1       21 0.10977595E-01 0.30000000E+03</pdfrwt>
<pdfrwt beam="2">0</pdfrwt>
<totfact> 0.72786720E+03</totfact>
</mgrwt>
</event>
<event>
 6    1  0.1280499E-001  0.3000000E+03  0.7818608E-02  0.1093470E+00
         21   -1    0    0  501  502  0.00000000000E+00  0.00000000000E+00  0.14023884755E+01  0.14023884755E+01  0.00000000000E+00 0. -1.
         13   -1    0    0    0    0 -0.00000000000E+00 -0.00000000000E+00 -0.10000000000E+04  0.10000000000E+04  0.00000000000E+00 0.  1.
    9000005    2    1    2  501    0 -0.23289647119E+02 -0.24457987279E+02 -0.71446744716E+03  0.71527208405E+03  0.31337478383E+01 0.  0.
         13    1    3    3    0    0 -0.13012797040E+01 -0.22829521925E+01 -0.44970569113E+02  0.45047278341E+02  0.00000000000E+00 0.  1.
          3    1    3    3  501    0 -0.21988367415E+02 -0.22175035087E+02 -0.66949687804E+03  0.67022480571E+03  0.00000000000E+00 0.  1.
         -1    1    1    2    0  502  0.23289647119E+02  0.24457987279E+02 -0.28413016437E+03  0.28613030442E+03  0.00000000000E+00 0. -1.
<mgrwt>
<rscale>  1 0.30000000E+03</rscale>
<asrwt>0</asrwt>
<pdfrwt beam="1">  1       21 0.50996052E-02 0.30000000E+03</pdfrwt>
<pdfrwt beam="2">0</pdfrwt>
<totfact> 0.27851703E+04</totfact>
</mgrwt>
</event>
<event>
 6    1  0.1280499E-001  0.3000000E+03  0.7818608E-02  0.1093470E+00
         21   -1    0    0  501  502  0.00000000000E+00  0.00000000000E+00  0.48210238126E+01  0.48210238126E+01  0.00000000000E+00 0. -1.
         13   -1    0    0    0    0 -0.00000000000E+00 -0.00000000000E+00 -0.10000000000E+04  0.10000000000E+04  0.00000000000E+00 0.  1.
    9000005    2    1    2  501    0  0.64064934393E+02 -0.26193158081E+01 -0.68986285009E+03  0.69284488131E+03  0.34786480978E+01 0.  0.
         13    1    3    3    0    0  0.12452799315E+02  0.44008315799E+00 -0.12353778582E+03  0.12416461013E+03  0.00000000000E+00 0.  1.
          1    1    3    3  501    0  0.51612135078E+02 -0.30593989661E+01 -0.56632506427E+03  0.56868027118E+03  0.00000000000E+00 0.  1.
         -1    1    1    2    0  502 -0.64064934393E+02  0.26193158081E+01 -0.30531612610E+03  0.31197614250E+03  0.00000000000E+00 0. -1.
<mgrwt>
<rscale>  1 0.30000000E+03</rscale>
<asrwt>0</asrwt>
<pdfrwt beam="1">  1       21 0.17531033E-01 0.30000000E+03</pdfrwt>
<pdfrwt beam="2">0</pdfrwt>
<totfact> 0.30786829E+03</totfact>
</mgrwt>
</event>
<event>
 6    1  0.1280499E-001  0.3000000E+03  0.7818608E-02  0.1093470E+00
         21   -1    0    0  501  502  0.00000000000E+00  0.00000000000E+00  0.21316593373E+01  0.21316593373E+01  0.00000000000E+00 0. -1.
         13   -1    0    0    0    0 -0.00000000000E+00 -0.00000000000E+00 -0.10000000000E+04  0.10000000000E+04  0.00000000000E+00 0.  1.
    9000005    2    1    2  501    0 -0.16403120576E+02 -0.38005422319E+02 -0.71843605337E+03  0.71965001803E+03  0.56842931036E+01 0.  0.
         13    1    3    3    0    0 -0.14379214845E+02 -0.28569756216E+02 -0.57612811468E+03  0.57701524878E+03  0.00000000000E+00 0.  1.
          3    1    3    3  501    0 -0.20239057306E+01 -0.94356661026E+01 -0.14230793868E+03  0.14263476926E+03  0.00000000000E+00 0.  1.
         -1    1    1    2    0  502  0.16403120576E+02  0.38005422319E+02 -0.27943228729E+03  0.28248164130E+03  0.00000000000E+00 0. -1.
<mgrwt>
<rscale>  1 0.30000000E+03</rscale>
<asrwt>0</asrwt>
<pdfrwt beam="1">  1       21 0.77515048E-02 0.30000000E+03</pdfrwt>
<pdfrwt beam="2">0</pdfrwt>
<totfact> 0.13501197E+04</totfact>
</mgrwt>
</event>
<event>
 6    1  0.1280499E-001  0.3000000E+03  0.7818608E-02  0.1093470E+00
         21   -1    0    0  501  502  0.00000000000E+00  0.00000000000E+00  0.11879406724E+01  0.11879406724E+01  0.00000000000E+00 0. -1.
         13   -1    0    0    0    0 -0.00000000000E+00 -0.00000000000E+00 -0.10000000000E+04  0.10000000000E+04  0.00000000000E+00 0.  1.
    9000005    2    1    2  501    0  0.23700381928E+02 -0.22217567513E+02 -0.66497002879E+03  0.66576905366E+03  0.28222713460E+01 0.  0.
         13    1    3    3    0    0  0.43373623818E+01 -0.34925748965E+01 -0.13531390102E+03  0.13542844089E+03  0.00000000000E+00 0.  1.
          1    1    3    3  501    0  0.19363019546E+02 -0.18724992616E+02 -0.52965612777E+03  0.53034061277E+03  0.00000000000E+00 0.  1.
         -3    1    1    2    0  502 -0.23700381928E+02  0.22217567513E+02 -0.33384203054E+03  0.33541888701E+03  0.00000000000E+00 0. -1.
<mgrwt>
<rscale>  1 0.30000000E+03</rscale>
<asrwt>0</asrwt>
<pdfrwt beam="1">  1       21 0.43197934E-02 0.30000000E+03</pdfrwt>
<pdfrwt beam="2">0</pdfrwt>
<totfact> 0.36928757E+04</totfact>
</mgrwt>
</event>
<event>
 6    1  0.1280499E-001  0.3000000E+03  0.7818608E-02  0.1093470E+00
         21   -1    0    0  501  502  0.00000000000E+00  0.00000000000E+00  0.19412371246E+01  0.19412371246E+01  0.00000000000E+00 0. -1.
         13   -1    0    0    0    0 -0.00000000000E+00 -0.00000000000E+00 -0.10000000000E+04  0.10000000000E+04  0.00000000000E+00 0.  1.
    9000005    2    1    2  501    0 -0.35201442194E+02 -0.11060343594E+02 -0.76858301727E+03  0.76951793675E+03  0.87480181026E+01 0.  0.
         13    1    3    3    0    0 -0.24754065799E+02 -0.11218129856E+02 -0.50951426183E+03  0.51023856501E+03  0.00000000000E+00 0.  1.
          1    1    3    3  501    0 -0.10447376395E+02  0.15778626157E+00 -0.25906875543E+03  0.25927937174E+03  0.00000000000E+00 0.  1.
         -3    1    1    2    0  502  0.35201442194E+02  0.11060343594E+02 -0.22947574561E+03  0.23242330037E+03  0.00000000000E+00 0. -1.
<mgrwt>
<rscale>  1 0.30000000E+03</rscale>
<asrwt>0</asrwt>
<pdfrwt beam="1">  1       21 0.70590590E-02 0.30000000E+03</pdfrwt>
<pdfrwt beam="2">0</pdfrwt>
<totfact> 0.15901000E+04</totfact>
</mgrwt>
</event>
<event>
 6    1  0.1280499E-001  0.3000000E+03  0.7818608E-02  0.1093470E+00
         21   -1    0    0  501  502  0.00000000000E+00  0.00000000000E+00  0.20066212355E+01  0.20066212355E+01  0.00000000000E+00 0. -1.
         13   -1    0    0    0    0 -0.00000000000E+00 -0.00000000000E+00 -0.10000000000E+04  0.10000000000E+04  0.00000000000E+00 0.  1.
    9000005    2    1    2  501    0 -0.28307884834E+02  0.34642529523E+02 -0.51301907022E+03  0.51497323311E+03  0.27245587700E+01 0.  0.
         13    1    3    3    0    0 -0.87067052473E+01  0.11914489791E+02 -0.18081781195E+03  0.18141897062E+03  0.00000000000E+00 0.  1.
          3    1    3    3  501    0 -0.19601179586E+02  0.22728039732E+02 -0.33220125827E+03  0.33355426249E+03  0.00000000000E+00 0.  1.
         -3    1    1    2    0  502  0.28307884834E+02 -0.34642529523E+02 -0.48497430855E+03  0.48703338812E+03  0.00000000000E+00 0. -1.
<mgrwt>
<rscale>  1 0.30000000E+03</rscale>
<asrwt>0</asrwt>
<pdfrwt beam="1">  1       21 0.72968199E-02 0.30000000E+03</pdfrwt>
<pdfrwt beam="2">0</pdfrwt>
<totfact> 0.15008351E+04</totfact>
</mgrwt>
</event>
<event>
 6    1  0.1280499E-001  0.3000000E+03  0.7818608E-02  0.1093470E+00
         21   -1    0    0  501  502  0.00000000000E+00  0.00000000000E+00  0.29297475741E+01  0.29297475741E+01  0.00000000000E+00 0. -1.
         13   -1    0    0    0    0 -0.00000000000E+00 -0.00000000000E+00 -0.10000000000E+04  0.10000000000E+04  0.00000000000E+00 0.  1.
    9000005    2    1    2  501    0  0.24197631928E+02 -0.44328341044E+02 -0.67851162343E+03  0.68039273060E+03  0.23911322402E+01 0.  0.
         13    1    3    3    0    0  0.22071474836E+02 -0.38985144454E+02 -0.59710930312E+03  0.59878753441E+03  0.00000000000E+00 0.  1.
          3    1    3    3  501    0  0.21261570924E+01 -0.53431965897E+01 -0.81402320311E+02  0.81605196194E+02  0.00000000000E+00 0.  1.
         -3    1    1    2    0  502 -0.24197631928E+02  0.44328341044E+02 -0.31855862899E+03  0.32253701697E+03  0.00000000000E+00 0. -1.
<mgrwt>
<rscale>  1 0.30000000E+03</rscale>
<asrwt>0</asrwt>
<pdfrwt beam="1">  1       21 0.10653650E-01 0.30000000E+03</pdfrwt>
<pdfrwt beam="2">0</pdfrwt>
<totfact> 0.76811078E+03</totfact>
</mgrwt>
</event>
<event>
 6    1  0.1280499E-001  0.3000000E+03  0.7818608E-02  0.1093470E+00
         21   -1    0    0  501  502  0.00000000000E+00  0.00000000000E+00  0.10894169639E+01  0.10894169639E+01  0.00000000000E+00 0. -1.
         13   -1    0    0    0    0 -0.00000000000E+00 -0.00000000000E+00 -0.10000000000E+04  0.10000000000E+04  0.00000000000E+00 0.  1.
    9000005    2    1    2  501    0 -0.30131298962E+02 -0.55694411674E+01 -0.68369997279E+03  0.68439296503E+03  0.30272009791E+01 0.  0.
         13    1    3    3    0    0 -0.15434160383E+02 -0.38877818290E+01 -0.32941512639E+03  0.32979941426E+03  0.00000000000E+00 0.  1.
          3    1    3    3  501    0 -0.14697138579E+02 -0.16816593383E+01 -0.35428484640E+03  0.35459355077E+03  0.00000000000E+00 0.  1.
         -1    1    1    2    0  502  0.30131298962E+02  0.55694411674E+01 -0.31521061025E+03  0.31669645193E+03  0.00000000000E+00 0. -1.
<mgrwt>
<rscale>  1 0.30000000E+03</rscale>
<asrwt>0</asrwt>
<pdfrwt beam="1">  1       21 0.39615246E-02 0.30000000E+03</pdfrwt>
<pdfrwt beam="2">0</pdfrwt>
<totfact> 0.42737155E+04</totfact>
</mgrwt>
</event>
<event>
 6    1  0.1280499E-001  0.3000000E+03  0.7818608E-02  0.1093470E+00
         21   -1    0    0  501  502  0.00000000000E+00  0.00000000000E+00  0.14261430929E+01  0.14261430929E+01  0.00000000000E+00 0. -1.
         13   -1    0    0    0    0 -0.00000000000E+00 -0.00000000000E+00 -0.10000000000E+04  0.10000000000E+04  0.00000000000E+00 0.  1.
    9000005    2    1    2  501    0 -0.82070362043E+00 -0.36743198149E+02 -0.38894232063E+03  0.39068778161E+03  0.31745482657E+01 0.  0.
         13    1    3    3    0    0 -0.19979280214E+01 -0.26058675069E+02 -0.27845842744E+03  0.27968221623E+03  0.00000000000E+00 0.  1.
          3    1    3    3  501    0  0.11772244009E+01 -0.10684523080E+02 -0.11048389319E+03  0.11100556538E+03  0.00000000000E+00 0.  1.
         -3    1    1    2    0  502  0.82070362043E+00  0.36743198149E+02 -0.60963153628E+03  0.61073836149E+03  0.00000000000E+00 0. -1.
<mgrwt>
<rscale>  1 0.30000000E+03</rscale>
<asrwt>0</asrwt>
<pdfrwt beam="1">  1       21 0.51859858E-02 0.30000000E+03</pdfrwt>
<pdfrwt beam="2">0</pdfrwt>
<totfact> 0.27064359E+04</totfact>
</mgrwt>
</event>
<event>
 6    1  0.1280499E-001  0.3000000E+03  0.7818608E-02  0.1093470E+00
         21   -1    0    0  501  502  0.00000000000E+00  0.00000000000E+00  0.32093023106E+01  0.32093023106E+01  0.00000000000E+00 0. -1.
         13   -1    0    0    0    0 -0.00000000000E+00 -0.00000000000E+00 -0.10000000000E+04  0.10000000000E+04  0.00000000000E+00 0.  1.
    9000005    2    1    2  501    0  0.51807053136E+02 -0.17421293220E+02 -0.62904534234E+03  0.63142425878E+03  0.33286099089E+01 0.  0.
         13    1    3    3    0    0  0.11945681065E+02 -0.41401152520E+01 -0.16226198281E+03  0.16275377389E+03  0.00000000000E+00 0.  1.
          3    1    3    3  501    0  0.39861372072E+02 -0.13281177968E+02 -0.46678335953E+03  0.46867048489E+03  0.00000000000E+00 0.  1.
         -3    1    1    2    0  502 -0.51807053136E+02  0.17421293220E+02 -0.36774535535E+03  0.37178504353E+03  0.00000000000E+00 0. -1.
<mgrwt>
<rscale>  1 0.30000000E+03</rscale>
<asrwt>0</asrwt>
<pdfrwt beam="1">  1       21 0.11670215E-01 0.30000000E+03</pdfrwt>
<pdfrwt beam="2">0</pdfrwt>
<totfact> 0.65180893E+03</totfact>
</mgrwt>
</event>
<event>
 6    1  0.1280499E-001  0.3000000E+03  0.7818608E-02  0.1093470E+00
         21   -1    0    0  501  502  0.00000000000E+00  0.00000000000E+00  0.11639093133E+02  0.11639093133E+02  0.00000000000E+00 0. -1.
         13   -1    0    0    0    0 -0.00000000000E+00 -0.00000000000E+00 -0.10000000000E+04  0.10000000000E+04  0.00000000000E+00 0.  1.
    9000005    2    1    2  501    0  0.43346296368E+02  0.19136042841E+02 -0.94858375804E+03  0.94977382733E+03  0.37533335663E+01 0.  0.
         13    1    3    3    0    0  0.15370391396E+02  0.79797468015E+01 -0.31805255083E+03  0.31852370458E+03  0.00000000000E+00 0.  1.
          3    1    3    3  501    0  0.27975904973E+02  0.11156296040E+02 -0.63053120721E+03  0.63125012274E+03  0.00000000000E+00 0.  1.
         -3    1    1    2    0  502 -0.43346296368E+02 -0.19136042841E+02 -0.39777148827E+02  0.61865265806E+02  0.00000000000E+00 0. -1.
<mgrwt>
<rscale>  1 0.30000000E+03</rscale>
<asrwt>0</asrwt>
<pdfrwt beam="1">  1       21 0.42324064E-01 0.30000000E+03</pdfrwt>
<pdfrwt beam="2">0</pdfrwt>
<totfact> 0.53646889E+02</totfact>
</mgrwt>
</event>
<event>
 6    1  0.1280499E-001  0.3000000E+03  0.7818608E-02  0.1093470E+00
         21   -1    0    0  501  502  0.00000000000E+00  0.00000000000E+00  0.94739832308E+01  0.94739832308E+01  0.00000000000E+00 0. -1.
         13   -1    0    0    0    0 -0.00000000000E+00 -0.00000000000E+00 -0.10000000000E+04  0.10000000000E+04  0.00000000000E+00 0.  1.
    9000005    2    1    2  501    0  0.87411038307E+02 -0.33056635156E+02 -0.63600409979E+03  0.64284171465E+03  0.32900455060E+01 0.  0.
         13    1    3    3    0    0  0.12289316725E+02 -0.40433263556E+01 -0.95026600833E+02  0.95903235918E+02  0.00000000000E+00 0.  1.
          1    1    3    3  501    0  0.75121721582E+02 -0.29013308800E+02 -0.54097749896E+03  0.54693847873E+03  0.00000000000E+00 0.  1.
         -3    1    1    2    0  502 -0.87411038307E+02  0.33056635156E+02 -0.35452191698E+03  0.36663226858E+03  0.00000000000E+00 0. -1.
<mgrwt>
<rscale>  1 0.30000000E+03</rscale>
<asrwt>0</asrwt>
<pdfrwt beam="1">  1       21 0.34450921E-01 0.30000000E+03</pdfrwt>
<pdfrwt beam="2">0</pdfrwt>
<totfact> 0.82192922E+02</totfact>
</mgrwt>
</event>
<event>
 6    1  0.1280499E-001  0.3000000E+03  0.7818608E-02  0.1093470E+00
         21   -1    0    0  501  502  0.00000000000E+00  0.00000000000E+00  0.29701724808E+01  0.29701724808E+01  0.00000000000E+00 0. -1.
         13   -1    0    0    0    0 -0.00000000000E+00 -0.00000000000E+00 -0.10000000000E+04  0.10000000000E+04  0.00000000000E+00 0.  1.
    9000005    2    1    2  501    0 -0.10810069941E+02  0.43776614661E+02 -0.77603734611E+03  0.77742433137E+03  0.11017206721E+02 0.  0.
         13    1    3    3    0    0 -0.29519525766E+01  0.28030779132E+02 -0.53767550738E+03  0.53841377196E+03  0.00000000000E+00 0.  1.
          1    1    3    3  501    0 -0.78581173642E+01  0.15745835529E+02 -0.23836183874E+03  0.23901055941E+03  0.00000000000E+00 0.  1.
         -3    1    1    2    0  502  0.10810069941E+02 -0.43776614661E+02 -0.22099248140E+03  0.22554584111E+03  0.00000000000E+00 0. -1.
<mgrwt>
<rscale>  1 0.30000000E+03</rscale>
<asrwt>0</asrwt>
<pdfrwt beam="1">  1       21 0.10800650E-01 0.30000000E+03</pdfrwt>
<pdfrwt beam="2">0</pdfrwt>
<totfact> 0.74944256E+03</totfact>
</mgrwt>
</event>
<event>
 6    1  0.1280499E-001  0.3000000E+03  0.7818608E-02  0.1093470E+00
         21   -1    0    0  501  502  0.00000000000E+00  0.00000000000E+00  0.13806940959E+01  0.13806940959E+01  0.00000000000E+00 0. -1.
         13   -1    0    0    0    0 -0.00000000000E+00 -0.00000000000E+00 -0.10000000000E+04  0.10000000000E+04  0.00000000000E+00 0.  1.
    9000005    2    1    2  501    0  0.12919903049E+02  0.33764644200E+02 -0.39084480985E+03  0.39253193361E+03  0.38312430559E+01 0.  0.
         13    1    3    3    0    0  0.10838583793E+02  0.23988708771E+02 -0.29089957727E+03  0.29208816666E+03  0.00000000000E+00 0.  1.
          3    1    3    3  501    0  0.20813192561E+01  0.97759354287E+01 -0.99945232584E+02  0.10044376695E+03  0.00000000000E+00 0.  1.
         -1    1    1    2    0  502 -0.12919903049E+02 -0.33764644200E+02 -0.60777449605E+03  0.60884876048E+03  0.00000000000E+00 0. -1.
<mgrwt>
<rscale>  1 0.30000000E+03</rscale>
<asrwt>0</asrwt>
<pdfrwt beam="1">  1       21 0.50207164E-02 0.30000000E+03</pdfrwt>
<pdfrwt beam="2">0</pdfrwt>
<totfact> 0.28602317E+04</totfact>
</mgrwt>
</event>
<event>
 6    1  0.1280499E-001  0.3000000E+03  0.7818608E-02  0.1093470E+00
         21   -1    0    0  501  502  0.00000000000E+00  0.00000000000E+00  0.69656675732E+01  0.69656675732E+01  0.00000000000E+00 0. -1.
         13   -1    0    0    0    0 -0.00000000000E+00 -0.00000000000E+00 -0.10000000000E+04  0.10000000000E+04  0.00000000000E+00 0.  1.
    9000005    2    1    2  501    0 -0.54149062855E+02  0.39841309589E+02 -0.79477233962E+03  0.79761603478E+03  0.29692019188E+01 0.  0.
         13    1    3    3    0    0 -0.24923165365E+02  0.19913062742E+02 -0.38597675709E+03  0.38729284947E+03  0.00000000000E+00 0.  1.
          1    1    3    3  501    0 -0.29225897490E+02  0.19928246848E+02 -0.40879558253E+03  0.41032318531E+03  0.00000000000E+00 0.  1.
         -1    1    1    2    0  502  0.54149062855E+02 -0.39841309589E+02 -0.19826199281E+03  0.20934963279E+03  0.00000000000E+00 0. -1.
<mgrwt>
<rscale>  1 0.30000000E+03</rscale>
<asrwt>0</asrwt>
<pdfrwt beam="1">  1       21 0.25329754E-01 0.30000000E+03</pdfrwt>
<pdfrwt beam="2">0</pdfrwt>
<totfact> 0.15200653E+03</totfact>
</mgrwt>
</event>
<event>
 6    1  0.1280499E-001  0.3000000E+03  0.7818608E-02  0.1093470E+00
         21   -1    0    0  501  502  0.00000000000E+00  0.00000000000E+00  0.16684472671E+01  0.16684472671E+01  0.00000000000E+00 0. -1.
         13   -1    0    0    0    0 -0.00000000000E+00 -0.00000000000E+00 -0.10000000000E+04  0.10000000000E+04  0.00000000000E+00 0.  1.
    9000005    2    1    2  501    0 -0.32736689145E+02  0.21774813376E+02 -0.62980611016E+03  0.63105161665E+03  0.49571329428E+01 0.  0.
         13    1    3    3    0    0 -0.97346430848E+01  0.89476470962E+01 -0.19325639872E+03  0.19370818081E+03  0.00000000000E+00 0.  1.
          1    1    3    3  501    0 -0.23002046060E+02  0.12827166279E+02 -0.43654971144E+03  0.43734343584E+03  0.00000000000E+00 0.  1.
         -1    1    1    2    0  502  0.32736689145E+02 -0.21774813376E+02 -0.36852544258E+03  0.37061683062E+03  0.00000000000E+00 0. -1.
<mgrwt>
<rscale>  1 0.30000000E+03</rscale>
<asrwt>0</asrwt>
<pdfrwt beam="1">  1       21 0.60670938E-02 0.30000000E+03</pdfrwt>
<pdfrwt beam="2">0</pdfrwt>
<totfact> 0.20671306E+04</totfact>
</mgrwt>
</event>
<event>
 6    1  0.1280499E-001  0.3000000E+03  0.7818608E-02  0.1093470E+00
         21   -1    0    0  501  502  0.00000000000E+00  0.00000000000E+00  0.41865590472E+01  0.41865590472E+01  0.00000000000E+00 0. -1.
         13   -1    0    0    0    0 -0.00000000000E+00 -0.00000000000E+00 -0.10000000000E+04  0.10000000000E+04  0.00000000000E+00 0.  1.
    9000005    2    1    2  501    0  0.33000023613E+02 -0.31941669943E+02 -0.14904272591E+03  0.15617127871E+03  0.81524418990E+01 0.  0.
         13    1    3    3    0    0  0.27641584952E+02 -0.26165462662E+02 -0.11170850657E+03  0.11801474100E+03  0.00000000000E+00 0.  1.
          1    1    3    3  501    0  0.53584386610E+01 -0.57762072818E+01 -0.37334219344E+02  0.38156537702E+02  0.00000000000E+00 0.  1.
         -3    1    1    2    0  502 -0.33000023613E+02  0.31941669943E+02 -0.84677071504E+03  0.84801528034E+03  0.00000000000E+00 0. -1.
<mgrwt>
<rscale>  1 0.30000000E+03</rscale>
<asrwt>0</asrwt>
<pdfrwt beam="1">  1       21 0.15223883E-01 0.30000000E+03</pdfrwt>
<pdfrwt beam="2">0</pdfrwt>
<totfact> 0.40065487E+03</totfact>
</mgrwt>
</event>
<event>
 6    1  0.1280499E-001  0.3000000E+03  0.7818608E-02  0.1093470E+00
         21   -1    0    0  501  502  0.00000000000E+00  0.00000000000E+00  0.74784864373E+01  0.74784864373E+01  0.00000000000E+00 0. -1.
         13   -1    0    0    0    0 -0.00000000000E+00 -0.00000000000E+00 -0.10000000000E+04  0.10000000000E+04  0.00000000000E+00 0.  1.
    9000005    2    1    2  501    0  0.17040856272E+02 -0.57565691369E+02 -0.85875165929E+03  0.86085456780E+03  0.34604851714E+01 0.  0.
         13    1    3    3    0    0  0.44312882569E+01 -0.13178639999E+02 -0.21911178311E+03  0.21955246837E+03  0.00000000000E+00 0.  1.
          3    1    3    3  501    0  0.12609568015E+02 -0.44387051370E+02 -0.63963987618E+03  0.64130209943E+03  0.00000000000E+00 0.  1.
         -1    1    1    2    0  502 -0.17040856272E+02  0.57565691369E+02 -0.13376985427E+03  0.14662391864E+03  0.00000000000E+00 0. -1.
<mgrwt>
<rscale>  1 0.30000000E+03</rscale>
<asrwt>0</asrwt>
<pdfrwt beam="1">  1       21 0.27194553E-01 0.30000000E+03</pdfrwt>
<pdfrwt beam="2">0</pdfrwt>
<totfact> 0.13215962E+03</totfact>
</mgrwt>
</event>
<event>
 6    1  0.1280499E-001  0.3000000E+03  0.7818608E-02  0.1093470E+00
         21   -1    0    0  501  502  0.00000000000E+00  0.00000000000E+00  0.62400060984E+01  0.62400060984E+01  0.00000000000E+00 0. -1.
         13   -1    0    0    0    0 -0.00000000000E+00 -0.00000000000E+00 -0.10000000000E+04  0.10000000000E+04  0.00000000000E+00 0.  1.
    9000005    2    1    2  501    0  0.45433841677E+02 -0.23155227168E+02 -0.88072578370E+03  0.88223544493E+03  0.78150944878E+01 0.  0.
         13    1    3    3    0    0  0.36795143444E+02 -0.16546658883E+02 -0.64690598831E+03  0.64816281305E+03  0.00000000000E+00 0.  1.
          1    1    3    3  501    0  0.86386982333E+01 -0.66085682845E+01 -0.23381979538E+03  0.23407263188E+03  0.00000000000E+00 0.  1.
         -1    1    1    2    0  502 -0.45433841677E+02  0.23155227168E+02 -0.11303421020E+03  0.12400456117E+03  0.00000000000E+00 0. -1.
<mgrwt>
<rscale>  1 0.30000000E+03</rscale>
<asrwt>0</asrwt>
<pdfrwt beam="1">  1       21 0.22690979E-01 0.30000000E+03</pdfrwt>
<pdfrwt beam="2">0</pdfrwt>
<totfact> 0.18828808E+03</totfact>
</mgrwt>
</event>
<event>
 6    1  0.1280499E-001  0.3000000E+03  0.7818608E-02  0.1093470E+00
         21   -1    0    0  501  502  0.00000000000E+00  0.00000000000E+00  0.40537000455E+01  0.40537000455E+01  0.00000000000E+00 0. -1.
         13   -1    0    0    0    0 -0.00000000000E+00 -0.00000000000E+00 -0.10000000000E+04  0.10000000000E+04  0.00000000000E+00 0.  1.
    9000005    2    1    2  501    0 -0.56940765989E+02 -0.21191976734E+02 -0.64712291065E+03  0.64997869721E+03  0.35909086748E+01 0.  0.
         13    1    3    3    0    0 -0.21777557432E+02 -0.63835282201E+01 -0.23453617988E+03  0.23563155797E+03  0.00000000000E+00 0.  1.
          1    1    3    3  501    0 -0.35163208558E+02 -0.14808448514E+02 -0.41258673078E+03  0.41434713924E+03  0.00000000000E+00 0.  1.
         -1    1    1    2    0  502  0.56940765989E+02  0.21191976734E+02 -0.34882338930E+03  0.35407500283E+03  0.00000000000E+00 0. -1.
<mgrwt>
<rscale>  1 0.30000000E+03</rscale>
<asrwt>0</asrwt>
<pdfrwt beam="1">  1       21 0.14740759E-01 0.30000000E+03</pdfrwt>
<pdfrwt beam="2">0</pdfrwt>
<totfact> 0.42529442E+03</totfact>
</mgrwt>
</event>
<event>
 6    1  0.1280499E-001  0.3000000E+03  0.7818608E-02  0.1093470E+00
         21   -1    0    0  501  502  0.00000000000E+00  0.00000000000E+00  0.11784358903E+01  0.11784358903E+01  0.00000000000E+00 0. -1.
         13   -1    0    0    0    0 -0.00000000000E+00 -0.00000000000E+00 -0.10000000000E+04  0.10000000000E+04  0.00000000000E+00 0.  1.
    9000005    2    1    2  501    0  0.12693108916E+02 -0.28991719356E+02 -0.31117640907E+03  0.31280535822E+03  0.38470465503E+01 0.  0.
         13    1    3    3    0    0  0.45716979311E+00 -0.66898588358E-01 -0.35563818644E+01  0.35862698736E+01  0.00000000000E+00 0.  1.
          1    1    3    3  501    0  0.12235939123E+02 -0.28924820768E+02 -0.30762002720E+03  0.30921908835E+03  0.00000000000E+00 0.  1.
         -3    1    1    2    0  502 -0.12693108916E+02  0.28991719356E+02 -0.68764515504E+03  0.68837307767E+03  0.00000000000E+00 0. -1.
<mgrwt>
<rscale>  1 0.30000000E+03</rscale>
<asrwt>0</asrwt>
<pdfrwt beam="1">  1       21 0.42852305E-02 0.30000000E+03</pdfrwt>
<pdfrwt beam="2">0</pdfrwt>
<totfact> 0.37433912E+04</totfact>
</mgrwt>
</event>
<event>
 6    1  0.1280499E-001  0.3000000E+03  0.7818608E-02  0.1093470E+00
         21   -1    0    0  501  502  0.00000000000E+00  0.00000000000E+00  0.12706697292E+02  0.12706697292E+02  0.00000000000E+00 0. -1.
         13   -1    0    0    0    0 -0.00000000000E+00 -0.00000000000E+00 -0.10000000000E+04  0.10000000000E+04  0.00000000000E+00 0.  1.
    9000005    2    1    2  501    0  0.85446125246E+02 -0.72908392316E+02 -0.45254345590E+03  0.46628737786E+03  0.34154476574E+01 0.  0.
         13    1    3    3    0    0  0.30795601766E+02 -0.26242383137E+02 -0.16987198726E+03  0.17462394972E+03  0.00000000000E+00 0.  1.
          1    1    3    3  501    0  0.54650523480E+02 -0.46666009179E+02 -0.28267146864E+03  0.29166342814E+03  0.00000000000E+00 0.  1.
         -3    1    1    2    0  502 -0.85446125246E+02  0.72908392316E+02 -0.53474984681E+03  0.54641931944E+03  0.00000000000E+00 0. -1.
<mgrwt>
<rscale>  1 0.30000000E+03</rscale>
<asrwt>0</asrwt>
<pdfrwt beam="1">  1       21 0.46206269E-01 0.30000000E+03</pdfrwt>
<pdfrwt beam="2">0</pdfrwt>
<totfact> 0.44525221E+02</totfact>
</mgrwt>
</event>
<event>
 6    1  0.1280499E-001  0.3000000E+03  0.7818608E-02  0.1093470E+00
         21   -1    0    0  501  502  0.00000000000E+00  0.00000000000E+00  0.45692675570E+01  0.45692675570E+01  0.00000000000E+00 0. -1.
         13   -1    0    0    0    0 -0.00000000000E+00 -0.00000000000E+00 -0.10000000000E+04  0.10000000000E+04  0.00000000000E+00 0.  1.
    9000005    2    1    2  501    0  0.87031790550E+01  0.50421939086E+02 -0.82584866623E+03  0.82743600008E+03  0.24894665642E+01 0.  0.
         13    1    3    3    0    0  0.24834663419E+01  0.12051984577E+02 -0.18306348442E+03  0.18347658506E+03  0.00000000000E+00 0.  1.
          3    1    3    3  501    0  0.62197127131E+01  0.38369954509E+02 -0.64278518182E+03  0.64395941502E+03  0.00000000000E+00 0.  1.
         -3    1    1    2    0  502 -0.87031790550E+01 -0.50421939086E+02 -0.16958206621E+03  0.17713326748E+03  0.00000000000E+00 0. -1.
<mgrwt>
<rscale>  1 0.30000000E+03</rscale>
<asrwt>0</asrwt>
<pdfrwt beam="1">  1       21 0.16615553E-01 0.30000000E+03</pdfrwt>
<pdfrwt beam="2">0</pdfrwt>
<totfact> 0.34041443E+03</totfact>
</mgrwt>
</event>
<event>
 6    1  0.1280499E-001  0.3000000E+03  0.7818608E-02  0.1093470E+00
         21   -1    0    0  501  502  0.00000000000E+00  0.00000000000E+00  0.12202045110E+01  0.12202045110E+01  0.00000000000E+00 0. -1.
         13   -1    0    0    0    0 -0.00000000000E+00 -0.00000000000E+00 -0.10000000000E+04  0.10000000000E+04  0.00000000000E+00 0.  1.
    9000005    2    1    2  501    0  0.13850210048E+02  0.30722986056E+02 -0.62816716538E+03  0.62907849523E+03  0.31678554589E+01 0.  0.
         13    1    3    3    0    0  0.11048169399E+01  0.14029483179E+01 -0.24229081906E+02  0.24294799741E+02  0.00000000000E+00 0.  1.
          1    1    3    3  501    0  0.12745393108E+02  0.29320037738E+02 -0.60393808347E+03  0.60478369548E+03  0.00000000000E+00 0.  1.
         -1    1    1    2    0  502 -0.13850210048E+02 -0.30722986056E+02 -0.37061263011E+03  0.37214170929E+03  0.00000000000E+00 0. -1.
<mgrwt>
<rscale>  1 0.30000000E+03</rscale>
<asrwt>0</asrwt>
<pdfrwt beam="1">  1       21 0.44371167E-02 0.30000000E+03</pdfrwt>
<pdfrwt beam="2">0</pdfrwt>
<totfact> 0.35290482E+04</totfact>
</mgrwt>
</event>
<event>
 6    1  0.1280499E-001  0.3000000E+03  0.7818608E-02  0.1093470E+00
         21   -1    0    0  501  502  0.00000000000E+00  0.00000000000E+00  0.16452446478E+01  0.16452446478E+01  0.00000000000E+00 0. -1.
         13   -1    0    0    0    0 -0.00000000000E+00 -0.00000000000E+00 -0.10000000000E+04  0.10000000000E+04  0.00000000000E+00 0.  1.
    9000005    2    1    2  501    0 -0.35045045446E+02 -0.20264599491E+02 -0.49137987931E+03  0.49305667405E+03  0.34480187771E+01 0.  0.
         13    1    3    3    0    0 -0.21957716377E+02 -0.13153571219E+02 -0.32978862956E+03  0.33078043765E+03  0.00000000000E+00 0.  1.
          1    1    3    3  501    0 -0.13087329069E+02 -0.71110282719E+01 -0.16159124975E+03  0.16227623641E+03  0.00000000000E+00 0.  1.
         -3    1    1    2    0  502  0.35045045446E+02  0.20264599491E+02 -0.50697487604E+03  0.50858857059E+03  0.00000000000E+00 0. -1.
<mgrwt>
<rscale>  1 0.30000000E+03</rscale>
<asrwt>0</asrwt>
<pdfrwt beam="1">  1       21 0.59827204E-02 0.30000000E+03</pdfrwt>
<pdfrwt beam="2">0</pdfrwt>
<totfact> 0.21176731E+04</totfact>
</mgrwt>
</event>
<event>
 6    1  0.1280499E-001  0.3000000E+03  0.7818608E-02  0.1093470E+00
         21   -1    0    0  501  502  0.00000000000E+00  0.00000000000E+00  0.14292628582E+01  0.14292628582E+01  0.00000000000E+00 0. -1.
         13   -1    0    0    0    0 -0.00000000000E+00 -0.00000000000E+00 -0.10000000000E+04  0.10000000000E+04  0.00000000000E+00 0.  1.
    9000005    2    1    2  501    0 -0.27076977921E+02  0.20280784968E+02 -0.72008340132E+03  0.72089464969E+03  0.49515778354E+01 0.  0.
         13    1    3    3    0    0 -0.27160225946E+02  0.19767339926E+02 -0.70132032092E+03  0.70212436088E+03  0.00000000000E+00 0.  1.
          3    1    3    3  501    0  0.83248024250E-01  0.51344504143E+00 -0.18763080397E+02  0.18770288811E+02  0.00000000000E+00 0.  1.
         -1    1    1    2    0  502  0.27076977921E+02 -0.20280784968E+02 -0.27848733582E+03  0.28053461317E+03  0.00000000000E+00 0. -1.
<mgrwt>
<rscale>  1 0.30000000E+03</rscale>
<asrwt>0</asrwt>
<pdfrwt beam="1">  1       21 0.51973304E-02 0.30000000E+03</pdfrwt>
<pdfrwt beam="2">0</pdfrwt>
<totfact> 0.26963526E+04</totfact>
</mgrwt>
</event>
<event>
 6    1  0.1280499E-001  0.3000000E+03  0.7818608E-02  0.1093470E+00
         21   -1    0    0  501  502  0.00000000000E+00  0.00000000000E+00  0.91946608131E+01  0.91946608131E+01  0.00000000000E+00 0. -1.
         13   -1    0    0    0    0 -0.00000000000E+00 -0.00000000000E+00 -0.10000000000E+04  0.10000000000E+04  0.00000000000E+00 0.  1.
    9000005    2    1    2  501    0 -0.75036115785E+02 -0.55659341809E+02 -0.38295062147E+03  0.39420219025E+03  0.39758405810E+01 0.  0.
         13    1    3    3    0    0 -0.23232962707E+02 -0.19323596073E+02 -0.12716745529E+03  0.13070858276E+03  0.00000000000E+00 0.  1.
          1    1    3    3  501    0 -0.51803153078E+02 -0.36335745736E+02 -0.25578316618E+03  0.26349360749E+03  0.00000000000E+00 0.  1.
         -1    1    1    2    0  502  0.75036115785E+02  0.55659341809E+02 -0.60785471771E+03  0.61499247056E+03  0.00000000000E+00 0. -1.
<mgrwt>
<rscale>  1 0.30000000E+03</rscale>
<asrwt>0</asrwt>
<pdfrwt beam="1">  1       21 0.33435201E-01 0.30000000E+03</pdfrwt>
<pdfrwt beam="2">0</pdfrwt>
<totfact> 0.87362728E+02</totfact>
</mgrwt>
</event>
<event>
 6    1  0.1280499E-001  0.3000000E+03  0.7818608E-02  0.1093470E+00
         21   -1    0    0  501  502  0.00000000000E+00  0.00000000000E+00  0.10355451591E+01  0.10355451591E+01  0.00000000000E+00 0. -1.
         13   -1    0    0    0    0 -0.00000000000E+00 -0.00000000000E+00 -0.10000000000E+04  0.10000000000E+04  0.00000000000E+00 0.  1.
    9000005    2    1    2  501    0 -0.15812797629E+02 -0.27330623514E+02 -0.59060034695E+03  0.59145252285E+03  0.32108281280E+01 0.  0.
         13    1    3    3    0    0 -0.14683458987E+01 -0.16745967521E+01 -0.30336562944E+02  0.30418207791E+02  0.00000000000E+00 0.  1.
          3    1    3    3  501    0 -0.14344451730E+02 -0.25656026762E+02 -0.56026378401E+03  0.56103431506E+03  0.00000000000E+00 0.  1.
         -1    1    1    2    0  502  0.15812797629E+02  0.27330623514E+02 -0.40836410789E+03  0.40958302231E+03  0.00000000000E+00 0. -1.
<mgrwt>
<rscale>  1 0.30000000E+03</rscale>
<asrwt>0</asrwt>
<pdfrwt beam="1">  1       21 0.37656267E-02 0.30000000E+03</pdfrwt>
<pdfrwt beam="2">0</pdfrwt>
<totfact> 0.46541104E+04</totfact>
</mgrwt>
</event>
<event>
 6    1  0.1280499E-001  0.3000000E+03  0.7818608E-02  0.1093470E+00
         21   -1    0    0  501  502  0.00000000000E+00  0.00000000000E+00  0.20720243419E+01  0.20720243419E+01  0.00000000000E+00 0. -1.
         13   -1    0    0    0    0 -0.00000000000E+00 -0.00000000000E+00 -0.10000000000E+04  0.10000000000E+04  0.00000000000E+00 0.  1.
    9000005    2    1    2  501    0  0.39632248197E+02  0.17490333377E+02 -0.65195970668E+03  0.65340216616E+03  0.25109283215E+01 0.  0.
         13    1    3    3    0    0  0.39193820551E+02  0.17330125719E+02 -0.64789923538E+03  0.64931495288E+03  0.00000000000E+00 0.  1.
          3    1    3    3  501    0  0.43842764620E+00  0.16020765817E+00 -0.40604712925E+01  0.40872132819E+01  0.00000000000E+00 0.  1.
         -3    1    1    2    0  502 -0.39632248197E+02 -0.17490333377E+02 -0.34596826898E+03  0.34866985818E+03  0.00000000000E+00 0. -1.
<mgrwt>
<rscale>  1 0.30000000E+03</rscale>
<asrwt>0</asrwt>
<pdfrwt beam="1">  1       21 0.75346499E-02 0.30000000E+03</pdfrwt>
<pdfrwt beam="2">0</pdfrwt>
<totfact> 0.14189474E+04</totfact>
</mgrwt>
</event>
<event>
 6    1  0.1280499E-001  0.3000000E+03  0.7818608E-02  0.1093470E+00
         21   -1    0    0  501  502  0.00000000000E+00  0.00000000000E+00  0.33177922520E+01  0.33177922520E+01  0.00000000000E+00 0. -1.
         13   -1    0    0    0    0 -0.00000000000E+00 -0.00000000000E+00 -0.10000000000E+04  0.10000000000E+04  0.00000000000E+00 0.  1.
    9000005    2    1    2  501    0  0.79892375937E+01 -0.49685910344E+02 -0.74187910782E+03  0.74359267345E+03  0.35966351135E+01 0.  0.
         13    1    3    3    0    0  0.12494138848E+01 -0.18147504744E+02 -0.25996670143E+03  0.26060233847E+03  0.00000000000E+00 0.  1.
          3    1    3    3  501    0  0.67398237088E+01 -0.31538405599E+02 -0.48191240639E+03  0.48299033498E+03  0.00000000000E+00 0.  1.
         -3    1    1    2    0  502 -0.79892375937E+01  0.49685910344E+02 -0.25480309993E+03  0.25972511880E+03  0.00000000000E+00 0. -1.
<mgrwt>
<rscale>  1 0.30000000E+03</rscale>
<asrwt>0</asrwt>
<pdfrwt beam="1">  1       21 0.12064725E-01 0.30000000E+03</pdfrwt>
<pdfrwt beam="2">0</pdfrwt>
<totfact> 0.61368938E+03</totfact>
</mgrwt>
</event>
<event>
 6    1  0.1280499E-001  0.3000000E+03  0.7818608E-02  0.1093470E+00
         21   -1    0    0  501  502  0.00000000000E+00  0.00000000000E+00  0.17144387340E+01  0.17144387340E+01  0.00000000000E+00 0. -1.
         13   -1    0    0    0    0 -0.00000000000E+00 -0.00000000000E+00 -0.10000000000E+04  0.10000000000E+04  0.00000000000E+00 0.  1.
    9000005    2    1    2  501    0  0.27101745714E+02 -0.19591134140E+02 -0.79399078178E+03  0.79470073367E+03  0.30947361632E+01 0.  0.
         13    1    3    3    0    0  0.12227402354E+02 -0.84339402106E+01 -0.38851617686E+03  0.38880002623E+03  0.00000000000E+00 0.  1.
          3    1    3    3  501    0  0.14874343360E+02 -0.11157193930E+02 -0.40547460492E+03  0.40590070744E+03  0.00000000000E+00 0.  1.
         -1    1    1    2    0  502 -0.27101745714E+02  0.19591134140E+02 -0.20429477949E+03  0.20701370506E+03  0.00000000000E+00 0. -1.
<mgrwt>
<rscale>  1 0.30000000E+03</rscale>
<asrwt>0</asrwt>
<pdfrwt beam="1">  1       21 0.62343358E-02 0.30000000E+03</pdfrwt>
<pdfrwt beam="2">0</pdfrwt>
<totfact> 0.19723290E+04</totfact>
</mgrwt>
</event>
<event>
 6    1  0.1280499E-001  0.3000000E+03  0.7818608E-02  0.1093470E+00
         21   -1    0    0  501  502  0.00000000000E+00  0.00000000000E+00  0.12727555907E+01  0.12727555907E+01  0.00000000000E+00 0. -1.
         13   -1    0    0    0    0 -0.00000000000E+00 -0.00000000000E+00 -0.10000000000E+04  0.10000000000E+04  0.00000000000E+00 0.  1.
    9000005    2    1    2  501    0  0.24886935509E+02 -0.23468400401E+02 -0.63606912007E+03  0.63700494130E+03  0.46091606301E+01 0.  0.
         13    1    3    3    0    0  0.16792756871E+01 -0.35191972291E+01 -0.66427928401E+02  0.66542275191E+02  0.00000000000E+00 0.  1.
          1    1    3    3  501    0  0.23207659822E+02 -0.19949203172E+02 -0.56964119167E+03  0.57046266611E+03  0.00000000000E+00 0.  1.
         -1    1    1    2    0  502 -0.24886935509E+02  0.23468400401E+02 -0.36265812434E+03  0.36426781429E+03  0.00000000000E+00 0. -1.
<mgrwt>
<rscale>  1 0.30000000E+03</rscale>
<asrwt>0</asrwt>
<pdfrwt beam="1">  1       21 0.46282119E-02 0.30000000E+03</pdfrwt>
<pdfrwt beam="2">0</pdfrwt>
<totfact> 0.32852698E+04</totfact>
</mgrwt>
</event>
<event>
 6    1  0.1280499E-001  0.3000000E+03  0.7818608E-02  0.1093470E+00
         21   -1    0    0  501  502  0.00000000000E+00  0.00000000000E+00  0.18253734969E+02  0.18253734969E+02  0.00000000000E+00 0. -1.
         13   -1    0    0    0    0 -0.00000000000E+00 -0.00000000000E+00 -0.10000000000E+04  0.10000000000E+04  0.00000000000E+00 0.  1.
    9000005    2    1    2  501    0 -0.33456737570E+02  0.68443505557E+02 -0.91129264947E+03  0.91448679087E+03  0.52849750388E+01 0.  0.
         13    1    3    3    0    0 -0.32092861648E+02  0.62791654574E+02 -0.84882551834E+03  0.85174967229E+03  0.00000000000E+00 0.  1.
          3    1    3    3  501    0 -0.13638759226E+01  0.56518509823E+01 -0.62467131124E+02  0.62737118582E+02  0.00000000000E+00 0.  1.
         -1    1    1    2    0  502  0.33456737570E+02 -0.68443505557E+02 -0.70453615565E+02  0.10376694410E+03  0.00000000000E+00 0. -1.
<mgrwt>
<rscale>  1 0.30000000E+03</rscale>
<asrwt>0</asrwt>
<pdfrwt beam="1">  1       21 0.66377358E-01 0.30000000E+03</pdfrwt>
<pdfrwt beam="2">0</pdfrwt>
<totfact> 0.19957426E+02</totfact>
</mgrwt>
</event>
<event>
 6    1  0.1280499E-001  0.3000000E+03  0.7818608E-02  0.1093470E+00
         21   -1    0    0  501  502  0.00000000000E+00  0.00000000000E+00  0.13794642746E+01  0.13794642746E+01  0.00000000000E+00 0. -1.
         13   -1    0    0    0    0 -0.00000000000E+00 -0.00000000000E+00 -0.10000000000E+04  0.10000000000E+04  0.00000000000E+00 0.  1.
    9000005    2    1    2  501    0  0.30974359727E+02 -0.14338672414E+02 -0.69528229295E+03  0.69612694911E+03  0.32021701582E+01 0.  0.
         13    1    3    3    0    0  0.19417909671E+02 -0.75099622095E+01 -0.40628874337E+03  0.40682182555E+03  0.00000000000E+00 0.  1.
          1    1    3    3  501    0  0.11556450056E+02 -0.68287102048E+01 -0.28899354958E+03  0.28930512356E+03  0.00000000000E+00 0.  1.
         -1    1    1    2    0  502 -0.30974359727E+02  0.14338672414E+02 -0.30333824277E+03  0.30525251517E+03  0.00000000000E+00 0. -1.
<mgrwt>
<rscale>  1 0.30000000E+03</rscale>
<asrwt>0</asrwt>
<pdfrwt beam="1">  1       21 0.50162443E-02 0.30000000E+03</pdfrwt>
<pdfrwt beam="2">0</pdfrwt>
<totfact> 0.28645809E+04</totfact>
</mgrwt>
</event>
<event>
 6    1  0.1280499E-001  0.3000000E+03  0.7818608E-02  0.1093470E+00
         21   -1    0    0  501  502  0.00000000000E+00  0.00000000000E+00  0.18250521294E+01  0.18250521294E+01  0.00000000000E+00 0. -1.
         13   -1    0    0    0    0 -0.00000000000E+00 -0.00000000000E+00 -0.10000000000E+04  0.10000000000E+04  0.00000000000E+00 0.  1.
    9000005    2    1    2  501    0  0.13570424294E+02 -0.33662204381E+02 -0.76263743394E+03  0.76350757294E+03  0.32646391049E+01 0.  0.
         13    1    3    3    0    0  0.10197415064E+02 -0.21941226209E+02 -0.48794402081E+03  0.48854352122E+03  0.00000000000E+00 0.  1.
          1    1    3    3  501    0  0.33730092305E+01 -0.11720978172E+02 -0.27469341313E+03  0.27496405172E+03  0.00000000000E+00 0.  1.
         -1    1    1    2    0  502 -0.13570424294E+02  0.33662204381E+02 -0.23553751393E+03  0.23831747919E+03  0.00000000000E+00 0. -1.
<mgrwt>
<rscale>  1 0.30000000E+03</rscale>
<asrwt>0</asrwt>
<pdfrwt beam="1">  1       21 0.66365672E-02 0.30000000E+03</pdfrwt>
<pdfrwt beam="2">0</pdfrwt>
<totfact> 0.17700786E+04</totfact>
</mgrwt>
</event>
<event>
 6    1  0.1280499E-001  0.3000000E+03  0.7818608E-02  0.1093470E+00
         21   -1    0    0  501  502  0.00000000000E+00  0.00000000000E+00  0.15736290321E+02  0.15736290321E+02  0.00000000000E+00 0. -1.
         13   -1    0    0    0    0 -0.00000000000E+00 -0.00000000000E+00 -0.10000000000E+04  0.10000000000E+04  0.00000000000E+00 0.  1.
    9000005    2    1    2  501    0  0.10365916023E+03 -0.31922876257E+02 -0.23726451738E+03  0.26090380240E+03  0.34715082559E+01 0.  0.
         13    1    3    3    0    0  0.41403834056E+02 -0.13317546959E+02 -0.91280179501E+02  0.10111234198E+03  0.00000000000E+00 0.  1.
          1    1    3    3  501    0  0.62255326178E+02 -0.18605329298E+02 -0.14598433788E+03  0.15979146041E+03  0.00000000000E+00 0.  1.
         -1    1    1    2    0  502 -0.10365916023E+03  0.31922876257E+02 -0.74699919230E+03  0.75483248792E+03  0.00000000000E+00 0. -1.
<mgrwt>
<rscale>  1 0.30000000E+03</rscale>
<asrwt>0</asrwt>
<pdfrwt beam="1">  1       21 0.57222995E-01 0.30000000E+03</pdfrwt>
<pdfrwt beam="2">0</pdfrwt>
<totfact> 0.27920618E+02</totfact>
</mgrwt>
</event>
<event>
 6    1  0.1280499E-001  0.3000000E+03  0.7818608E-02  0.1093470E+00
         21   -1    0    0  501  502  0.00000000000E+00  0.00000000000E+00  0.11669401629E+01  0.11669401629E+01  0.00000000000E+00 0. -1.
         13   -1    0    0    0    0 -0.00000000000E+00 -0.00000000000E+00 -0.10000000000E+04  0.10000000000E+04  0.00000000000E+00 0.  1.
    9000005    2    1    2  501    0 -0.10573221094E+00  0.33437556826E+02 -0.59984811291E+03  0.60078328757E+03  0.21722525154E+01 0.  0.
         13    1    3    3    0    0  0.10035269832E+01  0.19873801415E+02 -0.35572006390E+03  0.35627621155E+03  0.00000000000E+00 0.  1.
          3    1    3    3  501    0 -0.11092591942E+01  0.13563755410E+02 -0.24412804900E+03  0.24450707603E+03  0.00000000000E+00 0.  1.
         -3    1    1    2    0  502  0.10573221094E+00 -0.33437556826E+02 -0.39898494693E+03  0.40038365259E+03  0.00000000000E+00 0. -1.
<mgrwt>
<rscale>  1 0.30000000E+03</rscale>
<asrwt>0</asrwt>
<pdfrwt beam="1">  1       21 0.42434277E-02 0.30000000E+03</pdfrwt>
<pdfrwt beam="2">0</pdfrwt>
<totfact> 0.38059347E+04</totfact>
</mgrwt>
</event>
<event>
 6    1  0.1280499E-001  0.3000000E+03  0.7818608E-02  0.1093470E+00
         21   -1    0    0  501  502  0.00000000000E+00  0.00000000000E+00  0.14381875440E+01  0.14381875440E+01  0.00000000000E+00 0. -1.
         13   -1    0    0    0    0 -0.00000000000E+00 -0.00000000000E+00 -0.10000000000E+04  0.10000000000E+04  0.00000000000E+00 0.  1.
    9000005    2    1    2  501    0 -0.93968997189E+01  0.36533068387E+02 -0.54494632451E+03  0.54625692946E+03  0.26776055874E+01 0.  0.
         13    1    3    3    0    0 -0.49657279704E+01  0.17019856772E+02 -0.23861211786E+03  0.23926988270E+03  0.00000000000E+00 0.  1.
          1    1    3    3  501    0 -0.44311717486E+01  0.19513211615E+02 -0.30633420665E+03  0.30698704676E+03  0.00000000000E+00 0.  1.
         -3    1    1    2    0  502  0.93968997189E+01 -0.36533068387E+02 -0.45361548794E+03  0.45518125809E+03  0.00000000000E+00 0. -1.
<mgrwt>
<rscale>  1 0.30000000E+03</rscale>
<asrwt>0</asrwt>
<pdfrwt beam="1">  1       21 0.52297839E-02 0.30000000E+03</pdfrwt>
<pdfrwt beam="2">0</pdfrwt>
<totfact> 0.26678269E+04</totfact>
</mgrwt>
</event>
<event>
 6    1  0.1280499E-001  0.3000000E+03  0.7818608E-02  0.1093470E+00
         21   -1    0    0  501  502  0.00000000000E+00  0.00000000000E+00  0.15268987670E+01  0.15268987670E+01  0.00000000000E+00 0. -1.
         13   -1    0    0    0    0 -0.00000000000E+00 -0.00000000000E+00 -0.10000000000E+04  0.10000000000E+04  0.00000000000E+00 0.  1.
    9000005    2    1    2  501    0 -0.86591789850E+01 -0.32244390824E+02 -0.75821482812E+03  0.75895995972E+03  0.39765253888E+01 0.  0.
         13    1    3    3    0    0 -0.46324183309E+01 -0.24044442007E+02 -0.55466357611E+03  0.55520381587E+03  0.00000000000E+00 0.  1.
          3    1    3    3  501    0 -0.40267606541E+01 -0.81999488165E+01 -0.20355125201E+03  0.20375614385E+03  0.00000000000E+00 0.  1.
         -3    1    1    2    0  502  0.86591789850E+01  0.32244390824E+02 -0.24025827311E+03  0.24256693905E+03  0.00000000000E+00 0. -1.
<mgrwt>
<rscale>  1 0.30000000E+03</rscale>
<asrwt>0</asrwt>
<pdfrwt beam="1">  1       21 0.55523709E-02 0.30000000E+03</pdfrwt>
<pdfrwt beam="2">0</pdfrwt>
<totfact> 0.24079523E+04</totfact>
</mgrwt>
</event>
<event>
 6    1  0.1280499E-001  0.3000000E+03  0.7818608E-02  0.1093470E+00
         21   -1    0    0  501  502  0.00000000000E+00  0.00000000000E+00  0.68458397707E+01  0.68458397707E+01  0.00000000000E+00 0. -1.
         13   -1    0    0    0    0 -0.00000000000E+00 -0.00000000000E+00 -0.10000000000E+04  0.10000000000E+04  0.00000000000E+00 0.  1.
    9000005    2    1    2  501    0 -0.24835839559E+02  0.28961223113E+02 -0.94326443716E+03  0.94404014068E+03  0.29012798612E+01 0.  0.
         13    1    3    3    0    0 -0.15843035282E+02  0.17175676729E+02 -0.60469117076E+03  0.60514247714E+03  0.00000000000E+00 0.  1.
          3    1    3    3  501    0 -0.89928042776E+01  0.11785546384E+02 -0.33857326640E+03  0.33889766354E+03  0.00000000000E+00 0.  1.
         -3    1    1    2    0  502  0.24835839559E+02 -0.28961223113E+02 -0.49889723066E+02  0.62805699092E+02  0.00000000000E+00 0. -1.
<mgrwt>
<rscale>  1 0.30000000E+03</rscale>
<asrwt>0</asrwt>
<pdfrwt beam="1">  1       21 0.24894015E-01 0.30000000E+03</pdfrwt>
<pdfrwt beam="2">0</pdfrwt>
<totfact> 0.15726161E+03</totfact>
</mgrwt>
</event>
<event>
 6    1  0.1280499E-001  0.3000000E+03  0.7818608E-02  0.1093470E+00
         21   -1    0    0  501  502  0.00000000000E+00  0.00000000000E+00  0.11571369328E+01  0.11571369328E+01  0.00000000000E+00 0. -1.
         13   -1    0    0    0    0 -0.00000000000E+00 -0.00000000000E+00 -0.10000000000E+04  0.10000000000E+04  0.00000000000E+00 0.  1.
    9000005    2    1    2  501    0 -0.14418458822E+02 -0.28635807475E+02 -0.33690703515E+03  0.33844532800E+03  0.33148580422E+01 0.  0.
         13    1    3    3    0    0 -0.26655813587E+01 -0.80210806958E+01 -0.97008345319E+02  0.97375880592E+02  0.00000000000E+00 0.  1.
          3    1    3    3  501    0 -0.11752877463E+02 -0.20614726779E+02 -0.23989868983E+03  0.24106944741E+03  0.00000000000E+00 0.  1.
         -1    1    1    2    0  502  0.14418458822E+02  0.28635807475E+02 -0.66193582791E+03  0.66271180893E+03  0.00000000000E+00 0. -1.
<mgrwt>
<rscale>  1 0.30000000E+03</rscale>
<asrwt>0</asrwt>
<pdfrwt beam="1">  1       21 0.42077795E-02 0.30000000E+03</pdfrwt>
<pdfrwt beam="2">0</pdfrwt>
<totfact> 0.38605623E+04</totfact>
</mgrwt>
</event>
<event>
 6    1  0.1280499E-001  0.3000000E+03  0.7818608E-02  0.1093470E+00
         21   -1    0    0  501  502  0.00000000000E+00  0.00000000000E+00  0.27194921561E+01  0.27194921561E+01  0.00000000000E+00 0. -1.
         13   -1    0    0    0    0 -0.00000000000E+00 -0.00000000000E+00 -0.10000000000E+04  0.10000000000E+04  0.00000000000E+00 0.  1.
    9000005    2    1    2  501    0  0.30966212737E+02  0.61235781104E+01 -0.89757720554E+03  0.89813864769E+03  0.34330770952E+01 0.  0.
         13    1    3    3    0    0  0.25352584625E+02  0.45298253993E+01 -0.76421177796E+03  0.76464561363E+03  0.00000000000E+00 0.  1.
          3    1    3    3  501    0  0.56136281116E+01  0.15937527111E+01 -0.13336542758E+03  0.13349303406E+03  0.00000000000E+00 0.  1.
         -1    1    1    2    0  502 -0.30966212737E+02 -0.61235781104E+01 -0.99703302299E+02  0.10458084447E+03  0.00000000000E+00 0. -1.
<mgrwt>
<rscale>  1 0.30000000E+03</rscale>
<asrwt>0</asrwt>
<pdfrwt beam="1">  1       21 0.98890832E-02 0.30000000E+03</pdfrwt>
<pdfrwt beam="2">0</pdfrwt>
<totfact> 0.87763199E+03</totfact>
</mgrwt>
</event>
<event>
 6    1  0.1280499E-001  0.3000000E+03  0.7818608E-02  0.1093470E+00
         21   -1    0    0  501  502  0.00000000000E+00  0.00000000000E+00  0.20990695288E+01  0.20990695288E+01  0.00000000000E+00 0. -1.
         13   -1    0    0    0    0 -0.00000000000E+00 -0.00000000000E+00 -0.10000000000E+04  0.10000000000E+04  0.00000000000E+00 0.  1.
    9000005    2    1    2  501    0 -0.24233190881E+01  0.45616767020E+02 -0.47289357008E+03  0.47510809202E+03  0.35508552512E+01 0.  0.
         13    1    3    3    0    0 -0.33343190333E+00  0.62162417422E+01 -0.78151106401E+02  0.78398649669E+02  0.00000000000E+00 0.  1.
          1    1    3    3  501    0 -0.20898871847E+01  0.39400525278E+02 -0.39474246368E+03  0.39670944235E+03  0.00000000000E+00 0.  1.
         -3    1    1    2    0  502  0.24233190881E+01 -0.45616767020E+02 -0.52500736039E+03  0.52699097751E+03  0.00000000000E+00 0. -1.
<mgrwt>
<rscale>  1 0.30000000E+03</rscale>
<asrwt>0</asrwt>
<pdfrwt beam="1">  1       21 0.76329962E-02 0.30000000E+03</pdfrwt>
<pdfrwt beam="2">0</pdfrwt>
<totfact> 0.13870773E+04</totfact>
</mgrwt>
</event>
<event>
 6    1  0.1280499E-001  0.3000000E+03  0.7818608E-02  0.1093470E+00
         21   -1    0    0  501  502  0.00000000000E+00  0.00000000000E+00  0.26428792994E+01  0.26428792994E+01  0.00000000000E+00 0. -1.
         13   -1    0    0    0    0 -0.00000000000E+00 -0.00000000000E+00 -0.10000000000E+04  0.10000000000E+04  0.00000000000E+00 0.  1.
    9000005    2    1    2  501    0  0.14338318357E+02 -0.37286049285E+02 -0.81391264437E+03  0.81489913708E+03  0.33127196703E+01 0.  0.
         13    1    3    3    0    0  0.25467489012E+01 -0.10726376881E+02 -0.22634406638E+03  0.22661239480E+03  0.00000000000E+00 0.  1.
          3    1    3    3  501    0  0.11791569456E+02 -0.26559672404E+02 -0.58756857799E+03  0.58828674228E+03  0.00000000000E+00 0.  1.
         -1    1    1    2    0  502 -0.14338318357E+02  0.37286049285E+02 -0.18344447633E+03  0.18774374222E+03  0.00000000000E+00 0. -1.
<mgrwt>
<rscale>  1 0.30000000E+03</rscale>
<asrwt>0</asrwt>
<pdfrwt beam="1">  1       21 0.96104904E-02 0.30000000E+03</pdfrwt>
<pdfrwt beam="2">0</pdfrwt>
<totfact> 0.92354108E+03</totfact>
</mgrwt>
</event>
<event>
 6    1  0.1280499E-001  0.3000000E+03  0.7818608E-02  0.1093470E+00
         21   -1    0    0  501  502  0.00000000000E+00  0.00000000000E+00  0.10323206243E+02  0.10323206243E+02  0.00000000000E+00 0. -1.
         13   -1    0    0    0    0 -0.00000000000E+00 -0.00000000000E+00 -0.10000000000E+04  0.10000000000E+04  0.00000000000E+00 0.  1.
    9000005    2    1    2  501    0 -0.46391898471E+02 -0.75633028031E+02 -0.74071069624E+03  0.74601906158E+03  0.44205820719E+01 0.  0.
         13    1    3    3    0    0 -0.29299343860E+02 -0.44079293205E+02 -0.43304100323E+03  0.43626361998E+03  0.00000000000E+00 0.  1.
          1    1    3    3  501    0 -0.17092554611E+02 -0.31553734826E+02 -0.30766969301E+03  0.30975544160E+03  0.00000000000E+00 0.  1.
         -3    1    1    2    0  502  0.46391898471E+02  0.75633028031E+02 -0.24896609752E+03  0.26430414467E+03  0.00000000000E+00 0. -1.
<mgrwt>
<rscale>  1 0.30000000E+03</rscale>
<asrwt>0</asrwt>
<pdfrwt beam="1">  1       21 0.37539011E-01 0.30000000E+03</pdfrwt>
<pdfrwt beam="2">0</pdfrwt>
<totfact> 0.68913132E+02</totfact>
</mgrwt>
</event>
<event>
 6    1  0.1280499E-001  0.3000000E+03  0.7818608E-02  0.1093470E+00
         21   -1    0    0  501  502  0.00000000000E+00  0.00000000000E+00  0.22387646268E+01  0.22387646268E+01  0.00000000000E+00 0. -1.
         13   -1    0    0    0    0 -0.00000000000E+00 -0.00000000000E+00 -0.10000000000E+04  0.10000000000E+04  0.00000000000E+00 0.  1.
    9000005    2    1    2  501    0 -0.26135309014E+02  0.30401995236E+02 -0.76262698843E+03  0.76371109374E+03  0.68829886896E+01 0.  0.
         13    1    3    3    0    0 -0.23695055446E+02  0.28420568870E+02 -0.72867676617E+03  0.72961566180E+03  0.00000000000E+00 0.  1.
          1    1    3    3  501    0 -0.24402535675E+01  0.19814263665E+01 -0.33950222255E+02  0.34095431939E+02  0.00000000000E+00 0.  1.
         -3    1    1    2    0  502  0.26135309014E+02 -0.30401995236E+02 -0.23513424695E+03  0.23852767089E+03  0.00000000000E+00 0. -1.
<mgrwt>
<rscale>  1 0.30000000E+03</rscale>
<asrwt>0</asrwt>
<pdfrwt beam="1">  1       21 0.81409794E-02 0.30000000E+03</pdfrwt>
<pdfrwt beam="2">0</pdfrwt>
<totfact> 0.12387680E+04</totfact>
</mgrwt>
</event>
<event>
 6    1  0.1280499E-001  0.3000000E+03  0.7818608E-02  0.1093470E+00
         21   -1    0    0  501  502  0.00000000000E+00  0.00000000000E+00  0.84749810450E+01  0.84749810450E+01  0.00000000000E+00 0. -1.
         13   -1    0    0    0    0 -0.00000000000E+00 -0.00000000000E+00 -0.10000000000E+04  0.10000000000E+04  0.00000000000E+00 0.  1.
    9000005    2    1    2  501    0 -0.64884879068E+02  0.23556655174E+02 -0.82928971067E+03  0.83216485998E+03  0.34592531734E+01 0.  0.
         13    1    3    3    0    0 -0.58544859655E+02  0.20172625357E+02 -0.73967713613E+03  0.74226457623E+03  0.00000000000E+00 0.  1.
          1    1    3    3  501    0 -0.63400194131E+01  0.33840298170E+01 -0.89612574535E+02  0.89900283753E+02  0.00000000000E+00 0.  1.
         -3    1    1    2    0  502  0.64884879068E+02 -0.23556655174E+02 -0.16223530828E+03  0.17631012106E+03  0.00000000000E+00 0. -1.
<mgrwt>
<rscale>  1 0.30000000E+03</rscale>
<asrwt>0</asrwt>
<pdfrwt beam="1">  1       21 0.30818178E-01 0.30000000E+03</pdfrwt>
<pdfrwt beam="2">0</pdfrwt>
<totfact> 0.10301905E+03</totfact>
</mgrwt>
</event>
<event>
 6    1  0.1280499E-001  0.3000000E+03  0.7818608E-02  0.1093470E+00
         21   -1    0    0  501  502  0.00000000000E+00  0.00000000000E+00  0.13169880048E+01  0.13169880048E+01  0.00000000000E+00 0. -1.
         13   -1    0    0    0    0 -0.00000000000E+00 -0.00000000000E+00 -0.10000000000E+04  0.10000000000E+04  0.00000000000E+00 0.  1.
    9000005    2    1    2  501    0 -0.27042767744E+02  0.16417133357E+02 -0.74355823829E+03  0.74423823798E+03  0.32966029945E+01 0.  0.
         13    1    3    3    0    0 -0.12125871869E+02  0.74678603150E+01 -0.37342389335E+03  0.37369534361E+03  0.00000000000E+00 0.  1.
          1    1    3    3  501    0 -0.14916895875E+02  0.89492730422E+01 -0.37013434494E+03  0.37054289437E+03  0.00000000000E+00 0.  1.
         -3    1    1    2    0  502  0.27042767744E+02 -0.16417133357E+02 -0.25512477371E+03  0.25707875002E+03  0.00000000000E+00 0. -1.
<mgrwt>
<rscale>  1 0.30000000E+03</rscale>
<asrwt>0</asrwt>
<pdfrwt beam="1">  1       21 0.47890574E-02 0.30000000E+03</pdfrwt>
<pdfrwt beam="2">0</pdfrwt>
<totfact> 0.30998689E+04</totfact>
</mgrwt>
</event>
<event>
 6    1  0.1280499E-001  0.3000000E+03  0.7818608E-02  0.1093470E+00
         21   -1    0    0  501  502  0.00000000000E+00  0.00000000000E+00  0.12912047583E+01  0.12912047583E+01  0.00000000000E+00 0. -1.
         13   -1    0    0    0    0 -0.00000000000E+00 -0.00000000000E+00 -0.10000000000E+04  0.10000000000E+04  0.00000000000E+00 0.  1.
    9000005    2    1    2  501    0  0.19471982359E+02 -0.24985416606E+02 -0.73383063654E+03  0.73452563709E+03  0.41327070294E+01 0.  0.
         13    1    3    3    0    0  0.37397606586E+01 -0.73362909992E+01 -0.21126759071E+03  0.21142800633E+03  0.00000000000E+00 0.  1.
          3    1    3    3  501    0  0.15732221701E+02 -0.17649125606E+02 -0.52256304584E+03  0.52309763076E+03  0.00000000000E+00 0.  1.
         -3    1    1    2    0  502 -0.19471982359E+02  0.24985416606E+02 -0.26487815870E+03  0.26676556767E+03  0.00000000000E+00 0. -1.
<mgrwt>
<rscale>  1 0.30000000E+03</rscale>
<asrwt>0</asrwt>
<pdfrwt beam="1">  1       21 0.46952999E-02 0.30000000E+03</pdfrwt>
<pdfrwt beam="2">0</pdfrwt>
<totfact> 0.32058821E+04</totfact>
</mgrwt>
</event>
<event>
 6    1  0.1280499E-001  0.3000000E+03  0.7818608E-02  0.1093470E+00
         21   -1    0    0  501  502  0.00000000000E+00  0.00000000000E+00  0.10960363207E+01  0.10960363207E+01  0.00000000000E+00 0. -1.
         13   -1    0    0    0    0 -0.00000000000E+00 -0.00000000000E+00 -0.10000000000E+04  0.10000000000E+04  0.00000000000E+00 0.  1.
    9000005    2    1    2  501    0 -0.24055071031E+02 -0.21005827264E+02 -0.62744309875E+03  0.62826488768E+03  0.34692511626E+01 0.  0.
         13    1    3    3    0    0 -0.71522954566E+01 -0.83915747287E+01 -0.22155672962E+03  0.22183092277E+03  0.00000000000E+00 0.  1.
          3    1    3    3  501    0 -0.16902775574E+02 -0.12614252535E+02 -0.40588636912E+03  0.40643396491E+03  0.00000000000E+00 0.  1.
         -3    1    1    2    0  502  0.24055071031E+02  0.21005827264E+02 -0.37146086493E+03  0.37283114864E+03  0.00000000000E+00 0. -1.
<mgrwt>
<rscale>  1 0.30000000E+03</rscale>
<asrwt>0</asrwt>
<pdfrwt beam="1">  1       21 0.39855950E-02 0.30000000E+03</pdfrwt>
<pdfrwt beam="2">0</pdfrwt>
<totfact> 0.42303539E+04</totfact>
</mgrwt>
</event>
<event>
 6    1  0.1280499E-001  0.3000000E+03  0.7818608E-02  0.1093470E+00
         21   -1    0    0  501  502  0.00000000000E+00  0.00000000000E+00  0.13431302751E+01  0.13431302751E+01  0.00000000000E+00 0. -1.
         13   -1    0    0    0    0 -0.00000000000E+00 -0.00000000000E+00 -0.10000000000E+04  0.10000000000E+04  0.00000000000E+00 0.  1.
    9000005    2    1    2  501    0  0.30428550443E+02 -0.81884967218E+01 -0.75431587099E+03  0.75497862021E+03  0.27084266020E+01 0.  0.
         13    1    3    3    0    0  0.18947873889E+02 -0.45782293133E+01 -0.49484852320E+03  0.49523231217E+03  0.00000000000E+00 0.  1.
          3    1    3    3  501    0  0.11480676553E+02 -0.36102674086E+01 -0.25946734780E+03  0.25974630804E+03  0.00000000000E+00 0.  1.
         -3    1    1    2    0  502 -0.30428550443E+02  0.81884967218E+01 -0.24434099873E+03  0.24636451007E+03  0.00000000000E+00 0. -1.
<mgrwt>
<rscale>  1 0.30000000E+03</rscale>
<asrwt>0</asrwt>
<pdfrwt beam="1">  1       21 0.48841204E-02 0.30000000E+03</pdfrwt>
<pdfrwt beam="2">0</pdfrwt>
<totfact> 0.29978735E+04</totfact>
</mgrwt>
</event>
<event>
 6    1  0.1280499E-001  0.3000000E+03  0.7818608E-02  0.1093470E+00
         21   -1    0    0  501  502  0.00000000000E+00  0.00000000000E+00  0.16258112277E+01  0.16258112277E+01  0.00000000000E+00 0. -1.
         13   -1    0    0    0    0 -0.00000000000E+00 -0.00000000000E+00 -0.10000000000E+04  0.10000000000E+04  0.00000000000E+00 0.  1.
    9000005    2    1    2  501    0 -0.25605840743E+02 -0.20408652232E+02 -0.79065248562E+03  0.79133915419E+03  0.37592255328E+01 0.  0.
         13    1    3    3    0    0 -0.24064063066E+02 -0.20168619496E+02 -0.75412577623E+03  0.75477913240E+03  0.00000000000E+00 0.  1.
          1    1    3    3  501    0 -0.15417776778E+01 -0.24003273555E+00 -0.36526709392E+02  0.36560021788E+02  0.00000000000E+00 0.  1.
         -1    1    1    2    0  502  0.25605840743E+02  0.20408652232E+02 -0.20772170315E+03  0.21028665704E+03  0.00000000000E+00 0. -1.
<mgrwt>
<rscale>  1 0.30000000E+03</rscale>
<asrwt>0</asrwt>
<pdfrwt beam="1">  1       21 0.59120533E-02 0.30000000E+03</pdfrwt>
<pdfrwt beam="2">0</pdfrwt>
<totfact> 0.21615022E+04</totfact>
</mgrwt>
</event>
<event>
 6    1  0.1280499E-001  0.3000000E+03  0.7818608E-02  0.1093470E+00
         21   -1    0    0  501  502  0.00000000000E+00  0.00000000000E+00  0.16616518707E+01  0.16616518707E+01  0.00000000000E+00 0. -1.
         13   -1    0    0    0    0 -0.00000000000E+00 -0.00000000000E+00 -0.10000000000E+04  0.10000000000E+04  0.00000000000E+00 0.  1.
    9000005    2    1    2  501    0 -0.32025905849E+02 -0.14649973569E+02 -0.75051277413E+03  0.75134625982E+03  0.33908166024E+01 0.  0.
         13    1    3    3    0    0 -0.22419156898E+02 -0.94144504693E+01 -0.54571795132E+03  0.54625940071E+03  0.00000000000E+00 0.  1.
          1    1    3    3  501    0 -0.96067489514E+01 -0.52355231002E+01 -0.20479482282E+03  0.20508685911E+03  0.00000000000E+00 0.  1.
         -1    1    1    2    0  502  0.32025905849E+02  0.14649973569E+02 -0.24782557400E+03  0.25031539205E+03  0.00000000000E+00 0. -1.
<mgrwt>
<rscale>  1 0.30000000E+03</rscale>
<asrwt>0</asrwt>
<pdfrwt beam="1">  1       21 0.60423832E-02 0.30000000E+03</pdfrwt>
<pdfrwt beam="2">0</pdfrwt>
<totfact> 0.20817370E+04</totfact>
</mgrwt>
</event>
<event>
 6    1  0.1280499E-001  0.3000000E+03  0.7818608E-02  0.1093470E+00
         21   -1    0    0  501  502  0.00000000000E+00  0.00000000000E+00  0.12806625998E+01  0.12806625998E+01  0.00000000000E+00 0. -1.
         13   -1    0    0    0    0 -0.00000000000E+00 -0.00000000000E+00 -0.10000000000E+04  0.10000000000E+04  0.00000000000E+00 0.  1.
    9000005    2    1    2  501    0  0.31389802130E+02 -0.28935048478E-01 -0.73915247510E+03  0.73982268028E+03  0.24282284573E+01 0.  0.
         13    1    3    3    0    0  0.36158316505E+01 -0.75761520737E+00 -0.82312829787E+02  0.82395692647E+02  0.00000000000E+00 0.  1.
          1    1    3    3  501    0  0.27773970479E+02  0.72868015889E+00 -0.65683964532E+03  0.65742698763E+03  0.00000000000E+00 0.  1.
         -1    1    1    2    0  502 -0.31389802130E+02  0.28935048478E-01 -0.25956686230E+03  0.26145798232E+03  0.00000000000E+00 0. -1.
<mgrwt>
<rscale>  1 0.30000000E+03</rscale>
<asrwt>0</asrwt>
<pdfrwt beam="1">  1       21 0.46569647E-02 0.30000000E+03</pdfrwt>
<pdfrwt beam="2">0</pdfrwt>
<totfact> 0.32508723E+04</totfact>
</mgrwt>
</event>
<event>
 6    1  0.1280499E-001  0.3000000E+03  0.7818608E-02  0.1093470E+00
         21   -1    0    0  501  502  0.00000000000E+00  0.00000000000E+00  0.64073680071E+01  0.64073680071E+01  0.00000000000E+00 0. -1.
         13   -1    0    0    0    0 -0.00000000000E+00 -0.00000000000E+00 -0.10000000000E+04  0.10000000000E+04  0.00000000000E+00 0.  1.
    9000005    2    1    2  501    0  0.54682598732E+02 -0.10607243362E+02 -0.85804913557E+03  0.85986474746E+03  0.40453240217E+01 0.  0.
         13    1    3    3    0    0 -0.51018892026E-01 -0.53522502838E-01 -0.45484850997E+00  0.46081965310E+00  0.00000000000E+00 0.  1.
          3    1    3    3  501    0  0.54733617624E+02 -0.10553720859E+02 -0.85759428706E+03  0.85940392780E+03  0.00000000000E+00 0.  1.
         -3    1    1    2    0  502 -0.54682598732E+02  0.10607243362E+02 -0.13554349642E+03  0.14654262055E+03  0.00000000000E+00 0. -1.
<mgrwt>
<rscale>  1 0.30000000E+03</rscale>
<asrwt>0</asrwt>
<pdfrwt beam="1">  1       21 0.23299569E-01 0.30000000E+03</pdfrwt>
<pdfrwt beam="2">0</pdfrwt>
<totfact> 0.17888845E+03</totfact>
</mgrwt>
</event>
<event>
 6    1  0.1280499E-001  0.3000000E+03  0.7818608E-02  0.1093470E+00
         21   -1    0    0  501  502  0.00000000000E+00  0.00000000000E+00  0.19984982833E+01  0.19984982833E+01  0.00000000000E+00 0. -1.
         13   -1    0    0    0    0 -0.00000000000E+00 -0.00000000000E+00 -0.10000000000E+04  0.10000000000E+04  0.00000000000E+00 0.  1.
    9000005    2    1    2  501    0  0.22578223709E+02 -0.37367283553E+02 -0.39699398822E+03  0.39940732565E+03  0.39868568636E+01 0.  0.
         13    1    3    3    0    0  0.27876797674E+01 -0.41325391204E+01 -0.35146717749E+02  0.35498462031E+02  0.00000000000E+00 0.  1.
          3    1    3    3  501    0  0.19790543941E+02 -0.33234744432E+02 -0.36184727047E+03  0.36390886361E+03  0.00000000000E+00 0.  1.
         -1    1    1    2    0  502 -0.22578223709E+02  0.37367283553E+02 -0.60100751349E+03  0.60259117264E+03  0.00000000000E+00 0. -1.
<mgrwt>
<rscale>  1 0.30000000E+03</rscale>
<asrwt>0</asrwt>
<pdfrwt beam="1">  1       21 0.72672818E-02 0.30000000E+03</pdfrwt>
<pdfrwt beam="2">0</pdfrwt>
<totfact> 0.15115044E+04</totfact>
</mgrwt>
</event>
<event>
 6    1  0.1280499E-001  0.3000000E+03  0.7818608E-02  0.1093470E+00
         21   -1    0    0  501  502  0.00000000000E+00  0.00000000000E+00  0.37755243582E+01  0.37755243582E+01  0.00000000000E+00 0. -1.
         13   -1    0    0    0    0 -0.00000000000E+00 -0.00000000000E+00 -0.10000000000E+04  0.10000000000E+04  0.00000000000E+00 0.  1.
    9000005    2    1    2  501    0  0.82644696455E+01  0.35591115248E+02 -0.90153840551E+03  0.90228423991E+03  0.32131022505E+01 0.  0.
         13    1    3    3    0    0  0.36554493923E+01  0.22480179110E+02 -0.56786615170E+03  0.56832269619E+03  0.00000000000E+00 0.  1.
          1    1    3    3  501    0  0.46090202532E+01  0.13110936138E+02 -0.33367225381E+03  0.33396154371E+03  0.00000000000E+00 0.  1.
         -1    1    1    2    0  502 -0.82644696455E+01 -0.35591115248E+02 -0.94686070127E+02  0.10149128445E+03  0.00000000000E+00 0. -1.
<mgrwt>
<rscale>  1 0.30000000E+03</rscale>
<asrwt>0</asrwt>
<pdfrwt beam="1">  1       21 0.13729208E-01 0.30000000E+03</pdfrwt>
<pdfrwt beam="2">0</pdfrwt>
<totfact> 0.48473981E+03</totfact>
</mgrwt>
</event>
<event>
 6    1  0.1280499E-001  0.3000000E+03  0.7818608E-02  0.1093470E+00
         21   -1    0    0  501  502  0.00000000000E+00  0.00000000000E+00  0.42996933149E+01  0.42996933149E+01  0.00000000000E+00 0. -1.
         13   -1    0    0    0    0 -0.00000000000E+00 -0.00000000000E+00 -0.10000000000E+04  0.10000000000E+04  0.00000000000E+00 0.  1.
    9000005    2    1    2  501    0  0.29151686074E+02 -0.18666777618E+02 -0.92425813026E+03  0.92491295664E+03  0.35519883016E+01 0.  0.
         13    1    3    3    0    0  0.26413453526E+02 -0.16408130560E+02 -0.79984030973E+03  0.80044451297E+03  0.00000000000E+00 0.  1.
          1    1    3    3  501    0  0.27382325480E+01 -0.22586470585E+01 -0.12441782053E+03  0.12446844367E+03  0.00000000000E+00 0.  1.
         -3    1    1    2    0  502 -0.29151686074E+02  0.18666777618E+02 -0.71442176428E+02  0.79386736678E+02  0.00000000000E+00 0. -1.
<mgrwt>
<rscale>  1 0.30000000E+03</rscale>
<asrwt>0</asrwt>
<pdfrwt beam="1">  1       21 0.15635281E-01 0.30000000E+03</pdfrwt>
<pdfrwt beam="2">0</pdfrwt>
<totfact> 0.38129440E+03</totfact>
</mgrwt>
</event>
<event>
 6    1  0.1280499E-001  0.3000000E+03  0.7818608E-02  0.1093470E+00
         21   -1    0    0  501  502  0.00000000000E+00  0.00000000000E+00  0.27522288341E+01  0.27522288341E+01  0.00000000000E+00 0. -1.
         13   -1    0    0    0    0 -0.00000000000E+00 -0.00000000000E+00 -0.10000000000E+04  0.10000000000E+04  0.00000000000E+00 0.  1.
    9000005    2    1    2  501    0 -0.19192504365E+02 -0.27443951188E+02 -0.88438683442E+03  0.88502749174E+03  0.34735515759E+01 0.  0.
         13    1    3    3    0    0 -0.14459509201E+01 -0.34310256537E+01 -0.11980484290E+03  0.11986268432E+03  0.00000000000E+00 0.  1.
          1    1    3    3  501    0 -0.17746553445E+02 -0.24012925534E+02 -0.76458199152E+03  0.76516480742E+03  0.00000000000E+00 0.  1.
         -1    1    1    2    0  502  0.19192504365E+02  0.27443951188E+02 -0.11286093675E+03  0.11772473709E+03  0.00000000000E+00 0. -1.
<mgrwt>
<rscale>  1 0.30000000E+03</rscale>
<asrwt>0</asrwt>
<pdfrwt beam="1">  1       21 0.10008126E-01 0.30000000E+03</pdfrwt>
<pdfrwt beam="2">0</pdfrwt>
<totfact> 0.85907199E+03</totfact>
</mgrwt>
</event>
<event>
 6    1  0.1280499E-001  0.3000000E+03  0.7818608E-02  0.1093470E+00
         21   -1    0    0  501  502  0.00000000000E+00  0.00000000000E+00  0.23876500739E+01  0.23876500739E+01  0.00000000000E+00 0. -1.
         13   -1    0    0    0    0 -0.00000000000E+00 -0.00000000000E+00 -0.10000000000E+04  0.10000000000E+04  0.00000000000E+00 0.  1.
    9000005    2    1    2  501    0 -0.41932684176E+02 -0.24779984239E+02 -0.52851773953E+03  0.53077112033E+03  0.38188429971E+01 0.  0.
         13    1    3    3    0    0 -0.40049481938E+02 -0.23996934805E+02 -0.51293905783E+03  0.51505950232E+03  0.00000000000E+00 0.  1.
          3    1    3    3  501    0 -0.18832022376E+01 -0.78304943440E+00 -0.15578681694E+02  0.15711618007E+02  0.00000000000E+00 0.  1.
         -1    1    1    2    0  502  0.41932684176E+02  0.24779984239E+02 -0.46909461040E+03  0.47161652974E+03  0.00000000000E+00 0. -1.
<mgrwt>
<rscale>  1 0.30000000E+03</rscale>
<asrwt>0</asrwt>
<pdfrwt beam="1">  1       21 0.86823822E-02 0.30000000E+03</pdfrwt>
<pdfrwt beam="2">0</pdfrwt>
<totfact> 0.11059064E+04</totfact>
</mgrwt>
</event>
<event>
 6    1  0.1280499E-001  0.3000000E+03  0.7818608E-02  0.1093470E+00
         21   -1    0    0  501  502  0.00000000000E+00  0.00000000000E+00  0.18888942817E+01  0.18888942817E+01  0.00000000000E+00 0. -1.
         13   -1    0    0    0    0 -0.00000000000E+00 -0.00000000000E+00 -0.10000000000E+04  0.10000000000E+04  0.00000000000E+00 0.  1.
    9000005    2    1    2  501    0  0.10637064934E+02 -0.41492207354E+02 -0.41965443744E+03  0.42184849267E+03  0.33990420343E+01 0.  0.
         13    1    3    3    0    0  0.20986532647E+01 -0.41709806040E+01 -0.42375620945E+02  0.42632085044E+02  0.00000000000E+00 0.  1.
          3    1    3    3  501    0  0.85384116695E+01 -0.37321226750E+02 -0.37727881649E+03  0.37921640763E+03  0.00000000000E+00 0.  1.
         -3    1    1    2    0  502 -0.10637064934E+02  0.41492207354E+02 -0.57845666828E+03  0.58004040161E+03  0.00000000000E+00 0. -1.
<mgrwt>
<rscale>  1 0.30000000E+03</rscale>
<asrwt>0</asrwt>
<pdfrwt beam="1">  1       21 0.68687210E-02 0.30000000E+03</pdfrwt>
<pdfrwt beam="2">0</pdfrwt>
<totfact> 0.16675364E+04</totfact>
</mgrwt>
</event>
<event>
 6    1  0.1280499E-001  0.3000000E+03  0.7818608E-02  0.1093470E+00
         21   -1    0    0  501  502  0.00000000000E+00  0.00000000000E+00  0.24256912204E+01  0.24256912204E+01  0.00000000000E+00 0. -1.
         13   -1    0    0    0    0 -0.00000000000E+00 -0.00000000000E+00 -0.10000000000E+04  0.10000000000E+04  0.00000000000E+00 0.  1.
    9000005    2    1    2  501    0  0.25585058492E+02  0.20108379393E+02 -0.87483910867E+03  0.87544982152E+03  0.31593992413E+01 0.  0.
         13    1    3    3    0    0  0.13904025742E+01  0.17862402465E+01 -0.46786933281E+02  0.46841658802E+02  0.00000000000E+00 0.  1.
          3    1    3    3  501    0  0.24194655918E+02  0.18322139146E+02 -0.82805217539E+03  0.82860816272E+03  0.00000000000E+00 0.  1.
         -1    1    1    2    0  502 -0.25585058492E+02 -0.20108379393E+02 -0.12273520011E+03  0.12697586970E+03  0.00000000000E+00 0. -1.
<mgrwt>
<rscale>  1 0.30000000E+03</rscale>
<asrwt>0</asrwt>
<pdfrwt beam="1">  1       21 0.88207139E-02 0.30000000E+03</pdfrwt>
<pdfrwt beam="2">0</pdfrwt>
<totfact> 0.10754387E+04</totfact>
</mgrwt>
</event>
<event>
 6    1  0.1280499E-001  0.3000000E+03  0.7818608E-02  0.1093470E+00
         21   -1    0    0  501  502  0.00000000000E+00  0.00000000000E+00  0.13286186766E+01  0.13286186766E+01  0.00000000000E+00 0. -1.
         13   -1    0    0    0    0 -0.00000000000E+00 -0.00000000000E+00 -0.10000000000E+04  0.10000000000E+04  0.00000000000E+00 0.  1.
    9000005    2    1    2  501    0 -0.22822357841E+02 -0.19550320935E+02 -0.78184072438E+03  0.78242542351E+03  0.33985262716E+01 0.  0.
         13    1    3    3    0    0 -0.80624281814E+01 -0.74262161801E+01 -0.24524460962E+03  0.24548944984E+03  0.00000000000E+00 0.  1.
          1    1    3    3  501    0 -0.14759929659E+02 -0.12124104755E+02 -0.53659611476E+03  0.53693597367E+03  0.00000000000E+00 0.  1.
         -3    1    1    2    0  502  0.22822357841E+02  0.19550320935E+02 -0.21683065694E+03  0.21890319517E+03  0.00000000000E+00 0. -1.
<mgrwt>
<rscale>  1 0.30000000E+03</rscale>
<asrwt>0</asrwt>
<pdfrwt beam="1">  1       21 0.48313508E-02 0.30000000E+03</pdfrwt>
<pdfrwt beam="2">0</pdfrwt>
<totfact> 0.30538319E+04</totfact>
</mgrwt>
</event>
<event>
 6    1  0.1280499E-001  0.3000000E+03  0.7818608E-02  0.1093470E+00
         21   -1    0    0  501  502  0.00000000000E+00  0.00000000000E+00  0.10673728422E+01  0.10673728422E+01  0.00000000000E+00 0. -1.
         13   -1    0    0    0    0 -0.00000000000E+00 -0.00000000000E+00 -0.10000000000E+04  0.10000000000E+04  0.00000000000E+00 0.  1.
    9000005    2    1    2  501    0 -0.30459796157E+02  0.47917847452E+01 -0.66024036567E+03  0.66097443205E+03  0.43702385287E+01 0.  0.
         13    1    3    3    0    0 -0.25802714334E+02  0.55815706894E+01 -0.56813968168E+03  0.56875269836E+03  0.00000000000E+00 0.  1.
          3    1    3    3  501    0 -0.46570818228E+01 -0.78978594421E+00 -0.92100683989E+02  0.92221733687E+02  0.00000000000E+00 0.  1.
         -3    1    1    2    0  502  0.30459796157E+02 -0.47917847452E+01 -0.33869226149E+03  0.34009294079E+03  0.00000000000E+00 0. -1.
<mgrwt>
<rscale>  1 0.30000000E+03</rscale>
<asrwt>0</asrwt>
<pdfrwt beam="1">  1       21 0.38813640E-02 0.30000000E+03</pdfrwt>
<pdfrwt beam="2">0</pdfrwt>
<totfact> 0.44232564E+04</totfact>
</mgrwt>
</event>
<event>
 6    1  0.1280499E-001  0.3000000E+03  0.7818608E-02  0.1093470E+00
         21   -1    0    0  501  502  0.00000000000E+00  0.00000000000E+00  0.11625809981E+01  0.11625809981E+01  0.00000000000E+00 0. -1.
         13   -1    0    0    0    0 -0.00000000000E+00 -0.00000000000E+00 -0.10000000000E+04  0.10000000000E+04  0.00000000000E+00 0.  1.
    9000005    2    1    2  501    0 -0.22656024361E+02 -0.25364441414E+02 -0.48179497621E+03  0.48300281994E+03  0.29452748444E+01 0.  0.
         13    1    3    3    0    0 -0.15737252641E+01 -0.27146895724E+01 -0.53017931836E+02  0.53110707460E+02  0.00000000000E+00 0.  1.
          1    1    3    3  501    0 -0.21082299097E+02 -0.22649751842E+02 -0.42877704437E+03  0.42989211248E+03  0.00000000000E+00 0.  1.
         -3    1    1    2    0  502  0.22656024361E+02  0.25364441414E+02 -0.51704244279E+03  0.51815976106E+03  0.00000000000E+00 0. -1.
<mgrwt>
<rscale>  1 0.30000000E+03</rscale>
<asrwt>0</asrwt>
<pdfrwt beam="1">  1       21 0.42275762E-02 0.30000000E+03</pdfrwt>
<pdfrwt beam="2">0</pdfrwt>
<totfact> 0.38300764E+04</totfact>
</mgrwt>
</event>
<event>
 6    1  0.1280499E-001  0.3000000E+03  0.7818608E-02  0.1093470E+00
         21   -1    0    0  501  502  0.00000000000E+00  0.00000000000E+00  0.20414208716E+01  0.20414208716E+01  0.00000000000E+00 0. -1.
         13   -1    0    0    0    0 -0.00000000000E+00 -0.00000000000E+00 -0.10000000000E+04  0.10000000000E+04  0.00000000000E+00 0.  1.
    9000005    2    1    2  501    0 -0.21465878303E+02  0.32666976007E+02 -0.24997145154E+03  0.25303363834E+03  0.35185642669E+01 0.  0.
         13    1    3    3    0    0 -0.15509462916E+02  0.22014344814E+02 -0.16286044865E+03  0.16507180423E+03  0.00000000000E+00 0.  1.
          1    1    3    3  501    0 -0.59564153864E+01  0.10652631193E+02 -0.87111002884E+02  0.87961834105E+02  0.00000000000E+00 0.  1.
         -3    1    1    2    0  502  0.21465878303E+02 -0.32666976007E+02 -0.74798712759E+03  0.74900778253E+03  0.00000000000E+00 0. -1.
<mgrwt>
<rscale>  1 0.30000000E+03</rscale>
<asrwt>0</asrwt>
<pdfrwt beam="1">  1       21 0.74233643E-02 0.30000000E+03</pdfrwt>
<pdfrwt beam="2">0</pdfrwt>
<totfact> 0.14563950E+04</totfact>
</mgrwt>
</event>
<event>
 6    1  0.1280499E-001  0.3000000E+03  0.7818608E-02  0.1093470E+00
         21   -1    0    0  501  502  0.00000000000E+00  0.00000000000E+00  0.29973066223E+01  0.29973066223E+01  0.00000000000E+00 0. -1.
         13   -1    0    0    0    0 -0.00000000000E+00 -0.00000000000E+00 -0.10000000000E+04  0.10000000000E+04  0.00000000000E+00 0.  1.
    9000005    2    1    2  501    0 -0.50915697006E+02  0.14102108903E+02 -0.62879772885E+03  0.63102126764E+03  0.31589119589E+01 0.  0.
         13    1    3    3    0    0 -0.23727102280E+02  0.56500420884E+01 -0.30568663738E+03  0.30665814620E+03  0.00000000000E+00 0.  1.
          1    1    3    3  501    0 -0.27188594726E+02  0.84520668147E+01 -0.32311109147E+03  0.32436312144E+03  0.00000000000E+00 0.  1.
         -3    1    1    2    0  502  0.50915697006E+02 -0.14102108903E+02 -0.36820496452E+03  0.37197603898E+03  0.00000000000E+00 0. -1.
<mgrwt>
<rscale>  1 0.30000000E+03</rscale>
<asrwt>0</asrwt>
<pdfrwt beam="1">  1       21 0.10899320E-01 0.30000000E+03</pdfrwt>
<pdfrwt beam="2">0</pdfrwt>
<totfact> 0.73729420E+03</totfact>
</mgrwt>
</event>
<event>
 6    1  0.1280499E-001  0.3000000E+03  0.7818608E-02  0.1093470E+00
         21   -1    0    0  501  502  0.00000000000E+00  0.00000000000E+00  0.20197273965E+01  0.20197273965E+01  0.00000000000E+00 0. -1.
         13   -1    0    0    0    0 -0.00000000000E+00 -0.00000000000E+00 -0.10000000000E+04  0.10000000000E+04  0.00000000000E+00 0.  1.
    9000005    2    1    2  501    0  0.32331577668E+02 -0.20107347938E+02 -0.23629508855E+03  0.23938353893E+03  0.44128767434E+01 0.  0.
         13    1    3    3    0    0  0.30798572026E+02 -0.19972223293E+02 -0.22944095806E+03  0.23235876350E+03  0.00000000000E+00 0.  1.
          3    1    3    3  501    0  0.15330056416E+01 -0.13512464477E+00 -0.68541304991E+01  0.70247754317E+01  0.00000000000E+00 0.  1.
         -3    1    1    2    0  502 -0.32331577668E+02  0.20107347938E+02 -0.76168518405E+03  0.76263618846E+03  0.00000000000E+00 0. -1.
<mgrwt>
<rscale>  1 0.30000000E+03</rscale>
<asrwt>0</asrwt>
<pdfrwt beam="1">  1       21 0.73444787E-02 0.30000000E+03</pdfrwt>
<pdfrwt beam="2">0</pdfrwt>
<totfact> 0.14838599E+04</totfact>
</mgrwt>
</event>
<event>
 6    1  0.1280499E-001  0.3000000E+03  0.7818608E-02  0.1093470E+00
         21   -1    0    0  501  502  0.00000000000E+00  0.00000000000E+00  0.23465650340E+01  0.23465650340E+01  0.00000000000E+00 0. -1.
         13   -1    0    0    0    0 -0.00000000000E+00 -0.00000000000E+00 -0.10000000000E+04  0.10000000000E+04  0.00000000000E+00 0.  1.
    9000005    2    1    2  501    0 -0.56070118169E+01  0.30461446276E+02 -0.88402386456E+03  0.88457128086E+03  0.29697687697E+01 0.  0.
         13    1    3    3    0    0 -0.51458517227E+00  0.82860545905E+01 -0.21269430252E+03  0.21285626564E+03  0.00000000000E+00 0.  1.
          3    1    3    3  501    0 -0.50924266446E+01  0.22175391686E+02 -0.67132956204E+03  0.67171501522E+03  0.00000000000E+00 0.  1.
         -3    1    1    2    0  502  0.56070118169E+01 -0.30461446276E+02 -0.11362957041E+03  0.11777528417E+03  0.00000000000E+00 0. -1.
<mgrwt>
<rscale>  1 0.30000000E+03</rscale>
<asrwt>0</asrwt>
<pdfrwt beam="1">  1       21 0.85329818E-02 0.30000000E+03</pdfrwt>
<pdfrwt beam="2">0</pdfrwt>
<totfact> 0.11403112E+04</totfact>
</mgrwt>
</event>
<event>
 6    1  0.1280499E-001  0.3000000E+03  0.7818608E-02  0.1093470E+00
         21   -1    0    0  501  502  0.00000000000E+00  0.00000000000E+00  0.10228892376E+01  0.10228892376E+01  0.00000000000E+00 0. -1.
         13   -1    0    0    0    0 -0.00000000000E+00 -0.00000000000E+00 -0.10000000000E+04  0.10000000000E+04  0.00000000000E+00 0.  1.
    9000005    2    1    2  501    0  0.20836769633E+02  0.23792555775E+02 -0.43755612853E+03  0.43871178676E+03  0.35227189459E+01 0.  0.
         13    1    3    3    0    0  0.39560195097E+01  0.59892939882E+01 -0.11518409792E+03  0.11540753072E+03  0.00000000000E+00 0.  1.
          3    1    3    3  501    0  0.16880750123E+02  0.17803261787E+02 -0.32237203062E+03  0.32330425605E+03  0.00000000000E+00 0.  1.
         -3    1    1    2    0  502 -0.20836769633E+02 -0.23792555775E+02 -0.56142098223E+03  0.56231110247E+03  0.00000000000E+00 0. -1.
<mgrwt>
<rscale>  1 0.30000000E+03</rscale>
<asrwt>0</asrwt>
<pdfrwt beam="1">  1       21 0.37196051E-02 0.30000000E+03</pdfrwt>
<pdfrwt beam="2">0</pdfrwt>
<totfact> 0.47512086E+04</totfact>
</mgrwt>
</event>
<event>
 6    1  0.1280499E-001  0.3000000E+03  0.7818608E-02  0.1093470E+00
         21   -1    0    0  501  502  0.00000000000E+00  0.00000000000E+00  0.12726536589E+01  0.12726536589E+01  0.00000000000E+00 0. -1.
         13   -1    0    0    0    0 -0.00000000000E+00 -0.00000000000E+00 -0.10000000000E+04  0.10000000000E+04  0.00000000000E+00 0.  1.
    9000005    2    1    2  501    0  0.19060159732E+02  0.26777057352E+02 -0.69236960354E+03  0.69315681982E+03  0.32262151564E+01 0.  0.
         13    1    3    3    0    0  0.12883709012E+02  0.17156249693E+02 -0.42066021359E+03  0.42120700631E+03  0.00000000000E+00 0.  1.
          3    1    3    3  501    0  0.61764507200E+01  0.96208076592E+01 -0.27170938995E+03  0.27194981351E+03  0.00000000000E+00 0.  1.
         -3    1    1    2    0  502 -0.19060159732E+02 -0.26777057352E+02 -0.30635774280E+03  0.30811583384E+03  0.00000000000E+00 0. -1.
<mgrwt>
<rscale>  1 0.30000000E+03</rscale>
<asrwt>0</asrwt>
<pdfrwt beam="1">  1       21 0.46278412E-02 0.30000000E+03</pdfrwt>
<pdfrwt beam="2">0</pdfrwt>
<totfact> 0.32857169E+04</totfact>
</mgrwt>
</event>
<event>
 6    1  0.1280499E-001  0.3000000E+03  0.7818608E-02  0.1093470E+00
         21   -1    0    0  501  502  0.00000000000E+00  0.00000000000E+00  0.26358321905E+02  0.26358321905E+02  0.00000000000E+00 0. -1.
         13   -1    0    0    0    0 -0.00000000000E+00 -0.00000000000E+00 -0.10000000000E+04  0.10000000000E+04  0.00000000000E+00 0.  1.
    9000005    2    1    2  501    0  0.79048094389E+02 -0.64229529193E+02 -0.88643115964E+03  0.89226988774E+03  0.33642446188E+01 0.  0.
         13    1    3    3    0    0  0.21816827742E+02 -0.19216893029E+02 -0.26166178618E+03  0.26327201389E+03  0.00000000000E+00 0.  1.
          3    1    3    3  501    0  0.57231266648E+02 -0.45012636164E+02 -0.62476937346E+03  0.62899787385E+03  0.00000000000E+00 0.  1.
         -1    1    1    2    0  502 -0.79048094389E+02  0.64229529193E+02 -0.87210518453E+02  0.13408843416E+03  0.00000000000E+00 0. -1.
<mgrwt>
<rscale>  1 0.30000000E+03</rscale>
<asrwt>0</asrwt>
<pdfrwt beam="1">  1       21 0.95848645E-01 0.30000000E+03</pdfrwt>
<pdfrwt beam="2">0</pdfrwt>
<totfact> 0.82111455E+01</totfact>
</mgrwt>
</event>
<event>
 6    1  0.1280499E-001  0.3000000E+03  0.7818608E-02  0.1093470E+00
         21   -1    0    0  501  502  0.00000000000E+00  0.00000000000E+00  0.12828199663E+01  0.12828199663E+01  0.00000000000E+00 0. -1.
         13   -1    0    0    0    0 -0.00000000000E+00 -0.00000000000E+00 -0.10000000000E+04  0.10000000000E+04  0.00000000000E+00 0.  1.
    9000005    2    1    2  501    0  0.20349184603E+02 -0.28957939175E+02 -0.57235934047E+03  0.57345848812E+03  0.26021967366E+01 0.  0.
         13    1    3    3    0    0  0.31074615717E+01 -0.42728104542E+01 -0.10146620898E+03  0.10160366525E+03  0.00000000000E+00 0.  1.
          1    1    3    3  501    0  0.17241723031E+02 -0.24685128720E+02 -0.47089313148E+03  0.47185482288E+03  0.00000000000E+00 0.  1.
         -1    1    1    2    0  502 -0.20349184603E+02  0.28957939175E+02 -0.42635783957E+03  0.42782433184E+03  0.00000000000E+00 0. -1.
<mgrwt>
<rscale>  1 0.30000000E+03</rscale>
<asrwt>0</asrwt>
<pdfrwt beam="1">  1       21 0.46648097E-02 0.30000000E+03</pdfrwt>
<pdfrwt beam="2">0</pdfrwt>
<totfact> 0.32415852E+04</totfact>
</mgrwt>
</event>
<event>
 6    1  0.1280499E-001  0.3000000E+03  0.7818608E-02  0.1093470E+00
         21   -1    0    0  501  502  0.00000000000E+00  0.00000000000E+00  0.28197034174E+01  0.28197034174E+01  0.00000000000E+00 0. -1.
         13   -1    0    0    0    0 -0.00000000000E+00 -0.00000000000E+00 -0.10000000000E+04  0.10000000000E+04  0.00000000000E+00 0.  1.
    9000005    2    1    2  501    0  0.40165670989E+02  0.97716131258E+01 -0.81302479105E+03  0.81408174812E+03  0.33190696269E+01 0.  0.
         13    1    3    3    0    0  0.17394166477E+02  0.58186988035E+01 -0.34832940482E+03  0.34881196732E+03  0.00000000000E+00 0.  1.
          1    1    3    3  501    0  0.22771504512E+02  0.39529143223E+01 -0.46469538623E+03  0.46526978081E+03  0.00000000000E+00 0.  1.
         -1    1    1    2    0  502 -0.40165670989E+02 -0.97716131258E+01 -0.18415550554E+03  0.18873795529E+03  0.00000000000E+00 0. -1.
<mgrwt>
<rscale>  1 0.30000000E+03</rscale>
<asrwt>0</asrwt>
<pdfrwt beam="1">  1       21 0.10253489E-01 0.30000000E+03</pdfrwt>
<pdfrwt beam="2">0</pdfrwt>
<totfact> 0.82265753E+03</totfact>
</mgrwt>
</event>
<event>
 6    1  0.1280499E-001  0.3000000E+03  0.7818608E-02  0.1093470E+00
         21   -1    0    0  501  502  0.00000000000E+00  0.00000000000E+00  0.27080070885E+01  0.27080070885E+01  0.00000000000E+00 0. -1.
         13   -1    0    0    0    0 -0.00000000000E+00 -0.00000000000E+00 -0.10000000000E+04  0.10000000000E+04  0.00000000000E+00 0.  1.
    9000005    2    1    2  501    0 -0.83258245746E+01 -0.38367719986E+02 -0.82666917064E+03  0.82762645817E+03  0.64988679752E+01 0.  0.
         13    1    3    3    0    0 -0.69990768267E+01 -0.17031540936E+02 -0.38836591633E+03  0.38880219319E+03  0.00000000000E+00 0.  1.
          1    1    3    3  501    0 -0.13267477479E+01 -0.21336179050E+02 -0.43830325431E+03  0.43882426498E+03  0.00000000000E+00 0.  1.
         -3    1    1    2    0  502  0.83258245746E+01  0.38367719986E+02 -0.17062282227E+03  0.17508154892E+03  0.00000000000E+00 0. -1.
<mgrwt>
<rscale>  1 0.30000000E+03</rscale>
<asrwt>0</asrwt>
<pdfrwt beam="1">  1       21 0.98473193E-02 0.30000000E+03</pdfrwt>
<pdfrwt beam="2">0</pdfrwt>
<totfact> 0.88428885E+03</totfact>
</mgrwt>
</event>
<event>
 6    1  0.1280499E-001  0.3000000E+03  0.7818608E-02  0.1093470E+00
         21   -1    0    0  501  502  0.00000000000E+00  0.00000000000E+00  0.10873353204E+01  0.10873353204E+01  0.00000000000E+00 0. -1.
         13   -1    0    0    0    0 -0.00000000000E+00 -0.00000000000E+00 -0.10000000000E+04  0.10000000000E+04  0.00000000000E+00 0.  1.
    9000005    2    1    2  501    0 -0.30571451500E+02  0.14303368021E+01 -0.68403501041E+03  0.68472583850E+03  0.29864589309E+01 0.  0.
         13    1    3    3    0    0 -0.27027286740E+02  0.85608767798E+00 -0.58236685984E+03  0.58299431091E+03  0.00000000000E+00 0.  1.
          1    1    3    3  501    0 -0.35441647606E+01  0.57424912411E+00 -0.10166815057E+03  0.10173152760E+03  0.00000000000E+00 0.  1.
         -3    1    1    2    0  502  0.30571451500E+02 -0.14303368021E+01 -0.31487765427E+03  0.31636149682E+03  0.00000000000E+00 0. -1.
<mgrwt>
<rscale>  1 0.30000000E+03</rscale>
<asrwt>0</asrwt>
<pdfrwt beam="1">  1       21 0.39539550E-02 0.30000000E+03</pdfrwt>
<pdfrwt beam="2">0</pdfrwt>
<totfact> 0.42874957E+04</totfact>
</mgrwt>
</event>
<event>
 6    1  0.1280499E-001  0.3000000E+03  0.7818608E-02  0.1093470E+00
         21   -1    0    0  501  502  0.00000000000E+00  0.00000000000E+00  0.60716662384E+01  0.60716662384E+01  0.00000000000E+00 0. -1.
         13   -1    0    0    0    0 -0.00000000000E+00 -0.00000000000E+00 -0.10000000000E+04  0.10000000000E+04  0.00000000000E+00 0.  1.
    9000005    2    1    2  501    0 -0.19716638590E+01  0.76704273473E+02 -0.41083322603E+03  0.41794979308E+03  0.32644904067E+01 0.  0.
         13    1    3    3    0    0  0.53072801670E+00  0.31109196884E+02 -0.17137708719E+03  0.17417855728E+03  0.00000000000E+00 0.  1.
          3    1    3    3  501    0 -0.25023918757E+01  0.45595076589E+02 -0.23945613884E+03  0.24377123580E+03  0.00000000000E+00 0.  1.
         -3    1    1    2    0  502  0.19716638590E+01 -0.76704273473E+02 -0.58309510773E+03  0.58812187316E+03  0.00000000000E+00 0. -1.
<mgrwt>
<rscale>  1 0.30000000E+03</rscale>
<asrwt>0</asrwt>
<pdfrwt beam="1">  1       21 0.22078833E-01 0.30000000E+03</pdfrwt>
<pdfrwt beam="2">0</pdfrwt>
<totfact> 0.19848738E+03</totfact>
</mgrwt>
</event>
<event>
 6    1  0.1280499E-001  0.3000000E+03  0.7818608E-02  0.1093470E+00
         21   -1    0    0  501  502  0.00000000000E+00  0.00000000000E+00  0.21921557425E+01  0.21921557425E+01  0.00000000000E+00 0. -1.
         13   -1    0    0    0    0 -0.00000000000E+00 -0.00000000000E+00 -0.10000000000E+04  0.10000000000E+04  0.00000000000E+00 0.  1.
    9000005    2    1    2  501    0  0.19872985949E+02 -0.28276014075E+02 -0.83664451750E+03  0.83736471132E+03  0.33380477652E+01 0.  0.
         13    1    3    3    0    0  0.16284989707E+02 -0.24565831300E+02 -0.68932166453E+03  0.68995147521E+03  0.00000000000E+00 0.  1.
          3    1    3    3  501    0  0.35879962426E+01 -0.37101827746E+01 -0.14732285297E+03  0.14741323611E+03  0.00000000000E+00 0.  1.
         -1    1    1    2    0  502 -0.19872985949E+02  0.28276014075E+02 -0.16116332676E+03  0.16482744442E+03  0.00000000000E+00 0. -1.
<mgrwt>
<rscale>  1 0.30000000E+03</rscale>
<asrwt>0</asrwt>
<pdfrwt beam="1">  1       21 0.79714922E-02 0.30000000E+03</pdfrwt>
<pdfrwt beam="2">0</pdfrwt>
<totfact> 0.12854208E+04</totfact>
</mgrwt>
</event>
<event>
 6    1  0.1280499E-001  0.3000000E+03  0.7818608E-02  0.1093470E+00
         21   -1    0    0  501  502  0.00000000000E+00  0.00000000000E+00  0.13843603743E+01  0.13843603743E+01  0.00000000000E+00 0. -1.
         13   -1    0    0    0    0 -0.00000000000E+00 -0.00000000000E+00 -0.10000000000E+04  0.10000000000E+04  0.00000000000E+00 0.  1.
    9000005    2    1    2  501    0 -0.33642854117E+02  0.70139945551E+01 -0.68972266245E+03  0.69058553621E+03  0.31613247323E+01 0.  0.
         13    1    3    3    0    0 -0.18383657186E+02  0.25430585364E+01 -0.35250748922E+03  0.35299568829E+03  0.00000000000E+00 0.  1.
          1    1    3    3  501    0 -0.15259196931E+02  0.44709360186E+01 -0.33721517323E+03  0.33758984792E+03  0.00000000000E+00 0.  1.
         -1    1    1    2    0  502  0.33642854117E+02 -0.70139945551E+01 -0.30889297717E+03  0.31079882416E+03  0.00000000000E+00 0. -1.
<mgrwt>
<rscale>  1 0.30000000E+03</rscale>
<asrwt>0</asrwt>
<pdfrwt beam="1">  1       21 0.50340483E-02 0.30000000E+03</pdfrwt>
<pdfrwt beam="2">0</pdfrwt>
<totfact> 0.28473271E+04</totfact>
</mgrwt>
</event>
<event>
 6    1  0.1280499E-001  0.3000000E+03  0.7818608E-02  0.1093470E+00
         21   -1    0    0  501  502  0.00000000000E+00  0.00000000000E+00  0.28564208656E+01  0.28564208656E+01  0.00000000000E+00 0. -1.
         13   -1    0    0    0    0 -0.00000000000E+00 -0.00000000000E+00 -0.10000000000E+04  0.10000000000E+04  0.00000000000E+00 0.  1.
    9000005    2    1    2  501    0  0.10297519785E+02  0.39551756632E+02 -0.82138351719E+03  0.82240703810E+03  0.34747137649E+01 0.  0.
         13    1    3    3    0    0  0.77565853277E+01  0.23029473698E+02 -0.48873907865E+03  0.48934283307E+03  0.00000000000E+00 0.  1.
          1    1    3    3  501    0  0.25409344570E+01  0.16522282934E+02 -0.33264443854E+03  0.33306420503E+03  0.00000000000E+00 0.  1.
         -3    1    1    2    0  502 -0.10297519785E+02 -0.39551756632E+02 -0.17576006195E+03  0.18044938277E+03  0.00000000000E+00 0. -1.
<mgrwt>
<rscale>  1 0.30000000E+03</rscale>
<asrwt>0</asrwt>
<pdfrwt beam="1">  1       21 0.10387007E-01 0.30000000E+03</pdfrwt>
<pdfrwt beam="2">0</pdfrwt>
<totfact> 0.80382070E+03</totfact>
</mgrwt>
</event>
<event>
 6    1  0.1280499E-001  0.3000000E+03  0.7818608E-02  0.1093470E+00
         21   -1    0    0  501  502  0.00000000000E+00  0.00000000000E+00  0.10188674872E+02  0.10188674872E+02  0.00000000000E+00 0. -1.
         13   -1    0    0    0    0 -0.00000000000E+00 -0.00000000000E+00 -0.10000000000E+04  0.10000000000E+04  0.00000000000E+00 0.  1.
    9000005    2    1    2  501    0  0.67097559846E+01  0.57573285324E+02 -0.90838130574E+03  0.91023592571E+03  0.36248887328E+01 0.  0.
         13    1    3    3    0    0  0.70311479249E+01  0.55376111559E+02 -0.86704779409E+03  0.86884280972E+03  0.00000000000E+00 0.  1.
          1    1    3    3  501    0 -0.32139194029E+00  0.21971737660E+01 -0.41333511652E+02  0.41393115984E+02  0.00000000000E+00 0.  1.
         -3    1    1    2    0  502 -0.67097559846E+01 -0.57573285324E+02 -0.81430019385E+02  0.99952749164E+02  0.00000000000E+00 0. -1.
<mgrwt>
<rscale>  1 0.30000000E+03</rscale>
<asrwt>0</asrwt>
<pdfrwt beam="1">  1       21 0.37049805E-01 0.30000000E+03</pdfrwt>
<pdfrwt beam="2">0</pdfrwt>
<totfact> 0.70803567E+02</totfact>
</mgrwt>
</event>
<event>
 6    1  0.1280499E-001  0.3000000E+03  0.7818608E-02  0.1093470E+00
         21   -1    0    0  501  502  0.00000000000E+00  0.00000000000E+00  0.21820942047E+01  0.21820942047E+01  0.00000000000E+00 0. -1.
         13   -1    0    0    0    0 -0.00000000000E+00 -0.00000000000E+00 -0.10000000000E+04  0.10000000000E+04  0.00000000000E+00 0.  1.
    9000005    2    1    2  501    0 -0.30282332074E+02 -0.73612483274E+01 -0.87203210138E+03  0.87259322043E+03  0.27811683606E+01 0.  0.
         13    1    3    3    0    0 -0.25952107128E+02 -0.52822652080E+01 -0.73972332423E+03  0.74019727817E+03  0.00000000000E+00 0.  1.
          3    1    3    3  501    0 -0.43302249462E+01 -0.20789831194E+01 -0.13230877715E+03  0.13239594227E+03  0.00000000000E+00 0.  1.
         -3    1    1    2    0  502  0.30282332074E+02  0.73612483274E+01 -0.12578580442E+03  0.12958887377E+03  0.00000000000E+00 0. -1.
<mgrwt>
<rscale>  1 0.30000000E+03</rscale>
<asrwt>0</asrwt>
<pdfrwt beam="1">  1       21 0.79349047E-02 0.30000000E+03</pdfrwt>
<pdfrwt beam="2">0</pdfrwt>
<totfact> 0.12958460E+04</totfact>
</mgrwt>
</event>
<event>
 6    1  0.1280499E-001  0.3000000E+03  0.7818608E-02  0.1093470E+00
         21   -1    0    0  501  502  0.00000000000E+00  0.00000000000E+00  0.30664161305E+01  0.30664161305E+01  0.00000000000E+00 0. -1.
         13   -1    0    0    0    0 -0.00000000000E+00 -0.00000000000E+00 -0.10000000000E+04  0.10000000000E+04  0.00000000000E+00 0.  1.
    9000005    2    1    2  501    0 -0.49651651475E+02 -0.50267778385E+00 -0.71935191745E+03  0.72107861372E+03  0.46526162658E+01 0.  0.
         13    1    3    3    0    0 -0.37932092574E+02  0.10361290937E+01 -0.52775353806E+03  0.52911597419E+03  0.00000000000E+00 0.  1.
          1    1    3    3  501    0 -0.11719558901E+02 -0.15388068776E+01 -0.19159837939E+03  0.19196263952E+03  0.00000000000E+00 0.  1.
         -3    1    1    2    0  502  0.49651651475E+02  0.50267778385E+00 -0.27758166642E+03  0.28198780242E+03  0.00000000000E+00 0. -1.
<mgrwt>
<rscale>  1 0.30000000E+03</rscale>
<asrwt>0</asrwt>
<pdfrwt beam="1">  1       21 0.11150628E-01 0.30000000E+03</pdfrwt>
<pdfrwt beam="2">0</pdfrwt>
<totfact> 0.70766230E+03</totfact>
</mgrwt>
</event>
<event>
 6    1  0.1280499E-001  0.3000000E+03  0.7818608E-02  0.1093470E+00
         21   -1    0    0  501  502  0.00000000000E+00  0.00000000000E+00  0.15056568692E+01  0.15056568692E+01  0.00000000000E+00 0. -1.
         13   -1    0    0    0    0 -0.00000000000E+00 -0.00000000000E+00 -0.10000000000E+04  0.10000000000E+04  0.00000000000E+00 0.  1.
    9000005    2    1    2  501    0 -0.29456979923E+02  0.17612088837E+02 -0.73184650787E+03  0.73265817708E+03  0.32854257516E+01 0.  0.
         13    1    3    3    0    0 -0.25831236541E+02  0.14398916284E+02 -0.61293951012E+03  0.61365252760E+03  0.00000000000E+00 0.  1.
          1    1    3    3  501    0 -0.36257433822E+01  0.32131725527E+01 -0.11890699775E+03  0.11900564948E+03  0.00000000000E+00 0.  1.
         -1    1    1    2    0  502  0.29456979923E+02 -0.17612088837E+02 -0.26664783526E+03  0.26884747979E+03  0.00000000000E+00 0. -1.
<mgrwt>
<rscale>  1 0.30000000E+03</rscale>
<asrwt>0</asrwt>
<pdfrwt beam="1">  1       21 0.54751274E-02 0.30000000E+03</pdfrwt>
<pdfrwt beam="2">0</pdfrwt>
<totfact> 0.24665067E+04</totfact>
</mgrwt>
</event>
<event>
 6    1  0.1280499E-001  0.3000000E+03  0.7818608E-02  0.1093470E+00
         21   -1    0    0  501  502  0.00000000000E+00  0.00000000000E+00  0.36833272808E+01  0.36833272808E+01  0.00000000000E+00 0. -1.
         13   -1    0    0    0    0 -0.00000000000E+00 -0.00000000000E+00 -0.10000000000E+04  0.10000000000E+04  0.00000000000E+00 0.  1.
    9000005    2    1    2  501    0  0.21741985280E+02 -0.41978342510E+02 -0.81208115531E+03  0.81347917107E+03  0.61370836461E+01 0.  0.
         13    1    3    3    0    0  0.15561650998E+02 -0.33795738187E+02 -0.66609196144E+03  0.66713028562E+03  0.00000000000E+00 0.  1.
          1    1    3    3  501    0  0.61803342820E+01 -0.81826043235E+01 -0.14598919387E+03  0.14634888545E+03  0.00000000000E+00 0.  1.
         -1    1    1    2    0  502 -0.21741985280E+02  0.41978342510E+02 -0.18423551741E+03  0.19020415621E+03  0.00000000000E+00 0. -1.
<mgrwt>
<rscale>  1 0.30000000E+03</rscale>
<asrwt>0</asrwt>
<pdfrwt beam="1">  1       21 0.13393946E-01 0.30000000E+03</pdfrwt>
<pdfrwt beam="2">0</pdfrwt>
<totfact> 0.50720143E+03</totfact>
</mgrwt>
</event>
<event>
 6    1  0.1280499E-001  0.3000000E+03  0.7818608E-02  0.1093470E+00
         21   -1    0    0  501  502  0.00000000000E+00  0.00000000000E+00  0.13561662034E+01  0.13561662034E+01  0.00000000000E+00 0. -1.
         13   -1    0    0    0    0 -0.00000000000E+00 -0.00000000000E+00 -0.10000000000E+04  0.10000000000E+04  0.00000000000E+00 0.  1.
    9000005    2    1    2  501    0 -0.24392407858E+02  0.26260423598E+02 -0.40159297753E+03  0.40323049013E+03  0.57714089346E+01 0.  0.
         13    1    3    3    0    0 -0.25904286851E+01  0.14019321423E+01 -0.21278607743E+02  0.21481500925E+02  0.00000000000E+00 0.  1.
          3    1    3    3  501    0 -0.21801979173E+02  0.24858491456E+02 -0.38031436978E+03  0.38174898920E+03  0.00000000000E+00 0.  1.
         -3    1    1    2    0  502  0.24392407858E+02 -0.26260423598E+02 -0.59705085627E+03  0.59812567608E+03  0.00000000000E+00 0. -1.
<mgrwt>
<rscale>  1 0.30000000E+03</rscale>
<asrwt>0</asrwt>
<pdfrwt beam="1">  1       21 0.49315239E-02 0.30000000E+03</pdfrwt>
<pdfrwt beam="2">0</pdfrwt>
<totfact> 0.29489584E+04</totfact>
</mgrwt>
</event>
<event>
 6    1  0.1280499E-001  0.3000000E+03  0.7818608E-02  0.1093470E+00
         21   -1    0    0  501  502  0.00000000000E+00  0.00000000000E+00  0.15308454340E+01  0.15308454340E+01  0.00000000000E+00 0. -1.
         13   -1    0    0    0    0 -0.00000000000E+00 -0.00000000000E+00 -0.10000000000E+04  0.10000000000E+04  0.00000000000E+00 0.  1.
    9000005    2    1    2  501    0 -0.35936183377E+02 -0.42560423675E+01 -0.68713354433E+03  0.68809921753E+03  0.43014234073E+01 0.  0.
         13    1    3    3    0    0 -0.34961254506E+02 -0.43190555785E+01 -0.67777030945E+03  0.67868515228E+03  0.00000000000E+00 0.  1.
          1    1    3    3  501    0 -0.97492887066E+00  0.63013210974E-01 -0.93632348816E+01  0.94140652439E+01  0.00000000000E+00 0.  1.
         -1    1    1    2    0  502  0.35936183377E+02  0.42560423675E+01 -0.31133561023E+03  0.31343162791E+03  0.00000000000E+00 0. -1.
<mgrwt>
<rscale>  1 0.30000000E+03</rscale>
<asrwt>0</asrwt>
<pdfrwt beam="1">  1       21 0.55667224E-02 0.30000000E+03</pdfrwt>
<pdfrwt beam="2">0</pdfrwt>
<totfact> 0.23973089E+04</totfact>
</mgrwt>
</event>
<event>
 6    1  0.1280499E-001  0.3000000E+03  0.7818608E-02  0.1093470E+00
         21   -1    0    0  501  502  0.00000000000E+00  0.00000000000E+00  0.12819387826E+01  0.12819387826E+01  0.00000000000E+00 0. -1.
         13   -1    0    0    0    0 -0.00000000000E+00 -0.00000000000E+00 -0.10000000000E+04  0.10000000000E+04  0.00000000000E+00 0.  1.
    9000005    2    1    2  501    0  0.23667737698E+02  0.26650026972E+02 -0.53431216610E+03  0.53551029821E+03  0.33768176235E+01 0.  0.
         13    1    3    3    0    0  0.10430009746E+02  0.14273252606E+02 -0.26124375853E+03  0.26184119655E+03  0.00000000000E+00 0.  1.
          3    1    3    3  501    0  0.13237727952E+02  0.12376774366E+02 -0.27306840758E+03  0.27366910166E+03  0.00000000000E+00 0.  1.
         -3    1    1    2    0  502 -0.23667737698E+02 -0.26650026972E+02 -0.46440589511E+03  0.46577164057E+03  0.00000000000E+00 0. -1.
<mgrwt>
<rscale>  1 0.30000000E+03</rscale>
<asrwt>0</asrwt>
<pdfrwt beam="1">  1       21 0.46616054E-02 0.30000000E+03</pdfrwt>
<pdfrwt beam="2">0</pdfrwt>
<totfact> 0.32453735E+04</totfact>
</mgrwt>
</event>
<event>
 6    1  0.1280499E-001  0.3000000E+03  0.7818608E-02  0.1093470E+00
         21   -1    0    0  501  502  0.00000000000E+00  0.00000000000E+00  0.31648562790E+01  0.31648562790E+01  0.00000000000E+00 0. -1.
         13   -1    0    0    0    0 -0.00000000000E+00 -0.00000000000E+00 -0.10000000000E+04  0.10000000000E+04  0.00000000000E+00 0.  1.
    9000005    2    1    2  501    0 -0.20341791926E+02 -0.27179886692E+02 -0.89812862150E+03  0.89878328574E+03  0.48825431323E+01 0.  0.
         13    1    3    3    0    0 -0.11796783568E+02 -0.11829348432E+02 -0.45440133504E+03  0.45470833605E+03  0.00000000000E+00 0.  1.
          3    1    3    3  501    0 -0.85450083582E+01 -0.15350538261E+02 -0.44372728646E+03  0.44407494969E+03  0.00000000000E+00 0.  1.
         -3    1    1    2    0  502  0.20341791926E+02  0.27179886692E+02 -0.98706522223E+02  0.10438157054E+03  0.00000000000E+00 0. -1.
<mgrwt>
<rscale>  1 0.30000000E+03</rscale>
<asrwt>0</asrwt>
<pdfrwt beam="1">  1       21 0.11508593E-01 0.30000000E+03</pdfrwt>
<pdfrwt beam="2">0</pdfrwt>
<totfact> 0.66845276E+03</totfact>
</mgrwt>
</event>
<event>
 6    1  0.1280499E-001  0.3000000E+03  0.7818608E-02  0.1093470E+00
         21   -1    0    0  501  502  0.00000000000E+00  0.00000000000E+00  0.21934073201E+01  0.21934073201E+01  0.00000000000E+00 0. -1.
         13   -1    0    0    0    0 -0.00000000000E+00 -0.00000000000E+00 -0.10000000000E+04  0.10000000000E+04  0.00000000000E+00 0.  1.
    9000005    2    1    2  501    0  0.30002027216E+02 -0.19672884491E+02 -0.82056924903E+03  0.82136138580E+03  0.36728212759E+01 0.  0.
         13    1    3    3    0    0  0.22728197664E+02 -0.16427039995E+02 -0.61934915882E+03  0.61998370878E+03  0.00000000000E+00 0.  1.
          3    1    3    3  501    0  0.72738295523E+01 -0.32458444966E+01 -0.20122009020E+03  0.20137767703E+03  0.00000000000E+00 0.  1.
         -1    1    1    2    0  502 -0.30002027216E+02  0.19672884491E+02 -0.17723734365E+03  0.18083202152E+03  0.00000000000E+00 0. -1.
<mgrwt>
<rscale>  1 0.30000000E+03</rscale>
<asrwt>0</asrwt>
<pdfrwt beam="1">  1       21 0.79760434E-02 0.30000000E+03</pdfrwt>
<pdfrwt beam="2">0</pdfrwt>
<totfact> 0.12841330E+04</totfact>
</mgrwt>
</event>
<event>
 6    1  0.1280499E-001  0.3000000E+03  0.7818608E-02  0.1093470E+00
         21   -1    0    0  501  502  0.00000000000E+00  0.00000000000E+00  0.13548780037E+01  0.13548780037E+01  0.00000000000E+00 0. -1.
         13   -1    0    0    0    0 -0.00000000000E+00 -0.00000000000E+00 -0.10000000000E+04  0.10000000000E+04  0.00000000000E+00 0.  1.
    9000005    2    1    2  501    0  0.30570375243E+02  0.16447458567E+02 -0.33574502051E+03  0.33754646341E+03  0.27981113306E+01 0.  0.
         13    1    3    3    0    0  0.19502515403E+02  0.90251355729E+01 -0.20311055114E+03  0.20424420962E+03  0.00000000000E+00 0.  1.
          3    1    3    3  501    0  0.11067859840E+02  0.74223229943E+01 -0.13263446938E+03  0.13330225380E+03  0.00000000000E+00 0.  1.
         -3    1    1    2    0  502 -0.30570375243E+02 -0.16447458567E+02 -0.66290010148E+03  0.66380841459E+03  0.00000000000E+00 0. -1.
<mgrwt>
<rscale>  1 0.30000000E+03</rscale>
<asrwt>0</asrwt>
<pdfrwt beam="1">  1       21 0.49268395E-02 0.30000000E+03</pdfrwt>
<pdfrwt beam="2">0</pdfrwt>
<totfact> 0.29537365E+04</totfact>
</mgrwt>
</event>
<event>
 6    1  0.1280499E-001  0.3000000E+03  0.7818608E-02  0.1093470E+00
         21   -1    0    0  501  502  0.00000000000E+00  0.00000000000E+00  0.11980953825E+01  0.11980953825E+01  0.00000000000E+00 0. -1.
         13   -1    0    0    0    0 -0.00000000000E+00 -0.00000000000E+00 -0.10000000000E+04  0.10000000000E+04  0.00000000000E+00 0.  1.
    9000005    2    1    2  501    0 -0.31066155139E+02 -0.23148201127E+01 -0.71633258678E+03  0.71701614679E+03  0.30521279315E+01 0.  0.
         13    1    3    3    0    0 -0.17982678968E+02 -0.10523826694E+01 -0.37972519148E+03  0.38015221332E+03  0.00000000000E+00 0.  1.
          3    1    3    3  501    0 -0.13083476171E+02 -0.12624374433E+01 -0.33660739530E+03  0.33686393346E+03  0.00000000000E+00 0.  1.
         -3    1    1    2    0  502  0.31066155139E+02  0.23148201127E+01 -0.28246931784E+03  0.28418194859E+03  0.00000000000E+00 0. -1.
<mgrwt>
<rscale>  1 0.30000000E+03</rscale>
<asrwt>0</asrwt>
<pdfrwt beam="1">  1       21 0.43567197E-02 0.30000000E+03</pdfrwt>
<pdfrwt beam="2">0</pdfrwt>
<totfact> 0.36400645E+04</totfact>
</mgrwt>
</event>
<event>
 6    1  0.1280499E-001  0.3000000E+03  0.7818608E-02  0.1093470E+00
         21   -1    0    0  501  502  0.00000000000E+00  0.00000000000E+00  0.19243228722E+01  0.19243228722E+01  0.00000000000E+00 0. -1.
         13   -1    0    0    0    0 -0.00000000000E+00 -0.00000000000E+00 -0.10000000000E+04  0.10000000000E+04  0.00000000000E+00 0.  1.
    9000005    2    1    2  501    0  0.17007591904E+02  0.28243069198E+02 -0.82902850616E+03  0.82969228418E+03  0.37540991476E+01 0.  0.
         13    1    3    3    0    0  0.32441539931E+01  0.83061092258E+01 -0.20584094159E+03  0.20603400015E+03  0.00000000000E+00 0.  1.
          3    1    3    3  501    0  0.13763437911E+02  0.19936959973E+02 -0.62318756457E+03  0.62365828403E+03  0.00000000000E+00 0.  1.
         -1    1    1    2    0  502 -0.17007591904E+02 -0.28243069198E+02 -0.16904717097E+03  0.17223203869E+03  0.00000000000E+00 0. -1.
<mgrwt>
<rscale>  1 0.30000000E+03</rscale>
<asrwt>0</asrwt>
<pdfrwt beam="1">  1       21 0.69975525E-02 0.30000000E+03</pdfrwt>
<pdfrwt beam="2">0</pdfrwt>
<totfact> 0.16145110E+04</totfact>
</mgrwt>
</event>
<event>
 6    1  0.1280499E-001  0.3000000E+03  0.7818608E-02  0.1093470E+00
         21   -1    0    0  501  502  0.00000000000E+00  0.00000000000E+00  0.16748626596E+01  0.16748626596E+01  0.00000000000E+00 0. -1.
         13   -1    0    0    0    0 -0.00000000000E+00 -0.00000000000E+00 -0.10000000000E+04  0.10000000000E+04  0.00000000000E+00 0.  1.
    9000005    2    1    2  501    0 -0.13710149089E+02  0.35214354826E+02 -0.67613036523E+03  0.67727157946E+03  0.10793636436E+02 0.  0.
         13    1    3    3    0    0 -0.88577460276E+01  0.26990272986E+02 -0.41766979028E+03  0.41863467154E+03  0.00000000000E+00 0.  1.
          3    1    3    3  501    0 -0.48524030617E+01  0.82240818403E+01 -0.25846057494E+03  0.25863690792E+03  0.00000000000E+00 0.  1.
         -3    1    1    2    0  502  0.13710149089E+02 -0.35214354826E+02 -0.32219477211E+03  0.32440328320E+03  0.00000000000E+00 0. -1.
<mgrwt>
<rscale>  1 0.30000000E+03</rscale>
<asrwt>0</asrwt>
<pdfrwt beam="1">  1       21 0.60904225E-02 0.30000000E+03</pdfrwt>
<pdfrwt beam="2">0</pdfrwt>
<totfact> 0.20534867E+04</totfact>
</mgrwt>
</event>
<event>
 6    1  0.1280499E-001  0.3000000E+03  0.7818608E-02  0.1093470E+00
         21   -1    0    0  501  502  0.00000000000E+00  0.00000000000E+00  0.94069012114E+00  0.94069012114E+00  0.00000000000E+00 0. -1.
         13   -1    0    0    0    0 -0.00000000000E+00 -0.00000000000E+00 -0.10000000000E+04  0.10000000000E+04  0.00000000000E+00 0.  1.
    9000005    2    1    2  501    0  0.26676178875E+02 -0.13985445492E+02 -0.58495843416E+03  0.58574586058E+03  0.38252175115E+01 0.  0.
         13    1    3    3    0    0  0.68909583737E+01 -0.32477953180E+01 -0.18165218069E+03  0.18181184844E+03  0.00000000000E+00 0.  1.
          1    1    3    3  501    0  0.19785220501E+02 -0.10737650174E+02 -0.40330625346E+03  0.40393401214E+03  0.00000000000E+00 0.  1.
         -3    1    1    2    0  502 -0.26676178875E+02  0.13985445492E+02 -0.41410087572E+03  0.41519482954E+03  0.00000000000E+00 0. -1.
<mgrwt>
<rscale>  1 0.30000000E+03</rscale>
<asrwt>0</asrwt>
<pdfrwt beam="1">  1       21 0.34206986E-02 0.30000000E+03</pdfrwt>
<pdfrwt beam="2">0</pdfrwt>
<totfact> 0.54673556E+04</totfact>
</mgrwt>
</event>
<event>
 6    1  0.1280499E-001  0.3000000E+03  0.7818608E-02  0.1093470E+00
         21   -1    0    0  501  502  0.00000000000E+00  0.00000000000E+00  0.84518744120E+01  0.84518744120E+01  0.00000000000E+00 0. -1.
         13   -1    0    0    0    0 -0.00000000000E+00 -0.00000000000E+00 -0.10000000000E+04  0.10000000000E+04  0.00000000000E+00 0.  1.
    9000005    2    1    2  501    0  0.12762268418E+02  0.43432920452E+02 -0.93459026433E+03  0.93569548615E+03  0.42174092000E+01 0.  0.
         13    1    3    3    0    0  0.25934792158E+01  0.56872026010E+01 -0.15445494862E+03  0.15458137521E+03  0.00000000000E+00 0.  1.
          3    1    3    3  501    0  0.10168789203E+02  0.37745717851E+02 -0.78013531572E+03  0.78111411095E+03  0.00000000000E+00 0.  1.
         -3    1    1    2    0  502 -0.12762268418E+02 -0.43432920452E+02 -0.56957861253E+02  0.72756388261E+02  0.00000000000E+00 0. -1.
<mgrwt>
<rscale>  1 0.30000000E+03</rscale>
<asrwt>0</asrwt>
<pdfrwt beam="1">  1       21 0.30734154E-01 0.30000000E+03</pdfrwt>
<pdfrwt beam="2">0</pdfrwt>
<totfact> 0.10358543E+03</totfact>
</mgrwt>
</event>
<event>
 6    1  0.1280499E-001  0.3000000E+03  0.7818608E-02  0.1093470E+00
         21   -1    0    0  501  502  0.00000000000E+00  0.00000000000E+00  0.25062068636E+01  0.25062068636E+01  0.00000000000E+00 0. -1.
         13   -1    0    0    0    0 -0.00000000000E+00 -0.00000000000E+00 -0.10000000000E+04  0.10000000000E+04  0.00000000000E+00 0.  1.
    9000005    2    1    2  501    0  0.18597702629E+02  0.43659519934E+02 -0.65651079964E+03  0.65823679191E+03  0.41492103049E+01 0.  0.
         13    1    3    3    0    0  0.13423801039E+02  0.35609626429E+02 -0.53031491280E+03  0.53167861596E+03  0.00000000000E+00 0.  1.
          1    1    3    3  501    0  0.51739015896E+01  0.80498935050E+01 -0.12619588685E+03  0.12655817595E+03  0.00000000000E+00 0.  1.
         -3    1    1    2    0  502 -0.18597702629E+02 -0.43659519934E+02 -0.34098299349E+03  0.34426941496E+03  0.00000000000E+00 0. -1.
<mgrwt>
<rscale>  1 0.30000000E+03</rscale>
<asrwt>0</asrwt>
<pdfrwt beam="1">  1       21 0.91134987E-02 0.30000000E+03</pdfrwt>
<pdfrwt beam="2">0</pdfrwt>
<totfact> 0.10150077E+04</totfact>
</mgrwt>
</event>
<event>
 6    1  0.1280499E-001  0.3000000E+03  0.7818608E-02  0.1093470E+00
         21   -1    0    0  501  502  0.00000000000E+00  0.00000000000E+00  0.12593124867E+01  0.12593124867E+01  0.00000000000E+00 0. -1.
         13   -1    0    0    0    0 -0.00000000000E+00 -0.00000000000E+00 -0.10000000000E+04  0.10000000000E+04  0.00000000000E+00 0.  1.
    9000005    2    1    2  501    0  0.16785725112E+02  0.25362378769E+02 -0.75642327796E+03  0.75704068544E+03  0.30680850608E+01 0.  0.
         13    1    3    3    0    0  0.10074441607E+02  0.13529101766E+02 -0.38861296154E+03  0.38897887455E+03  0.00000000000E+00 0.  1.
          1    1    3    3  501    0  0.67112835056E+01  0.11833277004E+02 -0.36781031642E+03  0.36806181089E+03  0.00000000000E+00 0.  1.
         -1    1    1    2    0  502 -0.16785725112E+02 -0.25362378769E+02 -0.24231740955E+03  0.24421862705E+03  0.00000000000E+00 0. -1.
<mgrwt>
<rscale>  1 0.30000000E+03</rscale>
<asrwt>0</asrwt>
<pdfrwt beam="1">  1       21 0.45793278E-02 0.30000000E+03</pdfrwt>
<pdfrwt beam="2">0</pdfrwt>
<totfact> 0.33450764E+04</totfact>
</mgrwt>
</event>
<event>
 6    1  0.1280499E-001  0.3000000E+03  0.7818608E-02  0.1093470E+00
         21   -1    0    0  501  502  0.00000000000E+00  0.00000000000E+00  0.11819692896E+01  0.11819692896E+01  0.00000000000E+00 0. -1.
         13   -1    0    0    0    0 -0.00000000000E+00 -0.00000000000E+00 -0.10000000000E+04  0.10000000000E+04  0.00000000000E+00 0.  1.
    9000005    2    1    2  501    0 -0.20098153919E+02  0.25991942721E+02 -0.63063306691E+03  0.63153391445E+03  0.75830827551E+01 0.  0.
         13    1    3    3    0    0 -0.61344218285E+01  0.10239123896E+02 -0.16890119706E+03  0.16932242957E+03  0.00000000000E+00 0.  1.
          1    1    3    3  501    0 -0.13963732090E+02  0.15752818825E+02 -0.46173186986E+03  0.46221148488E+03  0.00000000000E+00 0.  1.
         -1    1    1    2    0  502  0.20098153919E+02 -0.25991942721E+02 -0.36818496380E+03  0.36964805484E+03  0.00000000000E+00 0. -1.
<mgrwt>
<rscale>  1 0.30000000E+03</rscale>
<asrwt>0</asrwt>
<pdfrwt beam="1">  1       21 0.42980792E-02 0.30000000E+03</pdfrwt>
<pdfrwt beam="2">0</pdfrwt>
<totfact> 0.37244876E+04</totfact>
</mgrwt>
</event>
<event>
 6    1  0.1280499E-001  0.3000000E+03  0.7818608E-02  0.1093470E+00
         21   -1    0    0  501  502  0.00000000000E+00  0.00000000000E+00  0.21508728675E+01  0.21508728675E+01  0.00000000000E+00 0. -1.
         13   -1    0    0    0    0 -0.00000000000E+00 -0.00000000000E+00 -0.10000000000E+04  0.10000000000E+04  0.00000000000E+00 0.  1.
    9000005    2    1    2  501    0 -0.34834729100E+02  0.11386915047E+02 -0.80566503621E+03  0.80650362656E+03  0.29713447944E+01 0.  0.
         13    1    3    3    0    0 -0.15864600173E+02  0.66352994545E+01 -0.38900538586E+03  0.38938528859E+03  0.00000000000E+00 0.  1.
          1    1    3    3  501    0 -0.18970128927E+02  0.47516155927E+01 -0.41665965035E+03  0.41711833797E+03  0.00000000000E+00 0.  1.
         -1    1    1    2    0  502  0.34834729100E+02 -0.11386915047E+02 -0.19218409092E+03  0.19564724631E+03  0.00000000000E+00 0. -1.
<mgrwt>
<rscale>  1 0.30000000E+03</rscale>
<asrwt>0</asrwt>
<pdfrwt beam="1">  1       21 0.78213724E-02 0.30000000E+03</pdfrwt>
<pdfrwt beam="2">0</pdfrwt>
<totfact> 0.13290380E+04</totfact>
</mgrwt>
</event>
<event>
 6    1  0.1280499E-001  0.3000000E+03  0.7818608E-02  0.1093470E+00
         21   -1    0    0  501  502  0.00000000000E+00  0.00000000000E+00  0.99350669213E+01  0.99350669213E+01  0.00000000000E+00 0. -1.
         13   -1    0    0    0    0 -0.00000000000E+00 -0.00000000000E+00 -0.10000000000E+04  0.10000000000E+04  0.00000000000E+00 0.  1.
    9000005    2    1    2  501    0 -0.92455055619E+02 -0.13997530630E+02 -0.66958429372E+03  0.67609122861E+03  0.35149448214E+01 0.  0.
         13    1    3    3    0    0 -0.50149565522E+02 -0.58297996907E+01 -0.36255579415E+03  0.36605418910E+03  0.00000000000E+00 0.  1.
          3    1    3    3  501    0 -0.42305490096E+02 -0.81677309388E+01 -0.30702849956E+03  0.31003703950E+03  0.00000000000E+00 0.  1.
         -3    1    1    2    0  502  0.92455055619E+02  0.13997530630E+02 -0.32048063936E+03  0.33384383831E+03  0.00000000000E+00 0. -1.
<mgrwt>
<rscale>  1 0.30000000E+03</rscale>
<asrwt>0</asrwt>
<pdfrwt beam="1">  1       21 0.36127592E-01 0.30000000E+03</pdfrwt>
<pdfrwt beam="2">0</pdfrwt>
<totfact> 0.74572168E+02</totfact>
</mgrwt>
</event>
<event>
 6    1  0.1280499E-001  0.3000000E+03  0.7818608E-02  0.1093470E+00
         21   -1    0    0  501  502  0.00000000000E+00  0.00000000000E+00  0.12146298654E+01  0.12146298654E+01  0.00000000000E+00 0. -1.
         13   -1    0    0    0    0 -0.00000000000E+00 -0.00000000000E+00 -0.10000000000E+04  0.10000000000E+04  0.00000000000E+00 0.  1.
    9000005    2    1    2  501    0 -0.12874993701E+02 -0.31448309283E+02 -0.42783034108E+03  0.42924924034E+03  0.78324937768E+01 0.  0.
         13    1    3    3    0    0 -0.12481985880E+02 -0.21114684101E+02 -0.30371870048E+03  0.30470753006E+03  0.00000000000E+00 0.  1.
          1    1    3    3  501    0 -0.39300782115E+00 -0.10333625182E+02 -0.12411164060E+03  0.12454171027E+03  0.00000000000E+00 0.  1.
         -1    1    1    2    0  502  0.12874993701E+02  0.31448309283E+02 -0.57095502905E+03  0.57196538953E+03  0.00000000000E+00 0. -1.
<mgrwt>
<rscale>  1 0.30000000E+03</rscale>
<asrwt>0</asrwt>
<pdfrwt beam="1">  1       21 0.44168452E-02 0.30000000E+03</pdfrwt>
<pdfrwt beam="2">0</pdfrwt>
<totfact> 0.35565414E+04</totfact>
</mgrwt>
</event>
<event>
 6    1  0.1280499E-001  0.3000000E+03  0.7818608E-02  0.1093470E+00
         21   -1    0    0  501  502  0.00000000000E+00  0.00000000000E+00  0.20364007265E+01  0.20364007265E+01  0.00000000000E+00 0. -1.
         13   -1    0    0    0    0 -0.00000000000E+00 -0.00000000000E+00 -0.10000000000E+04  0.10000000000E+04  0.00000000000E+00 0.  1.
    9000005    2    1    2  501    0 -0.86807024589E+01  0.33419663659E+02 -0.81754855813E+03  0.81834694652E+03  0.10670120492E+02 0.  0.
         13    1    3    3    0    0  0.93810413778E+00  0.17000637315E+02 -0.41403933808E+03  0.41438927977E+03  0.00000000000E+00 0.  1.
          3    1    3    3  501    0 -0.96188065967E+01  0.16419026344E+02 -0.40350922005E+03  0.40395766675E+03  0.00000000000E+00 0.  1.
         -1    1    1    2    0  502  0.86807024589E+01 -0.33419663659E+02 -0.18041504114E+03  0.18368945420E+03  0.00000000000E+00 0. -1.
<mgrwt>
<rscale>  1 0.30000000E+03</rscale>
<asrwt>0</asrwt>
<pdfrwt beam="1">  1       21 0.74051092E-02 0.30000000E+03</pdfrwt>
<pdfrwt beam="2">0</pdfrwt>
<totfact> 0.14626818E+04</totfact>
</mgrwt>
</event>
<event>
 6    1  0.1280499E-001  0.3000000E+03  0.7818608E-02  0.1093470E+00
         21   -1    0    0  501  502  0.00000000000E+00  0.00000000000E+00  0.10794209581E+01  0.10794209581E+01  0.00000000000E+00 0. -1.
         13   -1    0    0    0    0 -0.00000000000E+00 -0.00000000000E+00 -0.10000000000E+04  0.10000000000E+04  0.00000000000E+00 0.  1.
    9000005    2    1    2  501    0  0.28458890469E+02 -0.10418600774E+02 -0.69088769954E+03  0.69155929150E+03  0.31598398908E+01 0.  0.
         13    1    3    3    0    0  0.11339058677E+02 -0.33305382384E+01 -0.29995554659E+03  0.30018826871E+03  0.00000000000E+00 0.  1.
          3    1    3    3  501    0  0.17119831791E+02 -0.70880625354E+01 -0.39093215295E+03  0.39137102279E+03  0.00000000000E+00 0.  1.
         -3    1    1    2    0  502 -0.28458890469E+02  0.10418600774E+02 -0.30803287950E+03  0.30952012946E+03  0.00000000000E+00 0. -1.
<mgrwt>
<rscale>  1 0.30000000E+03</rscale>
<asrwt>0</asrwt>
<pdfrwt beam="1">  1       21 0.39251754E-02 0.30000000E+03</pdfrwt>
<pdfrwt beam="2">0</pdfrwt>
<totfact> 0.43405281E+04</totfact>
</mgrwt>
</event>
<event>
 6    1  0.1280499E-001  0.3000000E+03  0.7818608E-02  0.1093470E+00
         21   -1    0    0  501  502  0.00000000000E+00  0.00000000000E+00  0.39885779122E+01  0.39885779122E+01  0.00000000000E+00 0. -1.
         13   -1    0    0    0    0 -0.00000000000E+00 -0.00000000000E+00 -0.10000000000E+04  0.10000000000E+04  0.00000000000E+00 0.  1.
    9000005    2    1    2  501    0  0.29282970560E+02 -0.15500593812E+02 -0.92489887327E+03  0.92553632892E+03  0.90448654689E+01 0.  0.
         13    1    3    3    0    0  0.11250984379E+02 -0.57542934994E+01 -0.47888166196E+03  0.47904837199E+03  0.00000000000E+00 0.  1.
          1    1    3    3  501    0  0.18031986181E+02 -0.97463003126E+01 -0.44601721131E+03  0.44648795693E+03  0.00000000000E+00 0.  1.
         -3    1    1    2    0  502 -0.29282970560E+02  0.15500593812E+02 -0.71112548814E+02  0.78452248994E+02  0.00000000000E+00 0. -1.
<mgrwt>
<rscale>  1 0.30000000E+03</rscale>
<asrwt>0</asrwt>
<pdfrwt beam="1">  1       21 0.14503950E-01 0.30000000E+03</pdfrwt>
<pdfrwt beam="2">0</pdfrwt>
<totfact> 0.43819758E+03</totfact>
</mgrwt>
</event>
<event>
 6    1  0.1280499E-001  0.3000000E+03  0.7818608E-02  0.1093470E+00
         21   -1    0    0  501  502  0.00000000000E+00  0.00000000000E+00  0.12874992951E+01  0.12874992951E+01  0.00000000000E+00 0. -1.
         13   -1    0    0    0    0 -0.00000000000E+00 -0.00000000000E+00 -0.10000000000E+04  0.10000000000E+04  0.00000000000E+00 0.  1.
    9000005    2    1    2  501    0  0.26152692748E+02  0.19787654228E+02 -0.70134966338E+03  0.70212170643E+03  0.28329703570E+01 0.  0.
         13    1    3    3    0    0  0.25519436942E+02  0.18794061976E+02 -0.66836820812E+03  0.66911921213E+03  0.00000000000E+00 0.  1.
          1    1    3    3  501    0  0.63325580584E+00  0.99359225226E+00 -0.32981455261E+02  0.33002494294E+02  0.00000000000E+00 0.  1.
         -1    1    1    2    0  502 -0.26152692748E+02 -0.19787654228E+02 -0.29736283733E+03  0.29916579287E+03  0.00000000000E+00 0. -1.
<mgrwt>
<rscale>  1 0.30000000E+03</rscale>
<asrwt>0</asrwt>
<pdfrwt beam="1">  1       21 0.46818255E-02 0.30000000E+03</pdfrwt>
<pdfrwt beam="2">0</pdfrwt>
<totfact> 0.32215839E+04</totfact>
</mgrwt>
</event>
<event>
 6    1  0.1280499E-001  0.3000000E+03  0.7818608E-02  0.1093470E+00
         21   -1    0    0  501  502  0.00000000000E+00  0.00000000000E+00  0.19766759416E+01  0.19766759416E+01  0.00000000000E+00 0. -1.
         13   -1    0    0    0    0 -0.00000000000E+00 -0.00000000000E+00 -0.10000000000E+04  0.10000000000E+04  0.00000000000E+00 0.  1.
    9000005    2    1    2  501    0  0.20778199111E+02  0.36725871303E+02 -0.34824373884E+03  0.35082843434E+03  0.51347361287E+01 0.  0.
         13    1    3    3    0    0  0.14599630089E+02  0.20785668849E+02 -0.21206438294E+03  0.21358018574E+03  0.00000000000E+00 0.  1.
          1    1    3    3  501    0  0.61785690222E+01  0.15940202454E+02 -0.13617935590E+03  0.13724824860E+03  0.00000000000E+00 0.  1.
         -1    1    1    2    0  502 -0.20778199111E+02 -0.36725871303E+02 -0.64977958521E+03  0.65114824160E+03  0.00000000000E+00 0. -1.
<mgrwt>
<rscale>  1 0.30000000E+03</rscale>
<asrwt>0</asrwt>
<pdfrwt beam="1">  1       21 0.71879277E-02 0.30000000E+03</pdfrwt>
<pdfrwt beam="2">0</pdfrwt>
<totfact> 0.15407450E+04</totfact>
</mgrwt>
</event>
<event>
 6    1  0.1280499E-001  0.3000000E+03  0.7818608E-02  0.1093470E+00
         21   -1    0    0  501  502  0.00000000000E+00  0.00000000000E+00  0.20389586187E+01  0.20389586187E+01  0.00000000000E+00 0. -1.
         13   -1    0    0    0    0 -0.00000000000E+00 -0.00000000000E+00 -0.10000000000E+04  0.10000000000E+04  0.00000000000E+00 0.  1.
    9000005    2    1    2  501    0  0.22773899449E+02  0.34284140010E+02 -0.70405483558E+03  0.70526478427E+03  0.33394122440E+01 0.  0.
         13    1    3    3    0    0  0.12244144529E+01  0.27983861747E+01 -0.65377317972E+02  0.65448635288E+02  0.00000000000E+00 0.  1.
          1    1    3    3  501    0  0.21549484996E+02  0.31485753836E+02 -0.63867751761E+03  0.63981614898E+03  0.00000000000E+00 0.  1.
         -3    1    1    2    0  502 -0.22773899449E+02 -0.34284140010E+02 -0.29390620580E+03  0.29677417435E+03  0.00000000000E+00 0. -1.
<mgrwt>
<rscale>  1 0.30000000E+03</rscale>
<asrwt>0</asrwt>
<pdfrwt beam="1">  1       21 0.74144106E-02 0.30000000E+03</pdfrwt>
<pdfrwt beam="2">0</pdfrwt>
<totfact> 0.14594734E+04</totfact>
</mgrwt>
</event>
<event>
 6    1  0.1280499E-001  0.3000000E+03  0.7818608E-02  0.1093470E+00
         21   -1    0    0  501  502  0.00000000000E+00  0.00000000000E+00  0.15521395206E+01  0.15521395206E+01  0.00000000000E+00 0. -1.
         13   -1    0    0    0    0 -0.00000000000E+00 -0.00000000000E+00 -0.10000000000E+04  0.10000000000E+04  0.00000000000E+00 0.  1.
    9000005    2    1    2  501    0 -0.17565769977E+02 -0.33100659802E+02 -0.65154127142E+03  0.65262751802E+03  0.35268914486E+01 0.  0.
         13    1    3    3    0    0 -0.16159710725E+02 -0.27950542549E+02 -0.56514262662E+03  0.56606409310E+03  0.00000000000E+00 0.  1.
          1    1    3    3  501    0 -0.14060592522E+01 -0.51501172529E+01 -0.86398644796E+02  0.86563424914E+02  0.00000000000E+00 0.  1.
         -1    1    1    2    0  502  0.17565769977E+02  0.33100659802E+02 -0.34690658906E+03  0.34892462150E+03  0.00000000000E+00 0. -1.
<mgrwt>
<rscale>  1 0.30000000E+03</rscale>
<asrwt>0</asrwt>
<pdfrwt beam="1">  1       21 0.56441556E-02 0.30000000E+03</pdfrwt>
<pdfrwt beam="2">0</pdfrwt>
<totfact> 0.23411108E+04</totfact>
</mgrwt>
</event>
<event>
 6    1  0.1280499E-001  0.3000000E+03  0.7818608E-02  0.1093470E+00
         21   -1    0    0  501  502  0.00000000000E+00  0.00000000000E+00  0.18153597913E+01  0.18153597913E+01  0.00000000000E+00 0. -1.
         13   -1    0    0    0    0 -0.00000000000E+00 -0.00000000000E+00 -0.10000000000E+04  0.10000000000E+04  0.00000000000E+00 0.  1.
    9000005    2    1    2  501    0  0.26663542419E+02 -0.29164044588E+02 -0.68508890095E+03  0.68623584852E+03  0.33692136741E+01 0.  0.
         13    1    3    3    0    0  0.15663509810E+02 -0.18267050634E+02 -0.44162329576E+03  0.44227838070E+03  0.00000000000E+00 0.  1.
          1    1    3    3  501    0  0.11000032609E+02 -0.10896993954E+02 -0.24346560519E+03  0.24395746782E+03  0.00000000000E+00 0.  1.
         -1    1    1    2    0  502 -0.26663542419E+02  0.29164044588E+02 -0.31309573926E+03  0.31557951127E+03  0.00000000000E+00 0. -1.
<mgrwt>
<rscale>  1 0.30000000E+03</rscale>
<asrwt>0</asrwt>
<pdfrwt beam="1">  1       21 0.66013223E-02 0.30000000E+03</pdfrwt>
<pdfrwt beam="2">0</pdfrwt>
<totfact> 0.17864915E+04</totfact>
</mgrwt>
</event>
<event>
 6    1  0.1280499E-001  0.3000000E+03  0.7818608E-02  0.1093470E+00
         21   -1    0    0  501  502  0.00000000000E+00  0.00000000000E+00  0.51285459608E+01  0.51285459608E+01  0.00000000000E+00 0. -1.
         13   -1    0    0    0    0 -0.00000000000E+00 -0.00000000000E+00 -0.10000000000E+04  0.10000000000E+04  0.00000000000E+00 0.  1.
    9000005    2    1    2  501    0 -0.11144042776E+02  0.47898317130E+02 -0.86264116424E+03  0.86404953259E+03  0.36576023218E+01 0.  0.
         13    1    3    3    0    0 -0.67587494555E+01  0.21248146644E+02 -0.39772132037E+03  0.39834584611E+03  0.00000000000E+00 0.  1.
          3    1    3    3  501    0 -0.43852933207E+01  0.26650170485E+02 -0.46491984386E+03  0.46570368648E+03  0.00000000000E+00 0.  1.
         -3    1    1    2    0  502  0.11144042776E+02 -0.47898317130E+02 -0.13223028980E+03  0.14107901337E+03  0.00000000000E+00 0. -1.
<mgrwt>
<rscale>  1 0.30000000E+03</rscale>
<asrwt>0</asrwt>
<pdfrwt beam="1">  1       21 0.18649297E-01 0.30000000E+03</pdfrwt>
<pdfrwt beam="2">0</pdfrwt>
<totfact> 0.27400485E+03</totfact>
</mgrwt>
</event>
<event>
 6    1  0.1280499E-001  0.3000000E+03  0.7818608E-02  0.1093470E+00
         21   -1    0    0  501  502  0.00000000000E+00  0.00000000000E+00  0.57354820068E+01  0.57354820068E+01  0.00000000000E+00 0. -1.
         13   -1    0    0    0    0 -0.00000000000E+00 -0.00000000000E+00 -0.10000000000E+04  0.10000000000E+04  0.00000000000E+00 0.  1.
    9000005    2    1    2  501    0  0.29143056451E+02  0.37509231446E+02 -0.10595217179E+03  0.11615407224E+03  0.31057379402E+01 0.  0.
         13    1    3    3    0    0  0.18652982617E+02  0.25935358811E+02 -0.73214627049E+02  0.79880900165E+02  0.00000000000E+00 0.  1.
          3    1    3    3  501    0  0.10490073834E+02  0.11573872635E+02 -0.32737544736E+02  0.36273172072E+02  0.00000000000E+00 0.  1.
         -3    1    1    2    0  502 -0.29143056451E+02 -0.37509231446E+02 -0.88831234621E+03  0.88958140977E+03  0.00000000000E+00 0. -1.
<mgrwt>
<rscale>  1 0.30000000E+03</rscale>
<asrwt>0</asrwt>
<pdfrwt beam="1">  1       21 0.20856342E-01 0.30000000E+03</pdfrwt>
<pdfrwt beam="2">0</pdfrwt>
<totfact> 0.22143602E+03</totfact>
</mgrwt>
</event>
<event>
 6    1  0.1280499E-001  0.3000000E+03  0.7818608E-02  0.1093470E+00
         21   -1    0    0  501  502  0.00000000000E+00  0.00000000000E+00  0.94055191557E+00  0.94055191557E+00  0.00000000000E+00 0. -1.
         13   -1    0    0    0    0 -0.00000000000E+00 -0.00000000000E+00 -0.10000000000E+04  0.10000000000E+04  0.00000000000E+00 0.  1.
    9000005    2    1    2  501    0  0.28459611851E+02  0.11018692477E+02 -0.50802621731E+03  0.50895986651E+03  0.42599471317E+01 0.  0.
         13    1    3    3    0    0  0.17867315241E+02  0.81676472092E+01 -0.35279124296E+03  0.35333781644E+03  0.00000000000E+00 0.  1.
          3    1    3    3  501    0  0.10592296610E+02  0.28510452679E+01 -0.15523497435E+03  0.15562205007E+03  0.00000000000E+00 0.  1.
         -3    1    1    2    0  502 -0.28459611851E+02 -0.11018692477E+02 -0.49103323077E+03  0.49198068541E+03  0.00000000000E+00 0. -1.
<mgrwt>
<rscale>  1 0.30000000E+03</rscale>
<asrwt>0</asrwt>
<pdfrwt beam="1">  1       21 0.34201960E-02 0.30000000E+03</pdfrwt>
<pdfrwt beam="2">0</pdfrwt>
<totfact> 0.54686988E+04</totfact>
</mgrwt>
</event>
<event>
 6    1  0.1280499E-001  0.3000000E+03  0.7818608E-02  0.1093470E+00
         21   -1    0    0  501  502  0.00000000000E+00  0.00000000000E+00  0.14894072063E+02  0.14894072063E+02  0.00000000000E+00 0. -1.
         13   -1    0    0    0    0 -0.00000000000E+00 -0.00000000000E+00 -0.10000000000E+04  0.10000000000E+04  0.00000000000E+00 0.  1.
    9000005    2    1    2  501    0  0.36447147121E+02  0.32308823915E+01 -0.97664406629E+03  0.97733829705E+03  0.42049414045E+01 0.  0.
         13    1    3    3    0    0  0.26328334307E+02  0.43214971408E+00 -0.69997897284E+03  0.70047407543E+03  0.00000000000E+00 0.  1.
          1    1    3    3  501    0  0.10118812813E+02  0.27987326774E+01 -0.27666509345E+03  0.27686422161E+03  0.00000000000E+00 0.  1.
         -1    1    1    2    0  502 -0.36447147121E+02 -0.32308823915E+01 -0.84618616505E+01  0.37555775013E+02  0.00000000000E+00 0. -1.
<mgrwt>
<rscale>  1 0.30000000E+03</rscale>
<asrwt>0</asrwt>
<pdfrwt beam="1">  1       21 0.54160376E-01 0.30000000E+03</pdfrwt>
<pdfrwt beam="2">0</pdfrwt>
<totfact> 0.31544158E+02</totfact>
</mgrwt>
</event>
<event>
 6    1  0.1280499E-001  0.3000000E+03  0.7818608E-02  0.1093470E+00
         21   -1    0    0  501  502  0.00000000000E+00  0.00000000000E+00  0.12247981582E+01  0.12247981582E+01  0.00000000000E+00 0. -1.
         13   -1    0    0    0    0 -0.00000000000E+00 -0.00000000000E+00 -0.10000000000E+04  0.10000000000E+04  0.00000000000E+00 0.  1.
    9000005    2    1    2  501    0  0.25342273100E+01  0.34836652779E+02 -0.50162556507E+03  0.50284966231E+03  0.30920338168E+01 0.  0.
         13    1    3    3    0    0  0.10122598191E+01  0.45505759257E+01 -0.79179898405E+02  0.79317014080E+02  0.00000000000E+00 0.  1.
          3    1    3    3  501    0  0.15219674908E+01  0.30286076853E+02 -0.42244566666E+03  0.42353264823E+03  0.00000000000E+00 0.  1.
         -3    1    1    2    0  502 -0.25342273100E+01 -0.34836652779E+02 -0.49714963677E+03  0.49837513584E+03  0.00000000000E+00 0. -1.
<mgrwt>
<rscale>  1 0.30000000E+03</rscale>
<asrwt>0</asrwt>
<pdfrwt beam="1">  1       21 0.44538209E-02 0.30000000E+03</pdfrwt>
<pdfrwt beam="2">0</pdfrwt>
<totfact> 0.35066391E+04</totfact>
</mgrwt>
</event>
<event>
 6    1  0.1280499E-001  0.3000000E+03  0.7818608E-02  0.1093470E+00
         21   -1    0    0  501  502  0.00000000000E+00  0.00000000000E+00  0.15183548610E+01  0.15183548610E+01  0.00000000000E+00 0. -1.
         13   -1    0    0    0    0 -0.00000000000E+00 -0.00000000000E+00 -0.10000000000E+04  0.10000000000E+04  0.00000000000E+00 0.  1.
    9000005    2    1    2  501    0  0.30952888079E+02  0.13717936020E+02 -0.74197097342E+03  0.74278299246E+03  0.77061953412E+01 0.  0.
         13    1    3    3    0    0  0.30324345969E+02  0.14548078325E+02 -0.72544398434E+03  0.72622323493E+03  0.00000000000E+00 0.  1.
          1    1    3    3  501    0  0.62854211023E+00 -0.83014230529E+00 -0.16526989082E+02  0.16559757533E+02  0.00000000000E+00 0.  1.
         -1    1    1    2    0  502 -0.30952888079E+02 -0.13717936020E+02 -0.25651067172E+03  0.25873536240E+03  0.00000000000E+00 0. -1.
<mgrwt>
<rscale>  1 0.30000000E+03</rscale>
<asrwt>0</asrwt>
<pdfrwt beam="1">  1       21 0.55213020E-02 0.30000000E+03</pdfrwt>
<pdfrwt beam="2">0</pdfrwt>
<totfact> 0.24312441E+04</totfact>
</mgrwt>
</event>
<event>
 6    1  0.1280499E-001  0.3000000E+03  0.7818608E-02  0.1093470E+00
         21   -1    0    0  501  502  0.00000000000E+00  0.00000000000E+00  0.14637674217E+01  0.14637674217E+01  0.00000000000E+00 0. -1.
         13   -1    0    0    0    0 -0.00000000000E+00 -0.00000000000E+00 -0.10000000000E+04  0.10000000000E+04  0.00000000000E+00 0.  1.
    9000005    2    1    2  501    0  0.20060166114E+02  0.27082623530E+02 -0.26530562283E+03  0.26745899507E+03  0.33707235738E+01 0.  0.
         13    1    3    3    0    0  0.79574269812E+01  0.98320930916E+01 -0.11196463373E+03  0.11267683837E+03  0.00000000000E+00 0.  1.
          1    1    3    3  501    0  0.12102739133E+02  0.17250530438E+02 -0.15334098910E+03  0.15478215670E+03  0.00000000000E+00 0.  1.
         -1    1    1    2    0  502 -0.20060166114E+02 -0.27082623530E+02 -0.73323060975E+03  0.73400477235E+03  0.00000000000E+00 0. -1.
<mgrwt>
<rscale>  1 0.30000000E+03</rscale>
<asrwt>0</asrwt>
<pdfrwt beam="1">  1       21 0.53228018E-02 0.30000000E+03</pdfrwt>
<pdfrwt beam="2">0</pdfrwt>
<totfact> 0.25886072E+04</totfact>
</mgrwt>
</event>
<event>
 6    1  0.1280499E-001  0.3000000E+03  0.7818608E-02  0.1093470E+00
         21   -1    0    0  501  502  0.00000000000E+00  0.00000000000E+00  0.26671534936E+01  0.26671534936E+01  0.00000000000E+00 0. -1.
         13   -1    0    0    0    0 -0.00000000000E+00 -0.00000000000E+00 -0.10000000000E+04  0.10000000000E+04  0.00000000000E+00 0.  1.
    9000005    2    1    2  501    0  0.26279435024E+02  0.18325267905E+02 -0.89174727692E+03  0.89232796438E+03  0.30928909331E+01 0.  0.
         13    1    3    3    0    0  0.64899343330E+01  0.44088348219E+01 -0.25730267700E+03  0.25742226916E+03  0.00000000000E+00 0.  1.
          1    1    3    3  501    0  0.19789500691E+02  0.13916433083E+02 -0.63444459993E+03  0.63490569522E+03  0.00000000000E+00 0.  1.
         -3    1    1    2    0  502 -0.26279435024E+02 -0.18325267905E+02 -0.10558556958E+03  0.11033918911E+03  0.00000000000E+00 0. -1.
<mgrwt>
<rscale>  1 0.30000000E+03</rscale>
<asrwt>0</asrwt>
<pdfrwt beam="1">  1       21 0.96987604E-02 0.30000000E+03</pdfrwt>
<pdfrwt beam="2">0</pdfrwt>
<totfact> 0.90860492E+03</totfact>
</mgrwt>
</event>
<event>
 6    1  0.1280499E-001  0.3000000E+03  0.7818608E-02  0.1093470E+00
         21   -1    0    0  501  502  0.00000000000E+00  0.00000000000E+00  0.26802588571E+01  0.26802588571E+01  0.00000000000E+00 0. -1.
         13   -1    0    0    0    0 -0.00000000000E+00 -0.00000000000E+00 -0.10000000000E+04  0.10000000000E+04  0.00000000000E+00 0.  1.
    9000005    2    1    2  501    0 -0.12270836804E+02 -0.34530360466E+02 -0.85189391236E+03  0.85270829178E+03  0.67285760715E+01 0.  0.
         13    1    3    3    0    0 -0.11236905688E+02 -0.22787556656E+02 -0.55836378959E+03  0.55894155537E+03  0.00000000000E+00 0.  1.
          1    1    3    3  501    0 -0.10339311165E+01 -0.11742803810E+02 -0.29353012277E+03  0.29376673642E+03  0.00000000000E+00 0.  1.
         -1    1    1    2    0  502  0.12270836804E+02  0.34530360466E+02 -0.14542582879E+03  0.14997196707E+03  0.00000000000E+00 0. -1.
<mgrwt>
<rscale>  1 0.30000000E+03</rscale>
<asrwt>0</asrwt>
<pdfrwt beam="1">  1       21 0.97464164E-02 0.30000000E+03</pdfrwt>
<pdfrwt beam="2">0</pdfrwt>
<totfact> 0.90069429E+03</totfact>
</mgrwt>
</event>
<event>
 6    1  0.1280499E-001  0.3000000E+03  0.7818608E-02  0.1093470E+00
         21   -1    0    0  501  502  0.00000000000E+00  0.00000000000E+00  0.13848541798E+01  0.13848541798E+01  0.00000000000E+00 0. -1.
         13   -1    0    0    0    0 -0.00000000000E+00 -0.00000000000E+00 -0.10000000000E+04  0.10000000000E+04  0.00000000000E+00 0.  1.
    9000005    2    1    2  501    0  0.32559876784E+02 -0.17602879488E+02 -0.54286472051E+03  0.54413387593E+03  0.30924447822E+01 0.  0.
         13    1    3    3    0    0  0.23935699014E+02 -0.14362786563E+02 -0.40124508994E+03  0.40221490466E+03  0.00000000000E+00 0.  1.
          1    1    3    3  501    0  0.86241777700E+01 -0.32400929249E+01 -0.14161963057E+03  0.14191897127E+03  0.00000000000E+00 0.  1.
         -3    1    1    2    0  502 -0.32559876784E+02  0.17602879488E+02 -0.45575042531E+03  0.45725097825E+03  0.00000000000E+00 0. -1.
<mgrwt>
<rscale>  1 0.30000000E+03</rscale>
<asrwt>0</asrwt>
<pdfrwt beam="1">  1       21 0.50358440E-02 0.30000000E+03</pdfrwt>
<pdfrwt beam="2">0</pdfrwt>
<totfact> 0.28455960E+04</totfact>
</mgrwt>
</event>
<event>
 6    1  0.1280499E-001  0.3000000E+03  0.7818608E-02  0.1093470E+00
         21   -1    0    0  501  502  0.00000000000E+00  0.00000000000E+00  0.35316495751E+01  0.35316495751E+01  0.00000000000E+00 0. -1.
         13   -1    0    0    0    0 -0.00000000000E+00 -0.00000000000E+00 -0.10000000000E+04  0.10000000000E+04  0.00000000000E+00 0.  1.
    9000005    2    1    2  501    0  0.39630388974E+02 -0.24120926163E+02 -0.81154681108E+03  0.81287918428E+03  0.34575791354E+01 0.  0.
         13    1    3    3    0    0  0.15388445139E+02 -0.10362931079E+02 -0.29905741235E+03  0.29963232547E+03  0.00000000000E+00 0.  1.
          3    1    3    3  501    0  0.24241943834E+02 -0.13757995083E+02 -0.51248939872E+03  0.51324685881E+03  0.00000000000E+00 0.  1.
         -3    1    1    2    0  502 -0.39630388974E+02  0.24120926163E+02 -0.18492153935E+03  0.19065246530E+03  0.00000000000E+00 0. -1.
<mgrwt>
<rscale>  1 0.30000000E+03</rscale>
<asrwt>0</asrwt>
<pdfrwt beam="1">  1       21 0.12842389E-01 0.30000000E+03</pdfrwt>
<pdfrwt beam="2">0</pdfrwt>
<totfact> 0.54771288E+03</totfact>
</mgrwt>
</event>
<event>
 6    1  0.1280499E-001  0.3000000E+03  0.7818608E-02  0.1093470E+00
         21   -1    0    0  501  502  0.00000000000E+00  0.00000000000E+00  0.71905781525E+01  0.71905781525E+01  0.00000000000E+00 0. -1.
         13   -1    0    0    0    0 -0.00000000000E+00 -0.00000000000E+00 -0.10000000000E+04  0.10000000000E+04  0.00000000000E+00 0.  1.
    9000005    2    1    2  501    0  0.39166928921E+02  0.48719035449E+02 -0.83658173938E+03  0.83892090915E+03  0.34194171452E+01 0.  0.
         13    1    3    3    0    0  0.93473341291E+01  0.10858275689E+02 -0.21046627111E+03  0.21095337419E+03  0.00000000000E+00 0.  1.
          1    1    3    3  501    0  0.29819594792E+02  0.37860759761E+02 -0.62611546826E+03  0.62796753496E+03  0.00000000000E+00 0.  1.
         -3    1    1    2    0  502 -0.39166928921E+02 -0.48719035449E+02 -0.15622768247E+03  0.16826966900E+03  0.00000000000E+00 0. -1.
<mgrwt>
<rscale>  1 0.30000000E+03</rscale>
<asrwt>0</asrwt>
<pdfrwt beam="1">  1       21 0.26147612E-01 0.30000000E+03</pdfrwt>
<pdfrwt beam="2">0</pdfrwt>
<totfact> 0.14280133E+03</totfact>
</mgrwt>
</event>
<event>
 6    1  0.1280499E-001  0.3000000E+03  0.7818608E-02  0.1093470E+00
         21   -1    0    0  501  502  0.00000000000E+00  0.00000000000E+00  0.11142641252E+01  0.11142641252E+01  0.00000000000E+00 0. -1.
         13   -1    0    0    0    0 -0.00000000000E+00 -0.00000000000E+00 -0.10000000000E+04  0.10000000000E+04  0.00000000000E+00 0.  1.
    9000005    2    1    2  501    0  0.82486393024E+01  0.31532625022E+02 -0.60436847474E+03  0.60525290478E+03  0.27347744291E+01 0.  0.
         13    1    3    3    0    0  0.48450701761E+01  0.23292026272E+02 -0.43680552601E+03  0.43745292403E+03  0.00000000000E+00 0.  1.
          1    1    3    3  501    0  0.34035691263E+01  0.82405987499E+01 -0.16756294873E+03  0.16779998074E+03  0.00000000000E+00 0.  1.
         -3    1    1    2    0  502 -0.82486393024E+01 -0.31532625022E+02 -0.39451726114E+03  0.39586135935E+03  0.00000000000E+00 0. -1.
<mgrwt>
<rscale>  1 0.30000000E+03</rscale>
<asrwt>0</asrwt>
<pdfrwt beam="1">  1       21 0.40518781E-02 0.30000000E+03</pdfrwt>
<pdfrwt beam="2">0</pdfrwt>
<totfact> 0.41144402E+04</totfact>
</mgrwt>
</event>
<event>
 6    1  0.1280499E-001  0.3000000E+03  0.7818608E-02  0.1093470E+00
         21   -1    0    0  501  502  0.00000000000E+00  0.00000000000E+00  0.92980981203E+00  0.92980981203E+00  0.00000000000E+00 0. -1.
         13   -1    0    0    0    0 -0.00000000000E+00 -0.00000000000E+00 -0.10000000000E+04  0.10000000000E+04  0.00000000000E+00 0.  1.
    9000005    2    1    2  501    0 -0.21181446657E+02 -0.21398305286E+02 -0.56994275028E+03  0.57074740567E+03  0.33647184899E+01 0.  0.
         13    1    3    3    0    0 -0.12328360303E+01 -0.23985656587E+01 -0.61027475343E+02  0.61087034211E+02  0.00000000000E+00 0.  1.
          3    1    3    3  501    0 -0.19948610627E+02 -0.18999739627E+02 -0.50891527494E+03  0.50966037146E+03  0.00000000000E+00 0.  1.
         -3    1    1    2    0  502  0.21181446657E+02  0.21398305286E+02 -0.42912743991E+03  0.43018240414E+03  0.00000000000E+00 0. -1.
<mgrwt>
<rscale>  1 0.30000000E+03</rscale>
<asrwt>0</asrwt>
<pdfrwt beam="1">  1       21 0.33811337E-02 0.30000000E+03</pdfrwt>
<pdfrwt beam="2">0</pdfrwt>
<totfact> 0.55746896E+04</totfact>
</mgrwt>
</event>
<event>
 6    1  0.1280499E-001  0.3000000E+03  0.7818608E-02  0.1093470E+00
         21   -1    0    0  501  502  0.00000000000E+00  0.00000000000E+00  0.19990127913E+01  0.19990127913E+01  0.00000000000E+00 0. -1.
         13   -1    0    0    0    0 -0.00000000000E+00 -0.00000000000E+00 -0.10000000000E+04  0.10000000000E+04  0.00000000000E+00 0.  1.
    9000005    2    1    2  501    0 -0.27250085972E+02  0.18524383893E+02 -0.83720046598E+03  0.83785722161E+03  0.37925698749E+01 0.  0.
         13    1    3    3    0    0 -0.18010417958E+02  0.11696005720E+02 -0.58807756260E+03  0.58846953306E+03  0.00000000000E+00 0.  1.
          3    1    3    3  501    0 -0.92396680142E+01  0.68283781732E+01 -0.24912290338E+03  0.24938768855E+03  0.00000000000E+00 0.  1.
         -3    1    1    2    0  502  0.27250085972E+02 -0.18524383893E+02 -0.16080052123E+03  0.16414179118E+03  0.00000000000E+00 0. -1.
<mgrwt>
<rscale>  1 0.30000000E+03</rscale>
<asrwt>0</asrwt>
<pdfrwt beam="1">  1       21 0.72691528E-02 0.30000000E+03</pdfrwt>
<pdfrwt beam="2">0</pdfrwt>
<totfact> 0.15108251E+04</totfact>
</mgrwt>
</event>
<event>
 6    1  0.1280499E-001  0.3000000E+03  0.7818608E-02  0.1093470E+00
         21   -1    0    0  501  502  0.00000000000E+00  0.00000000000E+00  0.14669399563E+01  0.14669399563E+01  0.00000000000E+00 0. -1.
         13   -1    0    0    0    0 -0.00000000000E+00 -0.00000000000E+00 -0.10000000000E+04  0.10000000000E+04  0.00000000000E+00 0.  1.
    9000005    2    1    2  501    0  0.35695221773E+02 -0.11324858852E+02 -0.40483000690E+03  0.40658399635E+03  0.45618322128E+01 0.  0.
         13    1    3    3    0    0  0.29434028635E+02 -0.10858209897E+02 -0.34629440469E+03  0.34771263636E+03  0.00000000000E+00 0.  1.
          1    1    3    3  501    0  0.62611931376E+01 -0.46664895535E+00 -0.58535602208E+02  0.58871359986E+02  0.00000000000E+00 0.  1.
         -3    1    1    2    0  502 -0.35695221773E+02  0.11324858852E+02 -0.59370305314E+03  0.59488294361E+03  0.00000000000E+00 0. -1.
<mgrwt>
<rscale>  1 0.30000000E+03</rscale>
<asrwt>0</asrwt>
<pdfrwt beam="1">  1       21 0.53343384E-02 0.30000000E+03</pdfrwt>
<pdfrwt beam="2">0</pdfrwt>
<totfact> 0.25790363E+04</totfact>
</mgrwt>
</event>
<event>
 6    1  0.1280499E-001  0.3000000E+03  0.7818608E-02  0.1093470E+00
         21   -1    0    0  501  502  0.00000000000E+00  0.00000000000E+00  0.14975078004E+01  0.14975078004E+01  0.00000000000E+00 0. -1.
         13   -1    0    0    0    0 -0.00000000000E+00 -0.00000000000E+00 -0.10000000000E+04  0.10000000000E+04  0.00000000000E+00 0.  1.
    9000005    2    1    2  501    0  0.39683632823E+01  0.32239594550E+02 -0.77073187298E+03  0.77142231500E+03  0.31030120760E+01 0.  0.
         13    1    3    3    0    0  0.13345420047E+01  0.64517321708E+01 -0.13120627327E+03  0.13137157986E+03  0.00000000000E+00 0.  1.
          1    1    3    3  501    0  0.26338212776E+01  0.25787862379E+02 -0.63952559971E+03  0.64005073514E+03  0.00000000000E+00 0.  1.
         -3    1    1    2    0  502 -0.39683632823E+01 -0.32239594550E+02 -0.22777061922E+03  0.23007519280E+03  0.00000000000E+00 0. -1.
<mgrwt>
<rscale>  1 0.30000000E+03</rscale>
<asrwt>0</asrwt>
<pdfrwt beam="1">  1       21 0.54454944E-02 0.30000000E+03</pdfrwt>
<pdfrwt beam="2">0</pdfrwt>
<totfact> 0.24895538E+04</totfact>
</mgrwt>
</event>
<event>
 6    1  0.1280499E-001  0.3000000E+03  0.7818608E-02  0.1093470E+00
         21   -1    0    0  501  502  0.00000000000E+00  0.00000000000E+00  0.22931650509E+01  0.22931650509E+01  0.00000000000E+00 0. -1.
         13   -1    0    0    0    0 -0.00000000000E+00 -0.00000000000E+00 -0.10000000000E+04  0.10000000000E+04  0.00000000000E+00 0.  1.
    9000005    2    1    2  501    0  0.38351390906E+02  0.25902869952E+02 -0.62681678778E+03  0.62852690795E+03  0.22362292911E+01 0.  0.
         13    1    3    3    0    0  0.33458752092E+02  0.22420680035E+02 -0.53495421123E+03  0.53646824985E+03  0.00000000000E+00 0.  1.
          3    1    3    3  501    0  0.48926388141E+01  0.34821899173E+01 -0.91862576552E+02  0.92058658104E+02  0.00000000000E+00 0.  1.
         -3    1    1    2    0  502 -0.38351390906E+02 -0.25902869952E+02 -0.37089004717E+03  0.37376625710E+03  0.00000000000E+00 0. -1.
<mgrwt>
<rscale>  1 0.30000000E+03</rscale>
<asrwt>0</asrwt>
<pdfrwt beam="1">  1       21 0.83387996E-02 0.30000000E+03</pdfrwt>
<pdfrwt beam="2">0</pdfrwt>
<totfact> 0.11875249E+04</totfact>
</mgrwt>
</event>
<event>
 6    1  0.1280499E-001  0.3000000E+03  0.7818608E-02  0.1093470E+00
         21   -1    0    0  501  502  0.00000000000E+00  0.00000000000E+00  0.91064343552E+00  0.91064343552E+00  0.00000000000E+00 0. -1.
         13   -1    0    0    0    0 -0.00000000000E+00 -0.00000000000E+00 -0.10000000000E+04  0.10000000000E+04  0.00000000000E+00 0.  1.
    9000005    2    1    2  501    0  0.75807370091E+01 -0.29048163926E+02 -0.54037620120E+03  0.54121615543E+03  0.26878747573E+01 0.  0.
         13    1    3    3    0    0  0.65893903859E+01 -0.24511183213E+02 -0.47255432016E+03  0.47323546324E+03  0.00000000000E+00 0.  1.
          1    1    3    3  501    0  0.99134662319E+00 -0.45369807129E+01 -0.67821881047E+02  0.67980692191E+02  0.00000000000E+00 0.  1.
         -3    1    1    2    0  502 -0.75807370091E+01  0.29048163926E+02 -0.45871315536E+03  0.45969448801E+03  0.00000000000E+00 0. -1.
<mgrwt>
<rscale>  1 0.30000000E+03</rscale>
<asrwt>0</asrwt>
<pdfrwt beam="1">  1       21 0.33114377E-02 0.30000000E+03</pdfrwt>
<pdfrwt beam="2">0</pdfrwt>
<totfact> 0.57719405E+04</totfact>
</mgrwt>
</event>
<event>
 6    1  0.1280499E-001  0.3000000E+03  0.7818608E-02  0.1093470E+00
         21   -1    0    0  501  502  0.00000000000E+00  0.00000000000E+00  0.13598921572E+01  0.13598921572E+01  0.00000000000E+00 0. -1.
         13   -1    0    0    0    0 -0.00000000000E+00 -0.00000000000E+00 -0.10000000000E+04  0.10000000000E+04  0.00000000000E+00 0.  1.
    9000005    2    1    2  501    0  0.29903720843E+02 -0.14006763284E+02 -0.29437204675E+03  0.29631810345E+03  0.76873006081E+01 0.  0.
         13    1    3    3    0    0  0.19642859772E+02 -0.87595049522E+01 -0.22132014534E+03  0.22236271630E+03  0.00000000000E+00 0.  1.
          1    1    3    3  501    0  0.10260861071E+02 -0.52472583314E+01 -0.73051901409E+02  0.73955387156E+02  0.00000000000E+00 0.  1.
         -1    1    1    2    0  502 -0.29903720843E+02  0.14006763284E+02 -0.70426806110E+03  0.70504178870E+03  0.00000000000E+00 0. -1.
<mgrwt>
<rscale>  1 0.30000000E+03</rscale>
<asrwt>0</asrwt>
<pdfrwt beam="1">  1       21 0.49450728E-02 0.30000000E+03</pdfrwt>
<pdfrwt beam="2">0</pdfrwt>
<totfact> 0.29352060E+04</totfact>
</mgrwt>
</event>
<event>
 6    1  0.1280499E-001  0.3000000E+03  0.7818608E-02  0.1093470E+00
         21   -1    0    0  501  502  0.00000000000E+00  0.00000000000E+00  0.13644951369E+01  0.13644951369E+01  0.00000000000E+00 0. -1.
         13   -1    0    0    0    0 -0.00000000000E+00 -0.00000000000E+00 -0.10000000000E+04  0.10000000000E+04  0.00000000000E+00 0.  1.
    9000005    2    1    2  501    0  0.12402719962E+02  0.29910147177E+02 -0.73910397109E+03  0.73982088235E+03  0.34370793720E+01 0.  0.
         13    1    3    3    0    0  0.72171364968E+01  0.21193469087E+02 -0.52322924357E+03  0.52370802124E+03  0.00000000000E+00 0.  1.
          3    1    3    3  501    0  0.51855834649E+01  0.87166780903E+01 -0.21587472752E+03  0.21611286111E+03  0.00000000000E+00 0.  1.
         -1    1    1    2    0  502 -0.12402719962E+02 -0.29910147177E+02 -0.25953153377E+03  0.26154361279E+03  0.00000000000E+00 0. -1.
<mgrwt>
<rscale>  1 0.30000000E+03</rscale>
<asrwt>0</asrwt>
<pdfrwt beam="1">  1       21 0.49618110E-02 0.30000000E+03</pdfrwt>
<pdfrwt beam="2">0</pdfrwt>
<totfact> 0.29183542E+04</totfact>
</mgrwt>
</event>
<event>
 6    1  0.1280499E-001  0.3000000E+03  0.7818608E-02  0.1093470E+00
         21   -1    0    0  501  502  0.00000000000E+00  0.00000000000E+00  0.16474177789E+01  0.16474177789E+01  0.00000000000E+00 0. -1.
         13   -1    0    0    0    0 -0.00000000000E+00 -0.00000000000E+00 -0.10000000000E+04  0.10000000000E+04  0.00000000000E+00 0.  1.
    9000005    2    1    2  501    0 -0.30622171831E+02 -0.25149234120E+02 -0.59966923123E+03  0.60099967257E+03  0.52171025805E+01 0.  0.
         13    1    3    3    0    0 -0.26908111495E+01 -0.12094654020E+01 -0.64620224532E+02  0.64687531177E+02  0.00000000000E+00 0.  1.
          3    1    3    3  501    0 -0.27931360682E+02 -0.23939768718E+02 -0.53504900670E+03  0.53631214139E+03  0.00000000000E+00 0.  1.
         -3    1    1    2    0  502  0.30622171831E+02  0.25149234120E+02 -0.39868335099E+03  0.40064774521E+03  0.00000000000E+00 0. -1.
<mgrwt>
<rscale>  1 0.30000000E+03</rscale>
<asrwt>0</asrwt>
<pdfrwt beam="1">  1       21 0.59906227E-02 0.30000000E+03</pdfrwt>
<pdfrwt beam="2">0</pdfrwt>
<totfact> 0.21128581E+04</totfact>
</mgrwt>
</event>
<event>
 6    1  0.1280499E-001  0.3000000E+03  0.7818608E-02  0.1093470E+00
         21   -1    0    0  501  502  0.00000000000E+00  0.00000000000E+00  0.25659115407E+01  0.25659115407E+01  0.00000000000E+00 0. -1.
         13   -1    0    0    0    0 -0.00000000000E+00 -0.00000000000E+00 -0.10000000000E+04  0.10000000000E+04  0.00000000000E+00 0.  1.
    9000005    2    1    2  501    0 -0.21209906045E+02  0.38093033216E+02 -0.75339720574E+03  0.75466484373E+03  0.32768051361E+01 0.  0.
         13    1    3    3    0    0 -0.17644832523E+02  0.31435861516E+02 -0.60019990444E+03  0.60128153039E+03  0.00000000000E+00 0.  1.
          3    1    3    3  501    0 -0.35650735220E+01  0.66571716998E+01 -0.15319730130E+03  0.15338331334E+03  0.00000000000E+00 0.  1.
         -1    1    1    2    0  502  0.21209906045E+02 -0.38093033216E+02 -0.24403688272E+03  0.24790106781E+03  0.00000000000E+00 0. -1.
<mgrwt>
<rscale>  1 0.30000000E+03</rscale>
<asrwt>0</asrwt>
<pdfrwt beam="1">  1       21 0.93306071E-02 0.30000000E+03</pdfrwt>
<pdfrwt beam="2">0</pdfrwt>
<totfact> 0.97344689E+03</totfact>
</mgrwt>
</event>
<event>
 6    1  0.1280499E-001  0.3000000E+03  0.7818608E-02  0.1093470E+00
         21   -1    0    0  501  502  0.00000000000E+00  0.00000000000E+00  0.16436561902E+01  0.16436561902E+01  0.00000000000E+00 0. -1.
         13   -1    0    0    0    0 -0.00000000000E+00 -0.00000000000E+00 -0.10000000000E+04  0.10000000000E+04  0.00000000000E+00 0.  1.
    9000005    2    1    2  501    0 -0.14618248538E+02  0.34861745183E+02 -0.32287661452E+03  0.32510696158E+03  0.40241519414E+01 0.  0.
         13    1    3    3    0    0 -0.46564325448E+01  0.14321602030E+02 -0.11550174115E+03  0.11647936666E+03  0.00000000000E+00 0.  1.
          3    1    3    3  501    0 -0.99618159927E+01  0.20540143153E+02 -0.20737487337E+03  0.20862759492E+03  0.00000000000E+00 0.  1.
         -1    1    1    2    0  502  0.14618248538E+02 -0.34861745183E+02 -0.67547972929E+03  0.67653669461E+03  0.00000000000E+00 0. -1.
<mgrwt>
<rscale>  1 0.30000000E+03</rscale>
<asrwt>0</asrwt>
<pdfrwt beam="1">  1       21 0.59769442E-02 0.30000000E+03</pdfrwt>
<pdfrwt beam="2">0</pdfrwt>
<totfact> 0.21212034E+04</totfact>
</mgrwt>
</event>
<event>
 6    1  0.1280499E-001  0.3000000E+03  0.7818608E-02  0.1093470E+00
         21   -1    0    0  501  502  0.00000000000E+00  0.00000000000E+00  0.76274017381E+01  0.76274017381E+01  0.00000000000E+00 0. -1.
         13   -1    0    0    0    0 -0.00000000000E+00 -0.00000000000E+00 -0.10000000000E+04  0.10000000000E+04  0.00000000000E+00 0.  1.
    9000005    2    1    2  501    0 -0.23199399194E+02  0.50566378703E+02 -0.88448930034E+03  0.88624380833E+03  0.34050858288E+01 0.  0.
         13    1    3    3    0    0 -0.21167038062E+02  0.45112743200E+02 -0.80605492576E+03  0.80759380040E+03  0.00000000000E+00 0.  1.
          3    1    3    3  501    0 -0.20323611324E+01  0.54536355030E+01 -0.78434374579E+02  0.78650007931E+02  0.00000000000E+00 0.  1.
         -1    1    1    2    0  502  0.23199399194E+02 -0.50566378703E+02 -0.10788329792E+03  0.12138359341E+03  0.00000000000E+00 0. -1.
<mgrwt>
<rscale>  1 0.30000000E+03</rscale>
<asrwt>0</asrwt>
<pdfrwt beam="1">  1       21 0.27736065E-01 0.30000000E+03</pdfrwt>
<pdfrwt beam="2">0</pdfrwt>
<totfact> 0.12710325E+03</totfact>
</mgrwt>
</event>
<event>
 6    1  0.1280499E-001  0.3000000E+03  0.7818608E-02  0.1093470E+00
         21   -1    0    0  501  502  0.00000000000E+00  0.00000000000E+00  0.60237465561E+01  0.60237465561E+01  0.00000000000E+00 0. -1.
         13   -1    0    0    0    0 -0.00000000000E+00 -0.00000000000E+00 -0.10000000000E+04  0.10000000000E+04  0.00000000000E+00 0.  1.
    9000005    2    1    2  501    0  0.82755621078E+01  0.51971186880E+02 -0.12769884762E+03  0.13814931265E+03  0.29576523155E+01 0.  0.
         13    1    3    3    0    0  0.21207058434E+01  0.15594810992E+02 -0.41684408958E+02  0.44556542430E+02  0.00000000000E+00 0.  1.
          3    1    3    3  501    0  0.61548562644E+01  0.36376375888E+02 -0.86014438666E+02  0.93592770220E+02  0.00000000000E+00 0.  1.
         -3    1    1    2    0  502 -0.82755621078E+01 -0.51971186880E+02 -0.86627740582E+03  0.86787443391E+03  0.00000000000E+00 0. -1.
<mgrwt>
<rscale>  1 0.30000000E+03</rscale>
<asrwt>0</asrwt>
<pdfrwt beam="1">  1       21 0.21904579E-01 0.30000000E+03</pdfrwt>
<pdfrwt beam="2">0</pdfrwt>
<totfact> 0.20153862E+03</totfact>
</mgrwt>
</event>
<event>
 6    1  0.1280499E-001  0.3000000E+03  0.7818608E-02  0.1093470E+00
         21   -1    0    0  501  502  0.00000000000E+00  0.00000000000E+00  0.38883488509E+01  0.38883488509E+01  0.00000000000E+00 0. -1.
         13   -1    0    0    0    0 -0.00000000000E+00 -0.00000000000E+00 -0.10000000000E+04  0.10000000000E+04  0.00000000000E+00 0.  1.
    9000005    2    1    2  501    0 -0.34728951200E+02 -0.47007860578E+02 -0.67238007909E+03  0.67492335109E+03  0.32741524602E+01 0.  0.
         13    1    3    3    0    0 -0.33253835176E+02 -0.44593950376E+02 -0.64663442033E+03  0.64902273575E+03  0.00000000000E+00 0.  1.
          3    1    3    3  501    0 -0.14751160248E+01 -0.24139102020E+01 -0.25745658763E+02  0.25900615338E+02  0.00000000000E+00 0.  1.
         -1    1    1    2    0  502  0.34728951200E+02  0.47007860578E+02 -0.32373157206E+03  0.32896499776E+03  0.00000000000E+00 0. -1.
<mgrwt>
<rscale>  1 0.30000000E+03</rscale>
<asrwt>0</asrwt>
<pdfrwt beam="1">  1       21 0.14139480E-01 0.30000000E+03</pdfrwt>
<pdfrwt beam="2">0</pdfrwt>
<totfact> 0.45922247E+03</totfact>
</mgrwt>
</event>
<event>
 6    1  0.1280499E-001  0.3000000E+03  0.7818608E-02  0.1093470E+00
         21   -1    0    0  501  502  0.00000000000E+00  0.00000000000E+00  0.10957578955E+01  0.10957578955E+01  0.00000000000E+00 0. -1.
         13   -1    0    0    0    0 -0.00000000000E+00 -0.00000000000E+00 -0.10000000000E+04  0.10000000000E+04  0.00000000000E+00 0.  1.
    9000005    2    1    2  501    0 -0.90676230023E+01  0.31622838148E+02 -0.45742267997E+03  0.45861579715E+03  0.32734636978E+01 0.  0.
         13    1    3    3    0    0 -0.81142548617E+01  0.26043306012E+02 -0.36287782990E+03  0.36390165478E+03  0.00000000000E+00 0.  1.
          1    1    3    3  501    0 -0.95336814060E+00  0.55795321359E+01 -0.94544850074E+02  0.94714142372E+02  0.00000000000E+00 0.  1.
         -3    1    1    2    0  502  0.90676230023E+01 -0.31622838148E+02 -0.54148156213E+03  0.54247996074E+03  0.00000000000E+00 0. -1.
<mgrwt>
<rscale>  1 0.30000000E+03</rscale>
<asrwt>0</asrwt>
<pdfrwt beam="1">  1       21 0.39845826E-02 0.30000000E+03</pdfrwt>
<pdfrwt beam="2">0</pdfrwt>
<totfact> 0.42321639E+04</totfact>
</mgrwt>
</event>
<event>
 6    1  0.1280499E-001  0.3000000E+03  0.7818608E-02  0.1093470E+00
         21   -1    0    0  501  502  0.00000000000E+00  0.00000000000E+00  0.13772407260E+01  0.13772407260E+01  0.00000000000E+00 0. -1.
         13   -1    0    0    0    0 -0.00000000000E+00 -0.00000000000E+00 -0.10000000000E+04  0.10000000000E+04  0.00000000000E+00 0.  1.
    9000005    2    1    2  501    0 -0.51699488917E+01  0.35778122239E+02 -0.39101956585E+03  0.39269962239E+03  0.31448603005E+01 0.  0.
         13    1    3    3    0    0 -0.44824873380E+01  0.22432889458E+02 -0.23706225275E+03  0.23816347097E+03  0.00000000000E+00 0.  1.
          1    1    3    3  501    0 -0.68746155372E+00  0.13345232782E+02 -0.15395731310E+03  0.15453615143E+03  0.00000000000E+00 0.  1.
         -3    1    1    2    0  502  0.51699488917E+01 -0.35778122239E+02 -0.60760319342E+03  0.60867761833E+03  0.00000000000E+00 0. -1.
<mgrwt>
<rscale>  1 0.30000000E+03</rscale>
<asrwt>0</asrwt>
<pdfrwt beam="1">  1       21 0.50081587E-02 0.30000000E+03</pdfrwt>
<pdfrwt beam="2">0</pdfrwt>
<totfact> 0.28724704E+04</totfact>
</mgrwt>
</event>
<event>
 6    1  0.1280499E-001  0.3000000E+03  0.7818608E-02  0.1093470E+00
         21   -1    0    0  501  502  0.00000000000E+00  0.00000000000E+00  0.34771339670E+01  0.34771339670E+01  0.00000000000E+00 0. -1.
         13   -1    0    0    0    0 -0.00000000000E+00 -0.00000000000E+00 -0.10000000000E+04  0.10000000000E+04  0.00000000000E+00 0.  1.
    9000005    2    1    2  501    0 -0.48331622933E+02  0.33125487898E+02 -0.44651660958E+03  0.45035858803E+03  0.35399796786E+01 0.  0.
         13    1    3    3    0    0 -0.39182917680E+02  0.25177651820E+02 -0.35146961423E+03  0.35454210599E+03  0.00000000000E+00 0.  1.
          1    1    3    3  501    0 -0.91487052532E+01  0.79478360786E+01 -0.95046995349E+02  0.95816482042E+02  0.00000000000E+00 0.  1.
         -1    1    1    2    0  502  0.48331622933E+02 -0.33125487898E+02 -0.55000625645E+03  0.55311854594E+03  0.00000000000E+00 0. -1.
<mgrwt>
<rscale>  1 0.30000000E+03</rscale>
<asrwt>0</asrwt>
<pdfrwt beam="1">  1       21 0.12644150E-01 0.30000000E+03</pdfrwt>
<pdfrwt beam="2">0</pdfrwt>
<totfact> 0.56347380E+03</totfact>
</mgrwt>
</event>
<event>
 6    1  0.1280499E-001  0.3000000E+03  0.7818608E-02  0.1093470E+00
         21   -1    0    0  501  502  0.00000000000E+00  0.00000000000E+00  0.14811663195E+01  0.14811663195E+01  0.00000000000E+00 0. -1.
         13   -1    0    0    0    0 -0.00000000000E+00 -0.00000000000E+00 -0.10000000000E+04  0.10000000000E+04  0.00000000000E+00 0.  1.
    9000005    2    1    2  501    0 -0.21678944884E+02  0.30640038320E+02 -0.39517508460E+03  0.39697106041E+03  0.37264876361E+01 0.  0.
         13    1    3    3    0    0 -0.18368851684E+02  0.23511572804E+02 -0.30707334817E+03  0.30851944821E+03  0.00000000000E+00 0.  1.
          3    1    3    3  501    0 -0.33100931999E+01  0.71284655164E+01 -0.88101736432E+02  0.88451612195E+02  0.00000000000E+00 0.  1.
         -1    1    1    2    0  502  0.21678944884E+02 -0.30640038320E+02 -0.60334374908E+03  0.60451010591E+03  0.00000000000E+00 0. -1.
<mgrwt>
<rscale>  1 0.30000000E+03</rscale>
<asrwt>0</asrwt>
<pdfrwt beam="1">  1       21 0.53860707E-02 0.30000000E+03</pdfrwt>
<pdfrwt beam="2">0</pdfrwt>
<totfact> 0.25367834E+04</totfact>
</mgrwt>
</event>
<event>
 6    1  0.1280499E-001  0.3000000E+03  0.7818608E-02  0.1093470E+00
         21   -1    0    0  501  502  0.00000000000E+00  0.00000000000E+00  0.41569661840E+01  0.41569661840E+01  0.00000000000E+00 0. -1.
         13   -1    0    0    0    0 -0.00000000000E+00 -0.00000000000E+00 -0.10000000000E+04  0.10000000000E+04  0.00000000000E+00 0.  1.
    9000005    2    1    2  501    0 -0.80382165635E+01 -0.62039476470E+02 -0.37810151958E+03  0.38325593705E+03  0.32931157027E+01 0.  0.
         13    1    3    3    0    0 -0.73470132583E+01 -0.52775514829E+02 -0.32813985666E+03  0.33243796279E+03  0.00000000000E+00 0.  1.
          3    1    3    3  501    0 -0.69120330512E+00 -0.92639616411E+01 -0.49961662917E+02  0.50817974268E+02  0.00000000000E+00 0.  1.
         -1    1    1    2    0  502  0.80382165635E+01  0.62039476470E+02 -0.61774151423E+03  0.62090102913E+03  0.00000000000E+00 0. -1.
<mgrwt>
<rscale>  1 0.30000000E+03</rscale>
<asrwt>0</asrwt>
<pdfrwt beam="1">  1       21 0.15116273E-01 0.30000000E+03</pdfrwt>
<pdfrwt beam="2">0</pdfrwt>
<totfact> 0.40595732E+03</totfact>
</mgrwt>
</event>
<event>
 6    1  0.1280499E-001  0.3000000E+03  0.7818608E-02  0.1093470E+00
         21   -1    0    0  501  502  0.00000000000E+00  0.00000000000E+00  0.22518134687E+01  0.22518134687E+01  0.00000000000E+00 0. -1.
         13   -1    0    0    0    0 -0.00000000000E+00 -0.00000000000E+00 -0.10000000000E+04  0.10000000000E+04  0.00000000000E+00 0.  1.
    9000005    2    1    2  501    0 -0.38521128781E+02 -0.20508983052E+02 -0.69487208016E+03  0.69624784036E+03  0.30580500222E+01 0.  0.
         13    1    3    3    0    0 -0.19885241899E+02 -0.11883712246E+02 -0.38437402370E+03  0.38507146812E+03  0.00000000000E+00 0.  1.
          3    1    3    3  501    0 -0.18635886882E+02 -0.86252708056E+01 -0.31049805646E+03  0.31117637224E+03  0.00000000000E+00 0.  1.
         -3    1    1    2    0  502  0.38521128781E+02  0.20508983052E+02 -0.30287610637E+03  0.30600397311E+03  0.00000000000E+00 0. -1.
<mgrwt>
<rscale>  1 0.30000000E+03</rscale>
<asrwt>0</asrwt>
<pdfrwt beam="1">  1       21 0.81884299E-02 0.30000000E+03</pdfrwt>
<pdfrwt beam="2">0</pdfrwt>
<totfact> 0.12261719E+04</totfact>
</mgrwt>
</event>
<event>
 6    1  0.1280499E-001  0.3000000E+03  0.7818608E-02  0.1093470E+00
         21   -1    0    0  501  502  0.00000000000E+00  0.00000000000E+00  0.47064673837E+01  0.47064673837E+01  0.00000000000E+00 0. -1.
         13   -1    0    0    0    0 -0.00000000000E+00 -0.00000000000E+00 -0.10000000000E+04  0.10000000000E+04  0.00000000000E+00 0.  1.
    9000005    2    1    2  501    0 -0.39768338450E+02  0.24809674613E+02 -0.86439446555E+03  0.86566831990E+03  0.26090810213E+01 0.  0.
         13    1    3    3    0    0 -0.51680200580E+01  0.36019937963E+01 -0.10166689883E+03  0.10186187270E+03  0.00000000000E+00 0.  1.
          3    1    3    3  501    0 -0.34600318392E+02  0.21207680816E+02 -0.76272756672E+03  0.76380644720E+03  0.00000000000E+00 0.  1.
         -1    1    1    2    0  502  0.39768338450E+02 -0.24809674613E+02 -0.13089906707E+03  0.13903814749E+03  0.00000000000E+00 0. -1.
<mgrwt>
<rscale>  1 0.30000000E+03</rscale>
<asrwt>0</asrwt>
<pdfrwt beam="1">  1       21 0.17114463E-01 0.30000000E+03</pdfrwt>
<pdfrwt beam="2">0</pdfrwt>
<totfact> 0.32207728E+03</totfact>
</mgrwt>
</event>
<event>
 6    1  0.1280499E-001  0.3000000E+03  0.7818608E-02  0.1093470E+00
         21   -1    0    0  501  502  0.00000000000E+00  0.00000000000E+00  0.62398956112E+01  0.62398956112E+01  0.00000000000E+00 0. -1.
         13   -1    0    0    0    0 -0.00000000000E+00 -0.00000000000E+00 -0.10000000000E+04  0.10000000000E+04  0.00000000000E+00 0.  1.
    9000005    2    1    2  501    0  0.50856125281E+02 -0.51077008190E+01 -0.88038906844E+03  0.88187983017E+03  0.38326142674E+01 0.  0.
         13    1    3    3    0    0  0.28959534235E+02 -0.11661183276E+01 -0.48464582097E+03  0.48551167467E+03  0.00000000000E+00 0.  1.
          3    1    3    3  501    0  0.21896591047E+02 -0.39415824915E+01 -0.39574324747E+03  0.39636815550E+03  0.00000000000E+00 0.  1.
         -1    1    1    2    0  502 -0.50856125281E+02  0.51077008190E+01 -0.11337103595E+03  0.12436006545E+03  0.00000000000E+00 0. -1.
<mgrwt>
<rscale>  1 0.30000000E+03</rscale>
<asrwt>0</asrwt>
<pdfrwt beam="1">  1       21 0.22690577E-01 0.30000000E+03</pdfrwt>
<pdfrwt beam="2">0</pdfrwt>
<totfact> 0.18829452E+03</totfact>
</mgrwt>
</event>
<event>
 6    1  0.1280499E-001  0.3000000E+03  0.7818608E-02  0.1093470E+00
         21   -1    0    0  501  502  0.00000000000E+00  0.00000000000E+00  0.11856672898E+01  0.11856672898E+01  0.00000000000E+00 0. -1.
         13   -1    0    0    0    0 -0.00000000000E+00 -0.00000000000E+00 -0.10000000000E+04  0.10000000000E+04  0.00000000000E+00 0.  1.
    9000005    2    1    2  501    0  0.29489691958E+02 -0.17107472054E+02 -0.56273099789E+03  0.56377169582E+03  0.31688303636E+01 0.  0.
         13    1    3    3    0    0  0.31873508287E+01 -0.30683631945E+01 -0.73963267834E+02  0.74095472511E+02  0.00000000000E+00 0.  1.
          3    1    3    3  501    0  0.26302341130E+02 -0.14039108860E+02 -0.48876773006E+03  0.48967622331E+03  0.00000000000E+00 0.  1.
         -3    1    1    2    0  502 -0.29489691958E+02  0.17107472054E+02 -0.43608333482E+03  0.43741397147E+03  0.00000000000E+00 0. -1.
<mgrwt>
<rscale>  1 0.30000000E+03</rscale>
<asrwt>0</asrwt>
<pdfrwt beam="1">  1       21 0.43115265E-02 0.30000000E+03</pdfrwt>
<pdfrwt beam="2">0</pdfrwt>
<totfact> 0.37048616E+04</totfact>
</mgrwt>
</event>
<event>
 6    1  0.1280499E-001  0.3000000E+03  0.7818608E-02  0.1093470E+00
         21   -1    0    0  501  502  0.00000000000E+00  0.00000000000E+00  0.35336386882E+01  0.35336386882E+01  0.00000000000E+00 0. -1.
         13   -1    0    0    0    0 -0.00000000000E+00 -0.00000000000E+00 -0.10000000000E+04  0.10000000000E+04  0.00000000000E+00 0.  1.
    9000005    2    1    2  501    0  0.96044130562E+01  0.36580321653E+02 -0.88505209529E+03  0.88587522057E+03  0.52278435788E+01 0.  0.
         13    1    3    3    0    0  0.61270287344E+01  0.30096077125E+02 -0.73886178481E+03  0.73949986572E+03  0.00000000000E+00 0.  1.
          3    1    3    3  501    0  0.34773843217E+01  0.64842445287E+01 -0.14619031048E+03  0.14637535485E+03  0.00000000000E+00 0.  1.
         -1    1    1    2    0  502 -0.96044130562E+01 -0.36580321653E+02 -0.11141426602E+03  0.11765841812E+03  0.00000000000E+00 0. -1.
<mgrwt>
<rscale>  1 0.30000000E+03</rscale>
<asrwt>0</asrwt>
<pdfrwt beam="1">  1       21 0.12849622E-01 0.30000000E+03</pdfrwt>
<pdfrwt beam="2">0</pdfrwt>
<totfact> 0.54715046E+03</totfact>
</mgrwt>
</event>
<event>
 6    1  0.1280499E-001  0.3000000E+03  0.7818608E-02  0.1093470E+00
         21   -1    0    0  501  502  0.00000000000E+00  0.00000000000E+00  0.15430015350E+01  0.15430015350E+01  0.00000000000E+00 0. -1.
         13   -1    0    0    0    0 -0.00000000000E+00 -0.00000000000E+00 -0.10000000000E+04  0.10000000000E+04  0.00000000000E+00 0.  1.
    9000005    2    1    2  501    0 -0.83807424242E+01 -0.36707906763E+02 -0.40328015962E+03  0.40517635529E+03  0.10737060870E+02 0.  0.
         13    1    3    3    0    0 -0.88098074492E+01 -0.29037669892E+02 -0.27564986691E+03  0.27731507011E+03  0.00000000000E+00 0.  1.
          3    1    3    3  501    0  0.42906502501E+00 -0.76702368702E+01 -0.12763029271E+03  0.12786128518E+03  0.00000000000E+00 0.  1.
         -1    1    1    2    0  502  0.83807424242E+01  0.36707906763E+02 -0.59517683884E+03  0.59636664625E+03  0.00000000000E+00 0. -1.
<mgrwt>
<rscale>  1 0.30000000E+03</rscale>
<asrwt>0</asrwt>
<pdfrwt beam="1">  1       21 0.56109265E-02 0.30000000E+03</pdfrwt>
<pdfrwt beam="2">0</pdfrwt>
<totfact> 0.23649767E+04</totfact>
</mgrwt>
</event>
<event>
 6    1  0.1280499E-001  0.3000000E+03  0.7818608E-02  0.1093470E+00
         21   -1    0    0  501  502  0.00000000000E+00  0.00000000000E+00  0.78199173127E+01  0.78199173127E+01  0.00000000000E+00 0. -1.
         13   -1    0    0    0    0 -0.00000000000E+00 -0.00000000000E+00 -0.10000000000E+04  0.10000000000E+04  0.00000000000E+00 0.  1.
    9000005    2    1    2  501    0  0.50909556337E+02  0.30354810740E+02 -0.86997948106E+03  0.87200318602E+03  0.34729668082E+01 0.  0.
         13    1    3    3    0    0  0.10845055231E+02  0.65111044635E+01 -0.20742552025E+03  0.20781086631E+03  0.00000000000E+00 0.  1.
          3    1    3    3  501    0  0.40064501107E+02  0.23843706276E+02 -0.66255396081E+03  0.66419231971E+03  0.00000000000E+00 0.  1.
         -3    1    1    2    0  502 -0.50909556337E+02 -0.30354810740E+02 -0.12220060163E+03  0.13581673130E+03  0.00000000000E+00 0. -1.
<mgrwt>
<rscale>  1 0.30000000E+03</rscale>
<asrwt>0</asrwt>
<pdfrwt beam="1">  1       21 0.28436123E-01 0.30000000E+03</pdfrwt>
<pdfrwt beam="2">0</pdfrwt>
<totfact> 0.12097191E+03</totfact>
</mgrwt>
</event>
<event>
 6    1  0.1280499E-001  0.3000000E+03  0.7818608E-02  0.1093470E+00
         21   -1    0    0  501  502  0.00000000000E+00  0.00000000000E+00  0.13895117317E+01  0.13895117317E+01  0.00000000000E+00 0. -1.
         13   -1    0    0    0    0 -0.00000000000E+00 -0.00000000000E+00 -0.10000000000E+04  0.10000000000E+04  0.00000000000E+00 0.  1.
    9000005    2    1    2  501    0  0.23854457290E+02  0.20213719394E+02 -0.77089709002E+03  0.77153951428E+03  0.36426800387E+01 0.  0.
         13    1    3    3    0    0  0.74968061857E+01  0.42659660024E+01 -0.20373440284E+03  0.20391691315E+03  0.00000000000E+00 0.  1.
          3    1    3    3  501    0  0.16357651104E+02  0.15947753391E+02 -0.56716268717E+03  0.56762260113E+03  0.00000000000E+00 0.  1.
         -3    1    1    2    0  502 -0.23854457290E+02 -0.20213719394E+02 -0.22771339825E+03  0.22984999745E+03  0.00000000000E+00 0. -1.
<mgrwt>
<rscale>  1 0.30000000E+03</rscale>
<asrwt>0</asrwt>
<pdfrwt beam="1">  1       21 0.50527806E-02 0.30000000E+03</pdfrwt>
<pdfrwt beam="2">0</pdfrwt>
<totfact> 0.28293479E+04</totfact>
</mgrwt>
</event>
<event>
 6    1  0.1280499E-001  0.3000000E+03  0.7818608E-02  0.1093470E+00
         21   -1    0    0  501  502  0.00000000000E+00  0.00000000000E+00  0.17845053067E+01  0.17845053067E+01  0.00000000000E+00 0. -1.
         13   -1    0    0    0    0 -0.00000000000E+00 -0.00000000000E+00 -0.10000000000E+04  0.10000000000E+04  0.00000000000E+00 0.  1.
    9000005    2    1    2  501    0 -0.19897720155E+02 -0.28433550885E+02 -0.78399082109E+03  0.78476700172E+03  0.36405149563E+01 0.  0.
         13    1    3    3    0    0 -0.46980323834E+01 -0.93527098860E+01 -0.21992258327E+03  0.22017149525E+03  0.00000000000E+00 0.  1.
          1    1    3    3  501    0 -0.15199687772E+02 -0.19080840999E+02 -0.56406823782E+03  0.56459550646E+03  0.00000000000E+00 0.  1.
         -1    1    1    2    0  502  0.19897720155E+02  0.28433550885E+02 -0.21422467360E+03  0.21701750359E+03  0.00000000000E+00 0. -1.
<mgrwt>
<rscale>  1 0.30000000E+03</rscale>
<asrwt>0</asrwt>
<pdfrwt beam="1">  1       21 0.64891239E-02 0.30000000E+03</pdfrwt>
<pdfrwt beam="2">0</pdfrwt>
<totfact> 0.18403325E+04</totfact>
</mgrwt>
</event>
<event>
 6    1  0.1280499E-001  0.3000000E+03  0.7818608E-02  0.1093470E+00
         21   -1    0    0  501  502  0.00000000000E+00  0.00000000000E+00  0.14119688588E+01  0.14119688588E+01  0.00000000000E+00 0. -1.
         13   -1    0    0    0    0 -0.00000000000E+00 -0.00000000000E+00 -0.10000000000E+04  0.10000000000E+04  0.00000000000E+00 0.  1.
    9000005    2    1    2  501    0  0.85903970197E+01 -0.35174236867E+02 -0.37243745726E+03  0.37421537844E+03  0.40580822043E+01 0.  0.
         13    1    3    3    0    0  0.71212993577E+01 -0.21948054196E+02 -0.22636737986E+03  0.22754037148E+03  0.00000000000E+00 0.  1.
          3    1    3    3  501    0  0.14690976620E+01 -0.13226182672E+02 -0.14607007739E+03  0.14667500696E+03  0.00000000000E+00 0.  1.
         -3    1    1    2    0  502 -0.85903970197E+01  0.35174236867E+02 -0.62615057389E+03  0.62719659042E+03  0.00000000000E+00 0. -1.
<mgrwt>
<rscale>  1 0.30000000E+03</rscale>
<asrwt>0</asrwt>
<pdfrwt beam="1">  1       21 0.51344430E-02 0.30000000E+03</pdfrwt>
<pdfrwt beam="2">0</pdfrwt>
<totfact> 0.27529935E+04</totfact>
</mgrwt>
</event>
<event>
 6    1  0.1280499E-001  0.3000000E+03  0.7818608E-02  0.1093470E+00
         21   -1    0    0  501  502  0.00000000000E+00  0.00000000000E+00  0.10379945781E+01  0.10379945781E+01  0.00000000000E+00 0. -1.
         13   -1    0    0    0    0 -0.00000000000E+00 -0.00000000000E+00 -0.10000000000E+04  0.10000000000E+04  0.00000000000E+00 0.  1.
    9000005    2    1    2  501    0  0.31569388210E+02  0.59886210919E+01 -0.51268285647E+03  0.51369837936E+03  0.31342918387E+01 0.  0.
         13    1    3    3    0    0  0.40489744181E+01  0.17580611597E+01 -0.77695284427E+02  0.77820576939E+02  0.00000000000E+00 0.  1.
          3    1    3    3  501    0  0.27520413792E+02  0.42305599322E+01 -0.43498757204E+03  0.43587780242E+03  0.00000000000E+00 0.  1.
         -1    1    1    2    0  502 -0.31569388210E+02 -0.59886210919E+01 -0.48627914895E+03  0.48733961522E+03  0.00000000000E+00 0. -1.
<mgrwt>
<rscale>  1 0.30000000E+03</rscale>
<asrwt>0</asrwt>
<pdfrwt beam="1">  1       21 0.37745337E-02 0.30000000E+03</pdfrwt>
<pdfrwt beam="2">0</pdfrwt>
<totfact> 0.46356786E+04</totfact>
</mgrwt>
</event>
<event>
 6    1  0.1280499E-001  0.3000000E+03  0.7818608E-02  0.1093470E+00
         21   -1    0    0  501  502  0.00000000000E+00  0.00000000000E+00  0.32954759297E+01  0.32954759297E+01  0.00000000000E+00 0. -1.
         13   -1    0    0    0    0 -0.00000000000E+00 -0.00000000000E+00 -0.10000000000E+04  0.10000000000E+04  0.00000000000E+00 0.  1.
    9000005    2    1    2  501    0  0.45047844822E+02 -0.24306481479E+02 -0.27256410554E+03  0.27734819195E+03  0.32733141333E+01 0.  0.
         13    1    3    3    0    0  0.90472166767E+01 -0.46275579149E+01 -0.61396605856E+02  0.62231902048E+02  0.00000000000E+00 0.  1.
          3    1    3    3  501    0  0.36000628145E+02 -0.19678923564E+02 -0.21116749968E+03  0.21511628990E+03  0.00000000000E+00 0.  1.
         -3    1    1    2    0  502 -0.45047844822E+02  0.24306481479E+02 -0.72414041853E+03  0.72594728398E+03  0.00000000000E+00 0. -1.
<mgrwt>
<rscale>  1 0.30000000E+03</rscale>
<asrwt>0</asrwt>
<pdfrwt beam="1">  1       21 0.11983574E-01 0.30000000E+03</pdfrwt>
<pdfrwt beam="2">0</pdfrwt>
<totfact> 0.62125439E+03</totfact>
</mgrwt>
</event>
<event>
 6    1  0.1280499E-001  0.3000000E+03  0.7818608E-02  0.1093470E+00
         21   -1    0    0  501  502  0.00000000000E+00  0.00000000000E+00  0.21339825940E+01  0.21339825940E+01  0.00000000000E+00 0. -1.
         13   -1    0    0    0    0 -0.00000000000E+00 -0.00000000000E+00 -0.10000000000E+04  0.10000000000E+04  0.00000000000E+00 0.  1.
    9000005    2    1    2  501    0  0.40814063820E+01  0.33500489069E+02 -0.84032964814E+03  0.84102331167E+03  0.52299688153E+01 0.  0.
         13    1    3    3    0    0  0.47390611240E+01  0.31403586011E+02 -0.75936907694E+03  0.76003291964E+03  0.00000000000E+00 0.  1.
          3    1    3    3  501    0 -0.65765474207E+00  0.20969030584E+01 -0.80960571201E+02  0.80990392031E+02  0.00000000000E+00 0.  1.
         -1    1    1    2    0  502 -0.40814063820E+01 -0.33500489069E+02 -0.15753636926E+03  0.16111067093E+03  0.00000000000E+00 0. -1.
<mgrwt>
<rscale>  1 0.30000000E+03</rscale>
<asrwt>0</asrwt>
<pdfrwt beam="1">  1       21 0.77599531E-02 0.30000000E+03</pdfrwt>
<pdfrwt beam="2">0</pdfrwt>
<totfact> 0.13475433E+04</totfact>
</mgrwt>
</event>
<event>
 6    1  0.1280499E-001  0.3000000E+03  0.7818608E-02  0.1093470E+00
         21   -1    0    0  501  502  0.00000000000E+00  0.00000000000E+00  0.59671561117E+01  0.59671561117E+01  0.00000000000E+00 0. -1.
         13   -1    0    0    0    0 -0.00000000000E+00 -0.00000000000E+00 -0.10000000000E+04  0.10000000000E+04  0.00000000000E+00 0.  1.
    9000005    2    1    2  501    0  0.30989180305E+02  0.11971798990E+02 -0.95108392525E+03  0.95166924750E+03  0.31734065162E+01 0.  0.
         13    1    3    3    0    0  0.23252507377E+02  0.85242565456E+01 -0.66924836738E+03  0.66970644263E+03  0.00000000000E+00 0.  1.
          3    1    3    3  501    0  0.77366729276E+01  0.34475424444E+01 -0.28183555786E+03  0.28196280488E+03  0.00000000000E+00 0.  1.
         -3    1    1    2    0  502 -0.30989180305E+02 -0.11971798990E+02 -0.42948918641E+02  0.54297908610E+02  0.00000000000E+00 0. -1.
<mgrwt>
<rscale>  1 0.30000000E+03</rscale>
<asrwt>0</asrwt>
<pdfrwt beam="1">  1       21 0.21698795E-01 0.30000000E+03</pdfrwt>
<pdfrwt beam="2">0</pdfrwt>
<totfact> 0.20523137E+03</totfact>
</mgrwt>
</event>
<event>
 6    1  0.1280499E-001  0.3000000E+03  0.7818608E-02  0.1093470E+00
         21   -1    0    0  501  502  0.00000000000E+00  0.00000000000E+00  0.13070794319E+01  0.13070794319E+01  0.00000000000E+00 0. -1.
         13   -1    0    0    0    0 -0.00000000000E+00 -0.00000000000E+00 -0.10000000000E+04  0.10000000000E+04  0.00000000000E+00 0.  1.
    9000005    2    1    2  501    0 -0.12504357629E+02 -0.27451958186E+02 -0.77445965167E+03  0.77505384112E+03  0.32765217693E+01 0.  0.
         13    1    3    3    0    0 -0.84469804910E+01 -0.21829480079E+02 -0.59306015966E+03  0.59352188726E+03  0.00000000000E+00 0.  1.
          1    1    3    3  501    0 -0.40573771377E+01 -0.56224781070E+01 -0.18139949202E+03  0.18153195386E+03  0.00000000000E+00 0.  1.
         -1    1    1    2    0  502  0.12504357629E+02  0.27451958186E+02 -0.22423326889E+03  0.22625323831E+03  0.00000000000E+00 0. -1.
<mgrwt>
<rscale>  1 0.30000000E+03</rscale>
<asrwt>0</asrwt>
<pdfrwt beam="1">  1       21 0.47530261E-02 0.30000000E+03</pdfrwt>
<pdfrwt beam="2">0</pdfrwt>
<totfact> 0.31399517E+04</totfact>
</mgrwt>
</event>
<event>
 6    1  0.1280499E-001  0.3000000E+03  0.7818608E-02  0.1093470E+00
         21   -1    0    0  501  502  0.00000000000E+00  0.00000000000E+00  0.13434056733E+01  0.13434056733E+01  0.00000000000E+00 0. -1.
         13   -1    0    0    0    0 -0.00000000000E+00 -0.00000000000E+00 -0.10000000000E+04  0.10000000000E+04  0.00000000000E+00 0.  1.
    9000005    2    1    2  501    0 -0.15126715968E+02 -0.25989493257E+02 -0.78447442229E+03  0.78506054895E+03  0.39591651266E+01 0.  0.
         13    1    3    3    0    0 -0.43997494797E+01 -0.57599425598E+01 -0.22815865126E+03  0.22827374987E+03  0.00000000000E+00 0.  1.
          3    1    3    3  501    0 -0.10726966488E+02 -0.20229550698E+02 -0.55631577103E+03  0.55678679908E+03  0.00000000000E+00 0.  1.
         -1    1    1    2    0  502  0.15126715968E+02  0.25989493257E+02 -0.21418217203E+03  0.21628285672E+03  0.00000000000E+00 0. -1.
<mgrwt>
<rscale>  1 0.30000000E+03</rscale>
<asrwt>0</asrwt>
<pdfrwt beam="1">  1       21 0.48851218E-02 0.30000000E+03</pdfrwt>
<pdfrwt beam="2">0</pdfrwt>
<totfact> 0.29968271E+04</totfact>
</mgrwt>
</event>
<event>
 6    1  0.1280499E-001  0.3000000E+03  0.7818608E-02  0.1093470E+00
         21   -1    0    0  501  502  0.00000000000E+00  0.00000000000E+00  0.11881038904E+01  0.11881038904E+01  0.00000000000E+00 0. -1.
         13   -1    0    0    0    0 -0.00000000000E+00 -0.00000000000E+00 -0.10000000000E+04  0.10000000000E+04  0.00000000000E+00 0.  1.
    9000005    2    1    2  501    0 -0.30998120065E+02 -0.91496472324E+01 -0.67039419080E+03  0.67118387868E+03  0.38507735980E+01 0.  0.
         13    1    3    3    0    0 -0.32312776792E+01 -0.25317394153E+00 -0.50041997444E+02  0.50146851952E+02  0.00000000000E+00 0.  1.
          3    1    3    3  501    0 -0.27766842385E+02 -0.88964732909E+01 -0.62035219335E+03  0.62103702673E+03  0.00000000000E+00 0.  1.
         -1    1    1    2    0  502  0.30998120065E+02  0.91496472324E+01 -0.32841770531E+03  0.33000422521E+03  0.00000000000E+00 0. -1.
<mgrwt>
<rscale>  1 0.30000000E+03</rscale>
<asrwt>0</asrwt>
<pdfrwt beam="1">  1       21 0.43203869E-02 0.30000000E+03</pdfrwt>
<pdfrwt beam="2">0</pdfrwt>
<totfact> 0.36920175E+04</totfact>
</mgrwt>
</event>
<event>
 6    1  0.1280499E-001  0.3000000E+03  0.7818608E-02  0.1093470E+00
         21   -1    0    0  501  502  0.00000000000E+00  0.00000000000E+00  0.27703743976E+01  0.27703743976E+01  0.00000000000E+00 0. -1.
         13   -1    0    0    0    0 -0.00000000000E+00 -0.00000000000E+00 -0.10000000000E+04  0.10000000000E+04  0.00000000000E+00 0.  1.
    9000005    2    1    2  501    0  0.48734353304E+02  0.11510282949E+02 -0.64967707562E+03  0.65162895160E+03  0.56977338159E+01 0.  0.
         13    1    3    3    0    0  0.45804168913E+02  0.10362834526E+02 -0.62285835286E+03  0.62462623860E+03  0.00000000000E+00 0.  1.
          3    1    3    3  501    0  0.29301843912E+01  0.11474484224E+01 -0.26818722764E+02  0.27002712996E+02  0.00000000000E+00 0.  1.
         -3    1    1    2    0  502 -0.48734353304E+02 -0.11510282949E+02 -0.34755254998E+03  0.35114142280E+03  0.00000000000E+00 0. -1.
<mgrwt>
<rscale>  1 0.30000000E+03</rscale>
<asrwt>0</asrwt>
<pdfrwt beam="1">  1       21 0.10074110E-01 0.30000000E+03</pdfrwt>
<pdfrwt beam="2">0</pdfrwt>
<totfact> 0.84904128E+03</totfact>
</mgrwt>
</event>
<event>
 6    1  0.1280499E-001  0.3000000E+03  0.7818608E-02  0.1093470E+00
         21   -1    0    0  501  502  0.00000000000E+00  0.00000000000E+00  0.13038221269E+01  0.13038221269E+01  0.00000000000E+00 0. -1.
         13   -1    0    0    0    0 -0.00000000000E+00 -0.00000000000E+00 -0.10000000000E+04  0.10000000000E+04  0.00000000000E+00 0.  1.
    9000005    2    1    2  501    0  0.32734739434E+02  0.11979472315E+02 -0.62847145787E+03  0.62944173180E+03  0.23344053611E+01 0.  0.
         13    1    3    3    0    0  0.83941508836E+01  0.20957078908E+01 -0.16334004414E+03  0.16356901840E+03  0.00000000000E+00 0.  1.
          3    1    3    3  501    0  0.24340588550E+02  0.98837644242E+01 -0.46513141373E+03  0.46587271340E+03  0.00000000000E+00 0.  1.
         -1    1    1    2    0  502 -0.32734739434E+02 -0.11979472315E+02 -0.37022472000E+03  0.37186209033E+03  0.00000000000E+00 0. -1.
<mgrwt>
<rscale>  1 0.30000000E+03</rscale>
<asrwt>0</asrwt>
<pdfrwt beam="1">  1       21 0.47411814E-02 0.30000000E+03</pdfrwt>
<pdfrwt beam="2">0</pdfrwt>
<totfact> 0.31533057E+04</totfact>
</mgrwt>
</event>
<event>
 6    1  0.1280499E-001  0.3000000E+03  0.7818608E-02  0.1093470E+00
         21   -1    0    0  501  502  0.00000000000E+00  0.00000000000E+00  0.25541778454E+01  0.25541778454E+01  0.00000000000E+00 0. -1.
         13   -1    0    0    0    0 -0.00000000000E+00 -0.00000000000E+00 -0.10000000000E+04  0.10000000000E+04  0.00000000000E+00 0.  1.
    9000005    2    1    2  501    0  0.46162176962E+02  0.13027260666E+02 -0.34278618872E+03  0.34613975711E+03  0.31151519585E+01 0.  0.
         13    1    3    3    0    0  0.13648731923E+02  0.24945492630E+01 -0.95174240452E+02  0.96180282308E+02  0.00000000000E+00 0.  1.
          1    1    3    3  501    0  0.32513445039E+02  0.10532711403E+02 -0.24761194827E+03  0.24995947480E+03  0.00000000000E+00 0.  1.
         -3    1    1    2    0  502 -0.46162176962E+02 -0.13027260666E+02 -0.65465963343E+03  0.65641442074E+03  0.00000000000E+00 0. -1.
<mgrwt>
<rscale>  1 0.30000000E+03</rscale>
<asrwt>0</asrwt>
<pdfrwt beam="1">  1       21 0.92879390E-02 0.30000000E+03</pdfrwt>
<pdfrwt beam="2">0</pdfrwt>
<totfact> 0.98140991E+03</totfact>
</mgrwt>
</event>
<event>
 6    1  0.1280499E-001  0.3000000E+03  0.7818608E-02  0.1093470E+00
         21   -1    0    0  501  502  0.00000000000E+00  0.00000000000E+00  0.23608896358E+01  0.23608896358E+01  0.00000000000E+00 0. -1.
         13   -1    0    0    0    0 -0.00000000000E+00 -0.00000000000E+00 -0.10000000000E+04  0.10000000000E+04  0.00000000000E+00 0.  1.
    9000005    2    1    2  501    0 -0.17496622695E+02  0.30770234778E+02 -0.84183317684E+03  0.84258470845E+03  0.35991840180E+01 0.  0.
         13    1    3    3    0    0 -0.16600870681E+02  0.30140390999E+02 -0.82378812388E+03  0.82450646154E+03  0.00000000000E+00 0.  1.
          3    1    3    3  501    0 -0.89575201473E+00  0.62984377869E+00 -0.18045052967E+02  0.18078246913E+02  0.00000000000E+00 0.  1.
         -3    1    1    2    0  502  0.17496622695E+02 -0.30770234778E+02 -0.15580593352E+03  0.15977618119E+03  0.00000000000E+00 0. -1.
<mgrwt>
<rscale>  1 0.30000000E+03</rscale>
<asrwt>0</asrwt>
<pdfrwt beam="1">  1       21 0.85850713E-02 0.30000000E+03</pdfrwt>
<pdfrwt beam="2">0</pdfrwt>
<totfact> 0.11281328E+04</totfact>
</mgrwt>
</event>
<event>
 6    1  0.1280499E-001  0.3000000E+03  0.7818608E-02  0.1093470E+00
         21   -1    0    0  501  502  0.00000000000E+00  0.00000000000E+00  0.27490043114E+01  0.27490043114E+01  0.00000000000E+00 0. -1.
         13   -1    0    0    0    0 -0.00000000000E+00 -0.00000000000E+00 -0.10000000000E+04  0.10000000000E+04  0.00000000000E+00 0.  1.
    9000005    2    1    2  501    0 -0.29075679178E+02 -0.14697903039E+02 -0.89134692321E+03  0.89194694638E+03  0.29315822527E+01 0.  0.
         13    1    3    3    0    0 -0.19668260646E+02 -0.11191029816E+02 -0.59608911991E+03  0.59651849804E+03  0.00000000000E+00 0.  1.
          3    1    3    3  501    0 -0.94074185324E+01 -0.35068732230E+01 -0.29525780329E+03  0.29542844834E+03  0.00000000000E+00 0.  1.
         -3    1    1    2    0  502  0.29075679178E+02  0.14697903039E+02 -0.10590407248E+03  0.11080205793E+03  0.00000000000E+00 0. -1.
<mgrwt>
<rscale>  1 0.30000000E+03</rscale>
<asrwt>0</asrwt>
<pdfrwt beam="1">  1       21 0.99964004E-02 0.30000000E+03</pdfrwt>
<pdfrwt beam="2">0</pdfrwt>
<totfact> 0.86087339E+03</totfact>
</mgrwt>
</event>
<event>
 6    1  0.1280499E-001  0.3000000E+03  0.7818608E-02  0.1093470E+00
         21   -1    0    0  501  502  0.00000000000E+00  0.00000000000E+00  0.19404442177E+01  0.19404442177E+01  0.00000000000E+00 0. -1.
         13   -1    0    0    0    0 -0.00000000000E+00 -0.00000000000E+00 -0.10000000000E+04  0.10000000000E+04  0.00000000000E+00 0.  1.
    9000005    2    1    2  501    0 -0.30604599796E+02 -0.25538305965E+02 -0.28684894451E+03  0.28961370726E+03  0.22216807736E+01 0.  0.
         13    1    3    3    0    0 -0.12105699370E+02 -0.94304721178E+01 -0.11736470861E+03  0.11836366245E+03  0.00000000000E+00 0.  1.
          3    1    3    3  501    0 -0.18498900426E+02 -0.16107833847E+02 -0.16948423590E+03  0.17125004481E+03  0.00000000000E+00 0.  1.
         -3    1    1    2    0  502  0.30604599796E+02  0.25538305965E+02 -0.71121061127E+03  0.71232673696E+03  0.00000000000E+00 0. -1.
<mgrwt>
<rscale>  1 0.30000000E+03</rscale>
<asrwt>0</asrwt>
<pdfrwt beam="1">  1       21 0.70561757E-02 0.30000000E+03</pdfrwt>
<pdfrwt beam="2">0</pdfrwt>
<totfact> 0.15912317E+04</totfact>
</mgrwt>
</event>
<event>
 6    1  0.1280499E-001  0.3000000E+03  0.7818608E-02  0.1093470E+00
         21   -1    0    0  501  502  0.00000000000E+00  0.00000000000E+00  0.10586214437E+01  0.10586214437E+01  0.00000000000E+00 0. -1.
         13   -1    0    0    0    0 -0.00000000000E+00 -0.00000000000E+00 -0.10000000000E+04  0.10000000000E+04  0.00000000000E+00 0.  1.
    9000005    2    1    2  501    0 -0.30751371476E+02  0.37754750065E+01 -0.64765698605E+03  0.64841060220E+03  0.41032188144E+01 0.  0.
         13    1    3    3    0    0 -0.18411582258E+02  0.83919254164E+00 -0.41299767802E+03  0.41340872349E+03  0.00000000000E+00 0.  1.
          1    1    3    3  501    0 -0.12339789219E+02  0.29362824649E+01 -0.23465930803E+03  0.23500187871E+03  0.00000000000E+00 0.  1.
         -3    1    1    2    0  502  0.30751371476E+02 -0.37754750065E+01 -0.35128439251E+03  0.35264801925E+03  0.00000000000E+00 0. -1.
<mgrwt>
<rscale>  1 0.30000000E+03</rscale>
<asrwt>0</asrwt>
<pdfrwt beam="1">  1       21 0.38495406E-02 0.30000000E+03</pdfrwt>
<pdfrwt beam="2">0</pdfrwt>
<totfact> 0.44849093E+04</totfact>
</mgrwt>
</event>
<event>
 6    1  0.1280499E-001  0.3000000E+03  0.7818608E-02  0.1093470E+00
         21   -1    0    0  501  502  0.00000000000E+00  0.00000000000E+00  0.53907750005E+01  0.53907750005E+01  0.00000000000E+00 0. -1.
         13   -1    0    0    0    0 -0.00000000000E+00 -0.00000000000E+00 -0.10000000000E+04  0.10000000000E+04  0.00000000000E+00 0.  1.
    9000005    2    1    2  501    0  0.52240475067E+02  0.39972575761E+01 -0.84920363607E+03  0.85083389034E+03  0.51427751778E+01 0.  0.
         13    1    3    3    0    0  0.65601554879E+01  0.97472480170E+00 -0.13696074728E+03  0.13712123112E+03  0.00000000000E+00 0.  1.
          1    1    3    3  501    0  0.45680319579E+02  0.30225327744E+01 -0.71224288879E+03  0.71371265922E+03  0.00000000000E+00 0.  1.
         -1    1    1    2    0  502 -0.52240475067E+02 -0.39972575761E+01 -0.14540558893E+03  0.15455688466E+03  0.00000000000E+00 0. -1.
<mgrwt>
<rscale>  1 0.30000000E+03</rscale>
<asrwt>0</asrwt>
<pdfrwt beam="1">  1       21 0.19602860E-01 0.30000000E+03</pdfrwt>
<pdfrwt beam="2">0</pdfrwt>
<totfact> 0.24927245E+03</totfact>
</mgrwt>
</event>
<event>
 6    1  0.1280499E-001  0.3000000E+03  0.7818608E-02  0.1093470E+00
         21   -1    0    0  501  502  0.00000000000E+00  0.00000000000E+00  0.13210201460E+01  0.13210201460E+01  0.00000000000E+00 0. -1.
         13   -1    0    0    0    0 -0.00000000000E+00 -0.00000000000E+00 -0.10000000000E+04  0.10000000000E+04  0.00000000000E+00 0.  1.
    9000005    2    1    2  501    0  0.89025640754E+01 -0.33717799781E+02 -0.63790932938E+03  0.63886980085E+03  0.31881426085E+01 0.  0.
         13    1    3    3    0    0  0.10166547415E+01 -0.46193612478E+01 -0.10805112225E+03  0.10815459816E+03  0.00000000000E+00 0.  1.
          3    1    3    3  501    0  0.78859093339E+01 -0.29098438534E+02 -0.52985820714E+03  0.53071520269E+03  0.00000000000E+00 0.  1.
         -1    1    1    2    0  502 -0.89025640754E+01  0.33717799781E+02 -0.36076965047E+03  0.36245121930E+03  0.00000000000E+00 0. -1.
<mgrwt>
<rscale>  1 0.30000000E+03</rscale>
<asrwt>0</asrwt>
<pdfrwt beam="1">  1       21 0.48037198E-02 0.30000000E+03</pdfrwt>
<pdfrwt beam="2">0</pdfrwt>
<totfact> 0.30837866E+04</totfact>
</mgrwt>
</event>
<event>
 6    1  0.1280499E-001  0.3000000E+03  0.7818608E-02  0.1093470E+00
         21   -1    0    0  501  502  0.00000000000E+00  0.00000000000E+00  0.18944515595E+01  0.18944515595E+01  0.00000000000E+00 0. -1.
         13   -1    0    0    0    0 -0.00000000000E+00 -0.00000000000E+00 -0.10000000000E+04  0.10000000000E+04  0.00000000000E+00 0.  1.
    9000005    2    1    2  501    0 -0.15174809140E+02 -0.29712847451E+02 -0.82022326297E+03  0.82091037596E+03  0.38100009419E+01 0.  0.
         13    1    3    3    0    0 -0.72851668495E+01 -0.18314048801E+02 -0.47284720746E+03  0.47325781519E+03  0.00000000000E+00 0.  1.
          1    1    3    3  501    0 -0.78896422907E+01 -0.11398798650E+02 -0.34737605551E+03  0.34765256076E+03  0.00000000000E+00 0.  1.
         -3    1    1    2    0  502  0.15174809140E+02  0.29712847451E+02 -0.17788228548E+03  0.18098407560E+03  0.00000000000E+00 0. -1.
<mgrwt>
<rscale>  1 0.30000000E+03</rscale>
<asrwt>0</asrwt>
<pdfrwt beam="1">  1       21 0.68889293E-02 0.30000000E+03</pdfrwt>
<pdfrwt beam="2">0</pdfrwt>
<totfact> 0.16590441E+04</totfact>
</mgrwt>
</event>
<event>
 6    1  0.1280499E-001  0.3000000E+03  0.7818608E-02  0.1093470E+00
         21   -1    0    0  501  502  0.00000000000E+00  0.00000000000E+00  0.11511023002E+01  0.11511023002E+01  0.00000000000E+00 0. -1.
         13   -1    0    0    0    0 -0.00000000000E+00 -0.00000000000E+00 -0.10000000000E+04  0.10000000000E+04  0.00000000000E+00 0.  1.
    9000005    2    1    2  501    0  0.12808414259E+02 -0.30609134623E+02 -0.59099996383E+03  0.59195466115E+03  0.53281330619E+01 0.  0.
         13    1    3    3    0    0  0.72816535046E+01 -0.10996186669E+02 -0.24658771455E+03  0.24694015382E+03  0.00000000000E+00 0.  1.
          3    1    3    3  501    0  0.55267607543E+01 -0.19612947955E+02 -0.34441224928E+03  0.34501450733E+03  0.00000000000E+00 0.  1.
         -3    1    1    2    0  502 -0.12808414259E+02  0.30609134623E+02 -0.40784893387E+03  0.40919644116E+03  0.00000000000E+00 0. -1.
<mgrwt>
<rscale>  1 0.30000000E+03</rscale>
<asrwt>0</asrwt>
<pdfrwt beam="1">  1       21 0.41858354E-02 0.30000000E+03</pdfrwt>
<pdfrwt beam="2">0</pdfrwt>
<totfact> 0.38947986E+04</totfact>
</mgrwt>
</event>
<event>
 6    1  0.1280499E-001  0.3000000E+03  0.7818608E-02  0.1093470E+00
         21   -1    0    0  501  502  0.00000000000E+00  0.00000000000E+00  0.18364319046E+01  0.18364319046E+01  0.00000000000E+00 0. -1.
         13   -1    0    0    0    0 -0.00000000000E+00 -0.00000000000E+00 -0.10000000000E+04  0.10000000000E+04  0.00000000000E+00 0.  1.
    9000005    2    1    2  501    0  0.21371987034E+02 -0.35544738979E+02 -0.62257226527E+03  0.62396209161E+03  0.35037091121E+01 0.  0.
         13    1    3    3    0    0  0.18529674000E+02 -0.31310538087E+02 -0.52755717436E+03  0.52881024086E+03  0.00000000000E+00 0.  1.
          3    1    3    3  501    0  0.28423130336E+01 -0.42342008918E+01 -0.95015090911E+02  0.95151850752E+02  0.00000000000E+00 0.  1.
         -3    1    1    2    0  502 -0.21371987034E+02  0.35544738979E+02 -0.37559130282E+03  0.37787434030E+03  0.00000000000E+00 0. -1.
<mgrwt>
<rscale>  1 0.30000000E+03</rscale>
<asrwt>0</asrwt>
<pdfrwt beam="1">  1       21 0.66779483E-02 0.30000000E+03</pdfrwt>
<pdfrwt beam="2">0</pdfrwt>
<totfact> 0.17511027E+04</totfact>
</mgrwt>
</event>
<event>
 6    1  0.1280499E-001  0.3000000E+03  0.7818608E-02  0.1093470E+00
         21   -1    0    0  501  502  0.00000000000E+00  0.00000000000E+00  0.50709330223E+01  0.50709330223E+01  0.00000000000E+00 0. -1.
         13   -1    0    0    0    0 -0.00000000000E+00 -0.00000000000E+00 -0.10000000000E+04  0.10000000000E+04  0.00000000000E+00 0.  1.
    9000005    2    1    2  501    0  0.87416318391E+01  0.39947616195E+02 -0.90881887633E+03  0.90974416291E+03  0.32347808229E+01 0.  0.
         13    1    3    3    0    0  0.14459715000E+01  0.13751315771E+02 -0.30784554710E+03  0.30815591896E+03  0.00000000000E+00 0.  1.
          1    1    3    3  501    0  0.72956603390E+01  0.26196300424E+02 -0.60097332922E+03  0.60158824395E+03  0.00000000000E+00 0.  1.
         -1    1    1    2    0  502 -0.87416318391E+01 -0.39947616195E+02 -0.86110190650E+02  0.95326770116E+02  0.00000000000E+00 0. -1.
<mgrwt>
<rscale>  1 0.30000000E+03</rscale>
<asrwt>0</asrwt>
<pdfrwt beam="1">  1       21 0.18439795E-01 0.30000000E+03</pdfrwt>
<pdfrwt beam="2">0</pdfrwt>
<totfact> 0.27991750E+03</totfact>
</mgrwt>
</event>
<event>
 6    1  0.1280499E-001  0.3000000E+03  0.7818608E-02  0.1093470E+00
         21   -1    0    0  501  502  0.00000000000E+00  0.00000000000E+00  0.61633765808E+01  0.61633765808E+01  0.00000000000E+00 0. -1.
         13   -1    0    0    0    0 -0.00000000000E+00 -0.00000000000E+00 -0.10000000000E+04  0.10000000000E+04  0.00000000000E+00 0.  1.
    9000005    2    1    2  501    0  0.29420245578E+02 -0.72578158465E+02 -0.49926069241E+03  0.50542542968E+03  0.77772772908E+01 0.  0.
         13    1    3    3    0    0  0.19280622583E+02 -0.47661234016E+02 -0.35073174246E+03  0.35448002878E+03  0.00000000000E+00 0.  1.
          1    1    3    3  501    0  0.10139622996E+02 -0.24916924449E+02 -0.14852894995E+03  0.15094540090E+03  0.00000000000E+00 0.  1.
         -3    1    1    2    0  502 -0.29420245578E+02  0.72578158465E+02 -0.49457593101E+03  0.50073794691E+03  0.00000000000E+00 0. -1.
<mgrwt>
<rscale>  1 0.30000000E+03</rscale>
<asrwt>0</asrwt>
<pdfrwt beam="1">  1       21 0.22412326E-01 0.30000000E+03</pdfrwt>
<pdfrwt beam="2">0</pdfrwt>
<totfact> 0.19283351E+03</totfact>
</mgrwt>
</event>
<event>
 6    1  0.1280499E-001  0.3000000E+03  0.7818608E-02  0.1093470E+00
         21   -1    0    0  501  502  0.00000000000E+00  0.00000000000E+00  0.55358243500E+01  0.55358243500E+01  0.00000000000E+00 0. -1.
         13   -1    0    0    0    0 -0.00000000000E+00 -0.00000000000E+00 -0.10000000000E+04  0.10000000000E+04  0.00000000000E+00 0.  1.
    9000005    2    1    2  501    0 -0.40667121331E+01 -0.74147048968E+02 -0.47020840244E+03  0.47604697766E+03  0.32342235460E+01 0.  0.
         13    1    3    3    0    0 -0.21269871149E+01 -0.20318334145E+02 -0.12279791118E+03  0.12448568499E+03  0.00000000000E+00 0.  1.
          3    1    3    3  501    0 -0.19397250182E+01 -0.53828714824E+02 -0.34741049126E+03  0.35156129268E+03  0.00000000000E+00 0.  1.
         -3    1    1    2    0  502  0.40667121331E+01  0.74147048968E+02 -0.52425577321E+03  0.52948884669E+03  0.00000000000E+00 0. -1.
<mgrwt>
<rscale>  1 0.30000000E+03</rscale>
<asrwt>0</asrwt>
<pdfrwt beam="1">  1       21 0.20130313E-01 0.30000000E+03</pdfrwt>
<pdfrwt beam="2">0</pdfrwt>
<totfact> 0.23696488E+03</totfact>
</mgrwt>
</event>
<event>
 6    1  0.1280499E-001  0.3000000E+03  0.7818608E-02  0.1093470E+00
         21   -1    0    0  501  502  0.00000000000E+00  0.00000000000E+00  0.11601661591E+01  0.11601661591E+01  0.00000000000E+00 0. -1.
         13   -1    0    0    0    0 -0.00000000000E+00 -0.00000000000E+00 -0.10000000000E+04  0.10000000000E+04  0.00000000000E+00 0.  1.
    9000005    2    1    2  501    0  0.77914248425E+01  0.32743402141E+02 -0.42890665184E+03  0.43023401626E+03  0.27488317497E+01 0.  0.
         13    1    3    3    0    0  0.19059214958E+01  0.13831974600E+02 -0.17893027582E+03  0.17947423120E+03  0.00000000000E+00 0.  1.
          3    1    3    3  501    0  0.58855033467E+01  0.18911427540E+02 -0.24997637602E+03  0.25075978507E+03  0.00000000000E+00 0.  1.
         -3    1    1    2    0  502 -0.77914248425E+01 -0.32743402141E+02 -0.56993318200E+03  0.57092614989E+03  0.00000000000E+00 0. -1.
<mgrwt>
<rscale>  1 0.30000000E+03</rscale>
<asrwt>0</asrwt>
<pdfrwt beam="1">  1       21 0.42187949E-02 0.30000000E+03</pdfrwt>
<pdfrwt beam="2">0</pdfrwt>
<totfact> 0.38435528E+04</totfact>
</mgrwt>
</event>
<event>
 6    1  0.1280499E-001  0.3000000E+03  0.7818608E-02  0.1093470E+00
         21   -1    0    0  501  502  0.00000000000E+00  0.00000000000E+00  0.26197140121E+01  0.26197140121E+01  0.00000000000E+00 0. -1.
         13   -1    0    0    0    0 -0.00000000000E+00 -0.00000000000E+00 -0.10000000000E+04  0.10000000000E+04  0.00000000000E+00 0.  1.
    9000005    2    1    2  501    0  0.40321197039E+02 -0.25627707202E+02 -0.32177426399E+03  0.32532651660E+03  0.40108760557E+01 0.  0.
         13    1    3    3    0    0  0.16365474818E+02 -0.95127405715E+01 -0.13992367352E+03  0.14119828402E+03  0.00000000000E+00 0.  1.
          1    1    3    3  501    0  0.23955722220E+02 -0.16114966630E+02 -0.18185059047E+03  0.18412823257E+03  0.00000000000E+00 0.  1.
         -1    1    1    2    0  502 -0.40321197039E+02  0.25627707202E+02 -0.67560602200E+03  0.67729319741E+03  0.00000000000E+00 0. -1.
<mgrwt>
<rscale>  1 0.30000000E+03</rscale>
<asrwt>0</asrwt>
<pdfrwt beam="1">  1       21 0.95262529E-02 0.30000000E+03</pdfrwt>
<pdfrwt beam="2">0</pdfrwt>
<totfact> 0.93814845E+03</totfact>
</mgrwt>
</event>
<event>
 6    1  0.1280499E-001  0.3000000E+03  0.7818608E-02  0.1093470E+00
         21   -1    0    0  501  502  0.00000000000E+00  0.00000000000E+00  0.12736396840E+01  0.12736396840E+01  0.00000000000E+00 0. -1.
         13   -1    0    0    0    0 -0.00000000000E+00 -0.00000000000E+00 -0.10000000000E+04  0.10000000000E+04  0.00000000000E+00 0.  1.
    9000005    2    1    2  501    0  0.27176436736E+02 -0.17750027026E+02 -0.70609595980E+03  0.70684848200E+03  0.31064259031E+01 0.  0.
         13    1    3    3    0    0  0.23898704243E+02 -0.15433576984E+02 -0.59437020349E+03  0.59505065512E+03  0.00000000000E+00 0.  1.
          3    1    3    3  501    0  0.32777324933E+01 -0.23164500422E+01 -0.11172575631E+03  0.11179782688E+03  0.00000000000E+00 0.  1.
         -3    1    1    2    0  502 -0.27176436736E+02  0.17750027026E+02 -0.29263040052E+03  0.29442515769E+03  0.00000000000E+00 0. -1.
<mgrwt>
<rscale>  1 0.30000000E+03</rscale>
<asrwt>0</asrwt>
<pdfrwt beam="1">  1       21 0.46314268E-02 0.30000000E+03</pdfrwt>
<pdfrwt beam="2">0</pdfrwt>
<totfact> 0.32813955E+04</totfact>
</mgrwt>
</event>
<event>
 6    1  0.1280499E-001  0.3000000E+03  0.7818608E-02  0.1093470E+00
         21   -1    0    0  501  502  0.00000000000E+00  0.00000000000E+00  0.22850700536E+01  0.22850700536E+01  0.00000000000E+00 0. -1.
         13   -1    0    0    0    0 -0.00000000000E+00 -0.00000000000E+00 -0.10000000000E+04  0.10000000000E+04  0.00000000000E+00 0.  1.
    9000005    2    1    2  501    0  0.26610482199E+02 -0.21091030408E+02 -0.85130319489E+03  0.85198754683E+03  0.35638444945E+01 0.  0.
         13    1    3    3    0    0  0.93442769178E+01 -0.83834874882E+01 -0.35381250888E+03  0.35403515336E+03  0.00000000000E+00 0.  1.
          1    1    3    3  501    0  0.17266205281E+02 -0.12707542920E+02 -0.49749068602E+03  0.49795239347E+03  0.00000000000E+00 0.  1.
         -1    1    1    2    0  502 -0.26610482199E+02  0.21091030408E+02 -0.14641173505E+03  0.15029752323E+03  0.00000000000E+00 0. -1.
<mgrwt>
<rscale>  1 0.30000000E+03</rscale>
<asrwt>0</asrwt>
<pdfrwt beam="1">  1       21 0.83093632E-02 0.30000000E+03</pdfrwt>
<pdfrwt beam="2">0</pdfrwt>
<totfact> 0.11949423E+04</totfact>
</mgrwt>
</event>
<event>
 6    1  0.1280499E-001  0.3000000E+03  0.7818608E-02  0.1093470E+00
         21   -1    0    0  501  502  0.00000000000E+00  0.00000000000E+00  0.11883445757E+01  0.11883445757E+01  0.00000000000E+00 0. -1.
         13   -1    0    0    0    0 -0.00000000000E+00 -0.00000000000E+00 -0.10000000000E+04  0.10000000000E+04  0.00000000000E+00 0.  1.
    9000005    2    1    2  501    0 -0.23336861997E+01 -0.33015772838E+02 -0.63443258844E+03  0.63530914074E+03  0.41842177658E+01 0.  0.
         13    1    3    3    0    0  0.86490136299E+00 -0.48512495455E+01 -0.11158524482E+03  0.11169399956E+03  0.00000000000E+00 0.  1.
          1    1    3    3  501    0 -0.31985875627E+01 -0.28164523292E+02 -0.52284734362E+03  0.52361514118E+03  0.00000000000E+00 0.  1.
         -3    1    1    2    0  502  0.23336861997E+01  0.33015772838E+02 -0.36437906698E+03  0.36587920384E+03  0.00000000000E+00 0. -1.
<mgrwt>
<rscale>  1 0.30000000E+03</rscale>
<asrwt>0</asrwt>
<pdfrwt beam="1">  1       21 0.43212621E-02 0.30000000E+03</pdfrwt>
<pdfrwt beam="2">0</pdfrwt>
<totfact> 0.36907526E+04</totfact>
</mgrwt>
</event>
<event>
 6    1  0.1280499E-001  0.3000000E+03  0.7818608E-02  0.1093470E+00
         21   -1    0    0  501  502  0.00000000000E+00  0.00000000000E+00  0.20734053716E+01  0.20734053716E+01  0.00000000000E+00 0. -1.
         13   -1    0    0    0    0 -0.00000000000E+00 -0.00000000000E+00 -0.10000000000E+04  0.10000000000E+04  0.00000000000E+00 0.  1.
    9000005    2    1    2  501    0  0.26637519345E+01 -0.39271700162E+02 -0.75005046969E+03  0.75109146315E+03  0.36492359620E+01 0.  0.
         13    1    3    3    0    0  0.69370755687E+00 -0.62997862789E+01 -0.14789452806E+03  0.14803026706E+03  0.00000000000E+00 0.  1.
          1    1    3    3  501    0  0.19700443776E+01 -0.32971913883E+02 -0.60215594164E+03  0.60306119609E+03  0.00000000000E+00 0.  1.
         -1    1    1    2    0  502 -0.26637519345E+01  0.39271700162E+02 -0.24787612493E+03  0.25098194222E+03  0.00000000000E+00 0. -1.
<mgrwt>
<rscale>  1 0.30000000E+03</rscale>
<asrwt>0</asrwt>
<pdfrwt beam="1">  1       21 0.75396718E-02 0.30000000E+03</pdfrwt>
<pdfrwt beam="2">0</pdfrwt>
<totfact> 0.14172927E+04</totfact>
</mgrwt>
</event>
<event>
 6    1  0.1280499E-001  0.3000000E+03  0.7818608E-02  0.1093470E+00
         21   -1    0    0  501  502  0.00000000000E+00  0.00000000000E+00  0.17973020490E+01  0.17973020490E+01  0.00000000000E+00 0. -1.
         13   -1    0    0    0    0 -0.00000000000E+00 -0.00000000000E+00 -0.10000000000E+04  0.10000000000E+04  0.00000000000E+00 0.  1.
    9000005    2    1    2  501    0 -0.43594906033E+00  0.35048702778E+02 -0.77826951054E+03  0.77908850442E+03  0.68458060083E+01 0.  0.
         13    1    3    3    0    0  0.16829381376E+01  0.30912848319E+02 -0.65448739240E+03  0.65521918720E+03  0.00000000000E+00 0.  1.
          3    1    3    3  501    0 -0.21188871979E+01  0.41358544595E+01 -0.12378211815E+03  0.12386931722E+03  0.00000000000E+00 0.  1.
         -3    1    1    2    0  502  0.43594906033E+00 -0.35048702778E+02 -0.21993318741E+03  0.22270879763E+03  0.00000000000E+00 0. -1.
<mgrwt>
<rscale>  1 0.30000000E+03</rscale>
<asrwt>0</asrwt>
<pdfrwt beam="1">  1       21 0.65356576E-02 0.30000000E+03</pdfrwt>
<pdfrwt beam="2">0</pdfrwt>
<totfact> 0.18177024E+04</totfact>
</mgrwt>
</event>
<event>
 6    1  0.1280499E-001  0.3000000E+03  0.7818608E-02  0.1093470E+00
         21   -1    0    0  501  502  0.00000000000E+00  0.00000000000E+00  0.48978551172E+01  0.48978551172E+01  0.00000000000E+00 0. -1.
         13   -1    0    0    0    0 -0.00000000000E+00 -0.00000000000E+00 -0.10000000000E+04  0.10000000000E+04  0.00000000000E+00 0.  1.
    9000005    2    1    2  501    0  0.30940298189E+02  0.21289536246E+02 -0.92148097471E+03  0.92225027135E+03  0.27981848804E+01 0.  0.
         13    1    3    3    0    0  0.15284176032E+02  0.12148801232E+02 -0.48719898058E+03  0.48759003895E+03  0.00000000000E+00 0.  1.
          1    1    3    3  501    0  0.15656122157E+02  0.91407350142E+01 -0.43428199414E+03  0.43466023240E+03  0.00000000000E+00 0.  1.
         -3    1    1    2    0  502 -0.30940298189E+02 -0.21289536246E+02 -0.73621170168E+02  0.82647583767E+02  0.00000000000E+00 0. -1.
<mgrwt>
<rscale>  1 0.30000000E+03</rscale>
<asrwt>0</asrwt>
<pdfrwt beam="1">  1       21 0.17810420E-01 0.30000000E+03</pdfrwt>
<pdfrwt beam="2">0</pdfrwt>
<totfact> 0.29885256E+03</totfact>
</mgrwt>
</event>
<event>
 6    1  0.1280499E-001  0.3000000E+03  0.7818608E-02  0.1093470E+00
         21   -1    0    0  501  502  0.00000000000E+00  0.00000000000E+00  0.92000180959E+00  0.92000180959E+00  0.00000000000E+00 0. -1.
         13   -1    0    0    0    0 -0.00000000000E+00 -0.00000000000E+00 -0.10000000000E+04  0.10000000000E+04  0.00000000000E+00 0.  1.
    9000005    2    1    2  501    0 -0.27751594363E+02 -0.12043177248E+02 -0.47357022989E+03  0.47454019056E+03  0.21073002603E+01 0.  0.
         13    1    3    3    0    0 -0.39564343410E+01 -0.95065012196E+00 -0.61416322786E+02  0.61550969228E+02  0.00000000000E+00 0.  1.
          1    1    3    3  501    0 -0.23795160022E+02 -0.11092527127E+02 -0.41215390710E+03  0.41298922134E+03  0.00000000000E+00 0.  1.
         -3    1    1    2    0  502  0.27751594363E+02  0.12043177248E+02 -0.52550976830E+03  0.52637981125E+03  0.00000000000E+00 0. -1.
<mgrwt>
<rscale>  1 0.30000000E+03</rscale>
<asrwt>0</asrwt>
<pdfrwt beam="1">  1       21 0.33454682E-02 0.30000000E+03</pdfrwt>
<pdfrwt beam="2">0</pdfrwt>
<totfact> 0.56742900E+04</totfact>
</mgrwt>
</event>
<event>
 6    1  0.1280499E-001  0.3000000E+03  0.7818608E-02  0.1093470E+00
         21   -1    0    0  501  502  0.00000000000E+00  0.00000000000E+00  0.31808244491E+01  0.31808244491E+01  0.00000000000E+00 0. -1.
         13   -1    0    0    0    0 -0.00000000000E+00 -0.00000000000E+00 -0.10000000000E+04  0.10000000000E+04  0.00000000000E+00 0.  1.
    9000005    2    1    2  501    0 -0.71600147907E+01  0.45863417612E+02 -0.78257922673E+03  0.78396979700E+03  0.48659638003E+01 0.  0.
         13    1    3    3    0    0 -0.22978250202E+00  0.13577622361E+02 -0.20869538826E+03  0.20913672491E+03  0.00000000000E+00 0.  1.
          3    1    3    3  501    0 -0.69302322887E+01  0.32285795251E+02 -0.57388383848E+03  0.57483307208E+03  0.00000000000E+00 0.  1.
         -1    1    1    2    0  502  0.71600147907E+01 -0.45863417612E+02 -0.21423994882E+03  0.21921102745E+03  0.00000000000E+00 0. -1.
<mgrwt>
<rscale>  1 0.30000000E+03</rscale>
<asrwt>0</asrwt>
<pdfrwt beam="1">  1       21 0.11566659E-01 0.30000000E+03</pdfrwt>
<pdfrwt beam="2">0</pdfrwt>
<totfact> 0.66240068E+03</totfact>
</mgrwt>
</event>
<event>
 6    1  0.1280499E-001  0.3000000E+03  0.7818608E-02  0.1093470E+00
         21   -1    0    0  501  502  0.00000000000E+00  0.00000000000E+00  0.11934066090E+01  0.11934066090E+01  0.00000000000E+00 0. -1.
         13   -1    0    0    0    0 -0.00000000000E+00 -0.00000000000E+00 -0.10000000000E+04  0.10000000000E+04  0.00000000000E+00 0.  1.
    9000005    2    1    2  501    0  0.81085219657E+01 -0.31159276508E+02 -0.32252221628E+03  0.32414303377E+03  0.33878761219E+01 0.  0.
         13    1    3    3    0    0  0.71135125130E+01 -0.22280552525E+02 -0.22493442022E+03  0.22614711689E+03  0.00000000000E+00 0.  1.
          1    1    3    3  501    0  0.99500945265E+00 -0.88787239831E+01 -0.97587796063E+02  0.97995916873E+02  0.00000000000E+00 0.  1.
         -1    1    1    2    0  502 -0.81085219657E+01  0.31159276508E+02 -0.67628437711E+03  0.67705037284E+03  0.00000000000E+00 0. -1.
<mgrwt>
<rscale>  1 0.30000000E+03</rscale>
<asrwt>0</asrwt>
<pdfrwt beam="1">  1       21 0.43396695E-02 0.30000000E+03</pdfrwt>
<pdfrwt beam="2">0</pdfrwt>
<totfact> 0.36643028E+04</totfact>
</mgrwt>
</event>
<event>
 6    1  0.1280499E-001  0.3000000E+03  0.7818608E-02  0.1093470E+00
         21   -1    0    0  501  502  0.00000000000E+00  0.00000000000E+00  0.11000801915E+01  0.11000801915E+01  0.00000000000E+00 0. -1.
         13   -1    0    0    0    0 -0.00000000000E+00 -0.00000000000E+00 -0.10000000000E+04  0.10000000000E+04  0.00000000000E+00 0.  1.
    9000005    2    1    2  501    0  0.30204095959E+02  0.32093000084E+01 -0.69920681265E+03  0.69987168595E+03  0.27609633241E+01 0.  0.
         13    1    3    3    0    0  0.27940062065E+02  0.25791709455E+01 -0.62893515154E+03  0.62956073896E+03  0.00000000000E+00 0.  1.
          3    1    3    3  501    0  0.22640338933E+01  0.63012906284E+00 -0.70271661110E+02  0.70310946995E+02  0.00000000000E+00 0.  1.
         -3    1    1    2    0  502 -0.30204095959E+02 -0.32093000084E+01 -0.29969310716E+03  0.30122839424E+03  0.00000000000E+00 0. -1.
<mgrwt>
<rscale>  1 0.30000000E+03</rscale>
<asrwt>0</asrwt>
<pdfrwt beam="1">  1       21 0.40003000E-02 0.30000000E+03</pdfrwt>
<pdfrwt beam="2">0</pdfrwt>
<totfact> 0.42042013E+04</totfact>
</mgrwt>
</event>
<event>
 6    1  0.1280499E-001  0.3000000E+03  0.7818608E-02  0.1093470E+00
         21   -1    0    0  501  502  0.00000000000E+00  0.00000000000E+00  0.15911703279E+01  0.15911703279E+01  0.00000000000E+00 0. -1.
         13   -1    0    0    0    0 -0.00000000000E+00 -0.00000000000E+00 -0.10000000000E+04  0.10000000000E+04  0.00000000000E+00 0.  1.
    9000005    2    1    2  501    0  0.22845397432E+02  0.29768758325E+02 -0.33224167967E+03  0.33436799710E+03  0.30549330464E+01 0.  0.
         13    1    3    3    0    0  0.11265218523E+02  0.13105610560E+02 -0.14235569027E+03  0.14340085331E+03  0.00000000000E+00 0.  1.
          1    1    3    3  501    0  0.11580178909E+02  0.16663147765E+02 -0.18988598940E+03  0.19096714379E+03  0.00000000000E+00 0.  1.
         -1    1    1    2    0  502 -0.22845397432E+02 -0.29768758325E+02 -0.66616715000E+03  0.66722317323E+03  0.00000000000E+00 0. -1.
<mgrwt>
<rscale>  1 0.30000000E+03</rscale>
<asrwt>0</asrwt>
<pdfrwt beam="1">  1       21 0.57860861E-02 0.30000000E+03</pdfrwt>
<pdfrwt beam="2">0</pdfrwt>
<totfact> 0.22432157E+04</totfact>
</mgrwt>
</event>
<event>
 6    1  0.1280499E-001  0.3000000E+03  0.7818608E-02  0.1093470E+00
         21   -1    0    0  501  502  0.00000000000E+00  0.00000000000E+00  0.12184928511E+01  0.12184928511E+01  0.00000000000E+00 0. -1.
         13   -1    0    0    0    0 -0.00000000000E+00 -0.00000000000E+00 -0.10000000000E+04  0.10000000000E+04  0.00000000000E+00 0.  1.
    9000005    2    1    2  501    0 -0.22213854321E+02  0.23904548581E+02 -0.67455875483E+03  0.67535766997E+03  0.36859062029E+01 0.  0.
         13    1    3    3    0    0 -0.33565544692E+01  0.26248763278E+01 -0.11168084059E+03  0.11176209818E+03  0.00000000000E+00 0.  1.
          1    1    3    3  501    0 -0.18857299852E+02  0.21279672253E+02 -0.56287791423E+03  0.56359557179E+03  0.00000000000E+00 0.  1.
         -1    1    1    2    0  502  0.22213854321E+02 -0.23904548581E+02 -0.32422275232E+03  0.32586082288E+03  0.00000000000E+00 0. -1.
<mgrwt>
<rscale>  1 0.30000000E+03</rscale>
<asrwt>0</asrwt>
<pdfrwt beam="1">  1       21 0.44308924E-02 0.30000000E+03</pdfrwt>
<pdfrwt beam="2">0</pdfrwt>
<totfact> 0.35374548E+04</totfact>
</mgrwt>
</event>
<event>
 6    1  0.1280499E-001  0.3000000E+03  0.7818608E-02  0.1093470E+00
         21   -1    0    0  501  502  0.00000000000E+00  0.00000000000E+00  0.13296421713E+01  0.13296421713E+01  0.00000000000E+00 0. -1.
         13   -1    0    0    0    0 -0.00000000000E+00 -0.00000000000E+00 -0.10000000000E+04  0.10000000000E+04  0.00000000000E+00 0.  1.
    9000005    2    1    2  501    0  0.17784156453E+02  0.30001122906E+02 -0.64370546127E+03  0.64465553127E+03  0.27730011582E+01 0.  0.
         13    1    3    3    0    0  0.15760078253E+02  0.26334006090E+02 -0.58140435392E+03  0.58221377749E+03  0.00000000000E+00 0.  1.
          1    1    3    3  501    0  0.20240782002E+01  0.36671168159E+01 -0.62301107353E+02  0.62441753785E+02  0.00000000000E+00 0.  1.
         -3    1    1    2    0  502 -0.17784156453E+02 -0.30001122906E+02 -0.35496489656E+03  0.35667411090E+03  0.00000000000E+00 0. -1.
<mgrwt>
<rscale>  1 0.30000000E+03</rscale>
<asrwt>0</asrwt>
<pdfrwt beam="1">  1       21 0.48350726E-02 0.30000000E+03</pdfrwt>
<pdfrwt beam="2">0</pdfrwt>
<totfact> 0.30498319E+04</totfact>
</mgrwt>
</event>
<event>
 6    1  0.1280499E-001  0.3000000E+03  0.7818608E-02  0.1093470E+00
         21   -1    0    0  501  502  0.00000000000E+00  0.00000000000E+00  0.11702341334E+01  0.11702341334E+01  0.00000000000E+00 0. -1.
         13   -1    0    0    0    0 -0.00000000000E+00 -0.00000000000E+00 -0.10000000000E+04  0.10000000000E+04  0.00000000000E+00 0.  1.
    9000005    2    1    2  501    0  0.67042682754E+01 -0.30774991719E+02 -0.69241422596E+03  0.69314015375E+03  0.37101337032E+01 0.  0.
         13    1    3    3    0    0  0.28275822562E+01 -0.19470492996E+02 -0.40511518822E+03  0.40559266641E+03  0.00000000000E+00 0.  1.
          1    1    3    3  501    0  0.38766860192E+01 -0.11304498723E+02 -0.28729903774E+03  0.28754748734E+03  0.00000000000E+00 0.  1.
         -3    1    1    2    0  502 -0.67042682754E+01  0.30774991719E+02 -0.30641553990E+03  0.30803008039E+03  0.00000000000E+00 0. -1.
<mgrwt>
<rscale>  1 0.30000000E+03</rscale>
<asrwt>0</asrwt>
<pdfrwt beam="1">  1       21 0.42554058E-02 0.30000000E+03</pdfrwt>
<pdfrwt beam="2">0</pdfrwt>
<totfact> 0.37878486E+04</totfact>
</mgrwt>
</event>
<event>
 6    1  0.1280499E-001  0.3000000E+03  0.7818608E-02  0.1093470E+00
         21   -1    0    0  501  502  0.00000000000E+00  0.00000000000E+00  0.96176849196E+00  0.96176849196E+00  0.00000000000E+00 0. -1.
         13   -1    0    0    0    0 -0.00000000000E+00 -0.00000000000E+00 -0.10000000000E+04  0.10000000000E+04  0.00000000000E+00 0.  1.
    9000005    2    1    2  501    0  0.29830403469E+02 -0.73341689222E+01 -0.55887344097E+03  0.55972635986E+03  0.32298437859E+01 0.  0.
         13    1    3    3    0    0  0.10159947078E+02 -0.30123001102E+01 -0.21984873343E+03  0.22010398467E+03  0.00000000000E+00 0.  1.
          3    1    3    3  501    0  0.19670456391E+02 -0.43218688120E+01 -0.33902470754E+03  0.33962237518E+03  0.00000000000E+00 0.  1.
         -3    1    1    2    0  502 -0.29830403469E+02  0.73341689222E+01 -0.44016479054E+03  0.44123540864E+03  0.00000000000E+00 0. -1.
<mgrwt>
<rscale>  1 0.30000000E+03</rscale>
<asrwt>0</asrwt>
<pdfrwt beam="1">  1       21 0.34973473E-02 0.30000000E+03</pdfrwt>
<pdfrwt beam="2">0</pdfrwt>
<totfact> 0.52683648E+04</totfact>
</mgrwt>
</event>
<event>
 6    1  0.1280499E-001  0.3000000E+03  0.7818608E-02  0.1093470E+00
         21   -1    0    0  501  502  0.00000000000E+00  0.00000000000E+00  0.51783657840E+01  0.51783657840E+01  0.00000000000E+00 0. -1.
         13   -1    0    0    0    0 -0.00000000000E+00 -0.00000000000E+00 -0.10000000000E+04  0.10000000000E+04  0.00000000000E+00 0.  1.
    9000005    2    1    2  501    0  0.49650847070E+02  0.53416537569E+01 -0.85890284740E+03  0.86037623704E+03  0.62791805817E+01 0.  0.
         13    1    3    3    0    0  0.82391326565E+01 -0.69714096576E+00 -0.11472386509E+03  0.11502145250E+03  0.00000000000E+00 0.  1.
          3    1    3    3  501    0  0.41411714414E+02  0.60387947226E+01 -0.74417898231E+03  0.74535478454E+03  0.00000000000E+00 0.  1.
         -1    1    1    2    0  502 -0.49650847070E+02 -0.53416537569E+01 -0.13591878681E+03  0.14480212874E+03  0.00000000000E+00 0. -1.
<mgrwt>
<rscale>  1 0.30000000E+03</rscale>
<asrwt>0</asrwt>
<pdfrwt beam="1">  1       21 0.18830461E-01 0.30000000E+03</pdfrwt>
<pdfrwt beam="2">0</pdfrwt>
<totfact> 0.26903835E+03</totfact>
</mgrwt>
</event>
<event>
 6    1  0.1280499E-001  0.3000000E+03  0.7818608E-02  0.1093470E+00
         21   -1    0    0  501  502  0.00000000000E+00  0.00000000000E+00  0.93708460460E+00  0.93708460460E+00  0.00000000000E+00 0. -1.
         13   -1    0    0    0    0 -0.00000000000E+00 -0.00000000000E+00 -0.10000000000E+04  0.10000000000E+04  0.00000000000E+00 0.  1.
    9000005    2    1    2  501    0 -0.21362968906E+02 -0.21647287897E+02 -0.45862002388E+03  0.45963910705E+03  0.32864743157E+01 0.  0.
         13    1    3    3    0    0 -0.66726863716E+01 -0.48575244436E+01 -0.13275209899E+03  0.13300842106E+03  0.00000000000E+00 0.  1.
          1    1    3    3  501    0 -0.14690282534E+02 -0.16789763454E+02 -0.32586792489E+03  0.32663068599E+03  0.00000000000E+00 0.  1.
         -1    1    1    2    0  502  0.21362968906E+02  0.21647287897E+02 -0.54044289151E+03  0.54129797755E+03  0.00000000000E+00 0. -1.
<mgrwt>
<rscale>  1 0.30000000E+03</rscale>
<asrwt>0</asrwt>
<pdfrwt beam="1">  1       21 0.34075876E-02 0.30000000E+03</pdfrwt>
<pdfrwt beam="2">0</pdfrwt>
<totfact> 0.55025644E+04</totfact>
</mgrwt>
</event>
<event>
 6    1  0.1280499E-001  0.3000000E+03  0.7818608E-02  0.1093470E+00
         21   -1    0    0  501  502  0.00000000000E+00  0.00000000000E+00  0.24321521247E+01  0.24321521247E+01  0.00000000000E+00 0. -1.
         13   -1    0    0    0    0 -0.00000000000E+00 -0.00000000000E+00 -0.10000000000E+04  0.10000000000E+04  0.00000000000E+00 0.  1.
    9000005    2    1    2  501    0 -0.64659571057E+00  0.31458749378E+02 -0.88454755568E+03  0.88511353703E+03  0.33947292468E+01 0.  0.
         13    1    3    3    0    0  0.13575691842E+01  0.95581697493E+01 -0.26551633740E+03  0.26569178954E+03  0.00000000000E+00 0.  1.
          1    1    3    3  501    0 -0.20041648948E+01  0.21900579628E+02 -0.61903121828E+03  0.61942174749E+03  0.00000000000E+00 0.  1.
         -1    1    1    2    0  502  0.64659571057E+00 -0.31458749378E+02 -0.11302029220E+03  0.11731861509E+03  0.00000000000E+00 0. -1.
<mgrwt>
<rscale>  1 0.30000000E+03</rscale>
<asrwt>0</asrwt>
<pdfrwt beam="1">  1       21 0.88442082E-02 0.30000000E+03</pdfrwt>
<pdfrwt beam="2">0</pdfrwt>
<totfact> 0.10703909E+04</totfact>
</mgrwt>
</event>
<event>
 6    1  0.1280499E-001  0.3000000E+03  0.7818608E-02  0.1093470E+00
         21   -1    0    0  501  502  0.00000000000E+00  0.00000000000E+00  0.41075980533E+01  0.41075980533E+01  0.00000000000E+00 0. -1.
         13   -1    0    0    0    0 -0.00000000000E+00 -0.00000000000E+00 -0.10000000000E+04  0.10000000000E+04  0.00000000000E+00 0.  1.
    9000005    2    1    2  501    0 -0.14513484629E+02  0.45123503759E+02 -0.83569510877E+03  0.83704490153E+03  0.33287433575E+01 0.  0.
         13    1    3    3    0    0 -0.76205306358E+01  0.27894149454E+02 -0.52632784675E+03  0.52712157832E+03  0.00000000000E+00 0.  1.
          3    1    3    3  501    0 -0.68929539935E+01  0.17229354305E+02 -0.30936726202E+03  0.30992332322E+03  0.00000000000E+00 0.  1.
         -1    1    1    2    0  502  0.14513484629E+02 -0.45123503759E+02 -0.16019729317E+03  0.16706269652E+03  0.00000000000E+00 0. -1.
<mgrwt>
<rscale>  1 0.30000000E+03</rscale>
<asrwt>0</asrwt>
<pdfrwt beam="1">  1       21 0.14936752E-01 0.30000000E+03</pdfrwt>
<pdfrwt beam="2">0</pdfrwt>
<totfact> 0.41503608E+03</totfact>
</mgrwt>
</event>
<event>
 6    1  0.1280499E-001  0.3000000E+03  0.7818608E-02  0.1093470E+00
         21   -1    0    0  501  502  0.00000000000E+00  0.00000000000E+00  0.98522782815E+00  0.98522782815E+00  0.00000000000E+00 0. -1.
         13   -1    0    0    0    0 -0.00000000000E+00 -0.00000000000E+00 -0.10000000000E+04  0.10000000000E+04  0.00000000000E+00 0.  1.
    9000005    2    1    2  501    0 -0.29602982235E+02  0.91851874268E+01 -0.42825534017E+03  0.42938481369E+03  0.28244675908E+01 0.  0.
         13    1    3    3    0    0 -0.10699999354E+02  0.42628930958E+01 -0.14496932835E+03  0.14542616135E+03  0.00000000000E+00 0.  1.
          3    1    3    3  501    0 -0.18902982881E+02  0.49222943310E+01 -0.28328601183E+03  0.28395865234E+03  0.00000000000E+00 0.  1.
         -1    1    1    2    0  502  0.29602982235E+02 -0.91851874268E+01 -0.57075943200E+03  0.57160041414E+03  0.00000000000E+00 0. -1.
<mgrwt>
<rscale>  1 0.30000000E+03</rscale>
<asrwt>0</asrwt>
<pdfrwt beam="1">  1       21 0.35826542E-02 0.30000000E+03</pdfrwt>
<pdfrwt beam="2">0</pdfrwt>
<totfact> 0.50598451E+04</totfact>
</mgrwt>
</event>
<event>
 6    1  0.1280499E-001  0.3000000E+03  0.7818608E-02  0.1093470E+00
         21   -1    0    0  501  502  0.00000000000E+00  0.00000000000E+00  0.77701642741E+01  0.77701642741E+01  0.00000000000E+00 0. -1.
         13   -1    0    0    0    0 -0.00000000000E+00 -0.00000000000E+00 -0.10000000000E+04  0.10000000000E+04  0.00000000000E+00 0.  1.
    9000005    2    1    2  501    0  0.85606018736E+02  0.13016399845E+02 -0.58652923920E+03  0.59293189322E+03  0.73392406608E+01 0.  0.
         13    1    3    3    0    0  0.19926794504E+02  0.20432803852E+01 -0.15671235441E+03  0.15798738608E+03  0.00000000000E+00 0.  1.
          1    1    3    3  501    0  0.65679224232E+02  0.10973119460E+02 -0.42981688479E+03  0.43494450715E+03  0.00000000000E+00 0.  1.
         -1    1    1    2    0  502 -0.85606018736E+02 -0.13016399845E+02 -0.40570059653E+03  0.41483827105E+03  0.00000000000E+00 0. -1.
<mgrwt>
<rscale>  1 0.30000000E+03</rscale>
<asrwt>0</asrwt>
<pdfrwt beam="1">  1       21 0.28255202E-01 0.30000000E+03</pdfrwt>
<pdfrwt beam="2">0</pdfrwt>
<totfact> 0.12251480E+03</totfact>
</mgrwt>
</event>
<event>
 6    1  0.1280499E-001  0.3000000E+03  0.7818608E-02  0.1093470E+00
         21   -1    0    0  501  502  0.00000000000E+00  0.00000000000E+00  0.14603881442E+01  0.14603881442E+01  0.00000000000E+00 0. -1.
         13   -1    0    0    0    0 -0.00000000000E+00 -0.00000000000E+00 -0.10000000000E+04  0.10000000000E+04  0.00000000000E+00 0.  1.
    9000005    2    1    2  501    0  0.11932912421E+02  0.36212221680E+02 -0.50971016289E+03  0.51114625458E+03  0.35105581795E+01 0.  0.
         13    1    3    3    0    0  0.11169957480E+02  0.31069446271E+02 -0.45053400413E+03  0.45174214693E+03  0.00000000000E+00 0.  1.
          1    1    3    3  501    0  0.76295494088E+00  0.51427754086E+01 -0.59176158761E+02  0.59404107642E+02  0.00000000000E+00 0.  1.
         -3    1    1    2    0  502 -0.11932912421E+02 -0.36212221680E+02 -0.48882944897E+03  0.49031413357E+03  0.00000000000E+00 0. -1.
<mgrwt>
<rscale>  1 0.30000000E+03</rscale>
<asrwt>0</asrwt>
<pdfrwt beam="1">  1       21 0.53105135E-02 0.30000000E+03</pdfrwt>
<pdfrwt beam="2">0</pdfrwt>
<totfact> 0.25988624E+04</totfact>
</mgrwt>
</event>
<event>
 6    1  0.1280499E-001  0.3000000E+03  0.7818608E-02  0.1093470E+00
         21   -1    0    0  501  502  0.00000000000E+00  0.00000000000E+00  0.16881754446E+01  0.16881754446E+01  0.00000000000E+00 0. -1.
         13   -1    0    0    0    0 -0.00000000000E+00 -0.00000000000E+00 -0.10000000000E+04  0.10000000000E+04  0.00000000000E+00 0.  1.
    9000005    2    1    2  501    0 -0.32100398776E+02  0.30725103161E+01 -0.80860796313E+03  0.80926304466E+03  0.44678271322E+01 0.  0.
         13    1    3    3    0    0 -0.12330072232E+02 -0.76523439546E-01 -0.35349868970E+03  0.35371366973E+03  0.00000000000E+00 0.  1.
          1    1    3    3  501    0 -0.19770326543E+02  0.31490337556E+01 -0.45510927344E+03  0.45554937492E+03  0.00000000000E+00 0.  1.
         -3    1    1    2    0  502  0.32100398776E+02 -0.30725103161E+01 -0.18970386142E+03  0.19242513079E+03  0.00000000000E+00 0. -1.
<mgrwt>
<rscale>  1 0.30000000E+03</rscale>
<asrwt>0</asrwt>
<pdfrwt beam="1">  1       21 0.61388327E-02 0.30000000E+03</pdfrwt>
<pdfrwt beam="2">0</pdfrwt>
<totfact> 0.20256166E+04</totfact>
</mgrwt>
</event>
<event>
 6    1  0.1280499E-001  0.3000000E+03  0.7818608E-02  0.1093470E+00
         21   -1    0    0  501  502  0.00000000000E+00  0.00000000000E+00  0.58119305687E+01  0.58119305687E+01  0.00000000000E+00 0. -1.
         13   -1    0    0    0    0 -0.00000000000E+00 -0.00000000000E+00 -0.10000000000E+04  0.10000000000E+04  0.00000000000E+00 0.  1.
    9000005    2    1    2  501    0 -0.25151957056E+02 -0.70914730508E+02 -0.41829967685E+03  0.42502887240E+03  0.36609798605E+01 0.  0.
         13    1    3    3    0    0 -0.11189795902E+01 -0.28004973430E+01 -0.13185997685E+02  0.13526471662E+02  0.00000000000E+00 0.  1.
          3    1    3    3  501    0 -0.24032977466E+02 -0.68114233165E+02 -0.40511367916E+03  0.41150240074E+03  0.00000000000E+00 0.  1.
         -1    1    1    2    0  502  0.25151957056E+02  0.70914730508E+02 -0.57588839258E+03  0.58078305817E+03  0.00000000000E+00 0. -1.
<mgrwt>
<rscale>  1 0.30000000E+03</rscale>
<asrwt>0</asrwt>
<pdfrwt beam="1">  1       21 0.21134338E-01 0.30000000E+03</pdfrwt>
<pdfrwt beam="2">0</pdfrwt>
<totfact> 0.21588649E+03</totfact>
</mgrwt>
</event>
<event>
 6    1  0.1280499E-001  0.3000000E+03  0.7818608E-02  0.1093470E+00
         21   -1    0    0  501  502  0.00000000000E+00  0.00000000000E+00  0.14414660169E+01  0.14414660169E+01  0.00000000000E+00 0. -1.
         13   -1    0    0    0    0 -0.00000000000E+00 -0.00000000000E+00 -0.10000000000E+04  0.10000000000E+04  0.00000000000E+00 0.  1.
    9000005    2    1    2  501    0  0.92510968937E+01  0.28874445530E+02 -0.79984928067E+03  0.80043230267E+03  0.36990493425E+01 0.  0.
         13    1    3    3    0    0  0.62076316056E+01  0.18346401055E+02 -0.55509981080E+03  0.55543759782E+03  0.00000000000E+00 0.  1.
          1    1    3    3  501    0  0.30434652881E+01  0.10528044474E+02 -0.24474946987E+03  0.24499470485E+03  0.00000000000E+00 0.  1.
         -3    1    1    2    0  502 -0.92510968937E+01 -0.28874445530E+02 -0.19870925331E+03  0.20100916335E+03  0.00000000000E+00 0. -1.
<mgrwt>
<rscale>  1 0.30000000E+03</rscale>
<asrwt>0</asrwt>
<pdfrwt beam="1">  1       21 0.52417057E-02 0.30000000E+03</pdfrwt>
<pdfrwt beam="2">0</pdfrwt>
<totfact> 0.26574653E+04</totfact>
</mgrwt>
</event>
<event>
 6    1  0.1280499E-001  0.3000000E+03  0.7818608E-02  0.1093470E+00
         21   -1    0    0  501  502  0.00000000000E+00  0.00000000000E+00  0.30124795629E+01  0.30124795629E+01  0.00000000000E+00 0. -1.
         13   -1    0    0    0    0 -0.00000000000E+00 -0.00000000000E+00 -0.10000000000E+04  0.10000000000E+04  0.00000000000E+00 0.  1.
    9000005    2    1    2  501    0 -0.40478581369E+02 -0.20185516651E+02 -0.78196348988E+03  0.78328240800E+03  0.42965736181E+01 0.  0.
         13    1    3    3    0    0 -0.15051690011E+02 -0.72480574474E+01 -0.32523001414E+03  0.32565879354E+03  0.00000000000E+00 0.  1.
          1    1    3    3  501    0 -0.25426891358E+02 -0.12937459204E+02 -0.45673347573E+03  0.45762361446E+03  0.00000000000E+00 0.  1.
         -3    1    1    2    0  502  0.40478581369E+02  0.20185516651E+02 -0.21502403056E+03  0.21973007157E+03  0.00000000000E+00 0. -1.
<mgrwt>
<rscale>  1 0.30000000E+03</rscale>
<asrwt>0</asrwt>
<pdfrwt beam="1">  1       21 0.10954494E-01 0.30000000E+03</pdfrwt>
<pdfrwt beam="2">0</pdfrwt>
<totfact> 0.73063027E+03</totfact>
</mgrwt>
</event>
<event>
 6    1  0.1280499E-001  0.3000000E+03  0.7818608E-02  0.1093470E+00
         21   -1    0    0  501  502  0.00000000000E+00  0.00000000000E+00  0.38008042150E+01  0.38008042150E+01  0.00000000000E+00 0. -1.
         13   -1    0    0    0    0 -0.00000000000E+00 -0.00000000000E+00 -0.10000000000E+04  0.10000000000E+04  0.00000000000E+00 0.  1.
    9000005    2    1    2  501    0 -0.28029250003E+02  0.38899443244E+02 -0.81342445113E+03  0.81484204463E+03  0.30682991266E+01 0.  0.
         13    1    3    3    0    0 -0.53553086183E+01  0.96073196087E+01 -0.18974565996E+03  0.19006418756E+03  0.00000000000E+00 0.  1.
          1    1    3    3  501    0 -0.22673941384E+02  0.29292123635E+02 -0.62367879117E+03  0.62477785706E+03  0.00000000000E+00 0.  1.
         -3    1    1    2    0  502  0.28029250003E+02 -0.38899443244E+02 -0.18277474466E+03  0.18895875959E+03  0.00000000000E+00 0. -1.
<mgrwt>
<rscale>  1 0.30000000E+03</rscale>
<asrwt>0</asrwt>
<pdfrwt beam="1">  1       21 0.13821135E-01 0.30000000E+03</pdfrwt>
<pdfrwt beam="2">0</pdfrwt>
<totfact> 0.47884124E+03</totfact>
</mgrwt>
</event>
<event>
 6    1  0.1280499E-001  0.3000000E+03  0.7818608E-02  0.1093470E+00
         21   -1    0    0  501  502  0.00000000000E+00  0.00000000000E+00  0.16066358815E+01  0.16066358815E+01  0.00000000000E+00 0. -1.
         13   -1    0    0    0    0 -0.00000000000E+00 -0.00000000000E+00 -0.10000000000E+04  0.10000000000E+04  0.00000000000E+00 0.  1.
    9000005    2    1    2  501    0 -0.82243678623E+01  0.35356431322E+02 -0.70990184049E+03  0.71084027492E+03  0.39440907284E+01 0.  0.
         13    1    3    3    0    0 -0.84426882722E+01  0.32912539030E+02 -0.64867822879E+03  0.64956751667E+03  0.00000000000E+00 0.  1.
          3    1    3    3  501    0  0.21832040990E+00  0.24438922917E+01 -0.61223611699E+02  0.61272758244E+02  0.00000000000E+00 0.  1.
         -3    1    1    2    0  502  0.82243678623E+01 -0.35356431322E+02 -0.28849152363E+03  0.29076636097E+03  0.00000000000E+00 0. -1.
<mgrwt>
<rscale>  1 0.30000000E+03</rscale>
<asrwt>0</asrwt>
<pdfrwt beam="1">  1       21 0.58423246E-02 0.30000000E+03</pdfrwt>
<pdfrwt beam="2">0</pdfrwt>
<totfact> 0.22061513E+04</totfact>
</mgrwt>
</event>
<event>
 6    1  0.1280499E-001  0.3000000E+03  0.7818608E-02  0.1093470E+00
         21   -1    0    0  501  502  0.00000000000E+00  0.00000000000E+00  0.15375137238E+01  0.15375137238E+01  0.00000000000E+00 0. -1.
         13   -1    0    0    0    0 -0.00000000000E+00 -0.00000000000E+00 -0.10000000000E+04  0.10000000000E+04  0.00000000000E+00 0.  1.
    9000005    2    1    2  501    0  0.87199135506E+01  0.33756752837E+02 -0.72736889307E+03  0.72821116752E+03  0.32315063491E+01 0.  0.
         13    1    3    3    0    0  0.20455109692E+01  0.92849271608E+01 -0.17053078915E+03  0.17079562066E+03  0.00000000000E+00 0.  1.
          1    1    3    3  501    0  0.66744025815E+01  0.24471825676E+02 -0.55683810392E+03  0.55741554686E+03  0.00000000000E+00 0.  1.
         -3    1    1    2    0  502 -0.87199135506E+01 -0.33756752837E+02 -0.27109359320E+03  0.27332634620E+03  0.00000000000E+00 0. -1.
<mgrwt>
<rscale>  1 0.30000000E+03</rscale>
<asrwt>0</asrwt>
<pdfrwt beam="1">  1       21 0.55909708E-02 0.30000000E+03</pdfrwt>
<pdfrwt beam="2">0</pdfrwt>
<totfact> 0.23794895E+04</totfact>
</mgrwt>
</event>
<event>
 6    1  0.1280499E-001  0.3000000E+03  0.7818608E-02  0.1093470E+00
         21   -1    0    0  501  502  0.00000000000E+00  0.00000000000E+00  0.25388413524E+01  0.25388413524E+01  0.00000000000E+00 0. -1.
         13   -1    0    0    0    0 -0.00000000000E+00 -0.00000000000E+00 -0.10000000000E+04  0.10000000000E+04  0.00000000000E+00 0.  1.
    9000005    2    1    2  501    0  0.10187223265E+02 -0.47868644247E+02 -0.61414485584E+03  0.61611087314E+03  0.48494767626E+01 0.  0.
         13    1    3    3    0    0  0.55524511513E+01 -0.23103783999E+02 -0.26881704644E+03  0.26986518672E+03  0.00000000000E+00 0.  1.
          3    1    3    3  501    0  0.46347721135E+01 -0.24764860248E+02 -0.34532780940E+03  0.34624568641E+03  0.00000000000E+00 0.  1.
         -1    1    1    2    0  502 -0.10187223265E+02  0.47868644247E+02 -0.38331630281E+03  0.38642796822E+03  0.00000000000E+00 0. -1.
<mgrwt>
<rscale>  1 0.30000000E+03</rscale>
<asrwt>0</asrwt>
<pdfrwt beam="1">  1       21 0.92321698E-02 0.30000000E+03</pdfrwt>
<pdfrwt beam="2">0</pdfrwt>
<totfact> 0.99196664E+03</totfact>
</mgrwt>
</event>
<event>
 6    1  0.1280499E-001  0.3000000E+03  0.7818608E-02  0.1093470E+00
         21   -1    0    0  501  502  0.00000000000E+00  0.00000000000E+00  0.10456424872E+01  0.10456424872E+01  0.00000000000E+00 0. -1.
         13   -1    0    0    0    0 -0.00000000000E+00 -0.00000000000E+00 -0.10000000000E+04  0.10000000000E+04  0.00000000000E+00 0.  1.
    9000005    2    1    2  501    0 -0.16477793625E+02  0.26872914007E+02 -0.60679494922E+03  0.60762135154E+03  0.31504389779E+01 0.  0.
         13    1    3    3    0    0 -0.82578081407E+01  0.14909877333E+02 -0.35394192979E+03  0.35435206434E+03  0.00000000000E+00 0.  1.
          1    1    3    3  501    0 -0.82199854847E+01  0.11963036674E+02 -0.25285301943E+03  0.25326928720E+03  0.00000000000E+00 0.  1.
         -1    1    1    2    0  502  0.16477793625E+02 -0.26872914007E+02 -0.39215940829E+03  0.39342429094E+03  0.00000000000E+00 0. -1.
<mgrwt>
<rscale>  1 0.30000000E+03</rscale>
<asrwt>0</asrwt>
<pdfrwt beam="1">  1       21 0.38023443E-02 0.30000000E+03</pdfrwt>
<pdfrwt beam="2">0</pdfrwt>
<totfact> 0.45788609E+04</totfact>
</mgrwt>
</event>
<event>
 6    1  0.1280499E-001  0.3000000E+03  0.7818608E-02  0.1093470E+00
         21   -1    0    0  501  502  0.00000000000E+00  0.00000000000E+00  0.35182901948E+01  0.35182901948E+01  0.00000000000E+00 0. -1.
         13   -1    0    0    0    0 -0.00000000000E+00 -0.00000000000E+00 -0.10000000000E+04  0.10000000000E+04  0.00000000000E+00 0.  1.
    9000005    2    1    2  501    0 -0.18022077500E+02  0.54761464863E+02 -0.38214566255E+03  0.38648312728E+03  0.32073287784E+01 0.  0.
         13    1    3    3    0    0 -0.80002186727E+01  0.21669715679E+02 -0.14418345718E+03  0.14602208532E+03  0.00000000000E+00 0.  1.
          1    1    3    3  501    0 -0.10021858828E+02  0.33091749184E+02 -0.23796220536E+03  0.24046104196E+03  0.00000000000E+00 0.  1.
         -1    1    1    2    0  502  0.18022077500E+02 -0.54761464863E+02 -0.61433604726E+03  0.61703516291E+03  0.00000000000E+00 0. -1.
<mgrwt>
<rscale>  1 0.30000000E+03</rscale>
<asrwt>0</asrwt>
<pdfrwt beam="1">  1       21 0.12793810E-01 0.30000000E+03</pdfrwt>
<pdfrwt beam="2">0</pdfrwt>
<totfact> 0.55151297E+03</totfact>
</mgrwt>
</event>
<event>
 6    1  0.1280499E-001  0.3000000E+03  0.7818608E-02  0.1093470E+00
         21   -1    0    0  501  502  0.00000000000E+00  0.00000000000E+00  0.15902481275E+01  0.15902481275E+01  0.00000000000E+00 0. -1.
         13   -1    0    0    0    0 -0.00000000000E+00 -0.00000000000E+00 -0.10000000000E+04  0.10000000000E+04  0.00000000000E+00 0.  1.
    9000005    2    1    2  501    0  0.69332292923E+00  0.37381084490E+02 -0.67180167135E+03  0.67284921869E+03  0.32801350558E+01 0.  0.
         13    1    3    3    0    0  0.84244576832E+00  0.35846726271E+02 -0.63047294829E+03  0.63149175452E+03  0.00000000000E+00 0.  1.
          1    1    3    3  501    0 -0.14912283908E+00  0.15343582188E+01 -0.41328723064E+02  0.41357464174E+02  0.00000000000E+00 0.  1.
         -3    1    1    2    0  502 -0.69332292923E+00 -0.37381084490E+02 -0.32660808052E+03  0.32874102943E+03  0.00000000000E+00 0. -1.
<mgrwt>
<rscale>  1 0.30000000E+03</rscale>
<asrwt>0</asrwt>
<pdfrwt beam="1">  1       21 0.57827327E-02 0.30000000E+03</pdfrwt>
<pdfrwt beam="2">0</pdfrwt>
<totfact> 0.22454559E+04</totfact>
</mgrwt>
</event>
<event>
 6    1  0.1280499E-001  0.3000000E+03  0.7818608E-02  0.1093470E+00
         21   -1    0    0  501  502  0.00000000000E+00  0.00000000000E+00  0.12027921090E+01  0.12027921090E+01  0.00000000000E+00 0. -1.
         13   -1    0    0    0    0 -0.00000000000E+00 -0.00000000000E+00 -0.10000000000E+04  0.10000000000E+04  0.00000000000E+00 0.  1.
    9000005    2    1    2  501    0 -0.23849039028E+02 -0.22927875721E+02 -0.64677696075E+03  0.64763141524E+03  0.33983663912E+01 0.  0.
         13    1    3    3    0    0 -0.53581873504E+01 -0.72268207842E+01 -0.17859503949E+03  0.17882148987E+03  0.00000000000E+00 0.  1.
          3    1    3    3  501    0 -0.18490851677E+02 -0.15701054937E+02 -0.46818192126E+03  0.46880992536E+03  0.00000000000E+00 0.  1.
         -3    1    1    2    0  502  0.23849039028E+02  0.22927875721E+02 -0.35202024714E+03  0.35357137687E+03  0.00000000000E+00 0. -1.
<mgrwt>
<rscale>  1 0.30000000E+03</rscale>
<asrwt>0</asrwt>
<pdfrwt beam="1">  1       21 0.43737987E-02 0.30000000E+03</pdfrwt>
<pdfrwt beam="2">0</pdfrwt>
<totfact> 0.36160331E+04</totfact>
</mgrwt>
</event>
<event>
 6    1  0.1280499E-001  0.3000000E+03  0.7818608E-02  0.1093470E+00
         21   -1    0    0  501  502  0.00000000000E+00  0.00000000000E+00  0.76804071168E+02  0.76804071168E+02  0.00000000000E+00 0. -1.
         13   -1    0    0    0    0 -0.00000000000E+00 -0.00000000000E+00 -0.10000000000E+04  0.10000000000E+04  0.00000000000E+00 0.  1.
    9000005    2    1    2  501    0  0.22217932789E+03  0.61341706185E+02 -0.76052155881E+03  0.79468812104E+03  0.31160287667E+01 0.  0.
         13    1    3    3    0    0  0.11000348538E+03  0.29574877826E+02 -0.37117041132E+03  0.38825624842E+03  0.00000000000E+00 0.  1.
          1    1    3    3  501    0  0.11217584250E+03  0.31766828359E+02 -0.38935114749E+03  0.40643187262E+03  0.00000000000E+00 0.  1.
         -1    1    1    2    0  502 -0.22217932789E+03 -0.61341706185E+02 -0.16267437002E+03  0.28211595013E+03  0.00000000000E+00 0. -1.
<mgrwt>
<rscale>  1 0.30000000E+03</rscale>
<asrwt>0</asrwt>
<pdfrwt beam="1">  1       21 0.27928812E+00 0.30000000E+03</pdfrwt>
<pdfrwt beam="2">0</pdfrwt>
<totfact> 0.26066974E+00</totfact>
</mgrwt>
</event>
<event>
 6    1  0.1280499E-001  0.3000000E+03  0.7818608E-02  0.1093470E+00
         21   -1    0    0  501  502  0.00000000000E+00  0.00000000000E+00  0.27778587211E+01  0.27778587211E+01  0.00000000000E+00 0. -1.
         13   -1    0    0    0    0 -0.00000000000E+00 -0.00000000000E+00 -0.10000000000E+04  0.10000000000E+04  0.00000000000E+00 0.  1.
    9000005    2    1    2  501    0 -0.33812283256E+02  0.38172113334E+02 -0.62313869619E+03  0.62523474248E+03  0.40333327214E+01 0.  0.
         13    1    3    3    0    0 -0.26427609850E+02  0.32194219555E+02 -0.50814230461E+03  0.50984653384E+03  0.00000000000E+00 0.  1.
          3    1    3    3  501    0 -0.73846734059E+01  0.59778937784E+01 -0.11499639159E+03  0.11538820864E+03  0.00000000000E+00 0.  1.
         -3    1    1    2    0  502  0.33812283256E+02 -0.38172113334E+02 -0.37408344508E+03  0.37754311624E+03  0.00000000000E+00 0. -1.
<mgrwt>
<rscale>  1 0.30000000E+03</rscale>
<asrwt>0</asrwt>
<pdfrwt beam="1">  1       21 0.10101326E-01 0.30000000E+03</pdfrwt>
<pdfrwt beam="2">0</pdfrwt>
<totfact> 0.84495598E+03</totfact>
</mgrwt>
</event>
<event>
 6    1  0.1280499E-001  0.3000000E+03  0.7818608E-02  0.1093470E+00
         21   -1    0    0  501  502  0.00000000000E+00  0.00000000000E+00  0.54010640946E+01  0.54010640946E+01  0.00000000000E+00 0. -1.
         13   -1    0    0    0    0 -0.00000000000E+00 -0.00000000000E+00 -0.10000000000E+04  0.10000000000E+04  0.00000000000E+00 0.  1.
    9000005    2    1    2  501    0 -0.13366462163E+02 -0.47188439880E+02 -0.87159679905E+03  0.87298151554E+03  0.32148385905E+01 0.  0.
         13    1    3    3    0    0 -0.19239039416E+01 -0.11504693031E+02 -0.21532948516E+03  0.21564518670E+03  0.00000000000E+00 0.  1.
          3    1    3    3  501    0 -0.11442558221E+02 -0.35683746849E+02 -0.65626731389E+03  0.65733632883E+03  0.00000000000E+00 0.  1.
         -1    1    1    2    0  502  0.13366462163E+02  0.47188439880E+02 -0.12300213686E+03  0.13241954856E+03  0.00000000000E+00 0. -1.
<mgrwt>
<rscale>  1 0.30000000E+03</rscale>
<asrwt>0</asrwt>
<pdfrwt beam="1">  1       21 0.19640274E-01 0.30000000E+03</pdfrwt>
<pdfrwt beam="2">0</pdfrwt>
<totfact> 0.24836925E+03</totfact>
</mgrwt>
</event>
<event>
 6    1  0.1280499E-001  0.3000000E+03  0.7818608E-02  0.1093470E+00
         21   -1    0    0  501  502  0.00000000000E+00  0.00000000000E+00  0.33756263346E+01  0.33756263346E+01  0.00000000000E+00 0. -1.
         13   -1    0    0    0    0 -0.00000000000E+00 -0.00000000000E+00 -0.10000000000E+04  0.10000000000E+04  0.00000000000E+00 0.  1.
    9000005    2    1    2  501    0 -0.42346979865E+02  0.21567757626E+01 -0.84120003381E+03  0.84227117635E+03  0.23063484179E+01 0.  0.
         13    1    3    3    0    0 -0.12710719785E+02  0.10888017868E+01 -0.23435769451E+03  0.23470465881E+03  0.00000000000E+00 0.  1.
          3    1    3    3  501    0 -0.29636260080E+02  0.10679739758E+01 -0.60684233929E+03  0.60756651754E+03  0.00000000000E+00 0.  1.
         -1    1    1    2    0  502  0.42346979865E+02 -0.21567757626E+01 -0.15542433986E+03  0.16110444999E+03  0.00000000000E+00 0. -1.
<mgrwt>
<rscale>  1 0.30000000E+03</rscale>
<asrwt>0</asrwt>
<pdfrwt beam="1">  1       21 0.12275031E-01 0.30000000E+03</pdfrwt>
<pdfrwt beam="2">0</pdfrwt>
<totfact> 0.59470949E+03</totfact>
</mgrwt>
</event>
<event>
 6    1  0.1280499E-001  0.3000000E+03  0.7818608E-02  0.1093470E+00
         21   -1    0    0  501  502  0.00000000000E+00  0.00000000000E+00  0.17875907390E+01  0.17875907390E+01  0.00000000000E+00 0. -1.
         13   -1    0    0    0    0 -0.00000000000E+00 -0.00000000000E+00 -0.10000000000E+04  0.10000000000E+04  0.00000000000E+00 0.  1.
    9000005    2    1    2  501    0  0.37878753594E+02 -0.82823580955E+01 -0.69727222056E+03  0.69835984876E+03  0.38120021384E+01 0.  0.
         13    1    3    3    0    0  0.70850211755E+01 -0.14431861804E+01 -0.10547628730E+03  0.10572382652E+03  0.00000000000E+00 0.  1.
          1    1    3    3  501    0  0.30793732419E+02 -0.68391719151E+01 -0.59179593326E+03  0.59263602224E+03  0.00000000000E+00 0.  1.
         -3    1    1    2    0  502 -0.37878753594E+02  0.82823580955E+01 -0.30094018870E+03  0.30342774198E+03  0.00000000000E+00 0. -1.
<mgrwt>
<rscale>  1 0.30000000E+03</rscale>
<asrwt>0</asrwt>
<pdfrwt beam="1">  1       21 0.65003437E-02 0.30000000E+03</pdfrwt>
<pdfrwt beam="2">0</pdfrwt>
<totfact> 0.18348365E+04</totfact>
</mgrwt>
</event>
<event>
 6    1  0.1280499E-001  0.3000000E+03  0.7818608E-02  0.1093470E+00
         21   -1    0    0  501  502  0.00000000000E+00  0.00000000000E+00  0.10294073790E+01  0.10294073790E+01  0.00000000000E+00 0. -1.
         13   -1    0    0    0    0 -0.00000000000E+00 -0.00000000000E+00 -0.10000000000E+04  0.10000000000E+04  0.00000000000E+00 0.  1.
    9000005    2    1    2  501    0  0.68554648281E+01 -0.29821828677E+02 -0.35530681730E+03  0.35663869164E+03  0.34471865007E+01 0.  0.
         13    1    3    3    0    0  0.16950900568E+01 -0.88562826873E+01 -0.87734823858E+02  0.88196974952E+02  0.00000000000E+00 0.  1.
          3    1    3    3  501    0  0.51603747713E+01 -0.20965545990E+02 -0.26757199344E+03  0.26844171669E+03  0.00000000000E+00 0.  1.
         -3    1    1    2    0  502 -0.68554648281E+01  0.29821828677E+02 -0.64366377533E+03  0.64439071574E+03  0.00000000000E+00 0. -1.
<mgrwt>
<rscale>  1 0.30000000E+03</rscale>
<asrwt>0</asrwt>
<pdfrwt beam="1">  1       21 0.37433075E-02 0.30000000E+03</pdfrwt>
<pdfrwt beam="2">0</pdfrwt>
<totfact> 0.47008065E+04</totfact>
</mgrwt>
</event>
<event>
 6    1  0.1280499E-001  0.3000000E+03  0.7818608E-02  0.1093470E+00
         21   -1    0    0  501  502  0.00000000000E+00  0.00000000000E+00  0.66261138926E+01  0.66261138926E+01  0.00000000000E+00 0. -1.
         13   -1    0    0    0    0 -0.00000000000E+00 -0.00000000000E+00 -0.10000000000E+04  0.10000000000E+04  0.00000000000E+00 0.  1.
    9000005    2    1    2  501    0 -0.28290992567E+02 -0.76133992146E+02 -0.51438790942E+03  0.52080276031E+03  0.66203301534E+01 0.  0.
         13    1    3    3    0    0 -0.18388828425E+02 -0.54754938285E+02 -0.38010626547E+03  0.38446979768E+03  0.00000000000E+00 0.  1.
          1    1    3    3  501    0 -0.99021641423E+01 -0.21379053861E+02 -0.13428164395E+03  0.13633296263E+03  0.00000000000E+00 0.  1.
         -1    1    1    2    0  502  0.28290992567E+02  0.76133992146E+02 -0.47898597669E+03  0.48582335358E+03  0.00000000000E+00 0. -1.
<mgrwt>
<rscale>  1 0.30000000E+03</rscale>
<asrwt>0</asrwt>
<pdfrwt beam="1">  1       21 0.24095010E-01 0.30000000E+03</pdfrwt>
<pdfrwt beam="2">0</pdfrwt>
<totfact> 0.16759719E+03</totfact>
</mgrwt>
</event>
<event>
 6    1  0.1280499E-001  0.3000000E+03  0.7818608E-02  0.1093470E+00
         21   -1    0    0  501  502  0.00000000000E+00  0.00000000000E+00  0.41268373170E+01  0.41268373170E+01  0.00000000000E+00 0. -1.
         13   -1    0    0    0    0 -0.00000000000E+00 -0.00000000000E+00 -0.10000000000E+04  0.10000000000E+04  0.00000000000E+00 0.  1.
    9000005    2    1    2  501    0 -0.81958523212E+01  0.45654840015E+02 -0.84515896265E+03  0.84643629701E+03  0.30325449484E+01 0.  0.
         13    1    3    3    0    0 -0.31949762172E+01  0.12752028142E+02 -0.25861686521E+03  0.25895077731E+03  0.00000000000E+00 0.  1.
          1    1    3    3  501    0 -0.50008761040E+01  0.32902811873E+02 -0.58654209744E+03  0.58748551970E+03  0.00000000000E+00 0.  1.
         -1    1    1    2    0  502  0.81958523212E+01 -0.45654840015E+02 -0.15071420003E+03  0.15769054031E+03  0.00000000000E+00 0. -1.
<mgrwt>
<rscale>  1 0.30000000E+03</rscale>
<asrwt>0</asrwt>
<pdfrwt beam="1">  1       21 0.15006713E-01 0.30000000E+03</pdfrwt>
<pdfrwt beam="2">0</pdfrwt>
<totfact> 0.41146271E+03</totfact>
</mgrwt>
</event>
<event>
 6    1  0.1280499E-001  0.3000000E+03  0.7818608E-02  0.1093470E+00
         21   -1    0    0  501  502  0.00000000000E+00  0.00000000000E+00  0.11034377526E+01  0.11034377526E+01  0.00000000000E+00 0. -1.
         13   -1    0    0    0    0 -0.00000000000E+00 -0.00000000000E+00 -0.10000000000E+04  0.10000000000E+04  0.00000000000E+00 0.  1.
    9000005    2    1    2  501    0 -0.19355459225E+02  0.23467342045E+02 -0.69870707924E+03  0.69937661486E+03  0.32736659599E+01 0.  0.
         13    1    3    3    0    0 -0.16795547658E+02  0.21625236479E+02 -0.61208831179E+03  0.61270045104E+03  0.00000000000E+00 0.  1.
          1    1    3    3  501    0 -0.25599115676E+01  0.18421055659E+01 -0.86618767449E+02  0.86676163820E+02  0.00000000000E+00 0.  1.
         -3    1    1    2    0  502  0.19355459225E+02 -0.23467342045E+02 -0.30018948301E+03  0.30172682290E+03  0.00000000000E+00 0. -1.
<mgrwt>
<rscale>  1 0.30000000E+03</rscale>
<asrwt>0</asrwt>
<pdfrwt beam="1">  1       21 0.40125094E-02 0.30000000E+03</pdfrwt>
<pdfrwt beam="2">0</pdfrwt>
<totfact> 0.41826788E+04</totfact>
</mgrwt>
</event>
<event>
 6    1  0.1280499E-001  0.3000000E+03  0.7818608E-02  0.1093470E+00
         21   -1    0    0  501  502  0.00000000000E+00  0.00000000000E+00  0.15895212092E+01  0.15895212092E+01  0.00000000000E+00 0. -1.
         13   -1    0    0    0    0 -0.00000000000E+00 -0.00000000000E+00 -0.10000000000E+04  0.10000000000E+04  0.00000000000E+00 0.  1.
    9000005    2    1    2  501    0  0.24347214254E+02  0.31360576587E+02 -0.53800057529E+03  0.53947097382E+03  0.28354838758E+01 0.  0.
         13    1    3    3    0    0  0.13591184347E+02  0.19258373413E+02 -0.30680820458E+03  0.30771233260E+03  0.00000000000E+00 0.  1.
          3    1    3    3  501    0  0.10756029908E+02  0.12102203174E+02 -0.23119237072E+03  0.23175864122E+03  0.00000000000E+00 0.  1.
         -1    1    1    2    0  502 -0.24347214254E+02 -0.31360576587E+02 -0.46040990350E+03  0.46211854739E+03  0.00000000000E+00 0. -1.
<mgrwt>
<rscale>  1 0.30000000E+03</rscale>
<asrwt>0</asrwt>
<pdfrwt beam="1">  1       21 0.57800893E-02 0.30000000E+03</pdfrwt>
<pdfrwt beam="2">0</pdfrwt>
<totfact> 0.22472242E+04</totfact>
</mgrwt>
</event>
<event>
 6    1  0.1280499E-001  0.3000000E+03  0.7818608E-02  0.1093470E+00
         21   -1    0    0  501  502  0.00000000000E+00  0.00000000000E+00  0.15933621046E+01  0.15933621046E+01  0.00000000000E+00 0. -1.
         13   -1    0    0    0    0 -0.00000000000E+00 -0.00000000000E+00 -0.10000000000E+04  0.10000000000E+04  0.00000000000E+00 0.  1.
    9000005    2    1    2  501    0 -0.38882658670E+02 -0.73788895033E+01 -0.44201360228E+03  0.44379454601E+03  0.33563837413E+01 0.  0.
         13    1    3    3    0    0 -0.36908165518E+02 -0.62289688365E+01 -0.41794844266E+03  0.41962115468E+03  0.00000000000E+00 0.  1.
          1    1    3    3  501    0 -0.19744931522E+01 -0.11499206668E+01 -0.24065159614E+02  0.24173391322E+02  0.00000000000E+00 0.  1.
         -3    1    1    2    0  502  0.38882658670E+02  0.73788895033E+01 -0.55639303562E+03  0.55779881610E+03  0.00000000000E+00 0. -1.
<mgrwt>
<rscale>  1 0.30000000E+03</rscale>
<asrwt>0</asrwt>
<pdfrwt beam="1">  1       21 0.57940562E-02 0.30000000E+03</pdfrwt>
<pdfrwt beam="2">0</pdfrwt>
<totfact> 0.22379052E+04</totfact>
</mgrwt>
</event>
<event>
 6    1  0.1280499E-001  0.3000000E+03  0.7818608E-02  0.1093470E+00
         21   -1    0    0  501  502  0.00000000000E+00  0.00000000000E+00  0.26546780932E+01  0.26546780932E+01  0.00000000000E+00 0. -1.
         13   -1    0    0    0    0 -0.00000000000E+00 -0.00000000000E+00 -0.10000000000E+04  0.10000000000E+04  0.00000000000E+00 0.  1.
    9000005    2    1    2  501    0  0.42583845721E+02 -0.18851851633E+02 -0.71213541954E+03  0.71366771535E+03  0.39969920689E+01 0.  0.
         13    1    3    3    0    0  0.90753888991E+01 -0.24821852260E+01 -0.15558640650E+03  0.15587063166E+03  0.00000000000E+00 0.  1.
          1    1    3    3  501    0  0.33508456822E+02 -0.16369666407E+02 -0.55654901304E+03  0.55779708369E+03  0.00000000000E+00 0.  1.
         -1    1    1    2    0  502 -0.42583845721E+02  0.18851851633E+02 -0.28520990237E+03  0.28898696274E+03  0.00000000000E+00 0. -1.
<mgrwt>
<rscale>  1 0.30000000E+03</rscale>
<asrwt>0</asrwt>
<pdfrwt beam="1">  1       21 0.96533952E-02 0.30000000E+03</pdfrwt>
<pdfrwt beam="2">0</pdfrwt>
<totfact> 0.91623456E+03</totfact>
</mgrwt>
</event>
<event>
 6    1  0.1280499E-001  0.3000000E+03  0.7818608E-02  0.1093470E+00
         21   -1    0    0  501  502  0.00000000000E+00  0.00000000000E+00  0.12749509330E+01  0.12749509330E+01  0.00000000000E+00 0. -1.
         13   -1    0    0    0    0 -0.00000000000E+00 -0.00000000000E+00 -0.10000000000E+04  0.10000000000E+04  0.00000000000E+00 0.  1.
    9000005    2    1    2  501    0  0.33301037012E+02  0.14331670107E+01 -0.32335030576E+03  0.32507819189E+03  0.30655469722E+01 0.  0.
         13    1    3    3    0    0  0.22557098482E+02  0.24012136303E+01 -0.21828327894E+03  0.21945883073E+03  0.00000000000E+00 0.  1.
          3    1    3    3  501    0  0.10743938530E+02 -0.96804661959E+00 -0.10506702682E+03  0.10561936117E+03  0.00000000000E+00 0.  1.
         -3    1    1    2    0  502 -0.33301037012E+02 -0.14331670107E+01 -0.67537474331E+03  0.67619675904E+03  0.00000000000E+00 0. -1.
<mgrwt>
<rscale>  1 0.30000000E+03</rscale>
<asrwt>0</asrwt>
<pdfrwt beam="1">  1       21 0.46361950E-02 0.30000000E+03</pdfrwt>
<pdfrwt beam="2">0</pdfrwt>
<totfact> 0.32756624E+04</totfact>
</mgrwt>
</event>
<event>
 6    1  0.1280499E-001  0.3000000E+03  0.7818608E-02  0.1093470E+00
         21   -1    0    0  501  502  0.00000000000E+00  0.00000000000E+00  0.18515696212E+01  0.18515696212E+01  0.00000000000E+00 0. -1.
         13   -1    0    0    0    0 -0.00000000000E+00 -0.00000000000E+00 -0.10000000000E+04  0.10000000000E+04  0.00000000000E+00 0.  1.
    9000005    2    1    2  501    0 -0.50184431086E+01 -0.31112392853E+02 -0.16051178826E+03  0.16362229909E+03  0.38803128541E+01 0.  0.
         13    1    3    3    0    0 -0.15979228339E+01 -0.64079430513E+01 -0.41851528523E+02  0.42369393803E+02  0.00000000000E+00 0.  1.
          3    1    3    3  501    0 -0.34205202747E+01 -0.24704449802E+02 -0.11866025974E+03  0.12125290529E+03  0.00000000000E+00 0.  1.
         -1    1    1    2    0  502  0.50184431086E+01  0.31112392853E+02 -0.83763664211E+03  0.83822927053E+03  0.00000000000E+00 0. -1.
<mgrwt>
<rscale>  1 0.30000000E+03</rscale>
<asrwt>0</asrwt>
<pdfrwt beam="1">  1       21 0.67329946E-02 0.30000000E+03</pdfrwt>
<pdfrwt beam="2">0</pdfrwt>
<totfact> 0.17263414E+04</totfact>
</mgrwt>
</event>
<event>
 6    1  0.1280499E-001  0.3000000E+03  0.7818608E-02  0.1093470E+00
         21   -1    0    0  501  502  0.00000000000E+00  0.00000000000E+00  0.85412919346E+01  0.85412919346E+01  0.00000000000E+00 0. -1.
         13   -1    0    0    0    0 -0.00000000000E+00 -0.00000000000E+00 -0.10000000000E+04  0.10000000000E+04  0.00000000000E+00 0.  1.
    9000005    2    1    2  501    0  0.74806991887E+02  0.38351938001E+01 -0.79098384317E+03  0.79452968897E+03  0.33454087492E+01 0.  0.
         13    1    3    3    0    0  0.79998606439E+00 -0.71712654455E-02 -0.55162685962E+01  0.55739795798E+01  0.00000000000E+00 0.  1.
          1    1    3    3  501    0  0.74007005822E+02  0.38423650655E+01 -0.78546757457E+03  0.78895570939E+03  0.00000000000E+00 0.  1.
         -3    1    1    2    0  502 -0.74806991887E+02 -0.38351938001E+01 -0.20047486490E+03  0.21401160296E+03  0.00000000000E+00 0. -1.
<mgrwt>
<rscale>  1 0.30000000E+03</rscale>
<asrwt>0</asrwt>
<pdfrwt beam="1">  1       21 0.31059309E-01 0.30000000E+03</pdfrwt>
<pdfrwt beam="2">0</pdfrwt>
<totfact> 0.10141788E+03</totfact>
</mgrwt>
</event>
<event>
 6    1  0.1280499E-001  0.3000000E+03  0.7818608E-02  0.1093470E+00
         21   -1    0    0  501  502  0.00000000000E+00  0.00000000000E+00  0.58916960242E+01  0.58916960242E+01  0.00000000000E+00 0. -1.
         13   -1    0    0    0    0 -0.00000000000E+00 -0.00000000000E+00 -0.10000000000E+04  0.10000000000E+04  0.00000000000E+00 0.  1.
    9000005    2    1    2  501    0  0.47355346611E+02 -0.51567018439E+02 -0.70307228547E+03  0.70655300773E+03  0.21972459478E+01 0.  0.
         13    1    3    3    0    0  0.24126834537E+02 -0.27295332824E+02 -0.37435265304E+03  0.37612105522E+03  0.00000000000E+00 0.  1.
          3    1    3    3  501    0  0.23228512074E+02 -0.24271685615E+02 -0.32871963243E+03  0.33043195251E+03  0.00000000000E+00 0.  1.
         -3    1    1    2    0  502 -0.47355346611E+02  0.51567018439E+02 -0.29103601851E+03  0.29933868830E+03  0.00000000000E+00 0. -1.
<mgrwt>
<rscale>  1 0.30000000E+03</rscale>
<asrwt>0</asrwt>
<pdfrwt beam="1">  1       21 0.21424394E-01 0.30000000E+03</pdfrwt>
<pdfrwt beam="2">0</pdfrwt>
<totfact> 0.21031207E+03</totfact>
</mgrwt>
</event>
<event>
 6    1  0.1280499E-001  0.3000000E+03  0.7818608E-02  0.1093470E+00
         21   -1    0    0  501  502  0.00000000000E+00  0.00000000000E+00  0.15622994831E+01  0.15622994831E+01  0.00000000000E+00 0. -1.
         13   -1    0    0    0    0 -0.00000000000E+00 -0.00000000000E+00 -0.10000000000E+04  0.10000000000E+04  0.00000000000E+00 0.  1.
    9000005    2    1    2  501    0  0.22921871923E+02  0.20891281631E+02 -0.80919543576E+03  0.80979553325E+03  0.31136085969E+01 0.  0.
         13    1    3    3    0    0  0.10770648339E+02  0.79449247420E+01 -0.36556867990E+03  0.36581359791E+03  0.00000000000E+00 0.  1.
          3    1    3    3  501    0  0.12151223584E+02  0.12946356889E+02 -0.44362675586E+03  0.44398193534E+03  0.00000000000E+00 0.  1.
         -3    1    1    2    0  502 -0.22921871923E+02 -0.20891281631E+02 -0.18924226476E+03  0.19176676623E+03  0.00000000000E+00 0. -1.
<mgrwt>
<rscale>  1 0.30000000E+03</rscale>
<asrwt>0</asrwt>
<pdfrwt beam="1">  1       21 0.56811010E-02 0.30000000E+03</pdfrwt>
<pdfrwt beam="2">0</pdfrwt>
<totfact> 0.23150070E+04</totfact>
</mgrwt>
</event>
<event>
 6    1  0.1280499E-001  0.3000000E+03  0.7818608E-02  0.1093470E+00
         21   -1    0    0  501  502  0.00000000000E+00  0.00000000000E+00  0.43652174740E+01  0.43652174740E+01  0.00000000000E+00 0. -1.
         13   -1    0    0    0    0 -0.00000000000E+00 -0.00000000000E+00 -0.10000000000E+04  0.10000000000E+04  0.00000000000E+00 0.  1.
    9000005    2    1    2  501    0 -0.63880592133E+02 -0.26081827082E+01 -0.62359959818E+03  0.62687652750E+03  0.31920541256E+01 0.  0.
         13    1    3    3    0    0 -0.42625153596E+02 -0.25484131428E+01 -0.40374320396E+03  0.40599504046E+03  0.00000000000E+00 0.  1.
          3    1    3    3  501    0 -0.21255438537E+02 -0.59769565336E-01 -0.21985639421E+03  0.22088148704E+03  0.00000000000E+00 0.  1.
         -1    1    1    2    0  502  0.63880592133E+02  0.26081827082E+01 -0.37203518435E+03  0.37748868998E+03  0.00000000000E+00 0. -1.
<mgrwt>
<rscale>  1 0.30000000E+03</rscale>
<asrwt>0</asrwt>
<pdfrwt beam="1">  1       21 0.15873552E-01 0.30000000E+03</pdfrwt>
<pdfrwt beam="2">0</pdfrwt>
<totfact> 0.37070699E+03</totfact>
</mgrwt>
</event>
<event>
 6    1  0.1280499E-001  0.3000000E+03  0.7818608E-02  0.1093470E+00
         21   -1    0    0  501  502  0.00000000000E+00  0.00000000000E+00  0.17088844075E+01  0.17088844075E+01  0.00000000000E+00 0. -1.
         13   -1    0    0    0    0 -0.00000000000E+00 -0.00000000000E+00 -0.10000000000E+04  0.10000000000E+04  0.00000000000E+00 0.  1.
    9000005    2    1    2  501    0  0.23953790652E+02 -0.30313335105E+02 -0.67593789316E+03  0.67704862755E+03  0.31821820379E+01 0.  0.
         13    1    3    3    0    0  0.37636078967E+01 -0.38495223654E+01 -0.78770841794E+02  0.78954601410E+02  0.00000000000E+00 0.  1.
          1    1    3    3  501    0  0.20190182756E+02 -0.26463812740E+02 -0.59716705137E+03  0.59809402614E+03  0.00000000000E+00 0.  1.
         -3    1    1    2    0  502 -0.23953790652E+02  0.30313335105E+02 -0.32235322243E+03  0.32466025686E+03  0.00000000000E+00 0. -1.
<mgrwt>
<rscale>  1 0.30000000E+03</rscale>
<asrwt>0</asrwt>
<pdfrwt beam="1">  1       21 0.62141382E-02 0.30000000E+03</pdfrwt>
<pdfrwt beam="2">0</pdfrwt>
<totfact> 0.19834158E+04</totfact>
</mgrwt>
</event>
<event>
 6    1  0.1280499E-001  0.3000000E+03  0.7818608E-02  0.1093470E+00
         21   -1    0    0  501  502  0.00000000000E+00  0.00000000000E+00  0.12022220850E+01  0.12022220850E+01  0.00000000000E+00 0. -1.
         13   -1    0    0    0    0 -0.00000000000E+00 -0.00000000000E+00 -0.10000000000E+04  0.10000000000E+04  0.00000000000E+00 0.  1.
    9000005    2    1    2  501    0  0.18697707083E+02 -0.24156289792E+02 -0.73457007941E+03  0.73521461477E+03  0.37679734197E+01 0.  0.
         13    1    3    3    0    0  0.16132157797E+02 -0.22503120807E+02 -0.64989437684E+03  0.65048392602E+03  0.00000000000E+00 0.  1.
          1    1    3    3  501    0  0.25655492863E+01 -0.16531689845E+01 -0.84675702564E+02  0.84730688747E+02  0.00000000000E+00 0.  1.
         -1    1    1    2    0  502 -0.18697707083E+02  0.24156289792E+02 -0.26422769851E+03  0.26598760732E+03  0.00000000000E+00 0. -1.
<mgrwt>
<rscale>  1 0.30000000E+03</rscale>
<asrwt>0</asrwt>
<pdfrwt beam="1">  1       21 0.43717259E-02 0.30000000E+03</pdfrwt>
<pdfrwt beam="2">0</pdfrwt>
<totfact> 0.36189365E+04</totfact>
</mgrwt>
</event>
<event>
 6    1  0.1280499E-001  0.3000000E+03  0.7818608E-02  0.1093470E+00
         21   -1    0    0  501  502  0.00000000000E+00  0.00000000000E+00  0.24533258533E+01  0.24533258533E+01  0.00000000000E+00 0. -1.
         13   -1    0    0    0    0 -0.00000000000E+00 -0.00000000000E+00 -0.10000000000E+04  0.10000000000E+04  0.00000000000E+00 0.  1.
    9000005    2    1    2  501    0 -0.47224143612E+01 -0.32256914400E+02 -0.87597821482E+03  0.87658951045E+03  0.29201495750E+01 0.  0.
         13    1    3    3    0    0 -0.27886053759E+01 -0.10247272188E+02 -0.27132642930E+03  0.27153418596E+03  0.00000000000E+00 0.  1.
          1    1    3    3  501    0 -0.19338089853E+01 -0.22009642212E+02 -0.60465178552E+03  0.60505532449E+03  0.00000000000E+00 0.  1.
         -1    1    1    2    0  502  0.47224143612E+01  0.32256914400E+02 -0.12156845933E+03  0.12586381540E+03  0.00000000000E+00 0. -1.
<mgrwt>
<rscale>  1 0.30000000E+03</rscale>
<asrwt>0</asrwt>
<pdfrwt beam="1">  1       21 0.89212037E-02 0.30000000E+03</pdfrwt>
<pdfrwt beam="2">0</pdfrwt>
<totfact> 0.10540975E+04</totfact>
</mgrwt>
</event>
<event>
 6    1  0.1280499E-001  0.3000000E+03  0.7818608E-02  0.1093470E+00
         21   -1    0    0  501  502  0.00000000000E+00  0.00000000000E+00  0.13789525709E+01  0.13789525709E+01  0.00000000000E+00 0. -1.
         13   -1    0    0    0    0 -0.00000000000E+00 -0.00000000000E+00 -0.10000000000E+04  0.10000000000E+04  0.00000000000E+00 0.  1.
    9000005    2    1    2  501    0  0.41880718253E+01 -0.36498462197E+02 -0.56089379671E+03  0.56211271928E+03  0.43795318362E+01 0.  0.
         13    1    3    3    0    0  0.40625326234E+01 -0.32914026737E+02 -0.48363850945E+03  0.48477422080E+03  0.00000000000E+00 0.  1.
          3    1    3    3  501    0  0.12553920192E+00 -0.35844354599E+01 -0.77255287260E+02  0.77338498481E+02  0.00000000000E+00 0.  1.
         -1    1    1    2    0  502 -0.41880718253E+01  0.36498462197E+02 -0.43772725072E+03  0.43926623329E+03  0.00000000000E+00 0. -1.
<mgrwt>
<rscale>  1 0.30000000E+03</rscale>
<asrwt>0</asrwt>
<pdfrwt beam="1">  1       21 0.50143836E-02 0.30000000E+03</pdfrwt>
<pdfrwt beam="2">0</pdfrwt>
<totfact> 0.28663935E+04</totfact>
</mgrwt>
</event>
<event>
 6    1  0.1280499E-001  0.3000000E+03  0.7818608E-02  0.1093470E+00
         21   -1    0    0  501  502  0.00000000000E+00  0.00000000000E+00  0.26952434995E+01  0.26952434995E+01  0.00000000000E+00 0. -1.
         13   -1    0    0    0    0 -0.00000000000E+00 -0.00000000000E+00 -0.10000000000E+04  0.10000000000E+04  0.00000000000E+00 0.  1.
    9000005    2    1    2  501    0 -0.14487428265E+02 -0.34966692563E+02 -0.84134868358E+03  0.84221206106E+03  0.45818401484E+01 0.  0.
         13    1    3    3    0    0 -0.15375262950E+01 -0.29787758555E+01 -0.10773799774E+03  0.10779013522E+03  0.00000000000E+00 0.  1.
          3    1    3    3  501    0 -0.12949901970E+02 -0.31987916707E+02 -0.73361068584E+03  0.73442192584E+03  0.00000000000E+00 0.  1.
         -3    1    1    2    0  502  0.14487428265E+02  0.34966692563E+02 -0.15595607292E+03  0.16048318244E+03  0.00000000000E+00 0. -1.
<mgrwt>
<rscale>  1 0.30000000E+03</rscale>
<asrwt>0</asrwt>
<pdfrwt beam="1">  1       21 0.98009061E-02 0.30000000E+03</pdfrwt>
<pdfrwt beam="2">0</pdfrwt>
<totfact> 0.89177774E+03</totfact>
</mgrwt>
</event>
<event>
 6    1  0.1280499E-001  0.3000000E+03  0.7818608E-02  0.1093470E+00
         21   -1    0    0  501  502  0.00000000000E+00  0.00000000000E+00  0.16003147173E+01  0.16003147173E+01  0.00000000000E+00 0. -1.
         13   -1    0    0    0    0 -0.00000000000E+00 -0.00000000000E+00 -0.10000000000E+04  0.10000000000E+04  0.00000000000E+00 0.  1.
    9000005    2    1    2  501    0  0.30801583850E+02  0.22147532029E+02 -0.65175759311E+03  0.65288841242E+03  0.60056760052E+01 0.  0.
         13    1    3    3    0    0  0.14537779368E+02  0.13851071287E+02 -0.32129960188E+03  0.32192644093E+03  0.00000000000E+00 0.  1.
          1    1    3    3  501    0  0.16263804482E+02  0.82964607426E+01 -0.33045799124E+03  0.33096197149E+03  0.00000000000E+00 0.  1.
         -1    1    1    2    0  502 -0.30801583850E+02 -0.22147532029E+02 -0.34664209217E+03  0.34871190230E+03  0.00000000000E+00 0. -1.
<mgrwt>
<rscale>  1 0.30000000E+03</rscale>
<asrwt>0</asrwt>
<pdfrwt beam="1">  1       21 0.58193385E-02 0.30000000E+03</pdfrwt>
<pdfrwt beam="2">0</pdfrwt>
<totfact> 0.22211858E+04</totfact>
</mgrwt>
</event>
<event>
 6    1  0.1280499E-001  0.3000000E+03  0.7818608E-02  0.1093470E+00
         21   -1    0    0  501  502  0.00000000000E+00  0.00000000000E+00  0.13720493942E+01  0.13720493942E+01  0.00000000000E+00 0. -1.
         13   -1    0    0    0    0 -0.00000000000E+00 -0.00000000000E+00 -0.10000000000E+04  0.10000000000E+04  0.00000000000E+00 0.  1.
    9000005    2    1    2  501    0  0.13951335863E+02 -0.27433017686E+02 -0.77721892127E+03  0.77783420360E+03  0.30962033914E+01 0.  0.
         13    1    3    3    0    0  0.79106831591E+01 -0.16601331086E+02 -0.42720949277E+03  0.42760511434E+03  0.00000000000E+00 0.  1.
          3    1    3    3  501    0  0.60406527039E+01 -0.10831686600E+02 -0.35000942850E+03  0.35022908926E+03  0.00000000000E+00 0.  1.
         -1    1    1    2    0  502 -0.13951335863E+02  0.27433017686E+02 -0.22140902934E+03  0.22353784580E+03  0.00000000000E+00 0. -1.
<mgrwt>
<rscale>  1 0.30000000E+03</rscale>
<asrwt>0</asrwt>
<pdfrwt beam="1">  1       21 0.49892810E-02 0.30000000E+03</pdfrwt>
<pdfrwt beam="2">0</pdfrwt>
<totfact> 0.28910224E+04</totfact>
</mgrwt>
</event>
<event>
 6    1  0.1280499E-001  0.3000000E+03  0.7818608E-02  0.1093470E+00
         21   -1    0    0  501  502  0.00000000000E+00  0.00000000000E+00  0.11789650065E+01  0.11789650065E+01  0.00000000000E+00 0. -1.
         13   -1    0    0    0    0 -0.00000000000E+00 -0.00000000000E+00 -0.10000000000E+04  0.10000000000E+04  0.00000000000E+00 0.  1.
    9000005    2    1    2  501    0 -0.21762585547E+02 -0.21839416902E+02 -0.71788530753E+03  0.71855650796E+03  0.36837626445E+01 0.  0.
         13    1    3    3    0    0 -0.25195952011E+01 -0.37001374077E+01 -0.82901744053E+02  0.83022518294E+02  0.00000000000E+00 0.  1.
          1    1    3    3  501    0 -0.19242990346E+02 -0.18139279494E+02 -0.63498356348E+03  0.63553398967E+03  0.00000000000E+00 0.  1.
         -1    1    1    2    0  502  0.21762585547E+02  0.21839416902E+02 -0.28093572746E+03  0.28262245704E+03  0.00000000000E+00 0. -1.
<mgrwt>
<rscale>  1 0.30000000E+03</rscale>
<asrwt>0</asrwt>
<pdfrwt beam="1">  1       21 0.42871545E-02 0.30000000E+03</pdfrwt>
<pdfrwt beam="2">0</pdfrwt>
<totfact> 0.37405509E+04</totfact>
</mgrwt>
</event>
<event>
 6    1  0.1280499E-001  0.3000000E+03  0.7818608E-02  0.1093470E+00
         21   -1    0    0  501  502  0.00000000000E+00  0.00000000000E+00  0.29501410502E+01  0.29501410502E+01  0.00000000000E+00 0. -1.
         13   -1    0    0    0    0 -0.00000000000E+00 -0.00000000000E+00 -0.10000000000E+04  0.10000000000E+04  0.00000000000E+00 0.  1.
    9000005    2    1    2  501    0 -0.37202450710E+02  0.19402109717E+02 -0.81631387756E+03  0.81740780311E+03  0.51677542006E+01 0.  0.
         13    1    3    3    0    0 -0.16889294635E+02  0.11342770906E+02 -0.41820739879E+03  0.41870196456E+03  0.00000000000E+00 0.  1.
          1    1    3    3  501    0 -0.20313156075E+02  0.80593388117E+01 -0.39810647877E+03  0.39870583855E+03  0.00000000000E+00 0.  1.
         -3    1    1    2    0  502  0.37202450710E+02 -0.19402109717E+02 -0.18073598139E+03  0.18554233794E+03  0.00000000000E+00 0. -1.
<mgrwt>
<rscale>  1 0.30000000E+03</rscale>
<asrwt>0</asrwt>
<pdfrwt beam="1">  1       21 0.10727808E-01 0.30000000E+03</pdfrwt>
<pdfrwt beam="2">0</pdfrwt>
<totfact> 0.75860619E+03</totfact>
</mgrwt>
</event>
<event>
 6    1  0.1280499E-001  0.3000000E+03  0.7818608E-02  0.1093470E+00
         21   -1    0    0  501  502  0.00000000000E+00  0.00000000000E+00  0.14510438506E+01  0.14510438506E+01  0.00000000000E+00 0. -1.
         13   -1    0    0    0    0 -0.00000000000E+00 -0.00000000000E+00 -0.10000000000E+04  0.10000000000E+04  0.00000000000E+00 0.  1.
    9000005    2    1    2  501    0 -0.26128639746E+01  0.37140861268E+02 -0.59660228042E+03  0.59778360552E+03  0.49686415774E+01 0.  0.
         13    1    3    3    0    0 -0.27423843064E+01  0.18227636594E+02 -0.26247918397E+03  0.26312561530E+03  0.00000000000E+00 0.  1.
          1    1    3    3  501    0  0.12952033187E+00  0.18913224674E+02 -0.33412309644E+03  0.33465799022E+03  0.00000000000E+00 0.  1.
         -3    1    1    2    0  502  0.26128639746E+01 -0.37140861268E+02 -0.40194667573E+03  0.40366743833E+03  0.00000000000E+00 0. -1.
<mgrwt>
<rscale>  1 0.30000000E+03</rscale>
<asrwt>0</asrwt>
<pdfrwt beam="1">  1       21 0.52765342E-02 0.30000000E+03</pdfrwt>
<pdfrwt beam="2">0</pdfrwt>
<totfact> 0.26275494E+04</totfact>
</mgrwt>
</event>
<event>
 6    1  0.1280499E-001  0.3000000E+03  0.7818608E-02  0.1093470E+00
         21   -1    0    0  501  502  0.00000000000E+00  0.00000000000E+00  0.20951562581E+01  0.20951562581E+01  0.00000000000E+00 0. -1.
         13   -1    0    0    0    0 -0.00000000000E+00 -0.00000000000E+00 -0.10000000000E+04  0.10000000000E+04  0.00000000000E+00 0.  1.
    9000005    2    1    2  501    0  0.24727940548E+02 -0.22643708159E+02 -0.83973302147E+03  0.84040862644E+03  0.33020431722E+01 0.  0.
         13    1    3    3    0    0  0.85422897718E+01 -0.79563328691E+01 -0.25439856196E+03  0.25466625664E+03  0.00000000000E+00 0.  1.
          1    1    3    3  501    0  0.16185650776E+02 -0.14687375290E+02 -0.58533445951E+03  0.58574236980E+03  0.00000000000E+00 0.  1.
         -1    1    1    2    0  502 -0.24727940548E+02  0.22643708159E+02 -0.15817182227E+03  0.16168652982E+03  0.00000000000E+00 0. -1.
<mgrwt>
<rscale>  1 0.30000000E+03</rscale>
<asrwt>0</asrwt>
<pdfrwt beam="1">  1       21 0.76187661E-02 0.30000000E+03</pdfrwt>
<pdfrwt beam="2">0</pdfrwt>
<totfact> 0.13916199E+04</totfact>
</mgrwt>
</event>
<event>
 6    1  0.1280499E-001  0.3000000E+03  0.7818608E-02  0.1093470E+00
         21   -1    0    0  501  502  0.00000000000E+00  0.00000000000E+00  0.11013172659E+01  0.11013172659E+01  0.00000000000E+00 0. -1.
         13   -1    0    0    0    0 -0.00000000000E+00 -0.00000000000E+00 -0.10000000000E+04  0.10000000000E+04  0.00000000000E+00 0.  1.
    9000005    2    1    2  501    0 -0.17981735167E+02 -0.26859149852E+02 -0.60820491268E+03  0.60907277406E+03  0.34163666018E+01 0.  0.
         13    1    3    3    0    0 -0.69445824252E+00 -0.10947593642E+01 -0.40399305238E+02  0.40420101856E+02  0.00000000000E+00 0.  1.
          1    1    3    3  501    0 -0.17287276924E+02 -0.25764390488E+02 -0.56780560744E+03  0.56865267220E+03  0.00000000000E+00 0.  1.
         -1    1    1    2    0  502  0.17981735167E+02  0.26859149852E+02 -0.39069377006E+03  0.39202854321E+03  0.00000000000E+00 0. -1.
<mgrwt>
<rscale>  1 0.30000000E+03</rscale>
<asrwt>0</asrwt>
<pdfrwt beam="1">  1       21 0.40047985E-02 0.30000000E+03</pdfrwt>
<pdfrwt beam="2">0</pdfrwt>
<totfact> 0.41962513E+04</totfact>
</mgrwt>
</event>
<event>
 6    1  0.1280499E-001  0.3000000E+03  0.7818608E-02  0.1093470E+00
         21   -1    0    0  501  502  0.00000000000E+00  0.00000000000E+00  0.16868864738E+01  0.16868864738E+01  0.00000000000E+00 0. -1.
         13   -1    0    0    0    0 -0.00000000000E+00 -0.00000000000E+00 -0.10000000000E+04  0.10000000000E+04  0.00000000000E+00 0.  1.
    9000005    2    1    2  501    0  0.23564575148E+02 -0.33363579830E+02 -0.45335610854E+03  0.45520124628E+03  0.28276842084E+01 0.  0.
         13    1    3    3    0    0  0.10809023626E+01 -0.77869867248E+00 -0.12287590700E+02  0.12359595736E+02  0.00000000000E+00 0.  1.
          3    1    3    3  501    0  0.22483672785E+02 -0.32584881157E+02 -0.44106851784E+03  0.44284165054E+03  0.00000000000E+00 0.  1.
         -1    1    1    2    0  502 -0.23564575148E+02  0.33363579830E+02 -0.54495700498E+03  0.54648564019E+03  0.00000000000E+00 0. -1.
<mgrwt>
<rscale>  1 0.30000000E+03</rscale>
<asrwt>0</asrwt>
<pdfrwt beam="1">  1       21 0.61341456E-02 0.30000000E+03</pdfrwt>
<pdfrwt beam="2">0</pdfrwt>
<totfact> 0.20282893E+04</totfact>
</mgrwt>
</event>
<event>
 6    1  0.1280499E-001  0.3000000E+03  0.7818608E-02  0.1093470E+00
         21   -1    0    0  501  502  0.00000000000E+00  0.00000000000E+00  0.14750450899E+01  0.14750450899E+01  0.00000000000E+00 0. -1.
         13   -1    0    0    0    0 -0.00000000000E+00 -0.00000000000E+00 -0.10000000000E+04  0.10000000000E+04  0.00000000000E+00 0.  1.
    9000005    2    1    2  501    0 -0.28573549696E+02 -0.18520665942E+02 -0.72964375850E+03  0.73044633703E+03  0.35176916953E+01 0.  0.
         13    1    3    3    0    0 -0.12133364121E+02 -0.65402291775E+01 -0.26695863949E+03  0.26731425013E+03  0.00000000000E+00 0.  1.
          1    1    3    3  501    0 -0.16440185574E+02 -0.11980436764E+02 -0.46268511901E+03  0.46313208690E+03  0.00000000000E+00 0.  1.
         -3    1    1    2    0  502  0.28573549696E+02  0.18520665942E+02 -0.26888119641E+03  0.27102870806E+03  0.00000000000E+00 0. -1.
<mgrwt>
<rscale>  1 0.30000000E+03</rscale>
<asrwt>0</asrwt>
<pdfrwt beam="1">  1       21 0.53638116E-02 0.30000000E+03</pdfrwt>
<pdfrwt beam="2">0</pdfrwt>
<totfact> 0.25548316E+04</totfact>
</mgrwt>
</event>
<event>
 6    1  0.1280499E-001  0.3000000E+03  0.7818608E-02  0.1093470E+00
         21   -1    0    0  501  502  0.00000000000E+00  0.00000000000E+00  0.13160306891E+01  0.13160306891E+01  0.00000000000E+00 0. -1.
         13   -1    0    0    0    0 -0.00000000000E+00 -0.00000000000E+00 -0.10000000000E+04  0.10000000000E+04  0.00000000000E+00 0.  1.
    9000005    2    1    2  501    0  0.27938177031E+02 -0.22692854681E+02 -0.55410060810E+03  0.55527805871E+03  0.32758493528E+01 0.  0.
         13    1    3    3    0    0  0.57695834636E+01 -0.51886490447E+01 -0.14044355654E+03  0.14065775039E+03  0.00000000000E+00 0.  1.
          3    1    3    3  501    0  0.22168593567E+02 -0.17504205637E+02 -0.41365705156E+03  0.41462030831E+03  0.00000000000E+00 0.  1.
         -1    1    1    2    0  502 -0.27938177031E+02  0.22692854681E+02 -0.44458336121E+03  0.44603797198E+03  0.00000000000E+00 0. -1.
<mgrwt>
<rscale>  1 0.30000000E+03</rscale>
<asrwt>0</asrwt>
<pdfrwt beam="1">  1       21 0.47855762E-02 0.30000000E+03</pdfrwt>
<pdfrwt beam="2">0</pdfrwt>
<totfact> 0.31037065E+04</totfact>
</mgrwt>
</event>
<event>
 6    1  0.1280499E-001  0.3000000E+03  0.7818608E-02  0.1093470E+00
         21   -1    0    0  501  502  0.00000000000E+00  0.00000000000E+00  0.98764530351E+00  0.98764530351E+00  0.00000000000E+00 0. -1.
         13   -1    0    0    0    0 -0.00000000000E+00 -0.00000000000E+00 -0.10000000000E+04  0.10000000000E+04  0.00000000000E+00 0.  1.
    9000005    2    1    2  501    0  0.25192615882E+02  0.18118816438E+02 -0.57129495957E+03  0.57214603177E+03  0.31924028773E+01 0.  0.
         13    1    3    3    0    0  0.64063456978E+01  0.32908398057E+01 -0.11775797781E+03  0.11797801588E+03  0.00000000000E+00 0.  1.
          1    1    3    3  501    0  0.18786270184E+02  0.14827976632E+02 -0.45353698176E+03  0.45416801589E+03  0.00000000000E+00 0.  1.
         -1    1    1    2    0  502 -0.25192615882E+02 -0.18118816438E+02 -0.42771739512E+03  0.42884161353E+03  0.00000000000E+00 0. -1.
<mgrwt>
<rscale>  1 0.30000000E+03</rscale>
<asrwt>0</asrwt>
<pdfrwt beam="1">  1       21 0.35914450E-02 0.30000000E+03</pdfrwt>
<pdfrwt beam="2">0</pdfrwt>
<totfact> 0.50390954E+04</totfact>
</mgrwt>
</event>
<event>
 6    1  0.1280499E-001  0.3000000E+03  0.7818608E-02  0.1093470E+00
         21   -1    0    0  501  502  0.00000000000E+00  0.00000000000E+00  0.11634648219E+01  0.11634648219E+01  0.00000000000E+00 0. -1.
         13   -1    0    0    0    0 -0.00000000000E+00 -0.00000000000E+00 -0.10000000000E+04  0.10000000000E+04  0.00000000000E+00 0.  1.
    9000005    2    1    2  501    0 -0.25217380663E+02 -0.22297462805E+02 -0.57547201170E+03  0.57646284924E+03  0.28787444906E+01 0.  0.
         13    1    3    3    0    0 -0.11536445435E+02 -0.12036202114E+02 -0.27683008105E+03  0.27733166698E+03  0.00000000000E+00 0.  1.
          3    1    3    3  501    0 -0.13680935228E+02 -0.10261260690E+02 -0.29864193064E+03  0.29913118226E+03  0.00000000000E+00 0.  1.
         -3    1    1    2    0  502  0.25217380663E+02  0.22297462805E+02 -0.42336452348E+03  0.42470061558E+03  0.00000000000E+00 0. -1.
<mgrwt>
<rscale>  1 0.30000000E+03</rscale>
<asrwt>0</asrwt>
<pdfrwt beam="1">  1       21 0.42307901E-02 0.30000000E+03</pdfrwt>
<pdfrwt beam="2">0</pdfrwt>
<totfact> 0.38251625E+04</totfact>
</mgrwt>
</event>
<event>
 6    1  0.1280499E-001  0.3000000E+03  0.7818608E-02  0.1093470E+00
         21   -1    0    0  501  502  0.00000000000E+00  0.00000000000E+00  0.20447784690E+01  0.20447784690E+01  0.00000000000E+00 0. -1.
         13   -1    0    0    0    0 -0.00000000000E+00 -0.00000000000E+00 -0.10000000000E+04  0.10000000000E+04  0.00000000000E+00 0.  1.
    9000005    2    1    2  501    0 -0.11262123542E+02 -0.42039964456E+02 -0.63349752325E+03  0.63499763181E+03  0.29472691402E+01 0.  0.
         13    1    3    3    0    0 -0.59429540907E+01 -0.17114894933E+02 -0.27233847703E+03  0.27294044113E+03  0.00000000000E+00 0.  1.
          1    1    3    3  501    0 -0.53191694512E+01 -0.24925069523E+02 -0.36115904622E+03  0.36205719068E+03  0.00000000000E+00 0.  1.
         -1    1    1    2    0  502  0.11262123542E+02  0.42039964456E+02 -0.36445769828E+03  0.36704714666E+03  0.00000000000E+00 0. -1.
<mgrwt>
<rscale>  1 0.30000000E+03</rscale>
<asrwt>0</asrwt>
<pdfrwt beam="1">  1       21 0.74355737E-02 0.30000000E+03</pdfrwt>
<pdfrwt beam="2">0</pdfrwt>
<totfact> 0.14522130E+04</totfact>
</mgrwt>
</event>
<event>
 6    1  0.1280499E-001  0.3000000E+03  0.7818608E-02  0.1093470E+00
         21   -1    0    0  501  502  0.00000000000E+00  0.00000000000E+00  0.30684446221E+01  0.30684446221E+01  0.00000000000E+00 0. -1.
         13   -1    0    0    0    0 -0.00000000000E+00 -0.00000000000E+00 -0.10000000000E+04  0.10000000000E+04  0.00000000000E+00 0.  1.
    9000005    2    1    2  501    0  0.27642259911E+02  0.20725191433E+02 -0.89035923366E+03  0.89103591431E+03  0.34362079202E+01 0.  0.
         13    1    3    3    0    0  0.66135115940E+01  0.33091503516E+01 -0.17770690145E+03  0.17786070908E+03  0.00000000000E+00 0.  1.
          1    1    3    3  501    0  0.21028748317E+02  0.17416041081E+02 -0.71265233221E+03  0.71317520522E+03  0.00000000000E+00 0.  1.
         -1    1    1    2    0  502 -0.27642259911E+02 -0.20725191433E+02 -0.10657232172E+03  0.11203253032E+03  0.00000000000E+00 0. -1.
<mgrwt>
<rscale>  1 0.30000000E+03</rscale>
<asrwt>0</asrwt>
<pdfrwt beam="1">  1       21 0.11158004E-01 0.30000000E+03</pdfrwt>
<pdfrwt beam="2">0</pdfrwt>
<totfact> 0.70681982E+03</totfact>
</mgrwt>
</event>
<event>
 6    1  0.1280499E-001  0.3000000E+03  0.7818608E-02  0.1093470E+00
         21   -1    0    0  501  502  0.00000000000E+00  0.00000000000E+00  0.13245876023E+01  0.13245876023E+01  0.00000000000E+00 0. -1.
         13   -1    0    0    0    0 -0.00000000000E+00 -0.00000000000E+00 -0.10000000000E+04  0.10000000000E+04  0.00000000000E+00 0.  1.
    9000005    2    1    2  501    0 -0.26506138226E+02  0.17446635400E+02 -0.74253569375E+03  0.74322670710E+03  0.44408562809E+01 0.  0.
         13    1    3    3    0    0 -0.29046655900E+01  0.37319922467E+01 -0.10161642041E+03  0.10172640634E+03  0.00000000000E+00 0.  1.
          1    1    3    3  501    0 -0.23601472637E+02  0.13714643153E+02 -0.64091927334E+03  0.64150030077E+03  0.00000000000E+00 0.  1.
         -3    1    1    2    0  502  0.26506138226E+02 -0.17446635400E+02 -0.25613971865E+03  0.25809788050E+03  0.00000000000E+00 0. -1.
<mgrwt>
<rscale>  1 0.30000000E+03</rscale>
<asrwt>0</asrwt>
<pdfrwt beam="1">  1       21 0.48166923E-02 0.30000000E+03</pdfrwt>
<pdfrwt beam="2">0</pdfrwt>
<totfact> 0.30696661E+04</totfact>
</mgrwt>
</event>
<event>
 6    1  0.1280499E-001  0.3000000E+03  0.7818608E-02  0.1093470E+00
         21   -1    0    0  501  502  0.00000000000E+00  0.00000000000E+00  0.11034263441E+01  0.11034263441E+01  0.00000000000E+00 0. -1.
         13   -1    0    0    0    0 -0.00000000000E+00 -0.00000000000E+00 -0.10000000000E+04  0.10000000000E+04  0.00000000000E+00 0.  1.
    9000005    2    1    2  501    0 -0.88093667255E+01 -0.29753860054E+02 -0.32954172315E+03  0.33102968934E+03  0.44733428240E+01 0.  0.
         13    1    3    3    0    0 -0.26292184440E+01 -0.78741587691E+01 -0.11041500238E+03  0.11072663599E+03  0.00000000000E+00 0.  1.
          1    1    3    3  501    0 -0.61801482815E+01 -0.21879701285E+02 -0.21912672077E+03  0.22030305335E+03  0.00000000000E+00 0.  1.
         -3    1    1    2    0  502  0.88093667255E+01  0.29753860054E+02 -0.66935485050E+03  0.67007373700E+03  0.00000000000E+00 0. -1.
<mgrwt>
<rscale>  1 0.30000000E+03</rscale>
<asrwt>0</asrwt>
<pdfrwt beam="1">  1       21 0.40124679E-02 0.30000000E+03</pdfrwt>
<pdfrwt beam="2">0</pdfrwt>
<totfact> 0.41827516E+04</totfact>
</mgrwt>
</event>
<event>
 6    1  0.1280499E-001  0.3000000E+03  0.7818608E-02  0.1093470E+00
         21   -1    0    0  501  502  0.00000000000E+00  0.00000000000E+00  0.19506389234E+01  0.19506389234E+01  0.00000000000E+00 0. -1.
         13   -1    0    0    0    0 -0.00000000000E+00 -0.00000000000E+00 -0.10000000000E+04  0.10000000000E+04  0.00000000000E+00 0.  1.
    9000005    2    1    2  501    0  0.32792254146E+02 -0.22518096958E+02 -0.28470310251E+03  0.28749610487E+03  0.39695229458E+01 0.  0.
         13    1    3    3    0    0  0.11970522241E+02 -0.94677277150E+01 -0.12105692598E+03  0.12201520642E+03  0.00000000000E+00 0.  1.
          3    1    3    3  501    0  0.20821731904E+02 -0.13050369243E+02 -0.16364617653E+03  0.16548089844E+03  0.00000000000E+00 0.  1.
         -1    1    1    2    0  502 -0.32792254146E+02  0.22518096958E+02 -0.71334625857E+03  0.71445453406E+03  0.00000000000E+00 0. -1.
<mgrwt>
<rscale>  1 0.30000000E+03</rscale>
<asrwt>0</asrwt>
<pdfrwt beam="1">  1       21 0.70932474E-02 0.30000000E+03</pdfrwt>
<pdfrwt beam="2">0</pdfrwt>
<totfact> 0.15767739E+04</totfact>
</mgrwt>
</event>
<event>
 6    1  0.1280499E-001  0.3000000E+03  0.7818608E-02  0.1093470E+00
         21   -1    0    0  501  502  0.00000000000E+00  0.00000000000E+00  0.17836371811E+01  0.17836371811E+01  0.00000000000E+00 0. -1.
         13   -1    0    0    0    0 -0.00000000000E+00 -0.00000000000E+00 -0.10000000000E+04  0.10000000000E+04  0.00000000000E+00 0.  1.
    9000005    2    1    2  501    0  0.57374974191E+01 -0.35237498895E+02 -0.76577844034E+03  0.76661988995E+03  0.38517235201E+01 0.  0.
         13    1    3    3    0    0  0.96013859834E+00 -0.11539269356E+02 -0.28243310763E+03  0.28267036790E+03  0.00000000000E+00 0.  1.
          1    1    3    3  501    0  0.47773588207E+01 -0.23698229539E+02 -0.48334533271E+03  0.48394952205E+03  0.00000000000E+00 0.  1.
         -3    1    1    2    0  502 -0.57374974191E+01  0.35237498895E+02 -0.23243792248E+03  0.23516374723E+03  0.00000000000E+00 0. -1.
<mgrwt>
<rscale>  1 0.30000000E+03</rscale>
<asrwt>0</asrwt>
<pdfrwt beam="1">  1       21 0.64859671E-02 0.30000000E+03</pdfrwt>
<pdfrwt beam="2">0</pdfrwt>
<totfact> 0.18418835E+04</totfact>
</mgrwt>
</event>
<event>
 6    1  0.1280499E-001  0.3000000E+03  0.7818608E-02  0.1093470E+00
         21   -1    0    0  501  502  0.00000000000E+00  0.00000000000E+00  0.29058370007E+01  0.29058370007E+01  0.00000000000E+00 0. -1.
         13   -1    0    0    0    0 -0.00000000000E+00 -0.00000000000E+00 -0.10000000000E+04  0.10000000000E+04  0.00000000000E+00 0.  1.
    9000005    2    1    2  501    0 -0.46839911667E+02  0.86141534409E+01 -0.73321003391E+03  0.73475846231E+03  0.22052564524E+01 0.  0.
         13    1    3    3    0    0 -0.85972578891E+01  0.24549210858E+01 -0.13806953223E+03  0.13835871932E+03  0.00000000000E+00 0.  1.
          1    1    3    3  501    0 -0.38242653778E+02  0.61592323551E+01 -0.59514050167E+03  0.59639974299E+03  0.00000000000E+00 0.  1.
         -3    1    1    2    0  502  0.46839911667E+02 -0.86141534409E+01 -0.26388412909E+03  0.26814737469E+03  0.00000000000E+00 0. -1.
<mgrwt>
<rscale>  1 0.30000000E+03</rscale>
<asrwt>0</asrwt>
<pdfrwt beam="1">  1       21 0.10566702E-01 0.30000000E+03</pdfrwt>
<pdfrwt beam="2">0</pdfrwt>
<totfact> 0.77948614E+03</totfact>
</mgrwt>
</event>
<event>
 6    1  0.1280499E-001  0.3000000E+03  0.7818608E-02  0.1093470E+00
         21   -1    0    0  501  502  0.00000000000E+00  0.00000000000E+00  0.24280737835E+01  0.24280737835E+01  0.00000000000E+00 0. -1.
         13   -1    0    0    0    0 -0.00000000000E+00 -0.00000000000E+00 -0.10000000000E+04  0.10000000000E+04  0.00000000000E+00 0.  1.
    9000005    2    1    2  501    0  0.70859792435E+01  0.48569137803E+02 -0.46615834185E+03  0.46875254511E+03  0.40220178976E+01 0.  0.
         13    1    3    3    0    0  0.49294971829E+01  0.33268068050E+02 -0.33660457325E+03  0.33828050938E+03  0.00000000000E+00 0.  1.
          3    1    3    3  501    0  0.21564820606E+01  0.15301069754E+02 -0.12955376860E+03  0.13047203573E+03  0.00000000000E+00 0.  1.
         -3    1    1    2    0  502 -0.70859792435E+01 -0.48569137803E+02 -0.53141358437E+03  0.53367552867E+03  0.00000000000E+00 0. -1.
<mgrwt>
<rscale>  1 0.30000000E+03</rscale>
<asrwt>0</asrwt>
<pdfrwt beam="1">  1       21 0.88293778E-02 0.30000000E+03</pdfrwt>
<pdfrwt beam="2">0</pdfrwt>
<totfact> 0.10735731E+04</totfact>
</mgrwt>
</event>
<event>
 6    1  0.1280499E-001  0.3000000E+03  0.7818608E-02  0.1093470E+00
         21   -1    0    0  501  502  0.00000000000E+00  0.00000000000E+00  0.11298072788E+01  0.11298072788E+01  0.00000000000E+00 0. -1.
         13   -1    0    0    0    0 -0.00000000000E+00 -0.00000000000E+00 -0.10000000000E+04  0.10000000000E+04  0.00000000000E+00 0.  1.
    9000005    2    1    2  501    0 -0.26492777822E+02 -0.17800869264E+02 -0.65348090561E+03  0.65426888721E+03  0.34270313975E+01 0.  0.
         13    1    3    3    0    0 -0.46771604578E+01 -0.21536783627E+01 -0.12610206689E+03  0.12620715287E+03  0.00000000000E+00 0.  1.
          3    1    3    3  501    0 -0.21815617364E+02 -0.15647190901E+02 -0.52737883872E+03  0.52806173434E+03  0.00000000000E+00 0.  1.
         -1    1    1    2    0  502  0.26492777822E+02  0.17800869264E+02 -0.34538928711E+03  0.34686092007E+03  0.00000000000E+00 0. -1.
<mgrwt>
<rscale>  1 0.30000000E+03</rscale>
<asrwt>0</asrwt>
<pdfrwt beam="1">  1       21 0.41083988E-02 0.30000000E+03</pdfrwt>
<pdfrwt beam="2">0</pdfrwt>
<totfact> 0.40194688E+04</totfact>
</mgrwt>
</event>
<event>
 6    1  0.1280499E-001  0.3000000E+03  0.7818608E-02  0.1093470E+00
         21   -1    0    0  501  502  0.00000000000E+00  0.00000000000E+00  0.23300391419E+01  0.23300391419E+01  0.00000000000E+00 0. -1.
         13   -1    0    0    0    0 -0.00000000000E+00 -0.00000000000E+00 -0.10000000000E+04  0.10000000000E+04  0.00000000000E+00 0.  1.
    9000005    2    1    2  501    0 -0.38008436108E+02  0.36900850258E+01 -0.80499520844E+03  0.80590748911E+03  0.33671121168E+01 0.  0.
         13    1    3    3    0    0 -0.20979489289E+02  0.25612141287E+01 -0.41163152598E+03  0.41217376429E+03  0.00000000000E+00 0.  1.
          3    1    3    3  501    0 -0.17028946819E+02  0.11288708971E+01 -0.39336368246E+03  0.39373372482E+03  0.00000000000E+00 0.  1.
         -3    1    1    2    0  502  0.38008436108E+02 -0.36900850258E+01 -0.19267475241E+03  0.19642255003E+03  0.00000000000E+00 0. -1.
<mgrwt>
<rscale>  1 0.30000000E+03</rscale>
<asrwt>0</asrwt>
<pdfrwt beam="1">  1       21 0.84728875E-02 0.30000000E+03</pdfrwt>
<pdfrwt beam="2">0</pdfrwt>
<totfact> 0.11546118E+04</totfact>
</mgrwt>
</event>
<event>
 6    1  0.1280499E-001  0.3000000E+03  0.7818608E-02  0.1093470E+00
         21   -1    0    0  501  502  0.00000000000E+00  0.00000000000E+00  0.13197210159E+01  0.13197210159E+01  0.00000000000E+00 0. -1.
         13   -1    0    0    0    0 -0.00000000000E+00 -0.00000000000E+00 -0.10000000000E+04  0.10000000000E+04  0.00000000000E+00 0.  1.
    9000005    2    1    2  501    0 -0.53277653628E-02 -0.35969086435E+02 -0.48829903429E+03  0.48967258661E+03  0.70370437073E+01 0.  0.
         13    1    3    3    0    0 -0.24366044187E+01 -0.54297052532E+01 -0.90657742597E+02  0.90852875755E+02  0.00000000000E+00 0.  1.
          1    1    3    3  501    0  0.24312766533E+01 -0.30539381182E+02 -0.39764129169E+03  0.39881971085E+03  0.00000000000E+00 0.  1.
         -1    1    1    2    0  502  0.53277653628E-02  0.35969086435E+02 -0.51038124470E+03  0.51164713441E+03  0.00000000000E+00 0. -1.
<mgrwt>
<rscale>  1 0.30000000E+03</rscale>
<asrwt>0</asrwt>
<pdfrwt beam="1">  1       21 0.47989956E-02 0.30000000E+03</pdfrwt>
<pdfrwt beam="2">0</pdfrwt>
<totfact> 0.30889539E+04</totfact>
</mgrwt>
</event>
<event>
 6    1  0.1280499E-001  0.3000000E+03  0.7818608E-02  0.1093470E+00
         21   -1    0    0  501  502  0.00000000000E+00  0.00000000000E+00  0.99870157565E+00  0.99870157565E+00  0.00000000000E+00 0. -1.
         13   -1    0    0    0    0 -0.00000000000E+00 -0.00000000000E+00 -0.10000000000E+04  0.10000000000E+04  0.00000000000E+00 0.  1.
    9000005    2    1    2  501    0  0.21811239335E+02  0.20883462912E+02 -0.64405584011E+03  0.64477106710E+03  0.31550923684E+01 0.  0.
         13    1    3    3    0    0  0.10612589506E+02  0.10257097708E+02 -0.28140722971E+03  0.28179400994E+03  0.00000000000E+00 0.  1.
          1    1    3    3  501    0  0.11198649829E+02  0.10626365204E+02 -0.36264861040E+03  0.36297705716E+03  0.00000000000E+00 0.  1.
         -3    1    1    2    0  502 -0.21811239335E+02 -0.20883462912E+02 -0.35494545832E+03  0.35622763448E+03  0.00000000000E+00 0. -1.
<mgrwt>
<rscale>  1 0.30000000E+03</rscale>
<asrwt>0</asrwt>
<pdfrwt beam="1">  1       21 0.36316498E-02 0.30000000E+03</pdfrwt>
<pdfrwt beam="2">0</pdfrwt>
<totfact> 0.49458867E+04</totfact>
</mgrwt>
</event>
<event>
 6    1  0.1280499E-001  0.3000000E+03  0.7818608E-02  0.1093470E+00
         21   -1    0    0  501  502  0.00000000000E+00  0.00000000000E+00  0.16840550695E+01  0.16840550695E+01  0.00000000000E+00 0. -1.
         13   -1    0    0    0    0 -0.00000000000E+00 -0.00000000000E+00 -0.10000000000E+04  0.10000000000E+04  0.00000000000E+00 0.  1.
    9000005    2    1    2  501    0 -0.77271215203E+01 -0.38367915619E+02 -0.64792515588E+03  0.64911418907E+03  0.32276121773E+01 0.  0.
         13    1    3    3    0    0 -0.52431553319E+01 -0.21751636854E+02 -0.34742797393E+03  0.34814770063E+03  0.00000000000E+00 0.  1.
          3    1    3    3  501    0 -0.24839661884E+01 -0.16616278766E+02 -0.30049718194E+03  0.30096648844E+03  0.00000000000E+00 0.  1.
         -3    1    1    2    0  502  0.77271215203E+01  0.38367915619E+02 -0.35039078905E+03  0.35256986600E+03  0.00000000000E+00 0. -1.
<mgrwt>
<rscale>  1 0.30000000E+03</rscale>
<asrwt>0</asrwt>
<pdfrwt beam="1">  1       21 0.61238495E-02 0.30000000E+03</pdfrwt>
<pdfrwt beam="2">0</pdfrwt>
<totfact> 0.20341794E+04</totfact>
</mgrwt>
</event>
<event>
 6    1  0.1280499E-001  0.3000000E+03  0.7818608E-02  0.1093470E+00
         21   -1    0    0  501  502  0.00000000000E+00  0.00000000000E+00  0.10354492016E+02  0.10354492016E+02  0.00000000000E+00 0. -1.
         13   -1    0    0    0    0 -0.00000000000E+00 -0.00000000000E+00 -0.10000000000E+04  0.10000000000E+04  0.00000000000E+00 0.  1.
    9000005    2    1    2  501    0  0.21319713587E+02 -0.60914411361E+02 -0.88536686016E+03  0.88772035284E+03  0.28021563193E+01 0.  0.
         13    1    3    3    0    0  0.19498973105E+02 -0.57652669845E+02 -0.83578082118E+03  0.83799380746E+03  0.00000000000E+00 0.  1.
          3    1    3    3  501    0  0.18207404821E+01 -0.32617415164E+01 -0.49586038987E+02  0.49726545386E+02  0.00000000000E+00 0.  1.
         -1    1    1    2    0  502 -0.21319713587E+02  0.60914411361E+02 -0.10427864782E+03  0.12263413917E+03  0.00000000000E+00 0. -1.
<mgrwt>
<rscale>  1 0.30000000E+03</rscale>
<asrwt>0</asrwt>
<pdfrwt beam="1">  1       21 0.37652778E-01 0.30000000E+03</pdfrwt>
<pdfrwt beam="2">0</pdfrwt>
<totfact> 0.68483725E+02</totfact>
</mgrwt>
</event>
<event>
 6    1  0.1280499E-001  0.3000000E+03  0.7818608E-02  0.1093470E+00
         21   -1    0    0  501  502  0.00000000000E+00  0.00000000000E+00  0.18709522756E+01  0.18709522756E+01  0.00000000000E+00 0. -1.
         13   -1    0    0    0    0 -0.00000000000E+00 -0.00000000000E+00 -0.10000000000E+04  0.10000000000E+04  0.00000000000E+00 0.  1.
    9000005    2    1    2  501    0  0.30594375484E+02 -0.34737794300E+01 -0.85055399273E+03  0.85111790981E+03  0.33939509253E+01 0.  0.
         13    1    3    3    0    0  0.42319825346E+01 -0.11952340678E+01 -0.97362722106E+02  0.97461981903E+02  0.00000000000E+00 0.  1.
          3    1    3    3  501    0  0.26362392949E+02 -0.22785453622E+01 -0.75319127062E+03  0.75365592791E+03  0.00000000000E+00 0.  1.
         -3    1    1    2    0  502 -0.30594375484E+02  0.34737794300E+01 -0.14757505500E+03  0.15075304246E+03  0.00000000000E+00 0. -1.
<mgrwt>
<rscale>  1 0.30000000E+03</rscale>
<asrwt>0</asrwt>
<pdfrwt beam="1">  1       21 0.68034772E-02 0.30000000E+03</pdfrwt>
<pdfrwt beam="2">0</pdfrwt>
<totfact> 0.16954138E+04</totfact>
</mgrwt>
</event>
<event>
 6    1  0.1280499E-001  0.3000000E+03  0.7818608E-02  0.1093470E+00
         21   -1    0    0  501  502  0.00000000000E+00  0.00000000000E+00  0.29292836911E+01  0.29292836911E+01  0.00000000000E+00 0. -1.
         13   -1    0    0    0    0 -0.00000000000E+00 -0.00000000000E+00 -0.10000000000E+04  0.10000000000E+04  0.00000000000E+00 0.  1.
    9000005    2    1    2  501    0  0.43954598759E+02  0.28762463851E+02 -0.38020175627E+03  0.38382783810E+03  0.33388242895E+01 0.  0.
         13    1    3    3    0    0  0.22969330617E+02  0.16996371743E+02 -0.20462028795E+03  0.20660573332E+03  0.00000000000E+00 0.  1.
          3    1    3    3  501    0  0.20985268142E+02  0.11766092107E+02 -0.17558146832E+03  0.17722210477E+03  0.00000000000E+00 0.  1.
         -3    1    1    2    0  502 -0.43954598759E+02 -0.28762463851E+02 -0.61686896004E+03  0.61910144559E+03  0.00000000000E+00 0. -1.
<mgrwt>
<rscale>  1 0.30000000E+03</rscale>
<asrwt>0</asrwt>
<pdfrwt beam="1">  1       21 0.10651963E-01 0.30000000E+03</pdfrwt>
<pdfrwt beam="2">0</pdfrwt>
<totfact> 0.76832907E+03</totfact>
</mgrwt>
</event>
<event>
 6    1  0.1280499E-001  0.3000000E+03  0.7818608E-02  0.1093470E+00
         21   -1    0    0  501  502  0.00000000000E+00  0.00000000000E+00  0.13024847953E+01  0.13024847953E+01  0.00000000000E+00 0. -1.
         13   -1    0    0    0    0 -0.00000000000E+00 -0.00000000000E+00 -0.10000000000E+04  0.10000000000E+04  0.00000000000E+00 0.  1.
    9000005    2    1    2  501    0 -0.67037713966E+01  0.29593506315E+02 -0.76933891540E+03  0.76994543720E+03  0.35907313493E+01 0.  0.
         13    1    3    3    0    0 -0.40561977267E+01  0.11573625537E+02 -0.33689804573E+03  0.33712118706E+03  0.00000000000E+00 0.  1.
          1    1    3    3  501    0 -0.26475736699E+01  0.18019880778E+02 -0.43244086968E+03  0.43282425015E+03  0.00000000000E+00 0.  1.
         -3    1    1    2    0  502  0.67037713966E+01 -0.29593506315E+02 -0.22935859980E+03  0.23135704759E+03  0.00000000000E+00 0. -1.
<mgrwt>
<rscale>  1 0.30000000E+03</rscale>
<asrwt>0</asrwt>
<pdfrwt beam="1">  1       21 0.47363183E-02 0.30000000E+03</pdfrwt>
<pdfrwt beam="2">0</pdfrwt>
<totfact> 0.31588141E+04</totfact>
</mgrwt>
</event>
