<event>
 6    1  0.1040300E-002  0.6430426E+03  0.7818608E-02  0.9819922E-01
          1   -1    0    0  502    0  0.00000000000E+00  0.00000000000E+00  0.10339334736E+03  0.10339334736E+03  0.00000000000E+00 0.  1.
         13   -1    0    0    0    0 -0.00000000000E+00 -0.00000000000E+00 -0.10000000000E+04  0.10000000000E+04  0.00000000000E+00 0.  1.
    9000005    2    1    2  501    0  0.12499415302E-02  0.20511717406E-03 -0.89662402089E+03  0.11033759330E+04  0.64304262274E+03 0.  0.
         13    1    3    3    0    0 -0.24277162266E+02  0.29213693175E+03 -0.67492754436E+03  0.73584003535E+03  0.00000000000E+00 0.  1.
          1    1    3    3  501    0  0.24278412207E+02 -0.29213672663E+03 -0.22169647653E+03  0.36753589763E+03  0.00000000000E+00 0.  1.
         21    1    1    2  502  501 -0.12499415302E-02 -0.20511717405E-03  0.17368244780E-01  0.17414372042E-01  0.00000000000E+00 0.  1.
<mgrwt>
<rscale>  1 0.64304262E+03</rscale>
<asrwt>0</asrwt>
<pdfrwt beam="1">  1        1 0.37597660E+00 0.64304262E+03</pdfrwt>
<pdfrwt beam="2">0</pdfrwt>
<totfact> 0.17115562E+00</totfact>
</mgrwt>
</event>
<event>
 6    1  0.1040300E-002  0.6021693E+03  0.7818608E-02  0.9900916E-01
          1   -1    0    0  502    0  0.00000000000E+00  0.00000000000E+00  0.90654732613E+02  0.90654732613E+02  0.00000000000E+00 0.  1.
         13   -1    0    0    0    0 -0.00000000000E+00 -0.00000000000E+00 -0.10000000000E+04  0.10000000000E+04  0.00000000000E+00 0.  1.
    9000005    2    1    2  501    0 -0.11669908451E-03  0.26929727923E-03 -0.90934803560E+03  0.10906519489E+04  0.60216926505E+03 0.  0.
         13    1    3    3    0    0  0.27790186579E+03  0.11583266300E+03 -0.45884446123E+03  0.54880314542E+03  0.00000000000E+00 0.  1.
          1    1    3    3  501    0 -0.27790198248E+03 -0.11583239371E+03 -0.45050357437E+03  0.54184880347E+03  0.00000000000E+00 0.  1.
         21    1    1    2  502  501  0.11669908451E-03 -0.26929727923E-03  0.27682086038E-02  0.27837238683E-02  0.00000000000E+00 0. -1.
<mgrwt>
<rscale>  1 0.60216927E+03</rscale>
<asrwt>0</asrwt>
<pdfrwt beam="1">  1        1 0.32965427E+00 0.60216927E+03</pdfrwt>
<pdfrwt beam="2">0</pdfrwt>
<totfact> 0.27460497E+00</totfact>
</mgrwt>
</event>
<event>
 6    1  0.1040300E-002  0.6390778E+03  0.7818608E-02  0.9827492E-01
          1   -1    0    0  502    0  0.00000000000E+00  0.00000000000E+00  0.10221483661E+03  0.10221483661E+03  0.00000000000E+00 0.  1.
         13   -1    0    0    0    0 -0.00000000000E+00 -0.00000000000E+00 -0.10000000000E+04  0.10000000000E+04  0.00000000000E+00 0.  1.
    9000005    2    1    2  501    0  0.29650447314E-02 -0.46154763147E-01 -0.89788948734E+03  0.11021007203E+04  0.63907782310E+03 0.  0.
         13    1    3    3    0    0 -0.86613539430E+02  0.51060043417E+02  0.74114411328E+02  0.12490788291E+03  0.00000000000E+00 0.  1.
          3    1    3    3  501    0  0.86616504475E+02 -0.51106198180E+02 -0.97200389867E+03  0.97719283735E+03  0.00000000000E+00 0.  1.
         21    1    1    2  502  501 -0.29650447314E-02  0.46154763147E-01  0.10432394971E+00  0.11411634473E+00  0.00000000000E+00 0.  1.
<mgrwt>
<rscale>  1 0.63907782E+03</rscale>
<asrwt>0</asrwt>
<pdfrwt beam="1">  1        1 0.37169110E+00 0.63907782E+03</pdfrwt>
<pdfrwt beam="2">0</pdfrwt>
<totfact> 0.17887915E+00</totfact>
</mgrwt>
</event>
<event>
 6    1  0.1040300E-002  0.6617616E+03  0.7818608E-02  0.9784956E-01
          1   -1    0    0  502    0  0.00000000000E+00  0.00000000000E+00  0.10957455890E+03  0.10957455890E+03  0.00000000000E+00 0.  1.
         13   -1    0    0    0    0 -0.00000000000E+00 -0.00000000000E+00 -0.10000000000E+04  0.10000000000E+04  0.00000000000E+00 0.  1.
    9000005    2    1    2  501    0 -0.38882425577E-01 -0.35694050706E-01 -0.89050947615E+03  0.11094753228E+04  0.66176155983E+03 0.  0.
         13    1    3    3    0    0  0.64930554872E+02  0.28504733509E+03 -0.70496642374E+03  0.76318124898E+03  0.00000000000E+00 0.  1.
          3    1    3    3  501    0 -0.64969437298E+02 -0.28508302914E+03 -0.18554305241E+03  0.34629407385E+03  0.00000000000E+00 0.  1.
         21    1    1    2  502  501  0.38882425577E-01  0.35694050706E-01  0.84035051074E-01  0.99236072491E-01  0.00000000000E+00 0.  1.
<mgrwt>
<rscale>  1 0.66176156E+03</rscale>
<asrwt>0</asrwt>
<pdfrwt beam="1">  1        1 0.39845378E+00 0.66176156E+03</pdfrwt>
<pdfrwt beam="2">0</pdfrwt>
<totfact> 0.13562579E+00</totfact>
</mgrwt>
</event>
<event>
 6    1  0.1040300E-002  0.6060739E+03  0.7818608E-02  0.9892884E-01
          1   -1    0    0  502    0  0.00000000000E+00  0.00000000000E+00  0.91885733479E+02  0.91885733479E+02  0.00000000000E+00 0.  1.
         13   -1    0    0    0    0 -0.00000000000E+00 -0.00000000000E+00 -0.10000000000E+04  0.10000000000E+04  0.00000000000E+00 0.  1.
    9000005    2    1    2  501    0  0.47970423546E-03  0.13924646501E-02 -0.90816858586E+03  0.10918313942E+04  0.60607393358E+03 0.  0.
         13    1    3    3    0    0  0.24283431906E+03  0.17607776730E+03 -0.53177645892E+03  0.61053917885E+03  0.00000000000E+00 0.  1.
          1    1    3    3  501    0 -0.24283383935E+03 -0.17607637484E+03 -0.37639212694E+03  0.48129221533E+03  0.00000000000E+00 0.  1.
         21    1    1    2  502  501 -0.47970423546E-03 -0.13924646501E-02  0.54319339593E-01  0.54339301870E-01  0.00000000000E+00 0.  1.
<mgrwt>
<rscale>  1 0.60607393E+03</rscale>
<asrwt>0</asrwt>
<pdfrwt beam="1">  1        1 0.33413064E+00 0.60607393E+03</pdfrwt>
<pdfrwt beam="2">0</pdfrwt>
<totfact> 0.26242769E+00</totfact>
</mgrwt>
</event>
<event>
 6    1  0.1040300E-002  0.6484454E+03  0.7818608E-02  0.9809701E-01
          1   -1    0    0  502    0  0.00000000000E+00  0.00000000000E+00  0.10896827791E+03  0.10896827791E+03  0.00000000000E+00 0.  1.
         13   -1    0    0    0    0 -0.00000000000E+00 -0.00000000000E+00 -0.10000000000E+04  0.10000000000E+04  0.00000000000E+00 0.  1.
    9000005    2    1    2  501    0  0.24201257437E+01 -0.21341332542E+01 -0.89411768626E+03  0.11045034478E+04  0.64843736607E+03 0.  0.
         13    1    3    3    0    0 -0.24809442857E+03 -0.20078575559E+03 -0.35219002987E+03  0.47529315403E+03  0.00000000000E+00 0.  1.
          3    1    3    3  501    0  0.25051455432E+03  0.19865162233E+03 -0.54192765639E+03  0.62921029373E+03  0.00000000000E+00 0.  1.
         21    1    1    2  502  501 -0.24201257437E+01  0.21341332542E+01  0.30859641701E+01  0.44648301447E+01  0.00000000000E+00 0.  1.
<mgrwt>
<rscale>  1 0.64844539E+03</rscale>
<asrwt>0</asrwt>
<pdfrwt beam="1">  1        1 0.39624912E+00 0.64844539E+03</pdfrwt>
<pdfrwt beam="2">0</pdfrwt>
<totfact> 0.13907347E+00</totfact>
</mgrwt>
</event>
<event>
 6    1  0.1040300E-002  0.6537531E+03  0.7818608E-02  0.9799762E-01
          3   -1    0    0  502    0  0.00000000000E+00  0.00000000000E+00  0.10685177734E+03  0.10685177734E+03  0.00000000000E+00 0.  1.
         13   -1    0    0    0    0 -0.00000000000E+00 -0.00000000000E+00 -0.10000000000E+04  0.10000000000E+04  0.00000000000E+00 0.  1.
    9000005    2    1    2  501    0  0.54991379073E-04  0.23668964016E-03 -0.89315170336E+03  0.11068482882E+04  0.65375313981E+03 0.  0.
         13    1    3    3    0    0 -0.79525735698E+02 -0.19145007845E+03 -0.87445908675E+03  0.89869692866E+03  0.00000000000E+00 0.  1.
          3    1    3    3  501    0  0.79525790690E+02  0.19145031514E+03 -0.18692616605E+02  0.20815135951E+03  0.00000000000E+00 0.  1.
         21    1    1    2  502  501 -0.54991379086E-04 -0.23668964015E-03  0.34806963465E-02  0.34891679659E-02  0.00000000000E+00 0. -1.
<mgrwt>
<rscale>  1 0.65375314E+03</rscale>
<asrwt>0</asrwt>
<pdfrwt beam="1">  1        3 0.38855274E+00 0.65375314E+03</pdfrwt>
<pdfrwt beam="2">0</pdfrwt>
<totfact> 0.67990989E-02</totfact>
</mgrwt>
</event>
<event>
 6    1  0.1040300E-002  0.6509128E+03  0.7818608E-02  0.9805068E-01
          1   -1    0    0  502    0  0.00000000000E+00  0.00000000000E+00  0.10593243283E+03  0.10593243283E+03  0.00000000000E+00 0.  1.
         13   -1    0    0    0    0 -0.00000000000E+00 -0.00000000000E+00 -0.10000000000E+04  0.10000000000E+04  0.00000000000E+00 0.  1.
    9000005    2    1    2  501    0  0.20283618842E-02 -0.75338560397E-03 -0.89407801382E+03  0.11059217645E+04  0.65091278547E+03 0.  0.
         13    1    3    3    0    0  0.60327913604E+02  0.93947258028E+02 -0.96644403518E+03  0.97287184026E+03  0.00000000000E+00 0.  1.
          3    1    3    3  501    0 -0.60325885242E+02 -0.93948011414E+02  0.72366021357E+02  0.13304992419E+03  0.00000000000E+00 0.  1.
         21    1    1    2  502  501 -0.20283618842E-02  0.75338560397E-03  0.10446653525E-01  0.10668383742E-01  0.00000000000E+00 0. -1.
<mgrwt>
<rscale>  1 0.65091279E+03</rscale>
<asrwt>0</asrwt>
<pdfrwt beam="1">  1        1 0.38520966E+00 0.65091279E+03</pdfrwt>
<pdfrwt beam="2">0</pdfrwt>
<totfact> 0.15560073E+00</totfact>
</mgrwt>
</event>
<event>
 6    1  0.1040300E-002  0.6459845E+03  0.7818608E-02  0.9814343E-01
          1   -1    0    0  502    0  0.00000000000E+00  0.00000000000E+00  0.10432597443E+03  0.10432597443E+03  0.00000000000E+00 0.  1.
         13   -1    0    0    0    0 -0.00000000000E+00 -0.00000000000E+00 -0.10000000000E+04  0.10000000000E+04  0.00000000000E+00 0.  1.
    9000005    2    1    2  501    0 -0.59357186217E-04  0.28368894922E-03 -0.89567600191E+03  0.11043239769E+04  0.64598447788E+03 0.  0.
         13    1    3    3    0    0  0.25837485670E+03 -0.14958736844E+03 -0.23714345488E+03  0.38127544579E+03  0.00000000000E+00 0.  1.
          1    1    3    3  501    0 -0.25837491605E+03  0.14958765213E+03 -0.65853254703E+03  0.72304853116E+03  0.00000000000E+00 0.  1.
         21    1    1    2  502  501  0.59357186209E-04 -0.28368894923E-03  0.19763368590E-02  0.19974759262E-02  0.00000000000E+00 0.  1.
<mgrwt>
<rscale>  1 0.64598448E+03</rscale>
<asrwt>0</asrwt>
<pdfrwt beam="1">  1        1 0.37936798E+00 0.64598448E+03</pdfrwt>
<pdfrwt beam="2">0</pdfrwt>
<totfact> 0.16527607E+00</totfact>
</mgrwt>
</event>
<event>
 6    1  0.1040300E-002  0.6460888E+03  0.7818608E-02  0.9814146E-01
          1   -1    0    0  502    0  0.00000000000E+00  0.00000000000E+00  0.14147576121E+03  0.14147576121E+03  0.00000000000E+00 0.  1.
         13   -1    0    0    0    0 -0.00000000000E+00 -0.00000000000E+00 -0.10000000000E+04  0.10000000000E+04  0.00000000000E+00 0.  1.
    9000005    2    1    2  501    0 -0.12645305374E+02 -0.12218426171E+02 -0.89332837230E+03  0.11024818976E+04  0.64584948726E+03 0.  0.
         13    1    3    3    0    0  0.14184016807E+03 -0.93697808654E+02  0.21303399837E+02  0.17132351698E+03  0.00000000000E+00 0.  1.
          1    1    3    3  501    0 -0.15448547345E+03  0.81479382483E+02 -0.91463177214E+03  0.93115838067E+03  0.00000000000E+00 0.  1.
         21    1    1    2  502  501  0.12645305374E+02  0.12218426171E+02  0.34804133513E+02  0.38993863564E+02  0.00000000000E+00 0.  1.
<mgrwt>
<rscale>  1 0.64608881E+03</rscale>
<asrwt>0</asrwt>
<pdfrwt beam="1">  1        1 0.51445840E+00 0.64608881E+03</pdfrwt>
<pdfrwt beam="2">0</pdfrwt>
<totfact> 0.39386026E-01</totfact>
</mgrwt>
</event>
<event>
 6    1  0.1040300E-002  0.6539417E+03  0.7818608E-02  0.9799411E-01
          1   -1    0    0  502    0  0.00000000000E+00  0.00000000000E+00  0.10704744162E+03  0.10704744162E+03  0.00000000000E+00 0.  1.
         13   -1    0    0    0    0 -0.00000000000E+00 -0.00000000000E+00 -0.10000000000E+04  0.10000000000E+04  0.00000000000E+00 0.  1.
    9000005    2    1    2  501    0 -0.51891218870E-01  0.35887950805E-01 -0.89308199529E+03  0.11069034466E+04  0.65394172972E+03 0.  0.
         13    1    3    3    0    0 -0.12991646892E+03 -0.29679896703E+03 -0.52105079437E+03  0.61356486702E+03  0.00000000000E+00 0.  1.
          3    1    3    3  501    0  0.12986457770E+03  0.29683485498E+03 -0.37203120092E+03  0.49333857961E+03  0.00000000000E+00 0.  1.
         21    1    1    2  502  501  0.51891218870E-01 -0.35887950805E-01  0.12943690874E+00  0.14399498933E+00  0.00000000000E+00 0. -1.
<mgrwt>
<rscale>  1 0.65394173E+03</rscale>
<asrwt>0</asrwt>
<pdfrwt beam="1">  1        1 0.38926424E+00 0.65394173E+03</pdfrwt>
<pdfrwt beam="2">0</pdfrwt>
<totfact> 0.14921522E+00</totfact>
</mgrwt>
</event>
<event>
 6    1  0.1040300E-002  0.6528073E+03  0.7818608E-02  0.9801526E-01
          1   -1    0    0  502    0  0.00000000000E+00  0.00000000000E+00  0.10655893633E+03  0.10655893633E+03  0.00000000000E+00 0.  1.
         13   -1    0    0    0    0 -0.00000000000E+00 -0.00000000000E+00 -0.10000000000E+04  0.10000000000E+04  0.00000000000E+00 0.  1.
    9000005    2    1    2  501    0 -0.38490234197E-01 -0.32253737528E-01 -0.89341464456E+03  0.11065021933E+04  0.65280730247E+03 0.  0.
         13    1    3    3    0    0  0.21995510637E+03  0.24078101019E+03 -0.42474508882E+03  0.53550362666E+03  0.00000000000E+00 0.  1.
          3    1    3    3  501    0 -0.21999359661E+03 -0.24081326393E+03 -0.46866955574E+03  0.57099856665E+03  0.00000000000E+00 0.  1.
         21    1    1    2  502  501  0.38490234197E-01  0.32253737529E-01 -0.26419108094E-01  0.56743025876E-01  0.00000000000E+00 0.  1.
<mgrwt>
<rscale>  1 0.65280730E+03</rscale>
<asrwt>0</asrwt>
<pdfrwt beam="1">  1        1 0.38748786E+00 0.65280730E+03</pdfrwt>
<pdfrwt beam="2">0</pdfrwt>
<totfact> 0.15197617E+00</totfact>
</mgrwt>
</event>
<event>
 6    1  0.1040300E-002  0.6427344E+03  0.7818608E-02  0.9820509E-01
          1   -1    0    0  502    0  0.00000000000E+00  0.00000000000E+00  0.10327736431E+03  0.10327736431E+03  0.00000000000E+00 0.  1.
         13   -1    0    0    0    0 -0.00000000000E+00 -0.00000000000E+00 -0.10000000000E+04  0.10000000000E+04  0.00000000000E+00 0.  1.
    9000005    2    1    2  501    0 -0.22557742398E-04 -0.11650159695E-03 -0.89672311564E+03  0.11032768699E+04  0.64273439736E+03 0.  0.
         13    1    3    3    0    0  0.16603415236E+03 -0.27292261490E+03 -0.38833655460E+03  0.50285124352E+03  0.00000000000E+00 0.  1.
          1    1    3    3  501    0 -0.16603417492E+03  0.27292249840E+03 -0.50838656104E+03  0.60042562639E+03  0.00000000000E+00 0.  1.
         21    1    1    2  502  501  0.22557742416E-04  0.11650159695E-03  0.47994480148E-03  0.49439709374E-03  0.00000000000E+00 0. -1.
<mgrwt>
<rscale>  1 0.64273440E+03</rscale>
<asrwt>0</asrwt>
<pdfrwt beam="1">  1        1 0.37555484E+00 0.64273440E+03</pdfrwt>
<pdfrwt beam="2">0</pdfrwt>
<totfact> 0.17189878E+00</totfact>
</mgrwt>
</event>
<event>
 6    1  0.1040300E-002  0.6784549E+03  0.7818608E-02  0.9754803E-01
          1   -1    0    0  502    0  0.00000000000E+00  0.00000000000E+00  0.11514422868E+03  0.11514422868E+03  0.00000000000E+00 0.  1.
         13   -1    0    0    0    0 -0.00000000000E+00 -0.00000000000E+00 -0.10000000000E+04  0.10000000000E+04  0.00000000000E+00 0.  1.
    9000005    2    1    2  501    0  0.18353802417E-01  0.96335520199E-02 -0.88492297910E+03  0.11150738969E+04  0.67845494786E+03 0.  0.
         13    1    3    3    0    0 -0.78860873440E+02 -0.28128099622E+03 -0.15905168276E+03  0.33261911247E+03  0.00000000000E+00 0.  1.
          1    1    3    3  501    0  0.78879227243E+02  0.28129062977E+03 -0.72587129634E+03  0.78245478447E+03  0.00000000000E+00 0.  1.
         21    1    1    2  502  501 -0.18353802417E-01 -0.96335520199E-02  0.67207781552E-01  0.70331737422E-01  0.00000000000E+00 0.  1.
<mgrwt>
<rscale>  1 0.67845495E+03</rscale>
<asrwt>0</asrwt>
<pdfrwt beam="1">  1        1 0.41870717E+00 0.67845495E+03</pdfrwt>
<pdfrwt beam="2">0</pdfrwt>
<totfact> 0.10969653E+00</totfact>
</mgrwt>
</event>
<event>
 6    1  0.1040300E-002  0.6371712E+03  0.7818608E-02  0.9831154E-01
          1   -1    0    0  502    0  0.00000000000E+00  0.00000000000E+00  0.10149678822E+03  0.10149678822E+03  0.00000000000E+00 0.  1.
         13   -1    0    0    0    0 -0.00000000000E+00 -0.00000000000E+00 -0.10000000000E+04  0.10000000000E+04  0.00000000000E+00 0.  1.
    9000005    2    1    2  501    0 -0.73216044356E-05  0.11794492579E-04 -0.89850320576E+03  0.11014967731E+04  0.63717119392E+03 0.  0.
         13    1    3    3    0    0  0.59921019042E+02 -0.85718466882E+02 -0.96947746187E+03  0.97510242188E+03  0.00000000000E+00 0.  1.
          3    1    3    3  501    0 -0.59921026364E+02  0.85718478676E+02  0.70974256109E+02  0.12639435121E+03  0.00000000000E+00 0.  1.
         21    1    1    2  502  501  0.73216044321E-05 -0.11794492569E-04 -0.60208370668E-05  0.15131636574E-04  0.00000000000E+00 0. -1.
<mgrwt>
<rscale>  1 0.63717119E+03</rscale>
<asrwt>0</asrwt>
<pdfrwt beam="1">  1        1 0.36908001E+00 0.63717119E+03</pdfrwt>
<pdfrwt beam="2">0</pdfrwt>
<totfact> 0.18372999E+00</totfact>
</mgrwt>
</event>
<event>
 6    1  0.1040300E-002  0.6545979E+03  0.7818608E-02  0.9798190E-01
          1   -1    0    0  502    0  0.00000000000E+00  0.00000000000E+00  0.10725638096E+03  0.10725638096E+03  0.00000000000E+00 0.  1.
         13   -1    0    0    0    0 -0.00000000000E+00 -0.00000000000E+00 -0.10000000000E+04  0.10000000000E+04  0.00000000000E+00 0.  1.
    9000005    2    1    2  501    0  0.35630823897E-02  0.70065691122E-03 -0.89287537660E+03  0.11071245734E+04  0.65459787870E+03 0.  0.
         13    1    3    3    0    0  0.23042777411E+03 -0.19864237741E+03 -0.24229136567E+03  0.38892269034E+03  0.00000000000E+00 0.  1.
          3    1    3    3  501    0 -0.23042421103E+03  0.19864307807E+03 -0.65058401093E+03  0.71820188302E+03  0.00000000000E+00 0.  1.
         21    1    1    2  502  501 -0.35630823897E-02 -0.70065691123E-03  0.13175756697E+00  0.13180759815E+00  0.00000000000E+00 0. -1.
<mgrwt>
<rscale>  1 0.65459788E+03</rscale>
<asrwt>0</asrwt>
<pdfrwt beam="1">  1        1 0.39002403E+00 0.65459788E+03</pdfrwt>
<pdfrwt beam="2">0</pdfrwt>
<totfact> 0.14804424E+00</totfact>
</mgrwt>
</event>
<event>
 6    1  0.1040300E-002  0.6382798E+03  0.7818608E-02  0.9829023E-01
          1   -1    0    0  502    0  0.00000000000E+00  0.00000000000E+00  0.10632921342E+03  0.10632921342E+03  0.00000000000E+00 0.  1.
         13   -1    0    0    0    0 -0.00000000000E+00 -0.00000000000E+00 -0.10000000000E+04  0.10000000000E+04  0.00000000000E+00 0.  1.
    9000005    2    1    2  501    0 -0.30490533339E+01 -0.12423213098E+01 -0.89747355244E+03  0.11012991919E+04  0.63827133151E+03 0.  0.
         13    1    3    3    0    0 -0.22736786624E+03  0.18348557033E+03 -0.67436974875E+03  0.73494058205E+03  0.00000000000E+00 0.  1.
          3    1    3    3  501    0  0.22431881291E+03 -0.18472789164E+03 -0.22310380369E+03  0.36635860983E+03  0.00000000000E+00 0.  1.
         21    1    1    2  502  501  0.30490533339E+01  0.12423213098E+01  0.38027658550E+01  0.50300215325E+01  0.00000000000E+00 0.  1.
<mgrwt>
<rscale>  1 0.63827982E+03</rscale>
<asrwt>0</asrwt>
<pdfrwt beam="1">  1        1 0.38665250E+00 0.63827982E+03</pdfrwt>
<pdfrwt beam="2">0</pdfrwt>
<totfact> 0.15369195E+00</totfact>
</mgrwt>
</event>
<event>
 6    1  0.1040300E-002  0.6543648E+03  0.7818608E-02  0.9798623E-01
          1   -1    0    0  502    0  0.00000000000E+00  0.00000000000E+00  0.10704870604E+03  0.10704870604E+03  0.00000000000E+00 0.  1.
         13   -1    0    0    0    0 -0.00000000000E+00 -0.00000000000E+00 -0.10000000000E+04  0.10000000000E+04  0.00000000000E+00 0.  1.
    9000005    2    1    2  501    0  0.18346975793E-04  0.31435058446E-04 -0.89295167492E+03  0.11070483233E+04  0.65436480381E+03 0.  0.
         13    1    3    3    0    0 -0.99351170582E+02  0.25584060872E+03 -0.74780110999E+03  0.79657490060E+03  0.00000000000E+00 0.  1.
          3    1    3    3  501    0  0.99351188929E+02 -0.25584057728E+03 -0.14515056493E+03  0.31047342274E+03  0.00000000000E+00 0.  1.
         21    1    1    2  502  501 -0.18346975795E-04 -0.31435058459E-04  0.38096095359E-03  0.38269573107E-03  0.00000000000E+00 0. -1.
<mgrwt>
<rscale>  1 0.65436480E+03</rscale>
<asrwt>0</asrwt>
<pdfrwt beam="1">  1        1 0.38926884E+00 0.65436480E+03</pdfrwt>
<pdfrwt beam="2">0</pdfrwt>
<totfact> 0.14919653E+00</totfact>
</mgrwt>
</event>
<event>
 6    1  0.1040300E-002  0.6618894E+03  0.7818608E-02  0.9784722E-01
          1   -1    0    0  502    0  0.00000000000E+00  0.00000000000E+00  0.10952511938E+03  0.10952511938E+03  0.00000000000E+00 0.  1.
         13   -1    0    0    0    0 -0.00000000000E+00 -0.00000000000E+00 -0.10000000000E+04  0.10000000000E+04  0.00000000000E+00 0.  1.
    9000005    2    1    2  501    0  0.78615939287E-05 -0.16472415325E-04 -0.89047559715E+03  0.11095244026E+04  0.66188942496E+03 0.  0.
         13    1    3    3    0    0 -0.12295968822E+03 -0.10011730531E+03 -0.93217832653E+03  0.94556807910E+03  0.00000000000E+00 0.  1.
          1    1    3    3  501    0  0.12295969608E+03  0.10011728883E+03  0.41702729380E+02  0.16395632352E+03  0.00000000000E+00 0.  1.
         21    1    1    2  502  501 -0.78615939269E-05  0.16472415334E-04  0.71653450798E-03  0.71676693998E-03  0.00000000000E+00 0.  1.
<mgrwt>
<rscale>  1 0.66188942E+03</rscale>
<asrwt>0</asrwt>
<pdfrwt beam="1">  1        1 0.39827400E+00 0.66188942E+03</pdfrwt>
<pdfrwt beam="2">0</pdfrwt>
<totfact> 0.13587291E+00</totfact>
</mgrwt>
</event>
<event>
 6    1  0.1040300E-002  0.6496232E+03  0.7818608E-02  0.9807487E-01
          1   -1    0    0  502    0  0.00000000000E+00  0.00000000000E+00  0.10551747991E+03  0.10551747991E+03  0.00000000000E+00 0.  1.
         13   -1    0    0    0    0 -0.00000000000E+00 -0.00000000000E+00 -0.10000000000E+04  0.10000000000E+04  0.00000000000E+00 0.  1.
    9000005    2    1    2  501    0  0.38281095931E-03  0.14251179124E-04 -0.89449743418E+03  0.11055025609E+04  0.64962316185E+03 0.  0.
         13    1    3    3    0    0  0.28063644146E+03  0.16292054584E+03 -0.47148073758E+03  0.57235828153E+03  0.00000000000E+00 0.  1.
          1    1    3    3  501    0 -0.28063605864E+03 -0.16292053159E+03 -0.42301669660E+03  0.53314427937E+03  0.00000000000E+00 0.  1.
         21    1    1    2  502  501 -0.38281095927E-03 -0.14251179134E-04  0.14914092186E-01  0.14919011129E-01  0.00000000000E+00 0.  1.
<mgrwt>
<rscale>  1 0.64962316E+03</rscale>
<asrwt>0</asrwt>
<pdfrwt beam="1">  1        1 0.38370074E+00 0.64962316E+03</pdfrwt>
<pdfrwt beam="2">0</pdfrwt>
<totfact> 0.15804745E+00</totfact>
</mgrwt>
</event>
<event>
 6    1  0.1040300E-002  0.6442520E+03  0.7818608E-02  0.9817625E-01
          1   -1    0    0  502    0  0.00000000000E+00  0.00000000000E+00  0.10401898952E+03  0.10401898952E+03  0.00000000000E+00 0.  1.
         13   -1    0    0    0    0 -0.00000000000E+00 -0.00000000000E+00 -0.10000000000E+04  0.10000000000E+04  0.00000000000E+00 0.  1.
    9000005    2    1    2  501    0 -0.14595298189E+00  0.11707069952E-01 -0.89621133016E+03  0.11037460674E+04  0.64425197832E+03 0.  0.
         13    1    3    3    0    0 -0.15057661967E+03  0.21467273203E+03 -0.12749800752E+03  0.29157064699E+03  0.00000000000E+00 0.  1.
          1    1    3    3  501    0  0.15043066669E+03 -0.21466102496E+03 -0.76871332264E+03  0.81217542041E+03  0.00000000000E+00 0.  1.
         21    1    1    2  502  501  0.14595298189E+00 -0.11707069952E-01  0.23031967450E+00  0.27292211503E+00  0.00000000000E+00 0.  1.
<mgrwt>
<rscale>  1 0.64425199E+03</rscale>
<asrwt>0</asrwt>
<pdfrwt beam="1">  1        1 0.37825167E+00 0.64425199E+03</pdfrwt>
<pdfrwt beam="2">0</pdfrwt>
<totfact> 0.16721326E+00</totfact>
</mgrwt>
</event>
<event>
 6    1  0.1040300E-002  0.4675046E+03  0.7818608E-02  0.1022627E+00
          1   -1    0    0  502    0  0.00000000000E+00  0.00000000000E+00  0.54669439114E+02  0.54669439114E+02  0.00000000000E+00 0.  1.
         13   -1    0    0    0    0 -0.00000000000E+00 -0.00000000000E+00 -0.10000000000E+04  0.10000000000E+04  0.00000000000E+00 0.  1.
    9000005    2    1    2  501    0 -0.14206499468E-01  0.27955490737E-01 -0.94535086154E+03  0.10546320834E+04  0.46750462982E+03 0.  0.
         13    1    3    3    0    0  0.18667637663E+03 -0.59708435395E+02 -0.75998347994E+03  0.78484906615E+03  0.00000000000E+00 0.  1.
          1    1    3    3  501    0 -0.18669058313E+03  0.59736390886E+02 -0.18536738160E+03  0.26978301723E+03  0.00000000000E+00 0.  1.
         21    1    1    2  502  501  0.14206499468E-01 -0.27955490737E-01  0.20300654282E-01  0.37355731203E-01  0.00000000000E+00 0.  1.
<mgrwt>
<rscale>  1 0.46750463E+03</rscale>
<asrwt>0</asrwt>
<pdfrwt beam="1">  1        1 0.19879838E+00 0.46750463E+03</pdfrwt>
<pdfrwt beam="2">0</pdfrwt>
<totfact> 0.10463619E+01</totfact>
</mgrwt>
</event>
<event>
 6    1  0.1040300E-002  0.6249484E+03  0.7818608E-02  0.9854956E-01
          1   -1    0    0  502    0  0.00000000000E+00  0.00000000000E+00  0.97856174485E+02  0.97856174485E+02  0.00000000000E+00 0.  1.
         13   -1    0    0    0    0 -0.00000000000E+00 -0.00000000000E+00 -0.10000000000E+04  0.10000000000E+04  0.00000000000E+00 0.  1.
    9000005    2    1    2  501    0  0.32229873073E-02  0.29949904464E-03 -0.90235986116E+03  0.10976401146E+04  0.62494839955E+03 0.  0.
         13    1    3    3    0    0 -0.25018203582E+03 -0.17993504956E+03 -0.54196018284E+03  0.62344888555E+03  0.00000000000E+00 0.  1.
          3    1    3    3  501    0  0.25018525881E+03  0.17993534905E+03 -0.36039967832E+03  0.47419122904E+03  0.00000000000E+00 0.  1.
         21    1    1    2  502  501 -0.32229873073E-02 -0.29949904466E-03  0.21603564870E+00  0.21605989646E+00  0.00000000000E+00 0.  1.
<mgrwt>
<rscale>  1 0.62494840E+03</rscale>
<asrwt>0</asrwt>
<pdfrwt beam="1">  1        1 0.35584138E+00 0.62494840E+03</pdfrwt>
<pdfrwt beam="2">0</pdfrwt>
<totfact> 0.21042525E+00</totfact>
</mgrwt>
</event>
<event>
 6    1  0.1040300E-002  0.6479664E+03  0.7818608E-02  0.9810602E-01
          1   -1    0    0  502    0  0.00000000000E+00  0.00000000000E+00  0.10496527224E+03  0.10496527224E+03  0.00000000000E+00 0.  1.
         13   -1    0    0    0    0 -0.00000000000E+00 -0.00000000000E+00 -0.10000000000E+04  0.10000000000E+04  0.00000000000E+00 0.  1.
    9000005    2    1    2  501    0 -0.47722548402E-04  0.55812261230E-05 -0.89503486665E+03  0.11049651253E+04  0.64796644633E+03 0.  0.
         13    1    3    3    0    0  0.32226419906E+03 -0.20961454418E+02 -0.49170745145E+03  0.58827698780E+03  0.00000000000E+00 0.  1.
          1    1    3    3  501    0 -0.32226424678E+03  0.20961459999E+02 -0.40332741520E+03  0.51668813748E+03  0.00000000000E+00 0.  1.
         21    1    1    2  502  501  0.47722548415E-04 -0.55812261211E-05  0.13888674434E-03  0.14696298672E-03  0.00000000000E+00 0.  1.
<mgrwt>
<rscale>  1 0.64796645E+03</rscale>
<asrwt>0</asrwt>
<pdfrwt beam="1">  1        1 0.38169270E+00 0.64796645E+03</pdfrwt>
<pdfrwt beam="2">0</pdfrwt>
<totfact> 0.16135848E+00</totfact>
</mgrwt>
</event>
<event>
 6    1  0.1040300E-002  0.6084243E+03  0.7818608E-02  0.9888081E-01
          1   -1    0    0  502    0  0.00000000000E+00  0.00000000000E+00  0.93670369833E+02  0.93670369833E+02  0.00000000000E+00 0.  1.
         13   -1    0    0    0    0 -0.00000000000E+00 -0.00000000000E+00 -0.10000000000E+04  0.10000000000E+04  0.00000000000E+00 0.  1.
    9000005    2    1    2  501    0 -0.37103336894E+00 -0.20761622690E+00 -0.90741094072E+03  0.10925084736E+04  0.60842416853E+03 0.  0.
         13    1    3    3    0    0  0.24512989978E+03  0.16386405684E+03 -0.32047430690E+03  0.43548120312E+03  0.00000000000E+00 0.  1.
          1    1    3    3  501    0 -0.24550093315E+03 -0.16407167306E+03 -0.58693663383E+03  0.65702727052E+03  0.00000000000E+00 0.  1.
         21    1    1    2  502  501  0.37103336894E+00  0.20761622690E+00  0.10813105540E+01  0.11618961970E+01  0.00000000000E+00 0.  1.
<mgrwt>
<rscale>  1 0.60842432E+03</rscale>
<asrwt>0</asrwt>
<pdfrwt beam="1">  1        1 0.34062024E+00 0.60842432E+03</pdfrwt>
<pdfrwt beam="2">0</pdfrwt>
<totfact> 0.24584656E+00</totfact>
</mgrwt>
</event>
<event>
 6    1  0.1040300E-002  0.6395837E+03  0.7818608E-02  0.9826523E-01
          1   -1    0    0  502    0  0.00000000000E+00  0.00000000000E+00  0.10246117262E+03  0.10246117262E+03  0.00000000000E+00 0.  1.
         13   -1    0    0    0    0 -0.00000000000E+00 -0.00000000000E+00 -0.10000000000E+04  0.10000000000E+04  0.00000000000E+00 0.  1.
    9000005    2    1    2  501    0  0.19141367666E+00  0.25447694605E+00 -0.89757786605E+03  0.11021403585E+04  0.63958364794E+03 0.  0.
         13    1    3    3    0    0  0.24124960363E+03 -0.20969663233E+03 -0.43283428539E+03  0.53807022541E+03  0.00000000000E+00 0.  1.
          1    1    3    3  501    0 -0.24105818995E+03  0.20995110928E+03 -0.46474358066E+03  0.56407013305E+03  0.00000000000E+00 0.  1.
         21    1    1    2  502  501 -0.19141367666E+00 -0.25447694605E+00  0.39038673474E-01  0.32081416694E+00  0.00000000000E+00 0. -1.
<mgrwt>
<rscale>  1 0.63958373E+03</rscale>
<asrwt>0</asrwt>
<pdfrwt beam="1">  1        1 0.37258687E+00 0.63958373E+03</pdfrwt>
<pdfrwt beam="2">0</pdfrwt>
<totfact> 0.17724820E+00</totfact>
</mgrwt>
</event>
<event>
 6    1  0.1040300E-002  0.6456109E+03  0.7818608E-02  0.9815050E-01
          3   -1    0    0  502    0  0.00000000000E+00  0.00000000000E+00  0.10433162254E+03  0.10433162254E+03  0.00000000000E+00 0.  1.
         13   -1    0    0    0    0 -0.00000000000E+00 -0.00000000000E+00 -0.10000000000E+04  0.10000000000E+04  0.00000000000E+00 0.  1.
    9000005    2    1    2  501    0 -0.62167490561E-01 -0.39960009747E-02 -0.89578823483E+03  0.11041965427E+04  0.64561090406E+03 0.  0.
         13    1    3    3    0    0 -0.23982181036E+02 -0.31982091344E+03 -0.38516244243E+03  0.50120920655E+03  0.00000000000E+00 0.  1.
          1    1    3    3  501    0  0.23920013545E+02  0.31981691743E+03 -0.51062579240E+03  0.60298733618E+03  0.00000000000E+00 0.  1.
         21    1    1    2  502  501  0.62167490561E-01  0.39960009747E-02  0.11985737098E+00  0.13507980710E+00  0.00000000000E+00 0. -1.
<mgrwt>
<rscale>  1 0.64561091E+03</rscale>
<asrwt>0</asrwt>
<pdfrwt beam="1">  1        3 0.37938852E+00 0.64561091E+03</pdfrwt>
<pdfrwt beam="2">0</pdfrwt>
<totfact> 0.76097875E-02</totfact>
</mgrwt>
</event>
<event>
 6    1  0.1040300E-002  0.6595151E+03  0.7818608E-02  0.9789087E-01
          1   -1    0    0  502    0  0.00000000000E+00  0.00000000000E+00  0.10874005950E+03  0.10874005950E+03  0.00000000000E+00 0.  1.
         13   -1    0    0    0    0 -0.00000000000E+00 -0.00000000000E+00 -0.10000000000E+04  0.10000000000E+04  0.00000000000E+00 0.  1.
    9000005    2    1    2  501    0  0.19367865363E-04 -0.15903801796E-05 -0.89125992343E+03  0.11087400336E+04  0.65951513331E+03 0.  0.
         13    1    3    3    0    0 -0.98328079654E+02  0.27895080888E+03 -0.69074334739E+03  0.75140424339E+03  0.00000000000E+00 0.  1.
          3    1    3    3  501    0  0.98328099022E+02 -0.27895081047E+03 -0.20051657604E+03  0.35733579024E+03  0.00000000000E+00 0.  1.
         21    1    1    2  502  501 -0.19367865362E-04  0.15903801537E-05 -0.17072803855E-04  0.25867434143E-04  0.00000000000E+00 0. -1.
<mgrwt>
<rscale>  1 0.65951513E+03</rscale>
<asrwt>0</asrwt>
<pdfrwt beam="1">  1        1 0.39541923E+00 0.65951513E+03</pdfrwt>
<pdfrwt beam="2">0</pdfrwt>
<totfact> 0.13996934E+00</totfact>
</mgrwt>
</event>
<event>
 6    1  0.1040300E-002  0.6529951E+03  0.7818608E-02  0.9801175E-01
          1   -1    0    0  502    0  0.00000000000E+00  0.00000000000E+00  0.10944027730E+03  0.10944027730E+03  0.00000000000E+00 0.  1.
         13   -1    0    0    0    0 -0.00000000000E+00 -0.00000000000E+00 -0.10000000000E+04  0.10000000000E+04  0.00000000000E+00 0.  1.
    9000005    2    1    2  501    0  0.96396294472E-01 -0.56647140145E+00 -0.89336715599E+03  0.11065746423E+04  0.65299481885E+03 0.  0.
         13    1    3    3    0    0 -0.30805746995E+01  0.26787376756E+02 -0.99800738721E+03  0.99837157332E+03  0.00000000000E+00 0.  1.
          1    1    3    3  501    0  0.31769709940E+01 -0.27353848158E+02  0.10464023121E+03  0.10820306901E+03  0.00000000000E+00 0.  1.
         21    1    1    2  502  501 -0.96396294472E-01  0.56647140145E+00  0.28074332943E+01  0.28656349726E+01  0.00000000000E+00 0. -1.
<mgrwt>
<rscale>  1 0.65299507E+03</rscale>
<asrwt>0</asrwt>
<pdfrwt beam="1">  1        1 0.39796548E+00 0.65299507E+03</pdfrwt>
<pdfrwt beam="2">0</pdfrwt>
<totfact> 0.13653128E+00</totfact>
</mgrwt>
</event>
<event>
 6    1  0.1040300E-002  0.6513183E+03  0.7818608E-02  0.9804309E-01
          1   -1    0    0  502    0  0.00000000000E+00  0.00000000000E+00  0.10605391219E+03  0.10605391219E+03  0.00000000000E+00 0.  1.
         13   -1    0    0    0    0 -0.00000000000E+00 -0.00000000000E+00 -0.10000000000E+04  0.10000000000E+04  0.00000000000E+00 0.  1.
    9000005    2    1    2  501    0  0.69992904628E-06 -0.28768434035E-05 -0.89394610814E+03  0.11060538916E+04  0.65131832997E+03 0.  0.
         13    1    3    3    0    0 -0.32015722566E+03  0.49311532171E+02 -0.50384589081E+03  0.59899328714E+03  0.00000000000E+00 0.  1.
          1    1    3    3  501    0  0.32015722636E+03 -0.49311535048E+02 -0.39010021733E+03  0.50706060451E+03  0.00000000000E+00 0.  1.
         21    1    1    2  502  501 -0.69992899491E-06  0.28768434017E-05  0.20329936072E-04  0.20544401409E-04  0.00000000000E+00 0. -1.
<mgrwt>
<rscale>  1 0.65131833E+03</rscale>
<asrwt>0</asrwt>
<pdfrwt beam="1">  1        1 0.38565140E+00 0.65131833E+03</pdfrwt>
<pdfrwt beam="2">0</pdfrwt>
<totfact> 0.15489048E+00</totfact>
</mgrwt>
</event>
<event>
 6    1  0.1040300E-002  0.6564492E+03  0.7818608E-02  0.9794752E-01
          1   -1    0    0  502    0  0.00000000000E+00  0.00000000000E+00  0.10777798609E+03  0.10777798609E+03  0.00000000000E+00 0.  1.
         13   -1    0    0    0    0 -0.00000000000E+00 -0.00000000000E+00 -0.10000000000E+04  0.10000000000E+04  0.00000000000E+00 0.  1.
    9000005    2    1    2  501    0 -0.61546036421E-01 -0.39020999772E-01 -0.89223463906E+03  0.11077040270E+04  0.65644920213E+03 0.  0.
         13    1    3    3    0    0 -0.26663075503E+03 -0.54882322171E+01 -0.12321537161E+03  0.29377560828E+03  0.00000000000E+00 0.  1.
          1    1    3    3  501    0  0.26656920899E+03  0.54492112174E+01 -0.76901926745E+03  0.81392841871E+03  0.00000000000E+00 0.  1.
         21    1    1    2  502  501  0.61546036421E-01  0.39020999772E-01  0.12625149924E-01  0.73959092970E-01  0.00000000000E+00 0. -1.
<mgrwt>
<rscale>  1 0.65644921E+03</rscale>
<asrwt>0</asrwt>
<pdfrwt beam="1">  1        1 0.39192078E+00 0.65644921E+03</pdfrwt>
<pdfrwt beam="2">0</pdfrwt>
<totfact> 0.14515308E+00</totfact>
</mgrwt>
</event>
<event>
 6    1  0.1040300E-002  0.6568771E+03  0.7818608E-02  0.9793960E-01
          1   -1    0    0  502    0  0.00000000000E+00  0.00000000000E+00  0.10787275050E+03  0.10787275050E+03  0.00000000000E+00 0.  1.
         13   -1    0    0    0    0 -0.00000000000E+00 -0.00000000000E+00 -0.10000000000E+04  0.10000000000E+04  0.00000000000E+00 0.  1.
    9000005    2    1    2  501    0  0.95328956911E-03 -0.84908286260E-03 -0.89212758798E+03  0.11078714298E+04  0.65687705982E+03 0.  0.
         13    1    3    3    0    0  0.14878326495E+03 -0.17754063683E+03 -0.83876818659E+03  0.87016619591E+03  0.00000000000E+00 0.  1.
          1    1    3    3  501    0 -0.14878231166E+03  0.17753978775E+03 -0.53359401382E+02  0.23770523388E+03  0.00000000000E+00 0.  1.
         21    1    1    2  502  501 -0.95328956911E-03  0.84908286261E-03  0.33847297842E-03  0.13207068817E-02  0.00000000000E+00 0.  1.
<mgrwt>
<rscale>  1 0.65687706E+03</rscale>
<asrwt>0</asrwt>
<pdfrwt beam="1">  1        1 0.39226537E+00 0.65687706E+03</pdfrwt>
<pdfrwt beam="2">0</pdfrwt>
<totfact> 0.14463114E+00</totfact>
</mgrwt>
</event>
<event>
 6    1  0.1040300E-002  0.6625192E+03  0.7818608E-02  0.9783567E-01
          3   -1    0    0  502    0  0.00000000000E+00  0.00000000000E+00  0.15158549890E+03  0.15158549890E+03  0.00000000000E+00 0.  1.
         13   -1    0    0    0    0 -0.00000000000E+00 -0.00000000000E+00 -0.10000000000E+04  0.10000000000E+04  0.00000000000E+00 0.  1.
    9000005    2    1    2  501    0  0.53456853348E+00  0.33681089993E+00 -0.89026442758E+03  0.11097308032E+04  0.66251890943E+03 0.  0.
         13    1    3    3    0    0  0.19704773384E+03 -0.14733420819E+03 -0.73507038759E+02  0.25678485754E+03  0.00000000000E+00 0.  1.
          1    1    3    3  501    0 -0.19651316531E+03  0.14767101909E+03 -0.81675738883E+03  0.85294594566E+03  0.00000000000E+00 0.  1.
         21    1    1    2  502  501 -0.53456853348E+00 -0.33681089993E+00  0.41849926483E+02  0.41854695695E+02  0.00000000000E+00 0.  1.
<mgrwt>
<rscale>  1 0.66251921E+03</rscale>
<asrwt>0</asrwt>
<pdfrwt beam="1">  1        3 0.55122116E+00 0.66251921E+03</pdfrwt>
<pdfrwt beam="2">0</pdfrwt>
<totfact> 0.10499799E-02</totfact>
</mgrwt>
</event>
<event>
 6    1  0.1040300E-002  0.5393955E+03  0.7818608E-02  0.1003979E+00
          1   -1    0    0  502    0  0.00000000000E+00  0.00000000000E+00  0.72736908120E+02  0.72736908120E+02  0.00000000000E+00 0.  1.
         13   -1    0    0    0    0 -0.00000000000E+00 -0.00000000000E+00 -0.10000000000E+04  0.10000000000E+04  0.00000000000E+00 0.  1.
    9000005    2    1    2  501    0  0.45279073433E-05 -0.43255862465E-05 -0.92726311026E+03  0.10727368887E+04  0.53939554755E+03 0.  0.
         13    1    3    3    0    0  0.26929652875E+02  0.19240383195E+03 -0.83565731847E+03  0.85794381790E+03  0.00000000000E+00 0.  1.
          1    1    3    3  501    0 -0.26929648347E+02 -0.19240383628E+03 -0.91605791793E+02  0.21479307080E+03  0.00000000000E+00 0.  1.
         21    1    1    2  502  501 -0.45279073425E-05  0.43255862330E-05  0.18383364653E-04  0.19420626590E-04  0.00000000000E+00 0.  1.
<mgrwt>
<rscale>  1 0.53939555E+03</rscale>
<asrwt>0</asrwt>
<pdfrwt beam="1">  1        1 0.26449841E+00 0.53939555E+03</pdfrwt>
<pdfrwt beam="2">0</pdfrwt>
<totfact> 0.53075952E+00</totfact>
</mgrwt>
</event>
<event>
 6    1  0.1040300E-002  0.6374730E+03  0.7818608E-02  0.9830573E-01
          3   -1    0    0  502    0  0.00000000000E+00  0.00000000000E+00  0.10167553921E+03  0.10167553921E+03  0.00000000000E+00 0.  1.
         13   -1    0    0    0    0 -0.00000000000E+00 -0.00000000000E+00 -0.10000000000E+04  0.10000000000E+04  0.00000000000E+00 0.  1.
    9000005    2    1    2  501    0 -0.18563830792E-02 -0.96497490074E-03 -0.89840701851E+03  0.11015929550E+04  0.63747303280E+03 0.  0.
         13    1    3    3    0    0  0.18104026655E+03  0.51133379362E+02 -0.89382996932E+03  0.91341240119E+03  0.00000000000E+00 0.  1.
          1    1    3    3  501    0 -0.18104212293E+03 -0.51134344337E+02 -0.45770491983E+01  0.18818055379E+03  0.00000000000E+00 0.  1.
         21    1    1    2  502  501  0.18563830792E-02  0.96497490074E-03  0.82557720399E-01  0.82584226897E-01  0.00000000000E+00 0. -1.
<mgrwt>
<rscale>  1 0.63747303E+03</rscale>
<asrwt>0</asrwt>
<pdfrwt beam="1">  1        3 0.36973001E+00 0.63747303E+03</pdfrwt>
<pdfrwt beam="2">0</pdfrwt>
<totfact> 0.85713936E-02</totfact>
</mgrwt>
</event>
<event>
 6    1  0.1040300E-002  0.6539646E+03  0.7818608E-02  0.9799368E-01
          1   -1    0    0  502    0  0.00000000000E+00  0.00000000000E+00  0.10691821153E+03  0.10691821153E+03  0.00000000000E+00 0.  1.
         13   -1    0    0    0    0 -0.00000000000E+00 -0.00000000000E+00 -0.10000000000E+04  0.10000000000E+04  0.00000000000E+00 0.  1.
    9000005    2    1    2  501    0  0.28336256719E-05  0.13210686235E-03 -0.89308258514E+03  0.11069174040E+04  0.65396455206E+03 0.  0.
         13    1    3    3    0    0 -0.31482728552E+03  0.71096273006E+02 -0.53524714783E+03  0.62502832656E+03  0.00000000000E+00 0.  1.
          3    1    3    3  501    0  0.31482728835E+03 -0.71096140899E+02 -0.35783543731E+03  0.48188907742E+03  0.00000000000E+00 0.  1.
         21    1    1    2  502  501 -0.28336256421E-05 -0.13210686235E-03  0.79666655683E-03  0.80755052801E-03  0.00000000000E+00 0. -1.
<mgrwt>
<rscale>  1 0.65396455E+03</rscale>
<asrwt>0</asrwt>
<pdfrwt beam="1">  1        1 0.38879432E+00 0.65396455E+03</pdfrwt>
<pdfrwt beam="2">0</pdfrwt>
<totfact> 0.14993197E+00</totfact>
</mgrwt>
</event>
<event>
 6    1  0.1040300E-002  0.6493900E+03  0.7818608E-02  0.9807924E-01
          1   -1    0    0  502    0  0.00000000000E+00  0.00000000000E+00  0.10550131586E+03  0.10550131586E+03  0.00000000000E+00 0.  1.
         13   -1    0    0    0    0 -0.00000000000E+00 -0.00000000000E+00 -0.10000000000E+04  0.10000000000E+04  0.00000000000E+00 0.  1.
    9000005    2    1    2  501    0 -0.14367010143E+00  0.80123446980E-01 -0.89445480182E+03  0.11053310616E+04  0.64938997230E+03 0.  0.
         13    1    3    3    0    0  0.28800351936E+03 -0.14959930258E+03 -0.45884411137E+03  0.56201770171E+03  0.00000000000E+00 0.  1.
          3    1    3    3  501    0 -0.28814718946E+03  0.14967942603E+03 -0.43561069045E+03  0.54331335986E+03  0.00000000000E+00 0.  1.
         21    1    1    2  502  501  0.14367010143E+00 -0.80123446980E-01 -0.43882316025E-01  0.17025428764E+00  0.00000000000E+00 0. -1.
<mgrwt>
<rscale>  1 0.64938999E+03</rscale>
<asrwt>0</asrwt>
<pdfrwt beam="1">  1        1 0.38364196E+00 0.64938999E+03</pdfrwt>
<pdfrwt beam="2">0</pdfrwt>
<totfact> 0.15814883E+00</totfact>
</mgrwt>
</event>
<event>
 6    1  0.1040300E-002  0.6496556E+03  0.7818608E-02  0.9807426E-01
          1   -1    0    0  502    0  0.00000000000E+00  0.00000000000E+00  0.10551311598E+03  0.10551311598E+03  0.00000000000E+00 0.  1.
         13   -1    0    0    0    0 -0.00000000000E+00 -0.00000000000E+00 -0.10000000000E+04  0.10000000000E+04  0.00000000000E+00 0.  1.
    9000005    2    1    2  501    0 -0.21160271046E-05 -0.14467901224E-05 -0.89448690754E+03  0.11055130923E+04  0.64965557762E+03 0.  0.
         13    1    3    3    0    0 -0.13952337132E+03  0.27939839747E+03 -0.59928416154E+03  0.67577491957E+03  0.00000000000E+00 0.  1.
          3    1    3    3  501    0  0.13952336920E+03 -0.27939839892E+03 -0.29520274600E+03  0.42973817275E+03  0.00000000000E+00 0.  1.
         21    1    1    2  502  501  0.21160270924E-05  0.14467901070E-05  0.23516378616E-04  0.23655672374E-04  0.00000000000E+00 0. -1.
<mgrwt>
<rscale>  1 0.64965558E+03</rscale>
<asrwt>0</asrwt>
<pdfrwt beam="1">  1        1 0.38368487E+00 0.64965558E+03</pdfrwt>
<pdfrwt beam="2">0</pdfrwt>
<totfact> 0.15807203E+00</totfact>
</mgrwt>
</event>
<event>
 6    1  0.1040300E-002  0.6632001E+03  0.7818608E-02  0.9782321E-01
          1   -1    0    0  502    0  0.00000000000E+00  0.00000000000E+00  0.10995901870E+03  0.10995901870E+03  0.00000000000E+00 0.  1.
         13   -1    0    0    0    0 -0.00000000000E+00 -0.00000000000E+00 -0.10000000000E+04  0.10000000000E+04  0.00000000000E+00 0.  1.
    9000005    2    1    2  501    0 -0.81632733959E-05  0.17115109330E-05 -0.89004140780E+03  0.11099585921E+04  0.66320009697E+03 0.  0.
         13    1    3    3    0    0 -0.30575149083E+02 -0.49666873519E+02 -0.99134824677E+03  0.99306242726E+03  0.00000000000E+00 0.  1.
          1    1    3    3  501    0  0.30575140920E+02  0.49666875230E+02  0.10130683897E+03  0.11689616486E+03  0.00000000000E+00 0.  1.
         21    1    1    2  502  501  0.81632733952E-05 -0.17115109295E-05  0.42649688194E-03  0.42657843195E-03  0.00000000000E+00 0. -1.
<mgrwt>
<rscale>  1 0.66320010E+03</rscale>
<asrwt>0</asrwt>
<pdfrwt beam="1">  1        1 0.39985182E+00 0.66320010E+03</pdfrwt>
<pdfrwt beam="2">0</pdfrwt>
<totfact> 0.13365777E+00</totfact>
</mgrwt>
</event>
<event>
 6    1  0.1040300E-002  0.6610109E+03  0.7818608E-02  0.9786335E-01
          1   -1    0    0  502    0  0.00000000000E+00  0.00000000000E+00  0.10923393615E+03  0.10923393615E+03  0.00000000000E+00 0.  1.
         13   -1    0    0    0    0 -0.00000000000E+00 -0.00000000000E+00 -0.10000000000E+04  0.10000000000E+04  0.00000000000E+00 0.  1.
    9000005    2    1    2  501    0 -0.13676972834E-03 -0.19146088545E-03 -0.89076553054E+03  0.11092333532E+04  0.66101089366E+03 0.  0.
         13    1    3    3    0    0  0.77329416333E+02  0.31932748601E+03 -0.38525426063E+03  0.50633065015E+03  0.00000000000E+00 0.  1.
          1    1    3    3  501    0 -0.77329553103E+02 -0.31932767747E+03 -0.50551126991E+03  0.60290270308E+03  0.00000000000E+00 0.  1.
         21    1    1    2  502  501  0.13676972834E-03  0.19146088543E-03 -0.53331296302E-03  0.58291161059E-03  0.00000000000E+00 0. -1.
<mgrwt>
<rscale>  1 0.66101089E+03</rscale>
<asrwt>0</asrwt>
<pdfrwt beam="1">  1        1 0.39721515E+00 0.66101089E+03</pdfrwt>
<pdfrwt beam="2">0</pdfrwt>
<totfact> 0.13737883E+00</totfact>
</mgrwt>
</event>
<event>
 6    1  0.1040300E-002  0.6565033E+03  0.7818608E-02  0.9794652E-01
          1   -1    0    0  502    0  0.00000000000E+00  0.00000000000E+00  0.10806135703E+03  0.10806135703E+03  0.00000000000E+00 0.  1.
         13   -1    0    0    0    0 -0.00000000000E+00 -0.00000000000E+00 -0.10000000000E+04  0.10000000000E+04  0.00000000000E+00 0.  1.
    9000005    2    1    2  501    0  0.22707195228E+00  0.42672696684E+00 -0.89202816201E+03  0.11075697563E+04  0.65650307668E+03 0.  0.
         13    1    3    3    0    0 -0.14931402645E+03 -0.26803837997E+03 -0.64144775757E+03  0.71105166994E+03  0.00000000000E+00 0.  1.
          1    1    3    3  501    0  0.14954109840E+03  0.26846510694E+03 -0.25058040444E+03  0.39651808640E+03  0.00000000000E+00 0.  1.
         21    1    1    2  502  501 -0.22707195228E+00 -0.42672696684E+00  0.89519042658E-01  0.49160068627E+00  0.00000000000E+00 0.  1.
<mgrwt>
<rscale>  1 0.65650325E+03</rscale>
<asrwt>0</asrwt>
<pdfrwt beam="1">  1        1 0.39295122E+00 0.65650325E+03</pdfrwt>
<pdfrwt beam="2">0</pdfrwt>
<totfact> 0.14363034E+00</totfact>
</mgrwt>
</event>
<event>
 6    1  0.1040300E-002  0.6360993E+03  0.7818608E-02  0.9833218E-01
          1   -1    0    0  502    0  0.00000000000E+00  0.00000000000E+00  0.10130526698E+03  0.10130526698E+03  0.00000000000E+00 0.  1.
         13   -1    0    0    0    0 -0.00000000000E+00 -0.00000000000E+00 -0.10000000000E+04  0.10000000000E+04  0.00000000000E+00 0.  1.
    9000005    2    1    2  501    0 -0.31332090168E-02 -0.20200183612E-02 -0.89884438533E+03  0.11011555682E+04  0.63609932906E+03 0.  0.
         13    1    3    3    0    0 -0.69704818497E+02  0.13945800722E+03  0.30466811321E+02  0.15885692963E+03  0.00000000000E+00 0.  1.
          3    1    3    3  501    0  0.69701685288E+02 -0.13946002724E+03 -0.92931119665E+03  0.94229863862E+03  0.00000000000E+00 0.  1.
         21    1    1    2  502  501  0.31332090168E-02  0.20200183612E-02  0.14965230526E+00  0.14969873060E+00  0.00000000000E+00 0.  1.
<mgrwt>
<rscale>  1 0.63609933E+03</rscale>
<asrwt>0</asrwt>
<pdfrwt beam="1">  1        1 0.36838357E+00 0.63609933E+03</pdfrwt>
<pdfrwt beam="2">0</pdfrwt>
<totfact> 0.18506389E+00</totfact>
</mgrwt>
</event>
<event>
 6    1  0.1040300E-002  0.6583299E+03  0.7818608E-02  0.9791273E-01
          1   -1    0    0  502    0  0.00000000000E+00  0.00000000000E+00  0.10916460279E+03  0.10916460279E+03  0.00000000000E+00 0.  1.
         13   -1    0    0    0    0 -0.00000000000E+00 -0.00000000000E+00 -0.10000000000E+04  0.10000000000E+04  0.00000000000E+00 0.  1.
    9000005    2    1    2  501    0 -0.36609613598E-01 -0.66334340281E-02 -0.89164997505E+03  0.11083491757E+04  0.65832986861E+03 0.  0.
         13    1    3    3    0    0  0.10955846243E+03 -0.31006167186E+03 -0.47000257848E+03  0.57362332660E+03  0.00000000000E+00 0.  1.
          1    1    3    3  501    0 -0.10959507204E+03  0.31005503843E+03 -0.42164739657E+03  0.53472584911E+03  0.00000000000E+00 0.  1.
         21    1    1    2  502  501  0.36609613598E-01  0.66334340281E-02  0.81457783957E+00  0.81542708011E+00  0.00000000000E+00 0.  1.
<mgrwt>
<rscale>  1 0.65832987E+03</rscale>
<asrwt>0</asrwt>
<pdfrwt beam="1">  1        1 0.39696303E+00 0.65832987E+03</pdfrwt>
<pdfrwt beam="2">0</pdfrwt>
<totfact> 0.13780334E+00</totfact>
</mgrwt>
</event>
<event>
 6    1  0.1040300E-002  0.6409283E+03  0.7818608E-02  0.9823952E-01
          1   -1    0    0  502    0  0.00000000000E+00  0.00000000000E+00  0.10275262023E+03  0.10275262023E+03  0.00000000000E+00 0.  1.
         13   -1    0    0    0    0 -0.00000000000E+00 -0.00000000000E+00 -0.10000000000E+04  0.10000000000E+04  0.00000000000E+00 0.  1.
    9000005    2    1    2  501    0  0.23240225646E-01 -0.58502224302E-02 -0.89729984018E+03  0.11026949450E+04  0.64092834079E+03 0.  0.
         13    1    3    3    0    0  0.25495424189E+03 -0.66784797844E+02 -0.76234433587E+03  0.80661686141E+03  0.00000000000E+00 0.  1.
          1    1    3    3  501    0 -0.25493100167E+03  0.66778947622E+02 -0.13495550432E+03  0.29607808362E+03  0.00000000000E+00 0.  1.
         21    1    1    2  502  501 -0.23240225646E-01  0.58502224302E-02  0.52460416564E-01  0.57675198279E-01  0.00000000000E+00 0. -1.
<mgrwt>
<rscale>  1 0.64092834E+03</rscale>
<asrwt>0</asrwt>
<pdfrwt beam="1">  1        1 0.37364668E+00 0.64092834E+03</pdfrwt>
<pdfrwt beam="2">0</pdfrwt>
<totfact> 0.17531300E+00</totfact>
</mgrwt>
</event>
<event>
 6    1  0.1040300E-002  0.6436787E+03  0.7818608E-02  0.9818713E-01
          1   -1    0    0  502    0  0.00000000000E+00  0.00000000000E+00  0.10358400059E+03  0.10358400059E+03  0.00000000000E+00 0.  1.
         13   -1    0    0    0    0 -0.00000000000E+00 -0.00000000000E+00 -0.10000000000E+04  0.10000000000E+04  0.00000000000E+00 0.  1.
    9000005    2    1    2  501    0 -0.10123655227E-02  0.22430764626E-03 -0.89641934279E+03  0.11035805001E+04  0.64367871028E+03 0.  0.
         13    1    3    3    0    0 -0.13749255431E+03 -0.41211932084E+02  0.45664486881E+02  0.15062493552E+03  0.00000000000E+00 0.  1.
          3    1    3    3  501    0  0.13749154195E+03  0.41212156392E+02 -0.94208382967E+03  0.95295556459E+03  0.00000000000E+00 0.  1.
         21    1    1    2  502  501  0.10123655226E-02 -0.22430764626E-03  0.33433803351E-02  0.35004842432E-02  0.00000000000E+00 0. -1.
<mgrwt>
<rscale>  1 0.64367871E+03</rscale>
<asrwt>0</asrwt>
<pdfrwt beam="1">  1        1 0.37666989E+00 0.64367871E+03</pdfrwt>
<pdfrwt beam="2">0</pdfrwt>
<totfact> 0.16993663E+00</totfact>
</mgrwt>
</event>
<event>
 6    1  0.1040300E-002  0.5537089E+03  0.7818608E-02  0.1000639E+00
          1   -1    0    0  502    0  0.00000000000E+00  0.00000000000E+00  0.77391194350E+02  0.77391194350E+02  0.00000000000E+00 0.  1.
         13   -1    0    0    0    0 -0.00000000000E+00 -0.00000000000E+00 -0.10000000000E+04  0.10000000000E+04  0.00000000000E+00 0.  1.
    9000005    2    1    2  501    0  0.33210695101E+00 -0.61468256506E+00 -0.92317164235E+03  0.10764940239E+04  0.55370841975E+03 0.  0.
         13    1    3    3    0    0  0.94046219225E+01  0.27621289819E+03 -0.48048102648E+03  0.55429597586E+03  0.00000000000E+00 0.  1.
          3    1    3    3  501    0 -0.90725149715E+01 -0.27682758076E+03 -0.44269061587E+03  0.52219804804E+03  0.00000000000E+00 0.  1.
         21    1    1    2  502  501 -0.33210695101E+00  0.61468256506E+00  0.56283669971E+00  0.89717045941E+00  0.00000000000E+00 0. -1.
<mgrwt>
<rscale>  1 0.55370886E+03</rscale>
<asrwt>0</asrwt>
<pdfrwt beam="1">  1        1 0.28142312E+00 0.55370886E+03</pdfrwt>
<pdfrwt beam="2">0</pdfrwt>
<totfact> 0.44738669E+00</totfact>
</mgrwt>
</event>
<event>
 6    1  0.1040300E-002  0.6539220E+03  0.7818608E-02  0.9799447E-01
          3   -1    0    0  502    0  0.00000000000E+00  0.00000000000E+00  0.10691928220E+03  0.10691928220E+03  0.00000000000E+00 0.  1.
         13   -1    0    0    0    0 -0.00000000000E+00 -0.00000000000E+00 -0.10000000000E+04  0.10000000000E+04  0.00000000000E+00 0.  1.
    9000005    2    1    2  501    0 -0.58987166085E-03 -0.35444114235E-02 -0.89309626346E+03  0.11069033267E+04  0.65392204338E+03 0.  0.
         13    1    3    3    0    0 -0.28905424448E+03 -0.12616896409E+03 -0.30061069186E+03  0.43570374317E+03  0.00000000000E+00 0.  1.
          3    1    3    3  501    0  0.28905365461E+03  0.12616541968E+03 -0.59248557160E+03  0.67119958352E+03  0.00000000000E+00 0.  1.
         21    1    1    2  502  501  0.58987166085E-03  0.35444114235E-02  0.15545660399E-01  0.15955511843E-01  0.00000000000E+00 0.  1.
<mgrwt>
<rscale>  1 0.65392204E+03</rscale>
<asrwt>0</asrwt>
<pdfrwt beam="1">  1        3 0.38879821E+00 0.65392204E+03</pdfrwt>
<pdfrwt beam="2">0</pdfrwt>
<totfact> 0.67787062E-02</totfact>
</mgrwt>
</event>
<event>
 6    1  0.1040300E-002  0.6742299E+03  0.7818608E-02  0.9762346E-01
          1   -1    0    0  502    0  0.00000000000E+00  0.00000000000E+00  0.11365866902E+03  0.11365866902E+03  0.00000000000E+00 0.  1.
         13   -1    0    0    0    0 -0.00000000000E+00 -0.00000000000E+00 -0.10000000000E+04  0.10000000000E+04  0.00000000000E+00 0.  1.
    9000005    2    1    2  501    0 -0.58747163497E-03 -0.17680127529E-03 -0.88635348699E+03  0.11136464975E+04  0.67422994415E+03 0.  0.
         13    1    3    3    0    0 -0.71116689487E+02  0.11150696251E+03 -0.95536027254E+03  0.96447116937E+03  0.00000000000E+00 0.  1.
          3    1    3    3  501    0  0.71116102015E+02 -0.11150713931E+03  0.69006785546E+02  0.14917532817E+03  0.00000000000E+00 0.  1.
         21    1    1    2  502  501  0.58747163498E-03  0.17680127528E-03  0.12156011459E-01  0.12171482909E-01  0.00000000000E+00 0. -1.
<mgrwt>
<rscale>  1 0.67422994E+03</rscale>
<asrwt>0</asrwt>
<pdfrwt beam="1">  1        1 0.41330512E+00 0.67422994E+03</pdfrwt>
<pdfrwt beam="2">0</pdfrwt>
<totfact> 0.11610903E+00</totfact>
</mgrwt>
</event>
<event>
 6    1  0.1040300E-002  0.6510635E+03  0.7818608E-02  0.9804786E-01
          1   -1    0    0  502    0  0.00000000000E+00  0.00000000000E+00  0.10612597423E+03  0.10612597423E+03  0.00000000000E+00 0.  1.
         13   -1    0    0    0    0 -0.00000000000E+00 -0.00000000000E+00 -0.10000000000E+04  0.10000000000E+04  0.00000000000E+00 0.  1.
    9000005    2    1    2  501    0  0.28601399777E-02 -0.96311215882E-03 -0.89402906655E+03  0.11059709041E+04  0.65106349064E+03 0.  0.
         13    1    3    3    0    0  0.31375358926E+03  0.15564486752E+02 -0.30199521215E+03  0.43575758878E+03  0.00000000000E+00 0.  1.
          3    1    3    3  501    0 -0.31375072912E+03 -0.15565449864E+02 -0.59203385440E+03  0.67021331530E+03  0.00000000000E+00 0.  1.
         21    1    1    2  502  501 -0.28601399776E-02  0.96311215882E-03  0.15504077699E+00  0.15507014708E+00  0.00000000000E+00 0. -1.
<mgrwt>
<rscale>  1 0.65106349E+03</rscale>
<asrwt>0</asrwt>
<pdfrwt beam="1">  1        1 0.38591345E+00 0.65106349E+03</pdfrwt>
<pdfrwt beam="2">0</pdfrwt>
<totfact> 0.15448475E+00</totfact>
</mgrwt>
</event>
<event>
 6    1  0.1159469E-002  0.6136419E+03  0.7818608E-02  0.9877501E-01
          3   -1    0    0  502    0  0.00000000000E+00  0.00000000000E+00  0.94139247799E+02  0.94139247799E+02  0.00000000000E+00 0.  1.
         13   -1    0    0    0    0 -0.00000000000E+00 -0.00000000000E+00 -0.10000000000E+04  0.10000000000E+04  0.00000000000E+00 0.  1.
    9000005    2    1    2  501    0 -0.33962871851E-03  0.26578936200E-03 -0.90586048387E+03  0.10941387399E+04  0.61364188729E+03 0.  0.
         13    1    3    3    0    0 -0.17554322521E+03 -0.20115474634E+03 -0.72251772936E+03  0.77026652863E+03  0.00000000000E+00 0.  1.
          1    1    3    3  501    0  0.17554288558E+03  0.20115501213E+03 -0.18334275451E+03  0.32387221124E+03  0.00000000000E+00 0.  1.
         21    1    1    2  502  501  0.33962871851E-03 -0.26578936201E-03 -0.26832864770E-03  0.50792904482E-03  0.00000000000E+00 0. -1.
<mgrwt>
<rscale>  1 0.61364189E+03</rscale>
<asrwt>0</asrwt>
<pdfrwt beam="1">  1        3 0.34232526E+00 0.61364189E+03</pdfrwt>
<pdfrwt beam="2">0</pdfrwt>
<totfact> 0.12034737E-01</totfact>
</mgrwt>
</event>
<event>
 6    1  0.1040300E-002  0.6439514E+03  0.7818608E-02  0.9818196E-01
          1   -1    0    0  502    0  0.00000000000E+00  0.00000000000E+00  0.10366836386E+03  0.10366836386E+03  0.00000000000E+00 0.  1.
         13   -1    0    0    0    0 -0.00000000000E+00 -0.00000000000E+00 -0.10000000000E+04  0.10000000000E+04  0.00000000000E+00 0.  1.
    9000005    2    1    2  501    0 -0.44015206413E-06  0.21490339730E-05 -0.89633162998E+03  0.11036683573E+04  0.64395143611E+03 0.  0.
         13    1    3    3    0    0  0.88647921185E+02  0.73578379895E+01 -0.97852238663E+03  0.98255720080E+03  0.00000000000E+00 0.  1.
          1    1    3    3  501    0 -0.88647921625E+02 -0.73578358405E+01  0.82190756649E+02  0.12111115653E+03  0.00000000000E+00 0.  1.
         21    1    1    2  502  501  0.44015206681E-06 -0.21490339726E-05 -0.61537079599E-05  0.65330086876E-05  0.00000000000E+00 0.  1.
<mgrwt>
<rscale>  1 0.64395144E+03</rscale>
<asrwt>0</asrwt>
<pdfrwt beam="1">  1        1 0.37697666E+00 0.64395144E+03</pdfrwt>
<pdfrwt beam="2">0</pdfrwt>
<totfact> 0.16940014E+00</totfact>
</mgrwt>
</event>
<event>
 6    1  0.1040300E-002  0.6634485E+03  0.7818608E-02  0.9781866E-01
          1   -1    0    0  502    0  0.00000000000E+00  0.00000000000E+00  0.11019716922E+03  0.11019716922E+03  0.00000000000E+00 0.  1.
         13   -1    0    0    0    0 -0.00000000000E+00 -0.00000000000E+00 -0.10000000000E+04  0.10000000000E+04  0.00000000000E+00 0.  1.
    9000005    2    1    2  501    0 -0.66927360709E-02  0.52674851989E-02 -0.88995890633E+03  0.11100408615E+04  0.66344845999E+03 0.  0.
         13    1    3    3    0    0 -0.16081122402E+03  0.28816125044E+03 -0.38833463323E+03  0.50960861785E+03  0.00000000000E+00 0.  1.
          3    1    3    3  501    0  0.16080453128E+03 -0.28815598295E+03 -0.50162427310E+03  0.60043224360E+03  0.00000000000E+00 0.  1.
         21    1    1    2  502  501  0.66927360709E-02 -0.52674851989E-02  0.15607555529E+00  0.15630776716E+00  0.00000000000E+00 0. -1.
<mgrwt>
<rscale>  1 0.66344846E+03</rscale>
<asrwt>0</asrwt>
<pdfrwt beam="1">  1        1 0.40071782E+00 0.66344846E+03</pdfrwt>
<pdfrwt beam="2">0</pdfrwt>
<totfact> 0.13246818E+00</totfact>
</mgrwt>
</event>
<event>
 6    1  0.1040300E-002  0.6428253E+03  0.7818608E-02  0.9820336E-01
          1   -1    0    0  502    0  0.00000000000E+00  0.00000000000E+00  0.10330612746E+03  0.10330612746E+03  0.00000000000E+00 0.  1.
         13   -1    0    0    0    0 -0.00000000000E+00 -0.00000000000E+00 -0.10000000000E+04  0.10000000000E+04  0.00000000000E+00 0.  1.
    9000005    2    1    2  501    0 -0.10032286355E-04  0.45992666326E-04 -0.89669389092E+03  0.11033060769E+04  0.64282529926E+03 0.  0.
         13    1    3    3    0    0  0.28074297053E+03 -0.22871533102E+01 -0.71691006300E+03  0.76992329813E+03  0.00000000000E+00 0.  1.
          1    1    3    3  501    0 -0.28074298056E+03  0.22871993029E+01 -0.17978382792E+03  0.33338277880E+03  0.00000000000E+00 0.  1.
         21    1    1    2  502  501  0.10032286383E-04 -0.45992666326E-04  0.18386212230E-04  0.50537361684E-04  0.00000000000E+00 0. -1.
<mgrwt>
<rscale>  1 0.64282530E+03</rscale>
<asrwt>0</asrwt>
<pdfrwt beam="1">  1        1 0.37565944E+00 0.64282530E+03</pdfrwt>
<pdfrwt beam="2">0</pdfrwt>
<totfact> 0.17171374E+00</totfact>
</mgrwt>
</event>
<event>
 6    1  0.1040300E-002  0.6464899E+03  0.7818608E-02  0.9813388E-01
          1   -1    0    0  502    0  0.00000000000E+00  0.00000000000E+00  0.10449026907E+03  0.10449026907E+03  0.00000000000E+00 0.  1.
         13   -1    0    0    0    0 -0.00000000000E+00 -0.00000000000E+00 -0.10000000000E+04  0.10000000000E+04  0.00000000000E+00 0.  1.
    9000005    2    1    2  501    0 -0.49329258502E-04  0.25860672920E-04 -0.89551269772E+03  0.11044873018E+04  0.64648991328E+03 0.  0.
         13    1    3    3    0    0 -0.18077880683E+03  0.11457808862E+03 -0.33911710400E+02  0.21670052951E+03  0.00000000000E+00 0.  1.
          1    1    3    3  501    0  0.18077875750E+03 -0.11457806276E+03 -0.86160098732E+03  0.88778677225E+03  0.00000000000E+00 0.  1.
         21    1    1    2  502  501  0.49329258485E-04 -0.25860672920E-04  0.29667890747E-02  0.29673118414E-02  0.00000000000E+00 0.  1.
<mgrwt>
<rscale>  1 0.64648991E+03</rscale>
<asrwt>0</asrwt>
<pdfrwt beam="1">  1        1 0.37996542E+00 0.64648991E+03</pdfrwt>
<pdfrwt beam="2">0</pdfrwt>
<totfact> 0.16426084E+00</totfact>
</mgrwt>
</event>
<event>
 6    1  0.1040300E-002  0.5974201E+03  0.7818608E-02  0.9910773E-01
          1   -1    0    0  502    0  0.00000000000E+00  0.00000000000E+00  0.89227778720E+02  0.89227778720E+02  0.00000000000E+00 0.  1.
         13   -1    0    0    0    0 -0.00000000000E+00 -0.00000000000E+00 -0.10000000000E+04  0.10000000000E+04  0.00000000000E+00 0.  1.
    9000005    2    1    2  501    0 -0.13199357454E-04  0.12759049241E-04 -0.91077230018E+03  0.10892276977E+04  0.59742011574E+03 0.  0.
         13    1    3    3    0    0 -0.10232505690E+03  0.27988325480E+03 -0.41790360002E+03  0.51327231807E+03  0.00000000000E+00 0.  1.
          3    1    3    3  501    0  0.10232504370E+03 -0.27988324204E+03 -0.49286870016E+03  0.57595537964E+03  0.00000000000E+00 0.  1.
         21    1    1    2  502  501  0.13199357453E-04 -0.12759049214E-04  0.78899385893E-04  0.81006971727E-04  0.00000000000E+00 0.  1.
<mgrwt>
<rscale>  1 0.59742012E+03</rscale>
<asrwt>0</asrwt>
<pdfrwt beam="1">  1        1 0.32446533E+00 0.59742012E+03</pdfrwt>
<pdfrwt beam="2">0</pdfrwt>
<totfact> 0.28942274E+00</totfact>
</mgrwt>
</event>
<event>
 6    1  0.1040300E-002  0.6107197E+03  0.7818608E-02  0.9883412E-01
          1   -1    0    0  502    0  0.00000000000E+00  0.00000000000E+00  0.93284176137E+02  0.93284176137E+02  0.00000000000E+00 0.  1.
         13   -1    0    0    0    0 -0.00000000000E+00 -0.00000000000E+00 -0.10000000000E+04  0.10000000000E+04  0.00000000000E+00 0.  1.
    9000005    2    1    2  501    0  0.76323642651E-01 -0.18600316785E-01 -0.90670781708E+03  0.10932052117E+04  0.61071970921E+03 0.  0.
         13    1    3    3    0    0  0.94856088707E+02  0.20032127854E+03 -0.82936142064E+03  0.85846762213E+03  0.00000000000E+00 0.  1.
          3    1    3    3  501    0 -0.94779765064E+02 -0.20033987885E+03 -0.77346396435E+02  0.23473758959E+03  0.00000000000E+00 0.  1.
         21    1    1    2  502  501 -0.76323642651E-01  0.18600316785E-01 -0.80067870452E-02  0.78964415092E-01  0.00000000000E+00 0. -1.
<mgrwt>
<rscale>  1 0.61071971E+03</rscale>
<asrwt>0</asrwt>
<pdfrwt beam="1">  1        1 0.33921590E+00 0.61071971E+03</pdfrwt>
<pdfrwt beam="2">0</pdfrwt>
<totfact> 0.24922188E+00</totfact>
</mgrwt>
</event>
<event>
 6    1  0.1040300E-002  0.6712019E+03  0.7818608E-02  0.9767789E-01
          1   -1    0    0  502    0  0.00000000000E+00  0.00000000000E+00  0.11595198760E+03  0.11595198760E+03  0.00000000000E+00 0.  1.
         13   -1    0    0    0    0 -0.00000000000E+00 -0.00000000000E+00 -0.10000000000E+04  0.10000000000E+04  0.00000000000E+00 0.  1.
    9000005    2    1    2  501    0 -0.19485436611E-01  0.17155872034E+01 -0.88712379721E+03  0.11124300462E+04  0.67119969641E+03 0.  0.
         13    1    3    3    0    0 -0.38610391642E+02  0.31538574514E+03 -0.62776394803E+03  0.70359541288E+03  0.00000000000E+00 0.  1.
          1    1    3    3  501    0  0.38590906205E+02 -0.31367015794E+03 -0.25935984918E+03  0.40883463330E+03  0.00000000000E+00 0.  1.
         21    1    1    2  502  501  0.19485436611E-01 -0.17155872034E+01  0.30757848160E+01  0.35219414205E+01  0.00000000000E+00 0. -1.
<mgrwt>
<rscale>  1 0.67120189E+03</rscale>
<asrwt>0</asrwt>
<pdfrwt beam="1">  1        1 0.42164448E+00 0.67120189E+03</pdfrwt>
<pdfrwt beam="2">0</pdfrwt>
<totfact> 0.10654561E+00</totfact>
</mgrwt>
</event>
<event>
 6    1  0.1040300E-002  0.5663569E+03  0.7818608E-02  0.9977773E-01
          1   -1    0    0  502    0  0.00000000000E+00  0.00000000000E+00  0.80190035532E+02  0.80190035532E+02  0.00000000000E+00 0.  1.
         13   -1    0    0    0    0 -0.00000000000E+00 -0.00000000000E+00 -0.10000000000E+04  0.10000000000E+04  0.00000000000E+00 0.  1.
    9000005    2    1    2  501    0  0.52540706292E-05  0.95965619096E-06 -0.91980997287E+03  0.10801900256E+04  0.56635687085E+03 0.  0.
         13    1    3    3    0    0  0.17433027681E+03  0.10787198324E+03 -0.87316817056E+02  0.22282647222E+03  0.00000000000E+00 0.  1.
          1    1    3    3  501    0 -0.17433027155E+03 -0.10787198228E+03 -0.83249315582E+03  0.85736355336E+03  0.00000000000E+00 0.  1.
         21    1    1    2  502  501 -0.52540706357E-05 -0.95965619417E-06  0.84042924844E-05  0.99578275954E-05  0.00000000000E+00 0.  1.
<mgrwt>
<rscale>  1 0.56635687E+03</rscale>
<asrwt>0</asrwt>
<pdfrwt beam="1">  1        1 0.29160074E+00 0.56635687E+03</pdfrwt>
<pdfrwt beam="2">0</pdfrwt>
<totfact> 0.40347697E+00</totfact>
</mgrwt>
</event>
