<event>
 6    1  0.1729631E-003  0.6544045E+03  0.7818608E-02  0.9798549E-01
          1   -1    0    0  502    0  0.00000000000E+00  0.00000000000E+00  0.10706442407E+03  0.10706442407E+03  0.00000000000E+00 0.  1.
         13   -1    0    0    0    0 -0.00000000000E+00 -0.00000000000E+00 -0.10000000000E+04  0.10000000000E+04  0.00000000000E+00 0.  1.
    9000005    2    1    2  501    0  0.22436346910E-02 -0.46974930638E-02 -0.89293605292E+03  0.11070591965E+04  0.65440451545E+03 0.  0.
         13    1    3    3    0    0  0.24662145003E+03  0.15968866276E+03 -0.69008784837E+03  0.75002923083E+03  0.00000000000E+00 0.  1.
          1    1    3    3  501    0 -0.24661920640E+03 -0.15969336025E+03 -0.20284820455E+03  0.35702996564E+03  0.00000000000E+00 0.  1.
         21    1    1    2  502  501 -0.22436346910E-02  0.46974930637E-02  0.47699015860E-03  0.52276053143E-02  0.00000000000E+00 0.  1.
<mgrwt>
<rscale>  1 0.65440452E+03</rscale>
<asrwt>0</asrwt>
<pdfrwt beam="1">  1        1 0.38932600E+00 0.65440452E+03</pdfrwt>
<pdfrwt beam="2">0</pdfrwt>
<totfact> 0.14910841E+00</totfact>
</mgrwt>
</event>
<event>
 6    1  0.1729631E-003  0.6652772E+03  0.7818608E-02  0.9778528E-01
          1   -1    0    0  502    0  0.00000000000E+00  0.00000000000E+00  0.11068553258E+03  0.11068553258E+03  0.00000000000E+00 0.  1.
         13   -1    0    0    0    0 -0.00000000000E+00 -0.00000000000E+00 -0.10000000000E+04  0.10000000000E+04  0.00000000000E+00 0.  1.
    9000005    2    1    2  501    0 -0.34851453681E-03 -0.18606953700E-02 -0.88935154427E+03  0.11106484074E+04  0.66527717204E+03 0.  0.
         13    1    3    3    0    0  0.71398791754E+02 -0.94697570714E+02 -0.96350560819E+03  0.97077725271E+03  0.00000000000E+00 0.  1.
          3    1    3    3  501    0 -0.71399140268E+02  0.94695710019E+02  0.74154063922E+02  0.13987115472E+03  0.00000000000E+00 0.  1.
         21    1    1    2  502  501  0.34851453681E-03  0.18606953700E-02  0.37076847940E-01  0.37125143808E-01  0.00000000000E+00 0. -1.
<mgrwt>
<rscale>  1 0.66527717E+03</rscale>
<asrwt>0</asrwt>
<pdfrwt beam="1">  1        1 0.40249369E+00 0.66527717E+03</pdfrwt>
<pdfrwt beam="2">0</pdfrwt>
<totfact> 0.13002782E+00</totfact>
</mgrwt>
</event>
<event>
 6    1  0.1729631E-003  0.5213415E+03  0.7818608E-02  0.1008354E+00
          1   -1    0    0  502    0  0.00000000000E+00  0.00000000000E+00  0.67962034973E+02  0.67962034973E+02  0.00000000000E+00 0.  1.
         13   -1    0    0    0    0 -0.00000000000E+00 -0.00000000000E+00 -0.10000000000E+04  0.10000000000E+04  0.00000000000E+00 0.  1.
    9000005    2    1    2  501    0 -0.20394779583E-02  0.13775507973E-01 -0.93204663182E+03  0.10679456326E+04  0.52134149091E+03 0.  0.
         13    1    3    3    0    0 -0.20061778585E+03  0.16387802485E+03 -0.52569853614E+03  0.58605669856E+03  0.00000000000E+00 0.  1.
          3    1    3    3  501    0  0.20061574638E+03 -0.16386424934E+03 -0.40634809567E+03  0.48188893405E+03  0.00000000000E+00 0.  1.
         21    1    1    2  502  501  0.20394779583E-02 -0.13775507973E-01  0.86667890591E-02  0.16402357234E-01  0.00000000000E+00 0. -1.
<mgrwt>
<rscale>  1 0.52134149E+03</rscale>
<asrwt>0</asrwt>
<pdfrwt beam="1">  1        1 0.24713519E+00 0.52134149E+03</pdfrwt>
<pdfrwt beam="2">0</pdfrwt>
<totfact> 0.63330982E+00</totfact>
</mgrwt>
</event>
<event>
 6    1  0.1729631E-003  0.6530717E+03  0.7818608E-02  0.9801032E-01
          1   -1    0    0  502    0  0.00000000000E+00  0.00000000000E+00  0.10691469321E+03  0.10691469321E+03  0.00000000000E+00 0.  1.
         13   -1    0    0    0    0 -0.00000000000E+00 -0.00000000000E+00 -0.10000000000E+04  0.10000000000E+04  0.00000000000E+00 0.  1.
    9000005    2    1    2  501    0  0.63261435958E-03 -0.31051081635E-01 -0.89337341642E+03  0.11066249144E+04  0.65307169526E+03 0.  0.
         13    1    3    3    0    0 -0.35114816310E+02  0.30175325566E+03 -0.24383560552E+03  0.38954316852E+03  0.00000000000E+00 0.  1.
          3    1    3    3  501    0  0.35115448924E+02 -0.30178430674E+03 -0.64953781091E+03  0.71708174593E+03  0.00000000000E+00 0.  1.
         21    1    1    2  502  501 -0.63261435958E-03  0.31051081635E-01  0.28810963059E+00  0.28977875890E+00  0.00000000000E+00 0.  1.
<mgrwt>
<rscale>  1 0.65307170E+03</rscale>
<asrwt>0</asrwt>
<pdfrwt beam="1">  1        1 0.38878152E+00 0.65307170E+03</pdfrwt>
<pdfrwt beam="2">0</pdfrwt>
<totfact> 0.14997636E+00</totfact>
</mgrwt>
</event>
<event>
 6    1  0.1729631E-003  0.6528476E+03  0.7818608E-02  0.9801451E-01
          1   -1    0    0  502    0  0.00000000000E+00  0.00000000000E+00  0.12017136505E+03  0.12017136505E+03  0.00000000000E+00 0.  1.
         13   -1    0    0    0    0 -0.00000000000E+00 -0.00000000000E+00 -0.10000000000E+04  0.10000000000E+04  0.00000000000E+00 0.  1.
    9000005    2    1    2  501    0  0.14770961012E+00  0.16941811126E+00 -0.89344649020E+03  0.11065516550E+04  0.65284751955E+03 0.  0.
         13    1    3    3    0    0  0.12109466482E+03  0.11281842803E+03 -0.92379789015E+03  0.93850650365E+03  0.00000000000E+00 0.  1.
          1    1    3    3  501    0 -0.12094695521E+03 -0.11264900992E+03  0.30351399947E+02  0.16804515134E+03  0.00000000000E+00 0.  1.
         21    1    1    2  502  501 -0.14770961012E+00 -0.16941811126E+00  0.13617855253E+02  0.13619710067E+02  0.00000000000E+00 0.  1.
<mgrwt>
<rscale>  1 0.65284756E+03</rscale>
<asrwt>0</asrwt>
<pdfrwt beam="1">  1        1 0.43698770E+00 0.65284756E+03</pdfrwt>
<pdfrwt beam="2">0</pdfrwt>
<totfact> 0.91088327E-01</totfact>
</mgrwt>
</event>
<event>
 6    1  0.1729631E-003  0.6569915E+03  0.7818608E-02  0.9793748E-01
          3   -1    0    0  502    0  0.00000000000E+00  0.00000000000E+00  0.11053679766E+03  0.11053679766E+03  0.00000000000E+00 0.  1.
         13   -1    0    0    0    0 -0.00000000000E+00 -0.00000000000E+00 -0.10000000000E+04  0.10000000000E+04  0.00000000000E+00 0.  1.
    9000005    2    1    2  501    0 -0.19824008034E+00  0.46254463629E+00 -0.89206382883E+03  0.11078879291E+04  0.65699127501E+03 0.  0.
         13    1    3    3    0    0  0.63025127483E+02 -0.32085305001E+03 -0.39712793520E+03  0.51442146467E+03  0.00000000000E+00 0.  1.
          3    1    3    3  501    0 -0.63223367563E+02  0.32131559465E+03 -0.49493589363E+03  0.59346646440E+03  0.00000000000E+00 0.  1.
         21    1    1    2  502  501  0.19824008034E+00 -0.46254463629E+00  0.26006264869E+01  0.26488685876E+01  0.00000000000E+00 0.  1.
<mgrwt>
<rscale>  1 0.65699147E+03</rscale>
<asrwt>0</asrwt>
<pdfrwt beam="1">  1        3 0.40195284E+00 0.65699147E+03</pdfrwt>
<pdfrwt beam="2">0</pdfrwt>
<totfact> 0.57790985E-02</totfact>
</mgrwt>
</event>
<event>
 6    1  0.1729631E-003  0.6463951E+03  0.7818608E-02  0.9813567E-01
          1   -1    0    0  502    0  0.00000000000E+00  0.00000000000E+00  0.10445697396E+03  0.10445697396E+03  0.00000000000E+00 0.  1.
         13   -1    0    0    0    0 -0.00000000000E+00 -0.00000000000E+00 -0.10000000000E+04  0.10000000000E+04  0.00000000000E+00 0.  1.
    9000005    2    1    2  501    0 -0.72460005970E-03 -0.55280799722E-03 -0.89554114744E+03  0.11044548860E+04  0.64639511783E+03 0.  0.
         13    1    3    3    0    0  0.30169623199E+02  0.31867258235E+03 -0.37147144030E+03  0.49036053253E+03  0.00000000000E+00 0.  1.
          1    1    3    3  501    0 -0.30170347799E+02 -0.31867313516E+03 -0.52406970715E+03  0.61409435343E+03  0.00000000000E+00 0.  1.
         21    1    1    2  502  501  0.72460005970E-03  0.55280799724E-03 -0.18785944997E-02  0.20880036453E-02  0.00000000000E+00 0.  1.
<mgrwt>
<rscale>  1 0.64639512E+03</rscale>
<asrwt>0</asrwt>
<pdfrwt beam="1">  1        1 0.37984434E+00 0.64639512E+03</pdfrwt>
<pdfrwt beam="2">0</pdfrwt>
<totfact> 0.16446587E+00</totfact>
</mgrwt>
</event>
<event>
 6    1  0.1729631E-003  0.6471972E+03  0.7818608E-02  0.9812053E-01
          1   -1    0    0  502    0  0.00000000000E+00  0.00000000000E+00  0.10471633079E+03  0.10471633079E+03  0.00000000000E+00 0.  1.
         13   -1    0    0    0    0 -0.00000000000E+00 -0.00000000000E+00 -0.10000000000E+04  0.10000000000E+04  0.00000000000E+00 0.  1.
    9000005    2    1    2  501    0  0.12747946471E-04 -0.58351836256E-03 -0.89528356578E+03  0.11047157380E+04  0.64719718690E+03 0.  0.
         13    1    3    3    0    0  0.26063578151E+03 -0.19083802532E+03 -0.48029746968E+03  0.57882278971E+03  0.00000000000E+00 0.  1.
          3    1    3    3  501    0 -0.26063576876E+03  0.19083744180E+03 -0.41498609609E+03  0.52589294833E+03  0.00000000000E+00 0.  1.
         21    1    1    2  502  501 -0.12747946446E-04  0.58351836256E-03 -0.10342822964E-03  0.59275086527E-03  0.00000000000E+00 0.  1.
<mgrwt>
<rscale>  1 0.64719719E+03</rscale>
<asrwt>0</asrwt>
<pdfrwt beam="1">  1        1 0.38078746E+00 0.64719719E+03</pdfrwt>
<pdfrwt beam="2">0</pdfrwt>
<totfact> 0.16287328E+00</totfact>
</mgrwt>
</event>
<event>
 6    1  0.1729631E-003  0.6509637E+03  0.7818608E-02  0.9804973E-01
          1   -1    0    0  502    0  0.00000000000E+00  0.00000000000E+00  0.10594186778E+03  0.10594186778E+03  0.00000000000E+00 0.  1.
         13   -1    0    0    0    0 -0.00000000000E+00 -0.00000000000E+00 -0.10000000000E+04  0.10000000000E+04  0.00000000000E+00 0.  1.
    9000005    2    1    2  501    0  0.13549170340E-02 -0.51462679380E-03 -0.89406140715E+03  0.11059382865E+04  0.65096366544E+03 0.  0.
         13    1    3    3    0    0 -0.16720397293E+03  0.27786441584E+03 -0.49424205348E+03  0.59113535640E+03  0.00000000000E+00 0.  1.
          1    1    3    3  501    0  0.16720532785E+03 -0.27786493047E+03 -0.39981935367E+03  0.51480293007E+03  0.00000000000E+00 0.  1.
         21    1    1    2  502  501 -0.13549170340E-02  0.51462679377E-03  0.32749232894E-02  0.35813075066E-02  0.00000000000E+00 0.  1.
<mgrwt>
<rscale>  1 0.65096367E+03</rscale>
<asrwt>0</asrwt>
<pdfrwt beam="1">  1        1 0.38524397E+00 0.65096367E+03</pdfrwt>
<pdfrwt beam="2">0</pdfrwt>
<totfact> 0.15554490E+00</totfact>
</mgrwt>
</event>
<event>
 6    1  0.1729631E-003  0.6233311E+03  0.7818608E-02  0.9858150E-01
          1   -1    0    0  502    0  0.00000000000E+00  0.00000000000E+00  0.97142351102E+02  0.97142351102E+02  0.00000000000E+00 0.  1.
         13   -1    0    0    0    0 -0.00000000000E+00 -0.00000000000E+00 -0.10000000000E+04  0.10000000000E+04  0.00000000000E+00 0.  1.
    9000005    2    1    2  501    0  0.42468775058E-02 -0.23894635633E-02 -0.90286363124E+03  0.10971346353E+04  0.62333110887E+03 0.  0.
         13    1    3    3    0    0 -0.31008878590E+03 -0.22202533960E+02 -0.41262057870E+03  0.51662728308E+03  0.00000000000E+00 0.  1.
          3    1    3    3  501    0  0.31009303278E+03  0.22200144497E+02 -0.49024305254E+03  0.58050735220E+03  0.00000000000E+00 0.  1.
         21    1    1    2  502  501 -0.42468775058E-02  0.23894635633E-02  0.59823422135E-02  0.77158229003E-02  0.00000000000E+00 0. -1.
<mgrwt>
<rscale>  1 0.62333111E+03</rscale>
<asrwt>0</asrwt>
<pdfrwt beam="1">  1        1 0.35324566E+00 0.62333111E+03</pdfrwt>
<pdfrwt beam="2">0</pdfrwt>
<totfact> 0.21604929E+00</totfact>
</mgrwt>
</event>
<event>
 6    1  0.1910527E-003  0.5969068E+03  0.7818608E-02  0.9911844E-01
          1   -1    0    0  502    0  0.00000000000E+00  0.00000000000E+00  0.89074430731E+02  0.89074430731E+02  0.00000000000E+00 0.  1.
         13   -1    0    0    0    0 -0.00000000000E+00 -0.00000000000E+00 -0.10000000000E+04  0.10000000000E+04  0.00000000000E+00 0.  1.
    9000005    2    1    2  501    0  0.43637486442E-05  0.78830887276E-05 -0.91092558009E+03  0.10890744166E+04  0.59690675363E+03 0.  0.
         13    1    3    3    0    0 -0.28310387278E+03  0.93594342599E+02 -0.47902070901E+03  0.56424156476E+03  0.00000000000E+00 0.  1.
          3    1    3    3  501    0  0.28310387714E+03 -0.93594334716E+02 -0.43190487109E+03  0.52483285188E+03  0.00000000000E+00 0.  1.
         21    1    1    2  502  501 -0.43637486408E-05 -0.78830887290E-05  0.10825473312E-04  0.14084610841E-04  0.00000000000E+00 0. -1.
<mgrwt>
<rscale>  1 0.59690675E+03</rscale>
<asrwt>0</asrwt>
<pdfrwt beam="1">  1        1 0.32390770E+00 0.59690675E+03</pdfrwt>
<pdfrwt beam="2">0</pdfrwt>
<totfact> 0.29106106E+00</totfact>
</mgrwt>
</event>
<event>
 6    1  0.1729631E-003  0.4864569E+03  0.7818608E-02  0.1017376E+00
          1   -1    0    0  502    0  0.00000000000E+00  0.00000000000E+00  0.59160188987E+02  0.59160188987E+02  0.00000000000E+00 0.  1.
         13   -1    0    0    0    0 -0.00000000000E+00 -0.00000000000E+00 -0.10000000000E+04  0.10000000000E+04  0.00000000000E+00 0.  1.
    9000005    2    1    2  501    0  0.50666017160E-07 -0.13965888788E-04 -0.94083993169E+03  0.10591600675E+04  0.48645685474E+03 0.  0.
         13    1    3    3    0    0 -0.24312037572E+03 -0.58773446214E+01 -0.47965941705E+03  0.53778733402E+03  0.00000000000E+00 0.  1.
          1    1    3    3  501    0  0.24312037577E+03  0.58773306555E+01 -0.46118051464E+03  0.52137273348E+03  0.00000000000E+00 0.  1.
         21    1    1    2  502  501 -0.50666040400E-07  0.13965888787E-04  0.12067980828E-03  0.12148524496E-03  0.00000000000E+00 0. -1.
<mgrwt>
<rscale>  1 0.48645685E+03</rscale>
<asrwt>0</asrwt>
<pdfrwt beam="1">  1        1 0.21512841E+00 0.48645685E+03</pdfrwt>
<pdfrwt beam="2">0</pdfrwt>
<totfact> 0.88096081E+00</totfact>
</mgrwt>
</event>
<event>
 6    1  0.1729631E-003  0.4747148E+03  0.7818608E-02  0.1020598E+00
          1   -1    0    0  502    0  0.00000000000E+00  0.00000000000E+00  0.56474920100E+02  0.56474920100E+02  0.00000000000E+00 0.  1.
         13   -1    0    0    0    0 -0.00000000000E+00 -0.00000000000E+00 -0.10000000000E+04  0.10000000000E+04  0.00000000000E+00 0.  1.
    9000005    2    1    2  501    0  0.47322914799E-02  0.20281617014E-03 -0.94366141382E+03  0.10563385039E+04  0.47471483115E+03 0.  0.
         13    1    3    3    0    0  0.81654042753E+02 -0.18731053267E+03 -0.74057845476E+03  0.76825065311E+03  0.00000000000E+00 0.  1.
          1    1    3    3  501    0 -0.81649310462E+02  0.18731073548E+03 -0.20308295906E+03  0.28808785081E+03  0.00000000000E+00 0.  1.
         21    1    1    2  502  501 -0.47322914799E-02 -0.20281617015E-03  0.13633391918E+00  0.13641617659E+00  0.00000000000E+00 0.  1.
<mgrwt>
<rscale>  1 0.47471483E+03</rscale>
<asrwt>0</asrwt>
<pdfrwt beam="1">  1        1 0.20536378E+00 0.47471483E+03</pdfrwt>
<pdfrwt beam="2">0</pdfrwt>
<totfact> 0.97613396E+00</totfact>
</mgrwt>
</event>
<event>
 6    1  0.1729631E-003  0.6524650E+03  0.7818608E-02  0.9802165E-01
          1   -1    0    0  502    0  0.00000000000E+00  0.00000000000E+00  0.10643424230E+03  0.10643424230E+03  0.00000000000E+00 0.  1.
         13   -1    0    0    0    0 -0.00000000000E+00 -0.00000000000E+00 -0.10000000000E+04  0.10000000000E+04  0.00000000000E+00 0.  1.
    9000005    2    1    2  501    0 -0.10620256472E-02 -0.38152336003E-02 -0.89357170415E+03  0.11064270978E+04  0.65246496628E+03 0.  0.
         13    1    3    3    0    0  0.41737555277E+02 -0.17563620331E+03 -0.90758033985E+03  0.92536056363E+03  0.00000000000E+00 0.  1.
          3    1    3    3  501    0 -0.41738617302E+02  0.17563238808E+03  0.14008635698E+02  0.18106653415E+03  0.00000000000E+00 0.  1.
         21    1    1    2  502  501  0.10620256472E-02  0.38152336003E-02  0.59464510281E-02  0.71445213786E-02  0.00000000000E+00 0. -1.
<mgrwt>
<rscale>  1 0.65246497E+03</rscale>
<asrwt>0</asrwt>
<pdfrwt beam="1">  1        1 0.38703442E+00 0.65246497E+03</pdfrwt>
<pdfrwt beam="2">0</pdfrwt>
<totfact> 0.15269014E+00</totfact>
</mgrwt>
</event>
<event>
 6    1  0.1729631E-003  0.6478998E+03  0.7818608E-02  0.9810728E-01
          1   -1    0    0  502    0  0.00000000000E+00  0.00000000000E+00  0.10503511300E+03  0.10503511300E+03  0.00000000000E+00 0.  1.
         13   -1    0    0    0    0 -0.00000000000E+00 -0.00000000000E+00 -0.10000000000E+04  0.10000000000E+04  0.00000000000E+00 0.  1.
    9000005    2    1    2  501    0 -0.65486514139E-02  0.26610756968E-02 -0.89505629748E+03  0.11049434296E+04  0.64789984331E+03 0.  0.
         13    1    3    3    0    0  0.14548038187E+03  0.28148013968E+03 -0.56253619461E+03  0.64563347249E+03  0.00000000000E+00 0.  1.
          1    1    3    3  501    0 -0.14548693052E+03 -0.28147747860E+03 -0.33252010287E+03  0.45930995714E+03  0.00000000000E+00 0.  1.
         21    1    1    2  502  501  0.65486514139E-02 -0.26610756968E-02  0.91410480926E-01  0.91683380076E-01  0.00000000000E+00 0. -1.
<mgrwt>
<rscale>  1 0.64789984E+03</rscale>
<asrwt>0</asrwt>
<pdfrwt beam="1">  1        1 0.38194667E+00 0.64789984E+03</pdfrwt>
<pdfrwt beam="2">0</pdfrwt>
<totfact> 0.16094428E+00</totfact>
</mgrwt>
</event>
<event>
 6    1  0.1729631E-003  0.6512937E+03  0.7818608E-02  0.9804355E-01
          1   -1    0    0  502    0  0.00000000000E+00  0.00000000000E+00  0.10605122817E+03  0.10605122817E+03  0.00000000000E+00 0.  1.
         13   -1    0    0    0    0 -0.00000000000E+00 -0.00000000000E+00 -0.10000000000E+04  0.10000000000E+04  0.00000000000E+00 0.  1.
    9000005    2    1    2  501    0  0.11400279138E-01 -0.28837589776E-02 -0.89394570722E+03  0.11060390760E+04  0.65129372032E+03 0.  0.
         13    1    3    3    0    0 -0.26182779252E+02 -0.21970903359E+03 -0.41214398366E+02  0.22506937598E+03  0.00000000000E+00 0.  1.
          1    1    3    3  501    0  0.26194179531E+02  0.21970614984E+03 -0.85273130885E+03  0.88096970006E+03  0.00000000000E+00 0.  1.
         21    1    1    2  502  501 -0.11400279138E-01  0.28837589776E-02 -0.30646125624E-02  0.12152130695E-01  0.00000000000E+00 0. -1.
<mgrwt>
<rscale>  1 0.65129372E+03</rscale>
<asrwt>0</asrwt>
<pdfrwt beam="1">  1        1 0.38564164E+00 0.65129372E+03</pdfrwt>
<pdfrwt beam="2">0</pdfrwt>
<totfact> 0.15490658E+00</totfact>
</mgrwt>
</event>
<event>
 6    1  0.1729631E-003  0.6559488E+03  0.7818608E-02  0.9795680E-01
          1   -1    0    0  502    0  0.00000000000E+00  0.00000000000E+00  0.10756886168E+03  0.10756886168E+03  0.00000000000E+00 0.  1.
         13   -1    0    0    0    0 -0.00000000000E+00 -0.00000000000E+00 -0.10000000000E+04  0.10000000000E+04  0.00000000000E+00 0.  1.
    9000005    2    1    2  501    0 -0.48897649904E-04 -0.69464799253E-04 -0.89243277555E+03  0.11075672222E+04  0.65594884932E+03 0.  0.
         13    1    3    3    0    0 -0.11403716685E+03  0.68683151441E+02  0.59897177053E+02  0.14597781521E+03  0.00000000000E+00 0.  1.
          1    1    3    3  501    0  0.11403711795E+03 -0.68683220905E+02 -0.95232995260E+03  0.96158940704E+03  0.00000000000E+00 0.  1.
         21    1    1    2  502  501  0.48897649903E-04  0.69464799259E-04  0.16372263051E-02  0.16394286543E-02  0.00000000000E+00 0. -1.
<mgrwt>
<rscale>  1 0.65594885E+03</rscale>
<asrwt>0</asrwt>
<pdfrwt beam="1">  1        1 0.39116032E+00 0.65594885E+03</pdfrwt>
<pdfrwt beam="2">0</pdfrwt>
<totfact> 0.14629916E+00</totfact>
</mgrwt>
</event>
<event>
 6    1  0.1729631E-003  0.6458598E+03  0.7818608E-02  0.9814579E-01
          1   -1    0    0  502    0  0.00000000000E+00  0.00000000000E+00  0.10428384612E+03  0.10428384612E+03  0.00000000000E+00 0.  1.
         13   -1    0    0    0    0 -0.00000000000E+00 -0.00000000000E+00 -0.10000000000E+04  0.10000000000E+04  0.00000000000E+00 0.  1.
    9000005    2    1    2  501    0  0.80479787812E-06 -0.17263193229E-04 -0.89571628236E+03  0.11042837165E+04  0.64585978974E+03 0.  0.
         13    1    3    3    0    0  0.26917794433E+03 -0.17372626500E+03 -0.51722879108E+03  0.60841039043E+03  0.00000000000E+00 0.  1.
          3    1    3    3  501    0 -0.26917794352E+03  0.17372624774E+03 -0.37848749128E+03  0.49587332605E+03  0.00000000000E+00 0.  1.
         21    1    1    2  502  501 -0.80479786962E-06  0.17263193247E-04  0.12847637409E-03  0.12963349968E-03  0.00000000000E+00 0. -1.
<mgrwt>
<rscale>  1 0.64585979E+03</rscale>
<asrwt>0</asrwt>
<pdfrwt beam="1">  1        1 0.37921479E+00 0.64585979E+03</pdfrwt>
<pdfrwt beam="2">0</pdfrwt>
<totfact> 0.16553721E+00</totfact>
</mgrwt>
</event>
<event>
 6    1  0.1729631E-003  0.6384944E+03  0.7818608E-02  0.9828611E-01
          3   -1    0    0  502    0  0.00000000000E+00  0.00000000000E+00  0.10193066820E+03  0.10193066820E+03  0.00000000000E+00 0.  1.
         13   -1    0    0    0    0 -0.00000000000E+00 -0.00000000000E+00 -0.10000000000E+04  0.10000000000E+04  0.00000000000E+00 0.  1.
    9000005    2    1    2  501    0 -0.11558540052E-03  0.12670396308E-03 -0.89808123524E+03  0.11019187635E+04  0.63849436672E+03 0.  0.
         13    1    3    3    0    0  0.25940746206E+03 -0.18511617000E+03 -0.41636466339E+03  0.52432791333E+03  0.00000000000E+00 0.  1.
          1    1    3    3  501    0 -0.25940757765E+03  0.18511629670E+03 -0.48171657184E+03  0.57759085020E+03  0.00000000000E+00 0.  1.
         21    1    1    2  502  501  0.11558540056E-03 -0.12670396305E-03  0.11903439102E-01  0.11904674558E-01  0.00000000000E+00 0.  1.
<mgrwt>
<rscale>  1 0.63849437E+03</rscale>
<asrwt>0</asrwt>
<pdfrwt beam="1">  1        3 0.37065776E+00 0.63849437E+03</pdfrwt>
<pdfrwt beam="2">0</pdfrwt>
<totfact> 0.84735328E-02</totfact>
</mgrwt>
</event>
<event>
 6    1  0.1729631E-003  0.6583030E+03  0.7818608E-02  0.9791323E-01
          1   -1    0    0  502    0  0.00000000000E+00  0.00000000000E+00  0.10857096902E+03  0.10857096902E+03  0.00000000000E+00 0.  1.
         13   -1    0    0    0    0 -0.00000000000E+00 -0.00000000000E+00 -0.10000000000E+04  0.10000000000E+04  0.00000000000E+00 0.  1.
    9000005    2    1    2  501    0 -0.73727738308E-01  0.19054932254E+00 -0.89160792814E+03  0.11082994013E+04  0.65830298775E+03 0.  0.
         13    1    3    3    0    0 -0.32698080702E+03  0.40565977633E+01 -0.38213084571E+03  0.50294819553E+03  0.00000000000E+00 0.  1.
          3    1    3    3  501    0  0.32690707928E+03 -0.38660484408E+01 -0.50947708244E+03  0.60535120578E+03  0.00000000000E+00 0.  1.
         21    1    1    2  502  501  0.73727738308E-01 -0.19054932254E+00  0.17889716832E+00  0.27156770896E+00  0.00000000000E+00 0. -1.
<mgrwt>
<rscale>  1 0.65830302E+03</rscale>
<asrwt>0</asrwt>
<pdfrwt beam="1">  1        1 0.39480436E+00 0.65830302E+03</pdfrwt>
<pdfrwt beam="2">0</pdfrwt>
<totfact> 0.14088520E+00</totfact>
</mgrwt>
</event>
<event>
 6    1  0.1729631E-003  0.5801782E+03  0.7818608E-02  0.9947405E-01
          1   -1    0    0  502    0  0.00000000000E+00  0.00000000000E+00  0.84152352347E+02  0.84152352347E+02  0.00000000000E+00 0.  1.
         13   -1    0    0    0    0 -0.00000000000E+00 -0.00000000000E+00 -0.10000000000E+04  0.10000000000E+04  0.00000000000E+00 0.  1.
    9000005    2    1    2  501    0 -0.31932661443E-04 -0.55230404470E-04 -0.91584830635E+03  0.10841516906E+04  0.58017822083E+03 0.  0.
         13    1    3    3    0    0  0.28241401070E+03 -0.60515442040E+02 -0.50847781653E+03  0.58478156783E+03  0.00000000000E+00 0.  1.
          1    1    3    3  501    0 -0.28241404263E+03  0.60515386810E+02 -0.40737048981E+03  0.49937012274E+03  0.00000000000E+00 0.  1.
         21    1    1    2  502  501  0.31932661437E-04  0.55230404473E-04  0.65869518496E-03  0.66177748461E-03  0.00000000000E+00 0.  1.
<mgrwt>
<rscale>  1 0.58017822E+03</rscale>
<asrwt>0</asrwt>
<pdfrwt beam="1">  1        1 0.30600920E+00 0.58017822E+03</pdfrwt>
<pdfrwt beam="2">0</pdfrwt>
<totfact> 0.34882425E+00</totfact>
</mgrwt>
</event>
<event>
 6    1  0.1729631E-003  0.6499700E+03  0.7818608E-02  0.9806836E-01
          1   -1    0    0  502    0  0.00000000000E+00  0.00000000000E+00  0.10571176502E+03  0.10571176502E+03  0.00000000000E+00 0.  1.
         13   -1    0    0    0    0 -0.00000000000E+00 -0.00000000000E+00 -0.10000000000E+04  0.10000000000E+04  0.00000000000E+00 0.  1.
    9000005    2    1    2  501    0 -0.22254712076E-03  0.32076975420E-02 -0.89438472682E+03  0.11056152196E+04  0.64996997951E+03 0.  0.
         13    1    3    3    0    0 -0.13387622131E+03 -0.18706303757E+02 -0.94990908065E+03  0.95947904090E+03  0.00000000000E+00 0.  1.
          3    1    3    3  501    0  0.13387599876E+03  0.18709511454E+02  0.55524353823E+02  0.14613617872E+03  0.00000000000E+00 0.  1.
         21    1    1    2  502  501  0.22254712077E-03 -0.32076975420E-02  0.96491842918E-01  0.96545401757E-01  0.00000000000E+00 0. -1.
<mgrwt>
<rscale>  1 0.64996998E+03</rscale>
<asrwt>0</asrwt>
<pdfrwt beam="1">  1        1 0.38440723E+00 0.64996998E+03</pdfrwt>
<pdfrwt beam="2">0</pdfrwt>
<totfact> 0.15690479E+00</totfact>
</mgrwt>
</event>
<event>
 6    1  0.1729631E-003  0.6546271E+03  0.7818608E-02  0.9798135E-01
          1   -1    0    0  502    0  0.00000000000E+00  0.00000000000E+00  0.10776908089E+03  0.10776908089E+03  0.00000000000E+00 0.  1.
         13   -1    0    0    0    0 -0.00000000000E+00 -0.00000000000E+00 -0.10000000000E+04  0.10000000000E+04  0.00000000000E+00 0.  1.
    9000005    2    1    2  501    0  0.28027613503E+00 -0.49957108960E-01 -0.89283032942E+03  0.11071054973E+04  0.65462699611E+03 0.  0.
         13    1    3    3    0    0  0.25833440459E+03  0.15353668801E+03 -0.22676761081E+03  0.37647540221E+03  0.00000000000E+00 0.  1.
          1    1    3    3  501    0 -0.25805412845E+03 -0.15358664512E+03 -0.66606271861E+03  0.73063009512E+03  0.00000000000E+00 0.  1.
         21    1    1    2  502  501 -0.28027613503E+00  0.49957108960E-01  0.59941031057E+00  0.66358356295E+00  0.00000000000E+00 0.  1.
<mgrwt>
<rscale>  1 0.65462706E+03</rscale>
<asrwt>0</asrwt>
<pdfrwt beam="1">  1        1 0.39188839E+00 0.65462706E+03</pdfrwt>
<pdfrwt beam="2">0</pdfrwt>
<totfact> 0.14525034E+00</totfact>
</mgrwt>
</event>
<event>
 6    1  0.1729631E-003  0.6633620E+03  0.7818608E-02  0.9782024E-01
          1   -1    0    0  502    0  0.00000000000E+00  0.00000000000E+00  0.11001667790E+03  0.11001667790E+03  0.00000000000E+00 0.  1.
         13   -1    0    0    0    0 -0.00000000000E+00 -0.00000000000E+00 -0.10000000000E+04  0.10000000000E+04  0.00000000000E+00 0.  1.
    9000005    2    1    2  501    0 -0.11792111258E-03 -0.10958062404E-04 -0.88998771793E+03  0.11100122805E+04  0.66336198621E+03 0.  0.
         13    1    3    3    0    0 -0.51964068891E+02  0.12868658281E+03 -0.94908004784E+03  0.95917330982E+03  0.00000000000E+00 0.  1.
          1    1    3    3  501    0  0.51963950970E+02 -0.12868659376E+03  0.59092329914E+02  0.15083897066E+03  0.00000000000E+00 0.  1.
         21    1    1    2  502  501  0.11792111258E-03  0.10958062416E-04  0.43958252799E-02  0.43974203073E-02  0.00000000000E+00 0. -1.
<mgrwt>
<rscale>  1 0.66336199E+03</rscale>
<asrwt>0</asrwt>
<pdfrwt beam="1">  1        1 0.40006149E+00 0.66336199E+03</pdfrwt>
<pdfrwt beam="2">0</pdfrwt>
<totfact> 0.13336629E+00</totfact>
</mgrwt>
</event>
<event>
 6    1  0.1729631E-003  0.6302169E+03  0.7818608E-02  0.9844626E-01
          1   -1    0    0  502    0  0.00000000000E+00  0.00000000000E+00  0.10020721738E+03  0.10020721738E+03  0.00000000000E+00 0.  1.
         13   -1    0    0    0    0 -0.00000000000E+00 -0.00000000000E+00 -0.10000000000E+04  0.10000000000E+04  0.00000000000E+00 0.  1.
    9000005    2    1    2  501    0 -0.26461833211E-01 -0.16636432960E+00 -0.90069811125E+03  0.10992863497E+04  0.63021691718E+03 0.  0.
         13    1    3    3    0    0 -0.13641687459E+03 -0.17052494350E+03 -0.54051118154E+02  0.22496631615E+03  0.00000000000E+00 0.  1.
          1    1    3    3  501    0  0.13639041276E+03  0.17035857917E+03 -0.84664699309E+03  0.87432003357E+03  0.00000000000E+00 0.  1.
         21    1    1    2  502  501  0.26461833211E-01  0.16636432960E+00  0.90532863034E+00  0.92086766025E+00  0.00000000000E+00 0. -1.
<mgrwt>
<rscale>  1 0.63021694E+03</rscale>
<asrwt>0</asrwt>
<pdfrwt beam="1">  1        1 0.36439065E+00 0.63021694E+03</pdfrwt>
<pdfrwt beam="2">0</pdfrwt>
<totfact> 0.19288311E+00</totfact>
</mgrwt>
</event>
<event>
 6    1  0.1729631E-003  0.6492601E+03  0.7818608E-02  0.9808169E-01
          1   -1    0    0  502    0  0.00000000000E+00  0.00000000000E+00  0.10538492229E+03  0.10538492229E+03  0.00000000000E+00 0.  1.
         13   -1    0    0    0    0 -0.00000000000E+00 -0.00000000000E+00 -0.10000000000E+04  0.10000000000E+04  0.00000000000E+00 0.  1.
    9000005    2    1    2  501    0  0.39130924790E-04  0.73721700917E-04 -0.89461531568E+03  0.11053846701E+04  0.64926012188E+03 0.  0.
         13    1    3    3    0    0 -0.30505094380E+03 -0.35428645744E+01 -0.25836491804E+03  0.39977626377E+03  0.00000000000E+00 0.  1.
          3    1    3    3  501    0  0.30505098293E+03  0.35429382961E+01 -0.63625039764E+03  0.70560840634E+03  0.00000000000E+00 0.  1.
         21    1    1    2  502  501 -0.39130924808E-04 -0.73721700917E-04  0.23796704694E-03  0.25217936848E-03  0.00000000000E+00 0. -1.
<mgrwt>
<rscale>  1 0.64926012E+03</rscale>
<asrwt>0</asrwt>
<pdfrwt beam="1">  1        1 0.38321871E+00 0.64926012E+03</pdfrwt>
<pdfrwt beam="2">0</pdfrwt>
<totfact> 0.15883530E+00</totfact>
</mgrwt>
</event>
<event>
 6    1  0.1729631E-003  0.6636576E+03  0.7818608E-02  0.9781484E-01
          1   -1    0    0  502    0  0.00000000000E+00  0.00000000000E+00  0.11011070916E+03  0.11011070916E+03  0.00000000000E+00 0.  1.
         13   -1    0    0    0    0 -0.00000000000E+00 -0.00000000000E+00 -0.10000000000E+04  0.10000000000E+04  0.00000000000E+00 0.  1.
    9000005    2    1    2  501    0 -0.20482831360E-05  0.85192868511E-05 -0.88988963619E+03  0.11101103637E+04  0.66365763386E+03 0.  0.
         13    1    3    3    0    0  0.32067198603E+03 -0.72675572423E+02 -0.51971540141E+03  0.61499297550E+03  0.00000000000E+00 0.  1.
          1    1    3    3  501    0 -0.32067198807E+03  0.72675580942E+02 -0.37017423478E+03  0.49511738820E+03  0.00000000000E+00 0.  1.
         21    1    1    2  502  501  0.20482831102E-05 -0.85192868557E-05  0.34535092175E-03  0.34546205705E-03  0.00000000000E+00 0.  1.
<mgrwt>
<rscale>  1 0.66365763E+03</rscale>
<asrwt>0</asrwt>
<pdfrwt beam="1">  1        1 0.40040342E+00 0.66365763E+03</pdfrwt>
<pdfrwt beam="2">0</pdfrwt>
<totfact> 0.13289145E+00</totfact>
</mgrwt>
</event>
<event>
 6    1  0.1729631E-003  0.6291830E+03  0.7818608E-02  0.9846644E-01
          3   -1    0    0  502    0  0.00000000000E+00  0.00000000000E+00  0.99554589863E+02  0.99554589863E+02  0.00000000000E+00 0.  1.
         13   -1    0    0    0    0 -0.00000000000E+00 -0.00000000000E+00 -0.10000000000E+04  0.10000000000E+04  0.00000000000E+00 0.  1.
    9000005    2    1    2  501    0 -0.15516840080E+00 -0.15140016953E+00 -0.90101010642E+03  0.10989497088E+04  0.62918296507E+03 0.  0.
         13    1    3    3    0    0  0.17595237098E+03  0.23322339257E+03 -0.65369898936E+03  0.71601309792E+03  0.00000000000E+00 0.  1.
          1    1    3    3  501    0 -0.17610753938E+03 -0.23337479274E+03 -0.24731111706E+03  0.38293661085E+03  0.00000000000E+00 0.  1.
         21    1    1    2  502  501  0.15516840080E+00  0.15140016953E+00  0.56469628186E+00  0.60488109136E+00  0.00000000000E+00 0.  1.
<mgrwt>
<rscale>  1 0.62918300E+03</rscale>
<asrwt>0</asrwt>
<pdfrwt beam="1">  1        3 0.36201745E+00 0.62918300E+03</pdfrwt>
<pdfrwt beam="2">0</pdfrwt>
<totfact> 0.94307261E-02</totfact>
</mgrwt>
</event>
<event>
 6    1  0.1729631E-003  0.5552083E+03  0.7818608E-02  0.1000296E+00
          1   -1    0    0  502    0  0.00000000000E+00  0.00000000000E+00  0.77067390642E+02  0.77067390642E+02  0.00000000000E+00 0.  1.
         13   -1    0    0    0    0 -0.00000000000E+00 -0.00000000000E+00 -0.10000000000E+04  0.10000000000E+04  0.00000000000E+00 0.  1.
    9000005    2    1    2  501    0 -0.18981159617E-02  0.44186435620E-02 -0.92293398746E+03  0.10770623880E+04  0.55520828741E+03 0.  0.
         13    1    3    3    0    0  0.26235061079E+03 -0.68261382110E+02 -0.34546095473E+03  0.43912496002E+03  0.00000000000E+00 0.  1.
          1    1    3    3  501    0 -0.26235250891E+03  0.68265800754E+02 -0.57747303274E+03  0.63793742798E+03  0.00000000000E+00 0.  1.
         21    1    1    2  502  501  0.18981159617E-02 -0.44186435620E-02  0.13781047810E-02  0.50026420938E-02  0.00000000000E+00 0.  1.
<mgrwt>
<rscale>  1 0.55520829E+03</rscale>
<asrwt>0</asrwt>
<pdfrwt beam="1">  1        1 0.28024565E+00 0.55520829E+03</pdfrwt>
<pdfrwt beam="2">0</pdfrwt>
<totfact> 0.45253664E+00</totfact>
</mgrwt>
</event>
<event>
 6    1  0.1729631E-003  0.6642636E+03  0.7818608E-02  0.9780377E-01
          1   -1    0    0  502    0  0.00000000000E+00  0.00000000000E+00  0.12245316746E+03  0.12245316746E+03  0.00000000000E+00 0.  1.
         13   -1    0    0    0    0 -0.00000000000E+00 -0.00000000000E+00 -0.10000000000E+04  0.10000000000E+04  0.00000000000E+00 0.  1.
    9000005    2    1    2  501    0  0.26318445774E+01 -0.47546292501E-01 -0.88952986587E+03  0.11101844286E+04  0.66425834903E+03 0.  0.
         13    1    3    3    0    0  0.11733716952E+03 -0.11123738658E+03 -0.93116399193E+03  0.94509689842E+03  0.00000000000E+00 0.  1.
          1    1    3    3  501    0 -0.11470532495E+03  0.11118984028E+03  0.41634126061E+02  0.16508753013E+03  0.00000000000E+00 0.  1.
         21    1    1    2  502  501 -0.26318445774E+01  0.47546292501E-01  0.11983033336E+02  0.12268738911E+02  0.00000000000E+00 0. -1.
<mgrwt>
<rscale>  1 0.66426356E+03</rscale>
<asrwt>0</asrwt>
<pdfrwt beam="1">  1        1 0.44528518E+00 0.66426356E+03</pdfrwt>
<pdfrwt beam="2">0</pdfrwt>
<totfact> 0.83269262E-01</totfact>
</mgrwt>
</event>
<event>
 6    1  0.1729631E-003  0.6542136E+03  0.7818608E-02  0.9798905E-01
          1   -1    0    0  502    0  0.00000000000E+00  0.00000000000E+00  0.10699926496E+03  0.10699926496E+03  0.00000000000E+00 0.  1.
         13   -1    0    0    0    0 -0.00000000000E+00 -0.00000000000E+00 -0.10000000000E+04  0.10000000000E+04  0.00000000000E+00 0.  1.
    9000005    2    1    2  501    0  0.69751866505E-06 -0.69522331501E-05 -0.89300112563E+03  0.11069988743E+04  0.65421364808E+03 0.  0.
         13    1    3    3    0    0 -0.25999287626E+02  0.29001642180E+03 -0.19430644500E+03  0.35005782727E+03  0.00000000000E+00 0.  1.
          1    1    3    3  501    0  0.25999288324E+02 -0.29001642875E+03 -0.69869468063E+03  0.75694104703E+03  0.00000000000E+00 0.  1.
         21    1    1    2  502  501 -0.69751866420E-06  0.69522331615E-05  0.39058778568E-03  0.39065027634E-03  0.00000000000E+00 0.  1.
<mgrwt>
<rscale>  1 0.65421365E+03</rscale>
<asrwt>0</asrwt>
<pdfrwt beam="1">  1        1 0.38908906E+00 0.65421365E+03</pdfrwt>
<pdfrwt beam="2">0</pdfrwt>
<totfact> 0.14947475E+00</totfact>
</mgrwt>
</event>
<event>
 6    1  0.1729631E-003  0.6541287E+03  0.7818608E-02  0.9799063E-01
          1   -1    0    0  502    0  0.00000000000E+00  0.00000000000E+00  0.11009113947E+03  0.11009113947E+03  0.00000000000E+00 0.  1.
         13   -1    0    0    0    0 -0.00000000000E+00 -0.00000000000E+00 -0.10000000000E+04  0.10000000000E+04  0.00000000000E+00 0.  1.
    9000005    2    1    2  501    0  0.10639627055E+00  0.13284701777E+00 -0.89302635046E+03  0.11069690069E+04  0.65412864988E+03 0.  0.
         13    1    3    3    0    0  0.16670654417E+03  0.26851134740E+01  0.29671531523E+02  0.16934781217E+03  0.00000000000E+00 0.  1.
          1    1    3    3  501    0 -0.16660014790E+03 -0.25522664562E+01 -0.92269788198E+03  0.93762119470E+03  0.00000000000E+00 0.  1.
         21    1    1    2  502  501 -0.10639627055E+00 -0.13284701777E+00  0.31174899306E+01  0.31221325987E+01  0.00000000000E+00 0.  1.
<mgrwt>
<rscale>  1 0.65412867E+03</rscale>
<asrwt>0</asrwt>
<pdfrwt beam="1">  1        1 0.40033226E+00 0.65412867E+03</pdfrwt>
<pdfrwt beam="2">0</pdfrwt>
<totfact> 0.13322731E+00</totfact>
</mgrwt>
</event>
<event>
 6    1  0.1729631E-003  0.6499670E+03  0.7818608E-02  0.9806841E-01
          1   -1    0    0  502    0  0.00000000000E+00  0.00000000000E+00  0.10562867035E+03  0.10562867035E+03  0.00000000000E+00 0.  1.
         13   -1    0    0    0    0 -0.00000000000E+00 -0.00000000000E+00 -0.10000000000E+04  0.10000000000E+04  0.00000000000E+00 0.  1.
    9000005    2    1    2  501    0 -0.56332568256E-04  0.21674351387E-03 -0.89438573951E+03  0.11056142588E+04  0.64996695157E+03 0.  0.
         13    1    3    3    0    0  0.51415866373E+02 -0.32004733343E+03 -0.48673210702E+03  0.58479229728E+03  0.00000000000E+00 0.  1.
          1    1    3    3  501    0 -0.51415922706E+02  0.32004755017E+03 -0.40765363248E+03  0.52082196148E+03  0.00000000000E+00 0.  1.
         21    1    1    2  502  501  0.56332568257E-04 -0.21674351387E-03  0.14409854110E-01  0.14411594172E-01  0.00000000000E+00 0.  1.
<mgrwt>
<rscale>  1 0.64996695E+03</rscale>
<asrwt>0</asrwt>
<pdfrwt beam="1">  1        1 0.38410507E+00 0.64996695E+03</pdfrwt>
<pdfrwt beam="2">0</pdfrwt>
<totfact> 0.15738831E+00</totfact>
</mgrwt>
</event>
<event>
 6    1  0.1729631E-003  0.6527977E+03  0.7818608E-02  0.9801544E-01
          1   -1    0    0  502    0  0.00000000000E+00  0.00000000000E+00  0.10912545638E+03  0.10912545638E+03  0.00000000000E+00 0.  1.
         13   -1    0    0    0    0 -0.00000000000E+00 -0.00000000000E+00 -0.10000000000E+04  0.10000000000E+04  0.00000000000E+00 0.  1.
    9000005    2    1    2  501    0 -0.15120935870E+01 -0.10037069378E+01 -0.89310713872E+03  0.11062482467E+04  0.65279516561E+03 0.  0.
         13    1    3    3    0    0  0.25229960748E+03 -0.18306683684E+03 -0.60839858936E+03  0.68360617479E+03  0.00000000000E+00 0.  1.
          1    1    3    3  501    0 -0.25381170107E+03  0.18206312990E+03 -0.28470854936E+03  0.42264207191E+03  0.00000000000E+00 0.  1.
         21    1    1    2  502  501  0.15120935870E+01  0.10037069378E+01  0.22325951070E+01  0.28772096803E+01  0.00000000000E+00 0.  1.
<mgrwt>
<rscale>  1 0.65279769E+03</rscale>
<asrwt>0</asrwt>
<pdfrwt beam="1">  1        1 0.39682068E+00 0.65279769E+03</pdfrwt>
<pdfrwt beam="2">0</pdfrwt>
<totfact> 0.13814793E+00</totfact>
</mgrwt>
</event>
<event>
 6    1  0.1729631E-003  0.6388154E+03  0.7818608E-02  0.9827996E-01
          1   -1    0    0  502    0  0.00000000000E+00  0.00000000000E+00  0.10490776237E+03  0.10490776237E+03  0.00000000000E+00 0.  1.
         13   -1    0    0    0    0 -0.00000000000E+00 -0.00000000000E+00 -0.10000000000E+04  0.10000000000E+04  0.00000000000E+00 0.  1.
    9000005    2    1    2  501    0  0.25807436591E-01  0.34978557346E-01 -0.89797852935E+03  0.11020211433E+04  0.63881543445E+03 0.  0.
         13    1    3    3    0    0  0.25749963730E+03 -0.40689814271E+02 -0.13060492719E+03  0.29158081419E+03  0.00000000000E+00 0.  1.
          3    1    3    3  501    0 -0.25747382987E+03  0.40724792828E+02 -0.76737360216E+03  0.81044032915E+03  0.00000000000E+00 0.  1.
         21    1    1    2  502  501 -0.25807436591E-01 -0.34978557346E-01  0.28862917200E+01  0.28866190286E+01  0.00000000000E+00 0. -1.
<mgrwt>
<rscale>  1 0.63881544E+03</rscale>
<asrwt>0</asrwt>
<pdfrwt beam="1">  1        1 0.38148358E+00 0.63881544E+03</pdfrwt>
<pdfrwt beam="2">0</pdfrwt>
<totfact> 0.16197606E+00</totfact>
</mgrwt>
</event>
<event>
 6    1  0.1729631E-003  0.6634622E+03  0.7818608E-02  0.9781841E-01
          1   -1    0    0  502    0  0.00000000000E+00  0.00000000000E+00  0.11005714876E+03  0.11005714876E+03  0.00000000000E+00 0.  1.
         13   -1    0    0    0    0 -0.00000000000E+00 -0.00000000000E+00 -0.10000000000E+04  0.10000000000E+04  0.00000000000E+00 0.  1.
    9000005    2    1    2  501    0 -0.44851920804E-02 -0.27907177018E-02 -0.88995379741E+03  0.11100449946E+04  0.66346222836E+03 0.  0.
         13    1    3    3    0    0  0.22617683829E+03 -0.11930385669E+03 -0.79853440292E+03  0.83847872069E+03  0.00000000000E+00 0.  1.
          1    1    3    3  501    0 -0.22618132348E+03  0.11930106597E+03 -0.91419394494E+02  0.27156627391E+03  0.00000000000E+00 0.  1.
         21    1    1    2  502  501  0.44851920803E-02  0.27907177018E-02  0.10946170980E-01  0.12154164406E-01  0.00000000000E+00 0. -1.
<mgrwt>
<rscale>  1 0.66346223E+03</rscale>
<asrwt>0</asrwt>
<pdfrwt beam="1">  1        1 0.40020866E+00 0.66346223E+03</pdfrwt>
<pdfrwt beam="2">0</pdfrwt>
<totfact> 0.13316240E+00</totfact>
</mgrwt>
</event>
<event>
 6    1  0.3632256E-003  0.6941828E+03  0.7818608E-02  0.9727232E-01
          1   -1    0    0  502    0  0.00000000000E+00  0.00000000000E+00  0.12047245871E+03  0.12047245871E+03  0.00000000000E+00 0.  1.
         13   -1    0    0    0    0 -0.00000000000E+00 -0.00000000000E+00 -0.10000000000E+04  0.10000000000E+04  0.00000000000E+00 0.  1.
    9000005    2    1    2  501    0 -0.90543704232E-05  0.61361646431E-05 -0.87952756801E+03  0.11204724298E+04  0.69418277358E+03 0.  0.
         13    1    3    3    0    0  0.17560222045E+03 -0.11657576937E+03  0.53454617392E+01  0.21084265173E+03  0.00000000000E+00 0.  1.
          1    1    3    3  501    0 -0.17560222950E+03  0.11657577550E+03 -0.88487302975E+03  0.90962977811E+03  0.00000000000E+00 0.  1.
         21    1    1    2  502  501  0.90543704445E-05 -0.61361646528E-05  0.26720571179E-04  0.28872531322E-04  0.00000000000E+00 0. -1.
<mgrwt>
<rscale>  1 0.69418277E+03</rscale>
<asrwt>0</asrwt>
<pdfrwt beam="1">  1        1 0.43808259E+00 0.69418277E+03</pdfrwt>
<pdfrwt beam="2">0</pdfrwt>
<totfact> 0.89311856E-01</totfact>
</mgrwt>
</event>
<event>
 6    1  0.1729631E-003  0.6535948E+03  0.7818608E-02  0.9800057E-01
          1   -1    0    0  502    0  0.00000000000E+00  0.00000000000E+00  0.10679717006E+03  0.10679717006E+03  0.00000000000E+00 0.  1.
         13   -1    0    0    0    0 -0.00000000000E+00 -0.00000000000E+00 -0.10000000000E+04  0.10000000000E+04  0.00000000000E+00 0.  1.
    9000005    2    1    2  501    0 -0.90293094150E-04  0.54910657639E-04 -0.89320344295E+03  0.11067965480E+04  0.65359483489E+03 0.  0.
         13    1    3    3    0    0  0.83524737710E+01  0.31540297054E+03 -0.59076728016E+03  0.66974232131E+03  0.00000000000E+00 0.  1.
          3    1    3    3  501    0 -0.83525640640E+01 -0.31540291563E+03 -0.30243616279E+03  0.43705422670E+03  0.00000000000E+00 0.  1.
         21    1    1    2  502  501  0.90293094150E-04 -0.54910657666E-04  0.61301114040E-03  0.62205360013E-03  0.00000000000E+00 0. -1.
<mgrwt>
<rscale>  1 0.65359483E+03</rscale>
<asrwt>0</asrwt>
<pdfrwt beam="1">  1        1 0.38835416E+00 0.65359483E+03</pdfrwt>
<pdfrwt beam="2">0</pdfrwt>
<totfact> 0.15061718E+00</totfact>
</mgrwt>
</event>
<event>
 6    1  0.1729631E-003  0.6414493E+03  0.7818608E-02  0.9822958E-01
          1   -1    0    0  502    0  0.00000000000E+00  0.00000000000E+00  0.10391885450E+03  0.10391885450E+03  0.00000000000E+00 0.  1.
         13   -1    0    0    0    0 -0.00000000000E+00 -0.00000000000E+00 -0.10000000000E+04  0.10000000000E+04  0.00000000000E+00 0.  1.
    9000005    2    1    2  501    0  0.15974191620E+01  0.12353669266E+01 -0.89594361967E+03  0.11018948009E+04  0.64144610441E+03 0.  0.
         13    1    3    3    0    0  0.25990520264E+03  0.90008951711E+02 -0.16302047755E+03  0.31973113994E+03  0.00000000000E+00 0.  1.
          3    1    3    3  501    0 -0.25830778347E+03 -0.88773584785E+02 -0.73292314212E+03  0.78216366101E+03  0.00000000000E+00 0.  1.
         21    1    1    2  502  501 -0.15974191620E+01 -0.12353669266E+01 -0.13752583380E+00  0.20240535510E+01  0.00000000000E+00 0. -1.
<mgrwt>
<rscale>  1 0.64144928E+03</rscale>
<asrwt>0</asrwt>
<pdfrwt beam="1">  1        1 0.37788754E+00 0.64144928E+03</pdfrwt>
<pdfrwt beam="2">0</pdfrwt>
<totfact> 0.16791892E+00</totfact>
</mgrwt>
</event>
<event>
 6    1  0.1729631E-003  0.6454929E+03  0.7818608E-02  0.9815273E-01
          1   -1    0    0  502    0  0.00000000000E+00  0.00000000000E+00  0.10416750973E+03  0.10416750973E+03  0.00000000000E+00 0.  1.
         13   -1    0    0    0    0 -0.00000000000E+00 -0.00000000000E+00 -0.10000000000E+04  0.10000000000E+04  0.00000000000E+00 0.  1.
    9000005    2    1    2  501    0  0.47051933727E-02 -0.46800842376E-02 -0.89582623168E+03  0.11041583877E+04  0.64549291836E+03 0.  0.
         13    1    3    3    0    0 -0.79336956341E+01  0.27060882050E+03 -0.74846364252E+03  0.79592078842E+03  0.00000000000E+00 0.  1.
          1    1    3    3  501    0  0.79384008274E+01 -0.27061350059E+03 -0.14736258915E+03  0.30823759925E+03  0.00000000000E+00 0.  1.
         21    1    1    2  502  501 -0.47051933727E-02  0.46800842377E-02 -0.62585921405E-02  0.91220616489E-02  0.00000000000E+00 0.  1.
<mgrwt>
<rscale>  1 0.64549292E+03</rscale>
<asrwt>0</asrwt>
<pdfrwt beam="1">  1        1 0.37879174E+00 0.64549292E+03</pdfrwt>
<pdfrwt beam="2">0</pdfrwt>
<totfact> 0.16626106E+00</totfact>
</mgrwt>
</event>
<event>
 6    1  0.1729631E-003  0.6463786E+03  0.7818608E-02  0.9813598E-01
          1   -1    0    0  502    0  0.00000000000E+00  0.00000000000E+00  0.10447623434E+03  0.10447623434E+03  0.00000000000E+00 0.  1.
         13   -1    0    0    0    0 -0.00000000000E+00 -0.00000000000E+00 -0.10000000000E+04  0.10000000000E+04  0.00000000000E+00 0.  1.
    9000005    2    1    2  501    0 -0.28531880105E-04 -0.14822098153E-02 -0.89554865202E+03  0.11044513039E+04  0.64637859995E+03 0.  0.
         13    1    3    3    0    0  0.12670882320E+03  0.26038523547E+03 -0.20256017095E+03  0.35339244415E+03  0.00000000000E+00 0.  1.
          3    1    3    3  501    0 -0.12670885173E+03 -0.26038671768E+03 -0.69298848107E+03  0.75105885971E+03  0.00000000000E+00 0.  1.
         21    1    1    2  502  501  0.28531880102E-04  0.14822098153E-02  0.24886363855E-01  0.24930480659E-01  0.00000000000E+00 0.  1.
<mgrwt>
<rscale>  1 0.64637860E+03</rscale>
<asrwt>0</asrwt>
<pdfrwt beam="1">  1        1 0.37991438E+00 0.64637860E+03</pdfrwt>
<pdfrwt beam="2">0</pdfrwt>
<totfact> 0.16434939E+00</totfact>
</mgrwt>
</event>
<event>
 6    1  0.1729631E-003  0.6528932E+03  0.7818608E-02  0.9801365E-01
          3   -1    0    0  502    0  0.00000000000E+00  0.00000000000E+00  0.10742459551E+03  0.10742459551E+03  0.00000000000E+00 0.  1.
         13   -1    0    0    0    0 -0.00000000000E+00 -0.00000000000E+00 -0.10000000000E+04  0.10000000000E+04  0.00000000000E+00 0.  1.
    9000005    2    1    2  501    0 -0.11912072099E-01 -0.39117841158E-02 -0.89343255966E+03  0.11065673486E+04  0.65289322119E+03 0.  0.
         13    1    3    3    0    0  0.98107830606E+01 -0.28306085919E+03 -0.72183388814E+03  0.77541206048E+03  0.00000000000E+00 0.  1.
          1    1    3    3  501    0 -0.98226951327E+01  0.28305694741E+03 -0.17159867152E+03  0.33115528817E+03  0.00000000000E+00 0.  1.
         21    1    1    2  502  501  0.11912072099E-01  0.39117841157E-02  0.85715517254E+00  0.85724686604E+00  0.00000000000E+00 0.  1.
<mgrwt>
<rscale>  1 0.65289322E+03</rscale>
<asrwt>0</asrwt>
<pdfrwt beam="1">  1        3 0.39063572E+00 0.65289322E+03</pdfrwt>
<pdfrwt beam="2">0</pdfrwt>
<totfact> 0.66305959E-02</totfact>
</mgrwt>
</event>
<event>
 6    1  0.1729631E-003  0.6457385E+03  0.7818608E-02  0.9814809E-01
          1   -1    0    0  502    0  0.00000000000E+00  0.00000000000E+00  0.10424530917E+03  0.10424530917E+03  0.00000000000E+00 0.  1.
         13   -1    0    0    0    0 -0.00000000000E+00 -0.00000000000E+00 -0.10000000000E+04  0.10000000000E+04  0.00000000000E+00 0.  1.
    9000005    2    1    2  501    0 -0.22337555997E-04  0.87525459435E-04 -0.89575544857E+03  0.11042445461E+04  0.64573848722E+03 0.  0.
         13    1    3    3    0    0  0.17096052532E+02  0.25725950779E+03 -0.11553887750E+03  0.28253134618E+03  0.00000000000E+00 0.  1.
          3    1    3    3  501    0 -0.17096074870E+02 -0.25725942026E+03 -0.78021657107E+03  0.82171319989E+03  0.00000000000E+00 0.  1.
         21    1    1    2  502  501  0.22337555997E-04 -0.87525459459E-04  0.75774125294E-03  0.76310646628E-03  0.00000000000E+00 0. -1.
<mgrwt>
<rscale>  1 0.64573849E+03</rscale>
<asrwt>0</asrwt>
<pdfrwt beam="1">  1        1 0.37907465E+00 0.64573849E+03</pdfrwt>
<pdfrwt beam="2">0</pdfrwt>
<totfact> 0.16577665E+00</totfact>
</mgrwt>
</event>
<event>
 6    1  0.1729631E-003  0.6400585E+03  0.7818608E-02  0.9825615E-01
          1   -1    0    0  502    0  0.00000000000E+00  0.00000000000E+00  0.10589704293E+03  0.10589704293E+03  0.00000000000E+00 0.  1.
         13   -1    0    0    0    0 -0.00000000000E+00 -0.00000000000E+00 -0.10000000000E+04  0.10000000000E+04  0.00000000000E+00 0.  1.
    9000005    2    1    2  501    0  0.11068192455E+00  0.62671330794E-01 -0.89758001284E+03  0.11024176615E+04  0.64005843858E+03 0.  0.
         13    1    3    3    0    0 -0.28564120673E+02 -0.25629146828E+03 -0.77508249618E+03  0.81685623068E+03  0.00000000000E+00 0.  1.
          1    1    3    3  501    0  0.28674802598E+02  0.25635413961E+03 -0.12249751665E+03  0.28556143084E+03  0.00000000000E+00 0.  1.
         21    1    1    2  502  501 -0.11068192455E+00 -0.62671330794E-01  0.34770557666E+01  0.34793814089E+01  0.00000000000E+00 0. -1.
<mgrwt>
<rscale>  1 0.64005845E+03</rscale>
<asrwt>0</asrwt>
<pdfrwt beam="1">  1        1 0.38508097E+00 0.64005845E+03</pdfrwt>
<pdfrwt beam="2">0</pdfrwt>
<totfact> 0.15611956E+00</totfact>
</mgrwt>
</event>
<event>
 6    1  0.1729631E-003  0.6583389E+03  0.7818608E-02  0.9791257E-01
          1   -1    0    0  502    0  0.00000000000E+00  0.00000000000E+00  0.10835271386E+03  0.10835271386E+03  0.00000000000E+00 0.  1.
         13   -1    0    0    0    0 -0.00000000000E+00 -0.00000000000E+00 -0.10000000000E+04  0.10000000000E+04  0.00000000000E+00 0.  1.
    9000005    2    1    2  501    0  0.68155759664E-04  0.44043805065E-03 -0.89164715621E+03  0.11083522496E+04  0.65833886264E+03 0.  0.
         13    1    3    3    0    0  0.10127113519E+03  0.22441399779E+03 -0.81365400300E+03  0.85008842000E+03  0.00000000000E+00 0.  1.
          3    1    3    3  501    0 -0.10127106703E+03 -0.22441355735E+03 -0.77993153210E+02  0.25826382962E+03  0.00000000000E+00 0.  1.
         21    1    1    2  502  501 -0.68155759659E-04 -0.44043805065E-03 -0.12993552815E-03  0.46423498953E-03  0.00000000000E+00 0.  1.
<mgrwt>
<rscale>  1 0.65833886E+03</rscale>
<asrwt>0</asrwt>
<pdfrwt beam="1">  1        1 0.39401070E+00 0.65833886E+03</pdfrwt>
<pdfrwt beam="2">0</pdfrwt>
<totfact> 0.14203342E+00</totfact>
</mgrwt>
</event>
<event>
 6    1  0.1729631E-003  0.6399706E+03  0.7818608E-02  0.9825783E-01
          1   -1    0    0  502    0  0.00000000000E+00  0.00000000000E+00  0.10314960786E+03  0.10314960786E+03  0.00000000000E+00 0.  1.
         13   -1    0    0    0    0 -0.00000000000E+00 -0.00000000000E+00 -0.10000000000E+04  0.10000000000E+04  0.00000000000E+00 0.  1.
    9000005    2    1    2  501    0  0.51093283001E+00 -0.28691261266E+00 -0.89748276586E+03  0.11022874781E+04  0.63997033212E+03 0.  0.
         13    1    3    3    0    0 -0.30192147843E+03  0.76639932480E+02 -0.32434189413E+03  0.44969759025E+03  0.00000000000E+00 0.  1.
          1    1    3    3  501    0  0.30243241126E+03 -0.76926845093E+02 -0.57314087173E+03  0.65258988785E+03  0.00000000000E+00 0.  1.
         21    1    1    2  502  501 -0.51093283001E+00  0.28691261266E+00  0.63237371637E+00  0.86212975894E+00  0.00000000000E+00 0. -1.
<mgrwt>
<rscale>  1 0.63997060E+03</rscale>
<asrwt>0</asrwt>
<pdfrwt beam="1">  1        1 0.37509027E+00 0.63997060E+03</pdfrwt>
<pdfrwt beam="2">0</pdfrwt>
<totfact> 0.17279771E+00</totfact>
</mgrwt>
</event>
<event>
 6    1  0.1729631E-003  0.6449600E+03  0.7818608E-02  0.9816283E-01
          3   -1    0    0  502    0  0.00000000000E+00  0.00000000000E+00  0.10522803353E+03  0.10522803353E+03  0.00000000000E+00 0.  1.
         13   -1    0    0    0    0 -0.00000000000E+00 -0.00000000000E+00 -0.10000000000E+04  0.10000000000E+04  0.00000000000E+00 0.  1.
    9000005    2    1    2  501    0  0.27536415735E+00 -0.28887918865E+00 -0.89597093285E+03  0.11039643892E+04  0.64495992187E+03 0.  0.
         13    1    3    3    0    0 -0.14745093266E+03 -0.52634671208E+02 -0.93041667346E+03  0.94349741516E+03  0.00000000000E+00 0.  1.
          3    1    3    3  501    0  0.14772629681E+03  0.52345792019E+02  0.34445740607E+02  0.16046697404E+03  0.00000000000E+00 0.  1.
         21    1    1    2  502  501 -0.27536415735E+00  0.28887918865E+00  0.11989663857E+01  0.12636443324E+01  0.00000000000E+00 0. -1.
<mgrwt>
<rscale>  1 0.64496005E+03</rscale>
<asrwt>0</asrwt>
<pdfrwt beam="1">  1        3 0.38264820E+00 0.64496005E+03</pdfrwt>
<pdfrwt beam="2">0</pdfrwt>
<totfact> 0.73149101E-02</totfact>
</mgrwt>
</event>
<event>
 6    1  0.1729631E-003  0.6480275E+03  0.7818608E-02  0.9810488E-01
          1   -1    0    0  502    0  0.00000000000E+00  0.00000000000E+00  0.10498493759E+03  0.10498493759E+03  0.00000000000E+00 0.  1.
         13   -1    0    0    0    0 -0.00000000000E+00 -0.00000000000E+00 -0.10000000000E+04  0.10000000000E+04  0.00000000000E+00 0.  1.
    9000005    2    1    2  501    0 -0.94027273008E-05  0.14533948750E-04 -0.89501509885E+03  0.11049848972E+04  0.64802746545E+03 0.  0.
         13    1    3    3    0    0 -0.30392704896E+03  0.36550045869E+02 -0.62858584100E+03  0.69916215318E+03  0.00000000000E+00 0.  1.
          1    1    3    3  501    0  0.30392703955E+03 -0.36550031335E+02 -0.26642925785E+03  0.40582274407E+03  0.00000000000E+00 0.  1.
         21    1    1    2  502  501  0.94027272715E-05 -0.14533948751E-04  0.36434478636E-04  0.40337552974E-04  0.00000000000E+00 0.  1.
<mgrwt>
<rscale>  1 0.64802747E+03</rscale>
<asrwt>0</asrwt>
<pdfrwt beam="1">  1        1 0.38176421E+00 0.64802747E+03</pdfrwt>
<pdfrwt beam="2">0</pdfrwt>
<totfact> 0.16123938E+00</totfact>
</mgrwt>
</event>
<event>
 6    1  0.1729631E-003  0.6498175E+03  0.7818608E-02  0.9807122E-01
          1   -1    0    0  502    0  0.00000000000E+00  0.00000000000E+00  0.11596258948E+03  0.11596258948E+03  0.00000000000E+00 0.  1.
         13   -1    0    0    0    0 -0.00000000000E+00 -0.00000000000E+00 -0.10000000000E+04  0.10000000000E+04  0.00000000000E+00 0.  1.
    9000005    2    1    2  501    0 -0.14996544432E+00  0.17463568813E-01 -0.89443369815E+03  0.11055652056E+04  0.64981748261E+03 0.  0.
         13    1    3    3    0    0  0.29858770588E+03  0.47818962670E+02 -0.64900761146E+03  0.71599731216E+03  0.00000000000E+00 0.  1.
          3    1    3    3  501    0 -0.29873767133E+03 -0.47801499102E+02 -0.24542608669E+03  0.38956789346E+03  0.00000000000E+00 0.  1.
         21    1    1    2  502  501  0.14996544432E+00 -0.17463568813E-01  0.10396287627E+02  0.10397383855E+02  0.00000000000E+00 0. -1.
<mgrwt>
<rscale>  1 0.64981750E+03</rscale>
<asrwt>0</asrwt>
<pdfrwt beam="1">  1        1 0.42168303E+00 0.64981750E+03</pdfrwt>
<pdfrwt beam="2">0</pdfrwt>
<totfact> 0.10694920E+00</totfact>
</mgrwt>
</event>
<event>
 6    1  0.1729631E-003  0.6245542E+03  0.7818608E-02  0.9855734E-01
          1   -1    0    0  502    0  0.00000000000E+00  0.00000000000E+00  0.98790333316E+02  0.98790333316E+02  0.00000000000E+00 0.  1.
         13   -1    0    0    0    0 -0.00000000000E+00 -0.00000000000E+00 -0.10000000000E+04  0.10000000000E+04  0.00000000000E+00 0.  1.
    9000005    2    1    2  501    0 -0.76018911838E+00  0.10613617502E+01 -0.90210581570E+03  0.10972068374E+04  0.62455282959E+03 0.  0.
         13    1    3    3    0    0  0.13225978873E+03 -0.22677979705E+03 -0.74555550791E+03  0.79042693745E+03  0.00000000000E+00 0.  1.
          3    1    3    3  501    0 -0.13301997784E+03  0.22784115880E+03 -0.15655030778E+03  0.30677989995E+03  0.00000000000E+00 0.  1.
         21    1    1    2  502  501  0.76018911838E+00 -0.10613617502E+01  0.89614901209E+00  0.15834959148E+01  0.00000000000E+00 0.  1.
<mgrwt>
<rscale>  1 0.62455419E+03</rscale>
<asrwt>0</asrwt>
<pdfrwt beam="1">  1        1 0.35923833E+00 0.62455419E+03</pdfrwt>
<pdfrwt beam="2">0</pdfrwt>
<totfact> 0.20337042E+00</totfact>
</mgrwt>
</event>
<event>
 6    1  0.1729631E-003  0.6474799E+03  0.7818608E-02  0.9811520E-01
          1   -1    0    0  502    0  0.00000000000E+00  0.00000000000E+00  0.10480763897E+03  0.10480763897E+03  0.00000000000E+00 0.  1.
         13   -1    0    0    0    0 -0.00000000000E+00 -0.00000000000E+00 -0.10000000000E+04  0.10000000000E+04  0.00000000000E+00 0.  1.
    9000005    2    1    2  501    0  0.28397053597E-05  0.14177874448E-05 -0.89519244719E+03  0.11048075528E+04  0.64747989243E+03 0.  0.
         13    1    3    3    0    0 -0.73242203568E+02  0.15371951632E+03  0.22225893857E+02  0.17172099591E+03  0.00000000000E+00 0.  1.
          1    1    3    3  501    0  0.73242206408E+02 -0.15371951490E+03 -0.91741834105E+03  0.93308655684E+03  0.00000000000E+00 0.  1.
         21    1    1    2  502  501 -0.28397053600E-05 -0.14177874292E-05  0.86163802017E-04  0.86222240899E-04  0.00000000000E+00 0.  1.
<mgrwt>
<rscale>  1 0.64747989E+03</rscale>
<asrwt>0</asrwt>
<pdfrwt beam="1">  1        1 0.38111949E+00 0.64747989E+03</pdfrwt>
<pdfrwt beam="2">0</pdfrwt>
<totfact> 0.16231609E+00</totfact>
</mgrwt>
</event>
<event>
 6    1  0.1729631E-003  0.6541719E+03  0.7818608E-02  0.9798982E-01
          1   -1    0    0  502    0  0.00000000000E+00  0.00000000000E+00  0.10698536611E+03  0.10698536611E+03  0.00000000000E+00 0.  1.
         13   -1    0    0    0    0 -0.00000000000E+00 -0.00000000000E+00 -0.10000000000E+04  0.10000000000E+04  0.00000000000E+00 0.  1.
    9000005    2    1    2  501    0 -0.78607438851E-05  0.31153505233E-05 -0.89301478972E+03  0.11069852101E+04  0.65417187392E+03 0.  0.
         13    1    3    3    0    0  0.53601703155E+02  0.22314150837E+03 -0.52114055968E+02  0.23533199988E+03  0.00000000000E+00 0.  1.
          3    1    3    3  501    0 -0.53601711015E+02 -0.22314150525E+03 -0.84090073375E+03  0.87165321018E+03  0.00000000000E+00 0.  1.
         21    1    1    2  502  501  0.78607438880E-05 -0.31153505104E-05  0.15582816682E-03  0.15605740699E-03  0.00000000000E+00 0. -1.
<mgrwt>
<rscale>  1 0.65417187E+03</rscale>
<asrwt>0</asrwt>
<pdfrwt beam="1">  1        1 0.38903852E+00 0.65417187E+03</pdfrwt>
<pdfrwt beam="2">0</pdfrwt>
<totfact> 0.14955303E+00</totfact>
</mgrwt>
</event>
<event>
 6    1  0.1729631E-003  0.6215595E+03  0.7818608E-02  0.9861660E-01
          1   -1    0    0  502    0  0.00000000000E+00  0.00000000000E+00  0.96592984584E+02  0.96592984584E+02  0.00000000000E+00 0.  1.
         13   -1    0    0    0    0 -0.00000000000E+00 -0.00000000000E+00 -0.10000000000E+04  0.10000000000E+04  0.00000000000E+00 0.  1.
    9000005    2    1    2  501    0 -0.13836534833E-03  0.16562644005E-02 -0.90341584922E+03  0.10965839958E+04  0.62155954116E+03 0.  0.
         13    1    3    3    0    0 -0.30332978417E+03  0.37650946244E+02 -0.35257043438E+03  0.46661811250E+03  0.00000000000E+00 0.  1.
          3    1    3    3  501    0  0.30332964580E+03 -0.37649289980E+02 -0.55084541484E+03  0.62996588329E+03  0.00000000000E+00 0.  1.
         21    1    1    2  502  501  0.13836534833E-03 -0.16562644005E-02  0.88338006343E-02  0.89887924873E-02  0.00000000000E+00 0. -1.
<mgrwt>
<rscale>  1 0.62155954E+03</rscale>
<asrwt>0</asrwt>
<pdfrwt beam="1">  1        1 0.35124796E+00 0.62155954E+03</pdfrwt>
<pdfrwt beam="2">0</pdfrwt>
<totfact> 0.22049681E+00</totfact>
</mgrwt>
</event>
<event>
 6    1  0.1729631E-003  0.6542857E+03  0.7818608E-02  0.9798770E-01
          1   -1    0    0  502    0  0.00000000000E+00  0.00000000000E+00  0.10703226338E+03  0.10703226338E+03  0.00000000000E+00 0.  1.
         13   -1    0    0    0    0 -0.00000000000E+00 -0.00000000000E+00 -0.10000000000E+04  0.10000000000E+04  0.00000000000E+00 0.  1.
    9000005    2    1    2  501    0 -0.29088285761E-01  0.39664397289E-02 -0.89293726883E+03  0.11069899532E+04  0.65428570949E+03 0.  0.
         13    1    3    3    0    0  0.17581323751E+03 -0.26891160306E+03 -0.55064916006E+03  0.63752509144E+03  0.00000000000E+00 0.  1.
          1    1    3    3  501    0 -0.17584232580E+03  0.26891556950E+03 -0.34228810877E+03  0.46946486180E+03  0.00000000000E+00 0.  1.
         21    1    1    2  502  501  0.29088285761E-01 -0.39664397289E-02 -0.30467797482E-01  0.42310137036E-01  0.00000000000E+00 0.  1.
<mgrwt>
<rscale>  1 0.65428571E+03</rscale>
<asrwt>0</asrwt>
<pdfrwt beam="1">  1        1 0.38920905E+00 0.65428571E+03</pdfrwt>
<pdfrwt beam="2">0</pdfrwt>
<totfact> 0.14928980E+00</totfact>
</mgrwt>
</event>
<event>
 6    1  0.1729631E-003  0.4932060E+03  0.7818608E-02  0.1015568E+00
          1   -1    0    0  502    0  0.00000000000E+00  0.00000000000E+00  0.60823539263E+02  0.60823539263E+02  0.00000000000E+00 0.  1.
         13   -1    0    0    0    0 -0.00000000000E+00 -0.00000000000E+00 -0.10000000000E+04  0.10000000000E+04  0.00000000000E+00 0.  1.
    9000005    2    1    2  501    0  0.12093900474E-03 -0.26707207890E-02 -0.93918677107E+03  0.10608128880E+04  0.49320603432E+03 0.  0.
         13    1    3    3    0    0 -0.14145294363E+03  0.11426388367E+03 -0.11131197284E+03  0.21320301515E+03  0.00000000000E+00 0.  1.
          3    1    3    3  501    0  0.14145306457E+03 -0.11426655439E+03 -0.82787479823E+03  0.84760987281E+03  0.00000000000E+00 0.  1.
         21    1    1    2  502  501 -0.12093900473E-03  0.26707207890E-02  0.10310333894E-01  0.10651307938E-01  0.00000000000E+00 0. -1.
<mgrwt>
<rscale>  1 0.49320603E+03</rscale>
<asrwt>0</asrwt>
<pdfrwt beam="1">  1        1 0.22117697E+00 0.49320603E+03</pdfrwt>
<pdfrwt beam="2">0</pdfrwt>
<totfact> 0.82717512E+00</totfact>
</mgrwt>
</event>
<event>
 6    1  0.1729631E-003  0.5985075E+03  0.7818608E-02  0.9908507E-01
          1   -1    0    0  502    0  0.00000000000E+00  0.00000000000E+00  0.89566192099E+02  0.89566192099E+02  0.00000000000E+00 0.  1.
         13   -1    0    0    0    0 -0.00000000000E+00 -0.00000000000E+00 -0.10000000000E+04  0.10000000000E+04  0.00000000000E+00 0.  1.
    9000005    2    1    2  501    0  0.24455689255E-01  0.29217195784E-02 -0.91043376216E+03  0.10895415625E+04  0.59850746063E+03 0.  0.
         13    1    3    3    0    0 -0.27035688883E+03 -0.59965610227E+02 -0.66161826058E+03  0.71723597545E+03  0.00000000000E+00 0.  1.
          3    1    3    3  501    0  0.27038134452E+03  0.59968531946E+02 -0.24881550158E+03  0.37230558701E+03  0.00000000000E+00 0.  1.
         21    1    1    2  502  501 -0.24455689255E-01 -0.29217195784E-02 -0.45740145753E-04  0.24629642190E-01  0.00000000000E+00 0.  1.
<mgrwt>
<rscale>  1 0.59850746E+03</rscale>
<asrwt>0</asrwt>
<pdfrwt beam="1">  1        1 0.32569593E+00 0.59850746E+03</pdfrwt>
<pdfrwt beam="2">0</pdfrwt>
<totfact> 0.28584139E+00</totfact>
</mgrwt>
</event>
<event>
 6    1  0.1729631E-003  0.6284192E+03  0.7818608E-02  0.9848138E-01
          1   -1    0    0  502    0  0.00000000000E+00  0.00000000000E+00  0.98732449068E+02  0.98732449068E+02  0.00000000000E+00 0.  1.
         13   -1    0    0    0    0 -0.00000000000E+00 -0.00000000000E+00 -0.10000000000E+04  0.10000000000E+04  0.00000000000E+00 0.  1.
    9000005    2    1    2  501    0 -0.76523522694E-04 -0.92039033230E-04 -0.90127232950E+03  0.10987276690E+04  0.62841919029E+03 0.  0.
         13    1    3    3    0    0  0.30331095734E+03  0.17939304230E+02 -0.59059860402E+03  0.66417322029E+03  0.00000000000E+00 0.  1.
          1    1    3    3  501    0 -0.30331103386E+03 -0.17939396269E+02 -0.31067372548E+03  0.43455444872E+03  0.00000000000E+00 0.  1.
         21    1    1    2  502  501  0.76523522687E-04  0.92039033231E-04  0.47785636207E-02  0.47800624797E-02  0.00000000000E+00 0. -1.
<mgrwt>
<rscale>  1 0.62841919E+03</rscale>
<asrwt>0</asrwt>
<pdfrwt beam="1">  1        1 0.35902784E+00 0.62841919E+03</pdfrwt>
<pdfrwt beam="2">0</pdfrwt>
<totfact> 0.20365938E+00</totfact>
</mgrwt>
</event>
<event>
 6    1  0.1729631E-003  0.6543388E+03  0.7818608E-02  0.9798672E-01
          1   -1    0    0  502    0  0.00000000000E+00  0.00000000000E+00  0.11747187348E+03  0.11747187348E+03  0.00000000000E+00 0.  1.
         13   -1    0    0    0    0 -0.00000000000E+00 -0.00000000000E+00 -0.10000000000E+04  0.10000000000E+04  0.00000000000E+00 0.  1.
    9000005    2    1    2  501    0  0.13246810757E+00 -0.13528479816E+01 -0.89291112655E+03  0.11070002721E+04  0.65433743191E+03 0.  0.
         13    1    3    3    0    0 -0.23227451807E+03 -0.11908225226E+03 -0.11246529686E+03  0.28421906611E+03  0.00000000000E+00 0.  1.
          3    1    3    3  501    0  0.23240698617E+03  0.11772940428E+03 -0.78044582970E+03  0.82278120600E+03  0.00000000000E+00 0.  1.
         21    1    1    2  502  501 -0.13246810757E+00  0.13528479816E+01  0.10383000029E+02  0.10471601361E+02  0.00000000000E+00 0.  1.
<mgrwt>
<rscale>  1 0.65433884E+03</rscale>
<asrwt>0</asrwt>
<pdfrwt beam="1">  1        1 0.42717135E+00 0.65433884E+03</pdfrwt>
<pdfrwt beam="2">0</pdfrwt>
<totfact> 0.10091670E+00</totfact>
</mgrwt>
</event>
<event>
 6    1  0.1729631E-003  0.6472797E+03  0.7818608E-02  0.9811897E-01
          1   -1    0    0  502    0  0.00000000000E+00  0.00000000000E+00  0.10479738870E+03  0.10479738870E+03  0.00000000000E+00 0.  1.
         13   -1    0    0    0    0 -0.00000000000E+00 -0.00000000000E+00 -0.10000000000E+04  0.10000000000E+04  0.00000000000E+00 0.  1.
    9000005    2    1    2  501    0  0.20950113473E-03 -0.15674192752E+00 -0.89486247806E+03  0.11044228774E+04  0.64727970227E+03 0.  0.
         13    1    3    3    0    0  0.88170770952E+02 -0.27108221466E+03 -0.18581592010E+03  0.34027519468E+03  0.00000000000E+00 0.  1.
          3    1    3    3  501    0 -0.88170561451E+02  0.27092547273E+03 -0.70904655797E+03  0.76414768274E+03  0.00000000000E+00 0.  1.
         21    1    1    2  502  501 -0.20950113472E-03  0.15674192752E+00 -0.34013323999E+00  0.37451127710E+00  0.00000000000E+00 0. -1.
<mgrwt>
<rscale>  1 0.64727972E+03</rscale>
<asrwt>0</asrwt>
<pdfrwt beam="1">  1        1 0.38108222E+00 0.64727972E+03</pdfrwt>
<pdfrwt beam="2">0</pdfrwt>
<totfact> 0.16238358E+00</totfact>
</mgrwt>
</event>
<event>
 6    1  0.1729631E-003  0.6348773E+03  0.7818608E-02  0.9835577E-01
          1   -1    0    0  502    0  0.00000000000E+00  0.00000000000E+00  0.10077132354E+03  0.10077132354E+03  0.00000000000E+00 0.  1.
         13   -1    0    0    0    0 -0.00000000000E+00 -0.00000000000E+00 -0.10000000000E+04  0.10000000000E+04  0.00000000000E+00 0.  1.
    9000005    2    1    2  501    0 -0.18450671284E-03 -0.12086700994E-02 -0.89923260305E+03  0.11007672110E+04  0.63487729398E+03 0.  0.
         13    1    3    3    0    0  0.66854369092E+01 -0.22237988290E+03 -0.57028392612E+02  0.22967312631E+03  0.00000000000E+00 0.  1.
          3    1    3    3  501    0 -0.66856214159E+01  0.22237867423E+03 -0.84220421044E+03  0.87109408468E+03  0.00000000000E+00 0.  1.
         21    1    1    2  502  501  0.18450671284E-03  0.12086700994E-02  0.39265887685E-02  0.41125448926E-02  0.00000000000E+00 0. -1.
<mgrwt>
<rscale>  1 0.63487729E+03</rscale>
<asrwt>0</asrwt>
<pdfrwt beam="1">  1        1 0.36644195E+00 0.63487729E+03</pdfrwt>
<pdfrwt beam="2">0</pdfrwt>
<totfact> 0.18877120E+00</totfact>
</mgrwt>
</event>
<event>
 6    1  0.1729631E-003  0.6377497E+03  0.7818608E-02  0.9830041E-01
          1   -1    0    0  502    0  0.00000000000E+00  0.00000000000E+00  0.10168121060E+03  0.10168121060E+03  0.00000000000E+00 0.  1.
         13   -1    0    0    0    0 -0.00000000000E+00 -0.00000000000E+00 -0.10000000000E+04  0.10000000000E+04  0.00000000000E+00 0.  1.
    9000005    2    1    2  501    0  0.58059680441E-05  0.78218311046E-05 -0.89831882174E+03  0.11016811768E+04  0.63774972355E+03 0.  0.
         13    1    3    3    0    0  0.17608338916E+03  0.25950768087E+03 -0.34945117901E+03  0.46953777577E+03  0.00000000000E+00 0.  1.
          3    1    3    3  501    0 -0.17608338336E+03 -0.25950767304E+03 -0.54886764273E+03  0.63214340106E+03  0.00000000000E+00 0.  1.
         21    1    1    2  502  501 -0.58059680442E-05 -0.78218311045E-05  0.32333368073E-04  0.33768876168E-04  0.00000000000E+00 0.  1.
<mgrwt>
<rscale>  1 0.63774972E+03</rscale>
<asrwt>0</asrwt>
<pdfrwt beam="1">  1        1 0.36975064E+00 0.63774972E+03</pdfrwt>
<pdfrwt beam="2">0</pdfrwt>
<totfact> 0.18246929E+00</totfact>
</mgrwt>
</event>
<event>
 6    1  0.1844119E-003  0.6924280E+03  0.7818608E-02  0.9730270E-01
          1   -1    0    0  502    0  0.00000000000E+00  0.00000000000E+00  0.11986443026E+03  0.11986443026E+03  0.00000000000E+00 0.  1.
         13   -1    0    0    0    0 -0.00000000000E+00 -0.00000000000E+00 -0.10000000000E+04  0.10000000000E+04  0.00000000000E+00 0.  1.
    9000005    2    1    2  501    0  0.27497302244E-03 -0.20798166238E-03 -0.88013576653E+03  0.11198640333E+04  0.69242796412E+03 0.  0.
         13    1    3    3    0    0 -0.31664814631E+03 -0.47026275741E+02 -0.65332169497E+03  0.72753471140E+03  0.00000000000E+00 0.  1.
          3    1    3    3  501    0  0.31664842128E+03  0.47026067759E+02 -0.22681407156E+03  0.39232932188E+03  0.00000000000E+00 0.  1.
         21    1    1    2  502  501 -0.27497302244E-03  0.20798166238E-03  0.19678786762E-03  0.39697858859E-03  0.00000000000E+00 0.  1.
<mgrwt>
<rscale>  1 0.69242796E+03</rscale>
<asrwt>0</asrwt>
<pdfrwt beam="1">  1        1 0.43587157E+00 0.69242796E+03</pdfrwt>
<pdfrwt beam="2">0</pdfrwt>
<totfact> 0.91444192E-01</totfact>
</mgrwt>
</event>
<event>
 6    1  0.1729631E-003  0.6223839E+03  0.7818608E-02  0.9860025E-01
          3   -1    0    0  502    0  0.00000000000E+00  0.00000000000E+00  0.96938904831E+02  0.96938904831E+02  0.00000000000E+00 0.  1.
         13   -1    0    0    0    0 -0.00000000000E+00 -0.00000000000E+00 -0.10000000000E+04  0.10000000000E+04  0.00000000000E+00 0.  1.
    9000005    2    1    2  501    0 -0.12524896250E-01 -0.10098826381E-01 -0.90315885951E+03  0.10968398254E+04  0.62238386618E+03 0.  0.
         13    1    3    3    0    0  0.48255031539E+02 -0.30062307908E+03 -0.33819149229E+03  0.45505633630E+03  0.00000000000E+00 0.  1.
          1    1    3    3  501    0 -0.48267556435E+02  0.30061298026E+03 -0.56496736723E+03  0.64178348914E+03  0.00000000000E+00 0.  1.
         21    1    1    2  502  501  0.12524896250E-01  0.10098826381E-01  0.97764345166E-01  0.99079394962E-01  0.00000000000E+00 0. -1.
<mgrwt>
<rscale>  1 0.62238387E+03</rscale>
<asrwt>0</asrwt>
<pdfrwt beam="1">  1        3 0.35250585E+00 0.62238387E+03</pdfrwt>
<pdfrwt beam="2">0</pdfrwt>
<totfact> 0.10606759E-01</totfact>
</mgrwt>
</event>
<event>
 6    1  0.1741045E-003  0.6297587E+03  0.7818608E-02  0.9845520E-01
          1   -1    0    0  502    0  0.00000000000E+00  0.00000000000E+00  0.99149030633E+02  0.99149030633E+02  0.00000000000E+00 0.  1.
         13   -1    0    0    0    0 -0.00000000000E+00 -0.00000000000E+00 -0.10000000000E+04  0.10000000000E+04  0.00000000000E+00 0.  1.
    9000005    2    1    2  501    0 -0.15116249159E-04 -0.45307422170E-06 -0.90085097965E+03  0.10991490123E+04  0.62975873460E+03 0.  0.
         13    1    3    3    0    0 -0.15569184851E+03  0.27209541281E+03 -0.50199910159E+03  0.59184369842E+03  0.00000000000E+00 0.  1.
          3    1    3    3  501    0  0.15569183339E+03 -0.27209541326E+03 -0.39885187806E+03  0.50730531393E+03  0.00000000000E+00 0.  1.
         21    1    1    2  502  501  0.15116249161E-04  0.45307420285E-06  0.10283843444E-04  0.18288348775E-04  0.00000000000E+00 0.  1.
<mgrwt>
<rscale>  1 0.62975873E+03</rscale>
<asrwt>0</asrwt>
<pdfrwt beam="1">  1        1 0.36054269E+00 0.62975873E+03</pdfrwt>
<pdfrwt beam="2">0</pdfrwt>
<totfact> 0.20052795E+00</totfact>
</mgrwt>
</event>
<event>
 6    1  0.1729631E-003  0.4887640E+03  0.7818608E-02  0.1016754E+00
          3   -1    0    0  502    0  0.00000000000E+00  0.00000000000E+00  0.59722636070E+02  0.59722636070E+02  0.00000000000E+00 0.  1.
         13   -1    0    0    0    0 -0.00000000000E+00 -0.00000000000E+00 -0.10000000000E+04  0.10000000000E+04  0.00000000000E+00 0.  1.
    9000005    2    1    2  501    0  0.35554882629E-05 -0.10522569653E-04 -0.94027744249E+03  0.10597225567E+04  0.48876398025E+03 0.  0.
         13    1    3    3    0    0 -0.14755756683E+03  0.18290796892E+03 -0.61548676880E+03  0.65882662605E+03  0.00000000000E+00 0.  1.
          3    1    3    3  501    0  0.14755757038E+03 -0.18290797945E+03 -0.32479067369E+03  0.40089593068E+03  0.00000000000E+00 0.  1.
         21    1    1    2  502  501 -0.35554882800E-05  0.10522569650E-04  0.78558426478E-04  0.79339727373E-04  0.00000000000E+00 0.  1.
<mgrwt>
<rscale>  1 0.48876398E+03</rscale>
<asrwt>0</asrwt>
<pdfrwt beam="1">  1        3 0.21717368E+00 0.48876398E+03</pdfrwt>
<pdfrwt beam="2">0</pdfrwt>
<totfact> 0.60248608E-01</totfact>
</mgrwt>
</event>
<event>
 6    1  0.1729631E-003  0.6459365E+03  0.7818608E-02  0.9814434E-01
          1   -1    0    0  502    0  0.00000000000E+00  0.00000000000E+00  0.10467253099E+03  0.10467253099E+03  0.00000000000E+00 0.  1.
         13   -1    0    0    0    0 -0.00000000000E+00 -0.00000000000E+00 -0.10000000000E+04  0.10000000000E+04  0.00000000000E+00 0.  1.
    9000005    2    1    2  501    0  0.63256851662E-01  0.39076791928E-01 -0.89568731857E+03  0.11043050801E+04  0.64593647662E+03 0.  0.
         13    1    3    3    0    0 -0.14448227145E+03  0.13354730160E+03 -0.99773837824E+01  0.19700141298E+03  0.00000000000E+00 0.  1.
          3    1    3    3  501    0  0.14454552830E+03 -0.13350822481E+03 -0.88570993479E+03  0.90730366715E+03  0.00000000000E+00 0.  1.
         21    1    1    2  502  501 -0.63256851662E-01 -0.39076791928E-01  0.35984956719E+00  0.36745086197E+00  0.00000000000E+00 0. -1.
<mgrwt>
<rscale>  1 0.64593648E+03</rscale>
<asrwt>0</asrwt>
<pdfrwt beam="1">  1        1 0.38062819E+00 0.64593648E+03</pdfrwt>
<pdfrwt beam="2">0</pdfrwt>
<totfact> 0.16317498E+00</totfact>
</mgrwt>
</event>
<event>
 6    1  0.1729631E-003  0.6604777E+03  0.7818608E-02  0.9787315E-01
          1   -1    0    0  502    0  0.00000000000E+00  0.00000000000E+00  0.11052248089E+03  0.11052248089E+03  0.00000000000E+00 0.  1.
         13   -1    0    0    0    0 -0.00000000000E+00 -0.00000000000E+00 -0.10000000000E+04  0.10000000000E+04  0.00000000000E+00 0.  1.
    9000005    2    1    2  501    0 -0.35887138179E+00  0.11179964660E+01 -0.89067656655E+03  0.11088442617E+04  0.66047670049E+03 0.  0.
         13    1    3    3    0    0 -0.21778539897E+03 -0.14065275039E+03 -0.78827072071E+03  0.82980986094E+03  0.00000000000E+00 0.  1.
          1    1    3    3  501    0  0.21742652759E+03  0.14177074685E+03 -0.10240584584E+03  0.27903440079E+03  0.00000000000E+00 0.  1.
         21    1    1    2  502  501  0.35887138179E+00 -0.11179964660E+01  0.11990474328E+01  0.16782191492E+01  0.00000000000E+00 0. -1.
<mgrwt>
<rscale>  1 0.66047774E+03</rscale>
<asrwt>0</asrwt>
<pdfrwt beam="1">  1        1 0.40190078E+00 0.66047774E+03</pdfrwt>
<pdfrwt beam="2">0</pdfrwt>
<totfact> 0.13094082E+00</totfact>
</mgrwt>
</event>
<event>
 6    1  0.1729631E-003  0.6564320E+03  0.7818608E-02  0.9794784E-01
          1   -1    0    0  502    0  0.00000000000E+00  0.00000000000E+00  0.11135580790E+03  0.11135580790E+03  0.00000000000E+00 0.  1.
         13   -1    0    0    0    0 -0.00000000000E+00 -0.00000000000E+00 -0.10000000000E+04  0.10000000000E+04  0.00000000000E+00 0.  1.
    9000005    2    1    2  501    0 -0.32634087217E-01 -0.10219050702E+00 -0.89227338909E+03  0.11077250258E+04  0.65643196175E+03 0.  0.
         13    1    3    3    0    0 -0.22283513725E+03 -0.23254966994E+03 -0.55321945341E+03  0.64014577326E+03  0.00000000000E+00 0.  1.
          1    1    3    3  501    0  0.22280250317E+03  0.23244747943E+03 -0.33905393567E+03  0.46757925254E+03  0.00000000000E+00 0.  1.
         21    1    1    2  502  501  0.32634087217E-01  0.10219050702E+00  0.36291969886E+01  0.36307821010E+01  0.00000000000E+00 0. -1.
<mgrwt>
<rscale>  1 0.65643197E+03</rscale>
<asrwt>0</asrwt>
<pdfrwt beam="1">  1        1 0.40493106E+00 0.65643197E+03</pdfrwt>
<pdfrwt beam="2">0</pdfrwt>
<totfact> 0.12701983E+00</totfact>
</mgrwt>
</event>
<event>
 6    1  0.1729631E-003  0.6433437E+03  0.7818608E-02  0.9819350E-01
          1   -1    0    0  502    0  0.00000000000E+00  0.00000000000E+00  0.10347281395E+03  0.10347281395E+03  0.00000000000E+00 0.  1.
         13   -1    0    0    0    0 -0.00000000000E+00 -0.00000000000E+00 -0.10000000000E+04  0.10000000000E+04  0.00000000000E+00 0.  1.
    9000005    2    1    2  501    0  0.10219088011E-04 -0.24734155488E-05 -0.89652721137E+03  0.11034727865E+04  0.64334372607E+03 0.  0.
         13    1    3    3    0    0  0.99732551752E+02  0.11414313826E+03  0.38378729930E+02  0.15635908929E+03  0.00000000000E+00 0.  1.
          1    1    3    3  501    0 -0.99732541533E+02 -0.11414314074E+03 -0.93490594130E+03  0.94711369724E+03  0.00000000000E+00 0.  1.
         21    1    1    2  502  501 -0.10219088010E-04  0.24734155481E-05  0.25325671303E-04  0.27421472812E-04  0.00000000000E+00 0.  1.
<mgrwt>
<rscale>  1 0.64334373E+03</rscale>
<asrwt>0</asrwt>
<pdfrwt beam="1">  1        1 0.37626557E+00 0.64334373E+03</pdfrwt>
<pdfrwt beam="2">0</pdfrwt>
<totfact> 0.17064539E+00</totfact>
</mgrwt>
</event>
<event>
 6    1  0.1729631E-003  0.6498024E+03  0.7818608E-02  0.9807150E-01
          1   -1    0    0  502    0  0.00000000000E+00  0.00000000000E+00  0.10556080251E+03  0.10556080251E+03  0.00000000000E+00 0.  1.
         13   -1    0    0    0    0 -0.00000000000E+00 -0.00000000000E+00 -0.10000000000E+04  0.10000000000E+04  0.00000000000E+00 0.  1.
    9000005    2    1    2  501    0 -0.30062159198E-05 -0.38037626382E-05 -0.89443921617E+03  0.11055607832E+04  0.64980238070E+03 0.  0.
         13    1    3    3    0    0  0.73094471053E+02  0.31563440587E+03 -0.40579171087E+03  0.51926370226E+03  0.00000000000E+00 0.  1.
          3    1    3    3  501    0 -0.73094474059E+02 -0.31563440967E+03 -0.48864750529E+03  0.58629708096E+03  0.00000000000E+00 0.  1.
         21    1    1    2  502  501  0.30062159163E-05  0.38037626403E-05  0.18677379211E-04  0.19296384080E-04  0.00000000000E+00 0. -1.
<mgrwt>
<rscale>  1 0.64980238E+03</rscale>
<asrwt>0</asrwt>
<pdfrwt beam="1">  1        1 0.38385827E+00 0.64980238E+03</pdfrwt>
<pdfrwt beam="2">0</pdfrwt>
<totfact> 0.15778900E+00</totfact>
</mgrwt>
</event>
<event>
 6    1  0.1729631E-003  0.6520523E+03  0.7818608E-02  0.9802936E-01
          1   -1    0    0  502    0  0.00000000000E+00  0.00000000000E+00  0.12572177083E+03  0.12572177083E+03  0.00000000000E+00 0.  1.
         13   -1    0    0    0    0 -0.00000000000E+00 -0.00000000000E+00 -0.10000000000E+04  0.10000000000E+04  0.00000000000E+00 0.  1.
    9000005    2    1    2  501    0 -0.82610704941E+00  0.19796125871E+00 -0.89369668718E+03  0.11062847404E+04  0.65205171303E+03 0.  0.
         13    1    3    3    0    0 -0.13734286212E+03  0.11379214448E+02 -0.94871637839E+03  0.95867372704E+03  0.00000000000E+00 0.  1.
          3    1    3    3  501    0  0.13651675507E+03 -0.11181253189E+02  0.55019691206E+02  0.14761101333E+03  0.00000000000E+00 0.  1.
         21    1    1    2  502  501  0.82610704941E+00 -0.19796125871E+00  0.19418458005E+02  0.19437030453E+02  0.00000000000E+00 0.  1.
<mgrwt>
<rscale>  1 0.65205227E+03</rscale>
<asrwt>0</asrwt>
<pdfrwt beam="1">  1        1 0.45717104E+00 0.65205227E+03</pdfrwt>
<pdfrwt beam="2">0</pdfrwt>
<totfact> 0.73583453E-01</totfact>
</mgrwt>
</event>
<event>
 6    1  0.1729631E-003  0.6513263E+03  0.7818608E-02  0.9804294E-01
          1   -1    0    0  502    0  0.00000000000E+00  0.00000000000E+00  0.10606621675E+03  0.10606621675E+03  0.00000000000E+00 0.  1.
         13   -1    0    0    0    0 -0.00000000000E+00 -0.00000000000E+00 -0.10000000000E+04  0.10000000000E+04  0.00000000000E+00 0.  1.
    9000005    2    1    2  501    0 -0.10198696796E-02 -0.10734578254E-01 -0.89394007656E+03  0.11060537317E+04  0.65132633660E+03 0.  0.
         13    1    3    3    0    0 -0.13013969674E+03  0.29726521851E+03 -0.49348470344E+03  0.59061840754E+03  0.00000000000E+00 0.  1.
          3    1    3    3  501    0  0.13013867687E+03 -0.29727595308E+03 -0.40045537312E+03  0.51543532413E+03  0.00000000000E+00 0.  1.
         21    1    1    2  502  501  0.10198696796E-02  0.10734578254E-01  0.62933125403E-02  0.12485074577E-01  0.00000000000E+00 0.  1.
<mgrwt>
<rscale>  1 0.65132634E+03</rscale>
<asrwt>0</asrwt>
<pdfrwt beam="1">  1        1 0.38569615E+00 0.65132634E+03</pdfrwt>
<pdfrwt beam="2">0</pdfrwt>
<totfact> 0.15481965E+00</totfact>
</mgrwt>
</event>
<event>
 6    1  0.1729631E-003  0.6500475E+03  0.7818608E-02  0.9806690E-01
          1   -1    0    0  502    0  0.00000000000E+00  0.00000000000E+00  0.10789851813E+03  0.10789851813E+03  0.00000000000E+00 0.  1.
         13   -1    0    0    0    0 -0.00000000000E+00 -0.00000000000E+00 -0.10000000000E+04  0.10000000000E+04  0.00000000000E+00 0.  1.
    9000005    2    1    2  501    0 -0.23721177465E-01 -0.67468975858E-01 -0.89435893751E+03  0.11056399299E+04  0.65004749090E+03 0.  0.
         13    1    3    3    0    0  0.25649506369E+03  0.15184766630E+03 -0.66744848154E+03  0.73098215229E+03  0.00000000000E+00 0.  1.
          3    1    3    3  501    0 -0.25651878486E+03 -0.15191513527E+03 -0.22691045597E+03  0.37465777763E+03  0.00000000000E+00 0.  1.
         21    1    1    2  502  501  0.23721177465E-01  0.67468975858E-01  0.22574556340E+01  0.22585882087E+01  0.00000000000E+00 0.  1.
<mgrwt>
<rscale>  1 0.65004749E+03</rscale>
<asrwt>0</asrwt>
<pdfrwt beam="1">  1        1 0.39235908E+00 0.65004749E+03</pdfrwt>
<pdfrwt beam="2">0</pdfrwt>
<totfact> 0.14467692E+00</totfact>
</mgrwt>
</event>
<event>
 6    1  0.1729631E-003  0.6481469E+03  0.7818608E-02  0.9810263E-01
          1   -1    0    0  502    0  0.00000000000E+00  0.00000000000E+00  0.10509769112E+03  0.10509769112E+03  0.00000000000E+00 0.  1.
         13   -1    0    0    0    0 -0.00000000000E+00 -0.00000000000E+00 -0.10000000000E+04  0.10000000000E+04  0.00000000000E+00 0.  1.
    9000005    2    1    2  501    0  0.21340624418E-01  0.43699585443E-01 -0.89496747033E+03  0.11050163825E+04  0.64814692030E+03 0.  0.
         13    1    3    3    0    0 -0.99445315229E+02  0.29506631725E+03 -0.29424820552E+03  0.42841044426E+03  0.00000000000E+00 0.  1.
          3    1    3    3  501    0  0.99466655854E+02 -0.29502261767E+03 -0.60071926481E+03  0.67660593825E+03  0.00000000000E+00 0.  1.
         21    1    1    2  502  501 -0.21340624418E-01 -0.43699585443E-01  0.65161447260E-01  0.81308611029E-01  0.00000000000E+00 0. -1.
<mgrwt>
<rscale>  1 0.64814692E+03</rscale>
<asrwt>0</asrwt>
<pdfrwt beam="1">  1        1 0.38217423E+00 0.64814692E+03</pdfrwt>
<pdfrwt beam="2">0</pdfrwt>
<totfact> 0.16056494E+00</totfact>
</mgrwt>
</event>
<event>
 6    1  0.1729631E-003  0.6539290E+03  0.7818608E-02  0.9799434E-01
          1   -1    0    0  502    0  0.00000000000E+00  0.00000000000E+00  0.10690674161E+03  0.10690674161E+03  0.00000000000E+00 0.  1.
         13   -1    0    0    0    0 -0.00000000000E+00 -0.00000000000E+00 -0.10000000000E+04  0.10000000000E+04  0.00000000000E+00 0.  1.
    9000005    2    1    2  501    0  0.97363678046E-03  0.16065842071E-02 -0.89309302094E+03  0.11069048481E+04  0.65392904710E+03 0.  0.
         13    1    3    3    0    0 -0.15001578163E+03 -0.24720557011E+03 -0.70486876630E+03  0.76187617520E+03  0.00000000000E+00 0.  1.
          1    1    3    3  501    0  0.15001675527E+03  0.24720717670E+03 -0.18822425464E+03  0.34502867288E+03  0.00000000000E+00 0.  1.
         21    1    1    2  502  501 -0.97363678047E-03 -0.16065842071E-02 -0.23745246788E-03  0.18935324315E-02  0.00000000000E+00 0.  1.
<mgrwt>
<rscale>  1 0.65392905E+03</rscale>
<asrwt>0</asrwt>
<pdfrwt beam="1">  1        1 0.38875261E+00 0.65392905E+03</pdfrwt>
<pdfrwt beam="2">0</pdfrwt>
<totfact> 0.14999679E+00</totfact>
</mgrwt>
</event>
<event>
 6    1  0.1729631E-003  0.6459824E+03  0.7818608E-02  0.9814347E-01
          1   -1    0    0  502    0  0.00000000000E+00  0.00000000000E+00  0.10996930807E+03  0.10996930807E+03  0.00000000000E+00 0.  1.
         13   -1    0    0    0    0 -0.00000000000E+00 -0.00000000000E+00 -0.10000000000E+04  0.10000000000E+04  0.00000000000E+00 0.  1.
    9000005    2    1    2  501    0  0.34908956612E+00  0.13965995131E+01 -0.89557518386E+03  0.11042409798E+04  0.64598077312E+03 0.  0.
         13    1    3    3    0    0 -0.81702313054E+01  0.20743285106E+03 -0.24435218999E+02  0.20902684112E+03  0.00000000000E+00 0.  1.
          1    1    3    3  501    0  0.85193208715E+01 -0.20603625155E+03 -0.87113996486E+03  0.89521413871E+03  0.00000000000E+00 0.  1.
         21    1    1    2  502  501 -0.34908956612E+00 -0.13965995131E+01  0.55444919217E+01  0.57283282373E+01  0.00000000000E+00 0.  1.
<mgrwt>
<rscale>  1 0.64598238E+03</rscale>
<asrwt>0</asrwt>
<pdfrwt beam="1">  1        1 0.39988924E+00 0.64598238E+03</pdfrwt>
<pdfrwt beam="2">0</pdfrwt>
<totfact> 0.13404217E+00</totfact>
</mgrwt>
</event>
<event>
 6    1  0.1729631E-003  0.6378863E+03  0.7818608E-02  0.9829779E-01
          1   -1    0    0  502    0  0.00000000000E+00  0.00000000000E+00  0.10172476994E+03  0.10172476994E+03  0.00000000000E+00 0.  1.
         13   -1    0    0    0    0 -0.00000000000E+00 -0.00000000000E+00 -0.10000000000E+04  0.10000000000E+04  0.00000000000E+00 0.  1.
    9000005    2    1    2  501    0  0.74610625234E-07  0.26781812608E-05 -0.89827526003E+03  0.11017247399E+04  0.63788632187E+03 0.  0.
         13    1    3    3    0    0  0.22099144824E+03  0.20287356235E+03 -0.26207983279E+03  0.39834751317E+03  0.00000000000E+00 0.  1.
          1    1    3    3  501    0 -0.22099144817E+03 -0.20287355967E+03 -0.63619542724E+03  0.70337722668E+03  0.00000000000E+00 0.  1.
         21    1    1    2  502  501 -0.74610648743E-07 -0.26781812609E-05  0.29962723756E-04  0.30082271132E-04  0.00000000000E+00 0. -1.
<mgrwt>
<rscale>  1 0.63788632E+03</rscale>
<asrwt>0</asrwt>
<pdfrwt beam="1">  1        1 0.36990903E+00 0.63788632E+03</pdfrwt>
<pdfrwt beam="2">0</pdfrwt>
<totfact> 0.18217273E+00</totfact>
</mgrwt>
</event>
<event>
 6    1  0.1729631E-003  0.6338553E+03  0.7818608E-02  0.9837554E-01
          1   -1    0    0  502    0  0.00000000000E+00  0.00000000000E+00  0.10046549116E+03  0.10046549116E+03  0.00000000000E+00 0.  1.
         13   -1    0    0    0    0 -0.00000000000E+00 -0.00000000000E+00 -0.10000000000E+04  0.10000000000E+04  0.00000000000E+00 0.  1.
    9000005    2    1    2  501    0 -0.11176142902E-01 -0.75514498274E-02 -0.89955460947E+03  0.11004412844E+04  0.63385528701E+03 0.  0.
         13    1    3    3    0    0 -0.14618111439E+03 -0.10623754499E+03 -0.90180553787E+03  0.91973287551E+03  0.00000000000E+00 0.  1.
          3    1    3    3  501    0  0.14616993824E+03  0.10622999354E+03  0.22509284015E+01  0.18070840891E+03  0.00000000000E+00 0.  1.
         21    1    1    2  502  501  0.11176142902E-01  0.75514498274E-02  0.20100628033E-01  0.24206730716E-01  0.00000000000E+00 0.  1.
<mgrwt>
<rscale>  1 0.63385529E+03</rscale>
<asrwt>0</asrwt>
<pdfrwt beam="1">  1        1 0.36532983E+00 0.63385529E+03</pdfrwt>
<pdfrwt beam="2">0</pdfrwt>
<totfact> 0.19093776E+00</totfact>
</mgrwt>
</event>
<event>
 6    1  0.1729631E-003  0.6572525E+03  0.7818608E-02  0.9793265E-01
          3   -1    0    0  502    0  0.00000000000E+00  0.00000000000E+00  0.10799635777E+03  0.10799635777E+03  0.00000000000E+00 0.  1.
         13   -1    0    0    0    0 -0.00000000000E+00 -0.00000000000E+00 -0.10000000000E+04  0.10000000000E+04  0.00000000000E+00 0.  1.
    9000005    2    1    2  501    0  0.33500460006E-05  0.56246491880E-04 -0.89200478462E+03  0.11079952140E+04  0.65725250737E+03 0.  0.
         13    1    3    3    0    0  0.78206730072E+02  0.15107778677E+03 -0.91999193884E+03  0.93558856225E+03  0.00000000000E+00 0.  1.
          3    1    3    3  501    0 -0.78206726722E+02 -0.15107773052E+03  0.27987154216E+02  0.17240665174E+03  0.00000000000E+00 0.  1.
         21    1    1    2  502  501 -0.33500460006E-05 -0.56246491880E-04  0.11423870819E-02  0.11437758240E-02  0.00000000000E+00 0. -1.
<mgrwt>
<rscale>  1 0.65725251E+03</rscale>
<asrwt>0</asrwt>
<pdfrwt beam="1">  1        3 0.39271486E+00 0.65725251E+03</pdfrwt>
<pdfrwt beam="2">0</pdfrwt>
<totfact> 0.64610534E-02</totfact>
</mgrwt>
</event>
<event>
 6    1  0.1729631E-003  0.6528770E+03  0.7818608E-02  0.9801396E-01
          1   -1    0    0  502    0  0.00000000000E+00  0.00000000000E+00  0.10656220682E+03  0.10656220682E+03  0.00000000000E+00 0.  1.
         13   -1    0    0    0    0 -0.00000000000E+00 -0.00000000000E+00 -0.10000000000E+04  0.10000000000E+04  0.00000000000E+00 0.  1.
    9000005    2    1    2  501    0  0.43785810817E-05 -0.17453068892E-05 -0.89343790183E+03  0.11065620981E+04  0.65287701174E+03 0.  0.
         13    1    3    3    0    0 -0.30018115546E+03 -0.12588077335E+03 -0.48849067841E+03  0.58700752813E+03  0.00000000000E+00 0.  1.
          3    1    3    3  501    0  0.30018115984E+03  0.12588077161E+03 -0.40494722342E+03  0.51955456993E+03  0.00000000000E+00 0.  1.
         21    1    1    2  502  501 -0.43785810531E-05  0.17453068922E-05  0.10864998326E-03  0.10875218127E-03  0.00000000000E+00 0.  1.
<mgrwt>
<rscale>  1 0.65287701E+03</rscale>
<asrwt>0</asrwt>
<pdfrwt beam="1">  1        1 0.38749975E+00 0.65287701E+03</pdfrwt>
<pdfrwt beam="2">0</pdfrwt>
<totfact> 0.15195578E+00</totfact>
</mgrwt>
</event>
<event>
 6    1  0.1729631E-003  0.6619005E+03  0.7818608E-02  0.9784702E-01
          1   -1    0    0  502    0  0.00000000000E+00  0.00000000000E+00  0.10964381600E+03  0.10964381600E+03  0.00000000000E+00 0.  1.
         13   -1    0    0    0    0 -0.00000000000E+00 -0.00000000000E+00 -0.10000000000E+04  0.10000000000E+04  0.00000000000E+00 0.  1.
    9000005    2    1    2  501    0  0.91832309763E-01  0.15191357708E+00 -0.89039082952E+03  0.11094629536E+04  0.66190043400E+03 0.  0.
         13    1    3    3    0    0 -0.13761095000E+03  0.15636390674E+03 -0.87633378062E+03  0.90074821118E+03  0.00000000000E+00 0.  1.
          3    1    3    3  501    0  0.13770278231E+03 -0.15621199317E+03 -0.14057048900E+02  0.20871474239E+03  0.00000000000E+00 0.  1.
         21    1    1    2  502  501 -0.91832309763E-01 -0.15191357708E+00  0.34645521684E-01  0.18086243444E+00  0.00000000000E+00 0.  1.
<mgrwt>
<rscale>  1 0.66190046E+03</rscale>
<asrwt>0</asrwt>
<pdfrwt beam="1">  1        1 0.39870563E+00 0.66190046E+03</pdfrwt>
<pdfrwt beam="2">0</pdfrwt>
<totfact> 0.13527230E+00</totfact>
</mgrwt>
</event>
<event>
 6    1  0.1729631E-003  0.6552936E+03  0.7818608E-02  0.9796896E-01
          1   -1    0    0  502    0  0.00000000000E+00  0.00000000000E+00  0.10737686928E+03  0.10737686928E+03  0.00000000000E+00 0.  1.
         13   -1    0    0    0    0 -0.00000000000E+00 -0.00000000000E+00 -0.10000000000E+04  0.10000000000E+04  0.00000000000E+00 0.  1.
    9000005    2    1    2  501    0 -0.23494617410E-02  0.18687939510E-02 -0.89264745593E+03  0.11073523595E+04  0.65529364986E+03 0.  0.
         13    1    3    3    0    0  0.58068589463E+02  0.52536497805E+02 -0.98395404201E+03  0.98706514551E+03  0.00000000000E+00 0.  1.
          1    1    3    3  501    0 -0.58070938925E+02 -0.52534629011E+02  0.91306586082E+02  0.12028721401E+03  0.00000000000E+00 0.  1.
         21    1    1    2  502  501  0.23494617410E-02 -0.18687939510E-02  0.24325208016E-01  0.24509755330E-01  0.00000000000E+00 0.  1.
<mgrwt>
<rscale>  1 0.65529365E+03</rscale>
<asrwt>0</asrwt>
<pdfrwt beam="1">  1        1 0.39046217E+00 0.65529365E+03</pdfrwt>
<pdfrwt beam="2">0</pdfrwt>
<totfact> 0.14736426E+00</totfact>
</mgrwt>
</event>
<event>
 6    1  0.1729631E-003  0.6634473E+03  0.7818608E-02  0.9781868E-01
          1   -1    0    0  502    0  0.00000000000E+00  0.00000000000E+00  0.11004503342E+03  0.11004503342E+03  0.00000000000E+00 0.  1.
         13   -1    0    0    0    0 -0.00000000000E+00 -0.00000000000E+00 -0.10000000000E+04  0.10000000000E+04  0.00000000000E+00 0.  1.
    9000005    2    1    2  501    0 -0.40395517717E-02  0.30658970021E-02 -0.88995776546E+03  0.11100392411E+04  0.66344727927E+03 0.  0.
         13    1    3    3    0    0 -0.28270968589E+03 -0.14806606895E+03 -0.59642412309E+03  0.67643925217E+03  0.00000000000E+00 0.  1.
          3    1    3    3  501    0  0.28270564633E+03  0.14806913485E+03 -0.29353364237E+03  0.43359998889E+03  0.00000000000E+00 0.  1.
         21    1    1    2  502  501  0.40395517716E-02 -0.30658970021E-02  0.27988772105E-02  0.57923584646E-02  0.00000000000E+00 0.  1.
<mgrwt>
<rscale>  1 0.66344728E+03</rscale>
<asrwt>0</asrwt>
<pdfrwt beam="1">  1        1 0.40016460E+00 0.66344728E+03</pdfrwt>
<pdfrwt beam="2">0</pdfrwt>
<totfact> 0.13322303E+00</totfact>
</mgrwt>
</event>
<event>
 6    1  0.1729631E-003  0.6427082E+03  0.7818608E-02  0.9820559E-01
          1   -1    0    0  502    0  0.00000000000E+00  0.00000000000E+00  0.10535152041E+03  0.10535152041E+03  0.00000000000E+00 0.  1.
         13   -1    0    0    0    0 -0.00000000000E+00 -0.00000000000E+00 -0.10000000000E+04  0.10000000000E+04  0.00000000000E+00 0.  1.
    9000005    2    1    2  501    0  0.14624124914E-01 -0.19299915826E+00 -0.89672658343E+03  0.11032644224E+04  0.64270816304E+03 0.  0.
         13    1    3    3    0    0  0.22979628696E+03 -0.35204540873E+02 -0.67500638013E+02  0.24207856024E+03  0.00000000000E+00 0.  1.
          3    1    3    3  501    0 -0.22978166283E+03  0.35011541715E+02 -0.82922594542E+03  0.86118586216E+03  0.00000000000E+00 0.  1.
         21    1    1    2  502  501 -0.14624124914E-01  0.19299915826E+00  0.20781038413E+01  0.20870980129E+01  0.00000000000E+00 0.  1.
<mgrwt>
<rscale>  1 0.64270819E+03</rscale>
<asrwt>0</asrwt>
<pdfrwt beam="1">  1        1 0.38309725E+00 0.64270819E+03</pdfrwt>
<pdfrwt beam="2">0</pdfrwt>
<totfact> 0.15922466E+00</totfact>
</mgrwt>
</event>
<event>
 6    1  0.1729631E-003  0.6401511E+03  0.7818608E-02  0.9825438E-01
          1   -1    0    0  502    0  0.00000000000E+00  0.00000000000E+00  0.10245748217E+03  0.10245748217E+03  0.00000000000E+00 0.  1.
         13   -1    0    0    0    0 -0.00000000000E+00 -0.00000000000E+00 -0.10000000000E+04  0.10000000000E+04  0.00000000000E+00 0.  1.
    9000005    2    1    2  501    0  0.17778376407E-03  0.96436310628E-04 -0.89755164734E+03  0.11024483504E+04  0.64015108038E+03 0.  0.
         13    1    3    3    0    0  0.13291444953E+01  0.31925010484E+03 -0.40927899054E+03  0.51906809588E+03  0.00000000000E+00 0.  1.
          1    1    3    3  501    0 -0.13289667115E+01 -0.31925000840E+03 -0.48827265679E+03  0.58338025454E+03  0.00000000000E+00 0.  1.
         21    1    1    2  502  501 -0.17778376407E-03 -0.96436310624E-04  0.91295018625E-02  0.91317419634E-02  0.00000000000E+00 0. -1.
<mgrwt>
<rscale>  1 0.64015108E+03</rscale>
<asrwt>0</asrwt>
<pdfrwt beam="1">  1        1 0.37257345E+00 0.64015108E+03</pdfrwt>
<pdfrwt beam="2">0</pdfrwt>
<totfact> 0.17725391E+00</totfact>
</mgrwt>
</event>
<event>
 6    1  0.1729631E-003  0.6583590E+03  0.7818608E-02  0.9791219E-01
          1   -1    0    0  502    0  0.00000000000E+00  0.00000000000E+00  0.10835984291E+03  0.10835984291E+03  0.00000000000E+00 0.  1.
         13   -1    0    0    0    0 -0.00000000000E+00 -0.00000000000E+00 -0.10000000000E+04  0.10000000000E+04  0.00000000000E+00 0.  1.
    9000005    2    1    2  501    0 -0.18808519712E-04 -0.16455914647E-04 -0.89164084589E+03  0.11083591537E+04  0.65835903230E+03 0.  0.
         13    1    3    3    0    0  0.13481180367E+03 -0.28071653605E+03 -0.26620272653E+03  0.40968266699E+03  0.00000000000E+00 0.  1.
          3    1    3    3  501    0 -0.13481182248E+03  0.28071651960E+03 -0.62543811937E+03  0.69867648666E+03  0.00000000000E+00 0.  1.
         21    1    1    2  502  501  0.18808519722E-04  0.16455914682E-04  0.68880657950E-03  0.68925979246E-03  0.00000000000E+00 0.  1.
<mgrwt>
<rscale>  1 0.65835903E+03</rscale>
<asrwt>0</asrwt>
<pdfrwt beam="1">  1        1 0.39403662E+00 0.65835903E+03</pdfrwt>
<pdfrwt beam="2">0</pdfrwt>
<totfact> 0.14199521E+00</totfact>
</mgrwt>
</event>
<event>
 6    1  0.1729631E-003  0.6426381E+03  0.7818608E-02  0.9820692E-01
          1   -1    0    0  502    0  0.00000000000E+00  0.00000000000E+00  0.10324615776E+03  0.10324615776E+03  0.00000000000E+00 0.  1.
         13   -1    0    0    0    0 -0.00000000000E+00 -0.00000000000E+00 -0.10000000000E+04  0.10000000000E+04  0.00000000000E+00 0.  1.
    9000005    2    1    2  501    0 -0.14879975282E-04 -0.16670384284E-04 -0.89675406331E+03  0.11032459356E+04  0.64263811299E+03 0.  0.
         13    1    3    3    0    0 -0.17059745588E+03 -0.27937654911E+02  0.16610426345E+02  0.17366608989E+03  0.00000000000E+00 0.  1.
          1    1    3    3  501    0  0.17059744100E+03  0.27937638240E+02 -0.91336448966E+03  0.92957984567E+03  0.00000000000E+00 0.  1.
         21    1    1    2  502  501  0.14879975279E-04  0.16670384284E-04  0.22107345294E-03  0.22219988067E-03  0.00000000000E+00 0. -1.
<mgrwt>
<rscale>  1 0.64263811E+03</rscale>
<asrwt>0</asrwt>
<pdfrwt beam="1">  1        1 0.37544137E+00 0.64263811E+03</pdfrwt>
<pdfrwt beam="2">0</pdfrwt>
<totfact> 0.17209969E+00</totfact>
</mgrwt>
</event>
<event>
 6    1  0.1729631E-003  0.6039121E+03  0.7818608E-02  0.9897323E-01
          1   -1    0    0  502    0  0.00000000000E+00  0.00000000000E+00  0.91212320644E+02  0.91212320644E+02  0.00000000000E+00 0.  1.
         13   -1    0    0    0    0 -0.00000000000E+00 -0.00000000000E+00 -0.10000000000E+04  0.10000000000E+04  0.00000000000E+00 0.  1.
    9000005    2    1    2  501    0  0.80193378005E-03 -0.44890795465E-03 -0.90882254386E+03  0.10911774440E+04  0.60391207815E+03 0.  0.
         13    1    3    3    0    0  0.13861903989E+03 -0.26586848263E+03 -0.51896443495E+03  0.59935412989E+03  0.00000000000E+00 0.  1.
          3    1    3    3  501    0 -0.13861823796E+03  0.26586803372E+03 -0.38985810891E+03  0.49182331414E+03  0.00000000000E+00 0.  1.
         21    1    1    2  502  501 -0.80193378006E-03  0.44890795460E-03  0.34864501340E-01  0.34876612075E-01  0.00000000000E+00 0.  1.
<mgrwt>
<rscale>  1 0.60391208E+03</rscale>
<asrwt>0</asrwt>
<pdfrwt beam="1">  1        1 0.33168187E+00 0.60391208E+03</pdfrwt>
<pdfrwt beam="2">0</pdfrwt>
<totfact> 0.26902371E+00</totfact>
</mgrwt>
</event>
<event>
 6    1  0.1729631E-003  0.6507640E+03  0.7818608E-02  0.9805347E-01
          1   -1    0    0  502    0  0.00000000000E+00  0.00000000000E+00  0.10588659055E+03  0.10588659055E+03  0.00000000000E+00 0.  1.
         13   -1    0    0    0    0 -0.00000000000E+00 -0.00000000000E+00 -0.10000000000E+04  0.10000000000E+04  0.00000000000E+00 0.  1.
    9000005    2    1    2  501    0  0.10707757199E-02 -0.11110321219E-01 -0.89412389374E+03  0.11058712770E+04  0.65076396929E+03 0.  0.
         13    1    3    3    0    0 -0.22054186185E+03 -0.21218511842E+03 -0.63487513289E+03  0.70478909729E+03  0.00000000000E+00 0.  1.
          1    1    3    3  501    0  0.22054293263E+03  0.21217400810E+03 -0.25924876085E+03  0.40108217967E+03  0.00000000000E+00 0.  1.
         21    1    1    2  502  501 -0.10707757199E-02  0.11110321219E-01  0.10484283428E-01  0.15313588646E-01  0.00000000000E+00 0.  1.
<mgrwt>
<rscale>  1 0.65076397E+03</rscale>
<asrwt>0</asrwt>
<pdfrwt beam="1">  1        1 0.38504296E+00 0.65076397E+03</pdfrwt>
<pdfrwt beam="2">0</pdfrwt>
<totfact> 0.15586943E+00</totfact>
</mgrwt>
</event>
<event>
 6    1  0.1729631E-003  0.6541223E+03  0.7818608E-02  0.9799075E-01
          1   -1    0    0  502    0  0.00000000000E+00  0.00000000000E+00  0.10697187617E+03  0.10697187617E+03  0.00000000000E+00 0.  1.
         13   -1    0    0    0    0 -0.00000000000E+00 -0.00000000000E+00 -0.10000000000E+04  0.10000000000E+04  0.00000000000E+00 0.  1.
    9000005    2    1    2  501    0 -0.29665497176E-03  0.29429106011E-02 -0.89303015346E+03  0.11069682890E+04  0.65412226514E+03 0.  0.
         13    1    3    3    0    0  0.18895049636E+02 -0.56100153491E+02 -0.99085699428E+03  0.99262371181E+03  0.00000000000E+00 0.  1.
          1    1    3    3  501    0 -0.18895346291E+02  0.56103096402E+02  0.97826840824E+02  0.11434457715E+03  0.00000000000E+00 0.  1.
         21    1    1    2  502  501  0.29665497176E-03 -0.29429106011E-02  0.20296250278E-02  0.35872140627E-02  0.00000000000E+00 0. -1.
<mgrwt>
<rscale>  1 0.65412227E+03</rscale>
<asrwt>0</asrwt>
<pdfrwt beam="1">  1        1 0.38898946E+00 0.65412227E+03</pdfrwt>
<pdfrwt beam="2">0</pdfrwt>
<totfact> 0.14962930E+00</totfact>
</mgrwt>
</event>
<event>
 6    1  0.1729631E-003  0.6499672E+03  0.7818608E-02  0.9806841E-01
          1   -1    0    0  502    0  0.00000000000E+00  0.00000000000E+00  0.10605244997E+03  0.10605244997E+03  0.00000000000E+00 0.  1.
         13   -1    0    0    0    0 -0.00000000000E+00 -0.00000000000E+00 -0.10000000000E+04  0.10000000000E+04  0.00000000000E+00 0.  1.
    9000005    2    1    2  501    0  0.11213873648E-01 -0.13129316047E-01 -0.89438548141E+03  0.11056141783E+04  0.64996716968E+03 0.  0.
         13    1    3    3    0    0 -0.32762345233E+02  0.39927799003E+01  0.10275589826E+03  0.10792630904E+03  0.00000000000E+00 0.  1.
          1    1    3    3  501    0  0.32773559107E+02 -0.40059092163E+01 -0.99714137967E+03  0.99768786929E+03  0.00000000000E+00 0.  1.
         21    1    1    2  502  501 -0.11213873648E-01  0.13129316047E-01  0.43793138441E+00  0.43827163649E+00  0.00000000000E+00 0. -1.
<mgrwt>
<rscale>  1 0.64996717E+03</rscale>
<asrwt>0</asrwt>
<pdfrwt beam="1">  1        1 0.38564609E+00 0.64996717E+03</pdfrwt>
<pdfrwt beam="2">0</pdfrwt>
<totfact> 0.15493755E+00</totfact>
</mgrwt>
</event>
<event>
 6    1  0.1729631E-003  0.6573036E+03  0.7818608E-02  0.9793170E-01
          1   -1    0    0  502    0  0.00000000000E+00  0.00000000000E+00  0.10801520907E+03  0.10801520907E+03  0.00000000000E+00 0.  1.
         13   -1    0    0    0    0 -0.00000000000E+00 -0.00000000000E+00 -0.10000000000E+04  0.10000000000E+04  0.00000000000E+00 0.  1.
    9000005    2    1    2  501    0  0.17208694203E-05 -0.96576192561E-04 -0.89198800660E+03  0.11080119919E+04  0.65730356029E+03 0.  0.
         13    1    3    3    0    0 -0.28541085719E+03 -0.15843596017E+03 -0.51019872511E+03  0.60569303280E+03  0.00000000000E+00 0.  1.
          1    1    3    3  501    0  0.28541085891E+03  0.15843586359E+03 -0.38178928149E+03  0.50231895915E+03  0.00000000000E+00 0.  1.
         21    1    1    2  502  501 -0.17208694345E-05  0.96576192551E-04  0.32156769967E-02  0.32171273630E-02  0.00000000000E+00 0. -1.
<mgrwt>
<rscale>  1 0.65730356E+03</rscale>
<asrwt>0</asrwt>
<pdfrwt beam="1">  1        1 0.39278341E+00 0.65730356E+03</pdfrwt>
<pdfrwt beam="2">0</pdfrwt>
<totfact> 0.14385565E+00</totfact>
</mgrwt>
</event>
<event>
 6    1  0.1729631E-003  0.6462782E+03  0.7818608E-02  0.9813788E-01
          1   -1    0    0  502    0  0.00000000000E+00  0.00000000000E+00  0.10441895850E+03  0.10441895850E+03  0.00000000000E+00 0.  1.
         13   -1    0    0    0    0 -0.00000000000E+00 -0.00000000000E+00 -0.10000000000E+04  0.10000000000E+04  0.00000000000E+00 0.  1.
    9000005    2    1    2  501    0 -0.79093891717E-04  0.52410395654E-04 -0.89558108434E+03  0.11044188544E+04  0.64627821201E+03 0.  0.
         13    1    3    3    0    0 -0.19079956503E+02 -0.30709260003E+03 -0.61652093039E+03  0.68903408286E+03  0.00000000000E+00 0.  1.
          1    1    3    3  501    0  0.19079877410E+02  0.30709265244E+03 -0.27906015395E+03  0.41538477154E+03  0.00000000000E+00 0.  1.
         21    1    1    2  502  501  0.79093891714E-04 -0.52410395689E-04  0.42836503366E-04  0.10410407919E-03  0.00000000000E+00 0. -1.
<mgrwt>
<rscale>  1 0.64627821E+03</rscale>
<asrwt>0</asrwt>
<pdfrwt beam="1">  1        1 0.37970610E+00 0.64627821E+03</pdfrwt>
<pdfrwt beam="2">0</pdfrwt>
<totfact> 0.16470053E+00</totfact>
</mgrwt>
</event>
<event>
 6    1  0.1729631E-003  0.6505488E+03  0.7818608E-02  0.9805750E-01
          1   -1    0    0  502    0  0.00000000000E+00  0.00000000000E+00  0.10676446580E+03  0.10676446580E+03  0.00000000000E+00 0.  1.
         13   -1    0    0    0    0 -0.00000000000E+00 -0.00000000000E+00 -0.10000000000E+04  0.10000000000E+04  0.00000000000E+00 0.  1.
    9000005    2    1    2  501    0  0.73906226349E-01  0.62008178558E-02 -0.89419496772E+03  0.11058021700E+04  0.65054884008E+03 0.  0.
         13    1    3    3    0    0 -0.26015094558E+02 -0.20139272593E+02 -0.99715347673E+03  0.99769606173E+03  0.00000000000E+00 0.  1.
          3    1    3    3  501    0  0.26089000785E+02  0.20145473410E+02  0.10295850901E+03  0.10810610824E+03  0.00000000000E+00 0.  1.
         21    1    1    2  502  501 -0.73906226349E-01 -0.62008178558E-02  0.95943351449E+00  0.96229582206E+00  0.00000000000E+00 0. -1.
<mgrwt>
<rscale>  1 0.65054884E+03</rscale>
<asrwt>0</asrwt>
<pdfrwt beam="1">  1        1 0.38823524E+00 0.65054884E+03</pdfrwt>
<pdfrwt beam="2">0</pdfrwt>
<totfact> 0.15088524E+00</totfact>
</mgrwt>
</event>
<event>
 6    1  0.1729631E-003  0.5727347E+03  0.7818608E-02  0.9963645E-01
          1   -1    0    0  502    0  0.00000000000E+00  0.00000000000E+00  0.82006558477E+02  0.82006558477E+02  0.00000000000E+00 0.  1.
         13   -1    0    0    0    0 -0.00000000000E+00 -0.00000000000E+00 -0.10000000000E+04  0.10000000000E+04  0.00000000000E+00 0.  1.
    9000005    2    1    2  501    0  0.59821170794E-04  0.29513118420E-05 -0.91799373581E+03  0.10820062582E+04  0.57273470623E+03 0.  0.
         13    1    3    3    0    0  0.93831422081E+02 -0.18963316807E+03 -0.94420897756E+02  0.23169026768E+03  0.00000000000E+00 0.  1.
          3    1    3    3  501    0 -0.93831362259E+02  0.18963317102E+03 -0.82357283805E+03  0.85031599048E+03  0.00000000000E+00 0.  1.
         21    1    1    2  502  501 -0.59821170784E-04 -0.29513118547E-05  0.29428421449E-03  0.30031730155E-03  0.00000000000E+00 0. -1.
<mgrwt>
<rscale>  1 0.57273471E+03</rscale>
<asrwt>0</asrwt>
<pdfrwt beam="1">  1        1 0.29820630E+00 0.57273471E+03</pdfrwt>
<pdfrwt beam="2">0</pdfrwt>
<totfact> 0.37743413E+00</totfact>
</mgrwt>
</event>
<event>
 6    1  0.1729631E-003  0.6527524E+03  0.7818608E-02  0.9801628E-01
          1   -1    0    0  502    0  0.00000000000E+00  0.00000000000E+00  0.10655054887E+03  0.10655054887E+03  0.00000000000E+00 0.  1.
         13   -1    0    0    0    0 -0.00000000000E+00 -0.00000000000E+00 -0.10000000000E+04  0.10000000000E+04  0.00000000000E+00 0.  1.
    9000005    2    1    2  501    0 -0.72433530142E-01  0.68912665353E-02 -0.89341494818E+03  0.11064700221E+04  0.65275235343E+03 0.  0.
         13    1    3    3    0    0  0.26503170434E+03  0.88386255222E+02 -0.73257486420E+03  0.78404072986E+03  0.00000000000E+00 0.  1.
          1    1    3    3  501    0 -0.26510413787E+03 -0.88379363956E+02 -0.16084008399E+03  0.32242929226E+03  0.00000000000E+00 0.  1.
         21    1    1    2  502  501  0.72433530142E-01 -0.68912665353E-02 -0.34502940619E-01  0.80526758004E-01  0.00000000000E+00 0.  1.
<mgrwt>
<rscale>  1 0.65275236E+03</rscale>
<asrwt>0</asrwt>
<pdfrwt beam="1">  1        1 0.38745736E+00 0.65275236E+03</pdfrwt>
<pdfrwt beam="2">0</pdfrwt>
<totfact> 0.15202499E+00</totfact>
</mgrwt>
</event>
<event>
 6    1  0.1729631E-003  0.6256593E+03  0.7818608E-02  0.9853556E-01
          3   -1    0    0  502    0  0.00000000000E+00  0.00000000000E+00  0.97864195772E+02  0.97864195772E+02  0.00000000000E+00 0.  1.
         13   -1    0    0    0    0 -0.00000000000E+00 -0.00000000000E+00 -0.10000000000E+04  0.10000000000E+04  0.00000000000E+00 0.  1.
    9000005    2    1    2  501    0 -0.12013211472E-03 -0.67803885571E-04 -0.90213759887E+03  0.10978623958E+04  0.62565932656E+03 0.  0.
         13    1    3    3    0    0  0.24438241632E+03 -0.16832183601E+03 -0.27729413133E+03  0.40613672717E+03  0.00000000000E+00 0.  1.
          1    1    3    3  501    0 -0.24438253645E+03  0.16832176821E+03 -0.62484346754E+03  0.69172566867E+03  0.00000000000E+00 0.  1.
         21    1    1    2  502  501  0.12013211473E-03  0.67803885568E-04  0.17946376150E-02  0.17999314601E-02  0.00000000000E+00 0.  1.
<mgrwt>
<rscale>  1 0.62565933E+03</rscale>
<asrwt>0</asrwt>
<pdfrwt beam="1">  1        3 0.35587055E+00 0.62565933E+03</pdfrwt>
<pdfrwt beam="2">0</pdfrwt>
<totfact> 0.10173201E-01</totfact>
</mgrwt>
</event>
<event>
 6    1  0.1729631E-003  0.6762257E+03  0.7818608E-02  0.9758776E-01
          1   -1    0    0  502    0  0.00000000000E+00  0.00000000000E+00  0.11699237584E+03  0.11699237584E+03  0.00000000000E+00 0.  1.
         13   -1    0    0    0    0 -0.00000000000E+00 -0.00000000000E+00 -0.10000000000E+04  0.10000000000E+04  0.00000000000E+00 0.  1.
    9000005    2    1    2  501    0 -0.15117916673E+01 -0.24239973292E+00 -0.88543294644E+03  0.11141241953E+04  0.67622398327E+03 0.  0.
         13    1    3    3    0    0 -0.74492442430E+02  0.63888074265E+02  0.90423362586E+02  0.13344360050E+03  0.00000000000E+00 0.  1.
          1    1    3    3  501    0  0.72980650763E+02 -0.64130473998E+02 -0.97585630903E+03  0.98068059476E+03  0.00000000000E+00 0.  1.
         21    1    1    2  502  501  0.15117916673E+01  0.24239973292E+00  0.24253222809E+01  0.28681805804E+01  0.00000000000E+00 0. -1.
<mgrwt>
<rscale>  1 0.67622572E+03</rscale>
<asrwt>0</asrwt>
<pdfrwt beam="1">  1        1 0.42542772E+00 0.67622572E+03</pdfrwt>
<pdfrwt beam="2">0</pdfrwt>
<totfact> 0.10232927E+00</totfact>
</mgrwt>
</event>
<event>
 6    1  0.1729631E-003  0.4970082E+03  0.7818608E-02  0.1014563E+00
          1   -1    0    0  502    0  0.00000000000E+00  0.00000000000E+00  0.61754615635E+02  0.61754615635E+02  0.00000000000E+00 0.  1.
         13   -1    0    0    0    0 -0.00000000000E+00 -0.00000000000E+00 -0.10000000000E+04  0.10000000000E+04  0.00000000000E+00 0.  1.
    9000005    2    1    2  501    0 -0.81671314263E-05  0.25406565996E-04 -0.93824570824E+03  0.10617542907E+04  0.49700821391E+03 0.  0.
         13    1    3    3    0    0  0.21755199356E+03 -0.11861736025E+03 -0.42885284920E+03  0.49529154477E+03  0.00000000000E+00 0.  1.
          1    1    3    3  501    0 -0.21755200173E+03  0.11861738566E+03 -0.50939285904E+03  0.56646274589E+03  0.00000000000E+00 0.  1.
         21    1    1    2  502  501  0.81671314252E-05 -0.25406566003E-04  0.32387765614E-03  0.32497527872E-03  0.00000000000E+00 0.  1.
<mgrwt>
<rscale>  1 0.49700821E+03</rscale>
<asrwt>0</asrwt>
<pdfrwt beam="1">  1        1 0.22456271E+00 0.49700821E+03</pdfrwt>
<pdfrwt beam="2">0</pdfrwt>
<totfact> 0.79863095E+00</totfact>
</mgrwt>
</event>
<event>
 6    1  0.1729631E-003  0.6442599E+03  0.7818608E-02  0.9817610E-01
          1   -1    0    0  502    0  0.00000000000E+00  0.00000000000E+00  0.10378853237E+03  0.10378853237E+03  0.00000000000E+00 0.  1.
         13   -1    0    0    0    0 -0.00000000000E+00 -0.00000000000E+00 -0.10000000000E+04  0.10000000000E+04  0.00000000000E+00 0.  1.
    9000005    2    1    2  501    0  0.25439329067E-02  0.53189104878E-03 -0.89623220518E+03  0.11037676326E+04  0.64425990187E+03 0.  0.
         13    1    3    3    0    0  0.10804283352E+03  0.23694145996E+03 -0.77297059852E+03  0.81565805059E+03  0.00000000000E+00 0.  1.
          3    1    3    3  501    0 -0.10804028959E+03 -0.23694092807E+03 -0.12326160666E+03  0.28810958200E+03  0.00000000000E+00 0.  1.
         21    1    1    2  502  501 -0.25439329067E-02 -0.53189104880E-03  0.20737544649E-01  0.20899767003E-01  0.00000000000E+00 0.  1.
<mgrwt>
<rscale>  1 0.64425990E+03</rscale>
<asrwt>0</asrwt>
<pdfrwt beam="1">  1        1 0.37741364E+00 0.64425990E+03</pdfrwt>
<pdfrwt beam="2">0</pdfrwt>
<totfact> 0.16864123E+00</totfact>
</mgrwt>
</event>
<event>
 6    1  0.1729631E-003  0.6554701E+03  0.7818608E-02  0.9796569E-01
          1   -1    0    0  502    0  0.00000000000E+00  0.00000000000E+00  0.10741103772E+03  0.10741103772E+03  0.00000000000E+00 0.  1.
         13   -1    0    0    0    0 -0.00000000000E+00 -0.00000000000E+00 -0.10000000000E+04  0.10000000000E+04  0.00000000000E+00 0.  1.
    9000005    2    1    2  501    0 -0.47669472380E-04  0.17920477086E-03 -0.89258970880E+03  0.11074102685E+04  0.65547014772E+03 0.  0.
         13    1    3    3    0    0  0.10683836657E+03  0.28442508689E+03 -0.23869891750E+03  0.38637965764E+03  0.00000000000E+00 0.  1.
          1    1    3    3  501    0 -0.10683841424E+03 -0.28442490769E+03 -0.65389079130E+03  0.72103061088E+03  0.00000000000E+00 0.  1.
         21    1    1    2  502  501  0.47669472372E-04 -0.17920477089E-03  0.74651805135E-03  0.76920473835E-03  0.00000000000E+00 0.  1.
<mgrwt>
<rscale>  1 0.65547015E+03</rscale>
<asrwt>0</asrwt>
<pdfrwt beam="1">  1        1 0.39058642E+00 0.65547015E+03</pdfrwt>
<pdfrwt beam="2">0</pdfrwt>
<totfact> 0.14717253E+00</totfact>
</mgrwt>
</event>
<event>
 6    1  0.1729631E-003  0.6478609E+03  0.7818608E-02  0.9810801E-01
          1   -1    0    0  502    0  0.00000000000E+00  0.00000000000E+00  0.10493129373E+03  0.10493129373E+03  0.00000000000E+00 0.  1.
         13   -1    0    0    0    0 -0.00000000000E+00 -0.00000000000E+00 -0.10000000000E+04  0.10000000000E+04  0.00000000000E+00 0.  1.
    9000005    2    1    2  501    0  0.70899967284E-05  0.10732632184E-04 -0.89506906438E+03  0.11049309354E+04  0.64786089708E+03 0.  0.
         13    1    3    3    0    0 -0.24846689539E+03  0.55788333917E+02 -0.78898866759E+03  0.82906649546E+03  0.00000000000E+00 0.  1.
          1    1    3    3  501    0  0.24846690248E+03 -0.55788323184E+02 -0.10608039679E+03  0.27586443993E+03  0.00000000000E+00 0.  1.
         21    1    1    2  502  501 -0.70899967373E-05 -0.10732632181E-04  0.35811015844E-03  0.35834109871E-03  0.00000000000E+00 0. -1.
<mgrwt>
<rscale>  1 0.64786090E+03</rscale>
<asrwt>0</asrwt>
<pdfrwt beam="1">  1        1 0.38156915E+00 0.64786090E+03</pdfrwt>
<pdfrwt beam="2">0</pdfrwt>
<totfact> 0.16156446E+00</totfact>
</mgrwt>
</event>
<event>
 6    1  0.1729631E-003  0.6353965E+03  0.7818608E-02  0.9834574E-01
          1   -1    0    0  502    0  0.00000000000E+00  0.00000000000E+00  0.10093227220E+03  0.10093227220E+03  0.00000000000E+00 0.  1.
         13   -1    0    0    0    0 -0.00000000000E+00 -0.00000000000E+00 -0.10000000000E+04  0.10000000000E+04  0.00000000000E+00 0.  1.
    9000005    2    1    2  501    0 -0.42327589922E-04 -0.24639607440E-03 -0.89906756767E+03  0.11009319753E+04  0.63539650850E+03 0.  0.
         13    1    3    3    0    0 -0.12145448177E+02 -0.17272017703E+03 -0.91106327495E+03  0.92737050979E+03  0.00000000000E+00 0.  1.
          1    1    3    3  501    0  0.12145405849E+02  0.17271993063E+03  0.11995707274E+02  0.17356146552E+03  0.00000000000E+00 0.  1.
         21    1    1    2  502  501  0.42327589923E-04  0.24639607439E-03 -0.16012972410E-03  0.29689085349E-03  0.00000000000E+00 0.  1.
<mgrwt>
<rscale>  1 0.63539651E+03</rscale>
<asrwt>0</asrwt>
<pdfrwt beam="1">  1        1 0.36702722E+00 0.63539651E+03</pdfrwt>
<pdfrwt beam="2">0</pdfrwt>
<totfact> 0.18764112E+00</totfact>
</mgrwt>
</event>
<event>
 6    1  0.1729631E-003  0.6563032E+03  0.7818608E-02  0.9795023E-01
          1   -1    0    0  502    0  0.00000000000E+00  0.00000000000E+00  0.10821648874E+03  0.10821648874E+03  0.00000000000E+00 0.  1.
         13   -1    0    0    0    0 -0.00000000000E+00 -0.00000000000E+00 -0.10000000000E+04  0.10000000000E+04  0.00000000000E+00 0.  1.
    9000005    2    1    2  501    0  0.40311605810E-01  0.24393373786E+00 -0.89228459194E+03  0.11076577307E+04  0.65630312680E+03 0.  0.
         13    1    3    3    0    0 -0.81738053214E+02 -0.17776702117E+03 -0.15795424037E+01  0.19566481062E+03  0.00000000000E+00 0.  1.
          1    1    3    3  501    0  0.81778364820E+02  0.17801095491E+03 -0.89070504954E+03  0.91199292009E+03  0.00000000000E+00 0.  1.
         21    1    1    2  502  501 -0.40311605810E-01 -0.24393373786E+00  0.50108068371E+00  0.55875803852E+00  0.00000000000E+00 0. -1.
<mgrwt>
<rscale>  1 0.65630317E+03</rscale>
<asrwt>0</asrwt>
<pdfrwt beam="1">  1        1 0.39351533E+00 0.65630317E+03</pdfrwt>
<pdfrwt beam="2">0</pdfrwt>
<totfact> 0.14280926E+00</totfact>
</mgrwt>
</event>
<event>
 6    1  0.1729631E-003  0.6530846E+03  0.7818608E-02  0.9801008E-01
          1   -1    0    0  502    0  0.00000000000E+00  0.00000000000E+00  0.10663013899E+03  0.10663013899E+03  0.00000000000E+00 0.  1.
         13   -1    0    0    0    0 -0.00000000000E+00 -0.00000000000E+00 -0.10000000000E+04  0.10000000000E+04  0.00000000000E+00 0.  1.
    9000005    2    1    2  501    0 -0.74506983175E-04  0.19498668421E-03 -0.89337007588E+03  0.11066298394E+04  0.65308461094E+03 0.  0.
         13    1    3    3    0    0 -0.37709427406E+02  0.83695277966E+02  0.84315867925E+02  0.12464375657E+03  0.00000000000E+00 0.  1.
          1    1    3    3  501    0  0.37709352899E+02 -0.83695082979E+02 -0.97768594380E+03  0.98198608285E+03  0.00000000000E+00 0.  1.
         21    1    1    2  502  501  0.74506983179E-04 -0.19498668421E-03  0.21487044285E-03  0.29956702884E-03  0.00000000000E+00 0. -1.
<mgrwt>
<rscale>  1 0.65308461E+03</rscale>
<asrwt>0</asrwt>
<pdfrwt beam="1">  1        1 0.38774678E+00 0.65308461E+03</pdfrwt>
<pdfrwt beam="2">0</pdfrwt>
<totfact> 0.15156761E+00</totfact>
</mgrwt>
</event>
<event>
 6    1  0.1729631E-003  0.6508503E+03  0.7818608E-02  0.9805185E-01
          1   -1    0    0  502    0  0.00000000000E+00  0.00000000000E+00  0.10590156617E+03  0.10590156617E+03  0.00000000000E+00 0.  1.
         13   -1    0    0    0    0 -0.00000000000E+00 -0.00000000000E+00 -0.10000000000E+04  0.10000000000E+04  0.00000000000E+00 0.  1.
    9000005    2    1    2  501    0  0.15550901225E-04 -0.29176404610E-04 -0.89409844104E+03  0.11059015323E+04  0.65085034911E+03 0.  0.
         13    1    3    3    0    0 -0.21103399412E+03 -0.16135211020E+03 -0.76643646045E+03  0.81116872354E+03  0.00000000000E+00 0.  1.
          1    1    3    3  501    0  0.21103400968E+03  0.16135208102E+03 -0.12766198059E+03  0.29473280879E+03  0.00000000000E+00 0.  1.
         21    1    1    2  502  501 -0.15550901230E-04  0.29176404606E-04  0.72155021038E-05  0.33840162314E-04  0.00000000000E+00 0. -1.
<mgrwt>
<rscale>  1 0.65085035E+03</rscale>
<asrwt>0</asrwt>
<pdfrwt beam="1">  1        1 0.38509742E+00 0.65085035E+03</pdfrwt>
<pdfrwt beam="2">0</pdfrwt>
<totfact> 0.15578052E+00</totfact>
</mgrwt>
</event>
<event>
 6    1  0.1729631E-003  0.6104787E+03  0.7818608E-02  0.9883902E-01
          1   -1    0    0  502    0  0.00000000000E+00  0.00000000000E+00  0.93203874757E+02  0.93203874757E+02  0.00000000000E+00 0.  1.
         13   -1    0    0    0    0 -0.00000000000E+00 -0.00000000000E+00 -0.10000000000E+04  0.10000000000E+04  0.00000000000E+00 0.  1.
    9000005    2    1    2  501    0  0.22491006280E-02  0.25647034616E-02 -0.90682885682E+03  0.10931709659E+04  0.61047865248E+03 0.  0.
         13    1    3    3    0    0  0.26243764122E+03  0.14084959524E+03 -0.33383114286E+03  0.44738725502E+03  0.00000000000E+00 0.  1.
          3    1    3    3  501    0 -0.26243539212E+03 -0.14084703053E+03 -0.57299771396E+03  0.64578371089E+03  0.00000000000E+00 0.  1.
         21    1    1    2  502  501 -0.22491006280E-02 -0.25647034616E-02  0.32731578195E-01  0.32908849396E-01  0.00000000000E+00 0. -1.
<mgrwt>
<rscale>  1 0.61047865E+03</rscale>
<asrwt>0</asrwt>
<pdfrwt beam="1">  1        1 0.33892390E+00 0.61047865E+03</pdfrwt>
<pdfrwt beam="2">0</pdfrwt>
<totfact> 0.24996123E+00</totfact>
</mgrwt>
</event>
<event>
 6    1  0.1729631E-003  0.6626723E+03  0.7818608E-02  0.9783287E-01
          1   -1    0    0  502    0  0.00000000000E+00  0.00000000000E+00  0.10978392071E+03  0.10978392071E+03  0.00000000000E+00 0.  1.
         13   -1    0    0    0    0 -0.00000000000E+00 -0.00000000000E+00 -0.10000000000E+04  0.10000000000E+04  0.00000000000E+00 0.  1.
    9000005    2    1    2  501    0  0.69624021275E-03 -0.26257697809E-03 -0.89021562911E+03  0.11097830510E+04  0.66267228251E+03 0.  0.
         13    1    3    3    0    0 -0.59027709975E+02 -0.11095224910E+03 -0.95853359349E+03  0.96673746279E+03  0.00000000000E+00 0.  1.
          1    1    3    3  501    0  0.59028406216E+02  0.11095198652E+03  0.68317964375E+02  0.14304558822E+03  0.00000000000E+00 0.  1.
         21    1    1    2  502  501 -0.69624021275E-03  0.26257697809E-03 -0.45017995298E-03  0.86968907855E-03  0.00000000000E+00 0.  1.
<mgrwt>
<rscale>  1 0.66267228E+03</rscale>
<asrwt>0</asrwt>
<pdfrwt beam="1">  1        1 0.39921510E+00 0.66267228E+03</pdfrwt>
<pdfrwt beam="2">0</pdfrwt>
<totfact> 0.13454751E+00</totfact>
</mgrwt>
</event>
<event>
 6    1  0.1729631E-003  0.6580455E+03  0.7818608E-02  0.9791798E-01
          1   -1    0    0  502    0  0.00000000000E+00  0.00000000000E+00  0.10839616504E+03  0.10839616504E+03  0.00000000000E+00 0.  1.
         13   -1    0    0    0    0 -0.00000000000E+00 -0.00000000000E+00 -0.10000000000E+04  0.10000000000E+04  0.00000000000E+00 0.  1.
    9000005    2    1    2  501    0 -0.10058413019E-02  0.18389034011E-02 -0.89174400833E+03  0.11082559760E+04  0.65804553940E+03 0.  0.
         13    1    3    3    0    0 -0.53830691910E+02 -0.15034894816E+03 -0.93035233390E+03  0.94395869338E+03  0.00000000000E+00 0.  1.
          3    1    3    3  501    0  0.53829686069E+02  0.15035078706E+03  0.38608325569E+02  0.16429728262E+03  0.00000000000E+00 0.  1.
         21    1    1    2  502  501  0.10058413019E-02 -0.18389034011E-02  0.14017337279E+00  0.14018904280E+00  0.00000000000E+00 0.  1.
<mgrwt>
<rscale>  1 0.65804554E+03</rscale>
<asrwt>0</asrwt>
<pdfrwt beam="1">  1        1 0.39416870E+00 0.65804554E+03</pdfrwt>
<pdfrwt beam="2">0</pdfrwt>
<totfact> 0.14181167E+00</totfact>
</mgrwt>
</event>
<event>
 6    1  0.1949162E-003  0.6543912E+03  0.7818608E-02  0.9798574E-01
          1   -1    0    0  502    0  0.00000000000E+00  0.00000000000E+00  0.10705697733E+03  0.10705697733E+03  0.00000000000E+00 0.  1.
         13   -1    0    0    0    0 -0.00000000000E+00 -0.00000000000E+00 -0.10000000000E+04  0.10000000000E+04  0.00000000000E+00 0.  1.
    9000005    2    1    2  501    0  0.76514522362E-05  0.43195462922E-05 -0.89294301094E+03  0.11070569627E+04  0.65439124217E+03 0.  0.
         13    1    3    3    0    0 -0.59250541954E+02 -0.30821074213E+03 -0.29002039698E+03  0.42733630662E+03  0.00000000000E+00 0.  1.
          1    1    3    3  501    0  0.59250549605E+02  0.30821074645E+03 -0.60292261395E+03  0.67972065606E+03  0.00000000000E+00 0.  1.
         21    1    1    2  502  501 -0.76514522361E-05 -0.43195463376E-05 -0.11731499175E-04  0.14657123687E-04  0.00000000000E+00 0.  1.
<mgrwt>
<rscale>  1 0.65439124E+03</rscale>
<asrwt>0</asrwt>
<pdfrwt beam="1">  1        1 0.38929892E+00 0.65439124E+03</pdfrwt>
<pdfrwt beam="2">0</pdfrwt>
<totfact> 0.14915000E+00</totfact>
</mgrwt>
</event>
<event>
 6    1  0.1729631E-003  0.6471692E+03  0.7818608E-02  0.9812106E-01
          1   -1    0    0  502    0  0.00000000000E+00  0.00000000000E+00  0.10474209888E+03  0.10474209888E+03  0.00000000000E+00 0.  1.
         13   -1    0    0    0    0 -0.00000000000E+00 -0.00000000000E+00 -0.10000000000E+04  0.10000000000E+04  0.00000000000E+00 0.  1.
    9000005    2    1    2  501    0  0.18386123814E-02  0.30743623988E-02 -0.89529290302E+03  0.11047069142E+04  0.64716920814E+03 0.  0.
         13    1    3    3    0    0  0.25946054774E+03 -0.13047340565E+03 -0.20405595682E+03  0.35493931725E+03  0.00000000000E+00 0.  1.
          3    1    3    3  501    0 -0.25945870912E+03  0.13047648001E+03 -0.69123694620E+03  0.74976759690E+03  0.00000000000E+00 0.  1.
         21    1    1    2  502  501 -0.18386123814E-02 -0.30743623987E-02  0.35001900600E-01  0.35184730285E-01  0.00000000000E+00 0.  1.
<mgrwt>
<rscale>  1 0.64716921E+03</rscale>
<asrwt>0</asrwt>
<pdfrwt beam="1">  1        1 0.38088116E+00 0.64716921E+03</pdfrwt>
<pdfrwt beam="2">0</pdfrwt>
<totfact> 0.16271908E+00</totfact>
</mgrwt>
</event>
<event>
 6    1  0.1729631E-003  0.6470980E+03  0.7818608E-02  0.9812240E-01
          1   -1    0    0  502    0  0.00000000000E+00  0.00000000000E+00  0.10468400206E+03  0.10468400206E+03  0.00000000000E+00 0.  1.
         13   -1    0    0    0    0 -0.00000000000E+00 -0.00000000000E+00 -0.10000000000E+04  0.10000000000E+04  0.00000000000E+00 0.  1.
    9000005    2    1    2  501    0 -0.30850559938E-04  0.38172058481E-04 -0.89531603251E+03  0.11046839420E+04  0.64709799388E+03 0.  0.
         13    1    3    3    0    0 -0.29167260335E+03 -0.68509007856E+02 -0.23915277628E+03  0.38335419928E+03  0.00000000000E+00 0.  1.
          3    1    3    3  501    0  0.29167257250E+03  0.68509046028E+02 -0.65616325623E+03  0.72132974274E+03  0.00000000000E+00 0.  1.
         21    1    1    2  502  501  0.30850559948E-04 -0.38172058475E-04  0.34569220159E-04  0.60032441894E-04  0.00000000000E+00 0.  1.
<mgrwt>
<rscale>  1 0.64709799E+03</rscale>
<asrwt>0</asrwt>
<pdfrwt beam="1">  1        1 0.38066990E+00 0.64709799E+03</pdfrwt>
<pdfrwt beam="2">0</pdfrwt>
<totfact> 0.16307097E+00</totfact>
</mgrwt>
</event>
<event>
 6    1  0.1729631E-003  0.6719357E+03  0.7818608E-02  0.9766467E-01
          1   -1    0    0  502    0  0.00000000000E+00  0.00000000000E+00  0.11443519206E+03  0.11443519206E+03  0.00000000000E+00 0.  1.
         13   -1    0    0    0    0 -0.00000000000E+00 -0.00000000000E+00 -0.10000000000E+04  0.10000000000E+04  0.00000000000E+00 0.  1.
    9000005    2    1    2  501    0 -0.52982443439E+00  0.52960397814E+00 -0.88702490482E+03  0.11127941323E+04  0.67193529293E+03 0.  0.
         13    1    3    3    0    0 -0.56453983220E+02  0.28338571239E+03 -0.15913311907E+03  0.32987552773E+03  0.00000000000E+00 0.  1.
          1    1    3    3  501    0  0.55924158786E+02 -0.28285610841E+03 -0.72789178574E+03  0.78291860455E+03  0.00000000000E+00 0.  1.
         21    1    1    2  502  501  0.52982443439E+00 -0.52960397814E+00  0.14600968816E+01  0.16410597822E+01  0.00000000000E+00 0. -1.
<mgrwt>
<rscale>  1 0.67193571E+03</rscale>
<asrwt>0</asrwt>
<pdfrwt beam="1">  1        1 0.41612885E+00 0.67193571E+03</pdfrwt>
<pdfrwt beam="2">0</pdfrwt>
<totfact> 0.11281099E+00</totfact>
</mgrwt>
</event>
<event>
 6    1  0.1729631E-003  0.6542906E+03  0.7818608E-02  0.9798761E-01
          1   -1    0    0  502    0  0.00000000000E+00  0.00000000000E+00  0.10702442386E+03  0.10702442386E+03  0.00000000000E+00 0.  1.
         13   -1    0    0    0    0 -0.00000000000E+00 -0.00000000000E+00 -0.10000000000E+04  0.10000000000E+04  0.00000000000E+00 0.  1.
    9000005    2    1    2  501    0  0.74427966013E-05  0.98611018302E-05 -0.89297595978E+03  0.11070240400E+04  0.65429057797E+03 0.  0.
         13    1    3    3    0    0  0.18929072194E+03 -0.16392234499E+03 -0.80269185786E+03  0.84084227491E+03  0.00000000000E+00 0.  1.
          1    1    3    3  501    0 -0.18929071450E+03  0.16392235485E+03 -0.90284101924E+02  0.26618176511E+03  0.00000000000E+00 0.  1.
         21    1    1    2  502  501 -0.74427965994E-05 -0.98611018516E-05  0.38364632069E-03  0.38384519787E-03  0.00000000000E+00 0. -1.
<mgrwt>
<rscale>  1 0.65429058E+03</rscale>
<asrwt>0</asrwt>
<pdfrwt beam="1">  1        1 0.38918054E+00 0.65429058E+03</pdfrwt>
<pdfrwt beam="2">0</pdfrwt>
<totfact> 0.14933311E+00</totfact>
</mgrwt>
</event>
<event>
 6    1  0.1729631E-003  0.6471529E+03  0.7818608E-02  0.9812136E-01
          1   -1    0    0  502    0  0.00000000000E+00  0.00000000000E+00  0.10470174242E+03  0.10470174242E+03  0.00000000000E+00 0.  1.
         13   -1    0    0    0    0 -0.00000000000E+00 -0.00000000000E+00 -0.10000000000E+04  0.10000000000E+04  0.00000000000E+00 0.  1.
    9000005    2    1    2  501    0 -0.27220998021E-04  0.62426601289E-04 -0.89529822995E+03  0.11047016689E+04  0.64715288515E+03 0.  0.
         13    1    3    3    0    0 -0.50759589449E+02  0.26790258973E+03 -0.74504971394E+03  0.79337721782E+03  0.00000000000E+00 0.  1.
          1    1    3    3  501    0  0.50759562228E+02 -0.26790252730E+03 -0.15024851601E+03  0.31132445110E+03  0.00000000000E+00 0.  1.
         21    1    1    2  502  501  0.27220998023E-04 -0.62426601277E-04 -0.27631479613E-04  0.73495319211E-04  0.00000000000E+00 0.  1.
<mgrwt>
<rscale>  1 0.64715289E+03</rscale>
<asrwt>0</asrwt>
<pdfrwt beam="1">  1        1 0.38073441E+00 0.64715289E+03</pdfrwt>
<pdfrwt beam="2">0</pdfrwt>
<totfact> 0.16296245E+00</totfact>
</mgrwt>
</event>
<event>
 6    1  0.1729631E-003  0.6318726E+03  0.7818608E-02  0.9841401E-01
          1   -1    0    0  502    0  0.00000000000E+00  0.00000000000E+00  0.99815773249E+02  0.99815773249E+02  0.00000000000E+00 0.  1.
         13   -1    0    0    0    0 -0.00000000000E+00 -0.00000000000E+00 -0.10000000000E+04  0.10000000000E+04  0.00000000000E+00 0.  1.
    9000005    2    1    2  501    0 -0.26938730997E-05 -0.10656817949E-04 -0.90018425206E+03  0.10998157457E+04  0.63187260325E+03 0.  0.
         13    1    3    3    0    0  0.74768538959E+02 -0.29121119006E+03 -0.28114552931E+03  0.41162738039E+03  0.00000000000E+00 0.  1.
          3    1    3    3  501    0 -0.74768541652E+02  0.29121117940E+03 -0.61903872275E+03  0.68818836527E+03  0.00000000000E+00 0.  1.
         21    1    1    2  502  501  0.26938730984E-05  0.10656817936E-04  0.25309068076E-04  0.27592999976E-04  0.00000000000E+00 0.  1.
<mgrwt>
<rscale>  1 0.63187260E+03</rscale>
<asrwt>0</asrwt>
<pdfrwt beam="1">  1        1 0.36296721E+00 0.63187260E+03</pdfrwt>
<pdfrwt beam="2">0</pdfrwt>
<totfact> 0.19561313E+00</totfact>
</mgrwt>
</event>
<event>
 6    1  0.1729631E-003  0.6495531E+03  0.7818608E-02  0.9807618E-01
          1   -1    0    0  502    0  0.00000000000E+00  0.00000000000E+00  0.10779704331E+03  0.10779704331E+03  0.00000000000E+00 0.  1.
         13   -1    0    0    0    0 -0.00000000000E+00 -0.00000000000E+00 -0.10000000000E+04  0.10000000000E+04  0.00000000000E+00 0.  1.
    9000005    2    1    2  501    0 -0.96749864300E+00  0.10703708891E+01 -0.89426931970E+03  0.11052768045E+04  0.64955147349E+03 0.  0.
         13    1    3    3    0    0  0.23358200465E+03  0.87711947218E+02 -0.80008323817E+03  0.83808539337E+03  0.00000000000E+00 0.  1.
          1    1    3    3  501    0 -0.23454950329E+03 -0.86641576329E+02 -0.94186081532E+02  0.26719141116E+03  0.00000000000E+00 0.  1.
         21    1    1    2  502  501  0.96749864300E+00 -0.10703708891E+01  0.20663630080E+01  0.25202387873E+01  0.00000000000E+00 0. -1.
<mgrwt>
<rscale>  1 0.64955308E+03</rscale>
<asrwt>0</asrwt>
<pdfrwt beam="1">  1        1 0.39199008E+00 0.64955308E+03</pdfrwt>
<pdfrwt beam="2">0</pdfrwt>
<totfact> 0.14523706E+00</totfact>
</mgrwt>
</event>
<event>
 6    1  0.1729631E-003  0.6154901E+03  0.7818608E-02  0.9873780E-01
          1   -1    0    0  502    0  0.00000000000E+00  0.00000000000E+00  0.96039316950E+02  0.96039316950E+02  0.00000000000E+00 0.  1.
         13   -1    0    0    0    0 -0.00000000000E+00 -0.00000000000E+00 -0.10000000000E+04  0.10000000000E+04  0.00000000000E+00 0.  1.
    9000005    2    1    2  501    0  0.15111592802E+00  0.61207058693E+00 -0.90521088722E+03  0.10946391466E+04  0.61548981595E+03 0.  0.
         13    1    3    3    0    0 -0.10515852419E+03  0.12986922417E+03  0.70631473672E+01  0.16725495104E+03  0.00000000000E+00 0.  1.
          1    1    3    3  501    0  0.10530964012E+03 -0.12925715358E+03 -0.91227403459E+03  0.92738419560E+03  0.00000000000E+00 0.  1.
         21    1    1    2  502  501 -0.15111592802E+00 -0.61207058693E+00  0.12502041741E+01  0.14001703125E+01  0.00000000000E+00 0. -1.
<mgrwt>
<rscale>  1 0.61549014E+03</rscale>
<asrwt>0</asrwt>
<pdfrwt beam="1">  1        1 0.34923462E+00 0.61549014E+03</pdfrwt>
<pdfrwt beam="2">0</pdfrwt>
<totfact> 0.22524127E+00</totfact>
</mgrwt>
</event>
<event>
 6    1  0.1729631E-003  0.6419493E+03  0.7818608E-02  0.9822004E-01
          1   -1    0    0  502    0  0.00000000000E+00  0.00000000000E+00  0.10302822224E+03  0.10302822224E+03  0.00000000000E+00 0.  1.
         13   -1    0    0    0    0 -0.00000000000E+00 -0.00000000000E+00 -0.10000000000E+04  0.10000000000E+04  0.00000000000E+00 0.  1.
    9000005    2    1    2  501    0  0.42204312479E-03 -0.73911053211E-02 -0.89697027576E+03  0.11030206683E+04  0.64194931184E+03 0.  0.
         13    1    3    3    0    0 -0.28539542985E+03  0.97202725080E+02 -0.25928239201E+03  0.39765095241E+03  0.00000000000E+00 0.  1.
          1    1    3    3  501    0  0.28539585190E+03 -0.97210116186E+02 -0.63768788375E+03  0.70536971586E+03  0.00000000000E+00 0.  1.
         21    1    1    2  502  501 -0.42204312482E-03  0.73911053211E-02 -0.15019950307E-02  0.75539755982E-02  0.00000000000E+00 0.  1.
<mgrwt>
<rscale>  1 0.64194931E+03</rscale>
<asrwt>0</asrwt>
<pdfrwt beam="1">  1        1 0.37464887E+00 0.64194931E+03</pdfrwt>
<pdfrwt beam="2">0</pdfrwt>
<totfact> 0.17350952E+00</totfact>
</mgrwt>
</event>
<event>
 6    1  0.1729631E-003  0.6297209E+03  0.7818608E-02  0.9845594E-01
          1   -1    0    0  502    0  0.00000000000E+00  0.00000000000E+00  0.99143080398E+02  0.99143080398E+02  0.00000000000E+00 0.  1.
         13   -1    0    0    0    0 -0.00000000000E+00 -0.00000000000E+00 -0.10000000000E+04  0.10000000000E+04  0.00000000000E+00 0.  1.
    9000005    2    1    2  501    0 -0.12894072374E-02  0.55737304557E-03 -0.90086280444E+03  0.10991370302E+04  0.62972090548E+03 0.  0.
         13    1    3    3    0    0  0.14115159902E+03 -0.36953223226E+02  0.36566082260E+02  0.15042071993E+03  0.00000000000E+00 0.  1.
          1    1    3    3  501    0 -0.14115288843E+03  0.36953780599E+02 -0.93742888670E+03  0.94871631030E+03  0.00000000000E+00 0.  1.
         21    1    1    2  502  501  0.12894072374E-02 -0.55737304557E-03  0.58848371400E-02  0.60501689150E-02  0.00000000000E+00 0.  1.
<mgrwt>
<rscale>  1 0.62972091E+03</rscale>
<asrwt>0</asrwt>
<pdfrwt beam="1">  1        1 0.36052105E+00 0.62972091E+03</pdfrwt>
<pdfrwt beam="2">0</pdfrwt>
<totfact> 0.20057303E+00</totfact>
</mgrwt>
</event>
<event>
 6    1  0.1729631E-003  0.6478407E+03  0.7818608E-02  0.9810839E-01
          1   -1    0    0  502    0  0.00000000000E+00  0.00000000000E+00  0.10492453962E+03  0.10492453962E+03  0.00000000000E+00 0.  1.
         13   -1    0    0    0    0 -0.00000000000E+00 -0.00000000000E+00 -0.10000000000E+04  0.10000000000E+04  0.00000000000E+00 0.  1.
    9000005    2    1    2  501    0  0.97515734865E-06  0.27138575376E-04 -0.89507561714E+03  0.11049243805E+04  0.64784066426E+03 0.  0.
         13    1    3    3    0    0 -0.23490891755E+03  0.14757319136E+03 -0.73274905273E+03  0.78350572470E+03  0.00000000000E+00 0.  1.
          3    1    3    3  501    0  0.23490891852E+03 -0.14757316422E+03 -0.16232656441E+03  0.32141865582E+03  0.00000000000E+00 0.  1.
         21    1    1    2  502  501 -0.97515735548E-06 -0.27138575369E-04  0.15676576744E-03  0.15910046840E-03  0.00000000000E+00 0.  1.
<mgrwt>
<rscale>  1 0.64784066E+03</rscale>
<asrwt>0</asrwt>
<pdfrwt beam="1">  1        1 0.38154459E+00 0.64784066E+03</pdfrwt>
<pdfrwt beam="2">0</pdfrwt>
<totfact> 0.16160541E+00</totfact>
</mgrwt>
</event>
<event>
 6    1  0.1729631E-003  0.6509610E+03  0.7818608E-02  0.9804978E-01
          1   -1    0    0  502    0  0.00000000000E+00  0.00000000000E+00  0.10594549294E+03  0.10594549294E+03  0.00000000000E+00 0.  1.
         13   -1    0    0    0    0 -0.00000000000E+00 -0.00000000000E+00 -0.10000000000E+04  0.10000000000E+04  0.00000000000E+00 0.  1.
    9000005    2    1    2  501    0 -0.33636632054E-04 -0.76995047573E-03 -0.89406243497E+03  0.11059375277E+04  0.65096096462E+03 0.  0.
         13    1    3    3    0    0  0.27485797798E+03  0.17071588544E+03 -0.50701501234E+03  0.60146075877E+03  0.00000000000E+00 0.  1.
          1    1    3    3  501    0 -0.27485801162E+03 -0.17071665540E+03 -0.38704742263E+03  0.50447676888E+03  0.00000000000E+00 0.  1.
         21    1    1    2  502  501  0.33636632060E-04  0.76995047572E-03  0.79279063113E-02  0.79652780014E-02  0.00000000000E+00 0. -1.
<mgrwt>
<rscale>  1 0.65096096E+03</rscale>
<asrwt>0</asrwt>
<pdfrwt beam="1">  1        1 0.38525715E+00 0.65096096E+03</pdfrwt>
<pdfrwt beam="2">0</pdfrwt>
<totfact> 0.15552409E+00</totfact>
</mgrwt>
</event>
<event>
 6    1  0.1729631E-003  0.6004978E+03  0.7818608E-02  0.9904374E-01
          3   -1    0    0  502    0  0.00000000000E+00  0.00000000000E+00  0.90185746567E+02  0.90185746567E+02  0.00000000000E+00 0.  1.
         13   -1    0    0    0    0 -0.00000000000E+00 -0.00000000000E+00 -0.10000000000E+04  0.10000000000E+04  0.00000000000E+00 0.  1.
    9000005    2    1    2  501    0 -0.80105955823E-01 -0.71636339444E-01 -0.90973193155E+03  0.10900503744E+04  0.60049781008E+03 0.  0.
         13    1    3    3    0    0  0.14033013546E+03 -0.25778488665E+03 -0.56984854690E+03  0.64099372938E+03  0.00000000000E+00 0.  1.
          3    1    3    3  501    0 -0.14041024142E+03  0.25771325031E+03 -0.33988338464E+03  0.44905664502E+03  0.00000000000E+00 0.  1.
         21    1    1    2  502  501  0.80105955823E-01  0.71636339444E-01 -0.82321887862E-01  0.13537216297E+00  0.00000000000E+00 0. -1.
<mgrwt>
<rscale>  1 0.60049782E+03</rscale>
<asrwt>0</asrwt>
<pdfrwt beam="1">  1        3 0.32794886E+00 0.60049782E+03</pdfrwt>
<pdfrwt beam="2">0</pdfrwt>
<totfact> 0.14393265E-01</totfact>
</mgrwt>
</event>
<event>
 6    1  0.1729631E-003  0.6563541E+03  0.7818608E-02  0.9794929E-01
          1   -1    0    0  502    0  0.00000000000E+00  0.00000000000E+00  0.10916793673E+03  0.10916793673E+03  0.00000000000E+00 0.  1.
         13   -1    0    0    0    0 -0.00000000000E+00 -0.00000000000E+00 -0.10000000000E+04  0.10000000000E+04  0.00000000000E+00 0.  1.
    9000005    2    1    2  501    0  0.19678865232E-01  0.83832567691E-01 -0.89229843782E+03  0.11076990360E+04  0.65635405439E+03 0.  0.
         13    1    3    3    0    0  0.31771014542E+03  0.43286978845E+02 -0.32807554396E+03  0.45874509434E+03  0.00000000000E+00 0.  1.
          3    1    3    3  501    0 -0.31769046655E+03 -0.43203146278E+02 -0.56422289386E+03  0.64895394162E+03  0.00000000000E+00 0.  1.
         21    1    1    2  502  501 -0.19678865232E-01 -0.83832567691E-01  0.14663745519E+01  0.14689007739E+01  0.00000000000E+00 0. -1.
<mgrwt>
<rscale>  1 0.65635406E+03</rscale>
<asrwt>0</asrwt>
<pdfrwt beam="1">  1        1 0.39697515E+00 0.65635406E+03</pdfrwt>
<pdfrwt beam="2">0</pdfrwt>
<totfact> 0.13783722E+00</totfact>
</mgrwt>
</event>
<event>
 6    1  0.1729631E-003  0.5878984E+03  0.7818608E-02  0.9930836E-01
          1   -1    0    0  502    0  0.00000000000E+00  0.00000000000E+00  0.87119433537E+02  0.87119433537E+02  0.00000000000E+00 0.  1.
         13   -1    0    0    0    0 -0.00000000000E+00 -0.00000000000E+00 -0.10000000000E+04  0.10000000000E+04  0.00000000000E+00 0.  1.
    9000005    2    1    2  501    0 -0.34705009434E+00 -0.19138738303E+01 -0.91178959697E+03  0.10848892830E+04  0.58789514708E+03 0.  0.
         13    1    3    3    0    0 -0.21550064334E+03 -0.17282120192E+03 -0.26784265500E+03  0.38476925936E+03  0.00000000000E+00 0.  1.
          1    1    3    3  501    0  0.21515359325E+03  0.17090732809E+03 -0.64394694197E+03  0.70012002368E+03  0.00000000000E+00 0.  1.
         21    1    1    2  502  501  0.34705009434E+00  0.19138738303E+01 -0.10909694940E+01  0.22301504978E+01  0.00000000000E+00 0.  1.
<mgrwt>
<rscale>  1 0.58789836E+03</rscale>
<asrwt>0</asrwt>
<pdfrwt beam="1">  1        1 0.31679861E+00 0.58789836E+03</pdfrwt>
<pdfrwt beam="2">0</pdfrwt>
<totfact> 0.31291279E+00</totfact>
</mgrwt>
</event>
<event>
 6    1  0.1729631E-003  0.6488508E+03  0.7818608E-02  0.9808938E-01
          1   -1    0    0  502    0  0.00000000000E+00  0.00000000000E+00  0.10569357702E+03  0.10569357702E+03  0.00000000000E+00 0.  1.
         13   -1    0    0    0    0 -0.00000000000E+00 -0.00000000000E+00 -0.10000000000E+04  0.10000000000E+04  0.00000000000E+00 0.  1.
    9000005    2    1    2  501    0  0.62148293719E-02 -0.67507521739E-02 -0.89474811657E+03  0.11052517881E+04  0.64885077097E+03 0.  0.
         13    1    3    3    0    0  0.16546241738E+02  0.10130891523E+03  0.76859063317E+02  0.12823646141E+03  0.00000000000E+00 0.  1.
          1    1    3    3  501    0 -0.16540026908E+02 -0.10131566598E+03 -0.97160717988E+03  0.97701532673E+03  0.00000000000E+00 0.  1.
         21    1    1    2  502  501 -0.62148293719E-02  0.67507521739E-02  0.44169358850E+00  0.44178888949E+00  0.00000000000E+00 0. -1.
<mgrwt>
<rscale>  1 0.64885077E+03</rscale>
<asrwt>0</asrwt>
<pdfrwt beam="1">  1        1 0.38434109E+00 0.64885077E+03</pdfrwt>
<pdfrwt beam="2">0</pdfrwt>
<totfact> 0.15704294E+00</totfact>
</mgrwt>
</event>
<event>
 6    1  0.1729631E-003  0.6500608E+03  0.7818608E-02  0.9806665E-01
          1   -1    0    0  502    0  0.00000000000E+00  0.00000000000E+00  0.10564506524E+03  0.10564506524E+03  0.00000000000E+00 0.  1.
         13   -1    0    0    0    0 -0.00000000000E+00 -0.00000000000E+00 -0.10000000000E+04  0.10000000000E+04  0.00000000000E+00 0.  1.
    9000005    2    1    2  501    0 -0.19775522136E-03 -0.14542491385E-04 -0.89435518558E+03  0.11056447455E+04  0.65006084737E+03 0.  0.
         13    1    3    3    0    0 -0.20300936557E+03 -0.17035772399E+03 -0.12712153897E+03  0.29392931515E+03  0.00000000000E+00 0.  1.
          3    1    3    3  501    0  0.20300916782E+03  0.17035770945E+03 -0.76723364661E+03  0.81171543036E+03  0.00000000000E+00 0.  1.
         21    1    1    2  502  501  0.19775522136E-03  0.14542491399E-04  0.25081817655E-03  0.31973171459E-03  0.00000000000E+00 0.  1.
<mgrwt>
<rscale>  1 0.65006085E+03</rscale>
<asrwt>0</asrwt>
<pdfrwt beam="1">  1        1 0.38416468E+00 0.65006085E+03</pdfrwt>
<pdfrwt beam="2">0</pdfrwt>
<totfact> 0.15729009E+00</totfact>
</mgrwt>
</event>
<event>
 6    1  0.1729631E-003  0.6077928E+03  0.7818608E-02  0.9889369E-01
          1   -1    0    0  502    0  0.00000000000E+00  0.00000000000E+00  0.92464249801E+02  0.92464249801E+02  0.00000000000E+00 0.  1.
         13   -1    0    0    0    0 -0.00000000000E+00 -0.00000000000E+00 -0.10000000000E+04  0.10000000000E+04  0.00000000000E+00 0.  1.
    9000005    2    1    2  501    0 -0.30562635289E+00  0.10298835868E+00 -0.90730005116E+03  0.10920647900E+04  0.60779274328E+03 0.  0.
         13    1    3    3    0    0  0.20470816934E+02 -0.11989820391E+02  0.90712193220E+02  0.93763063825E+02  0.00000000000E+00 0.  1.
          1    1    3    3  501    0 -0.20776443287E+02  0.12092808750E+02 -0.99801224438E+03  0.99830172621E+03  0.00000000000E+00 0.  1.
         21    1    1    2  502  501  0.30562635289E+00 -0.10298835868E+00 -0.23569904274E+00  0.39945977063E+00  0.00000000000E+00 0.  1.
<mgrwt>
<rscale>  1 0.60779283E+03</rscale>
<asrwt>0</asrwt>
<pdfrwt beam="1">  1        1 0.33623434E+00 0.60779283E+03</pdfrwt>
<pdfrwt beam="2">0</pdfrwt>
<totfact> 0.25689335E+00</totfact>
</mgrwt>
</event>
<event>
 6    1  0.1729631E-003  0.6586662E+03  0.7818608E-02  0.9790652E-01
          1   -1    0    0  502    0  0.00000000000E+00  0.00000000000E+00  0.11051138161E+03  0.11051138161E+03  0.00000000000E+00 0.  1.
         13   -1    0    0    0    0 -0.00000000000E+00 -0.00000000000E+00 -0.10000000000E+04  0.10000000000E+04  0.00000000000E+00 0.  1.
    9000005    2    1    2  501    0  0.38906523953E+01 -0.21116730590E+00 -0.88923406906E+03  0.11066066969E+04  0.65865466686E+03 0.  0.
         13    1    3    3    0    0  0.12777943398E+02  0.73942920823E+02  0.94147341123E+02  0.12039332713E+03  0.00000000000E+00 0.  1.
          1    1    3    3  501    0 -0.88872910029E+01 -0.74154088129E+02 -0.98338141019E+03  0.98621336973E+03  0.00000000000E+00 0.  1.
         21    1    1    2  502  501 -0.38906523953E+01  0.21116730590E+00 -0.25454932167E+00  0.39046847567E+01  0.00000000000E+00 0.  1.
<mgrwt>
<rscale>  1 0.65866619E+03</rscale>
<asrwt>0</asrwt>
<pdfrwt beam="1">  1        1 0.40186042E+00 0.65866619E+03</pdfrwt>
<pdfrwt beam="2">0</pdfrwt>
<totfact> 0.13103991E+00</totfact>
</mgrwt>
</event>
<event>
 6    1  0.1884694E-003  0.6060676E+03  0.7818608E-02  0.9892897E-01
          1   -1    0    0  502    0  0.00000000000E+00  0.00000000000E+00  0.91829509203E+02  0.91829509203E+02  0.00000000000E+00 0.  1.
         13   -1    0    0    0    0 -0.00000000000E+00 -0.00000000000E+00 -0.10000000000E+04  0.10000000000E+04  0.00000000000E+00 0.  1.
    9000005    2    1    2  501    0  0.38352328318E-05  0.61094802675E-05 -0.90817050275E+03  0.10918294952E+04  0.60606764029E+03 0.  0.
         13    1    3    3    0    0  0.19135989563E+03 -0.22895393685E+03 -0.54925789432E+03  0.62507819457E+03  0.00000000000E+00 0.  1.
          1    1    3    3  501    0 -0.19135989180E+03  0.22895394296E+03 -0.35891260843E+03  0.46675130067E+03  0.00000000000E+00 0.  1.
         21    1    1    2  502  501 -0.38352328276E-05 -0.61094802746E-05  0.11955117233E-04  0.13962792991E-04  0.00000000000E+00 0.  1.
<mgrwt>
<rscale>  1 0.60606764E+03</rscale>
<asrwt>0</asrwt>
<pdfrwt beam="1">  1        1 0.33392619E+00 0.60606764E+03</pdfrwt>
<pdfrwt beam="2">0</pdfrwt>
<totfact> 0.26296426E+00</totfact>
</mgrwt>
</event>
<event>
 6    1  0.1729631E-003  0.6431121E+03  0.7818608E-02  0.9819790E-01
          1   -1    0    0  502    0  0.00000000000E+00  0.00000000000E+00  0.10339829679E+03  0.10339829679E+03  0.00000000000E+00 0.  1.
         13   -1    0    0    0    0 -0.00000000000E+00 -0.00000000000E+00 -0.10000000000E+04  0.10000000000E+04  0.00000000000E+00 0.  1.
    9000005    2    1    2  501    0 -0.72598377301E-05 -0.20942802905E-05 -0.89660171426E+03  0.11033982834E+04  0.64311207251E+03 0.  0.
         13    1    3    3    0    0 -0.28313939750E+03  0.13782671479E+03 -0.55994334853E+03  0.64241783544E+03  0.00000000000E+00 0.  1.
          3    1    3    3  501    0  0.28313939024E+03 -0.13782671689E+03 -0.33665836573E+03  0.46098044797E+03  0.00000000000E+00 0.  1.
         21    1    1    2  502  501  0.72598377139E-05  0.20942802950E-05  0.11046887489E-04  0.13383757947E-04  0.00000000000E+00 0.  1.
<mgrwt>
<rscale>  1 0.64311207E+03</rscale>
<asrwt>0</asrwt>
<pdfrwt beam="1">  1        1 0.37599460E+00 0.64311207E+03</pdfrwt>
<pdfrwt beam="2">0</pdfrwt>
<totfact> 0.17112221E+00</totfact>
</mgrwt>
</event>
<event>
 6    1  0.1729631E-003  0.6541292E+03  0.7818608E-02  0.9799062E-01
          1   -1    0    0  502    0  0.00000000000E+00  0.00000000000E+00  0.10806756747E+03  0.10806756747E+03  0.00000000000E+00 0.  1.
         13   -1    0    0    0    0 -0.00000000000E+00 -0.00000000000E+00 -0.10000000000E+04  0.10000000000E+04  0.00000000000E+00 0.  1.
    9000005    2    1    2  501    0  0.69329759320E+00  0.52810351848E-01 -0.89290537309E+03  0.11068717147E+04  0.65412881308E+03 0.  0.
         13    1    3    3    0    0  0.17190804721E+03 -0.18331629726E+03 -0.92046000370E+02  0.26763726894E+03  0.00000000000E+00 0.  1.
          1    1    3    3  501    0 -0.17121474962E+03  0.18336910762E+03 -0.80085937272E+03  0.83923444578E+03  0.00000000000E+00 0.  1.
         21    1    1    2  502  501 -0.69329759320E+00 -0.52810351848E-01  0.97294056117E+00  0.11958527591E+01  0.00000000000E+00 0. -1.
<mgrwt>
<rscale>  1 0.65412918E+03</rscale>
<asrwt>0</asrwt>
<pdfrwt beam="1">  1        1 0.39297380E+00 0.65412918E+03</pdfrwt>
<pdfrwt beam="2">0</pdfrwt>
<totfact> 0.14366072E+00</totfact>
</mgrwt>
</event>
<event>
 6    1  0.1729631E-003  0.6609244E+03  0.7818608E-02  0.9786494E-01
          1   -1    0    0  502    0  0.00000000000E+00  0.00000000000E+00  0.11021458684E+03  0.11021458684E+03  0.00000000000E+00 0.  1.
         13   -1    0    0    0    0 -0.00000000000E+00 -0.00000000000E+00 -0.10000000000E+04  0.10000000000E+04  0.00000000000E+00 0.  1.
    9000005    2    1    2  501    0  0.62119724778E-01  0.28518793036E-01 -0.89079346193E+03  0.11092042233E+04  0.66092436213E+03 0.  0.
         13    1    3    3    0    0 -0.32069232255E+03 -0.47726442622E+02 -0.55232316156E+03  0.64045472429E+03  0.00000000000E+00 0.  1.
          1    1    3    3  501    0  0.32075444227E+03  0.47754961415E+02 -0.33847030037E+03  0.46874949900E+03  0.00000000000E+00 0.  1.
         21    1    1    2  502  501 -0.62119724778E-01 -0.28518793036E-01  0.10080487691E+01  0.10103635498E+01  0.00000000000E+00 0.  1.
<mgrwt>
<rscale>  1 0.66092437E+03</rscale>
<asrwt>0</asrwt>
<pdfrwt beam="1">  1        1 0.40078116E+00 0.66092437E+03</pdfrwt>
<pdfrwt beam="2">0</pdfrwt>
<totfact> 0.13244470E+00</totfact>
</mgrwt>
</event>
<event>
 6    1  0.1729631E-003  0.6742865E+03  0.7818608E-02  0.9762245E-01
          1   -1    0    0  502    0  0.00000000000E+00  0.00000000000E+00  0.11366832108E+03  0.11366832108E+03  0.00000000000E+00 0.  1.
         13   -1    0    0    0    0 -0.00000000000E+00 -0.00000000000E+00 -0.10000000000E+04  0.10000000000E+04  0.00000000000E+00 0.  1.
    9000005    2    1    2  501    0  0.15199249219E-04 -0.12893069064E-03 -0.88633441494E+03  0.11136655820E+04  0.67428653657E+03 0.  0.
         13    1    3    3    0    0  0.30966964229E+03  0.57646849192E+02 -0.24464862177E+03  0.39883755429E+03  0.00000000000E+00 0.  1.
          3    1    3    3  501    0 -0.30966962709E+03 -0.57646978123E+02 -0.64168579317E+03  0.71482802770E+03  0.00000000000E+00 0.  1.
         21    1    1    2  502  501 -0.15199249193E-04  0.12893069065E-03  0.27360164398E-02  0.27390947591E-02  0.00000000000E+00 0. -1.
<mgrwt>
<rscale>  1 0.67428654E+03</rscale>
<asrwt>0</asrwt>
<pdfrwt beam="1">  1        1 0.41334022E+00 0.67428654E+03</pdfrwt>
<pdfrwt beam="2">0</pdfrwt>
<totfact> 0.11606561E+00</totfact>
</mgrwt>
</event>
<event>
 6    1  0.1729631E-003  0.6479834E+03  0.7818608E-02  0.9810571E-01
          3   -1    0    0  502    0  0.00000000000E+00  0.00000000000E+00  0.10746612549E+03  0.10746612549E+03  0.00000000000E+00 0.  1.
         13   -1    0    0    0    0 -0.00000000000E+00 -0.00000000000E+00 -0.10000000000E+04  0.10000000000E+04  0.00000000000E+00 0.  1.
    9000005    2    1    2  501    0 -0.39657364006E-01 -0.56415367944E+00 -0.89499393778E+03  0.11049418923E+04  0.64798311457E+03 0.  0.
         13    1    3    3    0    0 -0.26825902306E+03 -0.99159441919E+02 -0.18767763696E+03  0.34207951384E+03  0.00000000000E+00 0.  1.
          1    1    3    3  501    0  0.26821936570E+03  0.98595288240E+02 -0.70731630082E+03  0.76286237842E+03  0.00000000000E+00 0.  1.
         21    1    1    2  502  501  0.39657364006E-01  0.56415367944E+00  0.24600632785E+01  0.25242332330E+01  0.00000000000E+00 0. -1.
<mgrwt>
<rscale>  1 0.64798336E+03</rscale>
<asrwt>0</asrwt>
<pdfrwt beam="1">  1        3 0.39078673E+00 0.64798336E+03</pdfrwt>
<pdfrwt beam="2">0</pdfrwt>
<totfact> 0.66239580E-02</totfact>
</mgrwt>
</event>
<event>
 6    1  0.1729631E-003  0.6504187E+03  0.7818608E-02  0.9805994E-01
          1   -1    0    0  502    0  0.00000000000E+00  0.00000000000E+00  0.10577553937E+03  0.10577553937E+03  0.00000000000E+00 0.  1.
         13   -1    0    0    0    0 -0.00000000000E+00 -0.00000000000E+00 -0.10000000000E+04  0.10000000000E+04  0.00000000000E+00 0.  1.
    9000005    2    1    2  501    0 -0.15176015511E-03 -0.27057540415E-02 -0.89423875375E+03  0.11057609916E+04  0.65041865121E+03 0.  0.
         13    1    3    3    0    0  0.33736685205E+02  0.26064178862E+01 -0.99699896137E+03  0.99757299798E+03  0.00000000000E+00 0.  1.
          3    1    3    3  501    0 -0.33736836965E+02 -0.26091236402E+01  0.10276020762E+03  0.10818799362E+03  0.00000000000E+00 0.  1.
         21    1    1    2  502  501  0.15176015510E-03  0.27057540415E-02  0.14293116238E-01  0.14547759548E-01  0.00000000000E+00 0.  1.
<mgrwt>
<rscale>  1 0.65041865E+03</rscale>
<asrwt>0</asrwt>
<pdfrwt beam="1">  1        1 0.38463914E+00 0.65041865E+03</pdfrwt>
<pdfrwt beam="2">0</pdfrwt>
<totfact> 0.15652176E+00</totfact>
</mgrwt>
</event>
<event>
 6    1  0.1729631E-003  0.6724015E+03  0.7818608E-02  0.9765629E-01
          1   -1    0    0  502    0  0.00000000000E+00  0.00000000000E+00  0.11339039261E+03  0.11339039261E+03  0.00000000000E+00 0.  1.
         13   -1    0    0    0    0 -0.00000000000E+00 -0.00000000000E+00 -0.10000000000E+04  0.10000000000E+04  0.00000000000E+00 0.  1.
    9000005    2    1    2  501    0 -0.43840006256E-02 -0.76382332500E-01 -0.88696450491E+03  0.11130273420E+04  0.67240153574E+03 0.  0.
         13    1    3    3    0    0 -0.21915451763E+03  0.18869045809E+03 -0.15970456262E+03  0.33036092217E+03  0.00000000000E+00 0.  1.
          3    1    3    3  501    0  0.21915013363E+03 -0.18876684042E+03 -0.72725994229E+03  0.78266641986E+03  0.00000000000E+00 0.  1.
         21    1    1    2  502  501  0.43840006256E-02  0.76382332500E-01  0.35489752318E+00  0.36305059171E+00  0.00000000000E+00 0.  1.
<mgrwt>
<rscale>  1 0.67240154E+03</rscale>
<asrwt>0</asrwt>
<pdfrwt beam="1">  1        1 0.41232957E+00 0.67240154E+03</pdfrwt>
<pdfrwt beam="2">0</pdfrwt>
<totfact> 0.11732758E+00</totfact>
</mgrwt>
</event>
<event>
 6    1  0.1729631E-003  0.6561560E+03  0.7818608E-02  0.9795296E-01
          1   -1    0    0  502    0  0.00000000000E+00  0.00000000000E+00  0.10763735775E+03  0.10763735775E+03  0.00000000000E+00 0.  1.
         13   -1    0    0    0    0 -0.00000000000E+00 -0.00000000000E+00 -0.10000000000E+04  0.10000000000E+04  0.00000000000E+00 0.  1.
    9000005    2    1    2  501    0  0.68255402704E-03  0.16581615771E-02 -0.89236440667E+03  0.11076348421E+04  0.65615600974E+03 0.  0.
         13    1    3    3    0    0 -0.48408414106E+02  0.31997502172E+03 -0.35514831056E+03  0.48047654633E+03  0.00000000000E+00 0.  1.
          1    1    3    3  501    0  0.48409096660E+02 -0.31997336356E+03 -0.53721609610E+03  0.62715829576E+03  0.00000000000E+00 0.  1.
         21    1    1    2  502  501 -0.68255402704E-03 -0.16581615771E-02  0.17644141473E-02  0.25156583828E-02  0.00000000000E+00 0.  1.
<mgrwt>
<rscale>  1 0.65615601E+03</rscale>
<asrwt>0</asrwt>
<pdfrwt beam="1">  1        1 0.39140940E+00 0.65615601E+03</pdfrwt>
<pdfrwt beam="2">0</pdfrwt>
<totfact> 0.14592167E+00</totfact>
</mgrwt>
</event>
<event>
 6    1  0.1729631E-003  0.6482550E+03  0.7818608E-02  0.9810059E-01
          1   -1    0    0  502    0  0.00000000000E+00  0.00000000000E+00  0.11054593641E+03  0.11054593641E+03  0.00000000000E+00 0.  1.
         13   -1    0    0    0    0 -0.00000000000E+00 -0.00000000000E+00 -0.10000000000E+04  0.10000000000E+04  0.00000000000E+00 0.  1.
    9000005    2    1    2  501    0  0.28621979758E+01  0.12754845613E+01 -0.89444268736E+03  0.11046548070E+04  0.64824740856E+03 0.  0.
         13    1    3    3    0    0 -0.30905941710E+03  0.55832224656E+02 -0.31788130225E+03  0.44685957853E+03  0.00000000000E+00 0.  1.
          3    1    3    3  501    0  0.31192161508E+03 -0.54556740095E+02 -0.57656138511E+03  0.65779522851E+03  0.00000000000E+00 0.  1.
         21    1    1    2  502  501 -0.28621979758E+01 -0.12754845613E+01  0.49886237766E+01  0.58911293742E+01  0.00000000000E+00 0.  1.
<mgrwt>
<rscale>  1 0.64825498E+03</rscale>
<asrwt>0</asrwt>
<pdfrwt beam="1">  1        1 0.40198607E+00 0.64825498E+03</pdfrwt>
<pdfrwt beam="2">0</pdfrwt>
<totfact> 0.13113016E+00</totfact>
</mgrwt>
</event>
<event>
 6    1  0.1729631E-003  0.5575227E+03  0.7818608E-02  0.9997676E-01
          1   -1    0    0  502    0  0.00000000000E+00  0.00000000000E+00  0.77781643376E+02  0.77781643376E+02  0.00000000000E+00 0.  1.
         13   -1    0    0    0    0 -0.00000000000E+00 -0.00000000000E+00 -0.10000000000E+04  0.10000000000E+04  0.00000000000E+00 0.  1.
    9000005    2    1    2  501    0  0.10480154662E-01  0.20554999850E-03 -0.92229169867E+03  0.10777075561E+04  0.55752273392E+03 0.  0.
         13    1    3    3    0    0 -0.53308822270E+02  0.22626661025E+03 -0.16375313850E+03  0.28434749834E+03  0.00000000000E+00 0.  1.
          1    1    3    3  501    0  0.53319302424E+02 -0.22626640470E+03 -0.75853856017E+03  0.79336005771E+03  0.00000000000E+00 0.  1.
         21    1    1    2  502  501 -0.10480154662E-01 -0.20554999851E-03  0.73342044040E-01  0.74087322238E-01  0.00000000000E+00 0.  1.
<mgrwt>
<rscale>  1 0.55752273E+03</rscale>
<asrwt>0</asrwt>
<pdfrwt beam="1">  1        1 0.28284294E+00 0.55752273E+03</pdfrwt>
<pdfrwt beam="2">0</pdfrwt>
<totfact> 0.44082785E+00</totfact>
</mgrwt>
</event>
<event>
 6    1  0.1729631E-003  0.6588115E+03  0.7818608E-02  0.9790384E-01
          1   -1    0    0  502    0  0.00000000000E+00  0.00000000000E+00  0.10851057594E+03  0.10851057594E+03  0.00000000000E+00 0.  1.
         13   -1    0    0    0    0 -0.00000000000E+00 -0.00000000000E+00 -0.10000000000E+04  0.10000000000E+04  0.00000000000E+00 0.  1.
    9000005    2    1    2  501    0 -0.28543242195E-04 -0.51828082661E-04 -0.89149185392E+03  0.11085081454E+04  0.65881149257E+03 0.  0.
         13    1    3    3    0    0 -0.18022199610E+03 -0.23579204580E+03 -0.20524591811E+03  0.36083755853E+03  0.00000000000E+00 0.  1.
          3    1    3    3  501    0  0.18022196756E+03  0.23579199397E+03 -0.68624593581E+03  0.74767058684E+03  0.00000000000E+00 0.  1.
         21    1    1    2  502  501  0.28543242192E-04  0.51828082672E-04  0.24298579534E-02  0.24305782318E-02  0.00000000000E+00 0. -1.
<mgrwt>
<rscale>  1 0.65881149E+03</rscale>
<asrwt>0</asrwt>
<pdfrwt beam="1">  1        1 0.39458474E+00 0.65881149E+03</pdfrwt>
<pdfrwt beam="2">0</pdfrwt>
<totfact> 0.14118893E+00</totfact>
</mgrwt>
</event>
<event>
 6    1  0.1729631E-003  0.6424692E+03  0.7818608E-02  0.9821014E-01
          1   -1    0    0  502    0  0.00000000000E+00  0.00000000000E+00  0.10319175606E+03  0.10319175606E+03  0.00000000000E+00 0.  1.
         13   -1    0    0    0    0 -0.00000000000E+00 -0.00000000000E+00 -0.10000000000E+04  0.10000000000E+04  0.00000000000E+00 0.  1.
    9000005    2    1    2  501    0  0.54650558923E-05  0.59708160052E-05 -0.89680832720E+03  0.11031916724E+04  0.64246921354E+03 0.  0.
         13    1    3    3    0    0 -0.18383111193E+03  0.12005349668E+03 -0.85104755908E+03  0.87891334476E+03  0.00000000000E+00 0.  1.
          1    1    3    3  501    0  0.18383111740E+03 -0.12005349071E+03 -0.45760768116E+02  0.22427832765E+03  0.00000000000E+00 0.  1.
         21    1    1    2  502  501 -0.54650558904E-05 -0.59708160088E-05  0.83262913259E-04  0.83655425432E-04  0.00000000000E+00 0. -1.
<mgrwt>
<rscale>  1 0.64246921E+03</rscale>
<asrwt>0</asrwt>
<pdfrwt beam="1">  1        1 0.37524354E+00 0.64246921E+03</pdfrwt>
<pdfrwt beam="2">0</pdfrwt>
<totfact> 0.17245049E+00</totfact>
</mgrwt>
</event>
<event>
 6    1  0.1729631E-003  0.6448422E+03  0.7818608E-02  0.9816506E-01
          1   -1    0    0  502    0  0.00000000000E+00  0.00000000000E+00  0.10558055919E+03  0.10558055919E+03  0.00000000000E+00 0.  1.
         13   -1    0    0    0    0 -0.00000000000E+00 -0.00000000000E+00 -0.10000000000E+04  0.10000000000E+04  0.00000000000E+00 0.  1.
    9000005    2    1    2  501    0 -0.13137323205E+01  0.13816455342E+01 -0.89540351757E+03  0.11034350420E+04  0.64483935812E+03 0.  0.
         13    1    3    3    0    0 -0.19670628778E+03  0.25087854868E+03 -0.54156303500E+03  0.62842973411E+03  0.00000000000E+00 0.  1.
          1    1    3    3  501    0  0.19539255546E+03 -0.24949690314E+03 -0.35384048257E+03  0.47500530788E+03  0.00000000000E+00 0.  1.
         21    1    1    2  502  501  0.13137323205E+01 -0.13816455342E+01  0.98407675363E+00  0.21455171985E+01  0.00000000000E+00 0.  1.
<mgrwt>
<rscale>  1 0.64484218E+03</rscale>
<asrwt>0</asrwt>
<pdfrwt beam="1">  1        1 0.38393012E+00 0.64484218E+03</pdfrwt>
<pdfrwt beam="2">0</pdfrwt>
<totfact> 0.15781842E+00</totfact>
</mgrwt>
</event>
<event>
 6    1  0.1729631E-003  0.6107367E+03  0.7818608E-02  0.9883378E-01
          1   -1    0    0  502    0  0.00000000000E+00  0.00000000000E+00  0.93308031305E+02  0.93308031305E+02  0.00000000000E+00 0.  1.
         13   -1    0    0    0    0 -0.00000000000E+00 -0.00000000000E+00 -0.10000000000E+04  0.10000000000E+04  0.00000000000E+00 0.  1.
    9000005    2    1    2  501    0  0.10926814426E-01 -0.15865422181E-01 -0.90674841578E+03  0.10932483875E+04  0.61073672474E+03 0.  0.
         13    1    3    3    0    0  0.98011866564E+02  0.24811072373E+03 -0.18736750908E+03  0.32599362061E+03  0.00000000000E+00 0.  1.
          3    1    3    3  501    0 -0.98000939749E+02 -0.24812658915E+03 -0.71938090670E+03  0.76725476692E+03  0.00000000000E+00 0.  1.
         21    1    1    2  502  501 -0.10926814426E-01  0.15865422181E-01  0.56447083761E-01  0.59643777208E-01  0.00000000000E+00 0. -1.
<mgrwt>
<rscale>  1 0.61073673E+03</rscale>
<asrwt>0</asrwt>
<pdfrwt beam="1">  1        1 0.33930265E+00 0.61073673E+03</pdfrwt>
<pdfrwt beam="2">0</pdfrwt>
<totfact> 0.24900506E+00</totfact>
</mgrwt>
</event>
<event>
 6    1  0.1729631E-003  0.6496488E+03  0.7818608E-02  0.9807438E-01
          1   -1    0    0  502    0  0.00000000000E+00  0.00000000000E+00  0.10551090104E+03  0.10551090104E+03  0.00000000000E+00 0.  1.
         13   -1    0    0    0    0 -0.00000000000E+00 -0.00000000000E+00 -0.10000000000E+04  0.10000000000E+04  0.00000000000E+00 0.  1.
    9000005    2    1    2  501    0 -0.10754949130E-04  0.16960281783E-05 -0.89448910369E+03  0.11055108892E+04  0.64964880471E+03 0.  0.
         13    1    3    3    0    0  0.27156741367E+03 -0.10963203067E+03 -0.20813920809E+03  0.35929092983E+03  0.00000000000E+00 0.  1.
          1    1    3    3  501    0 -0.27156742442E+03  0.10963203237E+03 -0.68634989560E+03  0.74621995934E+03  0.00000000000E+00 0.  1.
         21    1    1    2  502  501  0.10754949128E-04 -0.16960281782E-05  0.47244382666E-05  0.11868688186E-04  0.00000000000E+00 0. -1.
<mgrwt>
<rscale>  1 0.64964880E+03</rscale>
<asrwt>0</asrwt>
<pdfrwt beam="1">  1        1 0.38367681E+00 0.64964880E+03</pdfrwt>
<pdfrwt beam="2">0</pdfrwt>
<totfact> 0.15808519E+00</totfact>
</mgrwt>
</event>
<event>
 6    1  0.1729631E-003  0.6515526E+03  0.7818608E-02  0.9803870E-01
          1   -1    0    0  502    0  0.00000000000E+00  0.00000000000E+00  0.10617326894E+03  0.10617326894E+03  0.00000000000E+00 0.  1.
         13   -1    0    0    0    0 -0.00000000000E+00 -0.00000000000E+00 -0.10000000000E+04  0.10000000000E+04  0.00000000000E+00 0.  1.
    9000005    2    1    2  501    0 -0.23880081160E-02 -0.12790720234E-02 -0.89386974860E+03  0.11061301662E+04  0.65155262035E+03 0.  0.
         13    1    3    3    0    0  0.30045204411E+03  0.12584718434E+03 -0.45459730971E+03  0.55925634428E+03  0.00000000000E+00 0.  1.
          1    1    3    3  501    0 -0.30045443212E+03 -0.12584846342E+03 -0.43927243889E+03  0.54687382191E+03  0.00000000000E+00 0.  1.
         21    1    1    2  502  501  0.23880081160E-02  0.12790720234E-02  0.43017542099E-01  0.43102755553E-01  0.00000000000E+00 0. -1.
<mgrwt>
<rscale>  1 0.65155262E+03</rscale>
<asrwt>0</asrwt>
<pdfrwt beam="1">  1        1 0.38608543E+00 0.65155262E+03</pdfrwt>
<pdfrwt beam="2">0</pdfrwt>
<totfact> 0.15420031E+00</totfact>
</mgrwt>
</event>
<event>
 6    1  0.1729631E-003  0.6505430E+03  0.7818608E-02  0.9805761E-01
          1   -1    0    0  502    0  0.00000000000E+00  0.00000000000E+00  0.10580222058E+03  0.10580222058E+03  0.00000000000E+00 0.  1.
         13   -1    0    0    0    0 -0.00000000000E+00 -0.00000000000E+00 -0.10000000000E+04  0.10000000000E+04  0.00000000000E+00 0.  1.
    9000005    2    1    2  501    0 -0.14425957213E-03  0.18841494489E-03 -0.89419841381E+03  0.11058015433E+04  0.65054304226E+03 0.  0.
         13    1    3    3    0    0  0.20912239395E+02 -0.30030267581E+03 -0.65654532253E+03  0.72226780309E+03  0.00000000000E+00 0.  1.
          3    1    3    3  501    0 -0.20912383655E+02  0.30030286423E+03 -0.23765309128E+03  0.38353374017E+03  0.00000000000E+00 0.  1.
         21    1    1    2  502  501  0.14425957213E-03 -0.18841494489E-03  0.63438834017E-03  0.67731793255E-03  0.00000000000E+00 0. -1.
<mgrwt>
<rscale>  1 0.65054304E+03</rscale>
<asrwt>0</asrwt>
<pdfrwt beam="1">  1        1 0.38473616E+00 0.65054304E+03</pdfrwt>
<pdfrwt beam="2">0</pdfrwt>
<totfact> 0.15636360E+00</totfact>
</mgrwt>
</event>
<event>
 6    1  0.1729631E-003  0.6561942E+03  0.7818608E-02  0.9795225E-01
          3   -1    0    0  502    0  0.00000000000E+00  0.00000000000E+00  0.10910828920E+03  0.10910828920E+03  0.00000000000E+00 0.  1.
         13   -1    0    0    0    0 -0.00000000000E+00 -0.00000000000E+00 -0.10000000000E+04  0.10000000000E+04  0.00000000000E+00 0.  1.
    9000005    2    1    2  501    0  0.34114744998E+01  0.27877494619E+01 -0.88403314946E+03  0.11009566287E+04  0.65617945655E+03 0.  0.
         13    1    3    3    0    0 -0.14296594648E+03  0.25588754312E+03 -0.19390858513E+03  0.35145161255E+03  0.00000000000E+00 0.  1.
          3    1    3    3  501    0  0.14637742098E+03 -0.25309979366E+03 -0.69012456433E+03  0.74950501613E+03  0.00000000000E+00 0.  1.
         21    1    1    2  502  501 -0.34114744998E+01 -0.27877494619E+01 -0.68585613427E+01  0.81516605067E+01  0.00000000000E+00 0. -1.
<mgrwt>
<rscale>  1 0.65619425E+03</rscale>
<asrwt>0</asrwt>
<pdfrwt beam="1">  1        3 0.39675825E+00 0.65619425E+03</pdfrwt>
<pdfrwt beam="2">0</pdfrwt>
<totfact> 0.61538144E-02</totfact>
</mgrwt>
</event>
<event>
 6    1  0.1729631E-003  0.6428817E+03  0.7818608E-02  0.9820229E-01
          1   -1    0    0  502    0  0.00000000000E+00  0.00000000000E+00  0.10332766410E+03  0.10332766410E+03  0.00000000000E+00 0.  1.
         13   -1    0    0    0    0 -0.00000000000E+00 -0.00000000000E+00 -0.10000000000E+04  0.10000000000E+04  0.00000000000E+00 0.  1.
    9000005    2    1    2  501    0  0.71175054025E-04 -0.27562578629E-03 -0.89667577224E+03  0.11033242160E+04  0.64288170379E+03 0.  0.
         13    1    3    3    0    0  0.29667372873E+02 -0.31152258167E+03 -0.32224768911E+03  0.44918820670E+03  0.00000000000E+00 0.  1.
          1    1    3    3  501    0 -0.29667301698E+02  0.31152230605E+03 -0.57442808313E+03  0.65413600929E+03  0.00000000000E+00 0.  1.
         21    1    1    2  502  501 -0.71175054026E-04  0.27562578628E-03  0.34363364364E-02  0.34481072441E-02  0.00000000000E+00 0. -1.
<mgrwt>
<rscale>  1 0.64288170E+03</rscale>
<asrwt>0</asrwt>
<pdfrwt beam="1">  1        1 0.37573775E+00 0.64288170E+03</pdfrwt>
<pdfrwt beam="2">0</pdfrwt>
<totfact> 0.17157568E+00</totfact>
</mgrwt>
</event>
<event>
 6    1  0.1729631E-003  0.5220754E+03  0.7818608E-02  0.1008172E+00
          1   -1    0    0  502    0  0.00000000000E+00  0.00000000000E+00  0.99254206691E+02  0.99254206691E+02  0.00000000000E+00 0.  1.
         13   -1    0    0    0    0 -0.00000000000E+00 -0.00000000000E+00 -0.10000000000E+04  0.10000000000E+04  0.00000000000E+00 0.  1.
    9000005    2    1    2  501    0  0.24032907837E+02 -0.11821056808E+02 -0.92562031142E+03  0.10627020564E+04  0.52138793774E+03 0.  0.
         13    1    3    3    0    0 -0.18558575369E+03 -0.14848939047E+03 -0.26341491694E+03  0.35479372813E+03  0.00000000000E+00 0.  1.
          3    1    3    3  501    0  0.20961866152E+03  0.13666833366E+03 -0.66220539448E+03  0.70790832822E+03  0.00000000000E+00 0.  1.
         21    1    1    2  502  501 -0.24032907837E+02  0.11821056808E+02  0.24874518112E+02  0.36552150340E+02  0.00000000000E+00 0. -1.
<mgrwt>
<rscale>  1 0.52207538E+03</rscale>
<asrwt>0</asrwt>
<pdfrwt beam="1">  1        1 0.36092515E+00 0.52207538E+03</pdfrwt>
<pdfrwt beam="2">0</pdfrwt>
<totfact> 0.20414216E+00</totfact>
</mgrwt>
</event>
<event>
 6    1  0.1729631E-003  0.6502128E+03  0.7818608E-02  0.9806380E-01
          1   -1    0    0  502    0  0.00000000000E+00  0.00000000000E+00  0.10571169165E+03  0.10571169165E+03  0.00000000000E+00 0.  1.
         13   -1    0    0    0    0 -0.00000000000E+00 -0.00000000000E+00 -0.10000000000E+04  0.10000000000E+04  0.00000000000E+00 0.  1.
    9000005    2    1    2  501    0 -0.13387981573E-02 -0.24968529225E-02 -0.89430569364E+03  0.11056940770E+04  0.65021282537E+03 0.  0.
         13    1    3    3    0    0 -0.19846991845E+03  0.60087134356E+02 -0.87293851464E+03  0.89723041778E+03  0.00000000000E+00 0.  1.
          3    1    3    3  501    0  0.19846857965E+03 -0.60089631209E+02 -0.21367179006E+02  0.20846365925E+03  0.00000000000E+00 0.  1.
         21    1    1    2  502  501  0.13387981573E-02  0.24968529225E-02  0.17385289855E-01  0.17614623424E-01  0.00000000000E+00 0.  1.
<mgrwt>
<rscale>  1 0.65021283E+03</rscale>
<asrwt>0</asrwt>
<pdfrwt beam="1">  1        1 0.38440696E+00 0.65021283E+03</pdfrwt>
<pdfrwt beam="2">0</pdfrwt>
<totfact> 0.15689819E+00</totfact>
</mgrwt>
</event>
<event>
 6    1  0.1729631E-003  0.6303715E+03  0.7818608E-02  0.9844324E-01
          1   -1    0    0  502    0  0.00000000000E+00  0.00000000000E+00  0.99672339870E+02  0.99672339870E+02  0.00000000000E+00 0.  1.
         13   -1    0    0    0    0 -0.00000000000E+00 -0.00000000000E+00 -0.10000000000E+04  0.10000000000E+04  0.00000000000E+00 0.  1.
    9000005    2    1    2  501    0  0.17066968434E-02 -0.51465366980E-01 -0.90065573413E+03  0.10993402493E+04  0.63037150131E+03 0.  0.
         13    1    3    3    0    0  0.13402535811E+03 -0.25874456224E+03 -0.65995319742E+03  0.72142204561E+03  0.00000000000E+00 0.  1.
          3    1    3    3  501    0 -0.13402365141E+03  0.25869309687E+03 -0.24070253671E+03  0.37791820370E+03  0.00000000000E+00 0.  1.
         21    1    1    2  502  501 -0.17066968434E-02  0.51465366980E-01  0.32807399798E+00  0.33209056741E+00  0.00000000000E+00 0. -1.
<mgrwt>
<rscale>  1 0.63037150E+03</rscale>
<asrwt>0</asrwt>
<pdfrwt beam="1">  1        1 0.36244564E+00 0.63037150E+03</pdfrwt>
<pdfrwt beam="2">0</pdfrwt>
<totfact> 0.19669782E+00</totfact>
</mgrwt>
</event>
<event>
 6    1  0.1729631E-003  0.6488209E+03  0.7818608E-02  0.9808994E-01
          1   -1    0    0  502    0  0.00000000000E+00  0.00000000000E+00  0.10541828054E+03  0.10541828054E+03  0.00000000000E+00 0.  1.
         13   -1    0    0    0    0 -0.00000000000E+00 -0.00000000000E+00 -0.10000000000E+04  0.10000000000E+04  0.00000000000E+00 0.  1.
    9000005    2    1    2  501    0 -0.47404684373E-02 -0.49693966453E-02 -0.89475777940E+03  0.11052420867E+04  0.64882092010E+03 0.  0.
         13    1    3    3    0    0  0.22489227117E+03  0.17504902737E+03 -0.18335724301E+03  0.33887840618E+03  0.00000000000E+00 0.  1.
          3    1    3    3  501    0 -0.22489701164E+03 -0.17505399676E+03 -0.71140053640E+03  0.76636368051E+03  0.00000000000E+00 0.  1.
         21    1    1    2  502  501  0.47404684373E-02  0.49693966453E-02  0.17605994795E+00  0.17619384841E+00  0.00000000000E+00 0. -1.
<mgrwt>
<rscale>  1 0.64882092E+03</rscale>
<asrwt>0</asrwt>
<pdfrwt beam="1">  1        1 0.38334001E+00 0.64882092E+03</pdfrwt>
<pdfrwt beam="2">0</pdfrwt>
<totfact> 0.15865220E+00</totfact>
</mgrwt>
</event>
<event>
 6    1  0.1729631E-003  0.6639392E+03  0.7818608E-02  0.9780969E-01
          1   -1    0    0  502    0  0.00000000000E+00  0.00000000000E+00  0.11318999278E+03  0.11318999278E+03  0.00000000000E+00 0.  1.
         13   -1    0    0    0    0 -0.00000000000E+00 -0.00000000000E+00 -0.10000000000E+04  0.10000000000E+04  0.00000000000E+00 0.  1.
    9000005    2    1    2  501    0 -0.11730386862E+01 -0.15074881527E+01 -0.88945315605E+03  0.11099288924E+04  0.66393642823E+03 0.  0.
         13    1    3    3    0    0  0.69112545381E+02 -0.25715588619E+03 -0.11265791843E+03  0.28913232320E+03  0.00000000000E+00 0.  1.
          3    1    3    3  501    0 -0.70285584067E+02  0.25564839804E+03 -0.77679523762E+03  0.82079656915E+03  0.00000000000E+00 0.  1.
         21    1    1    2  502  501  0.11730386862E+01  0.15074881527E+01  0.26431488328E+01  0.32611004342E+01  0.00000000000E+00 0. -1.
<mgrwt>
<rscale>  1 0.66393918E+03</rscale>
<asrwt>0</asrwt>
<pdfrwt beam="1">  1        1 0.41160084E+00 0.66393918E+03</pdfrwt>
<pdfrwt beam="2">0</pdfrwt>
<totfact> 0.11840531E+00</totfact>
</mgrwt>
</event>
<event>
 6    1  0.1729631E-003  0.6273616E+03  0.7818608E-02  0.9850211E-01
          1   -1    0    0  502    0  0.00000000000E+00  0.00000000000E+00  0.10506007750E+03  0.10506007750E+03  0.00000000000E+00 0.  1.
         13   -1    0    0    0    0 -0.00000000000E+00 -0.00000000000E+00 -0.10000000000E+04  0.10000000000E+04  0.00000000000E+00 0.  1.
    9000005    2    1    2  501    0 -0.46402927953E+01 -0.63271781244E+01 -0.89897386724E+03  0.10962374809E+04  0.62731254976E+03 0.  0.
         13    1    3    3    0    0 -0.28237519829E+03 -0.14444775055E+03 -0.45334217304E+03  0.55328115014E+03  0.00000000000E+00 0.  1.
          1    1    3    3  501    0  0.27773490549E+03  0.13812057242E+03 -0.44563169420E+03  0.54295633078E+03  0.00000000000E+00 0.  1.
         21    1    1    2  502  501  0.46402927953E+01  0.63271781244E+01  0.40339447381E+01  0.88225965789E+01  0.00000000000E+00 0. -1.
<mgrwt>
<rscale>  1 0.62736162E+03</rscale>
<asrwt>0</asrwt>
<pdfrwt beam="1">  1        1 0.38203745E+00 0.62736162E+03</pdfrwt>
<pdfrwt beam="2">0</pdfrwt>
<totfact> 0.16141381E+00</totfact>
</mgrwt>
</event>
<event>
 6    1  0.1729631E-003  0.6513726E+03  0.7818608E-02  0.9804207E-01
          1   -1    0    0  502    0  0.00000000000E+00  0.00000000000E+00  0.10607158923E+03  0.10607158923E+03  0.00000000000E+00 0.  1.
         13   -1    0    0    0    0 -0.00000000000E+00 -0.00000000000E+00 -0.10000000000E+04  0.10000000000E+04  0.00000000000E+00 0.  1.
    9000005    2    1    2  501    0 -0.37990120565E-05 -0.77017776334E-06 -0.89392843446E+03  0.11060715652E+04  0.65137259803E+03 0.  0.
         13    1    3    3    0    0 -0.17565065493E+01  0.22928032195E+03 -0.54204777609E+02  0.23560710784E+03  0.00000000000E+00 0.  1.
          1    1    3    3  501    0  0.17565027503E+01 -0.22928032272E+03 -0.83972365685E+03  0.87046445738E+03  0.00000000000E+00 0.  1.
         21    1    1    2  502  501  0.37990120565E-05  0.77017777206E-06  0.23692645296E-04  0.24007646856E-04  0.00000000000E+00 0.  1.
<mgrwt>
<rscale>  1 0.65137260E+03</rscale>
<asrwt>0</asrwt>
<pdfrwt beam="1">  1        1 0.38571568E+00 0.65137260E+03</pdfrwt>
<pdfrwt beam="2">0</pdfrwt>
<totfact> 0.15478752E+00</totfact>
</mgrwt>
</event>
<event>
 6    1  0.1729631E-003  0.6468229E+03  0.7818608E-02  0.9812759E-01
          1   -1    0    0  502    0  0.00000000000E+00  0.00000000000E+00  0.10459642737E+03  0.10459642737E+03  0.00000000000E+00 0.  1.
         13   -1    0    0    0    0 -0.00000000000E+00 -0.00000000000E+00 -0.10000000000E+04  0.10000000000E+04  0.00000000000E+00 0.  1.
    9000005    2    1    2  501    0  0.23977014215E-04 -0.75813466680E-04 -0.89540502265E+03  0.11045949752E+04  0.64682293140E+03 0.  0.
         13    1    3    3    0    0  0.23376575674E+01 -0.20849709017E+03 -0.86988867942E+03  0.89452938233E+03  0.00000000000E+00 0.  1.
          3    1    3    3  501    0 -0.23376335904E+01  0.20849701436E+03 -0.25516343224E+02  0.21006559285E+03  0.00000000000E+00 0.  1.
         21    1    1    2  502  501 -0.23977014215E-04  0.75813466688E-04  0.14500163585E-02  0.14521948970E-02  0.00000000000E+00 0. -1.
<mgrwt>
<rscale>  1 0.64682293E+03</rscale>
<asrwt>0</asrwt>
<pdfrwt beam="1">  1        1 0.38035145E+00 0.64682293E+03</pdfrwt>
<pdfrwt beam="2">0</pdfrwt>
<totfact> 0.16360782E+00</totfact>
</mgrwt>
</event>
<event>
 6    1  0.1729631E-003  0.6542023E+03  0.7818608E-02  0.9798926E-01
          1   -1    0    0  502    0  0.00000000000E+00  0.00000000000E+00  0.11526858058E+03  0.11526858058E+03  0.00000000000E+00 0.  1.
         13   -1    0    0    0    0 -0.00000000000E+00 -0.00000000000E+00 -0.10000000000E+04  0.10000000000E+04  0.00000000000E+00 0.  1.
    9000005    2    1    2  501    0 -0.24594333206E+00 -0.30162987209E+00 -0.89299978185E+03  0.11069910637E+04  0.65420215013E+03 0.  0.
         13    1    3    3    0    0 -0.16106431827E+03  0.26973959563E+03 -0.60012755712E+03  0.67738781276E+03  0.00000000000E+00 0.  1.
          1    1    3    3  501    0  0.16081837494E+03 -0.27004122550E+03 -0.29287222473E+03  0.42960325092E+03  0.00000000000E+00 0.  1.
         21    1    1    2  502  501  0.24594333206E+00  0.30162987209E+00  0.82683624224E+01  0.82775168892E+01  0.00000000000E+00 0. -1.
<mgrwt>
<rscale>  1 0.65420227E+03</rscale>
<asrwt>0</asrwt>
<pdfrwt beam="1">  1        1 0.41915936E+00 0.65420227E+03</pdfrwt>
<pdfrwt beam="2">0</pdfrwt>
<totfact> 0.10969514E+00</totfact>
</mgrwt>
</event>
<event>
 6    1  0.1729631E-003  0.6499512E+03  0.7818608E-02  0.9806871E-01
          1   -1    0    0  502    0  0.00000000000E+00  0.00000000000E+00  0.10575776120E+03  0.10575776120E+03  0.00000000000E+00 0.  1.
         13   -1    0    0    0    0 -0.00000000000E+00 -0.00000000000E+00 -0.10000000000E+04  0.10000000000E+04  0.00000000000E+00 0.  1.
    9000005    2    1    2  501    0  0.21267137819E-01 -0.17043172374E-01 -0.89438947839E+03  0.11056080206E+04  0.64995119458E+03 0.  0.
         13    1    3    3    0    0  0.99547789922E+02  0.16845722636E+03 -0.58310597399E+01  0.19575903772E+03  0.00000000000E+00 0.  1.
          1    1    3    3  501    0 -0.99526522784E+02 -0.16847426953E+03 -0.88855841865E+03  0.90984898285E+03  0.00000000000E+00 0.  1.
         21    1    1    2  502  501 -0.21267137819E-01  0.17043172374E-01  0.14723959539E+00  0.14974064020E+00  0.00000000000E+00 0.  1.
<mgrwt>
<rscale>  1 0.64995120E+03</rscale>
<asrwt>0</asrwt>
<pdfrwt beam="1">  1        1 0.38457449E+00 0.64995120E+03</pdfrwt>
<pdfrwt beam="2">0</pdfrwt>
<totfact> 0.15663834E+00</totfact>
</mgrwt>
</event>
<event>
 6    1  0.1729631E-003  0.6676565E+03  0.7818608E-02  0.9774201E-01
          1   -1    0    0  502    0  0.00000000000E+00  0.00000000000E+00  0.11145761583E+03  0.11145761583E+03  0.00000000000E+00 0.  1.
         13   -1    0    0    0    0 -0.00000000000E+00 -0.00000000000E+00 -0.10000000000E+04  0.10000000000E+04  0.00000000000E+00 0.  1.
    9000005    2    1    2  501    0  0.10772159544E-01 -0.52814016351E-03 -0.88855668866E+03  0.11114397011E+04  0.66765651361E+03 0.  0.
         13    1    3    3    0    0 -0.53189746553E+02 -0.29565209418E+03 -0.20188627851E+03  0.36193560116E+03  0.00000000000E+00 0.  1.
          1    1    3    3  501    0  0.53200518713E+02  0.29565156604E+03 -0.68667041015E+03  0.74950409997E+03  0.00000000000E+00 0.  1.
         21    1    1    2  502  501 -0.10772159544E-01  0.52814016356E-03  0.14304491572E-01  0.17914709945E-01  0.00000000000E+00 0. -1.
<mgrwt>
<rscale>  1 0.66765651E+03</rscale>
<asrwt>0</asrwt>
<pdfrwt beam="1">  1        1 0.40530128E+00 0.66765651E+03</pdfrwt>
<pdfrwt beam="2">0</pdfrwt>
<totfact> 0.12626820E+00</totfact>
</mgrwt>
</event>
<event>
 6    1  0.1729631E-003  0.6546793E+03  0.7818608E-02  0.9798038E-01
          1   -1    0    0  502    0  0.00000000000E+00  0.00000000000E+00  0.10715835680E+03  0.10715835680E+03  0.00000000000E+00 0.  1.
         13   -1    0    0    0    0 -0.00000000000E+00 -0.00000000000E+00 -0.10000000000E+04  0.10000000000E+04  0.00000000000E+00 0.  1.
    9000005    2    1    2  501    0 -0.11121057640E-01  0.14014776485E-01 -0.89283281744E+03  0.11071384072E+04  0.65467932036E+03 0.  0.
         13    1    3    3    0    0 -0.28888789077E+03  0.76203635477E+02 -0.22021798246E+03  0.37115922094E+03  0.00000000000E+00 0.  1.
          3    1    3    3  501    0  0.28887676972E+03 -0.76189620701E+02 -0.67261483498E+03  0.73597918627E+03  0.00000000000E+00 0.  1.
         21    1    1    2  502  501  0.11121057640E-01 -0.14014776485E-01 -0.88257657792E-02  0.19949587077E-01  0.00000000000E+00 0. -1.
<mgrwt>
<rscale>  1 0.65467932E+03</rscale>
<asrwt>0</asrwt>
<pdfrwt beam="1">  1        1 0.38966757E+00 0.65467932E+03</pdfrwt>
<pdfrwt beam="2">0</pdfrwt>
<totfact> 0.14858180E+00</totfact>
</mgrwt>
</event>
<event>
 6    1  0.1729631E-003  0.6478008E+03  0.7818608E-02  0.9810915E-01
          1   -1    0    0  502    0  0.00000000000E+00  0.00000000000E+00  0.10590412468E+03  0.10590412468E+03  0.00000000000E+00 0.  1.
         13   -1    0    0    0    0 -0.00000000000E+00 -0.00000000000E+00 -0.10000000000E+04  0.10000000000E+04  0.00000000000E+00 0.  1.
    9000005    2    1    2  501    0  0.52644110023E-01  0.93566322978E-01 -0.89508532440E+03  0.11049088682E+04  0.64780078532E+03 0.  0.
         13    1    3    3    0    0  0.36935750630E+02 -0.30498613994E+03 -0.62229497934E+03  0.69399700038E+03  0.00000000000E+00 0.  1.
          3    1    3    3  501    0 -0.36883106520E+02  0.30507970627E+03 -0.27279034506E+03  0.41091186778E+03  0.00000000000E+00 0.  1.
         21    1    1    2  502  501 -0.52644110023E-01 -0.93566322978E-01  0.98944908251E+00  0.99525652271E+00  0.00000000000E+00 0.  1.
<mgrwt>
<rscale>  1 0.64780079E+03</rscale>
<asrwt>0</asrwt>
<pdfrwt beam="1">  1        1 0.38510672E+00 0.64780079E+03</pdfrwt>
<pdfrwt beam="2">0</pdfrwt>
<totfact> 0.15585364E+00</totfact>
</mgrwt>
</event>
<event>
 6    1  0.1729631E-003  0.6361490E+03  0.7818608E-02  0.9833122E-01
          1   -1    0    0  502    0  0.00000000000E+00  0.00000000000E+00  0.10117144490E+03  0.10117144490E+03  0.00000000000E+00 0.  1.
         13   -1    0    0    0    0 -0.00000000000E+00 -0.00000000000E+00 -0.10000000000E+04  0.10000000000E+04  0.00000000000E+00 0.  1.
    9000005    2    1    2  501    0  0.72872499082E-04 -0.17333118649E-04 -0.89882856397E+03  0.11011713695E+04  0.63614903720E+03 0.  0.
         13    1    3    3    0    0 -0.26575180662E+02 -0.31089669711E+03 -0.55623800443E+03  0.63778030236E+03  0.00000000000E+00 0.  1.
          3    1    3    3  501    0  0.26575253534E+02  0.31089667977E+03 -0.34259055954E+03  0.46339106711E+03  0.00000000000E+00 0.  1.
         21    1    1    2  502  501 -0.72872499085E-04  0.17333118683E-04  0.88698491261E-05  0.75428856214E-04  0.00000000000E+00 0.  1.
<mgrwt>
<rscale>  1 0.63614904E+03</rscale>
<asrwt>0</asrwt>
<pdfrwt beam="1">  1        1 0.36789694E+00 0.63614904E+03</pdfrwt>
<pdfrwt beam="2">0</pdfrwt>
<totfact> 0.18597441E+00</totfact>
</mgrwt>
</event>
<event>
 6    1  0.1729631E-003  0.6525126E+03  0.7818608E-02  0.9802076E-01
          1   -1    0    0  502    0  0.00000000000E+00  0.00000000000E+00  0.10645577027E+03  0.10645577027E+03  0.00000000000E+00 0.  1.
         13   -1    0    0    0    0 -0.00000000000E+00 -0.00000000000E+00 -0.10000000000E+04  0.10000000000E+04  0.00000000000E+00 0.  1.
    9000005    2    1    2  501    0 -0.11675710410E-02 -0.89670241280E-03 -0.89355676283E+03  0.11064431510E+04  0.65251264968E+03 0.  0.
         13    1    3    3    0    0 -0.19488628792E+03 -0.20856779631E+03 -0.17887262650E+03  0.33686289108E+03  0.00000000000E+00 0.  1.
          1    1    3    3  501    0  0.19488512035E+03  0.20856689960E+03 -0.71468413633E+03  0.76958025992E+03  0.00000000000E+00 0.  1.
         21    1    1    2  502  501  0.11675710410E-02  0.89670241279E-03  0.12533098904E-01  0.12619265647E-01  0.00000000000E+00 0.  1.
<mgrwt>
<rscale>  1 0.65251265E+03</rscale>
<asrwt>0</asrwt>
<pdfrwt beam="1">  1        1 0.38711271E+00 0.65251265E+03</pdfrwt>
<pdfrwt beam="2">0</pdfrwt>
<totfact> 0.15256697E+00</totfact>
</mgrwt>
</event>
<event>
 6    1  0.1729631E-003  0.6463054E+03  0.7818608E-02  0.9813737E-01
          3   -1    0    0  502    0  0.00000000000E+00  0.00000000000E+00  0.10727343328E+03  0.10727343328E+03  0.00000000000E+00 0.  1.
         13   -1    0    0    0    0 -0.00000000000E+00 -0.00000000000E+00 -0.10000000000E+04  0.10000000000E+04  0.00000000000E+00 0.  1.
    9000005    2    1    2  501    0  0.23396945551E+01 -0.32891830726E+01 -0.89389805968E+03  0.11030704234E+04  0.64629275494E+03 0.  0.
         13    1    3    3    0    0  0.60318200453E+02  0.75690564852E+02  0.79195408785E+02  0.12505702574E+03  0.00000000000E+00 0.  1.
          1    1    3    3  501    0 -0.57978505898E+02 -0.78979747925E+02 -0.97309346847E+03  0.97801339771E+03  0.00000000000E+00 0.  1.
         21    1    1    2  502  501 -0.23396945551E+01  0.32891830726E+01  0.11714929654E+01  0.42030098339E+01  0.00000000000E+00 0. -1.
<mgrwt>
<rscale>  1 0.64630536E+03</rscale>
<asrwt>0</asrwt>
<pdfrwt beam="1">  1        3 0.39008603E+00 0.64630536E+03</pdfrwt>
<pdfrwt beam="2">0</pdfrwt>
<totfact> 0.66823014E-02</totfact>
</mgrwt>
</event>
<event>
 6    1  0.1729631E-003  0.6496635E+03  0.7818608E-02  0.9807411E-01
          1   -1    0    0  502    0  0.00000000000E+00  0.00000000000E+00  0.10664406961E+03  0.10664406961E+03  0.00000000000E+00 0.  1.
         13   -1    0    0    0    0 -0.00000000000E+00 -0.00000000000E+00 -0.10000000000E+04  0.10000000000E+04  0.00000000000E+00 0.  1.
    9000005    2    1    2  501    0  0.76720262295E-01 -0.39837124273E+00 -0.89444387590E+03  0.11054829447E+04  0.64966339692E+03 0.  0.
         13    1    3    3    0    0  0.24976937888E+03 -0.20428090979E+03 -0.38151531507E+03  0.49966925898E+03  0.00000000000E+00 0.  1.
          3    1    3    3  501    0 -0.24969265862E+03  0.20388253855E+03 -0.51292856082E+03  0.60581368572E+03  0.00000000000E+00 0.  1.
         21    1    1    2  502  501 -0.76720262295E-01  0.39837124273E+00  0.10879455099E+01  0.11611249193E+01  0.00000000000E+00 0.  1.
<mgrwt>
<rscale>  1 0.64966352E+03</rscale>
<asrwt>0</asrwt>
<pdfrwt beam="1">  1        1 0.38779743E+00 0.64966352E+03</pdfrwt>
<pdfrwt beam="2">0</pdfrwt>
<totfact> 0.15158545E+00</totfact>
</mgrwt>
</event>
<event>
 6    1  0.2445595E-003  0.6523564E+03  0.7818608E-02  0.9802368E-01
          1   -1    0    0  502    0  0.00000000000E+00  0.00000000000E+00  0.10639223643E+03  0.10639223643E+03  0.00000000000E+00 0.  1.
         13   -1    0    0    0    0 -0.00000000000E+00 -0.00000000000E+00 -0.10000000000E+04  0.10000000000E+04  0.00000000000E+00 0.  1.
    9000005    2    1    2  501    0  0.10417418679E-05 -0.15299573306E-05 -0.89360777212E+03  0.11063922277E+04  0.65235642947E+03 0.  0.
         13    1    3    3    0    0  0.11629664016E+03 -0.96601854598E+02 -0.93698824686E+03  0.94910684414E+03  0.00000000000E+00 0.  1.
          3    1    3    3  501    0 -0.11629663912E+03  0.96601853068E+02  0.43380474740E+02  0.15728538354E+03  0.00000000000E+00 0.  1.
         21    1    1    2  502  501 -0.10417418727E-05  0.15299573432E-05  0.85490361261E-05  0.87471146263E-05  0.00000000000E+00 0.  1.
<mgrwt>
<rscale>  1 0.65235643E+03</rscale>
<asrwt>0</asrwt>
<pdfrwt beam="1">  1        1 0.38688168E+00 0.65235643E+03</pdfrwt>
<pdfrwt beam="2">0</pdfrwt>
<totfact> 0.15293118E+00</totfact>
</mgrwt>
</event>
<event>
 6    1  0.2900805E-003  0.6483075E+03  0.7818608E-02  0.9809960E-01
          1   -1    0    0  502    0  0.00000000000E+00  0.00000000000E+00  0.10507566989E+03  0.10507566989E+03  0.00000000000E+00 0.  1.
         13   -1    0    0    0    0 -0.00000000000E+00 -0.00000000000E+00 -0.10000000000E+04  0.10000000000E+04  0.00000000000E+00 0.  1.
    9000005    2    1    2  501    0 -0.12104569578E-05 -0.74136505646E-06 -0.89492433310E+03  0.11050756666E+04  0.64830754036E+03 0.  0.
         13    1    3    3    0    0 -0.28041517792E+03 -0.73484936941E+02 -0.69472813656E+03  0.75278143687E+03  0.00000000000E+00 0.  1.
          3    1    3    3  501    0  0.28041517671E+03  0.73484936200E+02 -0.20019619654E+03  0.35229422971E+03  0.00000000000E+00 0.  1.
         21    1    1    2  502  501  0.12104569550E-05  0.74136506456E-06  0.29941521794E-05  0.33135744253E-05  0.00000000000E+00 0.  1.
<mgrwt>
<rscale>  1 0.64830754E+03</rscale>
<asrwt>0</asrwt>
<pdfrwt beam="1">  1        1 0.38209415E+00 0.64830754E+03</pdfrwt>
<pdfrwt beam="2">0</pdfrwt>
<totfact> 0.16069101E+00</totfact>
</mgrwt>
</event>
<event>
 6    1  0.1729631E-003  0.6536137E+03  0.7818608E-02  0.9800022E-01
          3   -1    0    0  502    0  0.00000000000E+00  0.00000000000E+00  0.10681454444E+03  0.10681454444E+03  0.00000000000E+00 0.  1.
         13   -1    0    0    0    0 -0.00000000000E+00 -0.00000000000E+00 -0.10000000000E+04  0.10000000000E+04  0.00000000000E+00 0.  1.
    9000005    2    1    2  501    0  0.32530687037E-03 -0.28929580537E-03 -0.89319727052E+03  0.11068027215E+04  0.65361372399E+03 0.  0.
         13    1    3    3    0    0 -0.20647525268E+03  0.19335248481E+03 -0.16945913161E+03  0.32974779853E+03  0.00000000000E+00 0.  1.
          3    1    3    3  501    0  0.20647557798E+03 -0.19335277410E+03 -0.72373813890E+03  0.77705492294E+03  0.00000000000E+00 0.  1.
         21    1    1    2  502  501 -0.32530687038E-03  0.28929580539E-03  0.11814959862E-01  0.11822977340E-01  0.00000000000E+00 0.  1.
<mgrwt>
<rscale>  1 0.65361372E+03</rscale>
<asrwt>0</asrwt>
<pdfrwt beam="1">  1        3 0.38841734E+00 0.65361372E+03</pdfrwt>
<pdfrwt beam="2">0</pdfrwt>
<totfact> 0.68104262E-02</totfact>
</mgrwt>
</event>
<event>
 6    1  0.1729631E-003  0.6526437E+03  0.7818608E-02  0.9801831E-01
          1   -1    0    0  502    0  0.00000000000E+00  0.00000000000E+00  0.10659729377E+03  0.10659729377E+03  0.00000000000E+00 0.  1.
         13   -1    0    0    0    0 -0.00000000000E+00 -0.00000000000E+00 -0.10000000000E+04  0.10000000000E+04  0.00000000000E+00 0.  1.
    9000005    2    1    2  501    0  0.57285536264E-02  0.31423025461E-02 -0.89351394666E+03  0.11064858616E+04  0.65264369225E+03 0.  0.
         13    1    3    3    0    0  0.22462542779E+02 -0.31277384647E+03 -0.59983915625E+03  0.67685970351E+03  0.00000000000E+00 0.  1.
          1    1    3    3  501    0 -0.22456814225E+02  0.31277698877E+03 -0.29367479041E+03  0.42962615811E+03  0.00000000000E+00 0.  1.
         21    1    1    2  502  501 -0.57285536264E-02 -0.31423025461E-02  0.11124043092E+00  0.11143214915E+00  0.00000000000E+00 0. -1.
<mgrwt>
<rscale>  1 0.65264369E+03</rscale>
<asrwt>0</asrwt>
<pdfrwt beam="1">  1        1 0.38762734E+00 0.65264369E+03</pdfrwt>
<pdfrwt beam="2">0</pdfrwt>
<totfact> 0.15176473E+00</totfact>
</mgrwt>
</event>
<event>
 6    1  0.1729631E-003  0.6471690E+03  0.7818608E-02  0.9812106E-01
          1   -1    0    0  502    0  0.00000000000E+00  0.00000000000E+00  0.10470716957E+03  0.10470716957E+03  0.00000000000E+00 0.  1.
         13   -1    0    0    0    0 -0.00000000000E+00 -0.00000000000E+00 -0.10000000000E+04  0.10000000000E+04  0.00000000000E+00 0.  1.
    9000005    2    1    2  501    0 -0.31601488374E-04  0.95958607886E-05 -0.89529306676E+03  0.11047069309E+04  0.64716901031E+03 0.  0.
         13    1    3    3    0    0  0.36097966501E+02 -0.10682281667E+03  0.70086858694E+02  0.13276424635E+03  0.00000000000E+00 0.  1.
          1    1    3    3  501    0 -0.36097998102E+02  0.10682282627E+03 -0.96537992545E+03  0.97194268460E+03  0.00000000000E+00 0.  1.
         21    1    1    2  502  501  0.31601488376E-04 -0.95958607868E-05  0.23632652583E-03  0.23862305300E-03  0.00000000000E+00 0. -1.
<mgrwt>
<rscale>  1 0.64716901E+03</rscale>
<asrwt>0</asrwt>
<pdfrwt beam="1">  1        1 0.38075415E+00 0.64716901E+03</pdfrwt>
<pdfrwt beam="2">0</pdfrwt>
<totfact> 0.16292928E+00</totfact>
</mgrwt>
</event>
<event>
 6    1  0.1729631E-003  0.5242554E+03  0.7818608E-02  0.1007635E+00
          1   -1    0    0  502    0  0.00000000000E+00  0.00000000000E+00  0.68725066814E+02  0.68725066814E+02  0.00000000000E+00 0.  1.
         13   -1    0    0    0    0 -0.00000000000E+00 -0.00000000000E+00 -0.10000000000E+04  0.10000000000E+04  0.00000000000E+00 0.  1.
    9000005    2    1    2  501    0  0.34569448252E-03 -0.21746948834E-03 -0.93128905737E+03  0.10687109367E+04  0.52425543191E+03 0.  0.
         13    1    3    3    0    0 -0.13088819494E+03 -0.60301809112E+02 -0.91199835965E+03  0.92331415876E+03  0.00000000000E+00 0.  1.
          1    1    3    3  501    0  0.13088854063E+03  0.60301591643E+02 -0.19290697721E+02  0.14539677797E+03  0.00000000000E+00 0.  1.
         21    1    1    2  502  501 -0.34569448253E-03  0.21746948834E-03  0.14124186719E-01  0.14130090167E-01  0.00000000000E+00 0.  1.
<mgrwt>
<rscale>  1 0.52425543E+03</rscale>
<asrwt>0</asrwt>
<pdfrwt beam="1">  1        1 0.24990986E+00 0.52425543E+03</pdfrwt>
<pdfrwt beam="2">0</pdfrwt>
<totfact> 0.61563375E+00</totfact>
</mgrwt>
</event>
<event>
 6    1  0.1729631E-003  0.6406680E+03  0.7818608E-02  0.9824449E-01
          1   -1    0    0  502    0  0.00000000000E+00  0.00000000000E+00  0.10704328174E+03  0.10704328174E+03  0.00000000000E+00 0.  1.
         13   -1    0    0    0    0 -0.00000000000E+00 -0.00000000000E+00 -0.10000000000E+04  0.10000000000E+04  0.00000000000E+00 0.  1.
    9000005    2    1    2  501    0 -0.75226209594E+00  0.40383761660E-01 -0.89735078379E+03  0.11025851049E+04  0.64066755558E+03 0.  0.
         13    1    3    3    0    0 -0.31172966533E+03  0.70731656152E+02 -0.49383120863E+03  0.58825811855E+03  0.00000000000E+00 0.  1.
          1    1    3    3  501    0  0.31097740323E+03 -0.70691272390E+02 -0.40351957517E+03  0.51432698632E+03  0.00000000000E+00 0.  1.
         21    1    1    2  502  501  0.75226209594E+00 -0.40383761660E-01  0.43940655287E+01  0.44581768672E+01  0.00000000000E+00 0.  1.
<mgrwt>
<rscale>  1 0.64066800E+03</rscale>
<asrwt>0</asrwt>
<pdfrwt beam="1">  1        1 0.38924912E+00 0.64066800E+03</pdfrwt>
<pdfrwt beam="2">0</pdfrwt>
<totfact> 0.14960919E+00</totfact>
</mgrwt>
</event>
<event>
 6    1  0.1729631E-003  0.6313988E+03  0.7818608E-02  0.9842323E-01
          1   -1    0    0  502    0  0.00000000000E+00  0.00000000000E+00  0.99668514765E+02  0.99668514765E+02  0.00000000000E+00 0.  1.
         13   -1    0    0    0    0 -0.00000000000E+00 -0.00000000000E+00 -0.10000000000E+04  0.10000000000E+04  0.00000000000E+00 0.  1.
    9000005    2    1    2  501    0 -0.95572943676E-03  0.41204792768E-03 -0.90033375304E+03  0.10996660195E+04  0.63139883408E+03 0.  0.
         13    1    3    3    0    0 -0.75301744431E+01 -0.21819056042E+03 -0.84732892934E+03  0.87500293638E+03  0.00000000000E+00 0.  1.
          1    1    3    3  501    0  0.75292187136E+01  0.21819097247E+03 -0.53004823700E+02  0.22466308316E+03  0.00000000000E+00 0.  1.
         21    1    1    2  502  501  0.95572943676E-03 -0.41204792769E-03  0.22678027745E-02  0.24952217687E-02  0.00000000000E+00 0.  1.
<mgrwt>
<rscale>  1 0.63139883E+03</rscale>
<asrwt>0</asrwt>
<pdfrwt beam="1">  1        1 0.36243173E+00 0.63139883E+03</pdfrwt>
<pdfrwt beam="2">0</pdfrwt>
<totfact> 0.19668883E+00</totfact>
</mgrwt>
</event>
<event>
 6    1  0.1729631E-003  0.6518853E+03  0.7818608E-02  0.9803248E-01
          1   -1    0    0  502    0  0.00000000000E+00  0.00000000000E+00  0.10623952440E+03  0.10623952440E+03  0.00000000000E+00 0.  1.
         13   -1    0    0    0    0 -0.00000000000E+00 -0.00000000000E+00 -0.10000000000E+04  0.10000000000E+04  0.00000000000E+00 0.  1.
    9000005    2    1    2  501    0  0.35518329582E-04  0.50996027937E-04 -0.89376139988E+03  0.11062385980E+04  0.65188526280E+03 0.  0.
         13    1    3    3    0    0  0.14924131674E+03  0.16051821163E+03 -0.85627092730E+03  0.88387723572E+03  0.00000000000E+00 0.  1.
          3    1    3    3  501    0 -0.14924128122E+03 -0.16051816064E+03 -0.37490472587E+02  0.22236136231E+03  0.00000000000E+00 0.  1.
         21    1    1    2  502  501 -0.35518329574E-04 -0.50996027958E-04  0.92427768404E-03  0.92636460631E-03  0.00000000000E+00 0.  1.
<mgrwt>
<rscale>  1 0.65188526E+03</rscale>
<asrwt>0</asrwt>
<pdfrwt beam="1">  1        1 0.38632636E+00 0.65188526E+03</pdfrwt>
<pdfrwt beam="2">0</pdfrwt>
<totfact> 0.15381270E+00</totfact>
</mgrwt>
</event>
<event>
 6    1  0.1729631E-003  0.6436272E+03  0.7818608E-02  0.9818811E-01
          1   -1    0    0  502    0  0.00000000000E+00  0.00000000000E+00  0.10356400841E+03  0.10356400841E+03  0.00000000000E+00 0.  1.
         13   -1    0    0    0    0 -0.00000000000E+00 -0.00000000000E+00 -0.10000000000E+04  0.10000000000E+04  0.00000000000E+00 0.  1.
    9000005    2    1    2  501    0 -0.28600510287E-04  0.51052807635E-05 -0.89643600325E+03  0.11035639771E+04  0.64362717751E+03 0.  0.
         13    1    3    3    0    0 -0.28605920446E+02 -0.14232402020E+03 -0.94066856291E+03  0.95180448132E+03  0.00000000000E+00 0.  1.
          3    1    3    3  501    0  0.28605891846E+02  0.14232402531E+03  0.44232559657E+02  0.15175949579E+03  0.00000000000E+00 0.  1.
         21    1    1    2  502  501  0.28600510285E-04 -0.51052807543E-05  0.11660314173E-04  0.31305207343E-04  0.00000000000E+00 0. -1.
<mgrwt>
<rscale>  1 0.64362718E+03</rscale>
<asrwt>0</asrwt>
<pdfrwt beam="1">  1        1 0.37659719E+00 0.64362718E+03</pdfrwt>
<pdfrwt beam="2">0</pdfrwt>
<totfact> 0.17006359E+00</totfact>
</mgrwt>
</event>
<event>
 6    1  0.1729631E-003  0.5971215E+03  0.7818608E-02  0.9911396E-01
          1   -1    0    0  502    0  0.00000000000E+00  0.00000000000E+00  0.89138902468E+02  0.89138902468E+02  0.00000000000E+00 0.  1.
         13   -1    0    0    0    0 -0.00000000000E+00 -0.00000000000E+00 -0.10000000000E+04  0.10000000000E+04  0.00000000000E+00 0.  1.
    9000005    2    1    2  501    0 -0.11238961761E-04 -0.12480114762E-03 -0.91086146128E+03  0.10891385177E+04  0.59712151962E+03 0.  0.
         13    1    3    3    0    0 -0.12450175718E+03 -0.24907047492E+03 -0.25896701610E+03  0.38026399310E+03  0.00000000000E+00 0.  1.
          3    1    3    3  501    0  0.12450174594E+03  0.24907035012E+03 -0.65189444517E+03  0.70887452465E+03  0.00000000000E+00 0.  1.
         21    1    1    2  502  501  0.11238961752E-04  0.12480114762E-03  0.36374497239E-03  0.38472333650E-03  0.00000000000E+00 0.  1.
<mgrwt>
<rscale>  1 0.59712152E+03</rscale>
<asrwt>0</asrwt>
<pdfrwt beam="1">  1        1 0.32414215E+00 0.59712152E+03</pdfrwt>
<pdfrwt beam="2">0</pdfrwt>
<totfact> 0.29037121E+00</totfact>
</mgrwt>
</event>
<event>
 6    1  0.1729631E-003  0.6379158E+03  0.7818608E-02  0.9829722E-01
          1   -1    0    0  502    0  0.00000000000E+00  0.00000000000E+00  0.10173527169E+03  0.10173527169E+03  0.00000000000E+00 0.  1.
         13   -1    0    0    0    0 -0.00000000000E+00 -0.00000000000E+00 -0.10000000000E+04  0.10000000000E+04  0.00000000000E+00 0.  1.
    9000005    2    1    2  501    0  0.19907355806E-04 -0.10277770708E-03 -0.89826585529E+03  0.11017341399E+04  0.63791580019E+03 0.  0.
         13    1    3    3    0    0  0.25245835546E+03 -0.49437337902E+02 -0.12347396868E+03  0.28535082365E+03  0.00000000000E+00 0.  1.
          3    1    3    3  501    0 -0.25245833555E+03  0.49437235124E+02 -0.77479188662E+03  0.81638331620E+03  0.00000000000E+00 0.  1.
         21    1    1    2  502  501 -0.19907355798E-04  0.10277770709E-03  0.11269832342E-02  0.11318351338E-02  0.00000000000E+00 0. -1.
<mgrwt>
<rscale>  1 0.63791580E+03</rscale>
<asrwt>0</asrwt>
<pdfrwt beam="1">  1        1 0.36994722E+00 0.63791580E+03</pdfrwt>
<pdfrwt beam="2">0</pdfrwt>
<totfact> 0.18210142E+00</totfact>
</mgrwt>
</event>
<event>
 6    1  0.1729631E-003  0.6482714E+03  0.7818608E-02  0.9810028E-01
          1   -1    0    0  502    0  0.00000000000E+00  0.00000000000E+00  0.10568232473E+03  0.10568232473E+03  0.00000000000E+00 0.  1.
         13   -1    0    0    0    0 -0.00000000000E+00 -0.00000000000E+00 -0.10000000000E+04  0.10000000000E+04  0.00000000000E+00 0.  1.
    9000005    2    1    2  501    0  0.95960217974E-01 -0.96277830681E-01 -0.89492779780E+03  0.11050572429E+04  0.64827133853E+03 0.  0.
         13    1    3    3    0    0 -0.26217866577E+03 -0.14636460410E+03 -0.65546427324E+03  0.72096717236E+03  0.00000000000E+00 0.  1.
          1    1    3    3  501    0  0.26227462599E+03  0.14626832627E+03 -0.23946352455E+03  0.38409007055E+03  0.00000000000E+00 0.  1.
         21    1    1    2  502  501 -0.95960217974E-01  0.96277830681E-01  0.61012252662E+00  0.62508181993E+00  0.00000000000E+00 0.  1.
<mgrwt>
<rscale>  1 0.64827135E+03</rscale>
<asrwt>0</asrwt>
<pdfrwt beam="1">  1        1 0.38430017E+00 0.64827135E+03</pdfrwt>
<pdfrwt beam="2">0</pdfrwt>
<totfact> 0.15712520E+00</totfact>
</mgrwt>
</event>
<event>
 6    1  0.1729631E-003  0.6423918E+03  0.7818608E-02  0.9821161E-01
          1   -1    0    0  502    0  0.00000000000E+00  0.00000000000E+00  0.10317610802E+03  0.10317610802E+03  0.00000000000E+00 0.  1.
         13   -1    0    0    0    0 -0.00000000000E+00 -0.00000000000E+00 -0.10000000000E+04  0.10000000000E+04  0.00000000000E+00 0.  1.
    9000005    2    1    2  501    0  0.25632751774E-02  0.29239802519E-02 -0.89683274140E+03  0.11031664420E+04  0.64239180618E+03 0.  0.
         13    1    3    3    0    0 -0.85035687972E+02  0.30972101449E+03 -0.44317502377E+03  0.54732282681E+03  0.00000000000E+00 0.  1.
          1    1    3    3  501    0  0.85038251247E+02 -0.30971809051E+03 -0.45365771763E+03  0.55584361517E+03  0.00000000000E+00 0.  1.
         21    1    1    2  502  501 -0.25632751774E-02 -0.29239802519E-02  0.88494259564E-02  0.96660426187E-02  0.00000000000E+00 0. -1.
<mgrwt>
<rscale>  1 0.64239181E+03</rscale>
<asrwt>0</asrwt>
<pdfrwt beam="1">  1        1 0.37518664E+00 0.64239181E+03</pdfrwt>
<pdfrwt beam="2">0</pdfrwt>
<totfact> 0.17255243E+00</totfact>
</mgrwt>
</event>
<event>
 6    1  0.1729631E-003  0.6346102E+03  0.7818608E-02  0.9836093E-01
          1   -1    0    0  502    0  0.00000000000E+00  0.00000000000E+00  0.10070013467E+03  0.10070013467E+03  0.00000000000E+00 0.  1.
         13   -1    0    0    0    0 -0.00000000000E+00 -0.00000000000E+00 -0.10000000000E+04  0.10000000000E+04  0.00000000000E+00 0.  1.
    9000005    2    1    2  501    0  0.72504982143E-05  0.31323569726E-03 -0.89931746128E+03  0.11006825359E+04  0.63461023373E+03 0.  0.
         13    1    3    3    0    0  0.16677967930E+03  0.23771915371E+03 -0.67148037218E+03  0.73158167534E+03  0.00000000000E+00 0.  1.
          1    1    3    3  501    0 -0.16677967205E+03 -0.23771884047E+03 -0.22783708910E+03  0.36910086060E+03  0.00000000000E+00 0.  1.
         21    1    1    2  502  501 -0.72504982053E-05 -0.31323569727E-03  0.17595949868E-01  0.17598739186E-01  0.00000000000E+00 0. -1.
<mgrwt>
<rscale>  1 0.63461023E+03</rscale>
<asrwt>0</asrwt>
<pdfrwt beam="1">  1        1 0.36618308E+00 0.63461023E+03</pdfrwt>
<pdfrwt beam="2">0</pdfrwt>
<totfact> 0.18927440E+00</totfact>
</mgrwt>
</event>
<event>
 6    1  0.1729631E-003  0.6438584E+03  0.7818608E-02  0.9818372E-01
          3   -1    0    0  502    0  0.00000000000E+00  0.00000000000E+00  0.10395597668E+03  0.10395597668E+03  0.00000000000E+00 0.  1.
         13   -1    0    0    0    0 -0.00000000000E+00 -0.00000000000E+00 -0.10000000000E+04  0.10000000000E+04  0.00000000000E+00 0.  1.
    9000005    2    1    2  501    0  0.20588959811E-02  0.44591059682E-02 -0.89636157651E+03  0.11036383855E+04  0.64385837736E+03 0.  0.
         13    1    3    3    0    0 -0.25320238344E+03  0.90290396551E+02 -0.75179657923E+03  0.79841211115E+03  0.00000000000E+00 0.  1.
          3    1    3    3  501    0  0.25320444234E+03 -0.90285937445E+02 -0.14456499728E+03  0.30522627436E+03  0.00000000000E+00 0.  1.
         21    1    1    2  502  501 -0.20588959811E-02 -0.44591059682E-02  0.31755319466E+00  0.31759117450E+00  0.00000000000E+00 0. -1.
<mgrwt>
<rscale>  1 0.64385838E+03</rscale>
<asrwt>0</asrwt>
<pdfrwt beam="1">  1        3 0.37802253E+00 0.64385838E+03</pdfrwt>
<pdfrwt beam="2">0</pdfrwt>
<totfact> 0.77395657E-02</totfact>
</mgrwt>
</event>
<event>
 6    1  0.1729631E-003  0.6455297E+03  0.7818608E-02  0.9815204E-01
          1   -1    0    0  502    0  0.00000000000E+00  0.00000000000E+00  0.10417807411E+03  0.10417807411E+03  0.00000000000E+00 0.  1.
         13   -1    0    0    0    0 -0.00000000000E+00 -0.00000000000E+00 -0.10000000000E+04  0.10000000000E+04  0.00000000000E+00 0.  1.
    9000005    2    1    2  501    0 -0.22393160977E-02  0.11726440524E-02 -0.89582034494E+03  0.11041750927E+04  0.64552966225E+03 0.  0.
         13    1    3    3    0    0  0.43414946304E+02  0.10457806290E+03  0.69088705209E+02  0.13264493202E+03  0.00000000000E+00 0.  1.
          1    1    3    3  501    0 -0.43417185620E+02 -0.10457689026E+03 -0.96490905015E+03  0.97153016065E+03  0.00000000000E+00 0.  1.
         21    1    1    2  502  501  0.22393160977E-02 -0.11726440524E-02 -0.15809452680E-02  0.29814457230E-02  0.00000000000E+00 0. -1.
<mgrwt>
<rscale>  1 0.64552966E+03</rscale>
<asrwt>0</asrwt>
<pdfrwt beam="1">  1        1 0.37883016E+00 0.64552966E+03</pdfrwt>
<pdfrwt beam="2">0</pdfrwt>
<totfact> 0.16619510E+00</totfact>
</mgrwt>
</event>
<event>
 6    1  0.1729631E-003  0.6251179E+03  0.7818608E-02  0.9854622E-01
          1   -1    0    0  502    0  0.00000000000E+00  0.00000000000E+00  0.97693115972E+02  0.97693115972E+02  0.00000000000E+00 0.  1.
         13   -1    0    0    0    0 -0.00000000000E+00 -0.00000000000E+00 -0.10000000000E+04  0.10000000000E+04  0.00000000000E+00 0.  1.
    9000005    2    1    2  501    0  0.72549490540E-05  0.22707556525E-04 -0.90230689541E+03  0.10976930896E+04  0.62511789716E+03 0.  0.
         13    1    3    3    0    0  0.44856600326E+02 -0.25525153488E+03 -0.75796063238E+03  0.80104293323E+03  0.00000000000E+00 0.  1.
          1    1    3    3  501    0 -0.44856593071E+02  0.25525155759E+03 -0.14434626303E+03  0.29665015632E+03  0.00000000000E+00 0.  1.
         21    1    1    2  502  501 -0.72549490506E-05 -0.22707556542E-04  0.11382949832E-04  0.26416641662E-04  0.00000000000E+00 0.  1.
<mgrwt>
<rscale>  1 0.62511790E+03</rscale>
<asrwt>0</asrwt>
<pdfrwt beam="1">  1        1 0.35524844E+00 0.62511790E+03</pdfrwt>
<pdfrwt beam="2">0</pdfrwt>
<totfact> 0.21167687E+00</totfact>
</mgrwt>
</event>
<event>
 6    1  0.1729631E-003  0.6487272E+03  0.7818608E-02  0.9809170E-01
          1   -1    0    0  502    0  0.00000000000E+00  0.00000000000E+00  0.10524800452E+03  0.10524800452E+03  0.00000000000E+00 0.  1.
         13   -1    0    0    0    0 -0.00000000000E+00 -0.00000000000E+00 -0.10000000000E+04  0.10000000000E+04  0.00000000000E+00 0.  1.
    9000005    2    1    2  501    0  0.50608166532E-03  0.77337809341E-03 -0.89478824457E+03  0.11052117436E+04  0.64872721206E+03 0.  0.
         13    1    3    3    0    0 -0.21089721643E+03 -0.13605856699E+03 -0.79746182890E+03  0.83602328801E+03  0.00000000000E+00 0.  1.
          1    1    3    3  501    0  0.21089772251E+03  0.13605934037E+03 -0.97326415676E+02  0.26918845564E+03  0.00000000000E+00 0.  1.
         21    1    1    2  502  501 -0.50608166533E-03 -0.77337809343E-03  0.36249094414E-01  0.36260875309E-01  0.00000000000E+00 0. -1.
<mgrwt>
<rscale>  1 0.64872721E+03</rscale>
<asrwt>0</asrwt>
<pdfrwt beam="1">  1        1 0.38272082E+00 0.64872721E+03</pdfrwt>
<pdfrwt beam="2">0</pdfrwt>
<totfact> 0.15965763E+00</totfact>
</mgrwt>
</event>
<event>
 6    1  0.1729631E-003  0.6464546E+03  0.7818608E-02  0.9813455E-01
          1   -1    0    0  502    0  0.00000000000E+00  0.00000000000E+00  0.11852550983E+03  0.11852550983E+03  0.00000000000E+00 0.  1.
         13   -1    0    0    0    0 -0.00000000000E+00 -0.00000000000E+00 -0.10000000000E+04  0.10000000000E+04  0.00000000000E+00 0.  1.
    9000005    2    1    2  501    0 -0.30529636422E+00 -0.92780719566E-01 -0.89552211473E+03  0.11044742618E+04  0.64645451139E+03 0.  0.
         13    1    3    3    0    0 -0.12823883199E+03  0.65920768097E+02 -0.94217352439E+03  0.95314306153E+03  0.00000000000E+00 0.  1.
          3    1    3    3  501    0  0.12793353563E+03 -0.66013548816E+02  0.46651409654E+02  0.15133120031E+03  0.00000000000E+00 0.  1.
         21    1    1    2  502  501  0.30529636422E+00  0.92780719566E-01  0.14047624565E+02  0.14051247989E+02  0.00000000000E+00 0.  1.
<mgrwt>
<rscale>  1 0.64645459E+03</rscale>
<asrwt>0</asrwt>
<pdfrwt beam="1">  1        1 0.43100276E+00 0.64645459E+03</pdfrwt>
<pdfrwt beam="2">0</pdfrwt>
<totfact> 0.97111108E-01</totfact>
</mgrwt>
</event>
<event>
 6    1  0.1729631E-003  0.6552257E+03  0.7818608E-02  0.9797023E-01
          1   -1    0    0  502    0  0.00000000000E+00  0.00000000000E+00  0.10733075461E+03  0.10733075461E+03  0.00000000000E+00 0.  1.
         13   -1    0    0    0    0 -0.00000000000E+00 -0.00000000000E+00 -0.10000000000E+04  0.10000000000E+04  0.00000000000E+00 0.  1.
    9000005    2    1    2  501    0 -0.23046007556E-03  0.87344302280E-03 -0.89266939890E+03  0.11073298383E+04  0.65522569785E+03 0.  0.
         13    1    3    3    0    0 -0.25718103130E+03 -0.17387268443E+02 -0.10461317457E+03  0.27818755590E+03  0.00000000000E+00 0.  1.
          1    1    3    3  501    0  0.25718080084E+03  0.17388141886E+02 -0.78805622433E+03  0.82914228242E+03  0.00000000000E+00 0.  1.
         21    1    1    2  502  501  0.23046007556E-03 -0.87344302280E-03  0.15351311202E-03  0.91628643778E-03  0.00000000000E+00 0. -1.
<mgrwt>
<rscale>  1 0.65522570E+03</rscale>
<asrwt>0</asrwt>
<pdfrwt beam="1">  1        1 0.39029448E+00 0.65522570E+03</pdfrwt>
<pdfrwt beam="2">0</pdfrwt>
<totfact> 0.14761873E+00</totfact>
</mgrwt>
</event>
<event>
 6    1  0.1729631E-003  0.6271122E+03  0.7818608E-02  0.9850700E-01
          1   -1    0    0  502    0  0.00000000000E+00  0.00000000000E+00  0.98320684521E+02  0.98320684521E+02  0.00000000000E+00 0.  1.
         13   -1    0    0    0    0 -0.00000000000E+00 -0.00000000000E+00 -0.10000000000E+04  0.10000000000E+04  0.00000000000E+00 0.  1.
    9000005    2    1    2  501    0  0.19143681764E-03 -0.81307761661E-05 -0.90168256726E+03  0.10983174271E+04  0.62711220573E+03 0.  0.
         13    1    3    3    0    0 -0.88801175799E+02 -0.27617000109E+03 -0.24241935972E+03  0.37805113978E+03  0.00000000000E+00 0.  1.
          1    1    3    3  501    0  0.88801367236E+02  0.27616999296E+03 -0.65926320754E+03  0.72026628732E+03  0.00000000000E+00 0.  1.
         21    1    1    2  502  501 -0.19143681764E-03  0.81307761957E-05  0.32517792550E-02  0.32574196058E-02  0.00000000000E+00 0.  1.
<mgrwt>
<rscale>  1 0.62711221E+03</rscale>
<asrwt>0</asrwt>
<pdfrwt beam="1">  1        1 0.35753052E+00 0.62711221E+03</pdfrwt>
<pdfrwt beam="2">0</pdfrwt>
<totfact> 0.20680011E+00</totfact>
</mgrwt>
</event>
<event>
 6    1  0.1729631E-003  0.6654655E+03  0.7818608E-02  0.9778184E-01
          1   -1    0    0  502    0  0.00000000000E+00  0.00000000000E+00  0.11072392736E+03  0.11072392736E+03  0.00000000000E+00 0.  1.
         13   -1    0    0    0    0 -0.00000000000E+00 -0.00000000000E+00 -0.10000000000E+04  0.10000000000E+04  0.00000000000E+00 0.  1.
    9000005    2    1    2  501    0  0.44360259666E-02  0.19087336313E-02 -0.88928839506E+03  0.11107106924E+04  0.66546554579E+03 0.  0.
         13    1    3    3    0    0 -0.12277654220E+03 -0.25445544762E+02  0.69769976693E+02  0.14349008576E+03  0.00000000000E+00 0.  1.
          1    1    3    3  501    0  0.12278097823E+03  0.25447453496E+02 -0.95905837176E+03  0.96722060666E+03  0.00000000000E+00 0.  1.
         21    1    1    2  502  501 -0.44360259666E-02 -0.19087336313E-02  0.12322419585E-01  0.13234939172E-01  0.00000000000E+00 0. -1.
<mgrwt>
<rscale>  1 0.66546555E+03</rscale>
<asrwt>0</asrwt>
<pdfrwt beam="1">  1        1 0.40263331E+00 0.66546555E+03</pdfrwt>
<pdfrwt beam="2">0</pdfrwt>
<totfact> 0.12983669E+00</totfact>
</mgrwt>
</event>
<event>
 6    1  0.1729631E-003  0.6452186E+03  0.7818608E-02  0.9815793E-01
          3   -1    0    0  502    0  0.00000000000E+00  0.00000000000E+00  0.10407691315E+03  0.10407691315E+03  0.00000000000E+00 0.  1.
         13   -1    0    0    0    0 -0.00000000000E+00 -0.00000000000E+00 -0.10000000000E+04  0.10000000000E+04  0.00000000000E+00 0.  1.
    9000005    2    1    2  501    0 -0.15525259491E-03  0.26996833412E-04 -0.89592317430E+03  0.11040767329E+04  0.64521864351E+03 0.  0.
         13    1    3    3    0    0 -0.21703100171E+03  0.12439018488E+03 -0.99364445496E+02  0.26916290017E+03  0.00000000000E+00 0.  1.
          3    1    3    3  501    0  0.21703084646E+03 -0.12439015789E+03 -0.79655872881E+03  0.83491383276E+03  0.00000000000E+00 0.  1.
         21    1    1    2  502  501  0.15525259493E-03 -0.26996833413E-04  0.87453147813E-04  0.18022277966E-03  0.00000000000E+00 0.  1.
<mgrwt>
<rscale>  1 0.64521864E+03</rscale>
<asrwt>0</asrwt>
<pdfrwt beam="1">  1        3 0.37846230E+00 0.64521864E+03</pdfrwt>
<pdfrwt beam="2">0</pdfrwt>
<totfact> 0.76965277E-02</totfact>
</mgrwt>
</event>
<event>
 6    1  0.1729631E-003  0.6587698E+03  0.7818608E-02  0.9790461E-01
          3   -1    0    0  502    0  0.00000000000E+00  0.00000000000E+00  0.11441600112E+03  0.11441600112E+03  0.00000000000E+00 0.  1.
         13   -1    0    0    0    0 -0.00000000000E+00 -0.00000000000E+00 -0.10000000000E+04  0.10000000000E+04  0.00000000000E+00 0.  1.
    9000005    2    1    2  501    0  0.77943292315E+00  0.54777279171E+00 -0.89146307462E+03  0.11084602390E+04  0.65876914053E+03 0.  0.
         13    1    3    3    0    0  0.69630380087E+02 -0.51598231995E+02 -0.98055387114E+03  0.98437628048E+03  0.00000000000E+00 0.  1.
          3    1    3    3  501    0 -0.68850947163E+02  0.52146004787E+02  0.89090796523E+02  0.12408395853E+03  0.00000000000E+00 0.  1.
         21    1    1    2  502  501 -0.77943292315E+00 -0.54777279171E+00  0.58790757339E+01  0.59557621005E+01  0.00000000000E+00 0.  1.
<mgrwt>
<rscale>  1 0.65876983E+03</rscale>
<asrwt>0</asrwt>
<pdfrwt beam="1">  1        3 0.41605906E+00 0.65876983E+03</pdfrwt>
<pdfrwt beam="2">0</pdfrwt>
<totfact> 0.48771104E-02</totfact>
</mgrwt>
</event>
<event>
 6    1  0.1729631E-003  0.6460934E+03  0.7818608E-02  0.9814137E-01
          1   -1    0    0  502    0  0.00000000000E+00  0.00000000000E+00  0.10436497899E+03  0.10436497899E+03  0.00000000000E+00 0.  1.
         13   -1    0    0    0    0 -0.00000000000E+00 -0.00000000000E+00 -0.10000000000E+04  0.10000000000E+04  0.00000000000E+00 0.  1.
    9000005    2    1    2  501    0  0.14755828571E-01  0.52036778815E-02 -0.89559517132E+03  0.11043221677E+04  0.64609344436E+03 0.  0.
         13    1    3    3    0    0  0.17493747822E+03  0.23320465318E+03 -0.68572319668E+03  0.74512001316E+03  0.00000000000E+00 0.  1.
          3    1    3    3  501    0 -0.17492272239E+03 -0.23319944950E+03 -0.20987197465E+03  0.35920215450E+03  0.00000000000E+00 0.  1.
         21    1    1    2  502  501 -0.14755828571E-01 -0.52036778815E-02 -0.39849683193E-01  0.42811330170E-01  0.00000000000E+00 0.  1.
<mgrwt>
<rscale>  1 0.64609344E+03</rscale>
<asrwt>0</asrwt>
<pdfrwt beam="1">  1        1 0.37950981E+00 0.64609344E+03</pdfrwt>
<pdfrwt beam="2">0</pdfrwt>
<totfact> 0.16503485E+00</totfact>
</mgrwt>
</event>
<event>
 6    1  0.1729631E-003  0.6333240E+03  0.7818608E-02  0.9838584E-01
          1   -1    0    0  502    0  0.00000000000E+00  0.00000000000E+00  0.10029676506E+03  0.10029676506E+03  0.00000000000E+00 0.  1.
         13   -1    0    0    0    0 -0.00000000000E+00 -0.00000000000E+00 -0.10000000000E+04  0.10000000000E+04  0.00000000000E+00 0.  1.
    9000005    2    1    2  501    0  0.23915737268E-03 -0.22510049615E-03 -0.89972517393E+03  0.11002748236E+04  0.63332400780E+03 0.  0.
         13    1    3    3    0    0 -0.26908968999E+03  0.16478279684E+03 -0.49622233945E+03  0.58804697223E+03  0.00000000000E+00 0.  1.
          1    1    3    3  501    0  0.26908992914E+03 -0.16478302194E+03 -0.40350283449E+03  0.51222785137E+03  0.00000000000E+00 0.  1.
         21    1    1    2  502  501 -0.23915737270E-03  0.22510049615E-03  0.21938990535E-01  0.21941448726E-01  0.00000000000E+00 0.  1.
<mgrwt>
<rscale>  1 0.63332401E+03</rscale>
<asrwt>0</asrwt>
<pdfrwt beam="1">  1        1 0.36471628E+00 0.63332401E+03</pdfrwt>
<pdfrwt beam="2">0</pdfrwt>
<totfact> 0.19214208E+00</totfact>
</mgrwt>
</event>
<event>
 6    1  0.1729631E-003  0.6463586E+03  0.7818608E-02  0.9813636E-01
          1   -1    0    0  502    0  0.00000000000E+00  0.00000000000E+00  0.10444503741E+03  0.10444503741E+03  0.00000000000E+00 0.  1.
         13   -1    0    0    0    0 -0.00000000000E+00 -0.00000000000E+00 -0.10000000000E+04  0.10000000000E+04  0.00000000000E+00 0.  1.
    9000005    2    1    2  501    0  0.18113902058E-05 -0.49588523439E-05 -0.89555514782E+03  0.11044448521E+04  0.64635857582E+03 0.  0.
         13    1    3    3    0    0  0.83012686915E+02  0.24392964325E+03 -0.78109627707E+03  0.82249873623E+03  0.00000000000E+00 0.  1.
          1    1    3    3  501    0 -0.83012685103E+02 -0.24392964821E+03 -0.11445887076E+03  0.28194611587E+03  0.00000000000E+00 0.  1.
         21    1    1    2  502  501 -0.18113901958E-05  0.49588523282E-05  0.18523282414E-03  0.18530804216E-03  0.00000000000E+00 0. -1.
<mgrwt>
<rscale>  1 0.64635858E+03</rscale>
<asrwt>0</asrwt>
<pdfrwt beam="1">  1        1 0.37980094E+00 0.64635858E+03</pdfrwt>
<pdfrwt beam="2">0</pdfrwt>
<totfact> 0.16453951E+00</totfact>
</mgrwt>
</event>
<event>
 6    1  0.1729631E-003  0.6373059E+03  0.7818608E-02  0.9830895E-01
          1   -1    0    0  502    0  0.00000000000E+00  0.00000000000E+00  0.10298330350E+03  0.10298330350E+03  0.00000000000E+00 0.  1.
         13   -1    0    0    0    0 -0.00000000000E+00 -0.00000000000E+00 -0.10000000000E+04  0.10000000000E+04  0.00000000000E+00 0.  1.
    9000005    2    1    2  501    0 -0.30520864334E+00  0.45248899684E+00 -0.89840325333E+03  0.11014931899E+04  0.63730569114E+03 0.  0.
         13    1    3    3    0    0  0.18747396263E+03 -0.17355395492E+03 -0.12034739225E+03  0.28240211889E+03  0.00000000000E+00 0.  1.
          1    1    3    3  501    0 -0.18777917127E+03  0.17400644392E+03 -0.77805586109E+03  0.81909107104E+03  0.00000000000E+00 0.  1.
         21    1    1    2  502  501  0.30520864334E+00 -0.45248899684E+00  0.13865568365E+01  0.14901135759E+01  0.00000000000E+00 0. -1.
<mgrwt>
<rscale>  1 0.63730592E+03</rscale>
<asrwt>0</asrwt>
<pdfrwt beam="1">  1        1 0.37448553E+00 0.63730592E+03</pdfrwt>
<pdfrwt beam="2">0</pdfrwt>
<totfact> 0.17394503E+00</totfact>
</mgrwt>
</event>
<event>
 6    1  0.1729631E-003  0.6521677E+03  0.7818608E-02  0.9802720E-01
          1   -1    0    0  502    0  0.00000000000E+00  0.00000000000E+00  0.12456710651E+03  0.12456710651E+03  0.00000000000E+00 0.  1.
         13   -1    0    0    0    0 -0.00000000000E+00 -0.00000000000E+00 -0.10000000000E+04  0.10000000000E+04  0.00000000000E+00 0.  1.
    9000005    2    1    2  501    0  0.21302774268E+02  0.19821075569E+02 -0.87978477350E+03  0.10951456503E+04  0.65151827631E+03 0.  0.
         13    1    3    3    0    0  0.14022737215E+02  0.18333593998E+03  0.15966323966E+02  0.18456334292E+03  0.00000000000E+00 0.  1.
          1    1    3    3  501    0  0.72800370525E+01 -0.16351486441E+03 -0.89575109747E+03  0.91058230734E+03  0.00000000000E+00 0.  1.
         21    1    1    2  502  501 -0.21302774268E+02 -0.19821075569E+02  0.43518800154E+01  0.29421456250E+02  0.00000000000E+00 0.  1.
<mgrwt>
<rscale>  1 0.65216773E+03</rscale>
<asrwt>0</asrwt>
<pdfrwt beam="1">  1        1 0.45297225E+00 0.65216773E+03</pdfrwt>
<pdfrwt beam="2">0</pdfrwt>
<totfact> 0.76945272E-01</totfact>
</mgrwt>
</event>
<event>
 6    1  0.1729631E-003  0.6400135E+03  0.7818608E-02  0.9825701E-01
          1   -1    0    0  502    0  0.00000000000E+00  0.00000000000E+00  0.10276219604E+03  0.10276219604E+03  0.00000000000E+00 0.  1.
         13   -1    0    0    0    0 -0.00000000000E+00 -0.00000000000E+00 -0.10000000000E+04  0.10000000000E+04  0.00000000000E+00 0.  1.
    9000005    2    1    2  501    0  0.77167747761E-01 -0.32988873939E-01 -0.89759023560E+03  0.11023999100E+04  0.64001353379E+03 0.  0.
         13    1    3    3    0    0  0.30307473236E+03 -0.99279773594E+02 -0.40262771615E+03  0.51363395979E+03  0.00000000000E+00 0.  1.
          1    1    3    3  501    0 -0.30299756461E+03  0.99246784720E+02 -0.49496251945E+03  0.58876595019E+03  0.00000000000E+00 0.  1.
         21    1    1    2  502  501 -0.77167747761E-01  0.32988873939E-01  0.35243163805E+00  0.36228605631E+00  0.00000000000E+00 0.  1.
<mgrwt>
<rscale>  1 0.64001354E+03</rscale>
<asrwt>0</asrwt>
<pdfrwt beam="1">  1        1 0.37368150E+00 0.64001354E+03</pdfrwt>
<pdfrwt beam="2">0</pdfrwt>
<totfact> 0.17528049E+00</totfact>
</mgrwt>
</event>
<event>
 6    1  0.1729631E-003  0.6523366E+03  0.7818608E-02  0.9802405E-01
          1   -1    0    0  502    0  0.00000000000E+00  0.00000000000E+00  0.10643824031E+03  0.10643824031E+03  0.00000000000E+00 0.  1.
         13   -1    0    0    0    0 -0.00000000000E+00 -0.00000000000E+00 -0.10000000000E+04  0.10000000000E+04  0.00000000000E+00 0.  1.
    9000005    2    1    2  501    0  0.75954355626E-03 -0.28015633852E-02 -0.89361418489E+03  0.11063857348E+04  0.65233663299E+03 0.  0.
         13    1    3    3    0    0 -0.18228099368E+03  0.87101038120E+02 -0.12500657357E+02  0.20240854215E+03  0.00000000000E+00 0.  1.
          1    1    3    3  501    0  0.18228175323E+03 -0.87103839683E+02 -0.88111352754E+03  0.90397719266E+03  0.00000000000E+00 0.  1.
         21    1    1    2  502  501 -0.75954355626E-03  0.28015633852E-02  0.52425201167E-01  0.52505498581E-01  0.00000000000E+00 0.  1.
<mgrwt>
<rscale>  1 0.65233663E+03</rscale>
<asrwt>0</asrwt>
<pdfrwt beam="1">  1        1 0.38704896E+00 0.65233663E+03</pdfrwt>
<pdfrwt beam="2">0</pdfrwt>
<totfact> 0.15267113E+00</totfact>
</mgrwt>
</event>
<event>
 6    1  0.1729631E-003  0.6373646E+03  0.7818608E-02  0.9830782E-01
          1   -1    0    0  502    0  0.00000000000E+00  0.00000000000E+00  0.10155848023E+03  0.10155848023E+03  0.00000000000E+00 0.  1.
         13   -1    0    0    0    0 -0.00000000000E+00 -0.00000000000E+00 -0.10000000000E+04  0.10000000000E+04  0.00000000000E+00 0.  1.
    9000005    2    1    2  501    0  0.16443837485E-03  0.10152199236E-03 -0.89844109640E+03  0.11015580148E+04  0.63736461806E+03 0.  0.
         13    1    3    3    0    0  0.45759344551E+02 -0.11073636451E+03 -0.95958746663E+03  0.96703907168E+03  0.00000000000E+00 0.  1.
          3    1    3    3  501    0 -0.45759180113E+02  0.11073646604E+03  0.61146370237E+02  0.13451894316E+03  0.00000000000E+00 0.  1.
         21    1    1    2  502  501 -0.16443837485E-03 -0.10152199236E-03 -0.42337332033E-03  0.46539409367E-03  0.00000000000E+00 0.  1.
<mgrwt>
<rscale>  1 0.63736462E+03</rscale>
<asrwt>0</asrwt>
<pdfrwt beam="1">  1        1 0.36930434E+00 0.63736462E+03</pdfrwt>
<pdfrwt beam="2">0</pdfrwt>
<totfact> 0.18330734E+00</totfact>
</mgrwt>
</event>
<event>
 6    1  0.1729631E-003  0.6434733E+03  0.7818608E-02  0.9819104E-01
          1   -1    0    0  502    0  0.00000000000E+00  0.00000000000E+00  0.10351835449E+03  0.10351835449E+03  0.00000000000E+00 0.  1.
         13   -1    0    0    0    0 -0.00000000000E+00 -0.00000000000E+00 -0.10000000000E+04  0.10000000000E+04  0.00000000000E+00 0.  1.
    9000005    2    1    2  501    0  0.73070105870E-04 -0.15434854581E-03 -0.89648552166E+03  0.11035144746E+04  0.64347331339E+03 0.  0.
         13    1    3    3    0    0  0.10304772752E+03 -0.12273085832E+03 -0.92668430896E+03  0.94043899653E+03  0.00000000000E+00 0.  1.
          1    1    3    3  501    0 -0.10304765445E+03  0.12273070397E+03  0.30198787292E+02  0.16307547804E+03  0.00000000000E+00 0.  1.
         21    1    1    2  502  501 -0.73070105870E-04  0.15434854581E-03  0.38761558653E-02  0.38799158504E-02  0.00000000000E+00 0. -1.
<mgrwt>
<rscale>  1 0.64347331E+03</rscale>
<asrwt>0</asrwt>
<pdfrwt beam="1">  1        1 0.37643117E+00 0.64347331E+03</pdfrwt>
<pdfrwt beam="2">0</pdfrwt>
<totfact> 0.17035499E+00</totfact>
</mgrwt>
</event>
<event>
 6    1  0.1729631E-003  0.6519909E+03  0.7818608E-02  0.9803051E-01
          1   -1    0    0  502    0  0.00000000000E+00  0.00000000000E+00  0.10627312749E+03  0.10627312749E+03  0.00000000000E+00 0.  1.
         13   -1    0    0    0    0 -0.00000000000E+00 -0.00000000000E+00 -0.10000000000E+04  0.10000000000E+04  0.00000000000E+00 0.  1.
    9000005    2    1    2  501    0 -0.12374989453E-04 -0.46416307953E-05 -0.89372695806E+03  0.11062730409E+04  0.65199092442E+03 0.  0.
         13    1    3    3    0    0 -0.90604587544E+02  0.23339610850E+03 -0.92609493955E+02  0.26694466302E+03  0.00000000000E+00 0.  1.
          3    1    3    3  501    0  0.90604575169E+02 -0.23339611314E+03 -0.80111746410E+03  0.83932837791E+03  0.00000000000E+00 0.  1.
         21    1    1    2  502  501  0.12374989460E-04  0.46416307945E-05  0.85550737938E-04  0.86565662143E-04  0.00000000000E+00 0.  1.
<mgrwt>
<rscale>  1 0.65199092E+03</rscale>
<asrwt>0</asrwt>
<pdfrwt beam="1">  1        1 0.38644855E+00 0.65199092E+03</pdfrwt>
<pdfrwt beam="2">0</pdfrwt>
<totfact> 0.15361826E+00</totfact>
</mgrwt>
</event>
<event>
 6    1  0.1729631E-003  0.6819028E+03  0.7818608E-02  0.9748691E-01
          1   -1    0    0  502    0  0.00000000000E+00  0.00000000000E+00  0.11624990018E+03  0.11624990018E+03  0.00000000000E+00 0.  1.
         13   -1    0    0    0    0 -0.00000000000E+00 -0.00000000000E+00 -0.10000000000E+04  0.10000000000E+04  0.00000000000E+00 0.  1.
    9000005    2    1    2  501    0 -0.28329208902E-04  0.26360861945E-04 -0.88375213674E+03  0.11162478629E+04  0.68190281728E+03 0.  0.
         13    1    3    3    0    0 -0.12870678803E+03  0.39728406769E+02  0.70845623947E+02  0.15219358075E+03  0.00000000000E+00 0.  1.
          3    1    3    3  501    0  0.12870675970E+03 -0.39728380408E+02 -0.95459776069E+03  0.96405428214E+03  0.00000000000E+00 0.  1.
         21    1    1    2  502  501  0.28329208906E-04 -0.26360861945E-04  0.20369166668E-02  0.20372842086E-02  0.00000000000E+00 0.  1.
<mgrwt>
<rscale>  1 0.68190282E+03</rscale>
<asrwt>0</asrwt>
<pdfrwt beam="1">  1        1 0.42272780E+00 0.68190282E+03</pdfrwt>
<pdfrwt beam="2">0</pdfrwt>
<totfact> 0.10513510E+00</totfact>
</mgrwt>
</event>
<event>
 6    1  0.1729631E-003  0.6557452E+03  0.7818608E-02  0.9796058E-01
          1   -1    0    0  502    0  0.00000000000E+00  0.00000000000E+00  0.10750153261E+03  0.10750153261E+03  0.00000000000E+00 0.  1.
         13   -1    0    0    0    0 -0.00000000000E+00 -0.00000000000E+00 -0.10000000000E+04  0.10000000000E+04  0.00000000000E+00 0.  1.
    9000005    2    1    2  501    0  0.54051851833E-04 -0.10502462148E-02 -0.89249927010E+03  0.11075002096E+04  0.65574519990E+03 0.  0.
         13    1    3    3    0    0 -0.15005335058E+03 -0.29088325665E+03 -0.41369036646E+03  0.52751189212E+03  0.00000000000E+00 0.  1.
          1    1    3    3  501    0  0.15005340463E+03  0.29088220641E+03 -0.47880890364E+03  0.57998831751E+03  0.00000000000E+00 0.  1.
         21    1    1    2  502  501 -0.54051851833E-04  0.10502462148E-02  0.80270902622E-03  0.13229816685E-02  0.00000000000E+00 0. -1.
<mgrwt>
<rscale>  1 0.65574520E+03</rscale>
<asrwt>0</asrwt>
<pdfrwt beam="1">  1        1 0.39091549E+00 0.65574520E+03</pdfrwt>
<pdfrwt beam="2">0</pdfrwt>
<totfact> 0.14667113E+00</totfact>
</mgrwt>
</event>
<event>
 6    1  0.1729631E-003  0.6480162E+03  0.7818608E-02  0.9810509E-01
          3   -1    0    0  502    0  0.00000000000E+00  0.00000000000E+00  0.10505046440E+03  0.10505046440E+03  0.00000000000E+00 0.  1.
         13   -1    0    0    0    0 -0.00000000000E+00 -0.00000000000E+00 -0.10000000000E+04  0.10000000000E+04  0.00000000000E+00 0.  1.
    9000005    2    1    2  501    0 -0.28083942208E-02  0.81617875136E-03 -0.89501872878E+03  0.11049812094E+04  0.64801616365E+03 0.  0.
         13    1    3    3    0    0  0.22959424866E+03 -0.22795418097E+03 -0.41778767292E+03  0.52841571446E+03  0.00000000000E+00 0.  1.
          3    1    3    3  501    0 -0.22959705706E+03  0.22795499715E+03 -0.47723105586E+03  0.57656549499E+03  0.00000000000E+00 0.  1.
         21    1    1    2  502  501  0.28083942208E-02 -0.81617875136E-03  0.69193181506E-01  0.69254960781E-01  0.00000000000E+00 0.  1.
<mgrwt>
<rscale>  1 0.64801616E+03</rscale>
<asrwt>0</asrwt>
<pdfrwt beam="1">  1        3 0.38200249E+00 0.64801616E+03</pdfrwt>
<pdfrwt beam="2">0</pdfrwt>
<totfact> 0.73687878E-02</totfact>
</mgrwt>
</event>
<event>
 6    1  0.1729631E-003  0.6559607E+03  0.7818608E-02  0.9795658E-01
          1   -1    0    0  502    0  0.00000000000E+00  0.00000000000E+00  0.10757363133E+03  0.10757363133E+03  0.00000000000E+00 0.  1.
         13   -1    0    0    0    0 -0.00000000000E+00 -0.00000000000E+00 -0.10000000000E+04  0.10000000000E+04  0.00000000000E+00 0.  1.
    9000005    2    1    2  501    0 -0.17032157720E-03 -0.40711122168E-03 -0.89242885981E+03  0.11075711014E+04  0.65596072661E+03 0.  0.
         13    1    3    3    0    0  0.22177989360E+03 -0.23696223150E+03 -0.36641292474E+03  0.48948529271E+03  0.00000000000E+00 0.  1.
          3    1    3    3  501    0 -0.22178006392E+03  0.23696182439E+03 -0.52601593507E+03  0.61808580870E+03  0.00000000000E+00 0.  1.
         21    1    1    2  502  501  0.17032157721E-03  0.40711122169E-03  0.24911360449E-02  0.25299224851E-02  0.00000000000E+00 0.  1.
<mgrwt>
<rscale>  1 0.65596073E+03</rscale>
<asrwt>0</asrwt>
<pdfrwt beam="1">  1        1 0.39117767E+00 0.65596073E+03</pdfrwt>
<pdfrwt beam="2">0</pdfrwt>
<totfact> 0.14627292E+00</totfact>
</mgrwt>
</event>
<event>
 6    1  0.1729631E-003  0.6483240E+03  0.7818608E-02  0.9809929E-01
          1   -1    0    0  502    0  0.00000000000E+00  0.00000000000E+00  0.10829363852E+03  0.10829363852E+03  0.00000000000E+00 0.  1.
         13   -1    0    0    0    0 -0.00000000000E+00 -0.00000000000E+00 -0.10000000000E+04  0.10000000000E+04  0.00000000000E+00 0.  1.
    9000005    2    1    2  501    0  0.41616844510E+01 -0.10365566402E+01 -0.89325491227E+03  0.11037338055E+04  0.64830978795E+03 0.  0.
         13    1    3    3    0    0 -0.25131184852E+03 -0.90844528362E+02 -0.13667438271E+03  0.30015039635E+03  0.00000000000E+00 0.  1.
          1    1    3    3  501    0  0.25547353297E+03  0.89807971722E+02 -0.75658052956E+03  0.80358340920E+03  0.00000000000E+00 0.  1.
         21    1    1    2  502  501 -0.41616844510E+01  0.10365566402E+01  0.15485507852E+01  0.45598329654E+01  0.00000000000E+00 0.  1.
<mgrwt>
<rscale>  1 0.64832397E+03</rscale>
<asrwt>0</asrwt>
<pdfrwt beam="1">  1        1 0.39379588E+00 0.64832397E+03</pdfrwt>
<pdfrwt beam="2">0</pdfrwt>
<totfact> 0.14261308E+00</totfact>
</mgrwt>
</event>
<event>
 6    1  0.1729631E-003  0.6449999E+03  0.7818608E-02  0.9816207E-01
          1   -1    0    0  502    0  0.00000000000E+00  0.00000000000E+00  0.10857535510E+03  0.10857535510E+03  0.00000000000E+00 0.  1.
         13   -1    0    0    0    0 -0.00000000000E+00 -0.00000000000E+00 -0.10000000000E+04  0.10000000000E+04  0.00000000000E+00 0.  1.
    9000005    2    1    2  501    0  0.52700931974E+01  0.12758022159E+02 -0.86843191352E+03  0.10817573256E+04  0.64485221718E+03 0.  0.
         13    1    3    3    0    0  0.19808461439E+03  0.25224153068E+03 -0.56560255145E+03  0.65020731345E+03  0.00000000000E+00 0.  1.
          1    1    3    3  501    0 -0.19281452119E+03 -0.23948350852E+03 -0.30282936207E+03  0.43155001212E+03  0.00000000000E+00 0.  1.
         21    1    1    2  502  501 -0.52700931974E+01 -0.12758022159E+02 -0.22992731379E+02  0.26818029532E+02  0.00000000000E+00 0.  1.
<mgrwt>
<rscale>  1 0.64499994E+03</rscale>
<asrwt>0</asrwt>
<pdfrwt beam="1">  1        1 0.39482031E+00 0.64499994E+03</pdfrwt>
<pdfrwt beam="2">0</pdfrwt>
<totfact> 0.14121489E+00</totfact>
</mgrwt>
</event>
<event>
 6    1  0.1729631E-003  0.6053295E+03  0.7818608E-02  0.9894410E-01
          1   -1    0    0  502    0  0.00000000000E+00  0.00000000000E+00  0.94468388940E+02  0.94468388940E+02  0.00000000000E+00 0.  1.
         13   -1    0    0    0    0 -0.00000000000E+00 -0.00000000000E+00 -0.10000000000E+04  0.10000000000E+04  0.00000000000E+00 0.  1.
    9000005    2    1    2  501    0  0.75002950951E+00 -0.15729001559E+00 -0.90833797230E+03  0.10915592743E+04  0.60532899333E+03 0.  0.
         13    1    3    3    0    0 -0.24210431405E+03 -0.17446378837E+03 -0.54211695649E+03  0.61882380921E+03  0.00000000000E+00 0.  1.
          3    1    3    3  501    0  0.24285434356E+03  0.17430649836E+03 -0.36622101581E+03  0.47273546512E+03  0.00000000000E+00 0.  1.
         21    1    1    2  502  501 -0.75002950951E+00  0.15729001559E+00  0.28063612411E+01  0.29091146127E+01  0.00000000000E+00 0.  1.
<mgrwt>
<rscale>  1 0.60532948E+03</rscale>
<asrwt>0</asrwt>
<pdfrwt beam="1">  1        1 0.34352214E+00 0.60532948E+03</pdfrwt>
<pdfrwt beam="2">0</pdfrwt>
<totfact> 0.23894407E+00</totfact>
</mgrwt>
</event>
<event>
 6    1  0.1729631E-003  0.6542159E+03  0.7818608E-02  0.9798900E-01
          1   -1    0    0  502    0  0.00000000000E+00  0.00000000000E+00  0.10699962907E+03  0.10699962907E+03  0.00000000000E+00 0.  1.
         13   -1    0    0    0    0 -0.00000000000E+00 -0.00000000000E+00 -0.10000000000E+04  0.10000000000E+04  0.00000000000E+00 0.  1.
    9000005    2    1    2  501    0 -0.50003037870E-05 -0.45052504731E-05 -0.89300038039E+03  0.11069996175E+04  0.65421592283E+03 0.  0.
         13    1    3    3    0    0  0.24034957732E+03  0.17207847089E+03 -0.68351941232E+03  0.74469974250E+03  0.00000000000E+00 0.  1.
          1    1    3    3  501    0 -0.24034958232E+03 -0.17207847539E+03 -0.20948096807E+03  0.36229987496E+03  0.00000000000E+00 0.  1.
         21    1    1    2  502  501  0.50003037669E-05  0.45052504609E-05  0.94549539539E-05  0.11605880998E-04  0.00000000000E+00 0. -1.
<mgrwt>
<rscale>  1 0.65421592E+03</rscale>
<asrwt>0</asrwt>
<pdfrwt beam="1">  1        1 0.38909038E+00 0.65421592E+03</pdfrwt>
<pdfrwt beam="2">0</pdfrwt>
<totfact> 0.14947267E+00</totfact>
</mgrwt>
</event>
<event>
 6    1  0.1729631E-003  0.6360806E+03  0.7818608E-02  0.9833254E-01
          3   -1    0    0  502    0  0.00000000000E+00  0.00000000000E+00  0.10114966641E+03  0.10114966641E+03  0.00000000000E+00 0.  1.
         13   -1    0    0    0    0 -0.00000000000E+00 -0.00000000000E+00 -0.10000000000E+04  0.10000000000E+04  0.00000000000E+00 0.  1.
    9000005    2    1    2  501    0  0.51445615270E-05  0.11560403976E-05 -0.89885035422E+03  0.11011496451E+04  0.63608064084E+03 0.  0.
         13    1    3    3    0    0  0.10698942331E+03  0.79744198484E+02  0.50345464376E+02  0.14262026390E+03  0.00000000000E+00 0.  1.
          1    1    3    3  501    0 -0.10698941816E+03 -0.79744197328E+02 -0.94919581860E+03  0.95852938122E+03  0.00000000000E+00 0.  1.
         21    1    1    2  502  501 -0.51445615325E-05 -0.11560403990E-05  0.20629372790E-04  0.21292580033E-04  0.00000000000E+00 0. -1.
<mgrwt>
<rscale>  1 0.63608064E+03</rscale>
<asrwt>0</asrwt>
<pdfrwt beam="1">  1        3 0.36781774E+00 0.63608064E+03</pdfrwt>
<pdfrwt beam="2">0</pdfrwt>
<totfact> 0.87757521E-02</totfact>
</mgrwt>
</event>
<event>
 6    1  0.1729631E-003  0.6452828E+03  0.7818608E-02  0.9815671E-01
          1   -1    0    0  502    0  0.00000000000E+00  0.00000000000E+00  0.10409804614E+03  0.10409804614E+03  0.00000000000E+00 0.  1.
         13   -1    0    0    0    0 -0.00000000000E+00 -0.00000000000E+00 -0.10000000000E+04  0.10000000000E+04  0.00000000000E+00 0.  1.
    9000005    2    1    2  501    0 -0.12237869277E-03  0.35219325170E-04 -0.89590251390E+03  0.11040974718E+04  0.64528281615E+03 0.  0.
         13    1    3    3    0    0 -0.17873801634E+03  0.85579914126E+02 -0.88359651973E+03  0.90554624943E+03  0.00000000000E+00 0.  1.
          1    1    3    3  501    0  0.17873789396E+03 -0.85579878907E+02 -0.12305994177E+02  0.19855122237E+03  0.00000000000E+00 0.  1.
         21    1    1    2  502  501  0.12237869276E-03 -0.35219325163E-04  0.56004583746E-03  0.57434161033E-03  0.00000000000E+00 0. -1.
<mgrwt>
<rscale>  1 0.64528282E+03</rscale>
<asrwt>0</asrwt>
<pdfrwt beam="1">  1        1 0.37853915E+00 0.64528282E+03</pdfrwt>
<pdfrwt beam="2">0</pdfrwt>
<totfact> 0.16669443E+00</totfact>
</mgrwt>
</event>
<event>
 6    1  0.1729631E-003  0.6230232E+03  0.7818608E-02  0.9858759E-01
          1   -1    0    0  502    0  0.00000000000E+00  0.00000000000E+00  0.97260085400E+02  0.97260085400E+02  0.00000000000E+00 0.  1.
         13   -1    0    0    0    0 -0.00000000000E+00 -0.00000000000E+00 -0.10000000000E+04  0.10000000000E+04  0.00000000000E+00 0.  1.
    9000005    2    1    2  501    0 -0.16852614456E+00 -0.12453462615E+00 -0.90290469379E+03  0.10969935106E+04  0.62302313951E+03 0.  0.
         13    1    3    3    0    0 -0.20455691430E+03 -0.83556474347E+02 -0.83835942473E+03  0.86699004644E+03  0.00000000000E+00 0.  1.
          1    1    3    3  501    0  0.20438838815E+03  0.83431939721E+02 -0.64545269060E+02  0.23000346418E+03  0.00000000000E+00 0.  1.
         21    1    1    2  502  501  0.16852614456E+00  0.12453462615E+00  0.16477918633E+00  0.26657478267E+00  0.00000000000E+00 0. -1.
<mgrwt>
<rscale>  1 0.62302317E+03</rscale>
<asrwt>0</asrwt>
<pdfrwt beam="1">  1        1 0.35367378E+00 0.62302317E+03</pdfrwt>
<pdfrwt beam="2">0</pdfrwt>
<totfact> 0.21513401E+00</totfact>
</mgrwt>
</event>
<event>
 6    1  0.1729631E-003  0.6358477E+03  0.7818608E-02  0.9833703E-01
          3   -1    0    0  502    0  0.00000000000E+00  0.00000000000E+00  0.10107558182E+03  0.10107558182E+03  0.00000000000E+00 0.  1.
         13   -1    0    0    0    0 -0.00000000000E+00 -0.00000000000E+00 -0.10000000000E+04  0.10000000000E+04  0.00000000000E+00 0.  1.
    9000005    2    1    2  501    0  0.47053785650E-05  0.30361240988E-05 -0.89892442532E+03  0.11010755727E+04  0.63584769754E+03 0.  0.
         13    1    3    3    0    0 -0.59624889501E+02 -0.29530922652E+03 -0.62531714032E+03  0.69410675886E+03  0.00000000000E+00 0.  1.
          1    1    3    3  501    0  0.59624894206E+02  0.29530922956E+03 -0.27360728500E+03  0.40696881389E+03  0.00000000000E+00 0.  1.
         21    1    1    2  502  501 -0.47053785629E-05 -0.30361240591E-05  0.71371554489E-05  0.90718038242E-05  0.00000000000E+00 0.  1.
<mgrwt>
<rscale>  1 0.63584770E+03</rscale>
<asrwt>0</asrwt>
<pdfrwt beam="1">  1        3 0.36754835E+00 0.63584770E+03</pdfrwt>
<pdfrwt beam="2">0</pdfrwt>
<totfact> 0.88049930E-02</totfact>
</mgrwt>
</event>
<event>
 6    1  0.1729631E-003  0.6504804E+03  0.7818608E-02  0.9805878E-01
          1   -1    0    0  502    0  0.00000000000E+00  0.00000000000E+00  0.10578823497E+03  0.10578823497E+03  0.00000000000E+00 0.  1.
         13   -1    0    0    0    0 -0.00000000000E+00 -0.00000000000E+00 -0.10000000000E+04  0.10000000000E+04  0.00000000000E+00 0.  1.
    9000005    2    1    2  501    0 -0.77713570079E-03  0.62954343839E-04 -0.89421878355E+03  0.11057811733E+04  0.65048041501E+03 0.  0.
         13    1    3    3    0    0 -0.27245080925E+03 -0.15754182249E+02 -0.74787896592E+03  0.79611593715E+03  0.00000000000E+00 0.  1.
          1    1    3    3  501    0  0.27245003211E+03  0.15754245204E+02 -0.14633981763E+03  0.30966523613E+03  0.00000000000E+00 0.  1.
         21    1    1    2  502  501  0.77713570081E-03 -0.62954343839E-04  0.70185244856E-02  0.70616987405E-02  0.00000000000E+00 0.  1.
<mgrwt>
<rscale>  1 0.65048042E+03</rscale>
<asrwt>0</asrwt>
<pdfrwt beam="1">  1        1 0.38468530E+00 0.65048042E+03</pdfrwt>
<pdfrwt beam="2">0</pdfrwt>
<totfact> 0.15644641E+00</totfact>
</mgrwt>
</event>
<event>
 6    1  0.1729631E-003  0.6523785E+03  0.7818608E-02  0.9802326E-01
          1   -1    0    0  502    0  0.00000000000E+00  0.00000000000E+00  0.11104060667E+03  0.11104060667E+03  0.00000000000E+00 0.  1.
         13   -1    0    0    0    0 -0.00000000000E+00 -0.00000000000E+00 -0.10000000000E+04  0.10000000000E+04  0.00000000000E+00 0.  1.
    9000005    2    1    2  501    0  0.80425731953E-01  0.25004476570E-01 -0.89360016414E+03  0.11063990717E+04  0.65237845254E+03 0.  0.
         13    1    3    3    0    0 -0.20850938534E+03  0.13097999842E+03 -0.80953783267E+03  0.84615803860E+03  0.00000000000E+00 0.  1.
          3    1    3    3  501    0  0.20858981107E+03 -0.13095499394E+03 -0.84062331468E+02  0.26024103307E+03  0.00000000000E+00 0.  1.
         21    1    1    2  502  501 -0.80425731953E-01 -0.25004476570E-01  0.46407708077E+01  0.46415350060E+01  0.00000000000E+00 0.  1.
<mgrwt>
<rscale>  1 0.65237846E+03</rscale>
<asrwt>0</asrwt>
<pdfrwt beam="1">  1        1 0.40378488E+00 0.65237846E+03</pdfrwt>
<pdfrwt beam="2">0</pdfrwt>
<totfact> 0.12862619E+00</totfact>
</mgrwt>
</event>
<event>
 6    1  0.1729631E-003  0.6270925E+03  0.7818608E-02  0.9850739E-01
          1   -1    0    0  502    0  0.00000000000E+00  0.00000000000E+00  0.98316599286E+02  0.98316599286E+02  0.00000000000E+00 0.  1.
         13   -1    0    0    0    0 -0.00000000000E+00 -0.00000000000E+00 -0.10000000000E+04  0.10000000000E+04  0.00000000000E+00 0.  1.
    9000005    2    1    2  501    0  0.57886797819E-03 -0.12724094172E-02 -0.90168864363E+03  0.10983111732E+04  0.62709251564E+03 0.  0.
         13    1    3    3    0    0  0.16273598841E+03  0.18770733986E+03 -0.78588587612E+03  0.82421699670E+03  0.00000000000E+00 0.  1.
          1    1    3    3  501    0 -0.16273540954E+03 -0.18770861227E+03 -0.11580276751E+03  0.27409417652E+03  0.00000000000E+00 0.  1.
         21    1    1    2  502  501 -0.57886797817E-03  0.12724094172E-02  0.52429114951E-02  0.54260699227E-02  0.00000000000E+00 0. -1.
<mgrwt>
<rscale>  1 0.62709252E+03</rscale>
<asrwt>0</asrwt>
<pdfrwt beam="1">  1        1 0.35751566E+00 0.62709252E+03</pdfrwt>
<pdfrwt beam="2">0</pdfrwt>
<totfact> 0.20683176E+00</totfact>
</mgrwt>
</event>
<event>
 6    1  0.1729631E-003  0.6542863E+03  0.7818608E-02  0.9798769E-01
          1   -1    0    0  502    0  0.00000000000E+00  0.00000000000E+00  0.10724774344E+03  0.10724774344E+03  0.00000000000E+00 0.  1.
         13   -1    0    0    0    0 -0.00000000000E+00 -0.00000000000E+00 -0.10000000000E+04  0.10000000000E+04  0.00000000000E+00 0.  1.
    9000005    2    1    2  501    0  0.18229406105E+00  0.78587140401E-01 -0.89292787402E+03  0.11069826990E+04  0.65428622808E+03 0.  0.
         13    1    3    3    0    0  0.76745122862E+02  0.26976822688E+03 -0.16144901516E+03  0.32362091189E+03  0.00000000000E+00 0.  1.
          3    1    3    3  501    0 -0.76562828801E+02 -0.26968963974E+03 -0.73147885887E+03  0.78336178711E+03  0.00000000000E+00 0.  1.
         21    1    1    2  502  501 -0.18229406105E+00 -0.78587140401E-01  0.17561746338E+00  0.26504444302E+00  0.00000000000E+00 0.  1.
<mgrwt>
<rscale>  1 0.65428626E+03</rscale>
<asrwt>0</asrwt>
<pdfrwt beam="1">  1        1 0.38999262E+00 0.65428626E+03</pdfrwt>
<pdfrwt beam="2">0</pdfrwt>
<totfact> 0.14810029E+00</totfact>
</mgrwt>
</event>
<event>
 6    1  0.1729631E-003  0.6358384E+03  0.7818608E-02  0.9833721E-01
          1   -1    0    0  502    0  0.00000000000E+00  0.00000000000E+00  0.10109653437E+03  0.10109653437E+03  0.00000000000E+00 0.  1.
         13   -1    0    0    0    0 -0.00000000000E+00 -0.00000000000E+00 -0.10000000000E+04  0.10000000000E+04  0.00000000000E+00 0.  1.
    9000005    2    1    2  501    0  0.15104323694E-01 -0.68238264596E-02 -0.89892416744E+03  0.11010700151E+04  0.63583843791E+03 0.  0.
         13    1    3    3    0    0 -0.25076697829E+03  0.58379606348E+01 -0.11121815025E+03  0.27438592553E+03  0.00000000000E+00 0.  1.
          1    1    3    3  501    0  0.25078208262E+03 -0.58447844613E+01 -0.78770601719E+03  0.82668408959E+03  0.00000000000E+00 0.  1.
         21    1    1    2  502  501 -0.15104323694E-01  0.68238264596E-02  0.20701809415E-01  0.26519240466E-01  0.00000000000E+00 0. -1.
<mgrwt>
<rscale>  1 0.63583844E+03</rscale>
<asrwt>0</asrwt>
<pdfrwt beam="1">  1        1 0.36762454E+00 0.63583844E+03</pdfrwt>
<pdfrwt beam="2">0</pdfrwt>
<totfact> 0.18649745E+00</totfact>
</mgrwt>
</event>
<event>
 6    1  0.1729631E-003  0.6106041E+03  0.7818608E-02  0.9883647E-01
          1   -1    0    0  502    0  0.00000000000E+00  0.00000000000E+00  0.93215309810E+02  0.93215309810E+02  0.00000000000E+00 0.  1.
         13   -1    0    0    0    0 -0.00000000000E+00 -0.00000000000E+00 -0.10000000000E+04  0.10000000000E+04  0.00000000000E+00 0.  1.
    9000005    2    1    2  501    0  0.28207274744E-03 -0.45941336947E-03 -0.90679063021E+03  0.10932093454E+04  0.61060414817E+03 0.  0.
         13    1    3    3    0    0 -0.14609032917E+03  0.26693637737E+03 -0.49767829875E+03  0.58333618342E+03  0.00000000000E+00 0.  1.
          3    1    3    3  501    0  0.14609061124E+03 -0.26693683678E+03 -0.40911233146E+03  0.50987316195E+03  0.00000000000E+00 0.  1.
         21    1    1    2  502  501 -0.28207274744E-03  0.45941336946E-03  0.59400235185E-02  0.59644366942E-02  0.00000000000E+00 0.  1.
<mgrwt>
<rscale>  1 0.61060415E+03</rscale>
<asrwt>0</asrwt>
<pdfrwt beam="1">  1        1 0.33896548E+00 0.61060415E+03</pdfrwt>
<pdfrwt beam="2">0</pdfrwt>
<totfact> 0.24985178E+00</totfact>
</mgrwt>
</event>
<event>
 6    1  0.1729631E-003  0.6440281E+03  0.7818608E-02  0.9818050E-01
          1   -1    0    0  502    0  0.00000000000E+00  0.00000000000E+00  0.10615316955E+03  0.10615316955E+03  0.00000000000E+00 0.  1.
         13   -1    0    0    0    0 -0.00000000000E+00 -0.00000000000E+00 -0.10000000000E+04  0.10000000000E+04  0.00000000000E+00 0.  1.
    9000005    2    1    2  501    0  0.56982342559E+01  0.37716890840E+01 -0.88903445459E+03  0.10977952707E+04  0.64399184728E+03 0.  0.
         13    1    3    3    0    0  0.25591044801E+03 -0.19556763617E+03 -0.40239882975E+03  0.51542378282E+03  0.00000000000E+00 0.  1.
          3    1    3    3  501    0 -0.25021221375E+03  0.19933932525E+03 -0.48663562484E+03  0.58237148786E+03  0.00000000000E+00 0.  1.
         21    1    1    2  502  501 -0.56982342559E+01 -0.37716890840E+01 -0.48123758561E+01  0.83578988725E+01  0.00000000000E+00 0.  1.
<mgrwt>
<rscale>  1 0.64402810E+03</rscale>
<asrwt>0</asrwt>
<pdfrwt beam="1">  1        1 0.38601234E+00 0.64402810E+03</pdfrwt>
<pdfrwt beam="2">0</pdfrwt>
<totfact> 0.15453096E+00</totfact>
</mgrwt>
</event>
<event>
 6    1  0.1729631E-003  0.6460398E+03  0.7818608E-02  0.9814239E-01
          1   -1    0    0  502    0  0.00000000000E+00  0.00000000000E+00  0.10441139511E+03  0.10441139511E+03  0.00000000000E+00 0.  1.
         13   -1    0    0    0    0 -0.00000000000E+00 -0.00000000000E+00 -0.10000000000E+04  0.10000000000E+04  0.00000000000E+00 0.  1.
    9000005    2    1    2  501    0  0.18259708655E-01  0.27614307726E-01 -0.89565377490E+03  0.11043382986E+04  0.64603977603E+03 0.  0.
         13    1    3    3    0    0  0.62301366463E+02 -0.29027879829E+03 -0.23029698946E+03  0.37573919725E+03  0.00000000000E+00 0.  1.
          1    1    3    3  501    0 -0.62283106754E+02  0.29030641260E+03 -0.66535678544E+03  0.72859910137E+03  0.00000000000E+00 0.  1.
         21    1    1    2  502  501 -0.18259708655E-01 -0.27614307726E-01  0.65170004417E-01  0.73096487105E-01  0.00000000000E+00 0.  1.
<mgrwt>
<rscale>  1 0.64603978E+03</rscale>
<asrwt>0</asrwt>
<pdfrwt beam="1">  1        1 0.37967860E+00 0.64603978E+03</pdfrwt>
<pdfrwt beam="2">0</pdfrwt>
<totfact> 0.16475377E+00</totfact>
</mgrwt>
</event>
<event>
 6    1  0.1729631E-003  0.6544188E+03  0.7818608E-02  0.9798523E-01
          1   -1    0    0  502    0  0.00000000000E+00  0.00000000000E+00  0.10861781531E+03  0.10861781531E+03  0.00000000000E+00 0.  1.
         13   -1    0    0    0    0 -0.00000000000E+00 -0.00000000000E+00 -0.10000000000E+04  0.10000000000E+04  0.00000000000E+00 0.  1.
    9000005    2    1    2  501    0 -0.10875581754E+01  0.13799928647E+00 -0.89271670271E+03  0.11068907470E+04  0.65441791897E+03 0.  0.
         13    1    3    3    0    0  0.29144907500E+03 -0.11225474362E+03 -0.60780596289E+03  0.68335333416E+03  0.00000000000E+00 0.  1.
          1    1    3    3  501    0 -0.29253663318E+03  0.11239274291E+03 -0.28491073982E+03  0.42353741284E+03  0.00000000000E+00 0.  1.
         21    1    1    2  502  501  0.10875581754E+01 -0.13799928647E+00  0.13345180229E+01  0.17270683082E+01  0.00000000000E+00 0. -1.
<mgrwt>
<rscale>  1 0.65441884E+03</rscale>
<asrwt>0</asrwt>
<pdfrwt beam="1">  1        1 0.39497471E+00 0.65441884E+03</pdfrwt>
<pdfrwt beam="2">0</pdfrwt>
<totfact> 0.14074180E+00</totfact>
</mgrwt>
</event>
<event>
 6    1  0.1729631E-003  0.6623794E+03  0.7818608E-02  0.9783823E-01
          1   -1    0    0  502    0  0.00000000000E+00  0.00000000000E+00  0.10969015200E+03  0.10969015200E+03  0.00000000000E+00 0.  1.
         13   -1    0    0    0    0 -0.00000000000E+00 -0.00000000000E+00 -0.10000000000E+04  0.10000000000E+04  0.00000000000E+00 0.  1.
    9000005    2    1    2  501    0 -0.11096134236E-03 -0.11719924194E-03 -0.89031336797E+03  0.11096866283E+04  0.66237943802E+03 0.  0.
         13    1    3    3    0    0  0.14980561124E+03  0.20277728908E+03 -0.80496188451E+03  0.84351881167E+03  0.00000000000E+00 0.  1.
          1    1    3    3  501    0 -0.14980572220E+03 -0.20277740627E+03 -0.85351483456E+02  0.26616781666E+03  0.00000000000E+00 0.  1.
         21    1    1    2  502  501  0.11096134236E-03  0.11719924193E-03  0.35199678773E-02  0.35236659800E-02  0.00000000000E+00 0.  1.
<mgrwt>
<rscale>  1 0.66237944E+03</rscale>
<asrwt>0</asrwt>
<pdfrwt beam="1">  1        1 0.39887412E+00 0.66237944E+03</pdfrwt>
<pdfrwt beam="2">0</pdfrwt>
<totfact> 0.13502654E+00</totfact>
</mgrwt>
</event>
<event>
 6    1  0.1729631E-003  0.6547472E+03  0.7818608E-02  0.9797912E-01
          1   -1    0    0  502    0  0.00000000000E+00  0.00000000000E+00  0.11030825557E+03  0.11030825557E+03  0.00000000000E+00 0.  1.
         13   -1    0    0    0    0 -0.00000000000E+00 -0.00000000000E+00 -0.10000000000E+04  0.10000000000E+04  0.00000000000E+00 0.  1.
    9000005    2    1    2  501    0  0.31841883860E+00 -0.20594612594E+01 -0.89243839026E+03  0.11068605267E+04  0.65474392117E+03 0.  0.
         13    1    3    3    0    0 -0.26622220463E+03 -0.60939458411E+02 -0.14095576813E+03  0.30733761306E+03  0.00000000000E+00 0.  1.
          1    1    3    3  501    0  0.26654062347E+03  0.58879997152E+02 -0.75148262214E+03  0.79952291361E+03  0.00000000000E+00 0.  1.
         21    1    1    2  502  501 -0.31841883860E+00  0.20594612594E+01  0.27466458361E+01  0.34477289025E+01  0.00000000000E+00 0. -1.
<mgrwt>
<rscale>  1 0.65474724E+03</rscale>
<asrwt>0</asrwt>
<pdfrwt beam="1">  1        1 0.40112178E+00 0.65474724E+03</pdfrwt>
<pdfrwt beam="2">0</pdfrwt>
<totfact> 0.13213605E+00</totfact>
</mgrwt>
</event>
<event>
 6    1  0.1729631E-003  0.5839669E+03  0.7818608E-02  0.9939239E-01
          1   -1    0    0  502    0  0.00000000000E+00  0.00000000000E+00  0.85308887034E+02  0.85308887034E+02  0.00000000000E+00 0.  1.
         13   -1    0    0    0    0 -0.00000000000E+00 -0.00000000000E+00 -0.10000000000E+04  0.10000000000E+04  0.00000000000E+00 0.  1.
    9000005    2    1    2  501    0  0.49867172461E-03 -0.50707095960E-02 -0.91474552582E+03  0.10852542362E+04  0.58396693404E+03 0.  0.
         13    1    3    3    0    0 -0.24344452384E+03 -0.71982360193E+02 -0.72544901096E+03  0.76858504010E+03  0.00000000000E+00 0.  1.
          1    1    3    3  501    0  0.24344502252E+03  0.71977289484E+02 -0.18929651486E+03  0.31666919605E+03  0.00000000000E+00 0.  1.
         21    1    1    2  502  501 -0.49867172462E-03  0.50707095960E-02  0.54412849818E-01  0.54650882835E-01  0.00000000000E+00 0. -1.
<mgrwt>
<rscale>  1 0.58396693E+03</rscale>
<asrwt>0</asrwt>
<pdfrwt beam="1">  1        1 0.31021479E+00 0.58396693E+03</pdfrwt>
<pdfrwt beam="2">0</pdfrwt>
<totfact> 0.33432010E+00</totfact>
</mgrwt>
</event>
<event>
 6    1  0.1729631E-003  0.6333573E+03  0.7818608E-02  0.9838519E-01
          1   -1    0    0  502    0  0.00000000000E+00  0.00000000000E+00  0.10028660441E+03  0.10028660441E+03  0.00000000000E+00 0.  1.
         13   -1    0    0    0    0 -0.00000000000E+00 -0.00000000000E+00 -0.10000000000E+04  0.10000000000E+04  0.00000000000E+00 0.  1.
    9000005    2    1    2  501    0 -0.14510687548E-02 -0.26288746151E-02 -0.89971223313E+03  0.11002833845E+04  0.63335726389E+03 0.  0.
         13    1    3    3    0    0  0.39677631215E+02  0.14053832747E+03  0.38300411562E+02  0.15097104833E+03  0.00000000000E+00 0.  1.
          1    1    3    3  501    0 -0.39679082284E+02 -0.14054095635E+03 -0.93801264469E+03  0.94931233615E+03  0.00000000000E+00 0.  1.
         21    1    1    2  502  501  0.14510687548E-02  0.26288746151E-02 -0.11624664423E-02  0.32199239901E-02  0.00000000000E+00 0.  1.
<mgrwt>
<rscale>  1 0.63335726E+03</rscale>
<asrwt>0</asrwt>
<pdfrwt beam="1">  1        1 0.36467933E+00 0.63335726E+03</pdfrwt>
<pdfrwt beam="2">0</pdfrwt>
<totfact> 0.19221256E+00</totfact>
</mgrwt>
</event>
<event>
 6    1  0.1729631E-003  0.6511627E+03  0.7818608E-02  0.9804600E-01
          1   -1    0    0  502    0  0.00000000000E+00  0.00000000000E+00  0.10604434675E+03  0.10604434675E+03  0.00000000000E+00 0.  1.
         13   -1    0    0    0    0 -0.00000000000E+00 -0.00000000000E+00 -0.10000000000E+04  0.10000000000E+04  0.00000000000E+00 0.  1.
    9000005    2    1    2  501    0 -0.29463090251E-01 -0.64587448305E-02 -0.89399056218E+03  0.11059982119E+04  0.65116274357E+03 0.  0.
         13    1    3    3    0    0  0.10168539845E+03  0.17089345143E+03 -0.91344449940E+01  0.19906765203E+03  0.00000000000E+00 0.  1.
          1    1    3    3  501    0 -0.10171486154E+03 -0.17089991018E+03 -0.88485611718E+03  0.90693055989E+03  0.00000000000E+00 0.  1.
         21    1    1    2  502  501  0.29463090251E-01  0.64587448305E-02  0.34908924347E-01  0.46134824926E-01  0.00000000000E+00 0.  1.
<mgrwt>
<rscale>  1 0.65116274E+03</rscale>
<asrwt>0</asrwt>
<pdfrwt beam="1">  1        1 0.38561662E+00 0.65116274E+03</pdfrwt>
<pdfrwt beam="2">0</pdfrwt>
<totfact> 0.15494983E+00</totfact>
</mgrwt>
</event>
<event>
 6    1  0.1729631E-003  0.6445068E+03  0.7818608E-02  0.9817142E-01
          1   -1    0    0  502    0  0.00000000000E+00  0.00000000000E+00  0.10384733341E+03  0.10384733341E+03  0.00000000000E+00 0.  1.
         13   -1    0    0    0    0 -0.00000000000E+00 -0.00000000000E+00 -0.10000000000E+04  0.10000000000E+04  0.00000000000E+00 0.  1.
    9000005    2    1    2  501    0  0.37307492642E-04  0.11653546014E-04 -0.89615272721E+03  0.11038472613E+04  0.64450683919E+03 0.  0.
         13    1    3    3    0    0  0.15100115463E+02 -0.96122518769E+01 -0.99914789000E+03  0.99930821820E+03  0.00000000000E+00 0.  1.
          1    1    3    3  501    0 -0.15100078156E+02  0.96122635305E+01  0.10299516279E+03  0.10453904308E+03  0.00000000000E+00 0.  1.
         21    1    1    2  502  501 -0.37307492642E-04 -0.11653546015E-04  0.60617544292E-04  0.72125867883E-04  0.00000000000E+00 0. -1.
<mgrwt>
<rscale>  1 0.64450684E+03</rscale>
<asrwt>0</asrwt>
<pdfrwt beam="1">  1        1 0.37762746E+00 0.64450684E+03</pdfrwt>
<pdfrwt beam="2">0</pdfrwt>
<totfact> 0.16826810E+00</totfact>
</mgrwt>
</event>
<event>
 6    1  0.1729631E-003  0.6639071E+03  0.7818608E-02  0.9781028E-01
          3   -1    0    0  502    0  0.00000000000E+00  0.00000000000E+00  0.11020116697E+03  0.11020116697E+03  0.00000000000E+00 0.  1.
         13   -1    0    0    0    0 -0.00000000000E+00 -0.00000000000E+00 -0.10000000000E+04  0.10000000000E+04  0.00000000000E+00 0.  1.
    9000005    2    1    2  501    0  0.49144943375E-04  0.26040215646E-03 -0.88980682779E+03  0.11101931678E+04  0.66390713137E+03 0.  0.
         13    1    3    3    0    0 -0.26902248045E+03 -0.87647566433E+02 -0.15460268388E+03  0.32242391467E+03  0.00000000000E+00 0.  1.
          1    1    3    3  501    0  0.26902252959E+03  0.87647826835E+02 -0.73520414391E+03  0.78776925315E+03  0.00000000000E+00 0.  1.
         21    1    1    2  502  501 -0.49144943365E-04 -0.26040215646E-03  0.79947664903E-02  0.79991571896E-02  0.00000000000E+00 0. -1.
<mgrwt>
<rscale>  1 0.66390713E+03</rscale>
<asrwt>0</asrwt>
<pdfrwt beam="1">  1        3 0.40073236E+00 0.66390713E+03</pdfrwt>
<pdfrwt beam="2">0</pdfrwt>
<totfact> 0.58578773E-02</totfact>
</mgrwt>
</event>
<event>
 6    1  0.1729631E-003  0.6578980E+03  0.7818608E-02  0.9792071E-01
          1   -1    0    0  502    0  0.00000000000E+00  0.00000000000E+00  0.11076082213E+03  0.11076082213E+03  0.00000000000E+00 0.  1.
         13   -1    0    0    0    0 -0.00000000000E+00 -0.00000000000E+00 -0.10000000000E+04  0.10000000000E+04  0.00000000000E+00 0.  1.
    9000005    2    1    2  501    0 -0.48019506986E-01  0.14050291383E-01 -0.89179228634E+03  0.11082072235E+04  0.65789799032E+03 0.  0.
         13    1    3    3    0    0  0.14438565235E+03 -0.23655952557E+03 -0.14743639109E+03  0.31391896273E+03  0.00000000000E+00 0.  1.
          3    1    3    3  501    0 -0.14443367185E+03  0.23657357586E+03 -0.74435589525E+03  0.79428826074E+03  0.00000000000E+00 0.  1.
         21    1    1    2  502  501  0.48019506986E-01 -0.14050291383E-01  0.25531084676E+01  0.25535986629E+01  0.00000000000E+00 0.  1.
<mgrwt>
<rscale>  1 0.65789799E+03</rscale>
<asrwt>0</asrwt>
<pdfrwt beam="1">  1        1 0.40276748E+00 0.65789799E+03</pdfrwt>
<pdfrwt beam="2">0</pdfrwt>
<totfact> 0.12984264E+00</totfact>
</mgrwt>
</event>
<event>
 6    1  0.1729631E-003  0.6506015E+03  0.7818608E-02  0.9805651E-01
          1   -1    0    0  502    0  0.00000000000E+00  0.00000000000E+00  0.10583844455E+03  0.10583844455E+03  0.00000000000E+00 0.  1.
         13   -1    0    0    0    0 -0.00000000000E+00 -0.00000000000E+00 -0.10000000000E+04  0.10000000000E+04  0.00000000000E+00 0.  1.
    9000005    2    1    2  501    0 -0.38758235617E-02 -0.52338594862E-02 -0.89417877674E+03  0.11058200329E+04  0.65060146050E+03 0.  0.
         13    1    3    3    0    0 -0.21530454998E+03  0.23577809650E+03 -0.55286335664E+03  0.63843970047E+03  0.00000000000E+00 0.  1.
          1    1    3    3  501    0  0.21530067415E+03 -0.23578333035E+03 -0.34131542010E+03  0.46738033245E+03  0.00000000000E+00 0.  1.
         21    1    1    2  502  501  0.38758235617E-02  0.52338594862E-02  0.17221282284E-01  0.18411622876E-01  0.00000000000E+00 0. -1.
<mgrwt>
<rscale>  1 0.65060146E+03</rscale>
<asrwt>0</asrwt>
<pdfrwt beam="1">  1        1 0.38486788E+00 0.65060146E+03</pdfrwt>
<pdfrwt beam="2">0</pdfrwt>
<totfact> 0.15615230E+00</totfact>
</mgrwt>
</event>
<event>
 6    1  0.1729631E-003  0.6479862E+03  0.7818608E-02  0.9810565E-01
          1   -1    0    0  502    0  0.00000000000E+00  0.00000000000E+00  0.10497463305E+03  0.10497463305E+03  0.00000000000E+00 0.  1.
         13   -1    0    0    0    0 -0.00000000000E+00 -0.00000000000E+00 -0.10000000000E+04  0.10000000000E+04  0.00000000000E+00 0.  1.
    9000005    2    1    2  501    0  0.76527360685E-02  0.48084751397E-02 -0.89501754243E+03  0.11049626786E+04  0.64798620337E+03 0.  0.
         13    1    3    3    0    0  0.13932985516E+03 -0.26543376875E+03 -0.65707372405E+03  0.72222833852E+03  0.00000000000E+00 0.  1.
          3    1    3    3  501    0 -0.13932220242E+03  0.26543857722E+03 -0.23794381839E+03  0.38273434008E+03  0.00000000000E+00 0.  1.
         21    1    1    2  502  501 -0.76527360685E-02 -0.48084751397E-02 -0.78245161492E-02  0.11954449192E-01  0.00000000000E+00 0.  1.
<mgrwt>
<rscale>  1 0.64798620E+03</rscale>
<asrwt>0</asrwt>
<pdfrwt beam="1">  1        1 0.38172674E+00 0.64798620E+03</pdfrwt>
<pdfrwt beam="2">0</pdfrwt>
<totfact> 0.16130205E+00</totfact>
</mgrwt>
</event>
<event>
 6    1  0.1729631E-003  0.6519638E+03  0.7818608E-02  0.9803101E-01
          1   -1    0    0  502    0  0.00000000000E+00  0.00000000000E+00  0.10626451681E+03  0.10626451681E+03  0.00000000000E+00 0.  1.
         13   -1    0    0    0    0 -0.00000000000E+00 -0.00000000000E+00 -0.10000000000E+04  0.10000000000E+04  0.00000000000E+00 0.  1.
    9000005    2    1    2  501    0 -0.33455358301E-04  0.31250797747E-04 -0.89373581229E+03  0.11062641845E+04  0.65196375961E+03 0.  0.
         13    1    3    3    0    0  0.12808771146E+02  0.31740780188E+03 -0.57100754664E+03  0.65342283067E+03  0.00000000000E+00 0.  1.
          3    1    3    3  501    0 -0.12808804601E+02 -0.31740777063E+03 -0.32272826565E+03  0.45284135388E+03  0.00000000000E+00 0.  1.
         21    1    1    2  502  501  0.33455358299E-04 -0.31250797741E-04  0.32909454861E-03  0.33226359307E-03  0.00000000000E+00 0.  1.
<mgrwt>
<rscale>  1 0.65196376E+03</rscale>
<asrwt>0</asrwt>
<pdfrwt beam="1">  1        1 0.38641724E+00 0.65196376E+03</pdfrwt>
<pdfrwt beam="2">0</pdfrwt>
<totfact> 0.15366807E+00</totfact>
</mgrwt>
</event>
<event>
 6    1  0.1729631E-003  0.6464433E+03  0.7818608E-02  0.9813476E-01
          1   -1    0    0  502    0  0.00000000000E+00  0.00000000000E+00  0.10449505973E+03  0.10449505973E+03  0.00000000000E+00 0.  1.
         13   -1    0    0    0    0 -0.00000000000E+00 -0.00000000000E+00 -0.10000000000E+04  0.10000000000E+04  0.00000000000E+00 0.  1.
    9000005    2    1    2  501    0  0.18618041303E-01  0.13477561500E-01 -0.89552117754E+03  0.11044669186E+04  0.64644334187E+03 0.  0.
         13    1    3    3    0    0  0.91711921476E+02 -0.20510569701E+03 -0.84475422220E+03  0.87412191336E+03  0.00000000000E+00 0.  1.
          3    1    3    3  501    0 -0.91693303435E+02  0.20511917457E+03 -0.50766955339E+02  0.23034500521E+03  0.00000000000E+00 0.  1.
         21    1    1    2  502  501 -0.18618041303E-01 -0.13477561500E-01  0.16237276999E-01  0.28141167181E-01  0.00000000000E+00 0. -1.
<mgrwt>
<rscale>  1 0.64644334E+03</rscale>
<asrwt>0</asrwt>
<pdfrwt beam="1">  1        1 0.37998284E+00 0.64644334E+03</pdfrwt>
<pdfrwt beam="2">0</pdfrwt>
<totfact> 0.16423318E+00</totfact>
</mgrwt>
</event>
<event>
 6    1  0.1729631E-003  0.6533785E+03  0.7818608E-02  0.9800460E-01
          3   -1    0    0  502    0  0.00000000000E+00  0.00000000000E+00  0.12129810269E+03  0.12129810269E+03  0.00000000000E+00 0.  1.
         13   -1    0    0    0    0 -0.00000000000E+00 -0.00000000000E+00 -0.10000000000E+04  0.10000000000E+04  0.00000000000E+00 0.  1.
    9000005    2    1    2  501    0 -0.50868394916E+01  0.11540287766E+02 -0.89019028264E+03  0.11042382910E+04  0.65325677173E+03 0.  0.
         13    1    3    3    0    0  0.20164029336E+03  0.25946807228E+03 -0.40625137370E+03  0.52251570988E+03  0.00000000000E+00 0.  1.
          3    1    3    3  501    0 -0.20672713285E+03 -0.24792778451E+03 -0.48393890894E+03  0.58172258111E+03  0.00000000000E+00 0.  1.
         21    1    1    2  502  501  0.50868394916E+01 -0.11540287766E+02  0.11488385330E+02  0.17059811699E+02  0.00000000000E+00 0.  1.
<mgrwt>
<rscale>  1 0.65337850E+03</rscale>
<asrwt>0</asrwt>
<pdfrwt beam="1">  1        3 0.44108494E+00 0.65337850E+03</pdfrwt>
<pdfrwt beam="2">0</pdfrwt>
<totfact> 0.36275746E-02</totfact>
</mgrwt>
</event>
<event>
 6    1  0.1729631E-003  0.6427355E+03  0.7818608E-02  0.9820507E-01
          1   -1    0    0  502    0  0.00000000000E+00  0.00000000000E+00  0.10327835811E+03  0.10327835811E+03  0.00000000000E+00 0.  1.
         13   -1    0    0    0    0 -0.00000000000E+00 -0.00000000000E+00 -0.10000000000E+04  0.10000000000E+04  0.00000000000E+00 0.  1.
    9000005    2    1    2  501    0  0.11244885431E-03  0.10687089589E-02 -0.89672247192E+03  0.11032770003E+04  0.64273551924E+03 0.  0.
         13    1    3    3    0    0 -0.17205187363E+03  0.29919360430E+02  0.14721896682E+02  0.17525338681E+03  0.00000000000E+00 0.  1.
          1    1    3    3  501    0  0.17205198608E+03 -0.29918291721E+02 -0.91144436860E+03  0.92802361346E+03  0.00000000000E+00 0.  1.
         21    1    1    2  502  501 -0.11244885430E-03 -0.10687089589E-02  0.83002841038E-03  0.13578404713E-02  0.00000000000E+00 0.  1.
<mgrwt>
<rscale>  1 0.64273552E+03</rscale>
<asrwt>0</asrwt>
<pdfrwt beam="1">  1        1 0.37555846E+00 0.64273552E+03</pdfrwt>
<pdfrwt beam="2">0</pdfrwt>
<totfact> 0.17189245E+00</totfact>
</mgrwt>
</event>
<event>
 6    1  0.1729631E-003  0.6581021E+03  0.7818608E-02  0.9791694E-01
          1   -1    0    0  502    0  0.00000000000E+00  0.00000000000E+00  0.10850369098E+03  0.10850369098E+03  0.00000000000E+00 0.  1.
         13   -1    0    0    0    0 -0.00000000000E+00 -0.00000000000E+00 -0.10000000000E+04  0.10000000000E+04  0.00000000000E+00 0.  1.
    9000005    2    1    2  501    0 -0.25311800601E-02  0.36206482923E-02 -0.89172538335E+03  0.11082745741E+04  0.65810209859E+03 0.  0.
         13    1    3    3    0    0 -0.24452528377E+03 -0.48093460708E+02 -0.84011247672E+02  0.26298951519E+03  0.00000000000E+00 0.  1.
          3    1    3    3  501    0  0.24452275259E+03  0.48097081357E+02 -0.80771413568E+03  0.84528505887E+03  0.00000000000E+00 0.  1.
         21    1    1    2  502  501  0.25311800601E-02 -0.36206482923E-02  0.22907432796E+00  0.22911692146E+00  0.00000000000E+00 0. -1.
<mgrwt>
<rscale>  1 0.65810210E+03</rscale>
<asrwt>0</asrwt>
<pdfrwt beam="1">  1        1 0.39455971E+00 0.65810210E+03</pdfrwt>
<pdfrwt beam="2">0</pdfrwt>
<totfact> 0.14124377E+00</totfact>
</mgrwt>
</event>
<event>
 6    1  0.1729631E-003  0.5494378E+03  0.7818608E-02  0.1001624E+00
          1   -1    0    0  502    0  0.00000000000E+00  0.00000000000E+00  0.79177692956E+02  0.79177692956E+02  0.00000000000E+00 0.  1.
         13   -1    0    0    0    0 -0.00000000000E+00 -0.00000000000E+00 -0.10000000000E+04  0.10000000000E+04  0.00000000000E+00 0.  1.
    9000005    2    1    2  501    0  0.64800982173E-01 -0.94563556546E+00 -0.92446429615E+03  0.10754143819E+04  0.54943694762E+03 0.  0.
         13    1    3    3    0    0 -0.95640390950E+02  0.25429804888E+03 -0.53494493237E+03  0.59998388538E+03  0.00000000000E+00 0.  1.
          1    1    3    3  501    0  0.95705191932E+02 -0.25524368445E+03 -0.38951936379E+03  0.47543049647E+03  0.00000000000E+00 0.  1.
         21    1    1    2  502  501 -0.64800982173E-01  0.94563556546E+00  0.36419891089E+01  0.37633111031E+01  0.00000000000E+00 0. -1.
<mgrwt>
<rscale>  1 0.54943777E+03</rscale>
<asrwt>0</asrwt>
<pdfrwt beam="1">  1        1 0.28791949E+00 0.54943777E+03</pdfrwt>
<pdfrwt beam="2">0</pdfrwt>
<totfact> 0.41974459E+00</totfact>
</mgrwt>
</event>
<event>
 6    1  0.1729631E-003  0.6490142E+03  0.7818608E-02  0.9808631E-01
          1   -1    0    0  502    0  0.00000000000E+00  0.00000000000E+00  0.10530562333E+03  0.10530562333E+03  0.00000000000E+00 0.  1.
         13   -1    0    0    0    0 -0.00000000000E+00 -0.00000000000E+00 -0.10000000000E+04  0.10000000000E+04  0.00000000000E+00 0.  1.
    9000005    2    1    2  501    0 -0.15233609724E-03  0.19025482628E-03 -0.89469511320E+03  0.11053048475E+04  0.64901422202E+03 0.  0.
         13    1    3    3    0    0 -0.44898538814E+02  0.10936318064E+03  0.67325543458E+02  0.13604746550E+03  0.00000000000E+00 0.  1.
          3    1    3    3  501    0  0.44898386478E+02 -0.10936299038E+03 -0.96202065666E+03  0.96925738202E+03  0.00000000000E+00 0.  1.
         21    1    1    2  502  501  0.15233609723E-03 -0.19025482628E-03  0.73652951303E-03  0.77580855177E-03  0.00000000000E+00 0. -1.
<mgrwt>
<rscale>  1 0.64901422E+03</rscale>
<asrwt>0</asrwt>
<pdfrwt beam="1">  1        1 0.38293035E+00 0.64901422E+03</pdfrwt>
<pdfrwt beam="2">0</pdfrwt>
<totfact> 0.15930924E+00</totfact>
</mgrwt>
</event>
<event>
 6    1  0.1729631E-003  0.6107278E+03  0.7818608E-02  0.9883396E-01
          1   -1    0    0  502    0  0.00000000000E+00  0.00000000000E+00  0.93413871440E+02  0.93413871440E+02  0.00000000000E+00 0.  1.
         13   -1    0    0    0    0 -0.00000000000E+00 -0.00000000000E+00 -0.10000000000E+04  0.10000000000E+04  0.00000000000E+00 0.  1.
    9000005    2    1    2  501    0 -0.60511281314E-02  0.68628293839E-02 -0.90675274958E+03  0.10932469994E+04  0.61072780575E+03 0.  0.
         13    1    3    3    0    0 -0.43493998160E+02 -0.14369369571E+02 -0.99381582750E+03  0.99487089899E+03  0.00000000000E+00 0.  1.
          3    1    3    3  501    0  0.43487947032E+02  0.14376232400E+02  0.87063077917E+02  0.98376100408E+02  0.00000000000E+00 0.  1.
         21    1    1    2  502  501  0.60511281314E-02 -0.68628293839E-02  0.16662102345E+00  0.16687204690E+00  0.00000000000E+00 0.  1.
<mgrwt>
<rscale>  1 0.61072781E+03</rscale>
<asrwt>0</asrwt>
<pdfrwt beam="1">  1        1 0.33968752E+00 0.61072781E+03</pdfrwt>
<pdfrwt beam="2">0</pdfrwt>
<totfact> 0.24804899E+00</totfact>
</mgrwt>
</event>
<event>
 6    1  0.1951972E-003  0.6499010E+03  0.7818608E-02  0.9806965E-01
          1   -1    0    0  502    0  0.00000000000E+00  0.00000000000E+00  0.10559284525E+03  0.10559284525E+03  0.00000000000E+00 0.  1.
         13   -1    0    0    0    0 -0.00000000000E+00 -0.00000000000E+00 -0.10000000000E+04  0.10000000000E+04  0.00000000000E+00 0.  1.
    9000005    2    1    2  501    0 -0.46439838863E-04 -0.32289041997E-04 -0.89440708263E+03  0.11055927536E+04  0.64990099812E+03 0.  0.
         13    1    3    3    0    0  0.13648292408E+02 -0.17164619002E+03 -0.91601166339E+03  0.93205475048E+03  0.00000000000E+00 0.  1.
          3    1    3    3  501    0 -0.13648338847E+02  0.17164615773E+03  0.21604580758E+02  0.17353800312E+03  0.00000000000E+00 0.  1.
         21    1    1    2  502  501  0.46439838864E-04  0.32289041982E-04 -0.72117048971E-04  0.91652111913E-04  0.00000000000E+00 0. -1.
<mgrwt>
<rscale>  1 0.64990100E+03</rscale>
<asrwt>0</asrwt>
<pdfrwt beam="1">  1        1 0.38397479E+00 0.64990100E+03</pdfrwt>
<pdfrwt beam="2">0</pdfrwt>
<totfact> 0.15759910E+00</totfact>
</mgrwt>
</event>
<event>
 6    1  0.1729631E-003  0.6531778E+03  0.7818608E-02  0.9800835E-01
          3   -1    0    0  502    0  0.00000000000E+00  0.00000000000E+00  0.10667410768E+03  0.10667410768E+03  0.00000000000E+00 0.  1.
         13   -1    0    0    0    0 -0.00000000000E+00 -0.00000000000E+00 -0.10000000000E+04  0.10000000000E+04  0.00000000000E+00 0.  1.
    9000005    2    1    2  501    0  0.14705333258E-03  0.66668891117E-03 -0.89333969416E+03  0.11066602890E+04  0.65317775989E+03 0.  0.
         13    1    3    3    0    0 -0.93611852675E+02  0.14637911970E+03 -0.91519148418E+03  0.93153930586E+03  0.00000000000E+00 0.  1.
          3    1    3    3  501    0  0.93611999728E+02 -0.14637845301E+03  0.21851790018E+02  0.17512098311E+03  0.00000000000E+00 0.  1.
         21    1    1    2  502  501 -0.14705333258E-03 -0.66668891116E-03  0.13801833956E-01  0.13818709033E-01  0.00000000000E+00 0. -1.
<mgrwt>
<rscale>  1 0.65317776E+03</rscale>
<asrwt>0</asrwt>
<pdfrwt beam="1">  1        3 0.38790666E+00 0.65317776E+03</pdfrwt>
<pdfrwt beam="2">0</pdfrwt>
<totfact> 0.68532241E-02</totfact>
</mgrwt>
</event>
<event>
 6    1  0.1729631E-003  0.6397197E+03  0.7818608E-02  0.9826263E-01
          1   -1    0    0  502    0  0.00000000000E+00  0.00000000000E+00  0.10231034450E+03  0.10231034450E+03  0.00000000000E+00 0.  1.
         13   -1    0    0    0    0 -0.00000000000E+00 -0.00000000000E+00 -0.10000000000E+04  0.10000000000E+04  0.00000000000E+00 0.  1.
    9000005    2    1    2  501    0 -0.11043947339E-04 -0.23188603535E-05 -0.89768967129E+03  0.11023103251E+04  0.63971970960E+03 0.  0.
         13    1    3    3    0    0  0.25087804113E+02 -0.67784424416E+02 -0.98574420802E+03  0.98839049457E+03  0.00000000000E+00 0.  1.
          1    1    3    3  501    0 -0.25087815157E+02  0.67784422098E+02  0.88054536726E+02  0.11391983052E+03  0.00000000000E+00 0.  1.
         21    1    1    2  502  501  0.11043947337E-04  0.23188603569E-05  0.15793971940E-04  0.19411219328E-04  0.00000000000E+00 0.  1.
<mgrwt>
<rscale>  1 0.63971971E+03</rscale>
<asrwt>0</asrwt>
<pdfrwt beam="1">  1        1 0.37203840E+00 0.63971971E+03</pdfrwt>
<pdfrwt beam="2">0</pdfrwt>
<totfact> 0.17823061E+00</totfact>
</mgrwt>
</event>
<event>
 6    1  0.1729631E-003  0.6405872E+03  0.7818608E-02  0.9824604E-01
          1   -1    0    0  502    0  0.00000000000E+00  0.00000000000E+00  0.10258810877E+03  0.10258810877E+03  0.00000000000E+00 0.  1.
         13   -1    0    0    0    0 -0.00000000000E+00 -0.00000000000E+00 -0.10000000000E+04  0.10000000000E+04  0.00000000000E+00 0.  1.
    9000005    2    1    2  501    0 -0.45976331506E-05 -0.14683075591E-05 -0.89741200431E+03  0.11025879956E+04  0.64058721695E+03 0.  0.
         13    1    3    3    0    0 -0.59521510956E+02  0.75881268061E+02  0.77003786982E+02  0.12341134599E+03  0.00000000000E+00 0.  1.
          3    1    3    3  501    0  0.59521506358E+02 -0.75881269529E+02 -0.97441579130E+03  0.97917664959E+03  0.00000000000E+00 0.  1.
         21    1    1    2  502  501  0.45976331488E-05  0.14683075594E-05  0.11308872754E-03  0.11319167131E-03  0.00000000000E+00 0.  1.
<mgrwt>
<rscale>  1 0.64058722E+03</rscale>
<asrwt>0</asrwt>
<pdfrwt beam="1">  1        1 0.37304845E+00 0.64058722E+03</pdfrwt>
<pdfrwt beam="2">0</pdfrwt>
<totfact> 0.17638939E+00</totfact>
</mgrwt>
</event>
<event>
 6    1  0.1729631E-003  0.6442477E+03  0.7818608E-02  0.9817633E-01
          1   -1    0    0  502    0  0.00000000000E+00  0.00000000000E+00  0.10394044897E+03  0.10394044897E+03  0.00000000000E+00 0.  1.
         13   -1    0    0    0    0 -0.00000000000E+00 -0.00000000000E+00 -0.10000000000E+04  0.10000000000E+04  0.00000000000E+00 0.  1.
    9000005    2    1    2  501    0 -0.68296084907E-01 -0.26609681532E+00 -0.89610986630E+03  0.11036611579E+04  0.64424761041E+03 0.  0.
         13    1    3    3    0    0 -0.19339250946E+03 -0.13789869787E+03 -0.82111891158E+03  0.85478241708E+03  0.00000000000E+00 0.  1.
          3    1    3    3  501    0  0.19332421337E+03  0.13763260106E+03 -0.74990954721E+02  0.24887874083E+03  0.00000000000E+00 0.  1.
         21    1    1    2  502  501  0.68296084907E-01  0.26609681532E+00  0.50315270026E-01  0.27929106097E+00  0.00000000000E+00 0.  1.
<mgrwt>
<rscale>  1 0.64424767E+03</rscale>
<asrwt>0</asrwt>
<pdfrwt beam="1">  1        1 0.37796607E+00 0.64424767E+03</pdfrwt>
<pdfrwt beam="2">0</pdfrwt>
<totfact> 0.16769883E+00</totfact>
</mgrwt>
</event>
<event>
 6    1  0.1729631E-003  0.6566856E+03  0.7818608E-02  0.9794314E-01
          1   -1    0    0  502    0  0.00000000000E+00  0.00000000000E+00  0.10781634605E+03  0.10781634605E+03  0.00000000000E+00 0.  1.
         13   -1    0    0    0    0 -0.00000000000E+00 -0.00000000000E+00 -0.10000000000E+04  0.10000000000E+04  0.00000000000E+00 0.  1.
    9000005    2    1    2  501    0  0.15269864270E-02  0.20096255699E-02 -0.89219076754E+03  0.11078087980E+04  0.65668559234E+03 0.  0.
         13    1    3    3    0    0 -0.13113427451E+03  0.19135631367E+03 -0.83809666871E+03  0.86960879873E+03  0.00000000000E+00 0.  1.
          1    1    3    3  501    0  0.13113580150E+03 -0.19135430404E+03 -0.54094098834E+02  0.23819999924E+03  0.00000000000E+00 0.  1.
         21    1    1    2  502  501 -0.15269864270E-02 -0.20096255699E-02  0.71135895311E-02  0.75480751518E-02  0.00000000000E+00 0. -1.
<mgrwt>
<rscale>  1 0.65668559E+03</rscale>
<asrwt>0</asrwt>
<pdfrwt beam="1">  1        1 0.39206027E+00 0.65668559E+03</pdfrwt>
<pdfrwt beam="2">0</pdfrwt>
<totfact> 0.14493989E+00</totfact>
</mgrwt>
</event>
<event>
 6    1  0.1729631E-003  0.6434992E+03  0.7818608E-02  0.9819055E-01
          1   -1    0    0  502    0  0.00000000000E+00  0.00000000000E+00  0.10352280348E+03  0.10352280348E+03  0.00000000000E+00 0.  1.
         13   -1    0    0    0    0 -0.00000000000E+00 -0.00000000000E+00 -0.10000000000E+04  0.10000000000E+04  0.00000000000E+00 0.  1.
    9000005    2    1    2  501    0  0.44559664047E-05 -0.43362984385E-05 -0.89647720044E+03  0.11035227961E+04  0.64349917690E+03 0.  0.
         13    1    3    3    0    0 -0.15522294734E+03 -0.38052330110E+02 -0.92711865447E+03  0.94079282665E+03  0.00000000000E+00 0.  1.
          1    1    3    3  501    0  0.15522295180E+03  0.38052325774E+02  0.30641454033E+02  0.16272996948E+03  0.00000000000E+00 0.  1.
         21    1    1    2  502  501 -0.44559664135E-05  0.43362984399E-05  0.39163241479E-05  0.73482457546E-05  0.00000000000E+00 0.  1.
<mgrwt>
<rscale>  1 0.64349918E+03</rscale>
<asrwt>0</asrwt>
<pdfrwt beam="1">  1        1 0.37644735E+00 0.64349918E+03</pdfrwt>
<pdfrwt beam="2">0</pdfrwt>
<totfact> 0.17032623E+00</totfact>
</mgrwt>
</event>
<event>
 6    1  0.1729631E-003  0.6478140E+03  0.7818608E-02  0.9810890E-01
          1   -1    0    0  502    0  0.00000000000E+00  0.00000000000E+00  0.10491604778E+03  0.10491604778E+03  0.00000000000E+00 0.  1.
         13   -1    0    0    0    0 -0.00000000000E+00 -0.00000000000E+00 -0.10000000000E+04  0.10000000000E+04  0.00000000000E+00 0.  1.
    9000005    2    1    2  501    0  0.22231300250E-05  0.66103830463E-05 -0.89508426681E+03  0.11049157331E+04  0.64781396450E+03 0.  0.
         13    1    3    3    0    0 -0.29004236723E+03 -0.62933037605E+02 -0.66881518175E+03  0.73170956625E+03  0.00000000000E+00 0.  1.
          1    1    3    3  501    0  0.29004236945E+03  0.62933044215E+02 -0.22626908506E+03  0.37320616687E+03  0.00000000000E+00 0.  1.
         21    1    1    2  502  501 -0.22231300064E-05 -0.66103830452E-05  0.31458219173E-03  0.31465949028E-03  0.00000000000E+00 0.  1.
<mgrwt>
<rscale>  1 0.64781396E+03</rscale>
<asrwt>0</asrwt>
<pdfrwt beam="1">  1        1 0.38151371E+00 0.64781396E+03</pdfrwt>
<pdfrwt beam="2">0</pdfrwt>
<totfact> 0.16165695E+00</totfact>
</mgrwt>
</event>
<event>
 6    1  0.1729631E-003  0.6565433E+03  0.7818608E-02  0.9794578E-01
          1   -1    0    0  502    0  0.00000000000E+00  0.00000000000E+00  0.10776236673E+03  0.10776236673E+03  0.00000000000E+00 0.  1.
         13   -1    0    0    0    0 -0.00000000000E+00 -0.00000000000E+00 -0.10000000000E+04  0.10000000000E+04  0.00000000000E+00 0.  1.
    9000005    2    1    2  501    0  0.10649445036E-03  0.26869511672E-03 -0.89223737421E+03  0.11077619786E+04  0.65654327298E+03 0.  0.
         13    1    3    3    0    0  0.22041765163E+03  0.22545844488E+03 -0.29196809034E+03  0.42972179058E+03  0.00000000000E+00 0.  1.
          1    1    3    3  501    0 -0.22041754514E+03 -0.22545817619E+03 -0.60026928387E+03  0.67804018802E+03  0.00000000000E+00 0.  1.
         21    1    1    2  502  501 -0.10649445035E-03 -0.26869511671E-03 -0.25906021851E-03  0.38813699968E-03  0.00000000000E+00 0.  1.
<mgrwt>
<rscale>  1 0.65654327E+03</rscale>
<asrwt>0</asrwt>
<pdfrwt beam="1">  1        1 0.39186398E+00 0.65654327E+03</pdfrwt>
<pdfrwt beam="2">0</pdfrwt>
<totfact> 0.14523484E+00</totfact>
</mgrwt>
</event>
<event>
 6    1  0.1729631E-003  0.6329673E+03  0.7818608E-02  0.9839275E-01
          1   -1    0    0  502    0  0.00000000000E+00  0.00000000000E+00  0.10031802007E+03  0.10031802007E+03  0.00000000000E+00 0.  1.
         13   -1    0    0    0    0 -0.00000000000E+00 -0.00000000000E+00 -0.10000000000E+04  0.10000000000E+04  0.00000000000E+00 0.  1.
    9000005    2    1    2  501    0  0.27171214532E-03  0.29268754694E-01 -0.89983660212E+03  0.11001606519E+04  0.63296725708E+03 0.  0.
         13    1    3    3    0    0  0.16699418402E+03  0.17342482307E+03 -0.92862119018E+02  0.25804379454E+03  0.00000000000E+00 0.  1.
          1    1    3    3  501    0 -0.16699391231E+03 -0.17339555431E+03 -0.80697448310E+03  0.84211685732E+03  0.00000000000E+00 0.  1.
         21    1    1    2  502  501 -0.27171214532E-03 -0.29268754694E-01  0.15462218635E+00  0.15736821261E+00  0.00000000000E+00 0.  1.
<mgrwt>
<rscale>  1 0.63296726E+03</rscale>
<asrwt>0</asrwt>
<pdfrwt beam="1">  1        1 0.36479357E+00 0.63296726E+03</pdfrwt>
<pdfrwt beam="2">0</pdfrwt>
<totfact> 0.19200471E+00</totfact>
</mgrwt>
</event>
<event>
 6    1  0.1729631E-003  0.6459965E+03  0.7818608E-02  0.9814321E-01
          1   -1    0    0  502    0  0.00000000000E+00  0.00000000000E+00  0.10432789794E+03  0.10432789794E+03  0.00000000000E+00 0.  1.
         13   -1    0    0    0    0 -0.00000000000E+00 -0.00000000000E+00 -0.10000000000E+04  0.10000000000E+04  0.00000000000E+00 0.  1.
    9000005    2    1    2  501    0 -0.23685107195E-04 -0.14700123671E-04 -0.89567211196E+03  0.11043278684E+04  0.64599652375E+03 0.  0.
         13    1    3    3    0    0 -0.46375900744E+02 -0.20215908373E+03 -0.24554378840E+02  0.20885865274E+03  0.00000000000E+00 0.  1.
          3    1    3    3  501    0  0.46375877059E+02  0.20215906903E+03 -0.87111773312E+03  0.89546921562E+03  0.00000000000E+00 0.  1.
         21    1    1    2  502  501  0.23685107191E-04  0.14700123656E-04  0.99003787747E-05  0.29582012068E-04  0.00000000000E+00 0.  1.
<mgrwt>
<rscale>  1 0.64599652E+03</rscale>
<asrwt>0</asrwt>
<pdfrwt beam="1">  1        1 0.37937497E+00 0.64599652E+03</pdfrwt>
<pdfrwt beam="2">0</pdfrwt>
<totfact> 0.16526397E+00</totfact>
</mgrwt>
</event>
<event>
 6    1  0.1729631E-003  0.6465185E+03  0.7818608E-02  0.9813334E-01
          1   -1    0    0  502    0  0.00000000000E+00  0.00000000000E+00  0.10463532152E+03  0.10463532152E+03  0.00000000000E+00 0.  1.
         13   -1    0    0    0    0 -0.00000000000E+00 -0.00000000000E+00 -0.10000000000E+04  0.10000000000E+04  0.00000000000E+00 0.  1.
    9000005    2    1    2  501    0  0.23555554101E-01 -0.13072701252E-01 -0.89550201607E+03  0.11044953666E+04  0.64651848651E+03 0.  0.
         13    1    3    3    0    0  0.21866275691E+03 -0.23228033293E+03 -0.35838986792E+03  0.47980293012E+03  0.00000000000E+00 0.  1.
          3    1    3    3  501    0 -0.21863920136E+03  0.23226726022E+03 -0.53711214815E+03  0.62469243651E+03  0.00000000000E+00 0.  1.
         21    1    1    2  502  501 -0.23555554101E-01  0.13072701252E-01  0.13733759089E+00  0.13995489816E+00  0.00000000000E+00 0.  1.
<mgrwt>
<rscale>  1 0.64651849E+03</rscale>
<asrwt>0</asrwt>
<pdfrwt beam="1">  1        1 0.38049288E+00 0.64651849E+03</pdfrwt>
<pdfrwt beam="2">0</pdfrwt>
<totfact> 0.16338200E+00</totfact>
</mgrwt>
</event>
<event>
 6    1  0.1729631E-003  0.6418269E+03  0.7818608E-02  0.9822237E-01
          1   -1    0    0  502    0  0.00000000000E+00  0.00000000000E+00  0.10327908407E+03  0.10327908407E+03  0.00000000000E+00 0.  1.
         13   -1    0    0    0    0 -0.00000000000E+00 -0.00000000000E+00 -0.10000000000E+04  0.10000000000E+04  0.00000000000E+00 0.  1.
    9000005    2    1    2  501    0 -0.89140875113E-01  0.45695180580E-01 -0.89700509956E+03  0.11029777628E+04  0.64182691331E+03 0.  0.
         13    1    3    3    0    0  0.22697194497E+03 -0.12627786544E+03 -0.12466955382E+03  0.28810564165E+03  0.00000000000E+00 0.  1.
          3    1    3    3  501    0 -0.22706108584E+03  0.12632356062E+03 -0.77233554574E+03  0.81487212119E+03  0.00000000000E+00 0.  1.
         21    1    1    2  502  501  0.89140875113E-01 -0.45695180580E-01  0.28418363334E+00  0.30132122827E+00  0.00000000000E+00 0. -1.
<mgrwt>
<rscale>  1 0.64182692E+03</rscale>
<asrwt>0</asrwt>
<pdfrwt beam="1">  1        1 0.37556110E+00 0.64182692E+03</pdfrwt>
<pdfrwt beam="2">0</pdfrwt>
<totfact> 0.17191645E+00</totfact>
</mgrwt>
</event>
<event>
 6    1  0.1729631E-003  0.6641589E+03  0.7818608E-02  0.9780568E-01
          1   -1    0    0  502    0  0.00000000000E+00  0.00000000000E+00  0.11027824589E+03  0.11027824589E+03  0.00000000000E+00 0.  1.
         13   -1    0    0    0    0 -0.00000000000E+00 -0.00000000000E+00 -0.10000000000E+04  0.10000000000E+04  0.00000000000E+00 0.  1.
    9000005    2    1    2  501    0 -0.36550970441E-03  0.13700308536E-03 -0.88972320173E+03  0.11102767466E+04  0.66415892546E+03 0.  0.
         13    1    3    3    0    0  0.31943160557E+03  0.53555817700E+02 -0.32233699278E+03  0.45695285661E+03  0.00000000000E+00 0.  1.
          1    1    3    3  501    0 -0.31943197108E+03 -0.53555680697E+02 -0.56738620895E+03  0.65332388995E+03  0.00000000000E+00 0.  1.
         21    1    1    2  502  501  0.36550970443E-03 -0.13700308537E-03  0.14476233078E-02  0.14993266591E-02  0.00000000000E+00 0. -1.
<mgrwt>
<rscale>  1 0.66415893E+03</rscale>
<asrwt>0</asrwt>
<pdfrwt beam="1">  1        1 0.40101265E+00 0.66415893E+03</pdfrwt>
<pdfrwt beam="2">0</pdfrwt>
<totfact> 0.13205001E+00</totfact>
</mgrwt>
</event>
<event>
 6    1  0.1729631E-003  0.6484222E+03  0.7818608E-02  0.9809744E-01
          1   -1    0    0  502    0  0.00000000000E+00  0.00000000000E+00  0.10513233040E+03  0.10513233040E+03  0.00000000000E+00 0.  1.
         13   -1    0    0    0    0 -0.00000000000E+00 -0.00000000000E+00 -0.10000000000E+04  0.10000000000E+04  0.00000000000E+00 0.  1.
    9000005    2    1    2  501    0 -0.68574649072E-03 -0.48125097055E-03 -0.89488715172E+03  0.11051128303E+04  0.64842220298E+03 0.  0.
         13    1    3    3    0    0  0.27084135494E+03 -0.13662677912E+03 -0.64244209023E+03  0.71046024211E+03  0.00000000000E+00 0.  1.
          1    1    3    3  501    0 -0.27084204069E+03  0.13662629787E+03 -0.25244506149E+03  0.39465258816E+03  0.00000000000E+00 0.  1.
         21    1    1    2  502  501  0.68574649070E-03  0.48125097054E-03  0.19482125460E-01  0.19500129825E-01  0.00000000000E+00 0. -1.
<mgrwt>
<rscale>  1 0.64842220E+03</rscale>
<asrwt>0</asrwt>
<pdfrwt beam="1">  1        1 0.38230019E+00 0.64842220E+03</pdfrwt>
<pdfrwt beam="2">0</pdfrwt>
<totfact> 0.16035124E+00</totfact>
</mgrwt>
</event>
<event>
 6    1  0.1729631E-003  0.6366993E+03  0.7818608E-02  0.9832062E-01
          1   -1    0    0  502    0  0.00000000000E+00  0.00000000000E+00  0.10375980376E+03  0.10375980376E+03  0.00000000000E+00 0.  1.
         13   -1    0    0    0    0 -0.00000000000E+00 -0.00000000000E+00 -0.10000000000E+04  0.10000000000E+04  0.00000000000E+00 0.  1.
    9000005    2    1    2  501    0 -0.27221965570E+01 -0.33561542897E+01 -0.89631332751E+03  0.10994378281E+04  0.63668460213E+03 0.  0.
         13    1    3    3    0    0  0.18777168999E+03 -0.22996143124E+03 -0.24839514264E+03  0.38709251388E+03  0.00000000000E+00 0.  1.
          3    1    3    3  501    0 -0.19049388655E+03  0.22660527695E+03 -0.64791818487E+03  0.71234531418E+03  0.00000000000E+00 0.  1.
         21    1    1    2  502  501  0.27221965570E+01  0.33561542897E+01  0.73131271537E-01  0.43219756933E+01  0.00000000000E+00 0. -1.
<mgrwt>
<rscale>  1 0.63669927E+03</rscale>
<asrwt>0</asrwt>
<pdfrwt beam="1">  1        1 0.37730917E+00 0.63669927E+03</pdfrwt>
<pdfrwt beam="2">0</pdfrwt>
<totfact> 0.16905543E+00</totfact>
</mgrwt>
</event>
<event>
 6    1  0.1729631E-003  0.6315430E+03  0.7818608E-02  0.9842042E-01
          1   -1    0    0  502    0  0.00000000000E+00  0.00000000000E+00  0.99711822803E+02  0.99711822803E+02  0.00000000000E+00 0.  1.
         13   -1    0    0    0    0 -0.00000000000E+00 -0.00000000000E+00 -0.10000000000E+04  0.10000000000E+04  0.00000000000E+00 0.  1.
    9000005    2    1    2  501    0 -0.38490871930E-05  0.23698604252E-05 -0.90028835646E+03  0.10997116435E+04  0.63154301045E+03 0.  0.
         13    1    3    3    0    0 -0.27992202402E+03 -0.13950325029E+03 -0.52592910612E+03  0.61189780277E+03  0.00000000000E+00 0.  1.
          3    1    3    3  501    0  0.27992202017E+03  0.13950325266E+03 -0.37435925034E+03  0.48781384072E+03  0.00000000000E+00 0.  1.
         21    1    1    2  502  501  0.38490871771E-05 -0.23698604269E-05  0.17925937041E-03  0.17931635060E-03  0.00000000000E+00 0. -1.
<mgrwt>
<rscale>  1 0.63154301E+03</rscale>
<asrwt>0</asrwt>
<pdfrwt beam="1">  1        1 0.36258921E+00 0.63154301E+03</pdfrwt>
<pdfrwt beam="2">0</pdfrwt>
<totfact> 0.19637171E+00</totfact>
</mgrwt>
</event>
<event>
 6    1  0.1729631E-003  0.6560272E+03  0.7818608E-02  0.9795535E-01
          1   -1    0    0  502    0  0.00000000000E+00  0.00000000000E+00  0.10759297341E+03  0.10759297341E+03  0.00000000000E+00 0.  1.
         13   -1    0    0    0    0 -0.00000000000E+00 -0.00000000000E+00 -0.10000000000E+04  0.10000000000E+04  0.00000000000E+00 0.  1.
    9000005    2    1    2  501    0 -0.11734306844E-03 -0.11336524233E-03 -0.89240655428E+03  0.11075924737E+04  0.65602715621E+03 0.  0.
         13    1    3    3    0    0  0.15109342682E+03  0.35203566179E+02  0.41734929427E+02  0.16065590258E+03  0.00000000000E+00 0.  1.
          1    1    3    3  501    0 -0.15109354417E+03 -0.35203679545E+02 -0.93414148371E+03  0.94693657112E+03  0.00000000000E+00 0.  1.
         21    1    1    2  502  501  0.11734306845E-03  0.11336524233E-03 -0.47230906969E-03  0.49969683929E-03  0.00000000000E+00 0. -1.
<mgrwt>
<rscale>  1 0.65602716E+03</rscale>
<asrwt>0</asrwt>
<pdfrwt beam="1">  1        1 0.39124800E+00 0.65602716E+03</pdfrwt>
<pdfrwt beam="2">0</pdfrwt>
<totfact> 0.14616603E+00</totfact>
</mgrwt>
</event>
<event>
 6    1  0.1729631E-003  0.6405330E+03  0.7818608E-02  0.9824707E-01
          1   -1    0    0  502    0  0.00000000000E+00  0.00000000000E+00  0.10257381132E+03  0.10257381132E+03  0.00000000000E+00 0.  1.
         13   -1    0    0    0    0 -0.00000000000E+00 -0.00000000000E+00 -0.10000000000E+04  0.10000000000E+04  0.00000000000E+00 0.  1.
    9000005    2    1    2  501    0 -0.22821958268E-03 -0.51721537517E-04 -0.89742937314E+03  0.11025706183E+04  0.64053297222E+03 0.  0.
         13    1    3    3    0    0 -0.25099470385E+03 -0.18031158009E+03 -0.30408103765E+03  0.43356185803E+03  0.00000000000E+00 0.  1.
          1    1    3    3  501    0  0.25099447563E+03  0.18031152837E+03 -0.59334833549E+03  0.66900876025E+03  0.00000000000E+00 0.  1.
         21    1    1    2  502  501  0.22821958268E-03  0.51721537503E-04  0.31844589502E-02  0.31930452707E-02  0.00000000000E+00 0. -1.
<mgrwt>
<rscale>  1 0.64053297E+03</rscale>
<asrwt>0</asrwt>
<pdfrwt beam="1">  1        1 0.37299646E+00 0.64053297E+03</pdfrwt>
<pdfrwt beam="2">0</pdfrwt>
<totfact> 0.17648403E+00</totfact>
</mgrwt>
</event>
<event>
 6    1  0.1729631E-003  0.6507376E+03  0.7818608E-02  0.9805396E-01
          1   -1    0    0  502    0  0.00000000000E+00  0.00000000000E+00  0.10744811397E+03  0.10744811397E+03  0.00000000000E+00 0.  1.
         13   -1    0    0    0    0 -0.00000000000E+00 -0.00000000000E+00 -0.10000000000E+04  0.10000000000E+04  0.00000000000E+00 0.  1.
    9000005    2    1    2  501    0  0.81119280900E+00  0.47587011225E+01 -0.88670406462E+03  0.10998652197E+04  0.65071967854E+03 0.  0.
         13    1    3    3    0    0  0.20162603296E+03  0.25780774587E+03 -0.42695430344E+03  0.53796641923E+03  0.00000000000E+00 0.  1.
          3    1    3    3  501    0 -0.20081484015E+03 -0.25304904475E+03 -0.45974976119E+03  0.56189880048E+03  0.00000000000E+00 0.  1.
         21    1    1    2  502  501 -0.81119280900E+00 -0.47587011225E+01 -0.58478214060E+01  0.75828942590E+01  0.00000000000E+00 0. -1.
<mgrwt>
<rscale>  1 0.65073758E+03</rscale>
<asrwt>0</asrwt>
<pdfrwt beam="1">  1        1 0.39072124E+00 0.65073758E+03</pdfrwt>
<pdfrwt beam="2">0</pdfrwt>
<totfact> 0.14709948E+00</totfact>
</mgrwt>
</event>
<event>
 6    1  0.1729631E-003  0.6613553E+03  0.7818608E-02  0.9785702E-01
          3   -1    0    0  502    0  0.00000000000E+00  0.00000000000E+00  0.10935072767E+03  0.10935072767E+03  0.00000000000E+00 0.  1.
         13   -1    0    0    0    0 -0.00000000000E+00 -0.00000000000E+00 -0.10000000000E+04  0.10000000000E+04  0.00000000000E+00 0.  1.
    9000005    2    1    2  501    0 -0.16387419912E-02  0.32631611245E-02 -0.89065099115E+03  0.11093466918E+04  0.66135534671E+03 0.  0.
         13    1    3    3    0    0  0.19088928228E+03 -0.26289698068E+03 -0.34201734716E+03  0.47173022619E+03  0.00000000000E+00 0.  1.
          3    1    3    3  501    0 -0.19089092102E+03  0.26290024384E+03 -0.54863364399E+03  0.63761646564E+03  0.00000000000E+00 0.  1.
         21    1    1    2  502  501  0.16387419912E-02 -0.32631611245E-02  0.17188250323E-02  0.40358462966E-02  0.00000000000E+00 0.  1.
<mgrwt>
<rscale>  1 0.66135535E+03</rscale>
<asrwt>0</asrwt>
<pdfrwt beam="1">  1        3 0.39763985E+00 0.66135535E+03</pdfrwt>
<pdfrwt beam="2">0</pdfrwt>
<totfact> 0.60833095E-02</totfact>
</mgrwt>
</event>
<event>
 6    1  0.1729631E-003  0.6481230E+03  0.7818608E-02  0.9810308E-01
          1   -1    0    0  502    0  0.00000000000E+00  0.00000000000E+00  0.10507215926E+03  0.10507215926E+03  0.00000000000E+00 0.  1.
         13   -1    0    0    0    0 -0.00000000000E+00 -0.00000000000E+00 -0.10000000000E+04  0.10000000000E+04  0.00000000000E+00 0.  1.
    9000005    2    1    2  501    0 -0.30782780397E-01 -0.97414635465E-01 -0.89492755356E+03  0.11049699963E+04  0.64812294832E+03 0.  0.
         13    1    3    3    0    0  0.67091750575E+02 -0.31351847116E+03 -0.36666975481E+03  0.48707478260E+03  0.00000000000E+00 0.  1.
          3    1    3    3  501    0 -0.67122533356E+02  0.31342105653E+03 -0.52825779875E+03  0.61789521369E+03  0.00000000000E+00 0.  1.
         21    1    1    2  502  501  0.30782780397E-01  0.97414635465E-01 -0.28717537241E-03  0.10216297393E+00  0.00000000000E+00 0.  1.
<mgrwt>
<rscale>  1 0.64812296E+03</rscale>
<asrwt>0</asrwt>
<pdfrwt beam="1">  1        1 0.38208138E+00 0.64812296E+03</pdfrwt>
<pdfrwt beam="2">0</pdfrwt>
<totfact> 0.16071733E+00</totfact>
</mgrwt>
</event>
<event>
 6    1  0.1729631E-003  0.5672150E+03  0.7818608E-02  0.9975860E-01
          1   -1    0    0  502    0  0.00000000000E+00  0.00000000000E+00  0.80435252217E+02  0.80435252217E+02  0.00000000000E+00 0.  1.
         13   -1    0    0    0    0 -0.00000000000E+00 -0.00000000000E+00 -0.10000000000E+04  0.10000000000E+04  0.00000000000E+00 0.  1.
    9000005    2    1    2  501    0 -0.12800816261E-02  0.28983022072E-02 -0.91956539900E+03  0.10804320176E+04  0.56721496946E+03 0.  0.
         13    1    3    3    0    0  0.62943534188E+02  0.71630131622E+01 -0.98634891411E+03  0.98838119044E+03  0.00000000000E+00 0.  1.
          1    1    3    3  501    0 -0.62944814269E+02 -0.71601148600E+01  0.66783515107E+02  0.92050827146E+02  0.00000000000E+00 0.  1.
         21    1    1    2  502  501  0.12800816261E-02 -0.28983022072E-02  0.65121659445E-03  0.32346325458E-02  0.00000000000E+00 0. -1.
<mgrwt>
<rscale>  1 0.56721497E+03</rscale>
<asrwt>0</asrwt>
<pdfrwt beam="1">  1        1 0.29249244E+00 0.56721497E+03</pdfrwt>
<pdfrwt beam="2">0</pdfrwt>
<totfact> 0.39985949E+00</totfact>
</mgrwt>
</event>
<event>
 6    1  0.1729631E-003  0.6443558E+03  0.7818608E-02  0.9817428E-01
          1   -1    0    0  502    0  0.00000000000E+00  0.00000000000E+00  0.10379865964E+03  0.10379865964E+03  0.00000000000E+00 0.  1.
         13   -1    0    0    0    0 -0.00000000000E+00 -0.00000000000E+00 -0.10000000000E+04  0.10000000000E+04  0.00000000000E+00 0.  1.
    9000005    2    1    2  501    0 -0.26372792199E-04  0.12814254728E-03 -0.89620126585E+03  0.11037985091E+04  0.64435583318E+03 0.  0.
         13    1    3    3    0    0  0.48118040516E+02  0.30678973868E+03 -0.30110590260E+03  0.43255063769E+03  0.00000000000E+00 0.  1.
          1    1    3    3  501    0 -0.48118066889E+02 -0.30678961054E+03 -0.59509536325E+03  0.67124787140E+03  0.00000000000E+00 0.  1.
         21    1    1    2  502  501  0.26372792201E-04 -0.12814254731E-03 -0.74503276415E-04  0.15055488965E-03  0.00000000000E+00 0.  1.
<mgrwt>
<rscale>  1 0.64435583E+03</rscale>
<asrwt>0</asrwt>
<pdfrwt beam="1">  1        1 0.37745047E+00 0.64435583E+03</pdfrwt>
<pdfrwt beam="2">0</pdfrwt>
<totfact> 0.16857526E+00</totfact>
</mgrwt>
</event>
<event>
 6    1  0.1729631E-003  0.6329684E+03  0.7818608E-02  0.9839273E-01
          3   -1    0    0  502    0  0.00000000000E+00  0.00000000000E+00  0.10016528929E+03  0.10016528929E+03  0.00000000000E+00 0.  1.
         13   -1    0    0    0    0 -0.00000000000E+00 -0.00000000000E+00 -0.10000000000E+04  0.10000000000E+04  0.00000000000E+00 0.  1.
    9000005    2    1    2  501    0  0.29316801573E-04 -0.19638347723E-03 -0.89983775404E+03  0.11001622395E+04  0.63296837961E+03 0.  0.
         13    1    3    3    0    0 -0.21741559894E+03 -0.18545703333E+03 -0.68631597711E+03  0.74343357088E+03  0.00000000000E+00 0.  1.
          1    1    3    3  501    0  0.21741562826E+03  0.18545683694E+03 -0.21352177693E+03  0.35672866860E+03  0.00000000000E+00 0.  1.
         21    1    1    2  502  501 -0.29316801565E-04  0.19638347722E-03  0.30433306971E-02  0.30498012521E-02  0.00000000000E+00 0.  1.
<mgrwt>
<rscale>  1 0.63296838E+03</rscale>
<asrwt>0</asrwt>
<pdfrwt beam="1">  1        3 0.36423818E+00 0.63296838E+03</pdfrwt>
<pdfrwt beam="2">0</pdfrwt>
<totfact> 0.91725538E-02</totfact>
</mgrwt>
</event>
<event>
 6    1  0.1729631E-003  0.6607284E+03  0.7818608E-02  0.9786854E-01
          1   -1    0    0  502    0  0.00000000000E+00  0.00000000000E+00  0.15431840115E+03  0.15431840115E+03  0.00000000000E+00 0.  1.
         13   -1    0    0    0    0 -0.00000000000E+00 -0.00000000000E+00 -0.10000000000E+04  0.10000000000E+04  0.00000000000E+00 0.  1.
    9000005    2    1    2  501    0  0.24094438139E+01 -0.88957225757E+00 -0.89081901256E+03  0.11091079723E+04  0.66072337962E+03 0.  0.
         13    1    3    3    0    0 -0.10240810771E+03  0.96966430475E+02  0.55814979014E+02  0.15167472119E+03  0.00000000000E+00 0.  1.
          3    1    3    3  501    0  0.10481755153E+03 -0.97856002733E+02 -0.94663399157E+03  0.95743325114E+03  0.00000000000E+00 0.  1.
         21    1    1    2  502  501 -0.24094438139E+01  0.88957225757E+00  0.45137413705E+02  0.45210428823E+02  0.00000000000E+00 0.  1.
<mgrwt>
<rscale>  1 0.66072837E+03</rscale>
<asrwt>0</asrwt>
<pdfrwt beam="1">  1        1 0.56115901E+00 0.66072837E+03</pdfrwt>
<pdfrwt beam="2">0</pdfrwt>
<totfact> 0.22894262E-01</totfact>
</mgrwt>
</event>
<event>
 6    1  0.1729631E-003  0.6506362E+03  0.7818608E-02  0.9805586E-01
          1   -1    0    0  502    0  0.00000000000E+00  0.00000000000E+00  0.10742421303E+03  0.10742421303E+03  0.00000000000E+00 0.  1.
         13   -1    0    0    0    0 -0.00000000000E+00 -0.00000000000E+00 -0.10000000000E+04  0.10000000000E+04  0.00000000000E+00 0.  1.
    9000005    2    1    2  501    0  0.28256937591E-02  0.25478406413E-01 -0.89416800515E+03  0.11058317885E+04  0.65063624429E+03 0.  0.
         13    1    3    3    0    0 -0.28211353068E+03 -0.91398617580E+02 -0.21976684106E+03  0.36910596841E+03  0.00000000000E+00 0.  1.
          1    1    3    3  501    0  0.28211635638E+03  0.91424095986E+02 -0.67440116409E+03  0.73672582009E+03  0.00000000000E+00 0.  1.
         21    1    1    2  502  501 -0.28256937591E-02 -0.25478406413E-01  0.15922181812E+01  0.15924245257E+01  0.00000000000E+00 0.  1.
<mgrwt>
<rscale>  1 0.65063624E+03</rscale>
<asrwt>0</asrwt>
<pdfrwt beam="1">  1        1 0.39063433E+00 0.65063624E+03</pdfrwt>
<pdfrwt beam="2">0</pdfrwt>
<totfact> 0.14723290E+00</totfact>
</mgrwt>
</event>
<event>
 6    1  0.1729631E-003  0.6477980E+03  0.7818608E-02  0.9810920E-01
          1   -1    0    0  502    0  0.00000000000E+00  0.00000000000E+00  0.10496112133E+03  0.10496112133E+03  0.00000000000E+00 0.  1.
         13   -1    0    0    0    0 -0.00000000000E+00 -0.00000000000E+00 -0.10000000000E+04  0.10000000000E+04  0.00000000000E+00 0.  1.
    9000005    2    1    2  501    0 -0.74512551349E-03 -0.16689971273E-02 -0.89508940518E+03  0.11049105618E+04  0.64779804433E+03 0.  0.
         13    1    3    3    0    0  0.73807124759E+02 -0.66991316469E+02  0.78100543791E+02  0.12662947164E+03  0.00000000000E+00 0.  1.
          1    1    3    3  501    0 -0.73807869884E+02  0.66989647471E+02 -0.97318994897E+03  0.97828109013E+03  0.00000000000E+00 0.  1.
         21    1    1    2  502  501  0.74512551349E-03  0.16689971273E-02  0.50526506447E-01  0.50559555152E-01  0.00000000000E+00 0. -1.
<mgrwt>
<rscale>  1 0.64779804E+03</rscale>
<asrwt>0</asrwt>
<pdfrwt beam="1">  1        1 0.38167761E+00 0.64779804E+03</pdfrwt>
<pdfrwt beam="2">0</pdfrwt>
<totfact> 0.16138824E+00</totfact>
</mgrwt>
</event>
<event>
 6    1  0.1729631E-003  0.6541166E+03  0.7818608E-02  0.9799085E-01
          1   -1    0    0  502    0  0.00000000000E+00  0.00000000000E+00  0.10696728352E+03  0.10696728352E+03  0.00000000000E+00 0.  1.
         13   -1    0    0    0    0 -0.00000000000E+00 -0.00000000000E+00 -0.10000000000E+04  0.10000000000E+04  0.00000000000E+00 0.  1.
    9000005    2    1    2  501    0 -0.32424613522E-04  0.77557230213E-04 -0.89303285300E+03  0.11069671232E+04  0.65411660679E+03 0.  0.
         13    1    3    3    0    0 -0.25296368085E+03  0.20392665271E+03 -0.50962062511E+03  0.60439216164E+03  0.00000000000E+00 0.  1.
          1    1    3    3  501    0  0.25296364843E+03 -0.20392657515E+03 -0.38341222789E+03  0.50257496155E+03  0.00000000000E+00 0.  1.
         21    1    1    2  502  501  0.32424613521E-04 -0.77557230229E-04  0.13652269046E-03  0.16032755388E-03  0.00000000000E+00 0.  1.
<mgrwt>
<rscale>  1 0.65411661E+03</rscale>
<asrwt>0</asrwt>
<pdfrwt beam="1">  1        1 0.38897276E+00 0.65411661E+03</pdfrwt>
<pdfrwt beam="2">0</pdfrwt>
<totfact> 0.14965497E+00</totfact>
</mgrwt>
</event>
<event>
 6    1  0.1729631E-003  0.6523863E+03  0.7818608E-02  0.9802312E-01
          1   -1    0    0  502    0  0.00000000000E+00  0.00000000000E+00  0.10640202218E+03  0.10640202218E+03  0.00000000000E+00 0.  1.
         13   -1    0    0    0    0 -0.00000000000E+00 -0.00000000000E+00 -0.10000000000E+04  0.10000000000E+04  0.00000000000E+00 0.  1.
    9000005    2    1    2  501    0  0.26224114237E-04  0.63973888928E-04 -0.89359799621E+03  0.11064019506E+04  0.65238631005E+03 0.  0.
         13    1    3    3    0    0 -0.13683134291E+03 -0.28100808043E+03 -0.60510838192E+03  0.68106131261E+03  0.00000000000E+00 0.  1.
          3    1    3    3  501    0  0.13683136913E+03  0.28100814441E+03 -0.28848961429E+03  0.42534063802E+03  0.00000000000E+00 0.  1.
         21    1    1    2  502  501 -0.26224114219E-04 -0.63973888930E-04  0.18381933154E-04  0.71542002334E-04  0.00000000000E+00 0.  1.
<mgrwt>
<rscale>  1 0.65238631E+03</rscale>
<asrwt>0</asrwt>
<pdfrwt beam="1">  1        1 0.38691726E+00 0.65238631E+03</pdfrwt>
<pdfrwt beam="2">0</pdfrwt>
<totfact> 0.15287486E+00</totfact>
</mgrwt>
</event>
<event>
 6    1  0.1729631E-003  0.6496581E+03  0.7818608E-02  0.9807421E-01
          1   -1    0    0  502    0  0.00000000000E+00  0.00000000000E+00  0.10728718196E+03  0.10728718196E+03  0.00000000000E+00 0.  1.
         13   -1    0    0    0    0 -0.00000000000E+00 -0.00000000000E+00 -0.10000000000E+04  0.10000000000E+04  0.00000000000E+00 0.  1.
    9000005    2    1    2  501    0 -0.57768318211E-01 -0.42089040663E-01 -0.89448530153E+03  0.11055132580E+04  0.64965806679E+03 0.  0.
         13    1    3    3    0    0 -0.20151321270E+03  0.23099865644E+03 -0.63011144130E+03  0.70071990312E+03  0.00000000000E+00 0.  1.
          3    1    3    3  501    0  0.20145544438E+03 -0.23104074548E+03 -0.26437386023E+03  0.40479335483E+03  0.00000000000E+00 0.  1.
         21    1    1    2  502  501  0.57768318211E-01  0.42089040663E-01  0.17724834914E+01  0.17739240100E+01  0.00000000000E+00 0.  1.
<mgrwt>
<rscale>  1 0.64965807E+03</rscale>
<asrwt>0</asrwt>
<pdfrwt beam="1">  1        1 0.39013603E+00 0.64965807E+03</pdfrwt>
<pdfrwt beam="2">0</pdfrwt>
<totfact> 0.14801102E+00</totfact>
</mgrwt>
</event>
<event>
 6    1  0.1729631E-003  0.6431277E+03  0.7818608E-02  0.9819761E-01
          1   -1    0    0  502    0  0.00000000000E+00  0.00000000000E+00  0.10341033475E+03  0.10341033475E+03  0.00000000000E+00 0.  1.
         13   -1    0    0    0    0 -0.00000000000E+00 -0.00000000000E+00 -0.10000000000E+04  0.10000000000E+04  0.00000000000E+00 0.  1.
    9000005    2    1    2  501    0  0.16512656113E-03 -0.28885237111E-03 -0.89659668476E+03  0.11034033074E+04  0.64312770392E+03 0.  0.
         13    1    3    3    0    0  0.16049452938E+02  0.20092815075E+03 -0.87815660869E+03  0.90099319426E+03  0.00000000000E+00 0.  1.
          3    1    3    3  501    0 -0.16049287811E+02 -0.20092843960E+03 -0.18440076071E+02  0.20241011310E+03  0.00000000000E+00 0.  1.
         21    1    1    2  502  501 -0.16512656113E-03  0.28885237113E-03  0.70195150768E-02  0.70273959891E-02  0.00000000000E+00 0. -1.
<mgrwt>
<rscale>  1 0.64312770E+03</rscale>
<asrwt>0</asrwt>
<pdfrwt beam="1">  1        1 0.37603837E+00 0.64312770E+03</pdfrwt>
<pdfrwt beam="2">0</pdfrwt>
<totfact> 0.17104578E+00</totfact>
</mgrwt>
</event>
<event>
 6    1  0.1729631E-003  0.6374785E+03  0.7818608E-02  0.9830563E-01
          1   -1    0    0  502    0  0.00000000000E+00  0.00000000000E+00  0.10358549735E+03  0.10358549735E+03  0.00000000000E+00 0.  1.
         13   -1    0    0    0    0 -0.00000000000E+00 -0.00000000000E+00 -0.10000000000E+04  0.10000000000E+04  0.00000000000E+00 0.  1.
    9000005    2    1    2  501    0  0.32420539896E+00  0.29849532273E+01 -0.89707608515E+03  0.11005109655E+04  0.63747146407E+03 0.  0.
         13    1    3    3    0    0 -0.12809790862E+03  0.22452378381E+03 -0.12510584911E+03  0.28717847616E+03  0.00000000000E+00 0.  1.
          3    1    3    3  501    0  0.12842211402E+03 -0.22153883058E+03 -0.77197023604E+03  0.81333248930E+03  0.00000000000E+00 0.  1.
         21    1    1    2  502  501 -0.32420539896E+00 -0.29849532273E+01  0.66158249604E+00  0.30745318845E+01  0.00000000000E+00 0. -1.
<mgrwt>
<rscale>  1 0.63747853E+03</rscale>
<asrwt>0</asrwt>
<pdfrwt beam="1">  1        1 0.37667533E+00 0.63747853E+03</pdfrwt>
<pdfrwt beam="2">0</pdfrwt>
<totfact> 0.17012120E+00</totfact>
</mgrwt>
</event>
<event>
 6    1  0.1729631E-003  0.6526401E+03  0.7818608E-02  0.9801838E-01
          1   -1    0    0  502    0  0.00000000000E+00  0.00000000000E+00  0.10648672813E+03  0.10648672813E+03  0.00000000000E+00 0.  1.
         13   -1    0    0    0    0 -0.00000000000E+00 -0.00000000000E+00 -0.10000000000E+04  0.10000000000E+04  0.00000000000E+00 0.  1.
    9000005    2    1    2  501    0 -0.14152510921E-03 -0.59424821416E-04 -0.89351521728E+03  0.11064847767E+04  0.65264011330E+03 0.  0.
         13    1    3    3    0    0 -0.59874605204E+02 -0.22686148716E+03 -0.83125695841E+03  0.86373562715E+03  0.00000000000E+00 0.  1.
          3    1    3    3  501    0  0.59874463679E+02  0.22686142774E+03 -0.62258258876E+02  0.24274914952E+03  0.00000000000E+00 0.  1.
         21    1    1    2  502  501  0.14152510921E-03  0.59424821436E-04  0.19454098993E-02  0.19514559544E-02  0.00000000000E+00 0.  1.
<mgrwt>
<rscale>  1 0.65264011E+03</rscale>
<asrwt>0</asrwt>
<pdfrwt beam="1">  1        1 0.38722528E+00 0.65264011E+03</pdfrwt>
<pdfrwt beam="2">0</pdfrwt>
<totfact> 0.15238835E+00</totfact>
</mgrwt>
</event>
<event>
 6    1  0.1729631E-003  0.6378114E+03  0.7818608E-02  0.9829923E-01
          1   -1    0    0  502    0  0.00000000000E+00  0.00000000000E+00  0.10170522667E+03  0.10170522667E+03  0.00000000000E+00 0.  1.
         13   -1    0    0    0    0 -0.00000000000E+00 -0.00000000000E+00 -0.10000000000E+04  0.10000000000E+04  0.00000000000E+00 0.  1.
    9000005    2    1    2  501    0  0.44912880313E-03 -0.24541701208E-04 -0.89829913093E+03  0.11017008459E+04  0.63781143393E+03 0.  0.
         13    1    3    3    0    0 -0.12706500656E+02 -0.22802871004E+03 -0.64682181975E+02  0.23736539855E+03  0.00000000000E+00 0.  1.
          3    1    3    3  501    0  0.12706949785E+02  0.22802868550E+03 -0.83361694896E+03  0.86433544737E+03  0.00000000000E+00 0.  1.
         21    1    1    2  502  501 -0.44912880313E-03  0.24541701214E-04  0.43576050881E-02  0.43807580487E-02  0.00000000000E+00 0.  1.
<mgrwt>
<rscale>  1 0.63781143E+03</rscale>
<asrwt>0</asrwt>
<pdfrwt beam="1">  1        1 0.36983797E+00 0.63781143E+03</pdfrwt>
<pdfrwt beam="2">0</pdfrwt>
<totfact> 0.18230618E+00</totfact>
</mgrwt>
</event>
<event>
 6    1  0.1729631E-003  0.6407041E+03  0.7818608E-02  0.9824380E-01
          1   -1    0    0  502    0  0.00000000000E+00  0.00000000000E+00  0.10262546847E+03  0.10262546847E+03  0.00000000000E+00 0.  1.
         13   -1    0    0    0    0 -0.00000000000E+00 -0.00000000000E+00 -0.10000000000E+04  0.10000000000E+04  0.00000000000E+00 0.  1.
    9000005    2    1    2  501    0 -0.85727305077E-05  0.10720260263E-04 -0.89737457892E+03  0.11026254191E+04  0.64070405026E+03 0.  0.
         13    1    3    3    0    0 -0.18050621095E+03  0.25105629827E+03 -0.59281355525E+03  0.66861025148E+03  0.00000000000E+00 0.  1.
          1    1    3    3  501    0  0.18050620238E+03 -0.25105628755E+03 -0.30456102367E+03  0.43401516765E+03  0.00000000000E+00 0.  1.
         21    1    1    2  502  501  0.85727305000E-05 -0.10720260257E-04  0.47396585362E-04  0.49344219441E-04  0.00000000000E+00 0. -1.
<mgrwt>
<rscale>  1 0.64070405E+03</rscale>
<asrwt>0</asrwt>
<pdfrwt beam="1">  1        1 0.37318431E+00 0.64070405E+03</pdfrwt>
<pdfrwt beam="2">0</pdfrwt>
<totfact> 0.17614313E+00</totfact>
</mgrwt>
</event>
<event>
 6    1  0.1729631E-003  0.6454078E+03  0.7818608E-02  0.9815435E-01
          1   -1    0    0  502    0  0.00000000000E+00  0.00000000000E+00  0.10414734235E+03  0.10414734235E+03  0.00000000000E+00 0.  1.
         13   -1    0    0    0    0 -0.00000000000E+00 -0.00000000000E+00 -0.10000000000E+04  0.10000000000E+04  0.00000000000E+00 0.  1.
    9000005    2    1    2  501    0  0.84825687239E-04  0.99257550460E-04 -0.89586220524E+03  0.11041377939E+04  0.64540776032E+03 0.  0.
         13    1    3    3    0    0  0.99166911471E+02 -0.29329526995E+03 -0.60361568932E+03  0.67838638850E+03  0.00000000000E+00 0.  1.
          1    1    3    3  501    0 -0.99166826646E+02  0.29329536921E+03 -0.29224651592E+03  0.42575140537E+03  0.00000000000E+00 0.  1.
         21    1    1    2  502  501 -0.84825687241E-04 -0.99257550455E-04  0.95475862841E-02  0.95484790051E-02  0.00000000000E+00 0.  1.
<mgrwt>
<rscale>  1 0.64540776E+03</rscale>
<asrwt>0</asrwt>
<pdfrwt beam="1">  1        1 0.37871841E+00 0.64540776E+03</pdfrwt>
<pdfrwt beam="2">0</pdfrwt>
<totfact> 0.16638751E+00</totfact>
</mgrwt>
</event>
<event>
 6    1  0.1729631E-003  0.6192902E+03  0.7818608E-02  0.9866174E-01
          1   -1    0    0  502    0  0.00000000000E+00  0.00000000000E+00  0.96285419306E+02  0.96285419306E+02  0.00000000000E+00 0.  1.
         13   -1    0    0    0    0 -0.00000000000E+00 -0.00000000000E+00 -0.10000000000E+04  0.10000000000E+04  0.00000000000E+00 0.  1.
    9000005    2    1    2  501    0 -0.14312217934E+00  0.15438152281E+00 -0.90408974733E+03  0.10958552244E+04  0.61929020450E+03 0.  0.
         13    1    3    3    0    0 -0.13941273468E+03 -0.37540055461E+02  0.32687192572E+02  0.14803249276E+03  0.00000000000E+00 0.  1.
          1    1    3    3  501    0  0.13926961250E+03  0.37694436984E+02 -0.93677693991E+03  0.94782273168E+03  0.00000000000E+00 0.  1.
         21    1    1    2  502  501  0.14312217934E+00 -0.15438152281E+00  0.37516664009E+00  0.43019486357E+00  0.00000000000E+00 0. -1.
<mgrwt>
<rscale>  1 0.61929024E+03</rscale>
<asrwt>0</asrwt>
<pdfrwt beam="1">  1        1 0.35012954E+00 0.61929024E+03</pdfrwt>
<pdfrwt beam="2">0</pdfrwt>
<totfact> 0.22307618E+00</totfact>
</mgrwt>
</event>
<event>
 6    1  0.1729631E-003  0.6457466E+03  0.7818608E-02  0.9814793E-01
          1   -1    0    0  502    0  0.00000000000E+00  0.00000000000E+00  0.10486567118E+03  0.10486567118E+03  0.00000000000E+00 0.  1.
         13   -1    0    0    0    0 -0.00000000000E+00 -0.00000000000E+00 -0.10000000000E+04  0.10000000000E+04  0.00000000000E+00 0.  1.
    9000005    2    1    2  501    0  0.10383853548E+00 -0.13662710842E+00 -0.89573967675E+03  0.11042364689E+04  0.64574653022E+03 0.  0.
         13    1    3    3    0    0 -0.60117452186E+01 -0.31054631483E+03 -0.59911753218E+03  0.67484588766E+03  0.00000000000E+00 0.  1.
          1    1    3    3  501    0  0.61155837540E+01  0.31040968772E+03 -0.29662214457E+03  0.42939058123E+03  0.00000000000E+00 0.  1.
         21    1    1    2  502  501 -0.10383853548E+00  0.13662710842E+00  0.60534792901E+00  0.62920229128E+00  0.00000000000E+00 0.  1.
<mgrwt>
<rscale>  1 0.64574655E+03</rscale>
<asrwt>0</asrwt>
<pdfrwt beam="1">  1        1 0.38133052E+00 0.64574655E+03</pdfrwt>
<pdfrwt beam="2">0</pdfrwt>
<totfact> 0.16201999E+00</totfact>
</mgrwt>
</event>
<event>
 6    1  0.1729631E-003  0.6412778E+03  0.7818608E-02  0.9823285E-01
          1   -1    0    0  502    0  0.00000000000E+00  0.00000000000E+00  0.10283454928E+03  0.10283454928E+03  0.00000000000E+00 0.  1.
         13   -1    0    0    0    0 -0.00000000000E+00 -0.00000000000E+00 -0.10000000000E+04  0.10000000000E+04  0.00000000000E+00 0.  1.
    9000005    2    1    2  501    0 -0.45133463690E-02  0.31833409439E-02 -0.89719036509E+03  0.11028090301E+04  0.64127779126E+03 0.  0.
         13    1    3    3    0    0 -0.18075373976E+03  0.24761832037E+03 -0.61014265604E+03  0.68283292813E+03  0.00000000000E+00 0.  1.
          1    1    3    3  501    0  0.18074922641E+03 -0.24761513703E+03 -0.28704770905E+03  0.41997610195E+03  0.00000000000E+00 0.  1.
         21    1    1    2  502  501  0.45133463690E-02 -0.31833409439E-02  0.24914373197E-01  0.25519207409E-01  0.00000000000E+00 0. -1.
<mgrwt>
<rscale>  1 0.64127779E+03</rscale>
<asrwt>0</asrwt>
<pdfrwt beam="1">  1        1 0.37394460E+00 0.64127779E+03</pdfrwt>
<pdfrwt beam="2">0</pdfrwt>
<totfact> 0.17477354E+00</totfact>
</mgrwt>
</event>
<event>
 6    1  0.1729631E-003  0.6516161E+03  0.7818608E-02  0.9803751E-01
          1   -1    0    0  502    0  0.00000000000E+00  0.00000000000E+00  0.10670708402E+03  0.10670708402E+03  0.00000000000E+00 0.  1.
         13   -1    0    0    0    0 -0.00000000000E+00 -0.00000000000E+00 -0.10000000000E+04  0.10000000000E+04  0.00000000000E+00 0.  1.
    9000005    2    1    2  501    0  0.15804369053E-01 -0.23821238884E-01 -0.89384870056E+03  0.11061505647E+04  0.65161612281E+03 0.  0.
         13    1    3    3    0    0  0.14939302191E+02  0.30954738039E+03 -0.27629934462E+03  0.41519163201E+03  0.00000000000E+00 0.  1.
          3    1    3    3  501    0 -0.14923497822E+02 -0.30957120162E+03 -0.61754935594E+03  0.69095893271E+03  0.00000000000E+00 0.  1.
         21    1    1    2  502  501 -0.15804369053E-01  0.23821238884E-01  0.55578458393E+00  0.55651930177E+00  0.00000000000E+00 0.  1.
<mgrwt>
<rscale>  1 0.65161612E+03</rscale>
<asrwt>0</asrwt>
<pdfrwt beam="1">  1        1 0.38802658E+00 0.65161612E+03</pdfrwt>
<pdfrwt beam="2">0</pdfrwt>
<totfact> 0.15117678E+00</totfact>
</mgrwt>
</event>
<event>
 6    1  0.1729631E-003  0.6467760E+03  0.7818608E-02  0.9812848E-01
          1   -1    0    0  502    0  0.00000000000E+00  0.00000000000E+00  0.10458468734E+03  0.10458468734E+03  0.00000000000E+00 0.  1.
         13   -1    0    0    0    0 -0.00000000000E+00 -0.00000000000E+00 -0.10000000000E+04  0.10000000000E+04  0.00000000000E+00 0.  1.
    9000005    2    1    2  501    0 -0.59446116637E-04 -0.30866027103E-04 -0.89542019666E+03  0.11045798029E+04  0.64677601405E+03 0.  0.
         13    1    3    3    0    0 -0.17034486230E+03  0.10653591297E+03 -0.88047608678E+03  0.90310874886E+03  0.00000000000E+00 0.  1.
          3    1    3    3  501    0  0.17034480286E+03 -0.10653594384E+03 -0.14944109878E+02  0.20147105403E+03  0.00000000000E+00 0.  1.
         21    1    1    2  502  501  0.59446116647E-04  0.30866027104E-04  0.48840004696E-02  0.48844597592E-02  0.00000000000E+00 0.  1.
<mgrwt>
<rscale>  1 0.64677601E+03</rscale>
<asrwt>0</asrwt>
<pdfrwt beam="1">  1        1 0.38030876E+00 0.64677601E+03</pdfrwt>
<pdfrwt beam="2">0</pdfrwt>
<totfact> 0.16368022E+00</totfact>
</mgrwt>
</event>
<event>
 6    1  0.1729631E-003  0.6525339E+03  0.7818608E-02  0.9802036E-01
          1   -1    0    0  502    0  0.00000000000E+00  0.00000000000E+00  0.10869192821E+03  0.10869192821E+03  0.00000000000E+00 0.  1.
         13   -1    0    0    0    0 -0.00000000000E+00 -0.00000000000E+00 -0.10000000000E+04  0.10000000000E+04  0.00000000000E+00 0.  1.
    9000005    2    1    2  501    0  0.35182799940E+01  0.58311830740E+01 -0.88304334378E+03  0.10979827397E+04  0.65249840508E+03 0.  0.
         13    1    3    3    0    0 -0.11433238075E+03  0.17857692401E+02 -0.95327041656E+03  0.96026833622E+03  0.00000000000E+00 0.  1.
          1    1    3    3  501    0  0.11785066074E+03 -0.12026509327E+02  0.70227072782E+02  0.13771440344E+03  0.00000000000E+00 0.  1.
         21    1    1    2  502  501 -0.35182799940E+01 -0.58311830740E+01 -0.82647280115E+01  0.10709188544E+02  0.00000000000E+00 0. -1.
<mgrwt>
<rscale>  1 0.65253395E+03</rscale>
<asrwt>0</asrwt>
<pdfrwt beam="1">  1        1 0.39524421E+00 0.65253395E+03</pdfrwt>
<pdfrwt beam="2">0</pdfrwt>
<totfact> 0.14040366E+00</totfact>
</mgrwt>
</event>
<event>
 6    1  0.1729631E-003  0.6474972E+03  0.7818608E-02  0.9811487E-01
          1   -1    0    0  502    0  0.00000000000E+00  0.00000000000E+00  0.10481785593E+03  0.10481785593E+03  0.00000000000E+00 0.  1.
         13   -1    0    0    0    0 -0.00000000000E+00 -0.00000000000E+00 -0.10000000000E+04  0.10000000000E+04  0.00000000000E+00 0.  1.
    9000005    2    1    2  501    0 -0.57522627413E-02  0.51743917636E-02 -0.89518300654E+03  0.11048100709E+04  0.64749724132E+03 0.  0.
         13    1    3    3    0    0  0.31435777321E+03  0.70022717923E+02 -0.39131402298E+03  0.50680435593E+03  0.00000000000E+00 0.  1.
          3    1    3    3  501    0 -0.31436352548E+03 -0.70017543532E+02 -0.50386898356E+03  0.59800571498E+03  0.00000000000E+00 0.  1.
         21    1    1    2  502  501  0.57522627413E-02 -0.51743917636E-02  0.86247063380E-03  0.77850313012E-02  0.00000000000E+00 0.  1.
<mgrwt>
<rscale>  1 0.64749724E+03</rscale>
<asrwt>0</asrwt>
<pdfrwt beam="1">  1        1 0.38115664E+00 0.64749724E+03</pdfrwt>
<pdfrwt beam="2">0</pdfrwt>
<totfact> 0.16225428E+00</totfact>
</mgrwt>
</event>
<event>
 6    1  0.1729631E-003  0.6587970E+03  0.7818608E-02  0.9790411E-01
          1   -1    0    0  502    0  0.00000000000E+00  0.00000000000E+00  0.10850339086E+03  0.10850339086E+03  0.00000000000E+00 0.  1.
         13   -1    0    0    0    0 -0.00000000000E+00 -0.00000000000E+00 -0.10000000000E+04  0.10000000000E+04  0.00000000000E+00 0.  1.
    9000005    2    1    2  501    0 -0.66468839108E-05  0.17467687030E-06 -0.89149663221E+03  0.11085033669E+04  0.65879698625E+03 0.  0.
         13    1    3    3    0    0  0.61555423631E+02  0.29578118727E+03 -0.22489692035E+03  0.37663537501E+03  0.00000000000E+00 0.  1.
          3    1    3    3  501    0 -0.61555430278E+02 -0.29578118710E+03 -0.66659971186E+03  0.73186799185E+03  0.00000000000E+00 0.  1.
         21    1    1    2  502  501  0.66468839151E-05 -0.17467685125E-06  0.23065955188E-04  0.24005204988E-04  0.00000000000E+00 0.  1.
<mgrwt>
<rscale>  1 0.65879699E+03</rscale>
<asrwt>0</asrwt>
<pdfrwt beam="1">  1        1 0.39455862E+00 0.65879699E+03</pdfrwt>
<pdfrwt beam="2">0</pdfrwt>
<totfact> 0.14122708E+00</totfact>
</mgrwt>
</event>
<event>
 6    1  0.1729631E-003  0.6542162E+03  0.7818608E-02  0.9798900E-01
          1   -1    0    0  502    0  0.00000000000E+00  0.00000000000E+00  0.10709898233E+03  0.10709898233E+03  0.00000000000E+00 0.  1.
         13   -1    0    0    0    0 -0.00000000000E+00 -0.00000000000E+00 -0.10000000000E+04  0.10000000000E+04  0.00000000000E+00 0.  1.
    9000005    2    1    2  501    0 -0.70513444431E-02  0.20674942672E-02 -0.89300014325E+03  0.11069995848E+04  0.65421619114E+03 0.  0.
         13    1    3    3    0    0 -0.35116064741E+02 -0.17136169832E+03  0.21211040344E+02  0.17620408022E+03  0.00000000000E+00 0.  1.
          3    1    3    3  501    0  0.35109013397E+02  0.17136376581E+03 -0.91421118360E+03  0.93079550454E+03  0.00000000000E+00 0.  1.
         21    1    1    2  502  501  0.70513444431E-02 -0.20674942672E-02  0.99125585352E-01  0.99397573725E-01  0.00000000000E+00 0.  1.
<mgrwt>
<rscale>  1 0.65421619E+03</rscale>
<asrwt>0</asrwt>
<pdfrwt beam="1">  1        1 0.38945167E+00 0.65421619E+03</pdfrwt>
<pdfrwt beam="2">0</pdfrwt>
<totfact> 0.14892245E+00</totfact>
</mgrwt>
</event>
<event>
 6    1  0.1729631E-003  0.6561235E+03  0.7818608E-02  0.9795356E-01
          1   -1    0    0  502    0  0.00000000000E+00  0.00000000000E+00  0.10762485139E+03  0.10762485139E+03  0.00000000000E+00 0.  1.
         13   -1    0    0    0    0 -0.00000000000E+00 -0.00000000000E+00 -0.10000000000E+04  0.10000000000E+04  0.00000000000E+00 0.  1.
    9000005    2    1    2  501    0 -0.71875385401E-03  0.50413518453E-03 -0.89237473684E+03  0.11076238817E+04  0.65612345815E+03 0.  0.
         13    1    3    3    0    0  0.36669267804E+02 -0.38282727340E+01  0.10411613925E+03  0.11045117168E+03  0.00000000000E+00 0.  1.
          1    1    3    3  501    0 -0.36669986557E+02  0.38287768691E+01 -0.99649087609E+03  0.99717271001E+03  0.00000000000E+00 0.  1.
         21    1    1    2  502  501  0.71875385401E-03 -0.50413518453E-03 -0.41177293969E-03  0.96969909807E-03  0.00000000000E+00 0. -1.
<mgrwt>
<rscale>  1 0.65612346E+03</rscale>
<asrwt>0</asrwt>
<pdfrwt beam="1">  1        1 0.39136392E+00 0.65612346E+03</pdfrwt>
<pdfrwt beam="2">0</pdfrwt>
<totfact> 0.14599038E+00</totfact>
</mgrwt>
</event>
<event>
 6    1  0.1729631E-003  0.6427382E+03  0.7818608E-02  0.9820502E-01
          1   -1    0    0  502    0  0.00000000000E+00  0.00000000000E+00  0.10992720470E+03  0.10992720470E+03  0.00000000000E+00 0.  1.
         13   -1    0    0    0    0 -0.00000000000E+00 -0.00000000000E+00 -0.10000000000E+04  0.10000000000E+04  0.00000000000E+00 0.  1.
    9000005    2    1    2  501    0 -0.69483573916E+00  0.16727399519E+01 -0.89658553804E+03  0.11031672732E+04  0.64273565703E+03 0.  0.
         13    1    3    3    0    0  0.16260555137E+03  0.10797430776E+03 -0.10025282083E+02  0.19544698194E+03  0.00000000000E+00 0.  1.
          1    1    3    3  501    0 -0.16330038710E+03 -0.10630156781E+03 -0.88656025596E+03  0.90772029127E+03  0.00000000000E+00 0.  1.
         21    1    1    2  502  501  0.69483573916E+00 -0.16727399519E+01  0.65127427435E+01  0.67599314859E+01  0.00000000000E+00 0. -1.
<mgrwt>
<rscale>  1 0.64273821E+03</rscale>
<asrwt>0</asrwt>
<pdfrwt beam="1">  1        1 0.39973613E+00 0.64273821E+03</pdfrwt>
<pdfrwt beam="2">0</pdfrwt>
<totfact> 0.13433642E+00</totfact>
</mgrwt>
</event>
<event>
 6    1  0.1729631E-003  0.6497015E+03  0.7818608E-02  0.9807339E-01
          1   -1    0    0  502    0  0.00000000000E+00  0.00000000000E+00  0.10561240862E+03  0.10561240862E+03  0.00000000000E+00 0.  1.
         13   -1    0    0    0    0 -0.00000000000E+00 -0.00000000000E+00 -0.10000000000E+04  0.10000000000E+04  0.00000000000E+00 0.  1.
    9000005    2    1    2  501    0 -0.27168612099E-01 -0.62898862297E-02 -0.89446943403E+03  0.11055259452E+04  0.64970150562E+03 0.  0.
         13    1    3    3    0    0 -0.23249767801E+03  0.58462145435E+02 -0.74210827773E+02  0.25095864139E+03  0.00000000000E+00 0.  1.
          1    1    3    3  501    0  0.23247050940E+03 -0.58468435321E+02 -0.82025860626E+03  0.85456730385E+03  0.00000000000E+00 0.  1.
         21    1    1    2  502  501  0.27168612099E-01  0.62898862297E-02  0.81842647887E-01  0.86463374704E-01  0.00000000000E+00 0.  1.
<mgrwt>
<rscale>  1 0.64970151E+03</rscale>
<asrwt>0</asrwt>
<pdfrwt beam="1">  1        1 0.38404593E+00 0.64970151E+03</pdfrwt>
<pdfrwt beam="2">0</pdfrwt>
<totfact> 0.15749080E+00</totfact>
</mgrwt>
</event>
<event>
 6    1  0.1729631E-003  0.6501078E+03  0.7818608E-02  0.9806577E-01
          1   -1    0    0  502    0  0.00000000000E+00  0.00000000000E+00  0.10566897453E+03  0.10566897453E+03  0.00000000000E+00 0.  1.
         13   -1    0    0    0    0 -0.00000000000E+00 -0.00000000000E+00 -0.10000000000E+04  0.10000000000E+04  0.00000000000E+00 0.  1.
    9000005    2    1    2  501    0 -0.11402851332E-01  0.75890182081E-02 -0.89433375609E+03  0.11056550076E+04  0.65010778214E+03 0.  0.
         13    1    3    3    0    0 -0.48353406159E+02  0.21209008296E+03 -0.85796602332E+03  0.88511352512E+03  0.00000000000E+00 0.  1.
          3    1    3    3  501    0  0.48342003308E+02 -0.21208249394E+03 -0.36367732777E+02  0.22054148251E+03  0.00000000000E+00 0.  1.
         21    1    1    2  502  501  0.11402851332E-01 -0.75890182081E-02  0.27306252423E-02  0.13966908393E-01  0.00000000000E+00 0.  1.
<mgrwt>
<rscale>  1 0.65010778E+03</rscale>
<asrwt>0</asrwt>
<pdfrwt beam="1">  1        1 0.38425163E+00 0.65010778E+03</pdfrwt>
<pdfrwt beam="2">0</pdfrwt>
<totfact> 0.15714957E+00</totfact>
</mgrwt>
</event>
<event>
 6    1  0.1729631E-003  0.6369881E+03  0.7818608E-02  0.9831506E-01
          1   -1    0    0  502    0  0.00000000000E+00  0.00000000000E+00  0.10144096205E+03  0.10144096205E+03  0.00000000000E+00 0.  1.
         13   -1    0    0    0    0 -0.00000000000E+00 -0.00000000000E+00 -0.10000000000E+04  0.10000000000E+04  0.00000000000E+00 0.  1.
    9000005    2    1    2  501    0 -0.27723268953E-02 -0.39162486447E-02 -0.89855871989E+03  0.11014361533E+04  0.63698808993E+03 0.  0.
         13    1    3    3    0    0 -0.11196755901E+03  0.10449673055E+03  0.33585448981E+02  0.15679376055E+03  0.00000000000E+00 0.  1.
          3    1    3    3  501    0  0.11196478668E+03 -0.10450064680E+03 -0.93214416887E+03  0.94464239276E+03  0.00000000000E+00 0.  1.
         21    1    1    2  502  501  0.27723268953E-02  0.39162486447E-02 -0.31805308653E-03  0.48087376334E-02  0.00000000000E+00 0.  1.
<mgrwt>
<rscale>  1 0.63698809E+03</rscale>
<asrwt>0</asrwt>
<pdfrwt beam="1">  1        1 0.36887700E+00 0.63698809E+03</pdfrwt>
<pdfrwt beam="2">0</pdfrwt>
<totfact> 0.18411352E+00</totfact>
</mgrwt>
</event>
<event>
 6    1  0.1729631E-003  0.6425570E+03  0.7818608E-02  0.9820847E-01
          3   -1    0    0  502    0  0.00000000000E+00  0.00000000000E+00  0.19119435277E+03  0.19119435277E+03  0.00000000000E+00 0.  1.
         13   -1    0    0    0    0 -0.00000000000E+00 -0.00000000000E+00 -0.10000000000E+04  0.10000000000E+04  0.00000000000E+00 0.  1.
    9000005    2    1    2  501    0 -0.82133805382E+01 -0.42611426447E+01 -0.89651162449E+03  0.11030016354E+04  0.64249038733E+03 0.  0.
         13    1    3    3    0    0  0.11666373866E+03  0.27597752919E+03 -0.62584511501E+03  0.69387040037E+03  0.00000000000E+00 0.  1.
          3    1    3    3  501    0 -0.12487711920E+03 -0.28023867183E+03 -0.27066650948E+03  0.40913123499E+03  0.00000000000E+00 0.  1.
         21    1    1    2  502  501  0.82133805382E+01  0.42611426447E+01  0.87705977256E+02  0.88192717403E+02  0.00000000000E+00 0.  1.
<mgrwt>
<rscale>  1 0.64255701E+03</rscale>
<asrwt>0</asrwt>
<pdfrwt beam="1">  1        3 0.69525366E+00 0.64255701E+03</pdfrwt>
<pdfrwt beam="2">0</pdfrwt>
<totfact> 0.20123321E-03</totfact>
</mgrwt>
</event>
<event>
 6    1  0.1729631E-003  0.6505977E+03  0.7818608E-02  0.9805658E-01
          1   -1    0    0  502    0  0.00000000000E+00  0.00000000000E+00  0.10581938196E+03  0.10581938196E+03  0.00000000000E+00 0.  1.
         13   -1    0    0    0    0 -0.00000000000E+00 -0.00000000000E+00 -0.10000000000E+04  0.10000000000E+04  0.00000000000E+00 0.  1.
    9000005    2    1    2  501    0  0.51402911311E-04 -0.29060286636E-04 -0.89418064678E+03  0.11058193163E+04  0.65059767230E+03 0.  0.
         13    1    3    3    0    0 -0.29024561722E+03 -0.12417791098E+03 -0.31372468047E+03  0.44506836220E+03  0.00000000000E+00 0.  1.
          1    1    3    3  501    0  0.29024566862E+03  0.12417788192E+03 -0.58045596630E+03  0.66075095409E+03  0.00000000000E+00 0.  1.
         21    1    1    2  502  501 -0.51402911321E-04  0.29060286640E-04  0.28736518988E-04  0.65669986108E-04  0.00000000000E+00 0. -1.
<mgrwt>
<rscale>  1 0.65059767E+03</rscale>
<asrwt>0</asrwt>
<pdfrwt beam="1">  1        1 0.38479856E+00 0.65059767E+03</pdfrwt>
<pdfrwt beam="2">0</pdfrwt>
<totfact> 0.15626268E+00</totfact>
</mgrwt>
</event>
<event>
 6    1  0.1729631E-003  0.6421089E+03  0.7818608E-02  0.9821700E-01
          1   -1    0    0  502    0  0.00000000000E+00  0.00000000000E+00  0.10380186774E+03  0.10380186774E+03  0.00000000000E+00 0.  1.
         13   -1    0    0    0    0 -0.00000000000E+00 -0.00000000000E+00 -0.10000000000E+04  0.10000000000E+04  0.00000000000E+00 0.  1.
    9000005    2    1    2  501    0 -0.98668170457E-01  0.19577025365E-01 -0.89692020785E+03  0.11030728192E+04  0.64210884983E+03 0.  0.
         13    1    3    3    0    0 -0.39226909365E+02  0.20218906019E+03 -0.87159678279E+03  0.89560042332E+03  0.00000000000E+00 0.  1.
          3    1    3    3  501    0  0.39128241195E+02 -0.20216948317E+03 -0.25323425056E+02  0.20747239585E+03  0.00000000000E+00 0.  1.
         21    1    1    2  502  501  0.98668170457E-01 -0.19577025365E-01  0.72207558423E+00  0.72904856980E+00  0.00000000000E+00 0.  1.
<mgrwt>
<rscale>  1 0.64210886E+03</rscale>
<asrwt>0</asrwt>
<pdfrwt beam="1">  1        1 0.37746213E+00 0.64210886E+03</pdfrwt>
<pdfrwt beam="2">0</pdfrwt>
<totfact> 0.16862486E+00</totfact>
</mgrwt>
</event>
<event>
 6    1  0.1729631E-003  0.6516771E+03  0.7818608E-02  0.9803637E-01
          1   -1    0    0  502    0  0.00000000000E+00  0.00000000000E+00  0.10617420805E+03  0.10617420805E+03  0.00000000000E+00 0.  1.
         13   -1    0    0    0    0 -0.00000000000E+00 -0.00000000000E+00 -0.10000000000E+04  0.10000000000E+04  0.00000000000E+00 0.  1.
    9000005    2    1    2  501    0 -0.30042989610E-03 -0.87200337202E-03 -0.89382917088E+03  0.11061707055E+04  0.65167710025E+03 0.  0.
         13    1    3    3    0    0  0.76038322038E+02  0.27001122913E+03 -0.72831054567E+03  0.78046405504E+03  0.00000000000E+00 0.  1.
          3    1    3    3  501    0 -0.76038622468E+02 -0.27001210113E+03 -0.16551862521E+03  0.32570665046E+03  0.00000000000E+00 0.  1.
         21    1    1    2  502  501  0.30042989611E-03  0.87200337200E-03  0.33789298838E-02  0.35025440986E-02  0.00000000000E+00 0.  1.
<mgrwt>
<rscale>  1 0.65167710E+03</rscale>
<asrwt>0</asrwt>
<pdfrwt beam="1">  1        1 0.38608884E+00 0.65167710E+03</pdfrwt>
<pdfrwt beam="2">0</pdfrwt>
<totfact> 0.15419140E+00</totfact>
</mgrwt>
</event>
<event>
 6    1  0.1729631E-003  0.6493898E+03  0.7818608E-02  0.9807925E-01
          1   -1    0    0  502    0  0.00000000000E+00  0.00000000000E+00  0.10542714442E+03  0.10542714442E+03  0.00000000000E+00 0.  1.
         13   -1    0    0    0    0 -0.00000000000E+00 -0.00000000000E+00 -0.10000000000E+04  0.10000000000E+04  0.00000000000E+00 0.  1.
    9000005    2    1    2  501    0 -0.61749757191E-03 -0.25581546674E-03 -0.89457281555E+03  0.11054264748E+04  0.64938984356E+03 0.  0.
         13    1    3    3    0    0 -0.27112781954E+03  0.17530942593E+03 -0.50584087723E+03  0.60009889388E+03  0.00000000000E+00 0.  1.
          3    1    3    3  501    0  0.27112720205E+03 -0.17530968174E+03 -0.38873193832E+03  0.50532758095E+03  0.00000000000E+00 0.  1.
         21    1    1    2  502  501  0.61749757189E-03  0.25581546674E-03 -0.40030850008E-04  0.66958739032E-03  0.00000000000E+00 0.  1.
<mgrwt>
<rscale>  1 0.64938984E+03</rscale>
<asrwt>0</asrwt>
<pdfrwt beam="1">  1        1 0.38337224E+00 0.64938984E+03</pdfrwt>
<pdfrwt beam="2">0</pdfrwt>
<totfact> 0.15858354E+00</totfact>
</mgrwt>
</event>
<event>
 6    1  0.1729631E-003  0.6535350E+03  0.7818608E-02  0.9800169E-01
          1   -1    0    0  502    0  0.00000000000E+00  0.00000000000E+00  0.10677702478E+03  0.10677702478E+03  0.00000000000E+00 0.  1.
         13   -1    0    0    0    0 -0.00000000000E+00 -0.00000000000E+00 -0.10000000000E+04  0.10000000000E+04  0.00000000000E+00 0.  1.
    9000005    2    1    2  501    0 -0.17469099248E-04  0.21964058021E-05 -0.89322300245E+03  0.11067769924E+04  0.65353498660E+03 0.  0.
         13    1    3    3    0    0 -0.23215650579E+03  0.20294954636E+03 -0.62973019860E+03  0.70117421842E+03  0.00000000000E+00 0.  1.
          3    1    3    3  501    0  0.23215648833E+03 -0.20294954416E+03 -0.26349280385E+03  0.40560277394E+03  0.00000000000E+00 0.  1.
         21    1    1    2  502  501  0.17469099238E-04 -0.21964057899E-05  0.27230867126E-04  0.32427052764E-04  0.00000000000E+00 0. -1.
<mgrwt>
<rscale>  1 0.65353499E+03</rscale>
<asrwt>0</asrwt>
<pdfrwt beam="1">  1        1 0.38828091E+00 0.65353499E+03</pdfrwt>
<pdfrwt beam="2">0</pdfrwt>
<totfact> 0.15073146E+00</totfact>
</mgrwt>
</event>
<event>
 6    1  0.1729631E-003  0.6825348E+03  0.7818608E-02  0.9747575E-01
          1   -1    0    0  502    0  0.00000000000E+00  0.00000000000E+00  0.11778293329E+03  0.11778293329E+03  0.00000000000E+00 0.  1.
         13   -1    0    0    0    0 -0.00000000000E+00 -0.00000000000E+00 -0.10000000000E+04  0.10000000000E+04  0.00000000000E+00 0.  1.
    9000005    2    1    2  501    0  0.16189555933E-01  0.19801048791E-01 -0.88353641994E+03  0.11164633322E+04  0.68253480942E+03 0.  0.
         13    1    3    3    0    0 -0.17639263770E+03 -0.28077918947E+01  0.36087334586E+02  0.18006815945E+03  0.00000000000E+00 0.  1.
          1    1    3    3  501    0  0.17640882725E+03  0.28275929435E+01 -0.91962375452E+03  0.93639517272E+03  0.00000000000E+00 0.  1.
         21    1    1    2  502  501 -0.16189555933E-01 -0.19801048791E-01  0.13193532260E+01  0.13196011209E+01  0.00000000000E+00 0.  1.
<mgrwt>
<rscale>  1 0.68253481E+03</rscale>
<asrwt>0</asrwt>
<pdfrwt beam="1">  1        1 0.42830248E+00 0.68253481E+03</pdfrwt>
<pdfrwt beam="2">0</pdfrwt>
<totfact> 0.99182785E-01</totfact>
</mgrwt>
</event>
<event>
 6    1  0.1729631E-003  0.6549819E+03  0.7818608E-02  0.9797476E-01
          1   -1    0    0  502    0  0.00000000000E+00  0.00000000000E+00  0.10726667550E+03  0.10726667550E+03  0.00000000000E+00 0.  1.
         13   -1    0    0    0    0 -0.00000000000E+00 -0.00000000000E+00 -0.10000000000E+04  0.10000000000E+04  0.00000000000E+00 0.  1.
    9000005    2    1    2  501    0  0.16518643494E-01 -0.18977486396E-02 -0.89274486569E+03  0.11072464353E+04  0.65498188751E+03 0.  0.
         13    1    3    3    0    0  0.23625551400E+03  0.22336728968E+03 -0.37994965315E+03  0.50007134783E+03  0.00000000000E+00 0.  1.
          3    1    3    3  501    0 -0.23623899536E+03 -0.22336918743E+03 -0.51279521254E+03  0.60717508745E+03  0.00000000000E+00 0.  1.
         21    1    1    2  502  501 -0.16518643494E-01  0.18977486396E-02  0.11541198583E-01  0.20240214858E-01  0.00000000000E+00 0. -1.
<mgrwt>
<rscale>  1 0.65498189E+03</rscale>
<asrwt>0</asrwt>
<pdfrwt beam="1">  1        1 0.39006146E+00 0.65498189E+03</pdfrwt>
<pdfrwt beam="2">0</pdfrwt>
<totfact> 0.14797712E+00</totfact>
</mgrwt>
</event>
<event>
 6    1  0.1729631E-003  0.6514376E+03  0.7818608E-02  0.9804085E-01
          1   -1    0    0  502    0  0.00000000000E+00  0.00000000000E+00  0.10798156486E+03  0.10798156486E+03  0.00000000000E+00 0.  1.
         13   -1    0    0    0    0 -0.00000000000E+00 -0.00000000000E+00 -0.10000000000E+04  0.10000000000E+04  0.00000000000E+00 0.  1.
    9000005    2    1    2  501    0 -0.10322284690E+01 -0.13522423409E+01 -0.89347402411E+03  0.11057426378E+04  0.65143538076E+03 0.  0.
         13    1    3    3    0    0 -0.23154292407E+02 -0.10445447329E+03  0.75564160513E+02  0.13098397078E+03  0.00000000000E+00 0.  1.
          1    1    3    3  501    0  0.22122063938E+02  0.10310223095E+03 -0.96903818463E+03  0.97475866706E+03  0.00000000000E+00 0.  1.
         21    1    1    2  502  501  0.10322284690E+01  0.13522423409E+01  0.14555889694E+01  0.22389270218E+01  0.00000000000E+00 0.  1.
<mgrwt>
<rscale>  1 0.65143760E+03</rscale>
<asrwt>0</asrwt>
<pdfrwt beam="1">  1        1 0.39266106E+00 0.65143760E+03</pdfrwt>
<pdfrwt beam="2">0</pdfrwt>
<totfact> 0.14419340E+00</totfact>
</mgrwt>
</event>
<event>
 6    1  0.1729631E-003  0.6188499E+03  0.7818608E-02  0.9867052E-01
          1   -1    0    0  502    0  0.00000000000E+00  0.00000000000E+00  0.95744223040E+02  0.95744223040E+02  0.00000000000E+00 0.  1.
         13   -1    0    0    0    0 -0.00000000000E+00 -0.00000000000E+00 -0.10000000000E+04  0.10000000000E+04  0.00000000000E+00 0.  1.
    9000005    2    1    2  501    0 -0.37401749921E-04 -0.48030988296E-04 -0.90425619562E+03  0.10957438000E+04  0.61884990738E+03 0.  0.
         13    1    3    3    0    0 -0.12185422898E+03 -0.24908441415E+03 -0.69523996717E+03  0.74849857077E+03  0.00000000000E+00 0.  1.
          3    1    3    3  501    0  0.12185419158E+03  0.24908436612E+03 -0.20901622845E+03  0.34724522921E+03  0.00000000000E+00 0.  1.
         21    1    1    2  502  501  0.37401749924E-04  0.48030988298E-04  0.41866000015E-03  0.42306271694E-03  0.00000000000E+00 0. -1.
<mgrwt>
<rscale>  1 0.61884991E+03</rscale>
<asrwt>0</asrwt>
<pdfrwt beam="1">  1        1 0.34816155E+00 0.61884991E+03</pdfrwt>
<pdfrwt beam="2">0</pdfrwt>
<totfact> 0.22754113E+00</totfact>
</mgrwt>
</event>
<event>
 6    1  0.1729631E-003  0.6515951E+03  0.7818608E-02  0.9803791E-01
          1   -1    0    0  502    0  0.00000000000E+00  0.00000000000E+00  0.10776105659E+03  0.10776105659E+03  0.00000000000E+00 0.  1.
         13   -1    0    0    0    0 -0.00000000000E+00 -0.00000000000E+00 -0.10000000000E+04  0.10000000000E+04  0.00000000000E+00 0.  1.
    9000005    2    1    2  501    0 -0.11655148204E+01  0.91275648326E+00 -0.89347242342E+03  0.11058341362E+04  0.65159341146E+03 0.  0.
         13    1    3    3    0    0 -0.82174163735E+02 -0.26153236453E+03 -0.14835663881E+03  0.31170733575E+03  0.00000000000E+00 0.  1.
          1    1    3    3  501    0  0.81008648915E+02  0.26244512101E+03 -0.74511578461E+03  0.79412680047E+03  0.00000000000E+00 0.  1.
         21    1    1    2  502  501  0.11655148204E+01 -0.91275648326E+00  0.12334800075E+01  0.19269203729E+01  0.00000000000E+00 0.  1.
<mgrwt>
<rscale>  1 0.65159509E+03</rscale>
<asrwt>0</asrwt>
<pdfrwt beam="1">  1        1 0.39185921E+00 0.65159509E+03</pdfrwt>
<pdfrwt beam="2">0</pdfrwt>
<totfact> 0.14537585E+00</totfact>
</mgrwt>
</event>
<event>
 6    1  0.1729631E-003  0.6520431E+03  0.7818608E-02  0.9802953E-01
          1   -1    0    0  502    0  0.00000000000E+00  0.00000000000E+00  0.10629008466E+03  0.10629008466E+03  0.00000000000E+00 0.  1.
         13   -1    0    0    0    0 -0.00000000000E+00 -0.00000000000E+00 -0.10000000000E+04  0.10000000000E+04  0.00000000000E+00 0.  1.
    9000005    2    1    2  501    0  0.35227714015E-04 -0.11363754595E-04 -0.89370995224E+03  0.11062900324E+04  0.65204306379E+03 0.  0.
         13    1    3    3    0    0 -0.33447029873E+02  0.19642968826E+03 -0.88466579595E+03  0.90682793117E+03  0.00000000000E+00 0.  1.
          3    1    3    3  501    0  0.33447065101E+02 -0.19642969963E+03 -0.90441562942E+01  0.19946210122E+03  0.00000000000E+00 0.  1.
         21    1    1    2  502  501 -0.35227714016E-04  0.11363754591E-04  0.36896023242E-04  0.52263211576E-04  0.00000000000E+00 0.  1.
<mgrwt>
<rscale>  1 0.65204306E+03</rscale>
<asrwt>0</asrwt>
<pdfrwt beam="1">  1        1 0.38651021E+00 0.65204306E+03</pdfrwt>
<pdfrwt beam="2">0</pdfrwt>
<totfact> 0.15352026E+00</totfact>
</mgrwt>
</event>
<event>
 6    1  0.1729631E-003  0.6248069E+03  0.7818608E-02  0.9855236E-01
          1   -1    0    0  502    0  0.00000000000E+00  0.00000000000E+00  0.97700459202E+02  0.97700459202E+02  0.00000000000E+00 0.  1.
         13   -1    0    0    0    0 -0.00000000000E+00 -0.00000000000E+00 -0.10000000000E+04  0.10000000000E+04  0.00000000000E+00 0.  1.
    9000005    2    1    2  501    0 -0.14337288127E-03  0.15845806917E-02 -0.90240408349E+03  0.10975959044E+04  0.62480688175E+03 0.  0.
         13    1    3    3    0    0  0.29181357207E+03  0.83777228022E+02 -0.32184669776E+03  0.44244669920E+03  0.00000000000E+00 0.  1.
          1    1    3    3  501    0 -0.29181371544E+03 -0.83775643441E+02 -0.58055738573E+03  0.65514920521E+03  0.00000000000E+00 0.  1.
         21    1    1    2  502  501  0.14337288129E-03 -0.15845806916E-02  0.10454268822E+00  0.10455479478E+00  0.00000000000E+00 0. -1.
<mgrwt>
<rscale>  1 0.62480688E+03</rscale>
<asrwt>0</asrwt>
<pdfrwt beam="1">  1        1 0.35527515E+00 0.62480688E+03</pdfrwt>
<pdfrwt beam="2">0</pdfrwt>
<totfact> 0.21163189E+00</totfact>
</mgrwt>
</event>
<event>
 6    1  0.1729631E-003  0.6503171E+03  0.7818608E-02  0.9806184E-01
          1   -1    0    0  502    0  0.00000000000E+00  0.00000000000E+00  0.10572960226E+03  0.10572960226E+03  0.00000000000E+00 0.  1.
         13   -1    0    0    0    0 -0.00000000000E+00 -0.00000000000E+00 -0.10000000000E+04  0.10000000000E+04  0.00000000000E+00 0.  1.
    9000005    2    1    2  501    0  0.26425921249E-04 -0.82537942774E-05 -0.89427193018E+03  0.11057280696E+04  0.65031706016E+03 0.  0.
         13    1    3    3    0    0 -0.15346623462E+03  0.15472655583E+03 -0.85745197909E+03  0.88471243277E+03  0.00000000000E+00 0.  1.
          1    1    3    3  501    0  0.15346626104E+03 -0.15472656409E+03 -0.36819951085E+02  0.22101563680E+03  0.00000000000E+00 0.  1.
         21    1    1    2  502  501 -0.26425921248E-04  0.82537942832E-05  0.15324439597E-02  0.15326940152E-02  0.00000000000E+00 0.  1.
<mgrwt>
<rscale>  1 0.65031706E+03</rscale>
<asrwt>0</asrwt>
<pdfrwt beam="1">  1        1 0.38447209E+00 0.65031706E+03</pdfrwt>
<pdfrwt beam="2">0</pdfrwt>
<totfact> 0.15679116E+00</totfact>
</mgrwt>
</event>
<event>
 6    1  0.1729631E-003  0.6572737E+03  0.7818608E-02  0.9793225E-01
          1   -1    0    0  502    0  0.00000000000E+00  0.00000000000E+00  0.10800251495E+03  0.10800251495E+03  0.00000000000E+00 0.  1.
         13   -1    0    0    0    0 -0.00000000000E+00 -0.00000000000E+00 -0.10000000000E+04  0.10000000000E+04  0.00000000000E+00 0.  1.
    9000005    2    1    2  501    0 -0.33124115193E-03 -0.55167445674E-03 -0.89199739936E+03  0.11080018658E+04  0.65727374368E+03 0.  0.
         13    1    3    3    0    0  0.22826557285E+02 -0.18855901948E+03 -0.89810397126E+03  0.91796857176E+03  0.00000000000E+00 0.  1.
          3    1    3    3  501    0 -0.22826888526E+02  0.18855846781E+03  0.61065718960E+01  0.19003329404E+03  0.00000000000E+00 0.  1.
         21    1    1    2  502  501  0.33124115193E-03  0.55167445675E-03 -0.85688961789E-04  0.64915946048E-03  0.00000000000E+00 0.  1.
<mgrwt>
<rscale>  1 0.65727374E+03</rscale>
<asrwt>0</asrwt>
<pdfrwt beam="1">  1        1 0.39273725E+00 0.65727374E+03</pdfrwt>
<pdfrwt beam="2">0</pdfrwt>
<totfact> 0.14392437E+00</totfact>
</mgrwt>
</event>
<event>
 6    1  0.1729631E-003  0.6246443E+03  0.7818608E-02  0.9855556E-01
          3   -1    0    0  502    0  0.00000000000E+00  0.00000000000E+00  0.97545445000E+02  0.97545445000E+02  0.00000000000E+00 0.  1.
         13   -1    0    0    0    0 -0.00000000000E+00 -0.00000000000E+00 -0.10000000000E+04  0.10000000000E+04  0.00000000000E+00 0.  1.
    9000005    2    1    2  501    0  0.28772834366E-03 -0.14858411822E-03 -0.90245476740E+03  0.10975450577E+04  0.62464433604E+03 0.  0.
         13    1    3    3    0    0  0.21858105422E+03  0.13351383574E+03 -0.76525492458E+03  0.80698123968E+03  0.00000000000E+00 0.  1.
          1    1    3    3  501    0 -0.21858076649E+03 -0.13351398433E+03 -0.13719984282E+03  0.29056381805E+03  0.00000000000E+00 0.  1.
         21    1    1    2  502  501 -0.28772834367E-03  0.14858411822E-03  0.21239749987E-03  0.38726933507E-03  0.00000000000E+00 0. -1.
<mgrwt>
<rscale>  1 0.62464434E+03</rscale>
<asrwt>0</asrwt>
<pdfrwt beam="1">  1        3 0.35471146E+00 0.62464434E+03</pdfrwt>
<pdfrwt beam="2">0</pdfrwt>
<totfact> 0.10320290E-01</totfact>
</mgrwt>
</event>
<event>
 6    1  0.1729631E-003  0.6405381E+03  0.7818608E-02  0.9824698E-01
          1   -1    0    0  502    0  0.00000000000E+00  0.00000000000E+00  0.10257256644E+03  0.10257256644E+03  0.00000000000E+00 0.  1.
         13   -1    0    0    0    0 -0.00000000000E+00 -0.00000000000E+00 -0.10000000000E+04  0.10000000000E+04  0.00000000000E+00 0.  1.
    9000005    2    1    2  501    0 -0.13962378264E-03  0.17975658653E-03 -0.89742768177E+03  0.11025722297E+04  0.64053811568E+03 0.  0.
         13    1    3    3    0    0  0.76278882227E+02  0.30739706052E+03 -0.36686706248E+03  0.48466778542E+03  0.00000000000E+00 0.  1.
          1    1    3    3  501    0 -0.76279021851E+02 -0.30739688077E+03 -0.53056061929E+03  0.61790444424E+03  0.00000000000E+00 0.  1.
         21    1    1    2  502  501  0.13962378265E-03 -0.17975658654E-03  0.24821304568E-03  0.33677432672E-03  0.00000000000E+00 0.  1.
<mgrwt>
<rscale>  1 0.64053812E+03</rscale>
<asrwt>0</asrwt>
<pdfrwt beam="1">  1        1 0.37299194E+00 0.64053812E+03</pdfrwt>
<pdfrwt beam="2">0</pdfrwt>
<totfact> 0.17649195E+00</totfact>
</mgrwt>
</event>
<event>
 6    1  0.1729631E-003  0.6401378E+03  0.7818608E-02  0.9825463E-01
          1   -1    0    0  502    0  0.00000000000E+00  0.00000000000E+00  0.10615987083E+03  0.10615987083E+03  0.00000000000E+00 0.  1.
         13   -1    0    0    0    0 -0.00000000000E+00 -0.00000000000E+00 -0.10000000000E+04  0.10000000000E+04  0.00000000000E+00 0.  1.
    9000005    2    1    2  501    0 -0.10838904555E+00 -0.28186914237E-01 -0.89755498447E+03  0.11024433277E+04  0.64013774156E+03 0.  0.
         13    1    3    3    0    0 -0.19387107995E+03 -0.25435126688E+03 -0.42499432817E+03  0.53188414300E+03  0.00000000000E+00 0.  1.
          3    1    3    3  501    0  0.19376269091E+03  0.25432307997E+03 -0.47256065630E+03  0.57055918473E+03  0.00000000000E+00 0.  1.
         21    1    1    2  502  501  0.10838904555E+00  0.28186914237E-01  0.37148553031E+01  0.37165430995E+01  0.00000000000E+00 0.  1.
<mgrwt>
<rscale>  1 0.64013775E+03</rscale>
<asrwt>0</asrwt>
<pdfrwt beam="1">  1        1 0.38603671E+00 0.64013775E+03</pdfrwt>
<pdfrwt beam="2">0</pdfrwt>
<totfact> 0.15460512E+00</totfact>
</mgrwt>
</event>
<event>
 6    1  0.1729631E-003  0.6390104E+03  0.7818608E-02  0.9827622E-01
          1   -1    0    0  502    0  0.00000000000E+00  0.00000000000E+00  0.11545816250E+03  0.11545816250E+03  0.00000000000E+00 0.  1.
         13   -1    0    0    0    0 -0.00000000000E+00 -0.00000000000E+00 -0.10000000000E+04  0.10000000000E+04  0.00000000000E+00 0.  1.
    9000005    2    1    2  501    0 -0.77029990593E+01 -0.57553863028E+01 -0.89598552003E+03  0.11005109709E+04  0.63893809119E+03 0.  0.
         13    1    3    3    0    0 -0.16600567330E+03  0.11106759299E+02 -0.92400615705E+03  0.93886560377E+03  0.00000000000E+00 0.  1.
          3    1    3    3  501    0  0.15830267424E+03 -0.16862145602E+02  0.28020637022E+02  0.16164536716E+03  0.00000000000E+00 0.  1.
         21    1    1    2  502  501  0.77029990593E+01  0.57553863028E+01  0.11443682532E+02  0.14947191572E+02  0.00000000000E+00 0.  1.
<mgrwt>
<rscale>  1 0.63901044E+03</rscale>
<asrwt>0</asrwt>
<pdfrwt beam="1">  1        1 0.41984875E+00 0.63901044E+03</pdfrwt>
<pdfrwt beam="2">0</pdfrwt>
<totfact> 0.10924174E+00</totfact>
</mgrwt>
</event>
<event>
 6    1  0.1729631E-003  0.6456196E+03  0.7818608E-02  0.9815034E-01
          1   -1    0    0  502    0  0.00000000000E+00  0.00000000000E+00  0.10420619205E+03  0.10420619205E+03  0.00000000000E+00 0.  1.
         13   -1    0    0    0    0 -0.00000000000E+00 -0.00000000000E+00 -0.10000000000E+04  0.10000000000E+04  0.00000000000E+00 0.  1.
    9000005    2    1    2  501    0 -0.46952553589E-04  0.26620002870E-04 -0.89579381737E+03  0.11042061373E+04  0.64561957090E+03 0.  0.
         13    1    3    3    0    0 -0.15476353840E+03 -0.25603505569E+03 -0.65526353750E+03  0.72033048397E+03  0.00000000000E+00 0.  1.
          3    1    3    3  501    0  0.15476349144E+03  0.25603508231E+03 -0.24053027987E+03  0.38387565329E+03  0.00000000000E+00 0.  1.
         21    1    1    2  502  501  0.46952553573E-04 -0.26620002875E-04  0.94129189663E-05  0.54788410121E-04  0.00000000000E+00 0.  1.
<mgrwt>
<rscale>  1 0.64561957E+03</rscale>
<asrwt>0</asrwt>
<pdfrwt beam="1">  1        1 0.37893241E+00 0.64561957E+03</pdfrwt>
<pdfrwt beam="2">0</pdfrwt>
<totfact> 0.16601990E+00</totfact>
</mgrwt>
</event>
<event>
 6    1  0.1729631E-003  0.6502880E+03  0.7818608E-02  0.9806239E-01
          1   -1    0    0  502    0  0.00000000000E+00  0.00000000000E+00  0.10571863844E+03  0.10571863844E+03  0.00000000000E+00 0.  1.
         13   -1    0    0    0    0 -0.00000000000E+00 -0.00000000000E+00 -0.10000000000E+04  0.10000000000E+04  0.00000000000E+00 0.  1.
    9000005    2    1    2  501    0  0.33944922905E-04 -0.17963534688E-04 -0.89428132681E+03  0.11057185866E+04  0.65028801417E+03 0.  0.
         13    1    3    3    0    0 -0.15548674793E+03 -0.88779470416E+02  0.14343481176E+02  0.17962087463E+03  0.00000000000E+00 0.  1.
          1    1    3    3  501    0  0.15548678188E+03  0.88779452453E+02 -0.90862480798E+03  0.92609771202E+03  0.00000000000E+00 0.  1.
         21    1    1    2  502  501 -0.33944922912E-04  0.17963534683E-04 -0.34751078436E-04  0.51793665851E-04  0.00000000000E+00 0. -1.
<mgrwt>
<rscale>  1 0.65028801E+03</rscale>
<asrwt>0</asrwt>
<pdfrwt beam="1">  1        1 0.38443222E+00 0.65028801E+03</pdfrwt>
<pdfrwt beam="2">0</pdfrwt>
<totfact> 0.15685566E+00</totfact>
</mgrwt>
</event>
<event>
 6    1  0.1729631E-003  0.6269029E+03  0.7818608E-02  0.9851111E-01
          1   -1    0    0  502    0  0.00000000000E+00  0.00000000000E+00  0.98252552318E+02  0.98252552318E+02  0.00000000000E+00 0.  1.
         13   -1    0    0    0    0 -0.00000000000E+00 -0.00000000000E+00 -0.10000000000E+04  0.10000000000E+04  0.00000000000E+00 0.  1.
    9000005    2    1    2  501    0 -0.33216327694E-03  0.19045656645E-03 -0.90174814862E+03  0.10982517536E+04  0.62690285594E+03 0.  0.
         13    1    3    3    0    0  0.13192673511E+03  0.40643749739E+02 -0.94387867219E+03  0.95392008347E+03  0.00000000000E+00 0.  1.
          3    1    3    3  501    0 -0.13192706728E+03 -0.40643559282E+02  0.42130523570E+02  0.14433167015E+03  0.00000000000E+00 0.  1.
         21    1    1    2  502  501  0.33216327693E-03 -0.19045656645E-03  0.70093975638E-03  0.79870062497E-03  0.00000000000E+00 0. -1.
<mgrwt>
<rscale>  1 0.62690286E+03</rscale>
<asrwt>0</asrwt>
<pdfrwt beam="1">  1        1 0.35728276E+00 0.62690286E+03</pdfrwt>
<pdfrwt beam="2">0</pdfrwt>
<totfact> 0.20732400E+00</totfact>
</mgrwt>
</event>
<event>
 6    1  0.1729631E-003  0.6345951E+03  0.7818608E-02  0.9836123E-01
          1   -1    0    0  502    0  0.00000000000E+00  0.00000000000E+00  0.10067784903E+03  0.10067784903E+03  0.00000000000E+00 0.  1.
         13   -1    0    0    0    0 -0.00000000000E+00 -0.00000000000E+00 -0.10000000000E+04  0.10000000000E+04  0.00000000000E+00 0.  1.
    9000005    2    1    2  501    0 -0.11041551886E-05  0.32828173744E-05 -0.89932226109E+03  0.11006777389E+04  0.63459511147E+03 0.  0.
         13    1    3    3    0    0 -0.30173262430E+02  0.31114266530E+03 -0.35533545205E+03  0.47326891660E+03  0.00000000000E+00 0.  1.
          3    1    3    3  501    0  0.30173261326E+02 -0.31114266202E+03 -0.54398680904E+03  0.62740882225E+03  0.00000000000E+00 0.  1.
         21    1    1    2  502  501  0.11041551870E-05 -0.32828173560E-05  0.11012639202E-03  0.11018084348E-03  0.00000000000E+00 0. -1.
<mgrwt>
<rscale>  1 0.63459511E+03</rscale>
<asrwt>0</asrwt>
<pdfrwt beam="1">  1        1 0.36610204E+00 0.63459511E+03</pdfrwt>
<pdfrwt beam="2">0</pdfrwt>
<totfact> 0.18942984E+00</totfact>
</mgrwt>
</event>
<event>
 6    1  0.1729631E-003  0.5032066E+03  0.7818608E-02  0.1012945E+00
          1   -1    0    0  502    0  0.00000000000E+00  0.00000000000E+00  0.80596774413E+02  0.80596774413E+02  0.00000000000E+00 0.  1.
         13   -1    0    0    0    0 -0.00000000000E+00 -0.00000000000E+00 -0.10000000000E+04  0.10000000000E+04  0.00000000000E+00 0.  1.
    9000005    2    1    2  501    0  0.14462774207E+02  0.81357657788E+01 -0.93239795759E+03  0.10595201148E+04  0.50293295748E+03 0.  0.
         13    1    3    3    0    0  0.17870672320E+02 -0.41712925289E+02  0.54748098698E+02  0.71110360542E+02  0.00000000000E+00 0.  1.
          3    1    3    3  501    0 -0.34078981123E+01  0.49848691068E+02 -0.98714605629E+03  0.98840975421E+03  0.00000000000E+00 0.  1.
         21    1    1    2  502  501 -0.14462774207E+02 -0.81357657788E+01  0.12994732005E+02  0.21076659661E+02  0.00000000000E+00 0.  1.
<mgrwt>
<rscale>  1 0.50320664E+03</rscale>
<asrwt>0</asrwt>
<pdfrwt beam="1">  1        1 0.29307980E+00 0.50320664E+03</pdfrwt>
<pdfrwt beam="2">0</pdfrwt>
<totfact> 0.40225118E+00</totfact>
</mgrwt>
</event>
<event>
 6    1  0.1729631E-003  0.6434507E+03  0.7818608E-02  0.9819147E-01
          1   -1    0    0  502    0  0.00000000000E+00  0.00000000000E+00  0.10351439650E+03  0.10351439650E+03  0.00000000000E+00 0.  1.
         13   -1    0    0    0    0 -0.00000000000E+00 -0.00000000000E+00 -0.10000000000E+04  0.10000000000E+04  0.00000000000E+00 0.  1.
    9000005    2    1    2  501    0  0.62109492546E-03 -0.63973852278E-03 -0.89649276770E+03  0.11035071770E+04  0.64345070302E+03 0.  0.
         13    1    3    3    0    0  0.21293808373E+03 -0.95961932443E+02 -0.82770433729E+03  0.86002662165E+03  0.00000000000E+00 0.  1.
          1    1    3    3  501    0 -0.21293746263E+03  0.95961292705E+02 -0.68788430411E+02  0.24348055538E+03  0.00000000000E+00 0.  1.
         21    1    1    2  502  501 -0.62109492547E-03  0.63973852278E-03  0.71641984650E-02  0.72194711669E-02  0.00000000000E+00 0.  1.
<mgrwt>
<rscale>  1 0.64345070E+03</rscale>
<asrwt>0</asrwt>
<pdfrwt beam="1">  1        1 0.37641678E+00 0.64345070E+03</pdfrwt>
<pdfrwt beam="2">0</pdfrwt>
<totfact> 0.17038056E+00</totfact>
</mgrwt>
</event>
<event>
 6    1  0.1729631E-003  0.6523597E+03  0.7818608E-02  0.9802361E-01
          1   -1    0    0  502    0  0.00000000000E+00  0.00000000000E+00  0.10639341852E+03  0.10639341852E+03  0.00000000000E+00 0.  1.
         13   -1    0    0    0    0 -0.00000000000E+00 -0.00000000000E+00 -0.10000000000E+04  0.10000000000E+04  0.00000000000E+00 0.  1.
    9000005    2    1    2  501    0 -0.30951859316E-04 -0.30537480697E-04 -0.89360669623E+03  0.11063932958E+04  0.65235971478E+03 0.  0.
         13    1    3    3    0    0  0.20032967866E+03  0.57774785306E+02 -0.21373008188E+02  0.20958700209E+03  0.00000000000E+00 0.  1.
          3    1    3    3  501    0 -0.20032970961E+03 -0.57774815844E+02 -0.87223368804E+03  0.89680629372E+03  0.00000000000E+00 0.  1.
         21    1    1    2  502  501  0.30951859314E-04  0.30537480697E-04  0.11474695169E-03  0.12270867224E-03  0.00000000000E+00 0. -1.
<mgrwt>
<rscale>  1 0.65235971E+03</rscale>
<asrwt>0</asrwt>
<pdfrwt beam="1">  1        1 0.38688597E+00 0.65235971E+03</pdfrwt>
<pdfrwt beam="2">0</pdfrwt>
<totfact> 0.15292438E+00</totfact>
</mgrwt>
</event>
<event>
 6    1  0.1729631E-003  0.6474112E+03  0.7818608E-02  0.9811649E-01
          1   -1    0    0  502    0  0.00000000000E+00  0.00000000000E+00  0.10478541439E+03  0.10478541439E+03  0.00000000000E+00 0.  1.
         13   -1    0    0    0    0 -0.00000000000E+00 -0.00000000000E+00 -0.10000000000E+04  0.10000000000E+04  0.00000000000E+00 0.  1.
    9000005    2    1    2  501    0  0.77140653048E-05 -0.16966749286E-04 -0.89521469915E+03  0.11047852993E+04  0.64741115222E+03 0.  0.
         13    1    3    3    0    0 -0.12189062894E+03  0.21896305533E+03 -0.79725870020E+03  0.83571740443E+03  0.00000000000E+00 0.  1.
          3    1    3    3  501    0  0.12189063666E+03 -0.21896307229E+03 -0.97955998954E+02  0.26906789490E+03  0.00000000000E+00 0.  1.
         21    1    1    2  502  501 -0.77140652996E-05  0.16966749270E-04  0.11354168355E-03  0.11506125016E-03  0.00000000000E+00 0.  1.
<mgrwt>
<rscale>  1 0.64741115E+03</rscale>
<asrwt>0</asrwt>
<pdfrwt beam="1">  1        1 0.38103867E+00 0.64741115E+03</pdfrwt>
<pdfrwt beam="2">0</pdfrwt>
<totfact> 0.16245154E+00</totfact>
</mgrwt>
</event>
<event>
 6    1  0.1729631E-003  0.6549112E+03  0.7818608E-02  0.9797607E-01
          1   -1    0    0  502    0  0.00000000000E+00  0.00000000000E+00  0.10722753211E+03  0.10722753211E+03  0.00000000000E+00 0.  1.
         13   -1    0    0    0    0 -0.00000000000E+00 -0.00000000000E+00 -0.10000000000E+04  0.10000000000E+04  0.00000000000E+00 0.  1.
    9000005    2    1    2  501    0 -0.50807017551E-03 -0.69577543388E-03 -0.89277218775E+03  0.11072266262E+04  0.65491115618E+03 0.  0.
         13    1    3    3    0    0 -0.70419641814E+02 -0.27145452194E+03 -0.73220619540E+03  0.78407422864E+03  0.00000000000E+00 0.  1.
          3    1    3    3  501    0  0.70419133744E+02  0.27145382616E+03 -0.16056599235E+03  0.32315239754E+03  0.00000000000E+00 0.  1.
         21    1    1    2  502  501  0.50807017551E-03  0.69577543390E-03 -0.28014038074E-03  0.90593453990E-03  0.00000000000E+00 0. -1.
<mgrwt>
<rscale>  1 0.65491116E+03</rscale>
<asrwt>0</asrwt>
<pdfrwt beam="1">  1        1 0.38991912E+00 0.65491116E+03</pdfrwt>
<pdfrwt beam="2">0</pdfrwt>
<totfact> 0.14819430E+00</totfact>
</mgrwt>
</event>
<event>
 6    1  0.1729631E-003  0.6203869E+03  0.7818608E-02  0.9863990E-01
          1   -1    0    0  502    0  0.00000000000E+00  0.00000000000E+00  0.96641552066E+02  0.96641552066E+02  0.00000000000E+00 0.  1.
         13   -1    0    0    0    0 -0.00000000000E+00 -0.00000000000E+00 -0.10000000000E+04  0.10000000000E+04  0.00000000000E+00 0.  1.
    9000005    2    1    2  501    0  0.67025621259E-01  0.11964670164E+00 -0.90376777487E+03  0.10962098620E+04  0.62038685660E+03 0.  0.
         13    1    3    3    0    0  0.24406963970E+03 -0.17665476003E+03 -0.58217798345E+03  0.65552124121E+03  0.00000000000E+00 0.  1.
          1    1    3    3  501    0 -0.24400261408E+03  0.17677440673E+03 -0.32158979143E+03  0.44068862080E+03  0.00000000000E+00 0.  1.
         21    1    1    2  502  501 -0.67025621259E-01 -0.11964670164E+00  0.40932694077E+00  0.43169006423E+00  0.00000000000E+00 0. -1.
<mgrwt>
<rscale>  1 0.62038687E+03</rscale>
<asrwt>0</asrwt>
<pdfrwt beam="1">  1        1 0.35142457E+00 0.62038687E+03</pdfrwt>
<pdfrwt beam="2">0</pdfrwt>
<totfact> 0.22015252E+00</totfact>
</mgrwt>
</event>
<event>
 6    1  0.1729631E-003  0.6506835E+03  0.7818608E-02  0.9805497E-01
          1   -1    0    0  502    0  0.00000000000E+00  0.00000000000E+00  0.10584856644E+03  0.10584856644E+03  0.00000000000E+00 0.  1.
         13   -1    0    0    0    0 -0.00000000000E+00 -0.00000000000E+00 -0.10000000000E+04  0.10000000000E+04  0.00000000000E+00 0.  1.
    9000005    2    1    2  501    0  0.20500772159E-03 -0.85366903363E-04 -0.89415272249E+03  0.11058472585E+04  0.65068353910E+03 0.  0.
         13    1    3    3    0    0  0.18379105171E+02  0.29669154292E+03 -0.67179570020E+03  0.73462447955E+03  0.00000000000E+00 0.  1.
          3    1    3    3  501    0 -0.18378900164E+02 -0.29669162829E+03 -0.22235702228E+03  0.37122277897E+03  0.00000000000E+00 0.  1.
         21    1    1    2  502  501 -0.20500772159E-03  0.85366903381E-04  0.12889273555E-02  0.13079179645E-02  0.00000000000E+00 0. -1.
<mgrwt>
<rscale>  1 0.65068354E+03</rscale>
<asrwt>0</asrwt>
<pdfrwt beam="1">  1        1 0.38490469E+00 0.65068354E+03</pdfrwt>
<pdfrwt beam="2">0</pdfrwt>
<totfact> 0.15609141E+00</totfact>
</mgrwt>
</event>
<event>
 6    1  0.1729631E-003  0.5833336E+03  0.7818608E-02  0.9940600E-01
          3   -1    0    0  502    0  0.00000000000E+00  0.00000000000E+00  0.85074355385E+02  0.85074355385E+02  0.00000000000E+00 0.  1.
         13   -1    0    0    0    0 -0.00000000000E+00 -0.00000000000E+00 -0.10000000000E+04  0.10000000000E+04  0.00000000000E+00 0.  1.
    9000005    2    1    2  501    0 -0.82785609209E-04  0.45428969017E-04 -0.91493048641E+03  0.10850695127E+04  0.58333356870E+03 0.  0.
         13    1    3    3    0    0  0.25519987289E+03 -0.12759536162E+03 -0.34490211044E+03  0.44762151111E+03  0.00000000000E+00 0.  1.
          3    1    3    3  501    0 -0.25519995567E+03  0.12759540705E+03 -0.57002837597E+03  0.63744800156E+03  0.00000000000E+00 0.  1.
         21    1    1    2  502  501  0.82785609228E-04 -0.45428969028E-04  0.48417933321E-02  0.48427141067E-02  0.00000000000E+00 0.  1.
<mgrwt>
<rscale>  1 0.58333357E+03</rscale>
<asrwt>0</asrwt>
<pdfrwt beam="1">  1        3 0.30936194E+00 0.58333357E+03</pdfrwt>
<pdfrwt beam="2">0</pdfrwt>
<totfact> 0.18160519E-01</totfact>
</mgrwt>
</event>
<event>
 6    1  0.1729631E-003  0.6300527E+03  0.7818608E-02  0.9844946E-01
          1   -1    0    0  502    0  0.00000000000E+00  0.00000000000E+00  0.99241683794E+02  0.99241683794E+02  0.00000000000E+00 0.  1.
         13   -1    0    0    0    0 -0.00000000000E+00 -0.00000000000E+00 -0.10000000000E+04  0.10000000000E+04  0.00000000000E+00 0.  1.
    9000005    2    1    2  501    0 -0.12441320379E-04  0.12280071573E-05 -0.90075840193E+03  0.10992415972E+04  0.63005268851E+03 0.  0.
         13    1    3    3    0    0  0.63236459482E+02 -0.35480011186E+02 -0.98524281142E+03  0.98790742403E+03  0.00000000000E+00 0.  1.
          1    1    3    3  501    0 -0.63236471923E+02  0.35480012414E+02  0.84484409488E+02  0.11133417314E+03  0.00000000000E+00 0.  1.
         21    1    1    2  502  501  0.12441320383E-04 -0.12280071569E-05  0.85720639051E-04  0.86627492252E-04  0.00000000000E+00 0.  1.
<mgrwt>
<rscale>  1 0.63005269E+03</rscale>
<asrwt>0</asrwt>
<pdfrwt beam="1">  1        1 0.36087961E+00 0.63005269E+03</pdfrwt>
<pdfrwt beam="2">0</pdfrwt>
<totfact> 0.19983794E+00</totfact>
</mgrwt>
</event>
<event>
 6    1  0.1729631E-003  0.6354055E+03  0.7818608E-02  0.9834557E-01
          1   -1    0    0  502    0  0.00000000000E+00  0.00000000000E+00  0.10105583962E+03  0.10105583962E+03  0.00000000000E+00 0.  1.
         13   -1    0    0    0    0 -0.00000000000E+00 -0.00000000000E+00 -0.10000000000E+04  0.10000000000E+04  0.00000000000E+00 0.  1.
    9000005    2    1    2  501    0  0.60755941366E-02 -0.21459759666E+00 -0.89894990840E+03  0.11008410791E+04  0.63540545917E+03 0.  0.
         13    1    3    3    0    0 -0.26571092458E+03 -0.47503766179E+02 -0.15915293487E+03  0.31335053841E+03  0.00000000000E+00 0.  1.
          3    1    3    3  501    0  0.26571700017E+03  0.47289168583E+02 -0.73979697353E+03  0.78749054070E+03  0.00000000000E+00 0.  1.
         21    1    1    2  502  501 -0.60755941366E-02  0.21459759666E+00  0.57480215736E-02  0.21476052032E+00  0.00000000000E+00 0. -1.
<mgrwt>
<rscale>  1 0.63540550E+03</rscale>
<asrwt>0</asrwt>
<pdfrwt beam="1">  1        1 0.36747656E+00 0.63540550E+03</pdfrwt>
<pdfrwt beam="2">0</pdfrwt>
<totfact> 0.18679114E+00</totfact>
</mgrwt>
</event>
<event>
 6    1  0.1943152E-003  0.6020821E+03  0.7818608E-02  0.9901096E-01
          1   -1    0    0  502    0  0.00000000000E+00  0.00000000000E+00  0.90625743955E+02  0.90625743955E+02  0.00000000000E+00 0.  1.
         13   -1    0    0    0    0 -0.00000000000E+00 -0.00000000000E+00 -0.10000000000E+04  0.10000000000E+04  0.00000000000E+00 0.  1.
    9000005    2    1    2  501    0 -0.88463968679E-05  0.15615000791E-04 -0.90937427731E+03  0.10906257161E+04  0.60208211771E+03 0.  0.
         13    1    3    3    0    0  0.10202821500E+01 -0.14463478391E+03  0.23561116400E+02  0.14654483238E+03  0.00000000000E+00 0.  1.
          1    1    3    3  501    0 -0.10202909964E+01  0.14463479953E+03 -0.93293539371E+03  0.94408088375E+03  0.00000000000E+00 0.  1.
         21    1    1    2  502  501  0.88463968680E-05 -0.15615000790E-04  0.21261724414E-04  0.27823513658E-04  0.00000000000E+00 0.  1.
<mgrwt>
<rscale>  1 0.60208212E+03</rscale>
<asrwt>0</asrwt>
<pdfrwt beam="1">  1        1 0.32954885E+00 0.60208212E+03</pdfrwt>
<pdfrwt beam="2">0</pdfrwt>
<totfact> 0.27489804E+00</totfact>
</mgrwt>
</event>
<event>
 6    1  0.1729631E-003  0.6363712E+03  0.7818608E-02  0.9832694E-01
          1   -1    0    0  502    0  0.00000000000E+00  0.00000000000E+00  0.10125328285E+03  0.10125328285E+03  0.00000000000E+00 0.  1.
         13   -1    0    0    0    0 -0.00000000000E+00 -0.00000000000E+00 -0.10000000000E+04  0.10000000000E+04  0.00000000000E+00 0.  1.
    9000005    2    1    2  501    0  0.12377867059E-01 -0.24812887764E-01 -0.89873453333E+03  0.11012229953E+04  0.63637121491E+03 0.  0.
         13    1    3    3    0    0 -0.22439093507E+03  0.75261908899E+02 -0.81734915796E+03  0.85092613821E+03  0.00000000000E+00 0.  1.
          1    1    3    3  501    0  0.22440331294E+03 -0.75286721786E+02 -0.81385375375E+02  0.25029685707E+03  0.00000000000E+00 0.  1.
         21    1    1    2  502  501 -0.12377867059E-01  0.24812887764E-01 -0.12183822245E-01  0.30287563729E-01  0.00000000000E+00 0. -1.
<mgrwt>
<rscale>  1 0.63637122E+03</rscale>
<asrwt>0</asrwt>
<pdfrwt beam="1">  1        1 0.36819453E+00 0.63637122E+03</pdfrwt>
<pdfrwt beam="2">0</pdfrwt>
<totfact> 0.18540856E+00</totfact>
</mgrwt>
</event>
<event>
 6    1  0.1729631E-003  0.6299892E+03  0.7818608E-02  0.9845070E-01
          1   -1    0    0  502    0  0.00000000000E+00  0.00000000000E+00  0.99889386095E+02  0.99889386095E+02  0.00000000000E+00 0.  1.
         13   -1    0    0    0    0 -0.00000000000E+00 -0.00000000000E+00 -0.10000000000E+04  0.10000000000E+04  0.00000000000E+00 0.  1.
    9000005    2    1    2  501    0 -0.18601187243E+01  0.99232553134E-02 -0.89534442950E+03  0.10947730736E+04  0.62998648797E+03 0.  0.
         13    1    3    3    0    0 -0.23146003727E+03  0.15312633770E+03 -0.71006535031E+03  0.76237407213E+03  0.00000000000E+00 0.  1.
          1    1    3    3  501    0  0.22959991855E+03 -0.15311641444E+03 -0.18527907919E+03  0.33239900143E+03  0.00000000000E+00 0.  1.
         21    1    1    2  502  501  0.18601187243E+01 -0.99232553134E-02 -0.47661844033E+01  0.51163125301E+01  0.00000000000E+00 0. -1.
<mgrwt>
<rscale>  1 0.62998923E+03</rscale>
<asrwt>0</asrwt>
<pdfrwt beam="1">  1        1 0.36323490E+00 0.62998923E+03</pdfrwt>
<pdfrwt beam="2">0</pdfrwt>
<totfact> 0.19515250E+00</totfact>
</mgrwt>
</event>
<event>
 6    1  0.2136461E-003  0.6371539E+03  0.7818608E-02  0.9831187E-01
          1   -1    0    0  502    0  0.00000000000E+00  0.00000000000E+00  0.10149128590E+03  0.10149128590E+03  0.00000000000E+00 0.  1.
         13   -1    0    0    0    0 -0.00000000000E+00 -0.00000000000E+00 -0.10000000000E+04  0.10000000000E+04  0.00000000000E+00 0.  1.
    9000005    2    1    2  501    0 -0.10942324025E-05 -0.49581701518E-05 -0.89850871706E+03  0.11014912800E+04  0.63715392594E+03 0.  0.
         13    1    3    3    0    0 -0.28808576352E+03  0.24509237074E+02 -0.68052947210E+03  0.73940142834E+03  0.00000000000E+00 0.  1.
          1    1    3    3  501    0  0.28808576242E+03 -0.24509242032E+02 -0.21797924496E+03  0.36208985168E+03  0.00000000000E+00 0.  1.
         21    1    1    2  502  501  0.10942323870E-05  0.49581701537E-05  0.29590094319E-05  0.58767791015E-05  0.00000000000E+00 0.  1.
<mgrwt>
<rscale>  1 0.63715393E+03</rscale>
<asrwt>0</asrwt>
<pdfrwt beam="1">  1        1 0.36906000E+00 0.63715393E+03</pdfrwt>
<pdfrwt beam="2">0</pdfrwt>
<totfact> 0.18376773E+00</totfact>
</mgrwt>
</event>
<event>
 6    1  0.1729631E-003  0.6377247E+03  0.7818608E-02  0.9830090E-01
          1   -1    0    0  502    0  0.00000000000E+00  0.00000000000E+00  0.10168778231E+03  0.10168778231E+03  0.00000000000E+00 0.  1.
         13   -1    0    0    0    0 -0.00000000000E+00 -0.00000000000E+00 -0.10000000000E+04  0.10000000000E+04  0.00000000000E+00 0.  1.
    9000005    2    1    2  501    0  0.28605784815E-02  0.15432763191E-02 -0.89832661157E+03  0.11016730260E+04  0.63772467035E+03 0.  0.
         13    1    3    3    0    0  0.28289394934E+03  0.85285041685E+02 -0.24206918389E+03  0.38196860433E+03  0.00000000000E+00 0.  1.
          3    1    3    3  501    0 -0.28289108876E+03 -0.85283498409E+02 -0.65625742768E+03  0.71970442168E+03  0.00000000000E+00 0.  1.
         21    1    1    2  502  501 -0.28605784816E-02 -0.15432763191E-02  0.14393883500E-01  0.14756303509E-01  0.00000000000E+00 0.  1.
<mgrwt>
<rscale>  1 0.63772467E+03</rscale>
<asrwt>0</asrwt>
<pdfrwt beam="1">  1        1 0.36977453E+00 0.63772467E+03</pdfrwt>
<pdfrwt beam="2">0</pdfrwt>
<totfact> 0.18242603E+00</totfact>
</mgrwt>
</event>
<event>
 6    1  0.1729631E-003  0.6494439E+03  0.7818608E-02  0.9807823E-01
          1   -1    0    0  502    0  0.00000000000E+00  0.00000000000E+00  0.10544533624E+03  0.10544533624E+03  0.00000000000E+00 0.  1.
         13   -1    0    0    0    0 -0.00000000000E+00 -0.00000000000E+00 -0.10000000000E+04  0.10000000000E+04  0.00000000000E+00 0.  1.
    9000005    2    1    2  501    0  0.25993262122E-02 -0.87833761727E-03 -0.89455281010E+03  0.11054420250E+04  0.64944387030E+03 0.  0.
         13    1    3    3    0    0 -0.20058300768E+03  0.53306962193E+02 -0.22188694898E+02  0.20872832431E+03  0.00000000000E+00 0.  1.
          1    1    3    3  501    0  0.20058560700E+03 -0.53307840531E+02 -0.87236411520E+03  0.89671370073E+03  0.00000000000E+00 0.  1.
         21    1    1    2  502  501 -0.25993262122E-02  0.87833761726E-03 -0.18536635419E-02  0.33111995189E-02  0.00000000000E+00 0.  1.
<mgrwt>
<rscale>  1 0.64944387E+03</rscale>
<asrwt>0</asrwt>
<pdfrwt beam="1">  1        1 0.38343839E+00 0.64944387E+03</pdfrwt>
<pdfrwt beam="2">0</pdfrwt>
<totfact> 0.15847523E+00</totfact>
</mgrwt>
</event>
<event>
 6    1  0.1729631E-003  0.6524492E+03  0.7818608E-02  0.9802194E-01
          1   -1    0    0  502    0  0.00000000000E+00  0.00000000000E+00  0.13319092493E+03  0.13319092493E+03  0.00000000000E+00 0.  1.
         13   -1    0    0    0    0 -0.00000000000E+00 -0.00000000000E+00 -0.10000000000E+04  0.10000000000E+04  0.00000000000E+00 0.  1.
    9000005    2    1    2  501    0 -0.21435734778E+02 -0.52874655379E+01 -0.88844317776E+03  0.11022800463E+04  0.65207558794E+03 0.  0.
         13    1    3    3    0    0  0.21435586973E+03  0.10105330370E+03 -0.79122382597E+03  0.82595118007E+03  0.00000000000E+00 0.  1.
          3    1    3    3  501    0 -0.23579160451E+03 -0.10634076924E+03 -0.97219351792E+02  0.27632886625E+03  0.00000000000E+00 0.  1.
         21    1    1    2  502  501  0.21435734778E+02  0.52874655379E+01  0.21634102690E+02  0.30910878611E+02  0.00000000000E+00 0. -1.
<mgrwt>
<rscale>  1 0.65244925E+03</rscale>
<asrwt>0</asrwt>
<pdfrwt beam="1">  1        1 0.48433166E+00 0.65244925E+03</pdfrwt>
<pdfrwt beam="2">0</pdfrwt>
<totfact> 0.54896093E-01</totfact>
</mgrwt>
</event>
<event>
 6    1  0.1729631E-003  0.5839295E+03  0.7818608E-02  0.9939320E-01
          1   -1    0    0  502    0  0.00000000000E+00  0.00000000000E+00  0.85432178383E+02  0.85432178383E+02  0.00000000000E+00 0.  1.
         13   -1    0    0    0    0 -0.00000000000E+00 -0.00000000000E+00 -0.10000000000E+04  0.10000000000E+04  0.00000000000E+00 0.  1.
    9000005    2    1    2  501    0  0.87256133146E-02 -0.43824252525E-02 -0.91475643890E+03  0.10852433085E+04  0.58392953009E+03 0.  0.
         13    1    3    3    0    0  0.28526087994E+03  0.26536678732E+02 -0.56198845178E+03  0.63080027336E+03  0.00000000000E+00 0.  1.
          1    1    3    3  501    0 -0.28525215433E+03 -0.26541061157E+02 -0.35276798712E+03  0.45444303517E+03  0.00000000000E+00 0.  1.
         21    1    1    2  502  501 -0.87256133146E-02  0.43824252525E-02  0.18861728128E+00  0.18886985142E+00  0.00000000000E+00 0. -1.
<mgrwt>
<rscale>  1 0.58392953E+03</rscale>
<asrwt>0</asrwt>
<pdfrwt beam="1">  1        1 0.31066312E+00 0.58392953E+03</pdfrwt>
<pdfrwt beam="2">0</pdfrwt>
<totfact> 0.33283569E+00</totfact>
</mgrwt>
</event>
<event>
 6    1  0.1729631E-003  0.5722709E+03  0.7818608E-02  0.9964666E-01
          1   -1    0    0  502    0  0.00000000000E+00  0.00000000000E+00  0.81873526810E+02  0.81873526810E+02  0.00000000000E+00 0.  1.
         13   -1    0    0    0    0 -0.00000000000E+00 -0.00000000000E+00 -0.10000000000E+04  0.10000000000E+04  0.00000000000E+00 0.  1.
    9000005    2    1    2  501    0 -0.55297456640E-05  0.30807017595E-05 -0.91812650482E+03  0.10818734946E+04  0.57227089684E+03 0.  0.
         13    1    3    3    0    0  0.21944727186E+03 -0.59847084113E+02 -0.78724041714E+03  0.81944264777E+03  0.00000000000E+00 0.  1.
          1    1    3    3  501    0 -0.21944727739E+03  0.59847087193E+02 -0.13088608768E+03  0.26243084679E+03  0.00000000000E+00 0.  1.
         21    1    1    2  502  501  0.55297456712E-05 -0.30807017578E-05  0.31626927729E-04  0.32254168228E-04  0.00000000000E+00 0. -1.
<mgrwt>
<rscale>  1 0.57227090E+03</rscale>
<asrwt>0</asrwt>
<pdfrwt beam="1">  1        1 0.29772254E+00 0.57227090E+03</pdfrwt>
<pdfrwt beam="2">0</pdfrwt>
<totfact> 0.37928291E+00</totfact>
</mgrwt>
</event>
<event>
 6    1  0.1729631E-003  0.6549280E+03  0.7818608E-02  0.9797576E-01
          1   -1    0    0  502    0  0.00000000000E+00  0.00000000000E+00  0.10735326924E+03  0.10735326924E+03  0.00000000000E+00 0.  1.
         13   -1    0    0    0    0 -0.00000000000E+00 -0.00000000000E+00 -0.10000000000E+04  0.10000000000E+04  0.00000000000E+00 0.  1.
    9000005    2    1    2  501    0  0.19449914899E-02  0.54219693405E-03 -0.89276731611E+03  0.11072326670E+04  0.65492800988E+03 0.  0.
         13    1    3    3    0    0  0.28619068128E+03 -0.15302952445E+03 -0.52027075040E+03  0.61319229866E+03  0.00000000000E+00 0.  1.
          3    1    3    3  501    0 -0.28618873629E+03  0.15303006664E+03 -0.37249656571E+03  0.49404036833E+03  0.00000000000E+00 0.  1.
         21    1    1    2  502  501 -0.19449914900E-02 -0.54219693405E-03  0.12058535012E+00  0.12060225384E+00  0.00000000000E+00 0. -1.
<mgrwt>
<rscale>  1 0.65492801E+03</rscale>
<asrwt>0</asrwt>
<pdfrwt beam="1">  1        1 0.39037635E+00 0.65492801E+03</pdfrwt>
<pdfrwt beam="2">0</pdfrwt>
<totfact> 0.14750348E+00</totfact>
</mgrwt>
</event>
<event>
 6    1  0.1729631E-003  0.6500750E+03  0.7818608E-02  0.9806638E-01
          1   -1    0    0  502    0  0.00000000000E+00  0.00000000000E+00  0.10626268079E+03  0.10626268079E+03  0.00000000000E+00 0.  1.
         13   -1    0    0    0    0 -0.00000000000E+00 -0.00000000000E+00 -0.10000000000E+04  0.10000000000E+04  0.00000000000E+00 0.  1.
    9000005    2    1    2  501    0  0.59786671494E-01  0.20505003627E-01 -0.89434881789E+03  0.11056479243E+04  0.65007501143E+03 0.  0.
         13    1    3    3    0    0  0.14223768430E+03 -0.28334076763E+03 -0.56909943492E+03  0.65145047108E+03  0.00000000000E+00 0.  1.
          1    1    3    3  501    0 -0.14217789763E+03  0.28336127263E+03 -0.32524938296E+03  0.45419745323E+03  0.00000000000E+00 0.  1.
         21    1    1    2  502  501 -0.59786671494E-01 -0.20505003627E-01  0.61149867616E+00  0.61475648204E+00  0.00000000000E+00 0. -1.
<mgrwt>
<rscale>  1 0.65007501E+03</rscale>
<asrwt>0</asrwt>
<pdfrwt beam="1">  1        1 0.38641056E+00 0.65007501E+03</pdfrwt>
<pdfrwt beam="2">0</pdfrwt>
<totfact> 0.15373224E+00</totfact>
</mgrwt>
</event>
<event>
 6    1  0.1729631E-003  0.6583722E+03  0.7818608E-02  0.9791195E-01
          1   -1    0    0  502    0  0.00000000000E+00  0.00000000000E+00  0.10861231181E+03  0.10861231181E+03  0.00000000000E+00 0.  1.
         13   -1    0    0    0    0 -0.00000000000E+00 -0.00000000000E+00 -0.10000000000E+04  0.10000000000E+04  0.00000000000E+00 0.  1.
    9000005    2    1    2  501    0  0.29649204335E+00 -0.11767534213E+00 -0.89151762931E+03  0.11082678706E+04  0.65837215007E+03 0.  0.
         13    1    3    3    0    0 -0.16550415904E+03 -0.14714395266E+02 -0.92388544483E+03  0.93870786471E+03  0.00000000000E+00 0.  1.
          1    1    3    3  501    0  0.16580065109E+03  0.14596719924E+02  0.32367815521E+02  0.16956000594E+03  0.00000000000E+00 0.  1.
         21    1    1    2  502  501 -0.29649204335E+00  0.11767534213E+00  0.12994111623E+00  0.34444115841E+00  0.00000000000E+00 0. -1.
<mgrwt>
<rscale>  1 0.65837223E+03</rscale>
<asrwt>0</asrwt>
<pdfrwt beam="1">  1        1 0.39495469E+00 0.65837223E+03</pdfrwt>
<pdfrwt beam="2">0</pdfrwt>
<totfact> 0.14066670E+00</totfact>
</mgrwt>
</event>
<event>
 6    1  0.1729631E-003  0.6461326E+03  0.7818608E-02  0.9814063E-01
          1   -1    0    0  502    0  0.00000000000E+00  0.00000000000E+00  0.10437302332E+03  0.10437302332E+03  0.00000000000E+00 0.  1.
         13   -1    0    0    0    0 -0.00000000000E+00 -0.00000000000E+00 -0.10000000000E+04  0.10000000000E+04  0.00000000000E+00 0.  1.
    9000005    2    1    2  501    0  0.36050261307E-02 -0.40880268388E-03 -0.89562305685E+03  0.11043676821E+04  0.64613258495E+03 0.  0.
         13    1    3    3    0    0  0.93593466131E+02  0.32443494939E+02 -0.97340017573E+03  0.97842742162E+03  0.00000000000E+00 0.  1.
          1    1    3    3  501    0 -0.93589861105E+02 -0.32443903742E+02  0.77777118886E+02  0.12594026050E+03  0.00000000000E+00 0.  1.
         21    1    1    2  502  501 -0.36050261307E-02  0.40880268388E-03 -0.39198327468E-02  0.53412004082E-02  0.00000000000E+00 0. -1.
<mgrwt>
<rscale>  1 0.64613258E+03</rscale>
<asrwt>0</asrwt>
<pdfrwt beam="1">  1        1 0.37953907E+00 0.64613258E+03</pdfrwt>
<pdfrwt beam="2">0</pdfrwt>
<totfact> 0.16498463E+00</totfact>
</mgrwt>
</event>
<event>
 6    1  0.1729631E-003  0.6593836E+03  0.7818608E-02  0.9789329E-01
          1   -1    0    0  502    0  0.00000000000E+00  0.00000000000E+00  0.10869851962E+03  0.10869851962E+03  0.00000000000E+00 0.  1.
         13   -1    0    0    0    0 -0.00000000000E+00 -0.00000000000E+00 -0.10000000000E+04  0.10000000000E+04  0.00000000000E+00 0.  1.
    9000005    2    1    2  501    0  0.11316989552E-02 -0.22461668138E-03 -0.89130310947E+03  0.11086965233E+04  0.65938361212E+03 0.  0.
         13    1    3    3    0    0 -0.23262969021E+02 -0.16256650473E+03 -0.92633492270E+03  0.94077915751E+03  0.00000000000E+00 0.  1.
          3    1    3    3  501    0  0.23264100720E+02  0.16256628011E+03  0.35031813232E+02  0.16791736584E+03  0.00000000000E+00 0.  1.
         21    1    1    2  502  501 -0.11316989552E-02  0.22461668137E-03  0.16290915162E-02  0.19962801274E-02  0.00000000000E+00 0.  1.
<mgrwt>
<rscale>  1 0.65938361E+03</rscale>
<asrwt>0</asrwt>
<pdfrwt beam="1">  1        1 0.39526818E+00 0.65938361E+03</pdfrwt>
<pdfrwt beam="2">0</pdfrwt>
<totfact> 0.14018947E+00</totfact>
</mgrwt>
</event>
<event>
 6    1  0.1729631E-003  0.6358807E+03  0.7818608E-02  0.9833640E-01
          1   -1    0    0  502    0  0.00000000000E+00  0.00000000000E+00  0.10130175404E+03  0.10130175404E+03  0.00000000000E+00 0.  1.
         13   -1    0    0    0    0 -0.00000000000E+00 -0.00000000000E+00 -0.10000000000E+04  0.10000000000E+04  0.00000000000E+00 0.  1.
    9000005    2    1    2  501    0 -0.41417348406E-01 -0.48197184555E-01 -0.89890875719E+03  0.11010818601E+04  0.63588073164E+03 0.  0.
         13    1    3    3    0    0  0.11141214128E+03  0.19864167535E+03 -0.83350983494E+03  0.86406586864E+03  0.00000000000E+00 0.  1.
          3    1    3    3  501    0 -0.11145355863E+03 -0.19868987253E+03 -0.65398922247E+02  0.23701599146E+03  0.00000000000E+00 0.  1.
         21    1    1    2  502  501  0.41417348406E-01  0.48197184555E-01  0.21051122188E+00  0.21989392872E+00  0.00000000000E+00 0.  1.
<mgrwt>
<rscale>  1 0.63588073E+03</rscale>
<asrwt>0</asrwt>
<pdfrwt beam="1">  1        1 0.36837079E+00 0.63588073E+03</pdfrwt>
<pdfrwt beam="2">0</pdfrwt>
<totfact> 0.18509515E+00</totfact>
</mgrwt>
</event>
<event>
 6    1  0.1729631E-003  0.6583693E+03  0.7818608E-02  0.9791200E-01
          1   -1    0    0  502    0  0.00000000000E+00  0.00000000000E+00  0.11759174092E+03  0.11759174092E+03  0.00000000000E+00 0.  1.
         13   -1    0    0    0    0 -0.00000000000E+00 -0.00000000000E+00 -0.10000000000E+04  0.10000000000E+04  0.00000000000E+00 0.  1.
    9000005    2    1    2  501    0  0.29923156367E+00  0.23386443454E+00 -0.89163314916E+03  0.11083590366E+04  0.65836914957E+03 0.  0.
         13    1    3    3    0    0  0.24837962894E+02 -0.27841825438E+03 -0.15327803249E+03  0.31879116050E+03  0.00000000000E+00 0.  1.
          1    1    3    3  501    0 -0.24538731331E+02  0.27865211881E+03 -0.73835511667E+03  0.78956787610E+03  0.00000000000E+00 0.  1.
         21    1    1    2  502  501 -0.29923156367E+00 -0.23386443454E+00  0.92248900778E+01  0.92327043195E+01  0.00000000000E+00 0. -1.
<mgrwt>
<rscale>  1 0.65836926E+03</rscale>
<asrwt>0</asrwt>
<pdfrwt beam="1">  1        1 0.42760723E+00 0.65836926E+03</pdfrwt>
<pdfrwt beam="2">0</pdfrwt>
<totfact> 0.10037825E+00</totfact>
</mgrwt>
</event>
<event>
 6    1  0.1729631E-003  0.6611182E+03  0.7818608E-02  0.9786137E-01
          1   -1    0    0  502    0  0.00000000000E+00  0.00000000000E+00  0.10930320766E+03  0.10930320766E+03  0.00000000000E+00 0.  1.
         13   -1    0    0    0    0 -0.00000000000E+00 -0.00000000000E+00 -0.10000000000E+04  0.10000000000E+04  0.00000000000E+00 0.  1.
    9000005    2    1    2  501    0  0.15842548084E-01 -0.36714886672E-02 -0.89072850979E+03  0.11092675641E+04  0.66111818184E+03 0.  0.
         13    1    3    3    0    0 -0.97442316354E+02  0.28906517549E+03 -0.23171565288E+03  0.38307417622E+03  0.00000000000E+00 0.  1.
          1    1    3    3  501    0  0.97458158902E+02 -0.28906884698E+03 -0.65901285691E+03  0.72619338789E+03  0.00000000000E+00 0.  1.
         21    1    1    2  502  501 -0.15842548084E-01  0.36714886673E-02  0.31717447129E-01  0.35643549363E-01  0.00000000000E+00 0. -1.
<mgrwt>
<rscale>  1 0.66111818E+03</rscale>
<asrwt>0</asrwt>
<pdfrwt beam="1">  1        1 0.39746705E+00 0.66111818E+03</pdfrwt>
<pdfrwt beam="2">0</pdfrwt>
<totfact> 0.13702176E+00</totfact>
</mgrwt>
</event>
<event>
 6    1  0.1729631E-003  0.6318855E+03  0.7818608E-02  0.9841376E-01
          1   -1    0    0  502    0  0.00000000000E+00  0.00000000000E+00  0.99819968265E+02  0.99819968265E+02  0.00000000000E+00 0.  1.
         13   -1    0    0    0    0 -0.00000000000E+00 -0.00000000000E+00 -0.10000000000E+04  0.10000000000E+04  0.00000000000E+00 0.  1.
    9000005    2    1    2  501    0 -0.28460584008E-03 -0.16099913495E-04 -0.90018000208E+03  0.10998196817E+04  0.63188550864E+03 0.  0.
         13    1    3    3    0    0 -0.19896736482E+03 -0.22713999962E+03 -0.28831112325E+03  0.41749718020E+03  0.00000000000E+00 0.  1.
          1    1    3    3  501    0  0.19896708021E+03  0.22713998352E+03 -0.61186887883E+03  0.68232250146E+03  0.00000000000E+00 0.  1.
         21    1    1    2  502  501  0.28460584008E-03  0.16099913498E-04 -0.29655440006E-04  0.28659926124E-03  0.00000000000E+00 0. -1.
<mgrwt>
<rscale>  1 0.63188551E+03</rscale>
<asrwt>0</asrwt>
<pdfrwt beam="1">  1        1 0.36298247E+00 0.63188551E+03</pdfrwt>
<pdfrwt beam="2">0</pdfrwt>
<totfact> 0.19558259E+00</totfact>
</mgrwt>
</event>
