<event>
 5    1  0.2349912E-004  0.6564193E+03  0.7818608E-02  0.9794808E-01
         13   -1    0    0    0    0  0.00000000000E+00  0.00000000000E+00  0.10000000000E+04  0.10000000000E+04  0.00000000000E+00 0. -1.
          2   -1    0    0  501    0 -0.00000000000E+00 -0.00000000000E+00 -0.10772158723E+03  0.10772158723E+03  0.00000000000E+00 0. -1.
    9000006    2    1    2  501    0  0.00000000000E+00  0.00000000000E+00  0.89227841277E+03  0.11077215872E+04  0.65641933925E+03 0.  0.
         13    1    3    3    0    0  0.32808092327E+02  0.75712965181E+01  0.99707778956E+03  0.99764613661E+03  0.00000000000E+00 0. -1.
          2    1    3    3  501    0 -0.32808092327E+02 -0.75712965181E+01 -0.10479937680E+03  0.11007545063E+03  0.00000000000E+00 0. -1.
<mgrwt>
<rscale>  0 0.65641934E+03</rscale>
<asrwt>0</asrwt>
<pdfrwt beam="1">0</pdfrwt>
<pdfrwt beam="2">  1        2 0.39171569E+00 0.65641934E+03</pdfrwt>
<totfact> 0.42750412E+00</totfact>
</mgrwt>
</event>
<event>
 5    1  0.2349912E-004  0.6473031E+03  0.7818608E-02  0.9811853E-01
         13   -1    0    0    0    0  0.00000000000E+00  0.00000000000E+00  0.10000000000E+04  0.10000000000E+04  0.00000000000E+00 0. -1.
          2   -1    0    0  501    0 -0.00000000000E+00 -0.00000000000E+00 -0.10475031858E+03  0.10475031858E+03  0.00000000000E+00 0. -1.
    9000006    2    1    2  501    0  0.00000000000E+00  0.00000000000E+00  0.89524968142E+03  0.11047503186E+04  0.64730307763E+03 0.  0.
         13    1    3    3    0    0 -0.15985112290E+03  0.21837308795E+03  0.75058705266E+03  0.79788477279E+03  0.00000000000E+00 0. -1.
          2    1    3    3  501    0  0.15985112290E+03 -0.21837308795E+03  0.14466262877E+03  0.30686554579E+03  0.00000000000E+00 0. -1.
<mgrwt>
<rscale>  0 0.64730308E+03</rscale>
<asrwt>0</asrwt>
<pdfrwt beam="1">0</pdfrwt>
<pdfrwt beam="2">  1        2 0.38091105E+00 0.64730308E+03</pdfrwt>
<totfact> 0.46915539E+00</totfact>
</mgrwt>
</event>
<event>
 5    1  0.2349912E-004  0.6546779E+03  0.7818608E-02  0.9798041E-01
         13   -1    0    0    0    0  0.00000000000E+00  0.00000000000E+00  0.10000000000E+04  0.10000000000E+04  0.00000000000E+00 0. -1.
          2   -1    0    0  501    0 -0.00000000000E+00 -0.00000000000E+00 -0.10715080091E+03  0.10715080091E+03  0.00000000000E+00 0. -1.
    9000006    2    1    2  501    0  0.00000000000E+00  0.00000000000E+00  0.89284919909E+03  0.11071508009E+04  0.65467793887E+03 0.  0.
         13    1    3    3    0    0  0.32553736787E+02 -0.12859688978E+03 -0.59657891230E+02  0.14545091896E+03  0.00000000000E+00 0. -1.
          2    1    3    3  501    0 -0.32553736787E+02  0.12859688978E+03  0.95250709032E+03  0.96169988195E+03  0.00000000000E+00 0. -1.
<mgrwt>
<rscale>  0 0.65467794E+03</rscale>
<asrwt>0</asrwt>
<pdfrwt beam="1">0</pdfrwt>
<pdfrwt beam="2">  1        2 0.38964010E+00 0.65467794E+03</pdfrwt>
<totfact> 0.43523552E+00</totfact>
</mgrwt>
</event>
<event>
 5    1  0.2349912E-004  0.6505915E+03  0.7818608E-02  0.9805670E-01
         13   -1    0    0    0    0  0.00000000000E+00  0.00000000000E+00  0.10000000000E+04  0.10000000000E+04  0.00000000000E+00 0. -1.
          2   -1    0    0  501    0 -0.00000000000E+00 -0.00000000000E+00 -0.10581733304E+03  0.10581733304E+03  0.00000000000E+00 0. -1.
    9000006    2    1    2  501    0  0.00000000000E+00  0.00000000000E+00  0.89418266696E+03  0.11058173330E+04  0.65059152482E+03 0.  0.
         13    1    3    3    0    0  0.19599376017E+02  0.24208085625E+03  0.81491302100E+03  0.85033552690E+03  0.00000000000E+00 0. -1.
          4    1    3    3  501    0 -0.19599376017E+02 -0.24208085625E+03  0.79269645953E+02  0.25548180614E+03  0.00000000000E+00 0. -1.
<mgrwt>
<rscale>  0 0.65059152E+03</rscale>
<asrwt>0</asrwt>
<pdfrwt beam="1">0</pdfrwt>
<pdfrwt beam="2">  1        2 0.38479111E+00 0.65059152E+03</pdfrwt>
<totfact> 0.45379276E+00</totfact>
</mgrwt>
</event>
<event>
 5    1  0.2349912E-004  0.6509511E+03  0.7818608E-02  0.9804996E-01
         13   -1    0    0    0    0  0.00000000000E+00  0.00000000000E+00  0.10000000000E+04  0.10000000000E+04  0.00000000000E+00 0. -1.
          2   -1    0    0  501    0 -0.00000000000E+00 -0.00000000000E+00 -0.10593432191E+03  0.10593432191E+03  0.00000000000E+00 0. -1.
    9000006    2    1    2  501    0  0.00000000000E+00  0.00000000000E+00  0.89406567809E+03  0.11059343219E+04  0.65095106392E+03 0.  0.
         13    1    3    3    0    0 -0.49403631863E+02  0.16141580357E+03  0.91981336266E+03  0.93517506522E+03  0.00000000000E+00 0. -1.
          2    1    3    3  501    0  0.49403631863E+02 -0.16141580357E+03 -0.25747684568E+02  0.17075925668E+03  0.00000000000E+00 0. -1.
<mgrwt>
<rscale>  0 0.65095106E+03</rscale>
<asrwt>0</asrwt>
<pdfrwt beam="1">0</pdfrwt>
<pdfrwt beam="2">  1        2 0.38521653E+00 0.65095106E+03</pdfrwt>
<totfact> 0.45213647E+00</totfact>
</mgrwt>
</event>
<event>
 5    1  0.2349912E-004  0.6616025E+03  0.7818608E-02  0.9785248E-01
         13   -1    0    0    0    0  0.00000000000E+00  0.00000000000E+00  0.10000000000E+04  0.10000000000E+04  0.00000000000E+00 0. -1.
          2   -1    0    0  501    0 -0.00000000000E+00 -0.00000000000E+00 -0.10942946624E+03  0.10942946624E+03  0.00000000000E+00 0. -1.
    9000006    2    1    2  501    0  0.00000000000E+00  0.00000000000E+00  0.89057053376E+03  0.11094294662E+04  0.66160249770E+03 0.  0.
         13    1    3    3    0    0 -0.20396453460E+03 -0.19587050016E+03  0.73311701794E+03  0.78576545241E+03  0.00000000000E+00 0. -1.
          4    1    3    3  501    0  0.20396453460E+03  0.19587050016E+03  0.15745351582E+03  0.32366401384E+03  0.00000000000E+00 0. -1.
<mgrwt>
<rscale>  0 0.66160250E+03</rscale>
<asrwt>0</asrwt>
<pdfrwt beam="1">0</pdfrwt>
<pdfrwt beam="2">  1        2 0.39792617E+00 0.66160250E+03</pdfrwt>
<totfact> 0.40510600E+00</totfact>
</mgrwt>
</event>
<event>
 5    1  0.2349912E-004  0.6489815E+03  0.7818608E-02  0.9808692E-01
         13   -1    0    0    0    0  0.00000000000E+00  0.00000000000E+00  0.10000000000E+04  0.10000000000E+04  0.00000000000E+00 0. -1.
          2   -1    0    0  501    0 -0.00000000000E+00 -0.00000000000E+00 -0.10529424807E+03  0.10529424807E+03  0.00000000000E+00 0. -1.
    9000006    2    1    2  501    0  0.00000000000E+00  0.00000000000E+00  0.89470575193E+03  0.11052942481E+04  0.64898150380E+03 0.  0.
         13    1    3    3    0    0  0.60203735423E+02 -0.30929031885E+03  0.31532793602E+03  0.44577651164E+03  0.00000000000E+00 0. -1.
          2    1    3    3  501    0 -0.60203735423E+02  0.30929031885E+03  0.57937781591E+03  0.65951773643E+03  0.00000000000E+00 0. -1.
<mgrwt>
<rscale>  0 0.64898150E+03</rscale>
<asrwt>0</asrwt>
<pdfrwt beam="1">0</pdfrwt>
<pdfrwt beam="2">  1        2 0.38288898E+00 0.64898150E+03</pdfrwt>
<totfact> 0.46126599E+00</totfact>
</mgrwt>
</event>
<event>
 5    1  0.2349912E-004  0.6471672E+03  0.7818608E-02  0.9812109E-01
         13   -1    0    0    0    0  0.00000000000E+00  0.00000000000E+00  0.10000000000E+04  0.10000000000E+04  0.00000000000E+00 0. -1.
          2   -1    0    0  501    0 -0.00000000000E+00 -0.00000000000E+00 -0.10470635709E+03  0.10470635709E+03  0.00000000000E+00 0. -1.
    9000006    2    1    2  501    0  0.00000000000E+00  0.00000000000E+00  0.89529364291E+03  0.11047063571E+04  0.64716723368E+03 0.  0.
         13    1    3    3    0    0  0.14501202440E+03  0.27316646428E+03  0.61010641256E+03  0.68401625644E+03  0.00000000000E+00 0. -1.
          2    1    3    3  501    0 -0.14501202440E+03 -0.27316646428E+03  0.28518723036E+03  0.42069010065E+03  0.00000000000E+00 0. -1.
<mgrwt>
<rscale>  0 0.64716723E+03</rscale>
<asrwt>0</asrwt>
<pdfrwt beam="1">0</pdfrwt>
<pdfrwt beam="2">  1        2 0.38075119E+00 0.64716723E+03</pdfrwt>
<totfact> 0.46979835E+00</totfact>
</mgrwt>
</event>
<event>
 5    1  0.2349912E-004  0.6606469E+03  0.7818608E-02  0.9787004E-01
         13   -1    0    0    0    0  0.00000000000E+00  0.00000000000E+00  0.10000000000E+04  0.10000000000E+04  0.00000000000E+00 0. -1.
          2   -1    0    0  501    0 -0.00000000000E+00 -0.00000000000E+00 -0.10911356547E+03  0.10911356547E+03  0.00000000000E+00 0. -1.
    9000006    2    1    2  501    0  0.00000000000E+00  0.00000000000E+00  0.89088643453E+03  0.11091135655E+04  0.66064685112E+03 0.  0.
         13    1    3    3    0    0  0.44758544121E+02  0.29812782467E+03  0.21876987980E+03  0.37248327133E+03  0.00000000000E+00 0. -1.
          4    1    3    3  501    0 -0.44758544121E+02 -0.29812782467E+03  0.67211655472E+03  0.73663029414E+03  0.00000000000E+00 0. -1.
<mgrwt>
<rscale>  0 0.66064685E+03</rscale>
<asrwt>0</asrwt>
<pdfrwt beam="1">0</pdfrwt>
<pdfrwt beam="2">  1        2 0.39677744E+00 0.66064685E+03</pdfrwt>
<totfact> 0.40916733E+00</totfact>
</mgrwt>
</event>
<event>
 5    1  0.2349912E-004  0.6434758E+03  0.7818608E-02  0.9819099E-01
         13   -1    0    0    0    0  0.00000000000E+00  0.00000000000E+00  0.10000000000E+04  0.10000000000E+04  0.00000000000E+00 0. -1.
          2   -1    0    0  501    0 -0.00000000000E+00 -0.00000000000E+00 -0.10351528345E+03  0.10351528345E+03  0.00000000000E+00 0. -1.
    9000006    2    1    2  501    0  0.00000000000E+00  0.00000000000E+00  0.89648471655E+03  0.11035152834E+04  0.64347582223E+03 0.  0.
         13    1    3    3    0    0  0.29739071662E+03  0.10878767660E+03  0.35063764232E+03  0.47246455224E+03  0.00000000000E+00 0. -1.
          2    1    3    3  501    0 -0.29739071662E+03 -0.10878767660E+03  0.54584707423E+03  0.63105073121E+03  0.00000000000E+00 0. -1.
<mgrwt>
<rscale>  0 0.64347582E+03</rscale>
<asrwt>0</asrwt>
<pdfrwt beam="1">0</pdfrwt>
<pdfrwt beam="2">  1        2 0.37642001E+00 0.64347582E+03</pdfrwt>
<totfact> 0.48752685E+00</totfact>
</mgrwt>
</event>
<event>
 5    1  0.2349912E-004  0.6575283E+03  0.7818608E-02  0.9792754E-01
         13   -1    0    0    0    0  0.00000000000E+00  0.00000000000E+00  0.10000000000E+04  0.10000000000E+04  0.00000000000E+00 0. -1.
          2   -1    0    0  501    0 -0.00000000000E+00 -0.00000000000E+00 -0.10808588180E+03  0.10808588180E+03  0.00000000000E+00 0. -1.
    9000006    2    1    2  501    0  0.00000000000E+00  0.00000000000E+00  0.89191411820E+03  0.11080858818E+04  0.65752834707E+03 0.  0.
         13    1    3    3    0    0 -0.91535984874E+02  0.29352160914E+03  0.64214052543E+03  0.71195380887E+03  0.00000000000E+00 0. -1.
          2    1    3    3  501    0  0.91535984874E+02 -0.29352160914E+03  0.24977359277E+03  0.39613207293E+03  0.00000000000E+00 0. -1.
<mgrwt>
<rscale>  0 0.65752835E+03</rscale>
<asrwt>0</asrwt>
<pdfrwt beam="1">0</pdfrwt>
<pdfrwt beam="2">  1        2 0.39304040E+00 0.65752835E+03</pdfrwt>
<totfact> 0.42263475E+00</totfact>
</mgrwt>
</event>
<event>
 5    1  0.2349912E-004  0.6486565E+03  0.7818608E-02  0.9809303E-01
         13   -1    0    0    0    0  0.00000000000E+00  0.00000000000E+00  0.10000000000E+04  0.10000000000E+04  0.00000000000E+00 0. -1.
          2   -1    0    0  501    0 -0.00000000000E+00 -0.00000000000E+00 -0.10518881553E+03  0.10518881553E+03  0.00000000000E+00 0. -1.
    9000006    2    1    2  501    0  0.00000000000E+00  0.00000000000E+00  0.89481118447E+03  0.11051888155E+04  0.64865650549E+03 0.  0.
         13    1    3    3    0    0 -0.24871965095E+02 -0.36581703230E+02 -0.10002470748E+03  0.10936991252E+03  0.00000000000E+00 0. -1.
          4    1    3    3  501    0  0.24871965095E+02  0.36581703230E+02  0.99483589195E+03  0.99581890300E+03  0.00000000000E+00 0. -1.
<mgrwt>
<rscale>  0 0.64865651E+03</rscale>
<asrwt>0</asrwt>
<pdfrwt beam="1">0</pdfrwt>
<pdfrwt beam="2">  1        2 0.38250559E+00 0.64865651E+03</pdfrwt>
<totfact> 0.46278575E+00</totfact>
</mgrwt>
</event>
<event>
 5    1  0.2349912E-004  0.6502515E+03  0.7818608E-02  0.9806307E-01
         13   -1    0    0    0    0  0.00000000000E+00  0.00000000000E+00  0.10000000000E+04  0.10000000000E+04  0.00000000000E+00 0. -1.
          2   -1    0    0  501    0 -0.00000000000E+00 -0.00000000000E+00 -0.10570675454E+03  0.10570675454E+03  0.00000000000E+00 0. -1.
    9000006    2    1    2  501    0  0.00000000000E+00  0.00000000000E+00  0.89429324546E+03  0.11057067545E+04  0.65025150376E+03 0.  0.
         13    1    3    3    0    0  0.13240911668E+03  0.12866281524E+03 -0.79222721934E+01  0.18479463359E+03  0.00000000000E+00 0. -1.
          4    1    3    3  501    0 -0.13240911668E+03 -0.12866281524E+03  0.90221551766E+03  0.92091212095E+03  0.00000000000E+00 0. -1.
<mgrwt>
<rscale>  0 0.65025150E+03</rscale>
<asrwt>0</asrwt>
<pdfrwt beam="1">0</pdfrwt>
<pdfrwt beam="2">  1        2 0.38438901E+00 0.65025150E+03</pdfrwt>
<totfact> 0.45536336E+00</totfact>
</mgrwt>
</event>
<event>
 5    1  0.2349912E-004  0.6380101E+03  0.7818608E-02  0.9829541E-01
         13   -1    0    0    0    0  0.00000000000E+00  0.00000000000E+00  0.10000000000E+04  0.10000000000E+04  0.00000000000E+00 0. -1.
          2   -1    0    0  501    0 -0.00000000000E+00 -0.00000000000E+00 -0.10176421930E+03  0.10176421930E+03  0.00000000000E+00 0. -1.
    9000006    2    1    2  501    0  0.00000000000E+00  0.00000000000E+00  0.89823578070E+03  0.11017642193E+04  0.63801009177E+03 0.  0.
         13    1    3    3    0    0 -0.28726721641E+03 -0.56169681528E+02  0.23009221065E+03  0.37231695120E+03  0.00000000000E+00 0. -1.
          2    1    3    3  501    0  0.28726721641E+03  0.56169681528E+02  0.66814357005E+03  0.72944726811E+03  0.00000000000E+00 0. -1.
<mgrwt>
<rscale>  0 0.63801009E+03</rscale>
<asrwt>0</asrwt>
<pdfrwt beam="1">0</pdfrwt>
<pdfrwt beam="2">  1        2 0.37005249E+00 0.63801009E+03</pdfrwt>
<totfact> 0.51470335E+00</totfact>
</mgrwt>
</event>
<event>
 5    1  0.2349912E-004  0.6676194E+03  0.7818608E-02  0.9774268E-01
         13   -1    0    0    0    0  0.00000000000E+00  0.00000000000E+00  0.10000000000E+04  0.10000000000E+04  0.00000000000E+00 0. -1.
          2   -1    0    0  501    0 -0.00000000000E+00 -0.00000000000E+00 -0.11142890042E+03  0.11142890042E+03  0.00000000000E+00 0. -1.
    9000006    2    1    2  501    0  0.00000000000E+00  0.00000000000E+00  0.88857109958E+03  0.11114289004E+04  0.66761935388E+03 0.  0.
         13    1    3    3    0    0 -0.15829729228E+03  0.34049630314E+02 -0.41675932405E+02  0.16719537497E+03  0.00000000000E+00 0. -1.
          4    1    3    3  501    0  0.15829729228E+03 -0.34049630314E+02  0.93024703199E+03  0.94423352545E+03  0.00000000000E+00 0. -1.
<mgrwt>
<rscale>  0 0.66761935E+03</rscale>
<asrwt>0</asrwt>
<pdfrwt beam="1">0</pdfrwt>
<pdfrwt beam="2">  1        2 0.40519686E+00 0.66761935E+03</pdfrwt>
<totfact> 0.38022931E+00</totfact>
</mgrwt>
</event>
<event>
 5    1  0.2349912E-004  0.6476991E+03  0.7818608E-02  0.9811106E-01
         13   -1    0    0    0    0  0.00000000000E+00  0.00000000000E+00  0.10000000000E+04  0.10000000000E+04  0.00000000000E+00 0. -1.
          2   -1    0    0  501    0 -0.00000000000E+00 -0.00000000000E+00 -0.10487852551E+03  0.10487852551E+03  0.00000000000E+00 0. -1.
    9000006    2    1    2  501    0  0.00000000000E+00  0.00000000000E+00  0.89512147449E+03  0.11048785255E+04  0.64769908294E+03 0.  0.
         13    1    3    3    0    0 -0.24700245951E+03 -0.11306355348E+03  0.74831811585E+03  0.79609897917E+03  0.00000000000E+00 0. -1.
          4    1    3    3  501    0  0.24700245951E+03  0.11306355348E+03  0.14680335865E+03  0.30877954634E+03  0.00000000000E+00 0. -1.
<mgrwt>
<rscale>  0 0.64769908E+03</rscale>
<asrwt>0</asrwt>
<pdfrwt beam="1">0</pdfrwt>
<pdfrwt beam="2">  1        2 0.38137726E+00 0.64769908E+03</pdfrwt>
<totfact> 0.46728485E+00</totfact>
</mgrwt>
</event>
<event>
 5    1  0.2349912E-004  0.5723884E+03  0.7818608E-02  0.9964407E-01
         13   -1    0    0    0    0  0.00000000000E+00  0.00000000000E+00  0.10000000000E+04  0.10000000000E+04  0.00000000000E+00 0. -1.
          2   -1    0    0  501    0 -0.00000000000E+00 -0.00000000000E+00 -0.81907115756E+02  0.81907115756E+02  0.00000000000E+00 0. -1.
    9000006    2    1    2  501    0  0.00000000000E+00  0.00000000000E+00  0.91809288424E+03  0.10819071158E+04  0.57238838478E+03 0.  0.
         13    1    3    3    0    0 -0.40358390526E+02 -0.13921685183E+03 -0.73949231819E+01  0.14513723301E+03  0.00000000000E+00 0. -1.
          2    1    3    3  501    0  0.40358390526E+02  0.13921685183E+03  0.92548780743E+03  0.93676988274E+03  0.00000000000E+00 0. -1.
<mgrwt>
<rscale>  0 0.57238838E+03</rscale>
<asrwt>0</asrwt>
<pdfrwt beam="1">0</pdfrwt>
<pdfrwt beam="2">  1        2 0.29784469E+00 0.57238838E+03</pdfrwt>
<totfact> 0.93981441E+00</totfact>
</mgrwt>
</event>
<event>
 5    1  0.2349912E-004  0.6533104E+03  0.7818608E-02  0.9800587E-01
         13   -1    0    0    0    0  0.00000000000E+00  0.00000000000E+00  0.10000000000E+04  0.10000000000E+04  0.00000000000E+00 0. -1.
          2   -1    0    0  501    0 -0.00000000000E+00 -0.00000000000E+00 -0.10670360446E+03  0.10670360446E+03  0.00000000000E+00 0. -1.
    9000006    2    1    2  501    0  0.00000000000E+00  0.00000000000E+00  0.89329639554E+03  0.11067036045E+04  0.65331035340E+03 0.  0.
         13    1    3    3    0    0  0.55405614514E+02 -0.20356563741E+03  0.24184876854E+02  0.21235267627E+03  0.00000000000E+00 0. -1.
          2    1    3    3  501    0 -0.55405614514E+02  0.20356563741E+03  0.86911151868E+03  0.89435092819E+03  0.00000000000E+00 0. -1.
<mgrwt>
<rscale>  0 0.65331035E+03</rscale>
<asrwt>0</asrwt>
<pdfrwt beam="1">0</pdfrwt>
<pdfrwt beam="2">  1        2 0.38801393E+00 0.65331035E+03</pdfrwt>
<totfact> 0.44138092E+00</totfact>
</mgrwt>
</event>
<event>
 5    1  0.2349912E-004  0.6079973E+03  0.7818608E-02  0.9888952E-01
         13   -1    0    0    0    0  0.00000000000E+00  0.00000000000E+00  0.10000000000E+04  0.10000000000E+04  0.00000000000E+00 0. -1.
          2   -1    0    0  501    0 -0.00000000000E+00 -0.00000000000E+00 -0.92415191495E+02  0.92415191495E+02  0.00000000000E+00 0. -1.
    9000006    2    1    2  501    0  0.00000000000E+00  0.00000000000E+00  0.90758480851E+03  0.10924151915E+04  0.60799734044E+03 0.  0.
         13    1    3    3    0    0  0.28924345094E+03  0.39687106691E+02  0.60602175705E+03  0.67268061542E+03  0.00000000000E+00 0. -1.
          2    1    3    3  501    0 -0.28924345094E+03 -0.39687106691E+02  0.30156305145E+03  0.41973457607E+03  0.00000000000E+00 0. -1.
<mgrwt>
<rscale>  0 0.60799734E+03</rscale>
<asrwt>0</asrwt>
<pdfrwt beam="1">0</pdfrwt>
<pdfrwt beam="2">  1        2 0.33605595E+00 0.60799734E+03</pdfrwt>
<totfact> 0.68503698E+00</totfact>
</mgrwt>
</event>
<event>
 5    1  0.2349912E-004  0.6424713E+03  0.7818608E-02  0.9821010E-01
         13   -1    0    0    0    0  0.00000000000E+00  0.00000000000E+00  0.10000000000E+04  0.10000000000E+04  0.00000000000E+00 0. -1.
          2   -1    0    0  501    0 -0.00000000000E+00 -0.00000000000E+00 -0.10319234962E+03  0.10319234962E+03  0.00000000000E+00 0. -1.
    9000006    2    1    2  501    0  0.00000000000E+00  0.00000000000E+00  0.89680765038E+03  0.11031923496E+04  0.64247132114E+03 0.  0.
         13    1    3    3    0    0  0.21658257094E+03  0.95908130167E+02  0.82100417363E+03  0.85449062756E+03  0.00000000000E+00 0. -1.
          4    1    3    3  501    0 -0.21658257094E+03 -0.95908130167E+02  0.75803476742E+02  0.24870172206E+03  0.00000000000E+00 0. -1.
<mgrwt>
<rscale>  0 0.64247132E+03</rscale>
<asrwt>0</asrwt>
<pdfrwt beam="1">0</pdfrwt>
<pdfrwt beam="2">  1        2 0.37524570E+00 0.64247132E+03</pdfrwt>
<totfact> 0.49243764E+00</totfact>
</mgrwt>
</event>
<event>
 5    1  0.2349912E-004  0.6629991E+03  0.7818608E-02  0.9782688E-01
         13   -1    0    0    0    0  0.00000000000E+00  0.00000000000E+00  0.10000000000E+04  0.10000000000E+04  0.00000000000E+00 0. -1.
          2   -1    0    0  501    0 -0.00000000000E+00 -0.00000000000E+00 -0.10989195579E+03  0.10989195579E+03  0.00000000000E+00 0. -1.
    9000006    2    1    2  501    0  0.00000000000E+00  0.00000000000E+00  0.89010804421E+03  0.11098919558E+04  0.66299911250E+03 0.  0.
         13    1    3    3    0    0  0.10206495142E+03  0.78849469906E+02  0.95627604446E+03  0.96493438452E+03  0.00000000000E+00 0. -1.
          4    1    3    3  501    0 -0.10206495142E+03 -0.78849469906E+02 -0.66168000257E+02  0.14495757128E+03  0.00000000000E+00 0. -1.
<mgrwt>
<rscale>  0 0.66299911E+03</rscale>
<asrwt>0</asrwt>
<pdfrwt beam="1">0</pdfrwt>
<pdfrwt beam="2">  1        2 0.39960795E+00 0.66299911E+03</pdfrwt>
<totfact> 0.39922544E+00</totfact>
</mgrwt>
</event>
<event>
 5    1  0.2349912E-004  0.6304364E+03  0.7818608E-02  0.9844198E-01
         13   -1    0    0    0    0  0.00000000000E+00  0.00000000000E+00  0.10000000000E+04  0.10000000000E+04  0.00000000000E+00 0. -1.
          2   -1    0    0  501    0 -0.00000000000E+00 -0.00000000000E+00 -0.99362514855E+02  0.99362514855E+02  0.00000000000E+00 0. -1.
    9000006    2    1    2  501    0  0.00000000000E+00  0.00000000000E+00  0.90063748515E+03  0.10993625149E+04  0.63043640394E+03 0.  0.
         13    1    3    3    0    0 -0.28958171671E+03 -0.63775079889E+02  0.26382310529E+03  0.39689729447E+03  0.00000000000E+00 0. -1.
          2    1    3    3  501    0  0.28958171671E+03  0.63775079889E+02  0.63681437985E+03  0.70246522039E+03  0.00000000000E+00 0. -1.
<mgrwt>
<rscale>  0 0.63043640E+03</rscale>
<asrwt>0</asrwt>
<pdfrwt beam="1">0</pdfrwt>
<pdfrwt beam="2">  1        2 0.36131900E+00 0.63043640E+03</pdfrwt>
<totfact> 0.55424038E+00</totfact>
</mgrwt>
</event>
<event>
 5    1  0.2349912E-004  0.6238972E+03  0.7818608E-02  0.9857031E-01
         13   -1    0    0    0    0  0.00000000000E+00  0.00000000000E+00  0.10000000000E+04  0.10000000000E+04  0.00000000000E+00 0. -1.
          2   -1    0    0  501    0 -0.00000000000E+00 -0.00000000000E+00 -0.97311927087E+02  0.97311927087E+02  0.00000000000E+00 0. -1.
    9000006    2    1    2  501    0  0.00000000000E+00  0.00000000000E+00  0.90268807291E+03  0.10973119271E+04  0.62389719373E+03 0.  0.
         13    1    3    3    0    0 -0.24757230554E+02 -0.29980417315E+03  0.30613399398E+03  0.42920098436E+03  0.00000000000E+00 0. -1.
          2    1    3    3  501    0  0.24757230554E+02  0.29980417315E+03  0.59655407893E+03  0.66811094273E+03  0.00000000000E+00 0. -1.
<mgrwt>
<rscale>  0 0.62389719E+03</rscale>
<asrwt>0</asrwt>
<pdfrwt beam="1">0</pdfrwt>
<pdfrwt beam="2">  1        2 0.35386230E+00 0.62389719E+03</pdfrwt>
<totfact> 0.59019631E+00</totfact>
</mgrwt>
</event>
<event>
 5    1  0.2349912E-004  0.6513394E+03  0.7818608E-02  0.9804269E-01
         13   -1    0    0    0    0  0.00000000000E+00  0.00000000000E+00  0.10000000000E+04  0.10000000000E+04  0.00000000000E+00 0. -1.
          2   -1    0    0  501    0 -0.00000000000E+00 -0.00000000000E+00 -0.10606075837E+03  0.10606075837E+03  0.00000000000E+00 0. -1.
    9000006    2    1    2  501    0  0.00000000000E+00  0.00000000000E+00  0.89393924163E+03  0.11060607584E+04  0.65133941497E+03 0.  0.
         13    1    3    3    0    0  0.51775592906E+02  0.13875199078E+03  0.93950987458E+03  0.95111073561E+03  0.00000000000E+00 0. -1.
          2    1    3    3  501    0 -0.51775592906E+02 -0.13875199078E+03 -0.45570632956E+02  0.15495002276E+03  0.00000000000E+00 0. -1.
<mgrwt>
<rscale>  0 0.65133941E+03</rscale>
<asrwt>0</asrwt>
<pdfrwt beam="1">0</pdfrwt>
<pdfrwt beam="2">  1        2 0.38567630E+00 0.65133941E+03</pdfrwt>
<totfact> 0.45035258E+00</totfact>
</mgrwt>
</event>
<event>
 5    1  0.2349912E-004  0.6680782E+03  0.7818608E-02  0.9773436E-01
         13   -1    0    0    0    0  0.00000000000E+00  0.00000000000E+00  0.10000000000E+04  0.10000000000E+04  0.00000000000E+00 0. -1.
          2   -1    0    0  501    0 -0.00000000000E+00 -0.00000000000E+00 -0.11158212381E+03  0.11158212381E+03  0.00000000000E+00 0. -1.
    9000006    2    1    2  501    0  0.00000000000E+00  0.00000000000E+00  0.88841787619E+03  0.11115821238E+04  0.66807821041E+03 0.  0.
         13    1    3    3    0    0 -0.10125100803E+03  0.14627863353E+03  0.91461951912E+03  0.93176073646E+03  0.00000000000E+00 0. -1.
          4    1    3    3  501    0  0.10125100803E+03 -0.14627863353E+03 -0.26201642931E+02  0.17982138734E+03  0.00000000000E+00 0. -1.
<mgrwt>
<rscale>  0 0.66807821E+03</rscale>
<asrwt>0</asrwt>
<pdfrwt beam="1">0</pdfrwt>
<pdfrwt beam="2">  1        2 0.40575403E+00 0.66807821E+03</pdfrwt>
<totfact> 0.37838065E+00</totfact>
</mgrwt>
</event>
<event>
 5    1  0.2349912E-004  0.6381656E+03  0.7818608E-02  0.9829242E-01
         13   -1    0    0    0    0  0.00000000000E+00  0.00000000000E+00  0.10000000000E+04  0.10000000000E+04  0.00000000000E+00 0. -1.
          2   -1    0    0  501    0 -0.00000000000E+00 -0.00000000000E+00 -0.10181384905E+03  0.10181384905E+03  0.00000000000E+00 0. -1.
    9000006    2    1    2  501    0  0.00000000000E+00  0.00000000000E+00  0.89818615095E+03  0.11018138491E+04  0.63816564951E+03 0.  0.
         13    1    3    3    0    0  0.29639654796E+03 -0.11719476246E+03  0.42300454039E+03  0.52963984667E+03  0.00000000000E+00 0. -1.
          4    1    3    3  501    0 -0.29639654796E+03  0.11719476246E+03  0.47518161055E+03  0.57217400238E+03  0.00000000000E+00 0. -1.
<mgrwt>
<rscale>  0 0.63816565E+03</rscale>
<asrwt>0</asrwt>
<pdfrwt beam="1">0</pdfrwt>
<pdfrwt beam="2">  1        2 0.37023296E+00 0.63816565E+03</pdfrwt>
<totfact> 0.51391438E+00</totfact>
</mgrwt>
</event>
<event>
 5    1  0.2349912E-004  0.6564212E+03  0.7818608E-02  0.9794804E-01
         13   -1    0    0    0    0  0.00000000000E+00  0.00000000000E+00  0.10000000000E+04  0.10000000000E+04  0.00000000000E+00 0. -1.
          2   -1    0    0  501    0 -0.00000000000E+00 -0.00000000000E+00 -0.10772219122E+03  0.10772219122E+03  0.00000000000E+00 0. -1.
    9000006    2    1    2  501    0  0.00000000000E+00  0.00000000000E+00  0.89227780878E+03  0.11077221912E+04  0.65642117948E+03 0.  0.
         13    1    3    3    0    0  0.31729447151E+03  0.82921924705E+02  0.46816498130E+03  0.57160325135E+03  0.00000000000E+00 0. -1.
          2    1    3    3  501    0 -0.31729447151E+03 -0.82921924705E+02  0.42411282749E+03  0.53611893987E+03  0.00000000000E+00 0. -1.
<mgrwt>
<rscale>  0 0.65642118E+03</rscale>
<asrwt>0</asrwt>
<pdfrwt beam="1">0</pdfrwt>
<pdfrwt beam="2">  1        2 0.39171789E+00 0.65642118E+03</pdfrwt>
<totfact> 0.42749600E+00</totfact>
</mgrwt>
</event>
<event>
 5    1  0.2349912E-004  0.7036784E+03  0.7818608E-02  0.9710962E-01
         13   -1    0    0    0    0  0.00000000000E+00  0.00000000000E+00  0.10000000000E+04  0.10000000000E+04  0.00000000000E+00 0. -1.
          2   -1    0    0  501    0 -0.00000000000E+00 -0.00000000000E+00 -0.12379082408E+03  0.12379082408E+03  0.00000000000E+00 0. -1.
    9000006    2    1    2  501    0  0.00000000000E+00  0.00000000000E+00  0.87620917592E+03  0.11237908241E+04  0.70367840406E+03 0.  0.
         13    1    3    3    0    0 -0.31469924358E+03 -0.13431659820E+03  0.56896563436E+03  0.66392654379E+03  0.00000000000E+00 0. -1.
          4    1    3    3  501    0  0.31469924358E+03  0.13431659820E+03  0.30724354155E+03  0.45986428029E+03  0.00000000000E+00 0. -1.
<mgrwt>
<rscale>  0 0.70367840E+03</rscale>
<asrwt>0</asrwt>
<pdfrwt beam="1">0</pdfrwt>
<pdfrwt beam="2">  1        2 0.45014940E+00 0.70367840E+03</pdfrwt>
<totfact> 0.25435248E+00</totfact>
</mgrwt>
</event>
<event>
 5    1  0.2349912E-004  0.6520056E+03  0.7818608E-02  0.9803023E-01
         13   -1    0    0    0    0  0.00000000000E+00  0.00000000000E+00  0.10000000000E+04  0.10000000000E+04  0.00000000000E+00 0. -1.
          2   -1    0    0  501    0 -0.00000000000E+00 -0.00000000000E+00 -0.10627781873E+03  0.10627781873E+03  0.00000000000E+00 0. -1.
    9000006    2    1    2  501    0  0.00000000000E+00  0.00000000000E+00  0.89372218127E+03  0.11062778187E+04  0.65200557890E+03 0.  0.
         13    1    3    3    0    0 -0.40030580231E+01 -0.21688728044E+03  0.33953055146E+02  0.21956531339E+03  0.00000000000E+00 0. -1.
          2    1    3    3  501    0  0.40030580231E+01  0.21688728044E+03  0.85976912613E+03  0.88671250534E+03  0.00000000000E+00 0. -1.
<mgrwt>
<rscale>  0 0.65200558E+03</rscale>
<asrwt>0</asrwt>
<pdfrwt beam="1">0</pdfrwt>
<pdfrwt beam="2">  1        2 0.38646561E+00 0.65200558E+03</pdfrwt>
<totfact> 0.44730495E+00</totfact>
</mgrwt>
</event>
<event>
 5    1  0.2349912E-004  0.6360155E+03  0.7818608E-02  0.9833380E-01
         13   -1    0    0    0    0  0.00000000000E+00  0.00000000000E+00  0.10000000000E+04  0.10000000000E+04  0.00000000000E+00 0. -1.
          2   -1    0    0  501    0 -0.00000000000E+00 -0.00000000000E+00 -0.10112892390E+03  0.10112892390E+03  0.00000000000E+00 0. -1.
    9000006    2    1    2  501    0  0.00000000000E+00  0.00000000000E+00  0.89887107610E+03  0.11011289239E+04  0.63601548377E+03 0.  0.
         13    1    3    3    0    0 -0.18965161352E+03  0.50042962251E+02  0.88280160630E+03  0.90432887196E+03  0.00000000000E+00 0. -1.
          2    1    3    3  501    0  0.18965161352E+03 -0.50042962251E+02  0.16069469802E+02  0.19680005194E+03  0.00000000000E+00 0. -1.
<mgrwt>
<rscale>  0 0.63601548E+03</rscale>
<asrwt>0</asrwt>
<pdfrwt beam="1">0</pdfrwt>
<pdfrwt beam="2">  1        2 0.36774232E+00 0.63601548E+03</pdfrwt>
<totfact> 0.52490133E+00</totfact>
</mgrwt>
</event>
<event>
 5    1  0.2349912E-004  0.6410157E+03  0.7818608E-02  0.9823785E-01
         13   -1    0    0    0    0  0.00000000000E+00  0.00000000000E+00  0.10000000000E+04  0.10000000000E+04  0.00000000000E+00 0. -1.
          2   -1    0    0  501    0 -0.00000000000E+00 -0.00000000000E+00 -0.10272528078E+03  0.10272528078E+03  0.00000000000E+00 0. -1.
    9000006    2    1    2  501    0  0.00000000000E+00  0.00000000000E+00  0.89727471922E+03  0.11027252808E+04  0.64101569646E+03 0.  0.
         13    1    3    3    0    0  0.15798488474E+03  0.15373287288E+03  0.48391590636E+02  0.22568731922E+03  0.00000000000E+00 0. -1.
          2    1    3    3  501    0 -0.15798488474E+03 -0.15373287288E+03  0.84888312859E+03  0.87703796156E+03  0.00000000000E+00 0. -1.
<mgrwt>
<rscale>  0 0.64101570E+03</rscale>
<asrwt>0</asrwt>
<pdfrwt beam="1">0</pdfrwt>
<pdfrwt beam="2">  1        2 0.37354726E+00 0.64101570E+03</pdfrwt>
<totfact> 0.49962072E+00</totfact>
</mgrwt>
</event>
<event>
 5    1  0.2349912E-004  0.6651380E+03  0.7818608E-02  0.9778781E-01
         13   -1    0    0    0    0  0.00000000000E+00  0.00000000000E+00  0.10000000000E+04  0.10000000000E+04  0.00000000000E+00 0. -1.
          2   -1    0    0  501    0 -0.00000000000E+00 -0.00000000000E+00 -0.11060213316E+03  0.11060213316E+03  0.00000000000E+00 0. -1.
    9000006    2    1    2  501    0  0.00000000000E+00  0.00000000000E+00  0.88939786684E+03  0.11106021332E+04  0.66513798016E+03 0.  0.
         13    1    3    3    0    0 -0.13991159825E+03 -0.67383512183E+02  0.93574305423E+03  0.94854143641E+03  0.00000000000E+00 0. -1.
          2    1    3    3  501    0  0.13991159825E+03  0.67383512183E+02 -0.46345187396E+02  0.16206069676E+03  0.00000000000E+00 0. -1.
<mgrwt>
<rscale>  0 0.66513798E+03</rscale>
<asrwt>0</asrwt>
<pdfrwt beam="1">0</pdfrwt>
<pdfrwt beam="2">  1        2 0.40219042E+00 0.66513798E+03</pdfrwt>
<totfact> 0.39034465E+00</totfact>
</mgrwt>
</event>
<event>
 5    1  0.2349912E-004  0.6683362E+03  0.7818608E-02  0.9772968E-01
         13   -1    0    0    0    0  0.00000000000E+00  0.00000000000E+00  0.10000000000E+04  0.10000000000E+04  0.00000000000E+00 0. -1.
          2   -1    0    0  501    0 -0.00000000000E+00 -0.00000000000E+00 -0.11166832454E+03  0.11166832454E+03  0.00000000000E+00 0. -1.
    9000006    2    1    2  501    0  0.00000000000E+00  0.00000000000E+00  0.88833167546E+03  0.11116683245E+04  0.66833621642E+03 0.  0.
         13    1    3    3    0    0  0.27175852317E+03 -0.17937120984E+03  0.56910003510E+03  0.65566880037E+03  0.00000000000E+00 0. -1.
          4    1    3    3  501    0 -0.27175852317E+03  0.17937120984E+03  0.31923164036E+03  0.45599952417E+03  0.00000000000E+00 0. -1.
<mgrwt>
<rscale>  0 0.66833622E+03</rscale>
<asrwt>0</asrwt>
<pdfrwt beam="1">0</pdfrwt>
<pdfrwt beam="2">  1        2 0.40606749E+00 0.66833622E+03</pdfrwt>
<totfact> 0.37734416E+00</totfact>
</mgrwt>
</event>
<event>
 5    1  0.2349912E-004  0.6495686E+03  0.7818608E-02  0.9807589E-01
         13   -1    0    0    0    0  0.00000000000E+00  0.00000000000E+00  0.10000000000E+04  0.10000000000E+04  0.00000000000E+00 0. -1.
          2   -1    0    0  501    0 -0.00000000000E+00 -0.00000000000E+00 -0.10548482905E+03  0.10548482905E+03  0.00000000000E+00 0. -1.
    9000006    2    1    2  501    0  0.00000000000E+00  0.00000000000E+00  0.89451517095E+03  0.11054848291E+04  0.64956856159E+03 0.  0.
         13    1    3    3    0    0 -0.95935782565E+02  0.16126296127E+03  0.89841644465E+03  0.91780255234E+03  0.00000000000E+00 0. -1.
          4    1    3    3  501    0  0.95935782565E+02 -0.16126296127E+03 -0.39012737058E+01  0.18768227671E+03  0.00000000000E+00 0. -1.
<mgrwt>
<rscale>  0 0.64956856E+03</rscale>
<asrwt>0</asrwt>
<pdfrwt beam="1">0</pdfrwt>
<pdfrwt beam="2">  1        2 0.38358201E+00 0.64956856E+03</pdfrwt>
<totfact> 0.45853036E+00</totfact>
</mgrwt>
</event>
<event>
 5    1  0.2349912E-004  0.6352694E+03  0.7818608E-02  0.9834820E-01
         13   -1    0    0    0    0  0.00000000000E+00  0.00000000000E+00  0.10000000000E+04  0.10000000000E+04  0.00000000000E+00 0. -1.
          2   -1    0    0  501    0 -0.00000000000E+00 -0.00000000000E+00 -0.10089180181E+03  0.10089180181E+03  0.00000000000E+00 0. -1.
    9000006    2    1    2  501    0  0.00000000000E+00  0.00000000000E+00  0.89910819819E+03  0.11008918018E+04  0.63526939736E+03 0.  0.
         13    1    3    3    0    0 -0.29338884407E+03 -0.99259901120E+02  0.57162902269E+03  0.65014558475E+03  0.00000000000E+00 0. -1.
          2    1    3    3  501    0  0.29338884407E+03  0.99259901120E+02  0.32747917551E+03  0.45074621705E+03  0.00000000000E+00 0. -1.
<mgrwt>
<rscale>  0 0.63526940E+03</rscale>
<asrwt>0</asrwt>
<pdfrwt beam="1">0</pdfrwt>
<pdfrwt beam="2">  1        2 0.36688005E+00 0.63526940E+03</pdfrwt>
<totfact> 0.52875498E+00</totfact>
</mgrwt>
</event>
<event>
 5    1  0.2349912E-004  0.6447255E+03  0.7818608E-02  0.9816727E-01
         13   -1    0    0    0    0  0.00000000000E+00  0.00000000000E+00  0.10000000000E+04  0.10000000000E+04  0.00000000000E+00 0. -1.
          2   -1    0    0  501    0 -0.00000000000E+00 -0.00000000000E+00 -0.10391775369E+03  0.10391775369E+03  0.00000000000E+00 0. -1.
    9000006    2    1    2  501    0  0.00000000000E+00  0.00000000000E+00  0.89608224631E+03  0.11039177537E+04  0.64472553443E+03 0.  0.
         13    1    3    3    0    0 -0.29820682989E+03 -0.11727250557E+03  0.38780570224E+03  0.50306402838E+03  0.00000000000E+00 0. -1.
          4    1    3    3  501    0  0.29820682989E+03  0.11727250557E+03  0.50827654407E+03  0.60085372530E+03  0.00000000000E+00 0. -1.
<mgrwt>
<rscale>  0 0.64472553E+03</rscale>
<asrwt>0</asrwt>
<pdfrwt beam="1">0</pdfrwt>
<pdfrwt beam="2">  1        2 0.37788354E+00 0.64472553E+03</pdfrwt>
<totfact> 0.48146925E+00</totfact>
</mgrwt>
</event>
<event>
 5    1  0.2349912E-004  0.6547605E+03  0.7818608E-02  0.9797887E-01
         13   -1    0    0    0    0  0.00000000000E+00  0.00000000000E+00  0.10000000000E+04  0.10000000000E+04  0.00000000000E+00 0. -1.
          2   -1    0    0  501    0 -0.00000000000E+00 -0.00000000000E+00 -0.10717783793E+03  0.10717783793E+03  0.00000000000E+00 0. -1.
    9000006    2    1    2  501    0  0.00000000000E+00  0.00000000000E+00  0.89282216207E+03  0.11071778379E+04  0.65476053007E+03 0.  0.
         13    1    3    3    0    0 -0.26120610267E+03  0.90007112525E+02  0.14941692575E+03  0.31409445407E+03  0.00000000000E+00 0. -1.
          4    1    3    3  501    0  0.26120610267E+03 -0.90007112525E+02  0.74340523632E+03  0.79308338386E+03  0.00000000000E+00 0. -1.
<mgrwt>
<rscale>  0 0.65476053E+03</rscale>
<asrwt>0</asrwt>
<pdfrwt beam="1">0</pdfrwt>
<pdfrwt beam="2">  1        2 0.38973841E+00 0.65476053E+03</pdfrwt>
<totfact> 0.43486646E+00</totfact>
</mgrwt>
</event>
<event>
 5    1  0.2349912E-004  0.6459810E+03  0.7818608E-02  0.9814350E-01
         13   -1    0    0    0    0  0.00000000000E+00  0.00000000000E+00  0.10000000000E+04  0.10000000000E+04  0.00000000000E+00 0. -1.
          2   -1    0    0  501    0 -0.00000000000E+00 -0.00000000000E+00 -0.10432286719E+03  0.10432286719E+03  0.00000000000E+00 0. -1.
    9000006    2    1    2  501    0  0.00000000000E+00  0.00000000000E+00  0.89567713281E+03  0.11043228672E+04  0.64598101269E+03 0.  0.
         13    1    3    3    0    0  0.14950608228E+03 -0.24744517266E+03  0.20163273772E+03  0.35247261317E+03  0.00000000000E+00 0. -1.
          4    1    3    3  501    0 -0.14950608228E+03  0.24744517266E+03  0.69404439509E+03  0.75185025402E+03  0.00000000000E+00 0. -1.
<mgrwt>
<rscale>  0 0.64598101E+03</rscale>
<asrwt>0</asrwt>
<pdfrwt beam="1">0</pdfrwt>
<pdfrwt beam="2">  1        2 0.37935668E+00 0.64598101E+03</pdfrwt>
<totfact> 0.47544123E+00</totfact>
</mgrwt>
</event>
<event>
 5    1  0.2349912E-004  0.6411623E+03  0.7818608E-02  0.9823505E-01
         13   -1    0    0    0    0  0.00000000000E+00  0.00000000000E+00  0.10000000000E+04  0.10000000000E+04  0.00000000000E+00 0. -1.
          2   -1    0    0  501    0 -0.00000000000E+00 -0.00000000000E+00 -0.10277228593E+03  0.10277228593E+03  0.00000000000E+00 0. -1.
    9000006    2    1    2  501    0  0.00000000000E+00  0.00000000000E+00  0.89722771407E+03  0.11027722859E+04  0.64116233805E+03 0.  0.
         13    1    3    3    0    0 -0.14564175184E+03 -0.13492162476E+02  0.93926553325E+03  0.95058576692E+03  0.00000000000E+00 0. -1.
          2    1    3    3  501    0  0.14564175184E+03  0.13492162476E+02 -0.42037819179E+02  0.15218651901E+03  0.00000000000E+00 0. -1.
<mgrwt>
<rscale>  0 0.64116234E+03</rscale>
<asrwt>0</asrwt>
<pdfrwt beam="1">0</pdfrwt>
<pdfrwt beam="2">  1        2 0.37371819E+00 0.64116234E+03</pdfrwt>
<totfact> 0.49889352E+00</totfact>
</mgrwt>
</event>
<event>
 5    1  0.2349912E-004  0.6299667E+03  0.7818608E-02  0.9845114E-01
         13   -1    0    0    0    0  0.00000000000E+00  0.00000000000E+00  0.10000000000E+04  0.10000000000E+04  0.00000000000E+00 0. -1.
          2   -1    0    0  501    0 -0.00000000000E+00 -0.00000000000E+00 -0.99214495050E+02  0.99214495050E+02  0.00000000000E+00 0. -1.
    9000006    2    1    2  501    0  0.00000000000E+00  0.00000000000E+00  0.90078550495E+03  0.10992144951E+04  0.62996665007E+03 0.  0.
         13    1    3    3    0    0  0.15165736229E+03 -0.54464852769E+02 -0.21847635553E+02  0.16261517427E+03  0.00000000000E+00 0. -1.
          2    1    3    3  501    0 -0.15165736229E+03  0.54464852769E+02  0.92263314050E+03  0.93659932078E+03  0.00000000000E+00 0. -1.
<mgrwt>
<rscale>  0 0.62996665E+03</rscale>
<asrwt>0</asrwt>
<pdfrwt beam="1">0</pdfrwt>
<pdfrwt beam="2">  1        2 0.36078074E+00 0.62996665E+03</pdfrwt>
<totfact> 0.55676627E+00</totfact>
</mgrwt>
</event>
<event>
 5    1  0.2349912E-004  0.6814500E+03  0.7818608E-02  0.9749492E-01
         13   -1    0    0    0    0  0.00000000000E+00  0.00000000000E+00  0.10000000000E+04  0.10000000000E+04  0.00000000000E+00 0. -1.
          2   -1    0    0  501    0 -0.00000000000E+00 -0.00000000000E+00 -0.11609353051E+03  0.11609353051E+03  0.00000000000E+00 0. -1.
    9000006    2    1    2  501    0  0.00000000000E+00  0.00000000000E+00  0.88390646949E+03  0.11160935305E+04  0.68145001435E+03 0.  0.
         13    1    3    3    0    0  0.17678418259E+03  0.18465278672E+03  0.73009681367E+02  0.26585656364E+03  0.00000000000E+00 0. -1.
          4    1    3    3  501    0 -0.17678418259E+03 -0.18465278672E+03  0.81089678812E+03  0.85023696687E+03  0.00000000000E+00 0. -1.
<mgrwt>
<rscale>  0 0.68145001E+03</rscale>
<asrwt>0</asrwt>
<pdfrwt beam="1">0</pdfrwt>
<pdfrwt beam="2">  1        2 0.42215918E+00 0.68145001E+03</pdfrwt>
<totfact> 0.32741979E+00</totfact>
</mgrwt>
</event>
<event>
 5    1  0.2349912E-004  0.6511269E+03  0.7818608E-02  0.9804667E-01
         13   -1    0    0    0    0  0.00000000000E+00  0.00000000000E+00  0.10000000000E+04  0.10000000000E+04  0.00000000000E+00 0. -1.
          2   -1    0    0  501    0 -0.00000000000E+00 -0.00000000000E+00 -0.10599157127E+03  0.10599157127E+03  0.00000000000E+00 0. -1.
    9000006    2    1    2  501    0  0.00000000000E+00  0.00000000000E+00  0.89400842873E+03  0.11059915713E+04  0.65112693468E+03 0.  0.
         13    1    3    3    0    0  0.23692527313E+03 -0.21974977766E+03  0.37974339485E+03  0.49862670983E+03  0.00000000000E+00 0. -1.
          4    1    3    3  501    0 -0.23692527313E+03  0.21974977766E+03  0.51426503389E+03  0.60736486144E+03  0.00000000000E+00 0. -1.
<mgrwt>
<rscale>  0 0.65112693E+03</rscale>
<asrwt>0</asrwt>
<pdfrwt beam="1">0</pdfrwt>
<pdfrwt beam="2">  1        2 0.38542471E+00 0.65112693E+03</pdfrwt>
<totfact> 0.45132795E+00</totfact>
</mgrwt>
</event>
<event>
 5    1  0.2349912E-004  0.7351441E+03  0.7818608E-02  0.9658950E-01
         13   -1    0    0    0    0  0.00000000000E+00  0.00000000000E+00  0.10000000000E+04  0.10000000000E+04  0.00000000000E+00 0. -1.
          2   -1    0    0  501    0 -0.00000000000E+00 -0.00000000000E+00 -0.13510920116E+03  0.13510920116E+03  0.00000000000E+00 0. -1.
    9000006    2    1    2  501    0  0.00000000000E+00  0.00000000000E+00  0.86489079884E+03  0.11351092012E+04  0.73514407066E+03 0.  0.
         13    1    3    3    0    0  0.36426224678E+03 -0.28448190141E+02  0.49445675459E+03  0.61480384360E+03  0.00000000000E+00 0. -1.
          4    1    3    3  501    0 -0.36426224678E+03  0.28448190141E+02  0.37043404426E+03  0.52030535755E+03  0.00000000000E+00 0. -1.
<mgrwt>
<rscale>  0 0.73514407E+03</rscale>
<asrwt>0</asrwt>
<pdfrwt beam="1">0</pdfrwt>
<pdfrwt beam="2">  1        2 0.49130722E+00 0.73514407E+03</pdfrwt>
<totfact> 0.17277955E+00</totfact>
</mgrwt>
</event>
<event>
 5    1  0.2349912E-004  0.6488308E+03  0.7818608E-02  0.9808976E-01
         13   -1    0    0    0    0  0.00000000000E+00  0.00000000000E+00  0.10000000000E+04  0.10000000000E+04  0.00000000000E+00 0. -1.
          2   -1    0    0  501    0 -0.00000000000E+00 -0.00000000000E+00 -0.10524534767E+03  0.10524534767E+03  0.00000000000E+00 0. -1.
    9000006    2    1    2  501    0  0.00000000000E+00  0.00000000000E+00  0.89475465233E+03  0.11052453477E+04  0.64883078741E+03 0.  0.
         13    1    3    3    0    0  0.18565569832E+03  0.23713421410E+03  0.24194005393E+03  0.38631032022E+03  0.00000000000E+00 0. -1.
          4    1    3    3  501    0 -0.18565569832E+03 -0.23713421410E+03  0.65281459840E+03  0.71893502745E+03  0.00000000000E+00 0. -1.
<mgrwt>
<rscale>  0 0.64883079E+03</rscale>
<asrwt>0</asrwt>
<pdfrwt beam="1">0</pdfrwt>
<pdfrwt beam="2">  1        2 0.38271116E+00 0.64883079E+03</pdfrwt>
<totfact> 0.46197030E+00</totfact>
</mgrwt>
</event>
<event>
 5    1  0.2349912E-004  0.6480032E+03  0.7818608E-02  0.9810533E-01
         13   -1    0    0    0    0  0.00000000000E+00  0.00000000000E+00  0.10000000000E+04  0.10000000000E+04  0.00000000000E+00 0. -1.
          2   -1    0    0  501    0 -0.00000000000E+00 -0.00000000000E+00 -0.10497703540E+03  0.10497703540E+03  0.00000000000E+00 0. -1.
    9000006    2    1    2  501    0  0.00000000000E+00  0.00000000000E+00  0.89502296460E+03  0.11049770354E+04  0.64800319567E+03 0.  0.
         13    1    3    3    0    0  0.29392437633E+03 -0.46904343916E+02  0.66578732541E+03  0.72929028457E+03  0.00000000000E+00 0. -1.
          2    1    3    3  501    0 -0.29392437633E+03  0.46904343916E+02  0.22923563919E+03  0.37568675084E+03  0.00000000000E+00 0. -1.
<mgrwt>
<rscale>  0 0.64800320E+03</rscale>
<asrwt>0</asrwt>
<pdfrwt beam="1">0</pdfrwt>
<pdfrwt beam="2">  1        2 0.38173548E+00 0.64800320E+03</pdfrwt>
<totfact> 0.46585220E+00</totfact>
</mgrwt>
</event>
<event>
 5    1  0.2349912E-004  0.6614425E+03  0.7818608E-02  0.9785542E-01
         13   -1    0    0    0    0  0.00000000000E+00  0.00000000000E+00  0.10000000000E+04  0.10000000000E+04  0.00000000000E+00 0. -1.
          2   -1    0    0  501    0 -0.00000000000E+00 -0.00000000000E+00 -0.10937653344E+03  0.10937653344E+03  0.00000000000E+00 0. -1.
    9000006    2    1    2  501    0  0.00000000000E+00  0.00000000000E+00  0.89062346656E+03  0.11093765334E+04  0.66144246444E+03 0.  0.
         13    1    3    3    0    0 -0.47228043157E+02  0.28199222926E+03  0.16653965681E+03  0.33088602677E+03  0.00000000000E+00 0. -1.
          2    1    3    3  501    0  0.47228043157E+02 -0.28199222926E+03  0.72408380975E+03  0.77849050667E+03  0.00000000000E+00 0. -1.
<mgrwt>
<rscale>  0 0.66144246E+03</rscale>
<asrwt>0</asrwt>
<pdfrwt beam="1">0</pdfrwt>
<pdfrwt beam="2">  1        2 0.39773369E+00 0.66144246E+03</pdfrwt>
<totfact> 0.40578398E+00</totfact>
</mgrwt>
</event>
<event>
 5    1  0.2349912E-004  0.6489209E+03  0.7818608E-02  0.9808806E-01
         13   -1    0    0    0    0  0.00000000000E+00  0.00000000000E+00  0.10000000000E+04  0.10000000000E+04  0.00000000000E+00 0. -1.
          2   -1    0    0  501    0 -0.00000000000E+00 -0.00000000000E+00 -0.10527457833E+03  0.10527457833E+03  0.00000000000E+00 0. -1.
    9000006    2    1    2  501    0  0.00000000000E+00  0.00000000000E+00  0.89472542167E+03  0.11052745783E+04  0.64892088370E+03 0.  0.
         13    1    3    3    0    0  0.16723953460E+03 -0.57242773778E+02 -0.16061511744E+02  0.17749301181E+03  0.00000000000E+00 0. -1.
          2    1    3    3  501    0 -0.16723953460E+03  0.57242773778E+02  0.91078693342E+03  0.92778156652E+03  0.00000000000E+00 0. -1.
<mgrwt>
<rscale>  0 0.64892088E+03</rscale>
<asrwt>0</asrwt>
<pdfrwt beam="1">0</pdfrwt>
<pdfrwt beam="2">  1        2 0.38281746E+00 0.64892088E+03</pdfrwt>
<totfact> 0.46154917E+00</totfact>
</mgrwt>
</event>
<event>
 5    1  0.2349912E-004  0.6422660E+03  0.7818608E-02  0.9821401E-01
         13   -1    0    0    0    0  0.00000000000E+00  0.00000000000E+00  0.10000000000E+04  0.10000000000E+04  0.00000000000E+00 0. -1.
          2   -1    0    0  501    0 -0.00000000000E+00 -0.00000000000E+00 -0.10312640241E+03  0.10312640241E+03  0.00000000000E+00 0. -1.
    9000006    2    1    2  501    0  0.00000000000E+00  0.00000000000E+00  0.89687359759E+03  0.11031264024E+04  0.64226599602E+03 0.  0.
         13    1    3    3    0    0  0.14114710561E+03  0.18667107696E+03  0.82613389346E+03  0.85864183820E+03  0.00000000000E+00 0. -1.
          4    1    3    3  501    0 -0.14114710561E+03 -0.18667107696E+03  0.70739704131E+02  0.24448456421E+03  0.00000000000E+00 0. -1.
<mgrwt>
<rscale>  0 0.64226600E+03</rscale>
<asrwt>0</asrwt>
<pdfrwt beam="1">0</pdfrwt>
<pdfrwt beam="2">  1        2 0.37500589E+00 0.64226600E+03</pdfrwt>
<totfact> 0.49344609E+00</totfact>
</mgrwt>
</event>
<event>
 5    1  0.2349912E-004  0.6475645E+03  0.7818608E-02  0.9811360E-01
         13   -1    0    0    0    0  0.00000000000E+00  0.00000000000E+00  0.10000000000E+04  0.10000000000E+04  0.00000000000E+00 0. -1.
          2   -1    0    0  501    0 -0.00000000000E+00 -0.00000000000E+00 -0.10483494051E+03  0.10483494051E+03  0.00000000000E+00 0. -1.
    9000006    2    1    2  501    0  0.00000000000E+00  0.00000000000E+00  0.89516505949E+03  0.11048349405E+04  0.64756448485E+03 0.  0.
         13    1    3    3    0    0  0.17427625987E+03 -0.15731752954E+03  0.82799380921E+03  0.86063625763E+03  0.00000000000E+00 0. -1.
          4    1    3    3  501    0 -0.17427625987E+03  0.15731752954E+03  0.67171250279E+02  0.24419868288E+03  0.00000000000E+00 0. -1.
<mgrwt>
<rscale>  0 0.64756448E+03</rscale>
<asrwt>0</asrwt>
<pdfrwt beam="1">0</pdfrwt>
<pdfrwt beam="2">  1        2 0.38121877E+00 0.64756448E+03</pdfrwt>
<totfact> 0.46792000E+00</totfact>
</mgrwt>
</event>
<event>
 5    1  0.2349912E-004  0.6451093E+03  0.7818608E-02  0.9816000E-01
         13   -1    0    0    0    0  0.00000000000E+00  0.00000000000E+00  0.10000000000E+04  0.10000000000E+04  0.00000000000E+00 0. -1.
          2   -1    0    0  501    0 -0.00000000000E+00 -0.00000000000E+00 -0.10404150666E+03  0.10404150666E+03  0.00000000000E+00 0. -1.
    9000006    2    1    2  501    0  0.00000000000E+00  0.00000000000E+00  0.89595849334E+03  0.11040415067E+04  0.64510931371E+03 0.  0.
         13    1    3    3    0    0 -0.14149436890E+03 -0.28959487294E+03  0.42662716044E+03  0.53469297816E+03  0.00000000000E+00 0. -1.
          4    1    3    3  501    0  0.14149436890E+03  0.28959487294E+03  0.46933133290E+03  0.56934852850E+03  0.00000000000E+00 0. -1.
<mgrwt>
<rscale>  0 0.64510931E+03</rscale>
<asrwt>0</asrwt>
<pdfrwt beam="1">0</pdfrwt>
<pdfrwt beam="2">  1        2 0.37833355E+00 0.64510931E+03</pdfrwt>
<totfact> 0.47962048E+00</totfact>
</mgrwt>
</event>
<event>
 5    1  0.2349912E-004  0.6502785E+03  0.7818608E-02  0.9806257E-01
         13   -1    0    0    0    0  0.00000000000E+00  0.00000000000E+00  0.10000000000E+04  0.10000000000E+04  0.00000000000E+00 0. -1.
          2   -1    0    0  501    0 -0.00000000000E+00 -0.00000000000E+00 -0.10571552257E+03  0.10571552257E+03  0.00000000000E+00 0. -1.
    9000006    2    1    2  501    0  0.00000000000E+00  0.00000000000E+00  0.89428447743E+03  0.11057155226E+04  0.65027847133E+03 0.  0.
         13    1    3    3    0    0 -0.13991045191E+03 -0.17349199948E+03  0.84967145778E+03  0.87841675451E+03  0.00000000000E+00 0. -1.
          2    1    3    3  501    0  0.13991045191E+03  0.17349199948E+03  0.44613019646E+02  0.22729876806E+03  0.00000000000E+00 0. -1.
<mgrwt>
<rscale>  0 0.65027847E+03</rscale>
<asrwt>0</asrwt>
<pdfrwt beam="1">0</pdfrwt>
<pdfrwt beam="2">  1        2 0.38442089E+00 0.65027847E+03</pdfrwt>
<totfact> 0.45523864E+00</totfact>
</mgrwt>
</event>
<event>
 5    1  0.2349912E-004  0.6559161E+03  0.7818608E-02  0.9795741E-01
         13   -1    0    0    0    0  0.00000000000E+00  0.00000000000E+00  0.10000000000E+04  0.10000000000E+04  0.00000000000E+00 0. -1.
          2   -1    0    0  501    0 -0.00000000000E+00 -0.00000000000E+00 -0.10755648610E+03  0.10755648610E+03  0.00000000000E+00 0. -1.
    9000006    2    1    2  501    0  0.00000000000E+00  0.00000000000E+00  0.89244351390E+03  0.11075564861E+04  0.65591611079E+03 0.  0.
         13    1    3    3    0    0  0.90138460571E+02 -0.22568499064E+03  0.74362381521E+02  0.25414252076E+03  0.00000000000E+00 0. -1.
          4    1    3    3  501    0 -0.90138460571E+02  0.22568499064E+03  0.81808113238E+03  0.85341396534E+03  0.00000000000E+00 0. -1.
<mgrwt>
<rscale>  0 0.65591611E+03</rscale>
<asrwt>0</asrwt>
<pdfrwt beam="1">0</pdfrwt>
<pdfrwt beam="2">  1        2 0.39111532E+00 0.65591611E+03</pdfrwt>
<totfact> 0.42972759E+00</totfact>
</mgrwt>
</event>
<event>
 5    1  0.2349912E-004  0.6504431E+03  0.7818608E-02  0.9805948E-01
         13   -1    0    0    0    0  0.00000000000E+00  0.00000000000E+00  0.10000000000E+04  0.10000000000E+04  0.00000000000E+00 0. -1.
          2   -1    0    0  501    0 -0.00000000000E+00 -0.00000000000E+00 -0.10576906922E+03  0.10576906922E+03  0.00000000000E+00 0. -1.
    9000006    2    1    2  501    0  0.00000000000E+00  0.00000000000E+00  0.89423093078E+03  0.11057690692E+04  0.65044313886E+03 0.  0.
         13    1    3    3    0    0  0.16393013253E+03  0.56567458446E+02 -0.20610912416E+02  0.17463612288E+03  0.00000000000E+00 0. -1.
          4    1    3    3  501    0 -0.16393013253E+03 -0.56567458446E+02  0.91484184319E+03  0.93113294634E+03  0.00000000000E+00 0. -1.
<mgrwt>
<rscale>  0 0.65044314E+03</rscale>
<asrwt>0</asrwt>
<pdfrwt beam="1">0</pdfrwt>
<pdfrwt beam="2">  1        2 0.38461561E+00 0.65044314E+03</pdfrwt>
<totfact> 0.45447767E+00</totfact>
</mgrwt>
</event>
<event>
 5    1  0.2349912E-004  0.6548931E+03  0.7818608E-02  0.9797641E-01
         13   -1    0    0    0    0  0.00000000000E+00  0.00000000000E+00  0.10000000000E+04  0.10000000000E+04  0.00000000000E+00 0. -1.
          2   -1    0    0  501    0 -0.00000000000E+00 -0.00000000000E+00 -0.10722125135E+03  0.10722125135E+03  0.00000000000E+00 0. -1.
    9000006    2    1    2  501    0  0.00000000000E+00  0.00000000000E+00  0.89277874865E+03  0.11072212514E+04  0.65489312518E+03 0.  0.
         13    1    3    3    0    0  0.29670807256E+03  0.97651331204E+02  0.28030725434E+03  0.41969467431E+03  0.00000000000E+00 0. -1.
          4    1    3    3  501    0 -0.29670807256E+03 -0.97651331204E+02  0.61247149431E+03  0.68752657705E+03  0.00000000000E+00 0. -1.
<mgrwt>
<rscale>  0 0.65489313E+03</rscale>
<asrwt>0</asrwt>
<pdfrwt beam="1">0</pdfrwt>
<pdfrwt beam="2">  1        2 0.38989628E+00 0.65489313E+03</pdfrwt>
<totfact> 0.43427447E+00</totfact>
</mgrwt>
</event>
<event>
 5    1  0.2349912E-004  0.6619517E+03  0.7818608E-02  0.9784608E-01
         13   -1    0    0    0    0  0.00000000000E+00  0.00000000000E+00  0.10000000000E+04  0.10000000000E+04  0.00000000000E+00 0. -1.
          2   -1    0    0  501    0 -0.00000000000E+00 -0.00000000000E+00 -0.10954501256E+03  0.10954501256E+03  0.00000000000E+00 0. -1.
    9000006    2    1    2  501    0  0.00000000000E+00  0.00000000000E+00  0.89045498744E+03  0.11095450126E+04  0.66195169782E+03 0.  0.
         13    1    3    3    0    0 -0.70268006792E+02  0.44707862628E+02  0.98214870708E+03  0.98567361158E+03  0.00000000000E+00 0. -1.
          4    1    3    3  501    0  0.70268006792E+02 -0.44707862628E+02 -0.91693719637E+02  0.12387140098E+03  0.00000000000E+00 0. -1.
<mgrwt>
<rscale>  0 0.66195170E+03</rscale>
<asrwt>0</asrwt>
<pdfrwt beam="1">0</pdfrwt>
<pdfrwt beam="2">  1        2 0.39834634E+00 0.66195170E+03</pdfrwt>
<totfact> 0.40362958E+00</totfact>
</mgrwt>
</event>
<event>
 5    1  0.2349912E-004  0.5667931E+03  0.7818608E-02  0.9976800E-01
         13   -1    0    0    0    0  0.00000000000E+00  0.00000000000E+00  0.10000000000E+04  0.10000000000E+04  0.00000000000E+00 0. -1.
          2   -1    0    0  501    0 -0.00000000000E+00 -0.00000000000E+00 -0.80313601751E+02  0.80313601751E+02  0.00000000000E+00 0. -1.
    9000006    2    1    2  501    0  0.00000000000E+00  0.00000000000E+00  0.91968639825E+03  0.10803136018E+04  0.56679309012E+03 0.  0.
         13    1    3    3    0    0 -0.11060215385E+03  0.13026886583E+03  0.89074825036E+03  0.90699242520E+03  0.00000000000E+00 0. -1.
          4    1    3    3  501    0  0.11060215385E+03 -0.13026886583E+03  0.28938147886E+02  0.17332117655E+03  0.00000000000E+00 0. -1.
<mgrwt>
<rscale>  0 0.56679309E+03</rscale>
<asrwt>0</asrwt>
<pdfrwt beam="1">0</pdfrwt>
<pdfrwt beam="2">  1        2 0.29205008E+00 0.56679309E+03</pdfrwt>
<totfact> 0.98573309E+00</totfact>
</mgrwt>
</event>
<event>
 5    1  0.2349912E-004  0.6044193E+03  0.7818608E-02  0.9896280E-01
         13   -1    0    0    0    0  0.00000000000E+00  0.00000000000E+00  0.10000000000E+04  0.10000000000E+04  0.00000000000E+00 0. -1.
          2   -1    0    0  501    0 -0.00000000000E+00 -0.00000000000E+00 -0.91330675749E+02  0.91330675749E+02  0.00000000000E+00 0. -1.
    9000006    2    1    2  501    0  0.00000000000E+00  0.00000000000E+00  0.90866932425E+03  0.10913306757E+04  0.60441931057E+03 0.  0.
         13    1    3    3    0    0  0.56898048351E+02 -0.97388134896E+02 -0.51902150094E+02  0.12415985627E+03  0.00000000000E+00 0. -1.
          2    1    3    3  501    0 -0.56898048351E+02  0.97388134896E+02  0.96057147435E+03  0.96717081948E+03  0.00000000000E+00 0. -1.
<mgrwt>
<rscale>  0 0.60441931E+03</rscale>
<asrwt>0</asrwt>
<pdfrwt beam="1">0</pdfrwt>
<pdfrwt beam="2">  1        2 0.33211225E+00 0.60441931E+03</pdfrwt>
<totfact> 0.70789601E+00</totfact>
</mgrwt>
</event>
<event>
 5    1  0.2349912E-004  0.6522793E+03  0.7818608E-02  0.9802512E-01
         13   -1    0    0    0    0  0.00000000000E+00  0.00000000000E+00  0.10000000000E+04  0.10000000000E+04  0.00000000000E+00 0. -1.
          2   -1    0    0  501    0 -0.00000000000E+00 -0.00000000000E+00 -0.10636705744E+03  0.10636705744E+03  0.00000000000E+00 0. -1.
    9000006    2    1    2  501    0  0.00000000000E+00  0.00000000000E+00  0.89363294256E+03  0.11063670574E+04  0.65227925751E+03 0.  0.
         13    1    3    3    0    0 -0.23597201961E+03  0.22141349617E+03  0.37770303313E+03  0.49735933847E+03  0.00000000000E+00 0. -1.
          4    1    3    3  501    0  0.23597201961E+03 -0.22141349617E+03  0.51592990943E+03  0.60900771897E+03  0.00000000000E+00 0. -1.
<mgrwt>
<rscale>  0 0.65227926E+03</rscale>
<asrwt>0</asrwt>
<pdfrwt beam="1">0</pdfrwt>
<pdfrwt beam="2">  1        2 0.38679012E+00 0.65227926E+03</pdfrwt>
<totfact> 0.44605743E+00</totfact>
</mgrwt>
</event>
<event>
 5    1  0.2349912E-004  0.6519410E+03  0.7818608E-02  0.9803144E-01
         13   -1    0    0    0    0  0.00000000000E+00  0.00000000000E+00  0.10000000000E+04  0.10000000000E+04  0.00000000000E+00 0. -1.
          2   -1    0    0  501    0 -0.00000000000E+00 -0.00000000000E+00 -0.10625675823E+03  0.10625675823E+03  0.00000000000E+00 0. -1.
    9000006    2    1    2  501    0  0.00000000000E+00  0.00000000000E+00  0.89374324177E+03  0.11062567582E+04  0.65194097349E+03 0.  0.
         13    1    3    3    0    0 -0.20560198969E+03  0.56978587596E+02  0.28677447532E+02  0.21526990874E+03  0.00000000000E+00 0. -1.
          4    1    3    3  501    0  0.20560198969E+03 -0.56978587596E+02  0.86506579424E+03  0.89098684949E+03  0.00000000000E+00 0. -1.
<mgrwt>
<rscale>  0 0.65194097E+03</rscale>
<asrwt>0</asrwt>
<pdfrwt beam="1">0</pdfrwt>
<pdfrwt beam="2">  1        2 0.38638903E+00 0.65194097E+03</pdfrwt>
<totfact> 0.44759983E+00</totfact>
</mgrwt>
</event>
<event>
 5    1  0.2349912E-004  0.6546711E+03  0.7818608E-02  0.9798054E-01
         13   -1    0    0    0    0  0.00000000000E+00  0.00000000000E+00  0.10000000000E+04  0.10000000000E+04  0.00000000000E+00 0. -1.
          2   -1    0    0  501    0 -0.00000000000E+00 -0.00000000000E+00 -0.10714855079E+03  0.10714855079E+03  0.00000000000E+00 0. -1.
    9000006    2    1    2  501    0  0.00000000000E+00  0.00000000000E+00  0.89285144921E+03  0.11071485508E+04  0.65467106486E+03 0.  0.
         13    1    3    3    0    0  0.21999428581E+03  0.21501029455E+03  0.25718555623E+03  0.40096299440E+03  0.00000000000E+00 0. -1.
          2    1    3    3  501    0 -0.21999428581E+03 -0.21501029455E+03  0.63566589298E+03  0.70618555639E+03  0.00000000000E+00 0. -1.
<mgrwt>
<rscale>  0 0.65467106E+03</rscale>
<asrwt>0</asrwt>
<pdfrwt beam="1">0</pdfrwt>
<pdfrwt beam="2">  1        2 0.38963192E+00 0.65467106E+03</pdfrwt>
<totfact> 0.43526624E+00</totfact>
</mgrwt>
</event>
<event>
 5    1  0.2349912E-004  0.6358458E+03  0.7818608E-02  0.9833707E-01
         13   -1    0    0    0    0  0.00000000000E+00  0.00000000000E+00  0.10000000000E+04  0.10000000000E+04  0.00000000000E+00 0. -1.
          2   -1    0    0  501    0 -0.00000000000E+00 -0.00000000000E+00 -0.10107498141E+03  0.10107498141E+03  0.00000000000E+00 0. -1.
    9000006    2    1    2  501    0  0.00000000000E+00  0.00000000000E+00  0.89892501859E+03  0.11010749814E+04  0.63584583481E+03 0.  0.
         13    1    3    3    0    0 -0.16384402616E+03  0.26741206202E+03  0.53979038574E+03  0.62428177641E+03  0.00000000000E+00 0. -1.
          4    1    3    3  501    0  0.16384402616E+03 -0.26741206202E+03  0.35913463285E+03  0.47679320500E+03  0.00000000000E+00 0. -1.
<mgrwt>
<rscale>  0 0.63584583E+03</rscale>
<asrwt>0</asrwt>
<pdfrwt beam="1">0</pdfrwt>
<pdfrwt beam="2">  1        2 0.36754616E+00 0.63584583E+03</pdfrwt>
<totfact> 0.52577571E+00</totfact>
</mgrwt>
</event>
<event>
 5    1  0.2349912E-004  0.6144755E+03  0.7818608E-02  0.9875821E-01
         13   -1    0    0    0    0  0.00000000000E+00  0.00000000000E+00  0.10000000000E+04  0.10000000000E+04  0.00000000000E+00 0. -1.
          2   -1    0    0  501    0 -0.00000000000E+00 -0.00000000000E+00 -0.94395033488E+02  0.94395033488E+02  0.00000000000E+00 0. -1.
    9000006    2    1    2  501    0  0.00000000000E+00  0.00000000000E+00  0.90560496651E+03  0.10943950335E+04  0.61447549500E+03 0.  0.
         13    1    3    3    0    0 -0.22180840490E+03  0.20439944726E+03  0.55691133282E+03  0.63334693111E+03  0.00000000000E+00 0. -1.
          2    1    3    3  501    0  0.22180840490E+03 -0.20439944726E+03  0.34869363369E+03  0.46104810238E+03  0.00000000000E+00 0. -1.
<mgrwt>
<rscale>  0 0.61447549E+03</rscale>
<asrwt>0</asrwt>
<pdfrwt beam="1">0</pdfrwt>
<pdfrwt beam="2">  1        2 0.34325539E+00 0.61447549E+03</pdfrwt>
<totfact> 0.64509151E+00</totfact>
</mgrwt>
</event>
<event>
 5    1  0.2349912E-004  0.6534041E+03  0.7818608E-02  0.9800412E-01
         13   -1    0    0    0    0  0.00000000000E+00  0.00000000000E+00  0.10000000000E+04  0.10000000000E+04  0.00000000000E+00 0. -1.
          2   -1    0    0  501    0 -0.00000000000E+00 -0.00000000000E+00 -0.10673423836E+03  0.10673423836E+03  0.00000000000E+00 0. -1.
    9000006    2    1    2  501    0  0.00000000000E+00  0.00000000000E+00  0.89326576164E+03  0.11067342384E+04  0.65340412720E+03 0.  0.
         13    1    3    3    0    0 -0.13150040868E+03 -0.14693570495E+03  0.88783957519E+03  0.90947323773E+03  0.00000000000E+00 0. -1.
          2    1    3    3  501    0  0.13150040868E+03  0.14693570495E+03  0.54261864498E+01  0.19726100063E+03  0.00000000000E+00 0. -1.
<mgrwt>
<rscale>  0 0.65340413E+03</rscale>
<asrwt>0</asrwt>
<pdfrwt beam="1">0</pdfrwt>
<pdfrwt beam="2">  1        2 0.38812532E+00 0.65340413E+03</pdfrwt>
<totfact> 0.44095745E+00</totfact>
</mgrwt>
</event>
<event>
 5    1  0.2349912E-004  0.5930134E+03  0.7818608E-02  0.9920008E-01
         13   -1    0    0    0    0  0.00000000000E+00  0.00000000000E+00  0.10000000000E+04  0.10000000000E+04  0.00000000000E+00 0. -1.
          2   -1    0    0  501    0 -0.00000000000E+00 -0.00000000000E+00 -0.87916209911E+02  0.87916209911E+02  0.00000000000E+00 0. -1.
    9000006    2    1    2  501    0  0.00000000000E+00  0.00000000000E+00  0.91208379009E+03  0.10879162099E+04  0.59301335537E+03 0.  0.
         13    1    3    3    0    0 -0.21795719376E+03  0.19624582948E+03  0.37610816145E+03  0.47694351134E+03  0.00000000000E+00 0. -1.
          4    1    3    3  501    0  0.21795719376E+03 -0.19624582948E+03  0.53597562864E+03  0.61097269857E+03  0.00000000000E+00 0. -1.
<mgrwt>
<rscale>  0 0.59301336E+03</rscale>
<asrwt>0</asrwt>
<pdfrwt beam="1">0</pdfrwt>
<pdfrwt beam="2">  1        2 0.31969598E+00 0.59301336E+03</pdfrwt>
<totfact> 0.78470053E+00</totfact>
</mgrwt>
</event>
<event>
 5    1  0.2349912E-004  0.6532381E+03  0.7818608E-02  0.9800722E-01
         13   -1    0    0    0    0  0.00000000000E+00  0.00000000000E+00  0.10000000000E+04  0.10000000000E+04  0.00000000000E+00 0. -1.
          2   -1    0    0  501    0 -0.00000000000E+00 -0.00000000000E+00 -0.10668001942E+03  0.10668001942E+03  0.00000000000E+00 0. -1.
    9000006    2    1    2  501    0  0.00000000000E+00  0.00000000000E+00  0.89331998058E+03  0.11066800194E+04  0.65323814776E+03 0.  0.
         13    1    3    3    0    0 -0.18872608951E+03  0.25446018014E+03  0.58126189369E+03  0.66199162321E+03  0.00000000000E+00 0. -1.
          4    1    3    3  501    0  0.18872608951E+03 -0.25446018014E+03  0.31205808689E+03  0.44468839622E+03  0.00000000000E+00 0. -1.
<mgrwt>
<rscale>  0 0.65323815E+03</rscale>
<asrwt>0</asrwt>
<pdfrwt beam="1">0</pdfrwt>
<pdfrwt beam="2">  1        2 0.38792816E+00 0.65323815E+03</pdfrwt>
<totfact> 0.44170719E+00</totfact>
</mgrwt>
</event>
<event>
 5    1  0.2349912E-004  0.7779632E+03  0.7818608E-02  0.9592474E-01
         13   -1    0    0    0    0  0.00000000000E+00  0.00000000000E+00  0.10000000000E+04  0.10000000000E+04  0.00000000000E+00 0. -1.
          2   -1    0    0  501    0 -0.00000000000E+00 -0.00000000000E+00 -0.15130670037E+03  0.15130670037E+03  0.00000000000E+00 0. -1.
    9000006    2    1    2  501    0  0.00000000000E+00  0.00000000000E+00  0.84869329963E+03  0.11513067004E+04  0.77796323916E+03 0.  0.
         13    1    3    3    0    0  0.69150050657E+01  0.37458870920E+03  0.57915127197E+03  0.68976859466E+03  0.00000000000E+00 0. -1.
          2    1    3    3  501    0 -0.69150050657E+01 -0.37458870920E+03  0.26954202766E+03  0.46153810571E+03  0.00000000000E+00 0. -1.
<mgrwt>
<rscale>  0 0.77796324E+03</rscale>
<asrwt>0</asrwt>
<pdfrwt beam="1">0</pdfrwt>
<pdfrwt beam="2">  1        2 0.55020734E+00 0.77796324E+03</pdfrwt>
<totfact> 0.95413727E-01</totfact>
</mgrwt>
</event>
<event>
 5    1  0.2349912E-004  0.6359832E+03  0.7818608E-02  0.9833442E-01
         13   -1    0    0    0    0  0.00000000000E+00  0.00000000000E+00  0.10000000000E+04  0.10000000000E+04  0.00000000000E+00 0. -1.
          2   -1    0    0  501    0 -0.00000000000E+00 -0.00000000000E+00 -0.10111866053E+03  0.10111866053E+03  0.00000000000E+00 0. -1.
    9000006    2    1    2  501    0  0.00000000000E+00  0.00000000000E+00  0.89888133947E+03  0.11011186605E+04  0.63598320898E+03 0.  0.
         13    1    3    3    0    0 -0.24888807383E+03  0.15008357039E+02  0.10775102726E+03  0.27162622839E+03  0.00000000000E+00 0. -1.
          2    1    3    3  501    0  0.24888807383E+03 -0.15008357039E+02  0.79113031221E+03  0.82949243214E+03  0.00000000000E+00 0. -1.
<mgrwt>
<rscale>  0 0.63598321E+03</rscale>
<asrwt>0</asrwt>
<pdfrwt beam="1">0</pdfrwt>
<pdfrwt beam="2">  1        2 0.36770500E+00 0.63598321E+03</pdfrwt>
<totfact> 0.52506759E+00</totfact>
</mgrwt>
</event>
<event>
 5    1  0.2349912E-004  0.6528661E+03  0.7818608E-02  0.9801416E-01
         13   -1    0    0    0    0  0.00000000000E+00  0.00000000000E+00  0.10000000000E+04  0.10000000000E+04  0.00000000000E+00 0. -1.
          2   -1    0    0  501    0 -0.00000000000E+00 -0.00000000000E+00 -0.10655854599E+03  0.10655854599E+03  0.00000000000E+00 0. -1.
    9000006    2    1    2  501    0  0.00000000000E+00  0.00000000000E+00  0.89344145401E+03  0.11065585460E+04  0.65286613021E+03 0.  0.
         13    1    3    3    0    0 -0.32244993155E+03 -0.49253551032E+02  0.42537037741E+03  0.53604088335E+03  0.00000000000E+00 0. -1.
          4    1    3    3  501    0  0.32244993155E+03  0.49253551032E+02  0.46807107660E+03  0.57051766264E+03  0.00000000000E+00 0. -1.
<mgrwt>
<rscale>  0 0.65286613E+03</rscale>
<asrwt>0</asrwt>
<pdfrwt beam="1">0</pdfrwt>
<pdfrwt beam="2">  1        2 0.38748644E+00 0.65286613E+03</pdfrwt>
<totfact> 0.44339112E+00</totfact>
</mgrwt>
</event>
<event>
 5    1  0.2349912E-004  0.6461798E+03  0.7818608E-02  0.9813974E-01
         13   -1    0    0    0    0  0.00000000000E+00  0.00000000000E+00  0.10000000000E+04  0.10000000000E+04  0.00000000000E+00 0. -1.
          2   -1    0    0  501    0 -0.00000000000E+00 -0.00000000000E+00 -0.10438707788E+03  0.10438707788E+03  0.00000000000E+00 0. -1.
    9000006    2    1    2  501    0  0.00000000000E+00  0.00000000000E+00  0.89561292212E+03  0.11043870779E+04  0.64617978268E+03 0.  0.
         13    1    3    3    0    0  0.13302063810E+03  0.21670674161E+03  0.78847456515E+03  0.82846149091E+03  0.00000000000E+00 0. -1.
          2    1    3    3  501    0 -0.13302063810E+03 -0.21670674161E+03  0.10713835696E+03  0.27592558698E+03  0.00000000000E+00 0. -1.
<mgrwt>
<rscale>  0 0.64617978E+03</rscale>
<asrwt>0</asrwt>
<pdfrwt beam="1">0</pdfrwt>
<pdfrwt beam="2">  1        2 0.37959017E+00 0.64617978E+03</pdfrwt>
<totfact> 0.47449212E+00</totfact>
</mgrwt>
</event>
<event>
 5    1  0.2349912E-004  0.6563390E+03  0.7818608E-02  0.9794957E-01
         13   -1    0    0    0    0  0.00000000000E+00  0.00000000000E+00  0.10000000000E+04  0.10000000000E+04  0.00000000000E+00 0. -1.
          2   -1    0    0  501    0 -0.00000000000E+00 -0.00000000000E+00 -0.10769522841E+03  0.10769522841E+03  0.00000000000E+00 0. -1.
    9000006    2    1    2  501    0  0.00000000000E+00  0.00000000000E+00  0.89230477159E+03  0.11076952284E+04  0.65633902342E+03 0.  0.
         13    1    3    3    0    0  0.26774989496E+03  0.95635021772E+02  0.16956121658E+03  0.33103937803E+03  0.00000000000E+00 0. -1.
          4    1    3    3  501    0 -0.26774989496E+03 -0.95635021772E+02  0.72274355500E+03  0.77665585038E+03  0.00000000000E+00 0. -1.
<mgrwt>
<rscale>  0 0.65633902E+03</rscale>
<asrwt>0</asrwt>
<pdfrwt beam="1">0</pdfrwt>
<pdfrwt beam="2">  1        2 0.39161984E+00 0.65633902E+03</pdfrwt>
<totfact> 0.42785840E+00</totfact>
</mgrwt>
</event>
<event>
 5    1  0.2349912E-004  0.6620223E+03  0.7818608E-02  0.9784478E-01
         13   -1    0    0    0    0  0.00000000000E+00  0.00000000000E+00  0.10000000000E+04  0.10000000000E+04  0.00000000000E+00 0. -1.
          2   -1    0    0  501    0 -0.00000000000E+00 -0.00000000000E+00 -0.10956836781E+03  0.10956836781E+03  0.00000000000E+00 0. -1.
    9000006    2    1    2  501    0  0.00000000000E+00  0.00000000000E+00  0.89043163219E+03  0.11095683678E+04  0.66202225887E+03 0.  0.
         13    1    3    3    0    0 -0.23969433165E+03 -0.12497772261E+03  0.12503042306E+03  0.29783453538E+03  0.00000000000E+00 0. -1.
          4    1    3    3  501    0  0.23969433165E+03  0.12497772261E+03  0.76540120912E+03  0.81173383243E+03  0.00000000000E+00 0. -1.
<mgrwt>
<rscale>  0 0.66202226E+03</rscale>
<asrwt>0</asrwt>
<pdfrwt beam="1">0</pdfrwt>
<pdfrwt beam="2">  1        2 0.39843127E+00 0.66202226E+03</pdfrwt>
<totfact> 0.40333174E+00</totfact>
</mgrwt>
</event>
<event>
 5    1  0.2349912E-004  0.6398772E+03  0.7818608E-02  0.9825961E-01
         13   -1    0    0    0    0  0.00000000000E+00  0.00000000000E+00  0.10000000000E+04  0.10000000000E+04  0.00000000000E+00 0. -1.
          2   -1    0    0  501    0 -0.00000000000E+00 -0.00000000000E+00 -0.10236071017E+03  0.10236071017E+03  0.00000000000E+00 0. -1.
    9000006    2    1    2  501    0  0.00000000000E+00  0.00000000000E+00  0.89763928983E+03  0.11023607102E+04  0.63987720749E+03 0.  0.
         13    1    3    3    0    0 -0.37383587634E+02  0.53623137731E+02 -0.90733765262E+02  0.11182839390E+03  0.00000000000E+00 0. -1.
          4    1    3    3  501    0  0.37383587634E+02 -0.53623137731E+02  0.98837305509E+03  0.99053231626E+03  0.00000000000E+00 0. -1.
<mgrwt>
<rscale>  0 0.63987721E+03</rscale>
<asrwt>0</asrwt>
<pdfrwt beam="1">0</pdfrwt>
<pdfrwt beam="2">  1        2 0.37222155E+00 0.63987721E+03</pdfrwt>
<totfact> 0.50529390E+00</totfact>
</mgrwt>
</event>
<event>
 5    1  0.2349912E-004  0.6441471E+03  0.7818608E-02  0.9817824E-01
         13   -1    0    0    0    0  0.00000000000E+00  0.00000000000E+00  0.10000000000E+04  0.10000000000E+04  0.00000000000E+00 0. -1.
          2   -1    0    0  501    0 -0.00000000000E+00 -0.00000000000E+00 -0.10373138570E+03  0.10373138570E+03  0.00000000000E+00 0. -1.
    9000006    2    1    2  501    0  0.00000000000E+00  0.00000000000E+00  0.89626861430E+03  0.11037313857E+04  0.64414714374E+03 0.  0.
         13    1    3    3    0    0 -0.14068079842E+03  0.32796552538E+02  0.94137971233E+03  0.95239826947E+03  0.00000000000E+00 0. -1.
          2    1    3    3  501    0  0.14068079842E+03 -0.32796552538E+02 -0.45111098025E+02  0.15133311623E+03  0.00000000000E+00 0. -1.
<mgrwt>
<rscale>  0 0.64414714E+03</rscale>
<asrwt>0</asrwt>
<pdfrwt beam="1">0</pdfrwt>
<pdfrwt beam="2">  1        2 0.37720583E+00 0.64414714E+03</pdfrwt>
<totfact> 0.48426570E+00</totfact>
</mgrwt>
</event>
<event>
 5    1  0.2349912E-004  0.6357449E+03  0.7818608E-02  0.9833902E-01
         13   -1    0    0    0    0  0.00000000000E+00  0.00000000000E+00  0.10000000000E+04  0.10000000000E+04  0.00000000000E+00 0. -1.
          2   -1    0    0  501    0 -0.00000000000E+00 -0.00000000000E+00 -0.10104289375E+03  0.10104289375E+03  0.00000000000E+00 0. -1.
    9000006    2    1    2  501    0  0.00000000000E+00  0.00000000000E+00  0.89895710625E+03  0.11010428937E+04  0.63574489774E+03 0.  0.
         13    1    3    3    0    0 -0.51004817198E+02  0.69258268420E+02  0.97946277909E+03  0.98323218761E+03  0.00000000000E+00 0. -1.
          4    1    3    3  501    0  0.51004817198E+02 -0.69258268420E+02 -0.80505672842E+02  0.11781070614E+03  0.00000000000E+00 0. -1.
<mgrwt>
<rscale>  0 0.63574490E+03</rscale>
<asrwt>0</asrwt>
<pdfrwt beam="1">0</pdfrwt>
<pdfrwt beam="2">  1        2 0.36742948E+00 0.63574490E+03</pdfrwt>
<totfact> 0.52629648E+00</totfact>
</mgrwt>
</event>
<event>
 5    1  0.2349912E-004  0.6375236E+03  0.7818608E-02  0.9830476E-01
         13   -1    0    0    0    0  0.00000000000E+00  0.00000000000E+00  0.10000000000E+04  0.10000000000E+04  0.00000000000E+00 0. -1.
          2   -1    0    0  501    0 -0.00000000000E+00 -0.00000000000E+00 -0.10160909266E+03  0.10160909266E+03  0.00000000000E+00 0. -1.
    9000006    2    1    2  501    0  0.00000000000E+00  0.00000000000E+00  0.89839090734E+03  0.11016090927E+04  0.63752362361E+03 0.  0.
         13    1    3    3    0    0 -0.18522063307E+03  0.17650642890E+03  0.12066721336E+03  0.28288120958E+03  0.00000000000E+00 0. -1.
          4    1    3    3  501    0  0.18522063307E+03 -0.17650642890E+03  0.77772369398E+03  0.81872788308E+03  0.00000000000E+00 0. -1.
<mgrwt>
<rscale>  0 0.63752362E+03</rscale>
<asrwt>0</asrwt>
<pdfrwt beam="1">0</pdfrwt>
<pdfrwt beam="2">  1        2 0.36948839E+00 0.63752362E+03</pdfrwt>
<totfact> 0.51717658E+00</totfact>
</mgrwt>
</event>
<event>
 5    1  0.2349912E-004  0.6505910E+03  0.7818608E-02  0.9805671E-01
         13   -1    0    0    0    0  0.00000000000E+00  0.00000000000E+00  0.10000000000E+04  0.10000000000E+04  0.00000000000E+00 0. -1.
          2   -1    0    0  501    0 -0.00000000000E+00 -0.00000000000E+00 -0.10581715222E+03  0.10581715222E+03  0.00000000000E+00 0. -1.
    9000006    2    1    2  501    0  0.00000000000E+00  0.00000000000E+00  0.89418284778E+03  0.11058171522E+04  0.65059096895E+03 0.  0.
         13    1    3    3    0    0 -0.28305115267E+03 -0.84779684384E+02  0.21583314065E+03  0.36590913424E+03  0.00000000000E+00 0. -1.
          2    1    3    3  501    0  0.28305115267E+03  0.84779684384E+02  0.67834970713E+03  0.73990801798E+03  0.00000000000E+00 0. -1.
<mgrwt>
<rscale>  0 0.65059097E+03</rscale>
<asrwt>0</asrwt>
<pdfrwt beam="1">0</pdfrwt>
<pdfrwt beam="2">  1        2 0.38479046E+00 0.65059097E+03</pdfrwt>
<totfact> 0.45379533E+00</totfact>
</mgrwt>
</event>
<event>
 5    1  0.2349912E-004  0.6429623E+03  0.7818608E-02  0.9820075E-01
         13   -1    0    0    0    0  0.00000000000E+00  0.00000000000E+00  0.10000000000E+04  0.10000000000E+04  0.00000000000E+00 0. -1.
          2   -1    0    0  501    0 -0.00000000000E+00 -0.00000000000E+00 -0.10335013075E+03  0.10335013075E+03  0.00000000000E+00 0. -1.
    9000006    2    1    2  501    0  0.00000000000E+00  0.00000000000E+00  0.89664986925E+03  0.11033501307E+04  0.64296230293E+03 0.  0.
         13    1    3    3    0    0 -0.31409437748E+03 -0.38009807971E+02  0.54615597868E+03  0.63117856151E+03  0.00000000000E+00 0. -1.
          4    1    3    3  501    0  0.31409437748E+03  0.38009807971E+02  0.35049389057E+03  0.47217156924E+03  0.00000000000E+00 0. -1.
<mgrwt>
<rscale>  0 0.64296230E+03</rscale>
<asrwt>0</asrwt>
<pdfrwt beam="1">0</pdfrwt>
<pdfrwt beam="2">  1        2 0.37581945E+00 0.64296230E+03</pdfrwt>
<totfact> 0.49003263E+00</totfact>
</mgrwt>
</event>
<event>
 5    1  0.2349912E-004  0.6481733E+03  0.7818608E-02  0.9810213E-01
         13   -1    0    0    0    0  0.00000000000E+00  0.00000000000E+00  0.10000000000E+04  0.10000000000E+04  0.00000000000E+00 0. -1.
          2   -1    0    0  501    0 -0.00000000000E+00 -0.00000000000E+00 -0.10503215160E+03  0.10503215160E+03  0.00000000000E+00 0. -1.
    9000006    2    1    2  501    0  0.00000000000E+00  0.00000000000E+00  0.89496784840E+03  0.11050321516E+04  0.64817328423E+03 0.  0.
         13    1    3    3    0    0 -0.11130625729E+03 -0.17998696638E+03  0.29023643490E+02  0.21360422013E+03  0.00000000000E+00 0. -1.
          4    1    3    3  501    0  0.11130625729E+03  0.17998696638E+03  0.86594420491E+03  0.89142793147E+03  0.00000000000E+00 0. -1.
<mgrwt>
<rscale>  0 0.64817328E+03</rscale>
<asrwt>0</asrwt>
<pdfrwt beam="1">0</pdfrwt>
<pdfrwt beam="2">  1        2 0.38193590E+00 0.64817328E+03</pdfrwt>
<totfact> 0.46505238E+00</totfact>
</mgrwt>
</event>
<event>
 5    1  0.2349912E-004  0.6547239E+03  0.7818608E-02  0.9797955E-01
         13   -1    0    0    0    0  0.00000000000E+00  0.00000000000E+00  0.10000000000E+04  0.10000000000E+04  0.00000000000E+00 0. -1.
          2   -1    0    0  501    0 -0.00000000000E+00 -0.00000000000E+00 -0.10716584022E+03  0.10716584022E+03  0.00000000000E+00 0. -1.
    9000006    2    1    2  501    0  0.00000000000E+00  0.00000000000E+00  0.89283415978E+03  0.11071658402E+04  0.65472388141E+03 0.  0.
         13    1    3    3    0    0  0.46316548154E+02 -0.83150415895E+02 -0.83250834346E+02  0.12645123849E+03  0.00000000000E+00 0. -1.
          2    1    3    3  501    0 -0.46316548154E+02  0.83150415895E+02  0.97608499412E+03  0.98071460173E+03  0.00000000000E+00 0. -1.
<mgrwt>
<rscale>  0 0.65472388E+03</rscale>
<asrwt>0</asrwt>
<pdfrwt beam="1">0</pdfrwt>
<pdfrwt beam="2">  1        2 0.38969479E+00 0.65472388E+03</pdfrwt>
<totfact> 0.43503020E+00</totfact>
</mgrwt>
</event>
<event>
 5    1  0.2349912E-004  0.6467488E+03  0.7818608E-02  0.9812899E-01
         13   -1    0    0    0    0  0.00000000000E+00  0.00000000000E+00  0.10000000000E+04  0.10000000000E+04  0.00000000000E+00 0. -1.
          2   -1    0    0  501    0 -0.00000000000E+00 -0.00000000000E+00 -0.10457101226E+03  0.10457101226E+03  0.00000000000E+00 0. -1.
    9000006    2    1    2  501    0  0.00000000000E+00  0.00000000000E+00  0.89542898774E+03  0.11045710123E+04  0.64674882996E+03 0.  0.
         13    1    3    3    0    0 -0.29007416575E+03  0.85716562264E+02  0.25238274210E+03  0.39393831902E+03  0.00000000000E+00 0. -1.
          2    1    3    3  501    0  0.29007416575E+03 -0.85716562264E+02  0.64304624564E+03  0.71063269325E+03  0.00000000000E+00 0. -1.
<mgrwt>
<rscale>  0 0.64674883E+03</rscale>
<asrwt>0</asrwt>
<pdfrwt beam="1">0</pdfrwt>
<pdfrwt beam="2">  1        2 0.38025903E+00 0.64674883E+03</pdfrwt>
<totfact> 0.47178289E+00</totfact>
</mgrwt>
</event>
<event>
 5    1  0.2349912E-004  0.6546316E+03  0.7818608E-02  0.9798127E-01
         13   -1    0    0    0    0  0.00000000000E+00  0.00000000000E+00  0.10000000000E+04  0.10000000000E+04  0.00000000000E+00 0. -1.
          2   -1    0    0  501    0 -0.00000000000E+00 -0.00000000000E+00 -0.10713562866E+03  0.10713562866E+03  0.00000000000E+00 0. -1.
    9000006    2    1    2  501    0  0.00000000000E+00  0.00000000000E+00  0.89286437134E+03  0.11071356287E+04  0.65463158694E+03 0.  0.
         13    1    3    3    0    0  0.14383839140E+02  0.28445684173E+02  0.99736878629E+03  0.99787802242E+03  0.00000000000E+00 0. -1.
          4    1    3    3  501    0 -0.14383839140E+02 -0.28445684173E+02 -0.10450441494E+03  0.10925760623E+03  0.00000000000E+00 0. -1.
<mgrwt>
<rscale>  0 0.65463159E+03</rscale>
<asrwt>0</asrwt>
<pdfrwt beam="1">0</pdfrwt>
<pdfrwt beam="2">  1        2 0.38958493E+00 0.65463159E+03</pdfrwt>
<totfact> 0.43544274E+00</totfact>
</mgrwt>
</event>
<event>
 5    1  0.2349912E-004  0.6311506E+03  0.7818608E-02  0.9842806E-01
         13   -1    0    0    0    0  0.00000000000E+00  0.00000000000E+00  0.10000000000E+04  0.10000000000E+04  0.00000000000E+00 0. -1.
          2   -1    0    0  501    0 -0.00000000000E+00 -0.00000000000E+00 -0.99587755444E+02  0.99587755444E+02  0.00000000000E+00 0. -1.
    9000006    2    1    2  501    0  0.00000000000E+00  0.00000000000E+00  0.90041224456E+03  0.10995877554E+04  0.63115055397E+03 0.  0.
         13    1    3    3    0    0 -0.97394564374E+02  0.26033411133E+03  0.71053588970E+03  0.76296841431E+03  0.00000000000E+00 0. -1.
          4    1    3    3  501    0  0.97394564374E+02 -0.26033411133E+03  0.18987635486E+03  0.33661934113E+03  0.00000000000E+00 0. -1.
<mgrwt>
<rscale>  0 0.63115055E+03</rscale>
<asrwt>0</asrwt>
<pdfrwt beam="1">0</pdfrwt>
<pdfrwt beam="2">  1        2 0.36213806E+00 0.63115055E+03</pdfrwt>
<totfact> 0.55041705E+00</totfact>
</mgrwt>
</event>
<event>
 5    1  0.2349912E-004  0.7259905E+03  0.7818608E-02  0.9673789E-01
         13   -1    0    0    0    0  0.00000000000E+00  0.00000000000E+00  0.10000000000E+04  0.10000000000E+04  0.00000000000E+00 0. -1.
          2   -1    0    0  501    0 -0.00000000000E+00 -0.00000000000E+00 -0.13176553943E+03  0.13176553943E+03  0.00000000000E+00 0. -1.
    9000006    2    1    2  501    0  0.00000000000E+00  0.00000000000E+00  0.86823446057E+03  0.11317655394E+04  0.72599046668E+03 0.  0.
         13    1    3    3    0    0 -0.40295115895E+01 -0.43641416921E+02 -0.12762582346E+03  0.13494132446E+03  0.00000000000E+00 0. -1.
          2    1    3    3  501    0  0.40295115895E+01  0.43641416921E+02  0.99586028403E+03  0.99682421497E+03  0.00000000000E+00 0. -1.
<mgrwt>
<rscale>  0 0.72599047E+03</rscale>
<asrwt>0</asrwt>
<pdfrwt beam="1">0</pdfrwt>
<pdfrwt beam="2">  1        2 0.47914843E+00 0.72599047E+03</pdfrwt>
<totfact> 0.19409557E+00</totfact>
</mgrwt>
</event>
<event>
 5    1  0.2349912E-004  0.6547966E+03  0.7818608E-02  0.9797820E-01
         13   -1    0    0    0    0  0.00000000000E+00  0.00000000000E+00  0.10000000000E+04  0.10000000000E+04  0.00000000000E+00 0. -1.
          2   -1    0    0  501    0 -0.00000000000E+00 -0.00000000000E+00 -0.10718963932E+03  0.10718963932E+03  0.00000000000E+00 0. -1.
    9000006    2    1    2  501    0  0.00000000000E+00  0.00000000000E+00  0.89281036068E+03  0.11071896393E+04  0.65479657703E+03 0.  0.
         13    1    3    3    0    0  0.15879850687E+03  0.24810438071E+03  0.20479768389E+03  0.35876850592E+03  0.00000000000E+00 0. -1.
          4    1    3    3  501    0 -0.15879850687E+03 -0.24810438071E+03  0.68801267679E+03  0.74842113341E+03  0.00000000000E+00 0. -1.
<mgrwt>
<rscale>  0 0.65479658E+03</rscale>
<asrwt>0</asrwt>
<pdfrwt beam="1">0</pdfrwt>
<pdfrwt beam="2">  1        2 0.38978133E+00 0.65479658E+03</pdfrwt>
<totfact> 0.43470546E+00</totfact>
</mgrwt>
</event>
<event>
 5    1  0.2349912E-004  0.6573422E+03  0.7818608E-02  0.9793099E-01
         13   -1    0    0    0    0  0.00000000000E+00  0.00000000000E+00  0.10000000000E+04  0.10000000000E+04  0.00000000000E+00 0. -1.
          2   -1    0    0  501    0 -0.00000000000E+00 -0.00000000000E+00 -0.10802468008E+03  0.10802468008E+03  0.00000000000E+00 0. -1.
    9000006    2    1    2  501    0  0.00000000000E+00  0.00000000000E+00  0.89197531992E+03  0.11080246801E+04  0.65734216381E+03 0.  0.
         13    1    3    3    0    0 -0.21092646874E+03 -0.80833736695E+02  0.43550845410E+02  0.23004509197E+03  0.00000000000E+00 0. -1.
          4    1    3    3  501    0  0.21092646874E+03  0.80833736695E+02  0.84842447451E+03  0.87797958812E+03  0.00000000000E+00 0. -1.
<mgrwt>
<rscale>  0 0.65734216E+03</rscale>
<asrwt>0</asrwt>
<pdfrwt beam="1">0</pdfrwt>
<pdfrwt beam="2">  1        2 0.39281785E+00 0.65734216E+03</pdfrwt>
<totfact> 0.42344929E+00</totfact>
</mgrwt>
</event>
<event>
 5    1  0.2349912E-004  0.6478160E+03  0.7818608E-02  0.9810886E-01
         13   -1    0    0    0    0  0.00000000000E+00  0.00000000000E+00  0.10000000000E+04  0.10000000000E+04  0.00000000000E+00 0. -1.
          2   -1    0    0  501    0 -0.00000000000E+00 -0.00000000000E+00 -0.10491639578E+03  0.10491639578E+03  0.00000000000E+00 0. -1.
    9000006    2    1    2  501    0  0.00000000000E+00  0.00000000000E+00  0.89508360422E+03  0.11049163958E+04  0.64781601024E+03 0.  0.
         13    1    3    3    0    0  0.10494665623E+03 -0.56650270281E+02 -0.66106011592E+02  0.13635636599E+03  0.00000000000E+00 0. -1.
          4    1    3    3  501    0 -0.10494665623E+03  0.56650270281E+02  0.96118961581E+03  0.96856002980E+03  0.00000000000E+00 0. -1.
<mgrwt>
<rscale>  0 0.64781601E+03</rscale>
<asrwt>0</asrwt>
<pdfrwt beam="1">0</pdfrwt>
<pdfrwt beam="2">  1        2 0.38151497E+00 0.64781601E+03</pdfrwt>
<totfact> 0.46673362E+00</totfact>
</mgrwt>
</event>
<event>
 5    1  0.2349912E-004  0.6567731E+03  0.7818608E-02  0.9794152E-01
         13   -1    0    0    0    0  0.00000000000E+00  0.00000000000E+00  0.10000000000E+04  0.10000000000E+04  0.00000000000E+00 0. -1.
          2   -1    0    0  501    0 -0.00000000000E+00 -0.00000000000E+00 -0.10783774020E+03  0.10783774020E+03  0.00000000000E+00 0. -1.
    9000006    2    1    2  501    0  0.00000000000E+00  0.00000000000E+00  0.89216225980E+03  0.11078377402E+04  0.65677314256E+03 0.  0.
         13    1    3    3    0    0 -0.91489152796E+01 -0.13809617311E+02  0.99929478915E+03  0.99943208063E+03  0.00000000000E+00 0. -1.
          4    1    3    3  501    0  0.91489152796E+01  0.13809617311E+02 -0.10713252935E+03  0.10840565956E+03  0.00000000000E+00 0. -1.
<mgrwt>
<rscale>  0 0.65677314E+03</rscale>
<asrwt>0</asrwt>
<pdfrwt beam="1">0</pdfrwt>
<pdfrwt beam="2">  1        2 0.39213806E+00 0.65677314E+03</pdfrwt>
<totfact> 0.42594608E+00</totfact>
</mgrwt>
</event>
<event>
 5    1  0.2349912E-004  0.7844818E+03  0.7818608E-02  0.9582755E-01
         13   -1    0    0    0    0  0.00000000000E+00  0.00000000000E+00  0.10000000000E+04  0.10000000000E+04  0.00000000000E+00 0. -1.
          2   -1    0    0  501    0 -0.00000000000E+00 -0.00000000000E+00 -0.15385293111E+03  0.15385293111E+03  0.00000000000E+00 0. -1.
    9000006    2    1    2  501    0  0.00000000000E+00  0.00000000000E+00  0.84614706889E+03  0.11538529311E+04  0.78448181906E+03 0.  0.
         13    1    3    3    0    0  0.56493009010E+02 -0.38692875891E+03  0.37779612133E+03  0.54372349024E+03  0.00000000000E+00 0. -1.
          4    1    3    3  501    0 -0.56493009010E+02  0.38692875891E+03  0.46835094756E+03  0.61012944087E+03  0.00000000000E+00 0. -1.
<mgrwt>
<rscale>  0 0.78448182E+03</rscale>
<asrwt>0</asrwt>
<pdfrwt beam="1">0</pdfrwt>
<pdfrwt beam="2">  1        2 0.55946638E+00 0.78448182E+03</pdfrwt>
<totfact> 0.86456076E-01</totfact>
</mgrwt>
</event>
<event>
 5    1  0.2349912E-004  0.6489986E+03  0.7818608E-02  0.9808660E-01
         13   -1    0    0    0    0  0.00000000000E+00  0.00000000000E+00  0.10000000000E+04  0.10000000000E+04  0.00000000000E+00 0. -1.
          2   -1    0    0  501    0 -0.00000000000E+00 -0.00000000000E+00 -0.10529978286E+03  0.10529978286E+03  0.00000000000E+00 0. -1.
    9000006    2    1    2  501    0  0.00000000000E+00  0.00000000000E+00  0.89470021714E+03  0.11052997829E+04  0.64899856044E+03 0.  0.
         13    1    3    3    0    0 -0.31102032716E+03 -0.41721540279E+01  0.60481625690E+03  0.68011304603E+03  0.00000000000E+00 0. -1.
          2    1    3    3  501    0  0.31102032716E+03  0.41721540279E+01  0.28988396024E+03  0.42518673683E+03  0.00000000000E+00 0. -1.
<mgrwt>
<rscale>  0 0.64899856E+03</rscale>
<asrwt>0</asrwt>
<pdfrwt beam="1">0</pdfrwt>
<pdfrwt beam="2">  1        2 0.38290911E+00 0.64899856E+03</pdfrwt>
<totfact> 0.46118633E+00</totfact>
</mgrwt>
</event>
<event>
 5    1  0.2349912E-004  0.6142598E+03  0.7818608E-02  0.9876255E-01
         13   -1    0    0    0    0  0.00000000000E+00  0.00000000000E+00  0.10000000000E+04  0.10000000000E+04  0.00000000000E+00 0. -1.
          2   -1    0    0  501    0 -0.00000000000E+00 -0.00000000000E+00 -0.94328760342E+02  0.94328760342E+02  0.00000000000E+00 0. -1.
    9000006    2    1    2  501    0  0.00000000000E+00  0.00000000000E+00  0.90567123966E+03  0.10943287603E+04  0.61425975073E+03 0.  0.
         13    1    3    3    0    0 -0.16315508326E+03 -0.25870498166E+03  0.40305082802E+03  0.50596227003E+03  0.00000000000E+00 0. -1.
          2    1    3    3  501    0  0.16315508326E+03  0.25870498166E+03  0.50262041164E+03  0.58836649031E+03  0.00000000000E+00 0. -1.
<mgrwt>
<rscale>  0 0.61425975E+03</rscale>
<asrwt>0</asrwt>
<pdfrwt beam="1">0</pdfrwt>
<pdfrwt beam="2">  1        2 0.34301440E+00 0.61425975E+03</pdfrwt>
<totfact> 0.64639244E+00</totfact>
</mgrwt>
</event>
<event>
 5    1  0.2349912E-004  0.5388479E+03  0.7818608E-02  0.1004109E+00
         13   -1    0    0    0    0  0.00000000000E+00  0.00000000000E+00  0.10000000000E+04  0.10000000000E+04  0.00000000000E+00 0. -1.
          2   -1    0    0  501    0 -0.00000000000E+00 -0.00000000000E+00 -0.72589265603E+02  0.72589265603E+02  0.00000000000E+00 0. -1.
    9000006    2    1    2  501    0  0.00000000000E+00  0.00000000000E+00  0.92741073440E+03  0.10725892656E+04  0.53884790286E+03 0.  0.
         13    1    3    3    0    0 -0.23181665105E+03  0.13423386931E+03  0.40630459163E+03  0.48666324347E+03  0.00000000000E+00 0. -1.
          4    1    3    3  501    0  0.23181665105E+03 -0.13423386931E+03  0.52110614277E+03  0.58592602213E+03  0.00000000000E+00 0. -1.
<mgrwt>
<rscale>  0 0.53884790E+03</rscale>
<asrwt>0</asrwt>
<pdfrwt beam="1">0</pdfrwt>
<pdfrwt beam="2">  1        2 0.26396152E+00 0.53884790E+03</pdfrwt>
<totfact> 0.12421137E+01</totfact>
</mgrwt>
</event>
<event>
 5    1  0.2349912E-004  0.6552528E+03  0.7818608E-02  0.9796972E-01
         13   -1    0    0    0    0  0.00000000000E+00  0.00000000000E+00  0.10000000000E+04  0.10000000000E+04  0.00000000000E+00 0. -1.
          2   -1    0    0  501    0 -0.00000000000E+00 -0.00000000000E+00 -0.10733904683E+03  0.10733904683E+03  0.00000000000E+00 0. -1.
    9000006    2    1    2  501    0  0.00000000000E+00  0.00000000000E+00  0.89266095317E+03  0.11073390468E+04  0.65525276599E+03 0.  0.
         13    1    3    3    0    0 -0.15869904368E+03  0.32263736178E+02  0.92763086443E+03  0.94166095586E+03  0.00000000000E+00 0. -1.
          2    1    3    3  501    0  0.15869904368E+03 -0.32263736178E+02 -0.34969911266E+02  0.16567809098E+03  0.00000000000E+00 0. -1.
<mgrwt>
<rscale>  0 0.65525277E+03</rscale>
<asrwt>0</asrwt>
<pdfrwt beam="1">0</pdfrwt>
<pdfrwt beam="2">  1        2 0.39032463E+00 0.65525277E+03</pdfrwt>
<totfact> 0.43267185E+00</totfact>
</mgrwt>
</event>
<event>
 5    1  0.2349912E-004  0.6443064E+03  0.7818608E-02  0.9817522E-01
         13   -1    0    0    0    0  0.00000000000E+00  0.00000000000E+00  0.10000000000E+04  0.10000000000E+04  0.00000000000E+00 0. -1.
          2   -1    0    0  501    0 -0.00000000000E+00 -0.00000000000E+00 -0.10378267977E+03  0.10378267977E+03  0.00000000000E+00 0. -1.
    9000006    2    1    2  501    0  0.00000000000E+00  0.00000000000E+00  0.89621732023E+03  0.11037826798E+04  0.64430638602E+03 0.  0.
         13    1    3    3    0    0  0.11110648339E+03  0.29465461348E+02  0.96367301222E+03  0.97050427024E+03  0.00000000000E+00 0. -1.
          2    1    3    3  501    0 -0.11110648339E+03 -0.29465461348E+02 -0.67455691989E+02  0.13327840953E+03  0.00000000000E+00 0. -1.
<mgrwt>
<rscale>  0 0.64430639E+03</rscale>
<asrwt>0</asrwt>
<pdfrwt beam="1">0</pdfrwt>
<pdfrwt beam="2">  1        2 0.37739236E+00 0.64430639E+03</pdfrwt>
<totfact> 0.48349456E+00</totfact>
</mgrwt>
</event>
<event>
 5    1  0.2349912E-004  0.6513629E+03  0.7818608E-02  0.9804225E-01
         13   -1    0    0    0    0  0.00000000000E+00  0.00000000000E+00  0.10000000000E+04  0.10000000000E+04  0.00000000000E+00 0. -1.
          2   -1    0    0  501    0 -0.00000000000E+00 -0.00000000000E+00 -0.10606840832E+03  0.10606840832E+03  0.00000000000E+00 0. -1.
    9000006    2    1    2  501    0  0.00000000000E+00  0.00000000000E+00  0.89393159168E+03  0.11060684083E+04  0.65136290443E+03 0.  0.
         13    1    3    3    0    0 -0.70333225196E+02 -0.26125005566E+03  0.13910160538E+03  0.30421638807E+03  0.00000000000E+00 0. -1.
          2    1    3    3  501    0  0.70333225196E+02  0.26125005566E+03  0.75482998630E+03  0.80185202024E+03  0.00000000000E+00 0. -1.
<mgrwt>
<rscale>  0 0.65136290E+03</rscale>
<asrwt>0</asrwt>
<pdfrwt beam="1">0</pdfrwt>
<pdfrwt beam="2">  1        2 0.38570412E+00 0.65136290E+03</pdfrwt>
<totfact> 0.45024485E+00</totfact>
</mgrwt>
</event>
<event>
 5    1  0.2349912E-004  0.6449272E+03  0.7818608E-02  0.9816345E-01
         13   -1    0    0    0    0  0.00000000000E+00  0.00000000000E+00  0.10000000000E+04  0.10000000000E+04  0.00000000000E+00 0. -1.
          2   -1    0    0  501    0 -0.00000000000E+00 -0.00000000000E+00 -0.10398276977E+03  0.10398276977E+03  0.00000000000E+00 0. -1.
    9000006    2    1    2  501    0  0.00000000000E+00  0.00000000000E+00  0.89601723023E+03  0.11039827698E+04  0.64492718898E+03 0.  0.
         13    1    3    3    0    0  0.32075938475E+03  0.24959119310E+02  0.48524670451E+03  0.58221465524E+03  0.00000000000E+00 0. -1.
          2    1    3    3  501    0 -0.32075938475E+03 -0.24959119310E+02  0.41077052572E+03  0.52176811453E+03  0.00000000000E+00 0. -1.
<mgrwt>
<rscale>  0 0.64492719E+03</rscale>
<asrwt>0</asrwt>
<pdfrwt beam="1">0</pdfrwt>
<pdfrwt beam="2">  1        2 0.37811996E+00 0.64492719E+03</pdfrwt>
<totfact> 0.48049715E+00</totfact>
</mgrwt>
</event>
<event>
 5    1  0.2349912E-004  0.6461769E+03  0.7818608E-02  0.9813979E-01
         13   -1    0    0    0    0  0.00000000000E+00  0.00000000000E+00  0.10000000000E+04  0.10000000000E+04  0.00000000000E+00 0. -1.
          2   -1    0    0  501    0 -0.00000000000E+00 -0.00000000000E+00 -0.10438616163E+03  0.10438616163E+03  0.00000000000E+00 0. -1.
    9000006    2    1    2  501    0  0.00000000000E+00  0.00000000000E+00  0.89561383837E+03  0.11043861616E+04  0.64617694676E+03 0.  0.
         13    1    3    3    0    0  0.10299425513E+03  0.27471656814E+03  0.67906856604E+03  0.73973720117E+03  0.00000000000E+00 0. -1.
          4    1    3    3  501    0 -0.10299425513E+03 -0.27471656814E+03  0.21654527233E+03  0.36464896046E+03  0.00000000000E+00 0. -1.
<mgrwt>
<rscale>  0 0.64617695E+03</rscale>
<asrwt>0</asrwt>
<pdfrwt beam="1">0</pdfrwt>
<pdfrwt beam="2">  1        2 0.37958684E+00 0.64617695E+03</pdfrwt>
<totfact> 0.47450565E+00</totfact>
</mgrwt>
</event>
<event>
 5    1  0.2349912E-004  0.6392467E+03  0.7818608E-02  0.9827169E-01
         13   -1    0    0    0    0  0.00000000000E+00  0.00000000000E+00  0.10000000000E+04  0.10000000000E+04  0.00000000000E+00 0. -1.
          2   -1    0    0  501    0 -0.00000000000E+00 -0.00000000000E+00 -0.10215908929E+03  0.10215908929E+03  0.00000000000E+00 0. -1.
    9000006    2    1    2  501    0  0.00000000000E+00  0.00000000000E+00  0.89784091071E+03  0.11021590893E+04  0.63924671072E+03 0.  0.
         13    1    3    3    0    0  0.24779098398E+03  0.16606496434E+03  0.64686901957E+03  0.71233241721E+03  0.00000000000E+00 0. -1.
          2    1    3    3  501    0 -0.24779098398E+03 -0.16606496434E+03  0.25097189113E+03  0.38982667208E+03  0.00000000000E+00 0. -1.
<mgrwt>
<rscale>  0 0.63924671E+03</rscale>
<asrwt>0</asrwt>
<pdfrwt beam="1">0</pdfrwt>
<pdfrwt beam="2">  1        2 0.37148838E+00 0.63924671E+03</pdfrwt>
<totfact> 0.50845663E+00</totfact>
</mgrwt>
</event>
<event>
 5    1  0.2349912E-004  0.6396682E+03  0.7818608E-02  0.9826362E-01
         13   -1    0    0    0    0  0.00000000000E+00  0.00000000000E+00  0.10000000000E+04  0.10000000000E+04  0.00000000000E+00 0. -1.
          2   -1    0    0  501    0 -0.00000000000E+00 -0.00000000000E+00 -0.10229385983E+03  0.10229385983E+03  0.00000000000E+00 0. -1.
    9000006    2    1    2  501    0  0.00000000000E+00  0.00000000000E+00  0.89770614017E+03  0.11022938598E+04  0.63966822596E+03 0.  0.
         13    1    3    3    0    0  0.20023201375E+03  0.24234912400E+03  0.55033204110E+03  0.63379122169E+03  0.00000000000E+00 0. -1.
          2    1    3    3  501    0 -0.20023201375E+03 -0.24234912400E+03  0.34737409908E+03  0.46850263814E+03  0.00000000000E+00 0. -1.
<mgrwt>
<rscale>  0 0.63966823E+03</rscale>
<asrwt>0</asrwt>
<pdfrwt beam="1">0</pdfrwt>
<pdfrwt beam="2">  1        2 0.37197846E+00 0.63966823E+03</pdfrwt>
<totfact> 0.50634055E+00</totfact>
</mgrwt>
</event>
<event>
 5    1  0.2349912E-004  0.6394885E+03  0.7818608E-02  0.9826706E-01
         13   -1    0    0    0    0  0.00000000000E+00  0.00000000000E+00  0.10000000000E+04  0.10000000000E+04  0.00000000000E+00 0. -1.
          2   -1    0    0  501    0 -0.00000000000E+00 -0.00000000000E+00 -0.10223637266E+03  0.10223637266E+03  0.00000000000E+00 0. -1.
    9000006    2    1    2  501    0  0.00000000000E+00  0.00000000000E+00  0.89776362734E+03  0.11022363727E+04  0.63948846014E+03 0.  0.
         13    1    3    3    0    0 -0.28959341243E+03  0.12167788493E+03  0.34594650145E+03  0.46727811213E+03  0.00000000000E+00 0. -1.
          2    1    3    3  501    0  0.28959341243E+03 -0.12167788493E+03  0.55181712588E+03  0.63495826054E+03  0.00000000000E+00 0. -1.
<mgrwt>
<rscale>  0 0.63948846E+03</rscale>
<asrwt>0</asrwt>
<pdfrwt beam="1">0</pdfrwt>
<pdfrwt beam="2">  1        2 0.37176941E+00 0.63948846E+03</pdfrwt>
<totfact> 0.50724219E+00</totfact>
</mgrwt>
</event>
<event>
 5    1  0.2349912E-004  0.5723404E+03  0.7818608E-02  0.9964513E-01
         13   -1    0    0    0    0  0.00000000000E+00  0.00000000000E+00  0.10000000000E+04  0.10000000000E+04  0.00000000000E+00 0. -1.
          2   -1    0    0  501    0 -0.00000000000E+00 -0.00000000000E+00 -0.81893384983E+02  0.81893384983E+02  0.00000000000E+00 0. -1.
    9000006    2    1    2  501    0  0.00000000000E+00  0.00000000000E+00  0.91810661502E+03  0.10818933850E+04  0.57234040564E+03 0.  0.
         13    1    3    3    0    0  0.13371892955E+03  0.15693782176E+03  0.83418633286E+03  0.85928870000E+03  0.00000000000E+00 0. -1.
          2    1    3    3  501    0 -0.13371892955E+03 -0.15693782176E+03  0.83920282153E+02  0.22260468498E+03  0.00000000000E+00 0. -1.
<mgrwt>
<rscale>  0 0.57234041E+03</rscale>
<asrwt>0</asrwt>
<pdfrwt beam="1">0</pdfrwt>
<pdfrwt beam="2">  1        2 0.29779476E+00 0.57234041E+03</pdfrwt>
<totfact> 0.94020094E+00</totfact>
</mgrwt>
</event>
<event>
 5    1  0.2349912E-004  0.6489782E+03  0.7818608E-02  0.9808698E-01
         13   -1    0    0    0    0  0.00000000000E+00  0.00000000000E+00  0.10000000000E+04  0.10000000000E+04  0.00000000000E+00 0. -1.
          2   -1    0    0  501    0 -0.00000000000E+00 -0.00000000000E+00 -0.10529318925E+03  0.10529318925E+03  0.00000000000E+00 0. -1.
    9000006    2    1    2  501    0  0.00000000000E+00  0.00000000000E+00  0.89470681075E+03  0.11052931892E+04  0.64897824077E+03 0.  0.
         13    1    3    3    0    0  0.29320912929E+03 -0.13892264074E+03  0.43934768032E+03  0.54616616319E+03  0.00000000000E+00 0. -1.
          2    1    3    3  501    0 -0.29320912929E+03  0.13892264074E+03  0.45535913043E+03  0.55912702606E+03  0.00000000000E+00 0. -1.
<mgrwt>
<rscale>  0 0.64897824E+03</rscale>
<asrwt>0</asrwt>
<pdfrwt beam="1">0</pdfrwt>
<pdfrwt beam="2">  1        2 0.38288513E+00 0.64897824E+03</pdfrwt>
<totfact> 0.46128123E+00</totfact>
</mgrwt>
</event>
<event>
 5    1  0.2349912E-004  0.6531670E+03  0.7818608E-02  0.9800855E-01
         13   -1    0    0    0    0  0.00000000000E+00  0.00000000000E+00  0.10000000000E+04  0.10000000000E+04  0.00000000000E+00 0. -1.
          2   -1    0    0  501    0 -0.00000000000E+00 -0.00000000000E+00 -0.10665679046E+03  0.10665679046E+03  0.00000000000E+00 0. -1.
    9000006    2    1    2  501    0  0.00000000000E+00  0.00000000000E+00  0.89334320954E+03  0.11066567905E+04  0.65316702447E+03 0.  0.
         13    1    3    3    0    0  0.30041319826E+03  0.68753285364E+02  0.62979400668E+03  0.70115304663E+03  0.00000000000E+00 0. -1.
          4    1    3    3  501    0 -0.30041319826E+03 -0.68753285364E+02  0.26354920285E+03  0.40550374384E+03  0.00000000000E+00 0. -1.
<mgrwt>
<rscale>  0 0.65316702E+03</rscale>
<asrwt>0</asrwt>
<pdfrwt beam="1">0</pdfrwt>
<pdfrwt beam="2">  1        2 0.38784369E+00 0.65316702E+03</pdfrwt>
<totfact> 0.44202876E+00</totfact>
</mgrwt>
</event>
<event>
 5    1  0.2349912E-004  0.6495612E+03  0.7818608E-02  0.9807603E-01
         13   -1    0    0    0    0  0.00000000000E+00  0.00000000000E+00  0.10000000000E+04  0.10000000000E+04  0.00000000000E+00 0. -1.
          2   -1    0    0  501    0 -0.00000000000E+00 -0.00000000000E+00 -0.10548244163E+03  0.10548244163E+03  0.00000000000E+00 0. -1.
    9000006    2    1    2  501    0  0.00000000000E+00  0.00000000000E+00  0.89451755837E+03  0.11054824416E+04  0.64956121076E+03 0.  0.
         13    1    3    3    0    0  0.28551854018E+03  0.78946222612E+02  0.67386670533E+03  0.73610439437E+03  0.00000000000E+00 0. -1.
          2    1    3    3  501    0 -0.28551854018E+03 -0.78946222612E+02  0.22065085304E+03  0.36937804726E+03  0.00000000000E+00 0. -1.
<mgrwt>
<rscale>  0 0.64956121E+03</rscale>
<asrwt>0</asrwt>
<pdfrwt beam="1">0</pdfrwt>
<pdfrwt beam="2">  1        2 0.38357332E+00 0.64956121E+03</pdfrwt>
<totfact> 0.45856453E+00</totfact>
</mgrwt>
</event>
<event>
 5    1  0.2349912E-004  0.6187217E+03  0.7818608E-02  0.9867308E-01
         13   -1    0    0    0    0  0.00000000000E+00  0.00000000000E+00  0.10000000000E+04  0.10000000000E+04  0.00000000000E+00 0. -1.
          2   -1    0    0  501    0 -0.00000000000E+00 -0.00000000000E+00 -0.95704128151E+02  0.95704128151E+02  0.00000000000E+00 0. -1.
    9000006    2    1    2  501    0  0.00000000000E+00  0.00000000000E+00  0.90429587185E+03  0.10957041282E+04  0.61872167620E+03 0.  0.
         13    1    3    3    0    0  0.59722405384E+02 -0.29990894117E+03  0.36923597313E+03  0.47942396953E+03  0.00000000000E+00 0. -1.
          2    1    3    3  501    0 -0.59722405384E+02  0.29990894117E+03  0.53505989872E+03  0.61628015863E+03  0.00000000000E+00 0. -1.
<mgrwt>
<rscale>  0 0.61872168E+03</rscale>
<asrwt>0</asrwt>
<pdfrwt beam="1">0</pdfrwt>
<pdfrwt beam="2">  1        2 0.34801575E+00 0.61872168E+03</pdfrwt>
<totfact> 0.61989087E+00</totfact>
</mgrwt>
</event>
<event>
 5    1  0.2349912E-004  0.6496043E+03  0.7818608E-02  0.9807522E-01
         13   -1    0    0    0    0  0.00000000000E+00  0.00000000000E+00  0.10000000000E+04  0.10000000000E+04  0.00000000000E+00 0. -1.
          2   -1    0    0  501    0 -0.00000000000E+00 -0.00000000000E+00 -0.10549643544E+03  0.10549643544E+03  0.00000000000E+00 0. -1.
    9000006    2    1    2  501    0  0.00000000000E+00  0.00000000000E+00  0.89450356456E+03  0.11054964354E+04  0.64960429630E+03 0.  0.
         13    1    3    3    0    0  0.16934061653E+03 -0.27108870856E+03  0.54547236291E+03  0.63222261191E+03  0.00000000000E+00 0. -1.
          4    1    3    3  501    0 -0.16934061653E+03  0.27108870856E+03  0.34903120165E+03  0.47327382353E+03  0.00000000000E+00 0. -1.
<mgrwt>
<rscale>  0 0.64960430E+03</rscale>
<asrwt>0</asrwt>
<pdfrwt beam="1">0</pdfrwt>
<pdfrwt beam="2">  1        2 0.38362421E+00 0.64960430E+03</pdfrwt>
<totfact> 0.45836423E+00</totfact>
</mgrwt>
</event>
<event>
 5    1  0.2349912E-004  0.6713099E+03  0.7818608E-02  0.9767594E-01
         13   -1    0    0    0    0  0.00000000000E+00  0.00000000000E+00  0.10000000000E+04  0.10000000000E+04  0.00000000000E+00 0. -1.
          2   -1    0    0  501    0 -0.00000000000E+00 -0.00000000000E+00 -0.11266422961E+03  0.11266422961E+03  0.00000000000E+00 0. -1.
    9000006    2    1    2  501    0  0.00000000000E+00  0.00000000000E+00  0.88733577039E+03  0.11126642296E+04  0.67130985277E+03 0.  0.
         13    1    3    3    0    0  0.81003435859E+02  0.22953931942E+03  0.82673085896E+03  0.86182003280E+03  0.00000000000E+00 0. -1.
          2    1    3    3  501    0 -0.81003435859E+02 -0.22953931942E+03  0.60604911436E+02  0.25084419681E+03  0.00000000000E+00 0. -1.
<mgrwt>
<rscale>  0 0.67130985E+03</rscale>
<asrwt>0</asrwt>
<pdfrwt beam="1">0</pdfrwt>
<pdfrwt beam="2">  1        2 0.40968897E+00 0.67130985E+03</pdfrwt>
<totfact> 0.36555200E+00</totfact>
</mgrwt>
</event>
<event>
 5    1  0.2349912E-004  0.6140616E+03  0.7818608E-02  0.9876655E-01
         13   -1    0    0    0    0  0.00000000000E+00  0.00000000000E+00  0.10000000000E+04  0.10000000000E+04  0.00000000000E+00 0. -1.
          2   -1    0    0  501    0 -0.00000000000E+00 -0.00000000000E+00 -0.94267906653E+02  0.94267906653E+02  0.00000000000E+00 0. -1.
    9000006    2    1    2  501    0  0.00000000000E+00  0.00000000000E+00  0.90573209335E+03  0.10942679067E+04  0.61406158210E+03 0.  0.
         13    1    3    3    0    0 -0.49318996919E+02  0.28268579212E+03  0.25827272597E+03  0.38606789753E+03  0.00000000000E+00 0. -1.
          4    1    3    3  501    0  0.49318996919E+02 -0.28268579212E+03  0.64745936738E+03  0.70820000912E+03  0.00000000000E+00 0. -1.
<mgrwt>
<rscale>  0 0.61406158E+03</rscale>
<asrwt>0</asrwt>
<pdfrwt beam="1">0</pdfrwt>
<pdfrwt beam="2">  1        2 0.34279311E+00 0.61406158E+03</pdfrwt>
<totfact> 0.64758916E+00</totfact>
</mgrwt>
</event>
<event>
 5    1  0.2349912E-004  0.6344066E+03  0.7818608E-02  0.9836487E-01
         13   -1    0    0    0    0  0.00000000000E+00  0.00000000000E+00  0.10000000000E+04  0.10000000000E+04  0.00000000000E+00 0. -1.
          2   -1    0    0  501    0 -0.00000000000E+00 -0.00000000000E+00 -0.10061792678E+03  0.10061792678E+03  0.00000000000E+00 0. -1.
    9000006    2    1    2  501    0  0.00000000000E+00  0.00000000000E+00  0.89938207322E+03  0.11006179268E+04  0.63440657871E+03 0.  0.
         13    1    3    3    0    0 -0.20678751262E+03 -0.18908620928E+03  0.19176389828E+03  0.33954095865E+03  0.00000000000E+00 0. -1.
          4    1    3    3  501    0  0.20678751262E+03  0.18908620928E+03  0.70761817494E+03  0.76107696813E+03  0.00000000000E+00 0. -1.
<mgrwt>
<rscale>  0 0.63440658E+03</rscale>
<asrwt>0</asrwt>
<pdfrwt beam="1">0</pdfrwt>
<pdfrwt beam="2">  1        2 0.36588414E+00 0.63440658E+03</pdfrwt>
<totfact> 0.53323827E+00</totfact>
</mgrwt>
</event>
<event>
 5    1  0.2349912E-004  0.6172291E+03  0.7818608E-02  0.9870292E-01
         13   -1    0    0    0    0  0.00000000000E+00  0.00000000000E+00  0.10000000000E+04  0.10000000000E+04  0.00000000000E+00 0. -1.
          2   -1    0    0  501    0 -0.00000000000E+00 -0.00000000000E+00 -0.95242928786E+02  0.95242928786E+02  0.00000000000E+00 0. -1.
    9000006    2    1    2  501    0  0.00000000000E+00  0.00000000000E+00  0.90475707121E+03  0.10952429288E+04  0.61722906214E+03 0.  0.
         13    1    3    3    0    0  0.25457247558E+03  0.38042009627E+02  0.75449725111E+03  0.79719535984E+03  0.00000000000E+00 0. -1.
          4    1    3    3  501    0 -0.25457247558E+03 -0.38042009627E+02  0.15025982011E+03  0.29804756895E+03  0.00000000000E+00 0. -1.
<mgrwt>
<rscale>  0 0.61722906E+03</rscale>
<asrwt>0</asrwt>
<pdfrwt beam="1">0</pdfrwt>
<pdfrwt beam="2">  1        2 0.34633865E+00 0.61722906E+03</pdfrwt>
<totfact> 0.62866226E+00</totfact>
</mgrwt>
</event>
<event>
 5    1  0.2349912E-004  0.6537723E+03  0.7818608E-02  0.9799726E-01
         13   -1    0    0    0    0  0.00000000000E+00  0.00000000000E+00  0.10000000000E+04  0.10000000000E+04  0.00000000000E+00 0. -1.
          2   -1    0    0  501    0 -0.00000000000E+00 -0.00000000000E+00 -0.10685457112E+03  0.10685457112E+03  0.00000000000E+00 0. -1.
    9000006    2    1    2  501    0  0.00000000000E+00  0.00000000000E+00  0.89314542888E+03  0.11068545711E+04  0.65377234912E+03 0.  0.
         13    1    3    3    0    0  0.21760471350E+03  0.19536457422E+03  0.19927799313E+03  0.35387970660E+03  0.00000000000E+00 0. -1.
          2    1    3    3  501    0 -0.21760471350E+03 -0.19536457422E+03  0.69386743575E+03  0.75297486452E+03  0.00000000000E+00 0. -1.
<mgrwt>
<rscale>  0 0.65377235E+03</rscale>
<asrwt>0</asrwt>
<pdfrwt beam="1">0</pdfrwt>
<pdfrwt beam="2">  1        2 0.38856290E+00 0.65377235E+03</pdfrwt>
<totfact> 0.43929761E+00</totfact>
</mgrwt>
</event>
<event>
 5    1  0.2349912E-004  0.6707877E+03  0.7818608E-02  0.9768536E-01
         13   -1    0    0    0    0  0.00000000000E+00  0.00000000000E+00  0.10000000000E+04  0.10000000000E+04  0.00000000000E+00 0. -1.
          2   -1    0    0  501    0 -0.00000000000E+00 -0.00000000000E+00 -0.11248904573E+03  0.11248904573E+03  0.00000000000E+00 0. -1.
    9000006    2    1    2  501    0  0.00000000000E+00  0.00000000000E+00  0.88751095427E+03  0.11124890457E+04  0.67078773313E+03 0.  0.
         13    1    3    3    0    0 -0.15436441126E+02  0.69267107863E+02 -0.99894732673E+02  0.12253641729E+03  0.00000000000E+00 0. -1.
          2    1    3    3  501    0  0.15436441126E+02 -0.69267107863E+02  0.98740568694E+03  0.98995262844E+03  0.00000000000E+00 0. -1.
<mgrwt>
<rscale>  0 0.67078773E+03</rscale>
<asrwt>0</asrwt>
<pdfrwt beam="1">0</pdfrwt>
<pdfrwt beam="2">  1        2 0.40905194E+00 0.67078773E+03</pdfrwt>
<totfact> 0.36760211E+00</totfact>
</mgrwt>
</event>
<event>
 5    1  0.2349912E-004  0.6500822E+03  0.7818608E-02  0.9806625E-01
         13   -1    0    0    0    0  0.00000000000E+00  0.00000000000E+00  0.10000000000E+04  0.10000000000E+04  0.00000000000E+00 0. -1.
          2   -1    0    0  501    0 -0.00000000000E+00 -0.00000000000E+00 -0.10565173051E+03  0.10565173051E+03  0.00000000000E+00 0. -1.
    9000006    2    1    2  501    0  0.00000000000E+00  0.00000000000E+00  0.89434826949E+03  0.11056517305E+04  0.65008224252E+03 0.  0.
         13    1    3    3    0    0 -0.25042054341E+03  0.12908885610E+03  0.17147155939E+03  0.32981339726E+03  0.00000000000E+00 0. -1.
          4    1    3    3  501    0  0.25042054341E+03 -0.12908885610E+03  0.72287671010E+03  0.77583833325E+03  0.00000000000E+00 0. -1.
<mgrwt>
<rscale>  0 0.65008224E+03</rscale>
<asrwt>0</asrwt>
<pdfrwt beam="1">0</pdfrwt>
<pdfrwt beam="2">  1        2 0.38418892E+00 0.65008224E+03</pdfrwt>
<totfact> 0.45614673E+00</totfact>
</mgrwt>
</event>
<event>
 5    1  0.2349912E-004  0.6671420E+03  0.7818608E-02  0.9775135E-01
         13   -1    0    0    0    0  0.00000000000E+00  0.00000000000E+00  0.10000000000E+04  0.10000000000E+04  0.00000000000E+00 0. -1.
          2   -1    0    0  501    0 -0.00000000000E+00 -0.00000000000E+00 -0.11126961997E+03  0.11126961997E+03  0.00000000000E+00 0. -1.
    9000006    2    1    2  501    0  0.00000000000E+00  0.00000000000E+00  0.88873038003E+03  0.11112696200E+04  0.66714202377E+03 0.  0.
         13    1    3    3    0    0  0.82785693654E+02 -0.30188074068E+03  0.63635063818E+03  0.70917387669E+03  0.00000000000E+00 0. -1.
          2    1    3    3  501    0 -0.82785693654E+02  0.30188074068E+03  0.25237974185E+03  0.40209574328E+03  0.00000000000E+00 0. -1.
<mgrwt>
<rscale>  0 0.66714202E+03</rscale>
<asrwt>0</asrwt>
<pdfrwt beam="1">0</pdfrwt>
<pdfrwt beam="2">  1        2 0.40461765E+00 0.66714202E+03</pdfrwt>
<totfact> 0.38215962E+00</totfact>
</mgrwt>
</event>
<event>
 5    1  0.2349912E-004  0.6461780E+03  0.7818608E-02  0.9813978E-01
         13   -1    0    0    0    0  0.00000000000E+00  0.00000000000E+00  0.10000000000E+04  0.10000000000E+04  0.00000000000E+00 0. -1.
          2   -1    0    0  501    0 -0.00000000000E+00 -0.00000000000E+00 -0.10438649030E+03  0.10438649030E+03  0.00000000000E+00 0. -1.
    9000006    2    1    2  501    0  0.00000000000E+00  0.00000000000E+00  0.89561350970E+03  0.11043864903E+04  0.64617796405E+03 0.  0.
         13    1    3    3    0    0  0.26517041586E+03 -0.12908718761E+03  0.67330277211E+03  0.73506154463E+03  0.00000000000E+00 0. -1.
          2    1    3    3  501    0 -0.26517041586E+03  0.12908718761E+03  0.22231073758E+03  0.36932494568E+03  0.00000000000E+00 0. -1.
<mgrwt>
<rscale>  0 0.64617796E+03</rscale>
<asrwt>0</asrwt>
<pdfrwt beam="1">0</pdfrwt>
<pdfrwt beam="2">  1        2 0.37958804E+00 0.64617796E+03</pdfrwt>
<totfact> 0.47450079E+00</totfact>
</mgrwt>
</event>
<event>
 5    1  0.2349912E-004  0.6546164E+03  0.7818608E-02  0.9798155E-01
         13   -1    0    0    0    0  0.00000000000E+00  0.00000000000E+00  0.10000000000E+04  0.10000000000E+04  0.00000000000E+00 0. -1.
          2   -1    0    0  501    0 -0.00000000000E+00 -0.00000000000E+00 -0.10713066022E+03  0.10713066022E+03  0.00000000000E+00 0. -1.
    9000006    2    1    2  501    0  0.00000000000E+00  0.00000000000E+00  0.89286933978E+03  0.11071306602E+04  0.65461640743E+03 0.  0.
         13    1    3    3    0    0  0.31148034674E+03 -0.66930343755E+02  0.31952225848E+03  0.45121408553E+03  0.00000000000E+00 0. -1.
          2    1    3    3  501    0 -0.31148034674E+03  0.66930343755E+02  0.57334708130E+03  0.65591657469E+03  0.00000000000E+00 0. -1.
<mgrwt>
<rscale>  0 0.65461641E+03</rscale>
<asrwt>0</asrwt>
<pdfrwt beam="1">0</pdfrwt>
<pdfrwt beam="2">  1        2 0.38956686E+00 0.65461641E+03</pdfrwt>
<totfact> 0.43551062E+00</totfact>
</mgrwt>
</event>
<event>
 5    1  0.2349912E-004  0.6473925E+03  0.7818608E-02  0.9811684E-01
         13   -1    0    0    0    0  0.00000000000E+00  0.00000000000E+00  0.10000000000E+04  0.10000000000E+04  0.00000000000E+00 0. -1.
          2   -1    0    0  501    0 -0.00000000000E+00 -0.00000000000E+00 -0.10477926337E+03  0.10477926337E+03  0.00000000000E+00 0. -1.
    9000006    2    1    2  501    0  0.00000000000E+00  0.00000000000E+00  0.89522073663E+03  0.11047792634E+04  0.64739250343E+03 0.  0.
         13    1    3    3    0    0 -0.19306621048E+03  0.25980334476E+03  0.44312002052E+03  0.54875102930E+03  0.00000000000E+00 0. -1.
          4    1    3    3  501    0  0.19306621048E+03 -0.25980334476E+03  0.45210071611E+03  0.55602823407E+03  0.00000000000E+00 0. -1.
<mgrwt>
<rscale>  0 0.64739250E+03</rscale>
<asrwt>0</asrwt>
<pdfrwt beam="1">0</pdfrwt>
<pdfrwt beam="2">  1        2 0.38101631E+00 0.64739250E+03</pdfrwt>
<totfact> 0.46873249E+00</totfact>
</mgrwt>
</event>
<event>
 5    1  0.2349912E-004  0.6405757E+03  0.7818608E-02  0.9824626E-01
         13   -1    0    0    0    0  0.00000000000E+00  0.00000000000E+00  0.10000000000E+04  0.10000000000E+04  0.00000000000E+00 0. -1.
          2   -1    0    0  501    0 -0.00000000000E+00 -0.00000000000E+00 -0.10258432211E+03  0.10258432211E+03  0.00000000000E+00 0. -1.
    9000006    2    1    2  501    0  0.00000000000E+00  0.00000000000E+00  0.89741567789E+03  0.11025843221E+04  0.64057574761E+03 0.  0.
         13    1    3    3    0    0  0.24228617815E+03 -0.64657234213E+02  0.79166745537E+03  0.83043392871E+03  0.00000000000E+00 0. -1.
          2    1    3    3  501    0 -0.24228617815E+03  0.64657234213E+02  0.10574822252E+03  0.27215039340E+03  0.00000000000E+00 0. -1.
<mgrwt>
<rscale>  0 0.64057575E+03</rscale>
<asrwt>0</asrwt>
<pdfrwt beam="1">0</pdfrwt>
<pdfrwt beam="2">  1        2 0.37303469E+00 0.64057575E+03</pdfrwt>
<totfact> 0.50180727E+00</totfact>
</mgrwt>
</event>
<event>
 5    1  0.2349912E-004  0.6957441E+03  0.7818608E-02  0.9724538E-01
         13   -1    0    0    0    0  0.00000000000E+00  0.00000000000E+00  0.10000000000E+04  0.10000000000E+04  0.00000000000E+00 0. -1.
          2   -1    0    0  501    0 -0.00000000000E+00 -0.00000000000E+00 -0.12101496647E+03  0.12101496647E+03  0.00000000000E+00 0. -1.
    9000006    2    1    2  501    0  0.00000000000E+00  0.00000000000E+00  0.87898503353E+03  0.11210149665E+04  0.69574410949E+03 0.  0.
         13    1    3    3    0    0  0.12029154366E+03  0.28285462040E+03  0.70197322986E+03  0.76631795437E+03  0.00000000000E+00 0. -1.
          4    1    3    3  501    0 -0.12029154366E+03 -0.28285462040E+03  0.17701180367E+03  0.35469701210E+03  0.00000000000E+00 0. -1.
<mgrwt>
<rscale>  0 0.69574411E+03</rscale>
<asrwt>0</asrwt>
<pdfrwt beam="1">0</pdfrwt>
<pdfrwt beam="2">  1        2 0.44005535E+00 0.69574411E+03</pdfrwt>
<totfact> 0.27885128E+00</totfact>
</mgrwt>
</event>
<event>
 5    1  0.2349912E-004  0.6589675E+03  0.7818608E-02  0.9790096E-01
         13   -1    0    0    0    0  0.00000000000E+00  0.00000000000E+00  0.10000000000E+04  0.10000000000E+04  0.00000000000E+00 0. -1.
          2   -1    0    0  501    0 -0.00000000000E+00 -0.00000000000E+00 -0.10855955488E+03  0.10855955488E+03  0.00000000000E+00 0. -1.
    9000006    2    1    2  501    0  0.00000000000E+00  0.00000000000E+00  0.89144044512E+03  0.11085595549E+04  0.65896754056E+03 0.  0.
         13    1    3    3    0    0  0.93636878268E+02 -0.31571647773E+03  0.46374448979E+03  0.56877386640E+03  0.00000000000E+00 0. -1.
          2    1    3    3  501    0 -0.93636878268E+02  0.31571647773E+03  0.42769595533E+03  0.53978568848E+03  0.00000000000E+00 0. -1.
<mgrwt>
<rscale>  0 0.65896754E+03</rscale>
<asrwt>0</asrwt>
<pdfrwt beam="1">0</pdfrwt>
<pdfrwt beam="2">  1        2 0.39476285E+00 0.65896754E+03</pdfrwt>
<totfact> 0.41637846E+00</totfact>
</mgrwt>
</event>
<event>
 5    1  0.2349912E-004  0.6521121E+03  0.7818608E-02  0.9802824E-01
         13   -1    0    0    0    0  0.00000000000E+00  0.00000000000E+00  0.10000000000E+04  0.10000000000E+04  0.00000000000E+00 0. -1.
          2   -1    0    0  501    0 -0.00000000000E+00 -0.00000000000E+00 -0.10631255728E+03  0.10631255728E+03  0.00000000000E+00 0. -1.
    9000006    2    1    2  501    0  0.00000000000E+00  0.00000000000E+00  0.89368744272E+03  0.11063125573E+04  0.65211212924E+03 0.  0.
         13    1    3    3    0    0  0.27802242197E+03 -0.11145545061E+03  0.22830513369E+03  0.37661919582E+03  0.00000000000E+00 0. -1.
          2    1    3    3  501    0 -0.27802242197E+03  0.11145545061E+03  0.66538230903E+03  0.72969336146E+03  0.00000000000E+00 0. -1.
<mgrwt>
<rscale>  0 0.65211213E+03</rscale>
<asrwt>0</asrwt>
<pdfrwt beam="1">0</pdfrwt>
<pdfrwt beam="2">  1        2 0.38659193E+00 0.65211213E+03</pdfrwt>
<totfact> 0.44681895E+00</totfact>
</mgrwt>
</event>
<event>
 5    1  0.2349912E-004  0.6546392E+03  0.7818608E-02  0.9798113E-01
         13   -1    0    0    0    0  0.00000000000E+00  0.00000000000E+00  0.10000000000E+04  0.10000000000E+04  0.00000000000E+00 0. -1.
          2   -1    0    0  501    0 -0.00000000000E+00 -0.00000000000E+00 -0.10713813455E+03  0.10713813455E+03  0.00000000000E+00 0. -1.
    9000006    2    1    2  501    0  0.00000000000E+00  0.00000000000E+00  0.89286186545E+03  0.11071381346E+04  0.65463924280E+03 0.  0.
         13    1    3    3    0    0 -0.27771396195E+03  0.14466623900E+03  0.60762784662E+03  0.68356782060E+03  0.00000000000E+00 0. -1.
          4    1    3    3  501    0  0.27771396195E+03 -0.14466623900E+03  0.28523401882E+03  0.42357031395E+03  0.00000000000E+00 0. -1.
<mgrwt>
<rscale>  0 0.65463924E+03</rscale>
<asrwt>0</asrwt>
<pdfrwt beam="1">0</pdfrwt>
<pdfrwt beam="2">  1        2 0.38959404E+00 0.65463924E+03</pdfrwt>
<totfact> 0.43540851E+00</totfact>
</mgrwt>
</event>
<event>
 5    1  0.2349912E-004  0.6541024E+03  0.7818608E-02  0.9799112E-01
         13   -1    0    0    0    0  0.00000000000E+00  0.00000000000E+00  0.10000000000E+04  0.10000000000E+04  0.00000000000E+00 0. -1.
          2   -1    0    0  501    0 -0.00000000000E+00 -0.00000000000E+00 -0.10696247521E+03  0.10696247521E+03  0.00000000000E+00 0. -1.
    9000006    2    1    2  501    0  0.00000000000E+00  0.00000000000E+00  0.89303752479E+03  0.11069624752E+04  0.65410236267E+03 0.  0.
         13    1    3    3    0    0  0.55377340338E+02  0.32172743701E+03  0.41321443627E+03  0.52661310645E+03  0.00000000000E+00 0. -1.
          4    1    3    3  501    0 -0.55377340338E+02 -0.32172743701E+03  0.47982308852E+03  0.58034936876E+03  0.00000000000E+00 0. -1.
<mgrwt>
<rscale>  0 0.65410236E+03</rscale>
<asrwt>0</asrwt>
<pdfrwt beam="1">0</pdfrwt>
<pdfrwt beam="2">  1        2 0.38895528E+00 0.65410236E+03</pdfrwt>
<totfact> 0.43781400E+00</totfact>
</mgrwt>
</event>
<event>
 5    1  0.2349912E-004  0.6474983E+03  0.7818608E-02  0.9811485E-01
         13   -1    0    0    0    0  0.00000000000E+00  0.00000000000E+00  0.10000000000E+04  0.10000000000E+04  0.00000000000E+00 0. -1.
          2   -1    0    0  501    0 -0.00000000000E+00 -0.00000000000E+00 -0.10481352277E+03  0.10481352277E+03  0.00000000000E+00 0. -1.
    9000006    2    1    2  501    0  0.00000000000E+00  0.00000000000E+00  0.89518647723E+03  0.11048135228E+04  0.64749833287E+03 0.  0.
         13    1    3    3    0    0  0.11180894467E+03 -0.23039787463E+03  0.10964163602E+03  0.27857801258E+03  0.00000000000E+00 0. -1.
          4    1    3    3  501    0 -0.11180894467E+03  0.23039787463E+03  0.78554484121E+03  0.82623551019E+03  0.00000000000E+00 0. -1.
<mgrwt>
<rscale>  0 0.64749833E+03</rscale>
<asrwt>0</asrwt>
<pdfrwt beam="1">0</pdfrwt>
<pdfrwt beam="2">  1        2 0.38114089E+00 0.64749833E+03</pdfrwt>
<totfact> 0.46823239E+00</totfact>
</mgrwt>
</event>
<event>
 5    1  0.2349912E-004  0.6319066E+03  0.7818608E-02  0.9841335E-01
         13   -1    0    0    0    0  0.00000000000E+00  0.00000000000E+00  0.10000000000E+04  0.10000000000E+04  0.00000000000E+00 0. -1.
          2   -1    0    0  501    0 -0.00000000000E+00 -0.00000000000E+00 -0.99826478104E+02  0.99826478104E+02  0.00000000000E+00 0. -1.
    9000006    2    1    2  501    0  0.00000000000E+00  0.00000000000E+00  0.90017352190E+03  0.10998264781E+04  0.63190656937E+03 0.  0.
         13    1    3    3    0    0 -0.20017298325E+03  0.10683036202E+02  0.87514800143E+03  0.89781254997E+03  0.00000000000E+00 0. -1.
          2    1    3    3  501    0  0.20017298325E+03 -0.10683036202E+02  0.25025520470E+02  0.20201392813E+03  0.00000000000E+00 0. -1.
<mgrwt>
<rscale>  0 0.63190657E+03</rscale>
<asrwt>0</asrwt>
<pdfrwt beam="1">0</pdfrwt>
<pdfrwt beam="2">  1        2 0.36300614E+00 0.63190657E+03</pdfrwt>
<totfact> 0.54639143E+00</totfact>
</mgrwt>
</event>
<event>
 5    1  0.2349912E-004  0.6348721E+03  0.7818608E-02  0.9835587E-01
         13   -1    0    0    0    0  0.00000000000E+00  0.00000000000E+00  0.10000000000E+04  0.10000000000E+04  0.00000000000E+00 0. -1.
          2   -1    0    0  501    0 -0.00000000000E+00 -0.00000000000E+00 -0.10076566003E+03  0.10076566003E+03  0.00000000000E+00 0. -1.
    9000006    2    1    2  501    0  0.00000000000E+00  0.00000000000E+00  0.89923433997E+03  0.11007656600E+04  0.63487214472E+03 0.  0.
         13    1    3    3    0    0 -0.14739330053E+03  0.11364965478E+03  0.89546866851E+03  0.91460656315E+03  0.00000000000E+00 0. -1.
          4    1    3    3  501    0  0.14739330053E+03 -0.11364965478E+03  0.37656714528E+01  0.18615909688E+03  0.00000000000E+00 0. -1.
<mgrwt>
<rscale>  0 0.63487214E+03</rscale>
<asrwt>0</asrwt>
<pdfrwt beam="1">0</pdfrwt>
<pdfrwt beam="2">  1        2 0.36642135E+00 0.63487214E+03</pdfrwt>
<totfact> 0.53081558E+00</totfact>
</mgrwt>
</event>
<event>
 5    1  0.2349912E-004  0.6476170E+03  0.7818608E-02  0.9811261E-01
         13   -1    0    0    0    0  0.00000000000E+00  0.00000000000E+00  0.10000000000E+04  0.10000000000E+04  0.00000000000E+00 0. -1.
          2   -1    0    0  501    0 -0.00000000000E+00 -0.00000000000E+00 -0.10485195858E+03  0.10485195858E+03  0.00000000000E+00 0. -1.
    9000006    2    1    2  501    0  0.00000000000E+00  0.00000000000E+00  0.89514804142E+03  0.11048519586E+04  0.64761704295E+03 0.  0.
         13    1    3    3    0    0  0.26424473545E+03 -0.18213554076E+03  0.52101887888E+03  0.61193080293E+03  0.00000000000E+00 0. -1.
          4    1    3    3  501    0 -0.26424473545E+03  0.18213554076E+03  0.37412916254E+03  0.49292115565E+03  0.00000000000E+00 0. -1.
<mgrwt>
<rscale>  0 0.64761704E+03</rscale>
<asrwt>0</asrwt>
<pdfrwt beam="1">0</pdfrwt>
<pdfrwt beam="2">  1        2 0.38128065E+00 0.64761704E+03</pdfrwt>
<totfact> 0.46767191E+00</totfact>
</mgrwt>
</event>
<event>
 5    1  0.2349912E-004  0.6575120E+03  0.7818608E-02  0.9792785E-01
         13   -1    0    0    0    0  0.00000000000E+00  0.00000000000E+00  0.10000000000E+04  0.10000000000E+04  0.00000000000E+00 0. -1.
          2   -1    0    0  501    0 -0.00000000000E+00 -0.00000000000E+00 -0.10808049115E+03  0.10808049115E+03  0.00000000000E+00 0. -1.
    9000006    2    1    2  501    0  0.00000000000E+00  0.00000000000E+00  0.89191950885E+03  0.11080804912E+04  0.65751195017E+03 0.  0.
         13    1    3    3    0    0  0.77050691293E+01 -0.38507582069E+02  0.99603299402E+03  0.99680686552E+03  0.00000000000E+00 0. -1.
          2    1    3    3  501    0 -0.77050691293E+01  0.38507582069E+02 -0.10411348517E+03  0.11127362563E+03  0.00000000000E+00 0. -1.
<mgrwt>
<rscale>  0 0.65751195E+03</rscale>
<asrwt>0</asrwt>
<pdfrwt beam="1">0</pdfrwt>
<pdfrwt beam="2">  1        2 0.39302080E+00 0.65751195E+03</pdfrwt>
<totfact> 0.42270643E+00</totfact>
</mgrwt>
</event>
<event>
 5    1  0.2349912E-004  0.6448102E+03  0.7818608E-02  0.9816566E-01
         13   -1    0    0    0    0  0.00000000000E+00  0.00000000000E+00  0.10000000000E+04  0.10000000000E+04  0.00000000000E+00 0. -1.
          2   -1    0    0  501    0 -0.00000000000E+00 -0.00000000000E+00 -0.10394505062E+03  0.10394505062E+03  0.00000000000E+00 0. -1.
    9000006    2    1    2  501    0  0.00000000000E+00  0.00000000000E+00  0.89605494938E+03  0.11039450506E+04  0.64481020656E+03 0.  0.
         13    1    3    3    0    0  0.21920007426E+03  0.21587981328E+03  0.28299219348E+03  0.41801596609E+03  0.00000000000E+00 0. -1.
          2    1    3    3  501    0 -0.21920007426E+03 -0.21587981328E+03  0.61306275590E+03  0.68592908453E+03  0.00000000000E+00 0. -1.
<mgrwt>
<rscale>  0 0.64481021E+03</rscale>
<asrwt>0</asrwt>
<pdfrwt beam="1">0</pdfrwt>
<pdfrwt beam="2">  1        2 0.37798280E+00 0.64481021E+03</pdfrwt>
<totfact> 0.48106090E+00</totfact>
</mgrwt>
</event>
<event>
 5    1  0.2349912E-004  0.6344307E+03  0.7818608E-02  0.9836441E-01
         13   -1    0    0    0    0  0.00000000000E+00  0.00000000000E+00  0.10000000000E+04  0.10000000000E+04  0.00000000000E+00 0. -1.
          2   -1    0    0  501    0 -0.00000000000E+00 -0.00000000000E+00 -0.10062558282E+03  0.10062558282E+03  0.00000000000E+00 0. -1.
    9000006    2    1    2  501    0  0.00000000000E+00  0.00000000000E+00  0.89937441718E+03  0.11006255828E+04  0.63443071433E+03 0.  0.
         13    1    3    3    0    0 -0.24896168429E+03  0.19333730210E+03  0.51137356142E+03  0.60071969499E+03  0.00000000000E+00 0. -1.
          4    1    3    3  501    0  0.24896168429E+03 -0.19333730210E+03  0.38800085575E+03  0.49990588783E+03  0.00000000000E+00 0. -1.
<mgrwt>
<rscale>  0 0.63443071E+03</rscale>
<asrwt>0</asrwt>
<pdfrwt beam="1">0</pdfrwt>
<pdfrwt beam="2">  1        2 0.36591198E+00 0.63443071E+03</pdfrwt>
<totfact> 0.53311246E+00</totfact>
</mgrwt>
</event>
<event>
 5    1  0.2349912E-004  0.6579871E+03  0.7818608E-02  0.9791906E-01
         13   -1    0    0    0    0  0.00000000000E+00  0.00000000000E+00  0.10000000000E+04  0.10000000000E+04  0.00000000000E+00 0. -1.
          2   -1    0    0  501    0 -0.00000000000E+00 -0.00000000000E+00 -0.10823676942E+03  0.10823676942E+03  0.00000000000E+00 0. -1.
    9000006    2    1    2  501    0  0.00000000000E+00  0.00000000000E+00  0.89176323058E+03  0.11082367694E+04  0.65798714095E+03 0.  0.
         13    1    3    3    0    0  0.19271204225E+03 -0.19780263355E+03  0.14471519541E+03  0.31177925019E+03  0.00000000000E+00 0. -1.
          4    1    3    3  501    0 -0.19271204225E+03  0.19780263355E+03  0.74704803518E+03  0.79645751922E+03  0.00000000000E+00 0. -1.
<mgrwt>
<rscale>  0 0.65798714E+03</rscale>
<asrwt>0</asrwt>
<pdfrwt beam="1">0</pdfrwt>
<pdfrwt beam="2">  1        2 0.39358908E+00 0.65798714E+03</pdfrwt>
<totfact> 0.42063259E+00</totfact>
</mgrwt>
</event>
<event>
 5    1  0.2349912E-004  0.6477965E+03  0.7818608E-02  0.9810923E-01
         13   -1    0    0    0    0  0.00000000000E+00  0.00000000000E+00  0.10000000000E+04  0.10000000000E+04  0.00000000000E+00 0. -1.
          2   -1    0    0  501    0 -0.00000000000E+00 -0.00000000000E+00 -0.10491007316E+03  0.10491007316E+03  0.00000000000E+00 0. -1.
    9000006    2    1    2  501    0  0.00000000000E+00  0.00000000000E+00  0.89508992684E+03  0.11049100732E+04  0.64779649013E+03 0.  0.
         13    1    3    3    0    0  0.18569168626E+03 -0.25867536866E+03  0.54867863109E+03  0.63438362914E+03  0.00000000000E+00 0. -1.
          2    1    3    3  501    0 -0.18569168626E+03  0.25867536866E+03  0.34641129575E+03  0.47052644402E+03  0.00000000000E+00 0. -1.
<mgrwt>
<rscale>  0 0.64779649E+03</rscale>
<asrwt>0</asrwt>
<pdfrwt beam="1">0</pdfrwt>
<pdfrwt beam="2">  1        2 0.38149198E+00 0.64779649E+03</pdfrwt>
<totfact> 0.46682561E+00</totfact>
</mgrwt>
</event>
<event>
 5    1  0.2349912E-004  0.6446136E+03  0.7818608E-02  0.9816939E-01
         13   -1    0    0    0    0  0.00000000000E+00  0.00000000000E+00  0.10000000000E+04  0.10000000000E+04  0.00000000000E+00 0. -1.
          2   -1    0    0  501    0 -0.00000000000E+00 -0.00000000000E+00 -0.10388168324E+03  0.10388168324E+03  0.00000000000E+00 0. -1.
    9000006    2    1    2  501    0  0.00000000000E+00  0.00000000000E+00  0.89611831676E+03  0.11038816832E+04  0.64461363077E+03 0.  0.
         13    1    3    3    0    0  0.13262743643E+03  0.12848862193E+03 -0.43128724724E+01  0.18471048624E+03  0.00000000000E+00 0. -1.
          2    1    3    3  501    0 -0.13262743643E+03 -0.12848862193E+03  0.90043118923E+03  0.91917119700E+03  0.00000000000E+00 0. -1.
<mgrwt>
<rscale>  0 0.64461363E+03</rscale>
<asrwt>0</asrwt>
<pdfrwt beam="1">0</pdfrwt>
<pdfrwt beam="2">  1        2 0.37775237E+00 0.64461363E+03</pdfrwt>
<totfact> 0.48200933E+00</totfact>
</mgrwt>
</event>
<event>
 5    1  0.2349912E-004  0.6495709E+03  0.7818608E-02  0.9807585E-01
         13   -1    0    0    0    0  0.00000000000E+00  0.00000000000E+00  0.10000000000E+04  0.10000000000E+04  0.00000000000E+00 0. -1.
          2   -1    0    0  501    0 -0.00000000000E+00 -0.00000000000E+00 -0.10548559354E+03  0.10548559354E+03  0.00000000000E+00 0. -1.
    9000006    2    1    2  501    0  0.00000000000E+00  0.00000000000E+00  0.89451440646E+03  0.11054855935E+04  0.64957091543E+03 0.  0.
         13    1    3    3    0    0  0.23082981086E+02 -0.29936276636E+03  0.23650884026E+03  0.38221371171E+03  0.00000000000E+00 0. -1.
          4    1    3    3  501    0 -0.23082981086E+02  0.29936276636E+03  0.65800556620E+03  0.72327188183E+03  0.00000000000E+00 0. -1.
<mgrwt>
<rscale>  0 0.64957092E+03</rscale>
<asrwt>0</asrwt>
<pdfrwt beam="1">0</pdfrwt>
<pdfrwt beam="2">  1        2 0.38358479E+00 0.64957092E+03</pdfrwt>
<totfact> 0.45851941E+00</totfact>
</mgrwt>
</event>
<event>
 5    1  0.2349912E-004  0.6505951E+03  0.7818608E-02  0.9805663E-01
         13   -1    0    0    0    0  0.00000000000E+00  0.00000000000E+00  0.10000000000E+04  0.10000000000E+04  0.00000000000E+00 0. -1.
          2   -1    0    0  501    0 -0.00000000000E+00 -0.00000000000E+00 -0.10581849902E+03  0.10581849902E+03  0.00000000000E+00 0. -1.
    9000006    2    1    2  501    0  0.00000000000E+00  0.00000000000E+00  0.89418150098E+03  0.11058184990E+04  0.65059510918E+03 0.  0.
         13    1    3    3    0    0 -0.29295072093E+03  0.10428045994E+03  0.60944540297E+03  0.68419166790E+03  0.00000000000E+00 0. -1.
          2    1    3    3  501    0  0.29295072093E+03 -0.10428045994E+03  0.28473609801E+03  0.42162683113E+03  0.00000000000E+00 0. -1.
<mgrwt>
<rscale>  0 0.65059511E+03</rscale>
<asrwt>0</asrwt>
<pdfrwt beam="1">0</pdfrwt>
<pdfrwt beam="2">  1        2 0.38479535E+00 0.65059511E+03</pdfrwt>
<totfact> 0.45377623E+00</totfact>
</mgrwt>
</event>
<event>
 5    1  0.2349912E-004  0.6348274E+03  0.7818608E-02  0.9835674E-01
         13   -1    0    0    0    0  0.00000000000E+00  0.00000000000E+00  0.10000000000E+04  0.10000000000E+04  0.00000000000E+00 0. -1.
          2   -1    0    0  501    0 -0.00000000000E+00 -0.00000000000E+00 -0.10075144921E+03  0.10075144921E+03  0.00000000000E+00 0. -1.
    9000006    2    1    2  501    0  0.00000000000E+00  0.00000000000E+00  0.89924855079E+03  0.11007514492E+04  0.63482737563E+03 0.  0.
         13    1    3    3    0    0  0.17131621194E+03  0.24804966425E+03  0.62191849123E+03  0.69112986489E+03  0.00000000000E+00 0. -1.
          4    1    3    3  501    0 -0.17131621194E+03 -0.24804966425E+03  0.27733005955E+03  0.40962158432E+03  0.00000000000E+00 0. -1.
<mgrwt>
<rscale>  0 0.63482738E+03</rscale>
<asrwt>0</asrwt>
<pdfrwt beam="1">0</pdfrwt>
<pdfrwt beam="2">  1        2 0.36636968E+00 0.63482738E+03</pdfrwt>
<totfact> 0.53104818E+00</totfact>
</mgrwt>
</event>
<event>
 5    1  0.2349912E-004  0.6431212E+03  0.7818608E-02  0.9819773E-01
         13   -1    0    0    0    0  0.00000000000E+00  0.00000000000E+00  0.10000000000E+04  0.10000000000E+04  0.00000000000E+00 0. -1.
          2   -1    0    0  501    0 -0.00000000000E+00 -0.00000000000E+00 -0.10340121235E+03  0.10340121235E+03  0.00000000000E+00 0. -1.
    9000006    2    1    2  501    0  0.00000000000E+00  0.00000000000E+00  0.89659878765E+03  0.11034012123E+04  0.64312117784E+03 0.  0.
         13    1    3    3    0    0 -0.30175168480E+03  0.86857974806E+00  0.25766096868E+03  0.39679214772E+03  0.00000000000E+00 0. -1.
          4    1    3    3  501    0  0.30175168480E+03 -0.86857974806E+00  0.63893781897E+03  0.70660906463E+03  0.00000000000E+00 0. -1.
<mgrwt>
<rscale>  0 0.64312118E+03</rscale>
<asrwt>0</asrwt>
<pdfrwt beam="1">0</pdfrwt>
<pdfrwt beam="2">  1        2 0.37600520E+00 0.64312118E+03</pdfrwt>
<totfact> 0.48925634E+00</totfact>
</mgrwt>
</event>
<event>
 5    1  0.2349912E-004  0.6491084E+03  0.7818608E-02  0.9808454E-01
         13   -1    0    0    0    0  0.00000000000E+00  0.00000000000E+00  0.10000000000E+04  0.10000000000E+04  0.00000000000E+00 0. -1.
          2   -1    0    0  501    0 -0.00000000000E+00 -0.00000000000E+00 -0.10533543206E+03  0.10533543206E+03  0.00000000000E+00 0. -1.
    9000006    2    1    2  501    0  0.00000000000E+00  0.00000000000E+00  0.89466456794E+03  0.11053354321E+04  0.64910841024E+03 0.  0.
         13    1    3    3    0    0 -0.28416456590E+03  0.22752589898E+02  0.18315277818E+03  0.33883937347E+03  0.00000000000E+00 0. -1.
          2    1    3    3  501    0  0.28416456590E+03 -0.22752589898E+02  0.71151178976E+03  0.76649605859E+03  0.00000000000E+00 0. -1.
<mgrwt>
<rscale>  0 0.64910841E+03</rscale>
<asrwt>0</asrwt>
<pdfrwt beam="1">0</pdfrwt>
<pdfrwt beam="2">  1        2 0.38303874E+00 0.64910841E+03</pdfrwt>
<totfact> 0.46067357E+00</totfact>
</mgrwt>
</event>
<event>
 5    1  0.2349912E-004  0.6471671E+03  0.7818608E-02  0.9812110E-01
         13   -1    0    0    0    0  0.00000000000E+00  0.00000000000E+00  0.10000000000E+04  0.10000000000E+04  0.00000000000E+00 0. -1.
          2   -1    0    0  501    0 -0.00000000000E+00 -0.00000000000E+00 -0.10470630574E+03  0.10470630574E+03  0.00000000000E+00 0. -1.
    9000006    2    1    2  501    0  0.00000000000E+00  0.00000000000E+00  0.89529369426E+03  0.11047063057E+04  0.64716707500E+03 0.  0.
         13    1    3    3    0    0  0.17875718897E+03  0.18304102153E+03  0.78582072375E+03  0.82642141674E+03  0.00000000000E+00 0. -1.
          4    1    3    3  501    0 -0.17875718897E+03 -0.18304102153E+03  0.10947297050E+03  0.27828488900E+03  0.00000000000E+00 0. -1.
<mgrwt>
<rscale>  0 0.64716708E+03</rscale>
<asrwt>0</asrwt>
<pdfrwt beam="1">0</pdfrwt>
<pdfrwt beam="2">  1        2 0.38075101E+00 0.64716708E+03</pdfrwt>
<totfact> 0.46979911E+00</totfact>
</mgrwt>
</event>
<event>
 5    1  0.2349912E-004  0.7501526E+03  0.7818608E-02  0.9635111E-01
         13   -1    0    0    0    0  0.00000000000E+00  0.00000000000E+00  0.10000000000E+04  0.10000000000E+04  0.00000000000E+00 0. -1.
          2   -1    0    0  501    0 -0.00000000000E+00 -0.00000000000E+00 -0.14068223653E+03  0.14068223653E+03  0.00000000000E+00 0. -1.
    9000006    2    1    2  501    0  0.00000000000E+00  0.00000000000E+00  0.85931776347E+03  0.11406822365E+04  0.75015261523E+03 0.  0.
         13    1    3    3    0    0 -0.36537417748E+03  0.76306026384E+02  0.48576341107E+03  0.61260671786E+03  0.00000000000E+00 0. -1.
          4    1    3    3  501    0  0.36537417748E+03 -0.76306026384E+02  0.37355435239E+03  0.52807551867E+03  0.00000000000E+00 0. -1.
<mgrwt>
<rscale>  0 0.75015262E+03</rscale>
<asrwt>0</asrwt>
<pdfrwt beam="1">0</pdfrwt>
<pdfrwt beam="2">  1        2 0.51157285E+00 0.75015262E+03</pdfrwt>
<totfact> 0.14169709E+00</totfact>
</mgrwt>
</event>
<event>
 5    1  0.2349912E-004  0.6442456E+03  0.7818608E-02  0.9817637E-01
         13   -1    0    0    0    0  0.00000000000E+00  0.00000000000E+00  0.10000000000E+04  0.10000000000E+04  0.00000000000E+00 0. -1.
          2   -1    0    0  501    0 -0.00000000000E+00 -0.00000000000E+00 -0.10376311331E+03  0.10376311331E+03  0.00000000000E+00 0. -1.
    9000006    2    1    2  501    0  0.00000000000E+00  0.00000000000E+00  0.89623688669E+03  0.11037631133E+04  0.64424564665E+03 0.  0.
         13    1    3    3    0    0  0.20927415818E+03 -0.24033040683E+03  0.52863704931E+03  0.61726129608E+03  0.00000000000E+00 0. -1.
          4    1    3    3  501    0 -0.20927415818E+03  0.24033040683E+03  0.36759983738E+03  0.48650181723E+03  0.00000000000E+00 0. -1.
<mgrwt>
<rscale>  0 0.64424565E+03</rscale>
<asrwt>0</asrwt>
<pdfrwt beam="1">0</pdfrwt>
<pdfrwt beam="2">  1        2 0.37732121E+00 0.64424565E+03</pdfrwt>
<totfact> 0.48378858E+00</totfact>
</mgrwt>
</event>
<event>
 5    1  0.2349912E-004  0.6572913E+03  0.7818608E-02  0.9793193E-01
         13   -1    0    0    0    0  0.00000000000E+00  0.00000000000E+00  0.10000000000E+04  0.10000000000E+04  0.00000000000E+00 0. -1.
          2   -1    0    0  501    0 -0.00000000000E+00 -0.00000000000E+00 -0.10800797204E+03  0.10800797204E+03  0.00000000000E+00 0. -1.
    9000006    2    1    2  501    0  0.00000000000E+00  0.00000000000E+00  0.89199202796E+03  0.11080079720E+04  0.65729132672E+03 0.  0.
         13    1    3    3    0    0 -0.20396205014E+03 -0.21805803546E+03  0.21450480899E+03  0.36764403681E+03  0.00000000000E+00 0. -1.
          2    1    3    3  501    0  0.20396205014E+03  0.21805803546E+03  0.67748721897E+03  0.74036393523E+03  0.00000000000E+00 0. -1.
<mgrwt>
<rscale>  0 0.65729133E+03</rscale>
<asrwt>0</asrwt>
<pdfrwt beam="1">0</pdfrwt>
<pdfrwt beam="2">  1        2 0.39275709E+00 0.65729133E+03</pdfrwt>
<totfact> 0.42367190E+00</totfact>
</mgrwt>
</event>
<event>
 5    1  0.2349912E-004  0.6354551E+03  0.7818608E-02  0.9834461E-01
         13   -1    0    0    0    0  0.00000000000E+00  0.00000000000E+00  0.10000000000E+04  0.10000000000E+04  0.00000000000E+00 0. -1.
          2   -1    0    0  501    0 -0.00000000000E+00 -0.00000000000E+00 -0.10095079623E+03  0.10095079623E+03  0.00000000000E+00 0. -1.
    9000006    2    1    2  501    0  0.00000000000E+00  0.00000000000E+00  0.89904920377E+03  0.11009507962E+04  0.63545510064E+03 0.  0.
         13    1    3    3    0    0 -0.10369160103E+03 -0.95540785242E+02  0.94282933963E+03  0.95331377491E+03  0.00000000000E+00 0. -1.
          4    1    3    3  501    0  0.10369160103E+03  0.95540785242E+02 -0.43780135859E+02  0.14763702132E+03  0.00000000000E+00 0. -1.
<mgrwt>
<rscale>  0 0.63545510E+03</rscale>
<asrwt>0</asrwt>
<pdfrwt beam="1">0</pdfrwt>
<pdfrwt beam="2">  1        2 0.36709458E+00 0.63545510E+03</pdfrwt>
<totfact> 0.52779379E+00</totfact>
</mgrwt>
</event>
<event>
 5    1  0.2349912E-004  0.6466624E+03  0.7818608E-02  0.9813062E-01
         13   -1    0    0    0    0  0.00000000000E+00  0.00000000000E+00  0.10000000000E+04  0.10000000000E+04  0.00000000000E+00 0. -1.
          2   -1    0    0  501    0 -0.00000000000E+00 -0.00000000000E+00 -0.10454307654E+03  0.10454307654E+03  0.00000000000E+00 0. -1.
    9000006    2    1    2  501    0  0.00000000000E+00  0.00000000000E+00  0.89545692346E+03  0.11045430765E+04  0.64666243601E+03 0.  0.
         13    1    3    3    0    0  0.22329185001E+03 -0.23373608196E+03  0.45995877864E+03  0.56218669883E+03  0.00000000000E+00 0. -1.
          4    1    3    3  501    0 -0.22329185001E+03  0.23373608196E+03  0.43549814482E+03  0.54235637771E+03  0.00000000000E+00 0. -1.
<mgrwt>
<rscale>  0 0.64666244E+03</rscale>
<asrwt>0</asrwt>
<pdfrwt beam="1">0</pdfrwt>
<pdfrwt beam="2">  1        2 0.38015744E+00 0.64666244E+03</pdfrwt>
<totfact> 0.47219346E+00</totfact>
</mgrwt>
</event>
<event>
 5    1  0.2349912E-004  0.7561566E+03  0.7818608E-02  0.9625741E-01
         13   -1    0    0    0    0  0.00000000000E+00  0.00000000000E+00  0.10000000000E+04  0.10000000000E+04  0.00000000000E+00 0. -1.
          2   -1    0    0  501    0 -0.00000000000E+00 -0.00000000000E+00 -0.14294319795E+03  0.14294319795E+03  0.00000000000E+00 0. -1.
    9000006    2    1    2  501    0  0.00000000000E+00  0.00000000000E+00  0.85705680205E+03  0.11429431979E+04  0.75615659211E+03 0.  0.
         13    1    3    3    0    0  0.33822867528E+03  0.11162405212E+03  0.62022679364E+03  0.71522013488E+03  0.00000000000E+00 0. -1.
          2    1    3    3  501    0 -0.33822867528E+03 -0.11162405212E+03  0.23683000841E+03  0.42772306306E+03  0.00000000000E+00 0. -1.
<mgrwt>
<rscale>  0 0.75615659E+03</rscale>
<asrwt>0</asrwt>
<pdfrwt beam="1">0</pdfrwt>
<pdfrwt beam="2">  1        2 0.51979454E+00 0.75615659E+03</pdfrwt>
<totfact> 0.13052133E+00</totfact>
</mgrwt>
</event>
<event>
 5    1  0.2349912E-004  0.6533331E+03  0.7818608E-02  0.9800545E-01
         13   -1    0    0    0    0  0.00000000000E+00  0.00000000000E+00  0.10000000000E+04  0.10000000000E+04  0.00000000000E+00 0. -1.
          2   -1    0    0  501    0 -0.00000000000E+00 -0.00000000000E+00 -0.10671104708E+03  0.10671104708E+03  0.00000000000E+00 0. -1.
    9000006    2    1    2  501    0  0.00000000000E+00  0.00000000000E+00  0.89328895292E+03  0.11067110471E+04  0.65333313733E+03 0.  0.
         13    1    3    3    0    0 -0.17226575847E+03 -0.80950153007E+02 -0.30738686831E+01  0.19036246343E+03  0.00000000000E+00 0. -1.
          2    1    3    3  501    0  0.17226575847E+03  0.80950153007E+02  0.89636282160E+03  0.91634858365E+03  0.00000000000E+00 0. -1.
<mgrwt>
<rscale>  0 0.65333314E+03</rscale>
<asrwt>0</asrwt>
<pdfrwt beam="1">0</pdfrwt>
<pdfrwt beam="2">  1        2 0.38804099E+00 0.65333314E+03</pdfrwt>
<totfact> 0.44127800E+00</totfact>
</mgrwt>
</event>
<event>
 5    1  0.2349912E-004  0.6117390E+03  0.7818608E-02  0.9881346E-01
         13   -1    0    0    0    0  0.00000000000E+00  0.00000000000E+00  0.10000000000E+04  0.10000000000E+04  0.00000000000E+00 0. -1.
          2   -1    0    0  501    0 -0.00000000000E+00 -0.00000000000E+00 -0.93556160512E+02  0.93556160512E+02  0.00000000000E+00 0. -1.
    9000006    2    1    2  501    0  0.00000000000E+00  0.00000000000E+00  0.90644383949E+03  0.10935561605E+04  0.61173903100E+03 0.  0.
         13    1    3    3    0    0  0.55943188669E+02 -0.28753470448E+03  0.61059648601E+03  0.67722515854E+03  0.00000000000E+00 0. -1.
          2    1    3    3  501    0 -0.55943188669E+02  0.28753470448E+03  0.29584735348E+03  0.41633100197E+03  0.00000000000E+00 0. -1.
<mgrwt>
<rscale>  0 0.61173903E+03</rscale>
<asrwt>0</asrwt>
<pdfrwt beam="1">0</pdfrwt>
<pdfrwt beam="2">  1        2 0.34020494E+00 0.61173903E+03</pdfrwt>
<totfact> 0.66174111E+00</totfact>
</mgrwt>
</event>
<event>
 5    1  0.2349912E-004  0.6753748E+03  0.7818608E-02  0.9760297E-01
         13   -1    0    0    0    0  0.00000000000E+00  0.00000000000E+00  0.10000000000E+04  0.10000000000E+04  0.00000000000E+00 0. -1.
          2   -1    0    0  501    0 -0.00000000000E+00 -0.00000000000E+00 -0.11403279575E+03  0.11403279575E+03  0.00000000000E+00 0. -1.
    9000006    2    1    2  501    0  0.00000000000E+00  0.00000000000E+00  0.88596720425E+03  0.11140327958E+04  0.67537484630E+03 0.  0.
         13    1    3    3    0    0 -0.90980629391E+02  0.18272336315E+03  0.88671980167E+03  0.90991060497E+03  0.00000000000E+00 0. -1.
          2    1    3    3  501    0  0.90980629391E+02 -0.18272336315E+03 -0.75259742389E+00  0.20412219078E+03  0.00000000000E+00 0. -1.
<mgrwt>
<rscale>  0 0.67537485E+03</rscale>
<asrwt>0</asrwt>
<pdfrwt beam="1">0</pdfrwt>
<pdfrwt beam="2">  1        2 0.41466559E+00 0.67537485E+03</pdfrwt>
<totfact> 0.34988451E+00</totfact>
</mgrwt>
</event>
<event>
 5    1  0.2349912E-004  0.6474629E+03  0.7818608E-02  0.9811552E-01
         13   -1    0    0    0    0  0.00000000000E+00  0.00000000000E+00  0.10000000000E+04  0.10000000000E+04  0.00000000000E+00 0. -1.
          2   -1    0    0  501    0 -0.00000000000E+00 -0.00000000000E+00 -0.10480205482E+03  0.10480205482E+03  0.00000000000E+00 0. -1.
    9000006    2    1    2  501    0  0.00000000000E+00  0.00000000000E+00  0.89519794518E+03  0.11048020548E+04  0.64746290959E+03 0.  0.
         13    1    3    3    0    0  0.93255602384E+02  0.25695119099E+02 -0.79566118833E+02  0.12525020474E+03  0.00000000000E+00 0. -1.
          4    1    3    3  501    0 -0.93255602384E+02 -0.25695119099E+02  0.97476406401E+03  0.97955185008E+03  0.00000000000E+00 0. -1.
<mgrwt>
<rscale>  0 0.64746291E+03</rscale>
<asrwt>0</asrwt>
<pdfrwt beam="1">0</pdfrwt>
<pdfrwt beam="2">  1        2 0.38109918E+00 0.64746291E+03</pdfrwt>
<totfact> 0.46839974E+00</totfact>
</mgrwt>
</event>
<event>
 5    1  0.2349912E-004  0.6486504E+03  0.7818608E-02  0.9809315E-01
         13   -1    0    0    0    0  0.00000000000E+00  0.00000000000E+00  0.10000000000E+04  0.10000000000E+04  0.00000000000E+00 0. -1.
          2   -1    0    0  501    0 -0.00000000000E+00 -0.00000000000E+00 -0.10518682964E+03  0.10518682964E+03  0.00000000000E+00 0. -1.
    9000006    2    1    2  501    0  0.00000000000E+00  0.00000000000E+00  0.89481317036E+03  0.11051868296E+04  0.64865038237E+03 0.  0.
         13    1    3    3    0    0  0.18335321772E+03 -0.26003857032E+03  0.34034494403E+03  0.46591108748E+03  0.00000000000E+00 0. -1.
          2    1    3    3  501    0 -0.18335321772E+03  0.26003857032E+03  0.55446822633E+03  0.63927574216E+03  0.00000000000E+00 0. -1.
<mgrwt>
<rscale>  0 0.64865038E+03</rscale>
<asrwt>0</asrwt>
<pdfrwt beam="1">0</pdfrwt>
<pdfrwt beam="2">  1        2 0.38249837E+00 0.64865038E+03</pdfrwt>
<totfact> 0.46281442E+00</totfact>
</mgrwt>
</event>
<event>
 5    1  0.2349912E-004  0.6407243E+03  0.7818608E-02  0.9824342E-01
         13   -1    0    0    0    0  0.00000000000E+00  0.00000000000E+00  0.10000000000E+04  0.10000000000E+04  0.00000000000E+00 0. -1.
          2   -1    0    0  501    0 -0.00000000000E+00 -0.00000000000E+00 -0.10263189939E+03  0.10263189939E+03  0.00000000000E+00 0. -1.
    9000006    2    1    2  501    0  0.00000000000E+00  0.00000000000E+00  0.89736810061E+03  0.11026318994E+04  0.64072427577E+03 0.  0.
         13    1    3    3    0    0  0.28642837052E+03  0.82022849786E+02  0.65130625966E+03  0.71621840468E+03  0.00000000000E+00 0. -1.
          2    1    3    3  501    0 -0.28642837052E+03 -0.82022849786E+02  0.24606184095E+03  0.38641349471E+03  0.00000000000E+00 0. -1.
<mgrwt>
<rscale>  0 0.64072428E+03</rscale>
<asrwt>0</asrwt>
<pdfrwt beam="1">0</pdfrwt>
<pdfrwt beam="2">  1        2 0.37320769E+00 0.64072428E+03</pdfrwt>
<totfact> 0.50106828E+00</totfact>
</mgrwt>
</event>
<event>
 5    1  0.2349912E-004  0.6583158E+03  0.7818608E-02  0.9791299E-01
         13   -1    0    0    0    0  0.00000000000E+00  0.00000000000E+00  0.10000000000E+04  0.10000000000E+04  0.00000000000E+00 0. -1.
          2   -1    0    0  501    0 -0.00000000000E+00 -0.00000000000E+00 -0.10834493510E+03  0.10834493510E+03  0.00000000000E+00 0. -1.
    9000006    2    1    2  501    0  0.00000000000E+00  0.00000000000E+00  0.89165506490E+03  0.11083449351E+04  0.65831583637E+03 0.  0.
         13    1    3    3    0    0  0.12457962482E+02  0.31693221862E+03  0.29767298561E+03  0.43498326220E+03  0.00000000000E+00 0. -1.
          2    1    3    3  501    0 -0.12457962482E+02 -0.31693221862E+03  0.59398207928E+03  0.67336167290E+03  0.00000000000E+00 0. -1.
<mgrwt>
<rscale>  0 0.65831584E+03</rscale>
<asrwt>0</asrwt>
<pdfrwt beam="1">0</pdfrwt>
<pdfrwt beam="2">  1        2 0.39398241E+00 0.65831584E+03</pdfrwt>
<totfact> 0.41920262E+00</totfact>
</mgrwt>
</event>
<event>
 5    1  0.2349912E-004  0.6304968E+03  0.7818608E-02  0.9844080E-01
         13   -1    0    0    0    0  0.00000000000E+00  0.00000000000E+00  0.10000000000E+04  0.10000000000E+04  0.00000000000E+00 0. -1.
          2   -1    0    0  501    0 -0.00000000000E+00 -0.00000000000E+00 -0.99381559148E+02  0.99381559148E+02  0.00000000000E+00 0. -1.
    9000006    2    1    2  501    0  0.00000000000E+00  0.00000000000E+00  0.90061844085E+03  0.10993815591E+04  0.63049681727E+03 0.  0.
         13    1    3    3    0    0 -0.35410600926E+02  0.26780943930E+03  0.16696469549E+03  0.31757363867E+03  0.00000000000E+00 0. -1.
          2    1    3    3  501    0  0.35410600926E+02 -0.26780943930E+03  0.73365374536E+03  0.78180792048E+03  0.00000000000E+00 0. -1.
<mgrwt>
<rscale>  0 0.63049682E+03</rscale>
<asrwt>0</asrwt>
<pdfrwt beam="1">0</pdfrwt>
<pdfrwt beam="2">  1        2 0.36138825E+00 0.63049682E+03</pdfrwt>
<totfact> 0.55391617E+00</totfact>
</mgrwt>
</event>
<event>
 5    1  0.2349912E-004  0.6876489E+03  0.7818608E-02  0.9738590E-01
         13   -1    0    0    0    0  0.00000000000E+00  0.00000000000E+00  0.10000000000E+04  0.10000000000E+04  0.00000000000E+00 0. -1.
          2   -1    0    0  501    0 -0.00000000000E+00 -0.00000000000E+00 -0.11821526565E+03  0.11821526565E+03  0.00000000000E+00 0. -1.
    9000006    2    1    2  501    0  0.00000000000E+00  0.00000000000E+00  0.88178473435E+03  0.11182152656E+04  0.68764893848E+03 0.  0.
         13    1    3    3    0    0  0.31803022456E+03 -0.40803788773E+02  0.64273782844E+03  0.71827577505E+03  0.00000000000E+00 0. -1.
          2    1    3    3  501    0 -0.31803022456E+03  0.40803788773E+02  0.23904690591E+03  0.39993949060E+03  0.00000000000E+00 0. -1.
<mgrwt>
<rscale>  0 0.68764894E+03</rscale>
<asrwt>0</asrwt>
<pdfrwt beam="1">0</pdfrwt>
<pdfrwt beam="2">  1        2 0.42987460E+00 0.68764894E+03</pdfrwt>
<totfact> 0.30563459E+00</totfact>
</mgrwt>
</event>
<event>
 5    1  0.2349912E-004  0.6508977E+03  0.7818608E-02  0.9805096E-01
         13   -1    0    0    0    0  0.00000000000E+00  0.00000000000E+00  0.10000000000E+04  0.10000000000E+04  0.00000000000E+00 0. -1.
          2   -1    0    0  501    0 -0.00000000000E+00 -0.00000000000E+00 -0.10591694964E+03  0.10591694964E+03  0.00000000000E+00 0. -1.
    9000006    2    1    2  501    0  0.00000000000E+00  0.00000000000E+00  0.89408305036E+03  0.11059169496E+04  0.65089768670E+03 0.  0.
         13    1    3    3    0    0 -0.14655061305E+03  0.14821481299E+03  0.22369832007E+02  0.20963091938E+03  0.00000000000E+00 0. -1.
          2    1    3    3  501    0  0.14655061305E+03 -0.14821481299E+03  0.87171321836E+03  0.89628603026E+03  0.00000000000E+00 0. -1.
<mgrwt>
<rscale>  0 0.65089769E+03</rscale>
<asrwt>0</asrwt>
<pdfrwt beam="1">0</pdfrwt>
<pdfrwt beam="2">  1        2 0.38515336E+00 0.65089769E+03</pdfrwt>
<totfact> 0.45238207E+00</totfact>
</mgrwt>
</event>
<event>
 5    1  0.2349912E-004  0.5986818E+03  0.7818608E-02  0.9908145E-01
         13   -1    0    0    0    0  0.00000000000E+00  0.00000000000E+00  0.10000000000E+04  0.10000000000E+04  0.00000000000E+00 0. -1.
          2   -1    0    0  501    0 -0.00000000000E+00 -0.00000000000E+00 -0.89604964823E+02  0.89604964823E+02  0.00000000000E+00 0. -1.
    9000006    2    1    2  501    0  0.00000000000E+00  0.00000000000E+00  0.91039503518E+03  0.10896049648E+04  0.59868176796E+03 0.  0.
         13    1    3    3    0    0  0.19179550911E+03  0.22773188130E+03  0.39887608811E+03  0.49774437289E+03  0.00000000000E+00 0. -1.
          2    1    3    3  501    0 -0.19179550911E+03 -0.22773188130E+03  0.51151894706E+03  0.59186059193E+03  0.00000000000E+00 0. -1.
<mgrwt>
<rscale>  0 0.59868177E+03</rscale>
<asrwt>0</asrwt>
<pdfrwt beam="1">0</pdfrwt>
<pdfrwt beam="2">  1        2 0.32583692E+00 0.59868177E+03</pdfrwt>
<totfact> 0.74576536E+00</totfact>
</mgrwt>
</event>
<event>
 5    1  0.2349912E-004  0.6414490E+03  0.7818608E-02  0.9822958E-01
         13   -1    0    0    0    0  0.00000000000E+00  0.00000000000E+00  0.10000000000E+04  0.10000000000E+04  0.00000000000E+00 0. -1.
          2   -1    0    0  501    0 -0.00000000000E+00 -0.00000000000E+00 -0.10286420899E+03  0.10286420899E+03  0.00000000000E+00 0. -1.
    9000006    2    1    2  501    0  0.00000000000E+00  0.00000000000E+00  0.89713579101E+03  0.11028642090E+04  0.64144901274E+03 0.  0.
         13    1    3    3    0    0  0.11092169570E+03 -0.11441067327E+02  0.96559750953E+03  0.97201495411E+03  0.00000000000E+00 0. -1.
          2    1    3    3  501    0 -0.11092169570E+03  0.11441067327E+02 -0.68461718519E+02  0.13084925487E+03  0.00000000000E+00 0. -1.
<mgrwt>
<rscale>  0 0.64144901E+03</rscale>
<asrwt>0</asrwt>
<pdfrwt beam="1">0</pdfrwt>
<pdfrwt beam="2">  1        2 0.37405246E+00 0.64144901E+03</pdfrwt>
<totfact> 0.49747419E+00</totfact>
</mgrwt>
</event>
<event>
 5    1  0.2349912E-004  0.6519521E+03  0.7818608E-02  0.9803123E-01
         13   -1    0    0    0    0  0.00000000000E+00  0.00000000000E+00  0.10000000000E+04  0.10000000000E+04  0.00000000000E+00 0. -1.
          2   -1    0    0  501    0 -0.00000000000E+00 -0.00000000000E+00 -0.10626038068E+03  0.10626038068E+03  0.00000000000E+00 0. -1.
    9000006    2    1    2  501    0  0.00000000000E+00  0.00000000000E+00  0.89373961932E+03  0.11062603807E+04  0.65195208621E+03 0.  0.
         13    1    3    3    0    0  0.52106392634E+02  0.18659348136E+03  0.20244213930E+01  0.19374287528E+03  0.00000000000E+00 0. -1.
          2    1    3    3  501    0 -0.52106392634E+02 -0.18659348136E+03  0.89171519793E+03  0.91251750540E+03  0.00000000000E+00 0. -1.
<mgrwt>
<rscale>  0 0.65195209E+03</rscale>
<asrwt>0</asrwt>
<pdfrwt beam="1">0</pdfrwt>
<pdfrwt beam="2">  1        2 0.38640220E+00 0.65195209E+03</pdfrwt>
<totfact> 0.44754910E+00</totfact>
</mgrwt>
</event>
<event>
 5    1  0.2349912E-004  0.6471847E+03  0.7818608E-02  0.9812076E-01
         13   -1    0    0    0    0  0.00000000000E+00  0.00000000000E+00  0.10000000000E+04  0.10000000000E+04  0.00000000000E+00 0. -1.
          2   -1    0    0  501    0 -0.00000000000E+00 -0.00000000000E+00 -0.10471201586E+03  0.10471201586E+03  0.00000000000E+00 0. -1.
    9000006    2    1    2  501    0  0.00000000000E+00  0.00000000000E+00  0.89528798414E+03  0.11047120159E+04  0.64718472125E+03 0.  0.
         13    1    3    3    0    0 -0.65745369401E+02 -0.17543511248E+03  0.89800744309E+03  0.91734252062E+03  0.00000000000E+00 0. -1.
          4    1    3    3  501    0  0.65745369401E+02  0.17543511248E+03 -0.27194589454E+01  0.18736949524E+03  0.00000000000E+00 0. -1.
<mgrwt>
<rscale>  0 0.64718472E+03</rscale>
<asrwt>0</asrwt>
<pdfrwt beam="1">0</pdfrwt>
<pdfrwt beam="2">  1        2 0.38077177E+00 0.64718472E+03</pdfrwt>
<totfact> 0.46971555E+00</totfact>
</mgrwt>
</event>
<event>
 5    1  0.2349912E-004  0.4777539E+03  0.7818608E-02  0.1019754E+00
         13   -1    0    0    0    0  0.00000000000E+00  0.00000000000E+00  0.10000000000E+04  0.10000000000E+04  0.00000000000E+00 0. -1.
          2   -1    0    0  501    0 -0.00000000000E+00 -0.00000000000E+00 -0.57062208840E+02  0.57062208840E+02  0.00000000000E+00 0. -1.
    9000006    2    1    2  501    0  0.00000000000E+00  0.00000000000E+00  0.94293779116E+03  0.10570622088E+04  0.47775394856E+03 0.  0.
         13    1    3    3    0    0 -0.21408201853E+03 -0.87887732199E+02  0.34044378681E+03  0.41165195992E+03  0.00000000000E+00 0. -1.
          4    1    3    3  501    0  0.21408201853E+03  0.87887732199E+02  0.60249400435E+03  0.64541024892E+03  0.00000000000E+00 0. -1.
<mgrwt>
<rscale>  0 0.47775395E+03</rscale>
<asrwt>0</asrwt>
<pdfrwt beam="1">0</pdfrwt>
<pdfrwt beam="2">  1        2 0.20749938E+00 0.47775395E+03</pdfrwt>
<totfact> 0.19917545E+01</totfact>
</mgrwt>
</event>
<event>
 5    1  0.2349912E-004  0.6327573E+03  0.7818608E-02  0.9839683E-01
         13   -1    0    0    0    0  0.00000000000E+00  0.00000000000E+00  0.10000000000E+04  0.10000000000E+04  0.00000000000E+00 0. -1.
          2   -1    0    0  501    0 -0.00000000000E+00 -0.00000000000E+00 -0.10009544778E+03  0.10009544778E+03  0.00000000000E+00 0. -1.
    9000006    2    1    2  501    0  0.00000000000E+00  0.00000000000E+00  0.89990455222E+03  0.11000954478E+04  0.63275729241E+03 0.  0.
         13    1    3    3    0    0  0.85085632851E+02 -0.24086536736E+03  0.12544026845E+03  0.28458909160E+03  0.00000000000E+00 0. -1.
          4    1    3    3  501    0 -0.85085632851E+02  0.24086536736E+03  0.77446428378E+03  0.81550635617E+03  0.00000000000E+00 0. -1.
<mgrwt>
<rscale>  0 0.63275729E+03</rscale>
<asrwt>0</asrwt>
<pdfrwt beam="1">0</pdfrwt>
<pdfrwt beam="2">  1        2 0.36398421E+00 0.63275729E+03</pdfrwt>
<totfact> 0.54188826E+00</totfact>
</mgrwt>
</event>
<event>
 5    1  0.2349912E-004  0.6264311E+03  0.7818608E-02  0.9852038E-01
         13   -1    0    0    0    0  0.00000000000E+00  0.00000000000E+00  0.10000000000E+04  0.10000000000E+04  0.00000000000E+00 0. -1.
          2   -1    0    0  501    0 -0.00000000000E+00 -0.00000000000E+00 -0.98103971431E+02  0.98103971431E+02  0.00000000000E+00 0. -1.
    9000006    2    1    2  501    0  0.00000000000E+00  0.00000000000E+00  0.90189602857E+03  0.10981039714E+04  0.62643107021E+03 0.  0.
         13    1    3    3    0    0  0.25531579480E+03 -0.18078812222E+03  0.42416331038E+03  0.52705314161E+03  0.00000000000E+00 0. -1.
          4    1    3    3  501    0 -0.25531579480E+03  0.18078812222E+03  0.47773271819E+03  0.57105082982E+03  0.00000000000E+00 0. -1.
<mgrwt>
<rscale>  0 0.62643107E+03</rscale>
<asrwt>0</asrwt>
<pdfrwt beam="1">0</pdfrwt>
<pdfrwt beam="2">  1        2 0.35674247E+00 0.62643107E+03</pdfrwt>
<totfact> 0.57605902E+00</totfact>
</mgrwt>
</event>
<event>
 5    1  0.2349912E-004  0.6427798E+03  0.7818608E-02  0.9820422E-01
         13   -1    0    0    0    0  0.00000000000E+00  0.00000000000E+00  0.10000000000E+04  0.10000000000E+04  0.00000000000E+00 0. -1.
          2   -1    0    0  501    0 -0.00000000000E+00 -0.00000000000E+00 -0.10329148322E+03  0.10329148322E+03  0.00000000000E+00 0. -1.
    9000006    2    1    2  501    0  0.00000000000E+00  0.00000000000E+00  0.89670851678E+03  0.11032914832E+04  0.64277984791E+03 0.  0.
         13    1    3    3    0    0  0.19382632045E+03 -0.24177924578E+03  0.59466117648E+03  0.67055779841E+03  0.00000000000E+00 0. -1.
          4    1    3    3  501    0 -0.19382632045E+03  0.24177924578E+03  0.30204734030E+03  0.43273368481E+03  0.00000000000E+00 0. -1.
<mgrwt>
<rscale>  0 0.64277985E+03</rscale>
<asrwt>0</asrwt>
<pdfrwt beam="1">0</pdfrwt>
<pdfrwt beam="2">  1        2 0.37560619E+00 0.64277985E+03</pdfrwt>
<totfact> 0.49092528E+00</totfact>
</mgrwt>
</event>
<event>
 5    1  0.2349912E-004  0.6629220E+03  0.7818608E-02  0.9782830E-01
         13   -1    0    0    0    0  0.00000000000E+00  0.00000000000E+00  0.10000000000E+04  0.10000000000E+04  0.00000000000E+00 0. -1.
          2   -1    0    0  501    0 -0.00000000000E+00 -0.00000000000E+00 -0.10986639327E+03  0.10986639327E+03  0.00000000000E+00 0. -1.
    9000006    2    1    2  501    0  0.00000000000E+00  0.00000000000E+00  0.89013360673E+03  0.11098663933E+04  0.66292199623E+03 0.  0.
         13    1    3    3    0    0 -0.30468482984E+03 -0.34328569737E+02  0.23425606764E+03  0.38585904351E+03  0.00000000000E+00 0. -1.
          2    1    3    3  501    0  0.30468482984E+03  0.34328569737E+02  0.65587753908E+03  0.72400734976E+03  0.00000000000E+00 0. -1.
<mgrwt>
<rscale>  0 0.66292200E+03</rscale>
<asrwt>0</asrwt>
<pdfrwt beam="1">0</pdfrwt>
<pdfrwt beam="2">  1        2 0.39951500E+00 0.66292200E+03</pdfrwt>
<totfact> 0.39954845E+00</totfact>
</mgrwt>
</event>
<event>
 5    1  0.2349912E-004  0.6604976E+03  0.7818608E-02  0.9787278E-01
         13   -1    0    0    0    0  0.00000000000E+00  0.00000000000E+00  0.10000000000E+04  0.10000000000E+04  0.00000000000E+00 0. -1.
          2   -1    0    0  501    0 -0.00000000000E+00 -0.00000000000E+00 -0.10906425900E+03  0.10906425900E+03  0.00000000000E+00 0. -1.
    9000006    2    1    2  501    0  0.00000000000E+00  0.00000000000E+00  0.89093574100E+03  0.11090642590E+04  0.66049756700E+03 0.  0.
         13    1    3    3    0    0 -0.10464496920E+03 -0.92241300031E+02 -0.57166487606E+02  0.15075488156E+03  0.00000000000E+00 0. -1.
          2    1    3    3  501    0  0.10464496920E+03  0.92241300031E+02  0.94810222860E+03  0.95830937744E+03  0.00000000000E+00 0. -1.
<mgrwt>
<rscale>  0 0.66049757E+03</rscale>
<asrwt>0</asrwt>
<pdfrwt beam="1">0</pdfrwt>
<pdfrwt beam="2">  1        2 0.39659814E+00 0.66049757E+03</pdfrwt>
<totfact> 0.40980452E+00</totfact>
</mgrwt>
</event>
<event>
 5    1  0.2349912E-004  0.6144810E+03  0.7818608E-02  0.9875810E-01
         13   -1    0    0    0    0  0.00000000000E+00  0.00000000000E+00  0.10000000000E+04  0.10000000000E+04  0.00000000000E+00 0. -1.
          2   -1    0    0  501    0 -0.00000000000E+00 -0.00000000000E+00 -0.94396719829E+02  0.94396719829E+02  0.00000000000E+00 0. -1.
    9000006    2    1    2  501    0  0.00000000000E+00  0.00000000000E+00  0.90560328017E+03  0.10943967198E+04  0.61448098369E+03 0.  0.
         13    1    3    3    0    0  0.83466790796E+02  0.29318856311E+03  0.52109776490E+03  0.60371277881E+03  0.00000000000E+00 0. -1.
          2    1    3    3  501    0 -0.83466790796E+02 -0.29318856311E+03  0.38450551527E+03  0.49068394102E+03  0.00000000000E+00 0. -1.
<mgrwt>
<rscale>  0 0.61448098E+03</rscale>
<asrwt>0</asrwt>
<pdfrwt beam="1">0</pdfrwt>
<pdfrwt beam="2">  1        2 0.34326152E+00 0.61448098E+03</pdfrwt>
<totfact> 0.64505844E+00</totfact>
</mgrwt>
</event>
<event>
 5    1  0.2349912E-004  0.6550273E+03  0.7818608E-02  0.9797391E-01
         13   -1    0    0    0    0  0.00000000000E+00  0.00000000000E+00  0.10000000000E+04  0.10000000000E+04  0.00000000000E+00 0. -1.
          2   -1    0    0  501    0 -0.00000000000E+00 -0.00000000000E+00 -0.10726518935E+03  0.10726518935E+03  0.00000000000E+00 0. -1.
    9000006    2    1    2  501    0  0.00000000000E+00  0.00000000000E+00  0.89273481065E+03  0.11072651893E+04  0.65502729515E+03 0.  0.
         13    1    3    3    0    0 -0.14763165696E+02  0.82254798156E+02  0.98167377849E+03  0.98522444664E+03  0.00000000000E+00 0. -1.
          2    1    3    3  501    0  0.14763165696E+02 -0.82254798156E+02 -0.88938967836E+02  0.12204074271E+03  0.00000000000E+00 0. -1.
<mgrwt>
<rscale>  0 0.65502730E+03</rscale>
<asrwt>0</asrwt>
<pdfrwt beam="1">0</pdfrwt>
<pdfrwt beam="2">  1        2 0.39005606E+00 0.65502730E+03</pdfrwt>
<totfact> 0.43367606E+00</totfact>
</mgrwt>
</event>
<event>
 5    1  0.2349912E-004  0.6425907E+03  0.7818608E-02  0.9820782E-01
         13   -1    0    0    0    0  0.00000000000E+00  0.00000000000E+00  0.10000000000E+04  0.10000000000E+04  0.00000000000E+00 0. -1.
          2   -1    0    0  501    0 -0.00000000000E+00 -0.00000000000E+00 -0.10323070309E+03  0.10323070309E+03  0.00000000000E+00 0. -1.
    9000006    2    1    2  501    0  0.00000000000E+00  0.00000000000E+00  0.89676929691E+03  0.11032307031E+04  0.64259070360E+03 0.  0.
         13    1    3    3    0    0 -0.32086423304E+03  0.14771345365E+02  0.43523596730E+03  0.54092734810E+03  0.00000000000E+00 0. -1.
          4    1    3    3  501    0  0.32086423304E+03 -0.14771345365E+02  0.46153332961E+03  0.56230335499E+03  0.00000000000E+00 0. -1.
<mgrwt>
<rscale>  0 0.64259070E+03</rscale>
<asrwt>0</asrwt>
<pdfrwt beam="1">0</pdfrwt>
<pdfrwt beam="2">  1        2 0.37538517E+00 0.64259070E+03</pdfrwt>
<totfact> 0.49185201E+00</totfact>
</mgrwt>
</event>
<event>
 5    1  0.2349912E-004  0.6448242E+03  0.7818608E-02  0.9816540E-01
         13   -1    0    0    0    0  0.00000000000E+00  0.00000000000E+00  0.10000000000E+04  0.10000000000E+04  0.00000000000E+00 0. -1.
          2   -1    0    0  501    0 -0.00000000000E+00 -0.00000000000E+00 -0.10394954821E+03  0.10394954821E+03  0.00000000000E+00 0. -1.
    9000006    2    1    2  501    0  0.00000000000E+00  0.00000000000E+00  0.89605045179E+03  0.11039495482E+04  0.64482415654E+03 0.  0.
         13    1    3    3    0    0  0.75703476622E+01 -0.20795144002E+03  0.26408595947E+02  0.20975825492E+03  0.00000000000E+00 0. -1.
          2    1    3    3  501    0 -0.75703476622E+01  0.20795144002E+03  0.86964185584E+03  0.89419129329E+03  0.00000000000E+00 0. -1.
<mgrwt>
<rscale>  0 0.64482416E+03</rscale>
<asrwt>0</asrwt>
<pdfrwt beam="1">0</pdfrwt>
<pdfrwt beam="2">  1        2 0.37799915E+00 0.64482416E+03</pdfrwt>
<totfact> 0.48099364E+00</totfact>
</mgrwt>
</event>
<event>
 5    1  0.2349912E-004  0.6440009E+03  0.7818608E-02  0.9818102E-01
         13   -1    0    0    0    0  0.00000000000E+00  0.00000000000E+00  0.10000000000E+04  0.10000000000E+04  0.00000000000E+00 0. -1.
          2   -1    0    0  501    0 -0.00000000000E+00 -0.00000000000E+00 -0.10368427998E+03  0.10368427998E+03  0.00000000000E+00 0. -1.
    9000006    2    1    2  501    0  0.00000000000E+00  0.00000000000E+00  0.89631572002E+03  0.11036842800E+04  0.64400086950E+03 0.  0.
         13    1    3    3    0    0 -0.27525535303E+03  0.10269875084E+03  0.67403902985E+03  0.73528304520E+03  0.00000000000E+00 0. -1.
          4    1    3    3  501    0  0.27525535303E+03 -0.10269875084E+03  0.22227669017E+03  0.36840123478E+03  0.00000000000E+00 0. -1.
<mgrwt>
<rscale>  0 0.64400087E+03</rscale>
<asrwt>0</asrwt>
<pdfrwt beam="1">0</pdfrwt>
<pdfrwt beam="2">  1        2 0.37703454E+00 0.64400087E+03</pdfrwt>
<totfact> 0.48497486E+00</totfact>
</mgrwt>
</event>
<event>
 5    1  0.2349912E-004  0.6497900E+03  0.7818608E-02  0.9807173E-01
         13   -1    0    0    0    0  0.00000000000E+00  0.00000000000E+00  0.10000000000E+04  0.10000000000E+04  0.00000000000E+00 0. -1.
          2   -1    0    0  501    0 -0.00000000000E+00 -0.00000000000E+00 -0.10555677558E+03  0.10555677558E+03  0.00000000000E+00 0. -1.
    9000006    2    1    2  501    0  0.00000000000E+00  0.00000000000E+00  0.89444322442E+03  0.11055567756E+04  0.64979004480E+03 0.  0.
         13    1    3    3    0    0  0.67025975398E+02 -0.24646539529E+02  0.98648105485E+03  0.98906258895E+03  0.00000000000E+00 0. -1.
          2    1    3    3  501    0 -0.67025975398E+02  0.24646539529E+02 -0.92037830426E+02  0.11649418663E+03  0.00000000000E+00 0. -1.
<mgrwt>
<rscale>  0 0.64979004E+03</rscale>
<asrwt>0</asrwt>
<pdfrwt beam="1">0</pdfrwt>
<pdfrwt beam="2">  1        2 0.38384363E+00 0.64979004E+03</pdfrwt>
<totfact> 0.45750146E+00</totfact>
</mgrwt>
</event>
<event>
 5    1  0.2349912E-004  0.7239165E+03  0.7818608E-02  0.9677184E-01
         13   -1    0    0    0    0  0.00000000000E+00  0.00000000000E+00  0.10000000000E+04  0.10000000000E+04  0.00000000000E+00 0. -1.
          2   -1    0    0  501    0 -0.00000000000E+00 -0.00000000000E+00 -0.13101378883E+03  0.13101378883E+03  0.00000000000E+00 0. -1.
    9000006    2    1    2  501    0  0.00000000000E+00  0.00000000000E+00  0.86898621117E+03  0.11310137888E+04  0.72391653892E+03 0.  0.
         13    1    3    3    0    0 -0.80194456207E+02  0.12622774550E+03  0.94947582458E+03  0.96118101105E+03  0.00000000000E+00 0. -1.
          4    1    3    3  501    0  0.80194456207E+02 -0.12622774550E+03 -0.80489613413E+02  0.16983277778E+03  0.00000000000E+00 0. -1.
<mgrwt>
<rscale>  0 0.72391654E+03</rscale>
<asrwt>0</asrwt>
<pdfrwt beam="1">0</pdfrwt>
<pdfrwt beam="2">  1        2 0.47641478E+00 0.72391654E+03</pdfrwt>
<totfact> 0.19918788E+00</totfact>
</mgrwt>
</event>
<event>
 5    1  0.2349912E-004  0.6487281E+03  0.7818608E-02  0.9809169E-01
         13   -1    0    0    0    0  0.00000000000E+00  0.00000000000E+00  0.10000000000E+04  0.10000000000E+04  0.00000000000E+00 0. -1.
          2   -1    0    0  501    0 -0.00000000000E+00 -0.00000000000E+00 -0.10521204095E+03  0.10521204095E+03  0.00000000000E+00 0. -1.
    9000006    2    1    2  501    0  0.00000000000E+00  0.00000000000E+00  0.89478795905E+03  0.11052120410E+04  0.64872811239E+03 0.  0.
         13    1    3    3    0    0  0.38165005491E+02  0.17476073274E+03 -0.13584265574E+02  0.17939457524E+03  0.00000000000E+00 0. -1.
          4    1    3    3  501    0 -0.38165005491E+02 -0.17476073274E+03  0.90837222462E+03  0.92581746571E+03  0.00000000000E+00 0. -1.
<mgrwt>
<rscale>  0 0.64872811E+03</rscale>
<asrwt>0</asrwt>
<pdfrwt beam="1">0</pdfrwt>
<pdfrwt beam="2">  1        2 0.38259005E+00 0.64872811E+03</pdfrwt>
<totfact> 0.46245057E+00</totfact>
</mgrwt>
</event>
<event>
 5    1  0.2349912E-004  0.6631482E+03  0.7818608E-02  0.9782416E-01
         13   -1    0    0    0    0  0.00000000000E+00  0.00000000000E+00  0.10000000000E+04  0.10000000000E+04  0.00000000000E+00 0. -1.
          2   -1    0    0  501    0 -0.00000000000E+00 -0.00000000000E+00 -0.10994137516E+03  0.10994137516E+03  0.00000000000E+00 0. -1.
    9000006    2    1    2  501    0  0.00000000000E+00  0.00000000000E+00  0.89005862484E+03  0.11099413752E+04  0.66314817398E+03 0.  0.
         13    1    3    3    0    0 -0.38830714470E+01 -0.25997995640E+03  0.10064127080E+03  0.27880696075E+03  0.00000000000E+00 0. -1.
          2    1    3    3  501    0  0.38830714470E+01  0.25997995640E+03  0.78941735404E+03  0.83113441442E+03  0.00000000000E+00 0. -1.
<mgrwt>
<rscale>  0 0.66314817E+03</rscale>
<asrwt>0</asrwt>
<pdfrwt beam="1">0</pdfrwt>
<pdfrwt beam="2">  1        2 0.39978766E+00 0.66314817E+03</pdfrwt>
<totfact> 0.39860163E+00</totfact>
</mgrwt>
</event>
<event>
 5    1  0.2349912E-004  0.6474098E+03  0.7818608E-02  0.9811652E-01
         13   -1    0    0    0    0  0.00000000000E+00  0.00000000000E+00  0.10000000000E+04  0.10000000000E+04  0.00000000000E+00 0. -1.
          2   -1    0    0  501    0 -0.00000000000E+00 -0.00000000000E+00 -0.10478486088E+03  0.10478486088E+03  0.00000000000E+00 0. -1.
    9000006    2    1    2  501    0  0.00000000000E+00  0.00000000000E+00  0.89521513912E+03  0.11047848609E+04  0.64740979567E+03 0.  0.
         13    1    3    3    0    0  0.26337397209E+03 -0.17244510349E+03  0.31897897613E+03  0.44816375367E+03  0.00000000000E+00 0. -1.
          4    1    3    3  501    0 -0.26337397209E+03  0.17244510349E+03  0.57623616299E+03  0.65662110721E+03  0.00000000000E+00 0. -1.
<mgrwt>
<rscale>  0 0.64740980E+03</rscale>
<asrwt>0</asrwt>
<pdfrwt beam="1">0</pdfrwt>
<pdfrwt beam="2">  1        2 0.38103666E+00 0.64740980E+03</pdfrwt>
<totfact> 0.46865075E+00</totfact>
</mgrwt>
</event>
<event>
 5    1  0.2349912E-004  0.6276242E+03  0.7818608E-02  0.9849696E-01
         13   -1    0    0    0    0  0.00000000000E+00  0.00000000000E+00  0.10000000000E+04  0.10000000000E+04  0.00000000000E+00 0. -1.
          2   -1    0    0  501    0 -0.00000000000E+00 -0.00000000000E+00 -0.98478028474E+02  0.98478028474E+02  0.00000000000E+00 0. -1.
    9000006    2    1    2  501    0  0.00000000000E+00  0.00000000000E+00  0.90152197153E+03  0.10984780285E+04  0.62762418205E+03 0.  0.
         13    1    3    3    0    0  0.17560458487E+03 -0.18147247367E+03  0.12469049065E+03  0.28163264616E+03  0.00000000000E+00 0. -1.
          4    1    3    3  501    0 -0.17560458487E+03  0.18147247367E+03  0.77683148088E+03  0.81684538231E+03  0.00000000000E+00 0. -1.
<mgrwt>
<rscale>  0 0.62762418E+03</rscale>
<asrwt>0</asrwt>
<pdfrwt beam="1">0</pdfrwt>
<pdfrwt beam="2">  1        2 0.35810268E+00 0.62762418E+03</pdfrwt>
<totfact> 0.56949253E+00</totfact>
</mgrwt>
</event>
<event>
 5    1  0.2349912E-004  0.6804604E+03  0.7818608E-02  0.9751244E-01
         13   -1    0    0    0    0  0.00000000000E+00  0.00000000000E+00  0.10000000000E+04  0.10000000000E+04  0.00000000000E+00 0. -1.
          2   -1    0    0  501    0 -0.00000000000E+00 -0.00000000000E+00 -0.11575658034E+03  0.11575658034E+03  0.00000000000E+00 0. -1.
    9000006    2    1    2  501    0  0.00000000000E+00  0.00000000000E+00  0.88424341966E+03  0.11157565803E+04  0.68046037457E+03 0.  0.
         13    1    3    3    0    0  0.32416943628E+03  0.97350122178E+02  0.38546959221E+03  0.51298116557E+03  0.00000000000E+00 0. -1.
          2    1    3    3  501    0 -0.32416943628E+03 -0.97350122178E+02  0.49877382745E+03  0.60277541477E+03  0.00000000000E+00 0. -1.
<mgrwt>
<rscale>  0 0.68046037E+03</rscale>
<asrwt>0</asrwt>
<pdfrwt beam="1">0</pdfrwt>
<pdfrwt beam="2">  1        2 0.42093391E+00 0.68046037E+03</pdfrwt>
<totfact> 0.33100304E+00</totfact>
</mgrwt>
</event>
<event>
 5    1  0.2349912E-004  0.6397790E+03  0.7818608E-02  0.9826149E-01
         13   -1    0    0    0    0  0.00000000000E+00  0.00000000000E+00  0.10000000000E+04  0.10000000000E+04  0.00000000000E+00 0. -1.
          2   -1    0    0  501    0 -0.00000000000E+00 -0.00000000000E+00 -0.10232930721E+03  0.10232930721E+03  0.00000000000E+00 0. -1.
    9000006    2    1    2  501    0  0.00000000000E+00  0.00000000000E+00  0.89767069279E+03  0.11023293072E+04  0.63977904689E+03 0.  0.
         13    1    3    3    0    0  0.10371062907E+03 -0.10692600307E+03  0.93659589165E+03  0.94836750733E+03  0.00000000000E+00 0. -1.
          2    1    3    3  501    0 -0.10371062907E+03  0.10692600307E+03 -0.38925198855E+02  0.15396179988E+03  0.00000000000E+00 0. -1.
<mgrwt>
<rscale>  0 0.63977905E+03</rscale>
<asrwt>0</asrwt>
<pdfrwt beam="1">0</pdfrwt>
<pdfrwt beam="2">  1        2 0.37210736E+00 0.63977905E+03</pdfrwt>
<totfact> 0.50578532E+00</totfact>
</mgrwt>
</event>
<event>
 5    1  0.2349912E-004  0.6539998E+03  0.7818608E-02  0.9799303E-01
         13   -1    0    0    0    0  0.00000000000E+00  0.00000000000E+00  0.10000000000E+04  0.10000000000E+04  0.00000000000E+00 0. -1.
          2   -1    0    0  501    0 -0.00000000000E+00 -0.00000000000E+00 -0.10692894711E+03  0.10692894711E+03  0.00000000000E+00 0. -1.
    9000006    2    1    2  501    0  0.00000000000E+00  0.00000000000E+00  0.89307105289E+03  0.11069289471E+04  0.65399983825E+03 0.  0.
         13    1    3    3    0    0 -0.10710090598E+03  0.13340216044E+03 -0.25143936005E+02  0.17291315158E+03  0.00000000000E+00 0. -1.
          4    1    3    3  501    0  0.10710090598E+03 -0.13340216044E+03  0.91821498890E+03  0.93401579553E+03  0.00000000000E+00 0. -1.
<mgrwt>
<rscale>  0 0.65399984E+03</rscale>
<asrwt>0</asrwt>
<pdfrwt beam="1">0</pdfrwt>
<pdfrwt beam="2">  1        2 0.38883335E+00 0.65399984E+03</pdfrwt>
<totfact> 0.43827450E+00</totfact>
</mgrwt>
</event>
<event>
 5    1  0.2349912E-004  0.6469674E+03  0.7818608E-02  0.9812486E-01
         13   -1    0    0    0    0  0.00000000000E+00  0.00000000000E+00  0.10000000000E+04  0.10000000000E+04  0.00000000000E+00 0. -1.
          2   -1    0    0  501    0 -0.00000000000E+00 -0.00000000000E+00 -0.10464171503E+03  0.10464171503E+03  0.00000000000E+00 0. -1.
    9000006    2    1    2  501    0  0.00000000000E+00  0.00000000000E+00  0.89535828497E+03  0.11046417150E+04  0.64696743357E+03 0.  0.
         13    1    3    3    0    0 -0.24830237841E+03 -0.11995348063E+03  0.73642314566E+03  0.78635994183E+03  0.00000000000E+00 0. -1.
          2    1    3    3  501    0  0.24830237841E+03  0.11995348063E+03  0.15893513931E+03  0.31828177320E+03  0.00000000000E+00 0. -1.
<mgrwt>
<rscale>  0 0.64696743E+03</rscale>
<asrwt>0</asrwt>
<pdfrwt beam="1">0</pdfrwt>
<pdfrwt beam="2">  1        2 0.38051613E+00 0.64696743E+03</pdfrwt>
<totfact> 0.47074524E+00</totfact>
</mgrwt>
</event>
<event>
 5    1  0.2349912E-004  0.6411158E+03  0.7818608E-02  0.9823594E-01
         13   -1    0    0    0    0  0.00000000000E+00  0.00000000000E+00  0.10000000000E+04  0.10000000000E+04  0.00000000000E+00 0. -1.
          2   -1    0    0  501    0 -0.00000000000E+00 -0.00000000000E+00 -0.10275737940E+03  0.10275737940E+03  0.00000000000E+00 0. -1.
    9000006    2    1    2  501    0  0.00000000000E+00  0.00000000000E+00  0.89724262060E+03  0.11027573794E+04  0.64111583791E+03 0.  0.
         13    1    3    3    0    0  0.19145026564E+02  0.15214161459E+03 -0.35580098957E+02  0.15741520376E+03  0.00000000000E+00 0. -1.
          2    1    3    3  501    0 -0.19145026564E+02 -0.15214161459E+03  0.93282271955E+03  0.94534217564E+03  0.00000000000E+00 0. -1.
<mgrwt>
<rscale>  0 0.64111584E+03</rscale>
<asrwt>0</asrwt>
<pdfrwt beam="1">0</pdfrwt>
<pdfrwt beam="2">  1        2 0.37366399E+00 0.64111584E+03</pdfrwt>
<totfact> 0.49912403E+00</totfact>
</mgrwt>
</event>
<event>
 5    1  0.2349912E-004  0.6546705E+03  0.7818608E-02  0.9798054E-01
         13   -1    0    0    0    0  0.00000000000E+00  0.00000000000E+00  0.10000000000E+04  0.10000000000E+04  0.00000000000E+00 0. -1.
          2   -1    0    0  501    0 -0.00000000000E+00 -0.00000000000E+00 -0.10714837994E+03  0.10714837994E+03  0.00000000000E+00 0. -1.
    9000006    2    1    2  501    0  0.00000000000E+00  0.00000000000E+00  0.89285162006E+03  0.11071483799E+04  0.65467054292E+03 0.  0.
         13    1    3    3    0    0  0.32610724345E+03 -0.17393930012E+02  0.40861436662E+03  0.52308143117E+03  0.00000000000E+00 0. -1.
          4    1    3    3  501    0 -0.32610724345E+03  0.17393930012E+02  0.48423725344E+03  0.58406694877E+03  0.00000000000E+00 0. -1.
<mgrwt>
<rscale>  0 0.65467054E+03</rscale>
<asrwt>0</asrwt>
<pdfrwt beam="1">0</pdfrwt>
<pdfrwt beam="2">  1        2 0.38963129E+00 0.65467054E+03</pdfrwt>
<totfact> 0.43526857E+00</totfact>
</mgrwt>
</event>
<event>
 5    1  0.2349912E-004  0.6497166E+03  0.7818608E-02  0.9807311E-01
         13   -1    0    0    0    0  0.00000000000E+00  0.00000000000E+00  0.10000000000E+04  0.10000000000E+04  0.00000000000E+00 0. -1.
          2   -1    0    0  501    0 -0.00000000000E+00 -0.00000000000E+00 -0.10553291552E+03  0.10553291552E+03  0.00000000000E+00 0. -1.
    9000006    2    1    2  501    0  0.00000000000E+00  0.00000000000E+00  0.89446708448E+03  0.11055329155E+04  0.64971660136E+03 0.  0.
         13    1    3    3    0    0  0.30043391209E+03 -0.76010183151E+02  0.61303615008E+03  0.68691440863E+03  0.00000000000E+00 0. -1.
          4    1    3    3  501    0 -0.30043391209E+03  0.76010183151E+02  0.28143093440E+03  0.41861850689E+03  0.00000000000E+00 0. -1.
<mgrwt>
<rscale>  0 0.64971660E+03</rscale>
<asrwt>0</asrwt>
<pdfrwt beam="1">0</pdfrwt>
<pdfrwt beam="2">  1        2 0.38375687E+00 0.64971660E+03</pdfrwt>
<totfact> 0.45784244E+00</totfact>
</mgrwt>
</event>
<event>
 5    1  0.2349912E-004  0.6709901E+03  0.7818608E-02  0.9768171E-01
         13   -1    0    0    0    0  0.00000000000E+00  0.00000000000E+00  0.10000000000E+04  0.10000000000E+04  0.00000000000E+00 0. -1.
          2   -1    0    0  501    0 -0.00000000000E+00 -0.00000000000E+00 -0.11255692737E+03  0.11255692737E+03  0.00000000000E+00 0. -1.
    9000006    2    1    2  501    0  0.00000000000E+00  0.00000000000E+00  0.88744307263E+03  0.11125569274E+04  0.67099009641E+03 0.  0.
         13    1    3    3    0    0  0.31443674116E+03  0.10723777771E+02  0.25056052175E+03  0.40220149013E+03  0.00000000000E+00 0. -1.
          4    1    3    3  501    0 -0.31443674116E+03 -0.10723777771E+02  0.63688255088E+03  0.71035543724E+03  0.00000000000E+00 0. -1.
<mgrwt>
<rscale>  0 0.67099010E+03</rscale>
<asrwt>0</asrwt>
<pdfrwt beam="1">0</pdfrwt>
<pdfrwt beam="2">  1        2 0.40929878E+00 0.67099010E+03</pdfrwt>
<totfact> 0.36680650E+00</totfact>
</mgrwt>
</event>
<event>
 5    1  0.2349912E-004  0.6469857E+03  0.7818608E-02  0.9812452E-01
         13   -1    0    0    0    0  0.00000000000E+00  0.00000000000E+00  0.10000000000E+04  0.10000000000E+04  0.00000000000E+00 0. -1.
          2   -1    0    0  501    0 -0.00000000000E+00 -0.00000000000E+00 -0.10464762751E+03  0.10464762751E+03  0.00000000000E+00 0. -1.
    9000006    2    1    2  501    0  0.00000000000E+00  0.00000000000E+00  0.89535237249E+03  0.11046476275E+04  0.64698571085E+03 0.  0.
         13    1    3    3    0    0 -0.29360567058E+03 -0.51912720753E+02  0.66193929018E+03  0.72599093952E+03  0.00000000000E+00 0. -1.
          4    1    3    3  501    0  0.29360567058E+03  0.51912720753E+02  0.23341308231E+03  0.37865668799E+03  0.00000000000E+00 0. -1.
<mgrwt>
<rscale>  0 0.64698571E+03</rscale>
<asrwt>0</asrwt>
<pdfrwt beam="1">0</pdfrwt>
<pdfrwt beam="2">  1        2 0.38053763E+00 0.64698571E+03</pdfrwt>
<totfact> 0.47065856E+00</totfact>
</mgrwt>
</event>
<event>
 5    1  0.2349912E-004  0.6529545E+03  0.7818608E-02  0.9801251E-01
         13   -1    0    0    0    0  0.00000000000E+00  0.00000000000E+00  0.10000000000E+04  0.10000000000E+04  0.00000000000E+00 0. -1.
          2   -1    0    0  501    0 -0.00000000000E+00 -0.00000000000E+00 -0.10658739274E+03  0.10658739274E+03  0.00000000000E+00 0. -1.
    9000006    2    1    2  501    0  0.00000000000E+00  0.00000000000E+00  0.89341260726E+03  0.11065873927E+04  0.65295449377E+03 0.  0.
         13    1    3    3    0    0  0.20019095490E+02  0.32479235240E+03  0.49143445389E+03  0.58940534340E+03  0.00000000000E+00 0. -1.
          4    1    3    3  501    0 -0.20019095490E+02 -0.32479235240E+03  0.40197815338E+03  0.51718204933E+03  0.00000000000E+00 0. -1.
<mgrwt>
<rscale>  0 0.65295449E+03</rscale>
<asrwt>0</asrwt>
<pdfrwt beam="1">0</pdfrwt>
<pdfrwt beam="2">  1        2 0.38759134E+00 0.65295449E+03</pdfrwt>
<totfact> 0.44299070E+00</totfact>
</mgrwt>
</event>
<event>
 5    1  0.2349912E-004  0.6407374E+03  0.7818608E-02  0.9824317E-01
         13   -1    0    0    0    0  0.00000000000E+00  0.00000000000E+00  0.10000000000E+04  0.10000000000E+04  0.00000000000E+00 0. -1.
          2   -1    0    0  501    0 -0.00000000000E+00 -0.00000000000E+00 -0.10263608812E+03  0.10263608812E+03  0.00000000000E+00 0. -1.
    9000006    2    1    2  501    0  0.00000000000E+00  0.00000000000E+00  0.89736391188E+03  0.11026360881E+04  0.64073735062E+03 0.  0.
         13    1    3    3    0    0  0.11317731537E+03  0.28180218049E+03  0.27306288503E+03  0.40839308616E+03  0.00000000000E+00 0. -1.
          2    1    3    3  501    0 -0.11317731537E+03 -0.28180218049E+03  0.62430102685E+03  0.69424300196E+03  0.00000000000E+00 0. -1.
<mgrwt>
<rscale>  0 0.64073735E+03</rscale>
<asrwt>0</asrwt>
<pdfrwt beam="1">0</pdfrwt>
<pdfrwt beam="2">  1        2 0.37322293E+00 0.64073735E+03</pdfrwt>
<totfact> 0.50100326E+00</totfact>
</mgrwt>
</event>
<event>
 5    1  0.2349912E-004  0.6207415E+03  0.7818608E-02  0.9863284E-01
         13   -1    0    0    0    0  0.00000000000E+00  0.00000000000E+00  0.10000000000E+04  0.10000000000E+04  0.00000000000E+00 0. -1.
          2   -1    0    0  501    0 -0.00000000000E+00 -0.00000000000E+00 -0.96330009579E+02  0.96330009579E+02  0.00000000000E+00 0. -1.
    9000006    2    1    2  501    0  0.00000000000E+00  0.00000000000E+00  0.90366999042E+03  0.10963300096E+04  0.62074152295E+03 0.  0.
         13    1    3    3    0    0  0.95235428633E+02 -0.28792924090E+03  0.33525526765E+03  0.45207203974E+03  0.00000000000E+00 0. -1.
          2    1    3    3  501    0 -0.95235428633E+02  0.28792924090E+03  0.56841472277E+03  0.64425796984E+03  0.00000000000E+00 0. -1.
<mgrwt>
<rscale>  0 0.62074152E+03</rscale>
<asrwt>0</asrwt>
<pdfrwt beam="1">0</pdfrwt>
<pdfrwt beam="2">  1        2 0.35029168E+00 0.62074152E+03</pdfrwt>
<totfact> 0.60816991E+00</totfact>
</mgrwt>
</event>
<event>
 5    1  0.2349912E-004  0.6470125E+03  0.7818608E-02  0.9812401E-01
         13   -1    0    0    0    0  0.00000000000E+00  0.00000000000E+00  0.10000000000E+04  0.10000000000E+04  0.00000000000E+00 0. -1.
          2   -1    0    0  501    0 -0.00000000000E+00 -0.00000000000E+00 -0.10465629072E+03  0.10465629072E+03  0.00000000000E+00 0. -1.
    9000006    2    1    2  501    0  0.00000000000E+00  0.00000000000E+00  0.89534370928E+03  0.11046562907E+04  0.64701249052E+03 0.  0.
         13    1    3    3    0    0 -0.31486797857E+03  0.54052299655E+02  0.36073605482E+03  0.48186512249E+03  0.00000000000E+00 0. -1.
          2    1    3    3  501    0  0.31486797857E+03 -0.54052299655E+02  0.53460765446E+03  0.62279116823E+03  0.00000000000E+00 0. -1.
<mgrwt>
<rscale>  0 0.64701249E+03</rscale>
<asrwt>0</asrwt>
<pdfrwt beam="1">0</pdfrwt>
<pdfrwt beam="2">  1        2 0.38056913E+00 0.64701249E+03</pdfrwt>
<totfact> 0.47053158E+00</totfact>
</mgrwt>
</event>
<event>
 5    1  0.2349912E-004  0.6473890E+03  0.7818608E-02  0.9811691E-01
         13   -1    0    0    0    0  0.00000000000E+00  0.00000000000E+00  0.10000000000E+04  0.10000000000E+04  0.00000000000E+00 0. -1.
          2   -1    0    0  501    0 -0.00000000000E+00 -0.00000000000E+00 -0.10477814415E+03  0.10477814415E+03  0.00000000000E+00 0. -1.
    9000006    2    1    2  501    0  0.00000000000E+00  0.00000000000E+00  0.89522185585E+03  0.11047781442E+04  0.64738904579E+03 0.  0.
         13    1    3    3    0    0 -0.16028102001E+03  0.25648084318E+03  0.25076390551E+03  0.39288034387E+03  0.00000000000E+00 0. -1.
          2    1    3    3  501    0  0.16028102001E+03 -0.25648084318E+03  0.64445795034E+03  0.71189780028E+03  0.00000000000E+00 0. -1.
<mgrwt>
<rscale>  0 0.64738905E+03</rscale>
<asrwt>0</asrwt>
<pdfrwt beam="1">0</pdfrwt>
<pdfrwt beam="2">  1        2 0.38101224E+00 0.64738905E+03</pdfrwt>
<totfact> 0.46874884E+00</totfact>
</mgrwt>
</event>
<event>
 5    1  0.2349912E-004  0.6498077E+03  0.7818608E-02  0.9807140E-01
         13   -1    0    0    0    0  0.00000000000E+00  0.00000000000E+00  0.10000000000E+04  0.10000000000E+04  0.00000000000E+00 0. -1.
          2   -1    0    0  501    0 -0.00000000000E+00 -0.00000000000E+00 -0.10556252026E+03  0.10556252026E+03  0.00000000000E+00 0. -1.
    9000006    2    1    2  501    0  0.00000000000E+00  0.00000000000E+00  0.89443747974E+03  0.11055625203E+04  0.64980772620E+03 0.  0.
         13    1    3    3    0    0 -0.90253556397E+02 -0.27287381458E+03  0.18943641348E+03  0.34422663738E+03  0.00000000000E+00 0. -1.
          4    1    3    3  501    0  0.90253556397E+02  0.27287381458E+03  0.70500106626E+03  0.76133588288E+03  0.00000000000E+00 0. -1.
<mgrwt>
<rscale>  0 0.64980773E+03</rscale>
<asrwt>0</asrwt>
<pdfrwt beam="1">0</pdfrwt>
<pdfrwt beam="2">  1        2 0.38386452E+00 0.64980773E+03</pdfrwt>
<totfact> 0.45741939E+00</totfact>
</mgrwt>
</event>
<event>
 5    1  0.2349912E-004  0.6454331E+03  0.7818608E-02  0.9815387E-01
         13   -1    0    0    0    0  0.00000000000E+00  0.00000000000E+00  0.10000000000E+04  0.10000000000E+04  0.00000000000E+00 0. -1.
          2   -1    0    0  501    0 -0.00000000000E+00 -0.00000000000E+00 -0.10414598101E+03  0.10414598101E+03  0.00000000000E+00 0. -1.
    9000006    2    1    2  501    0  0.00000000000E+00  0.00000000000E+00  0.89585401899E+03  0.11041459810E+04  0.64543312901E+03 0.  0.
         13    1    3    3    0    0 -0.63118572209E+02  0.29619359210E+03  0.25719000251E+03  0.39731762552E+03  0.00000000000E+00 0. -1.
          2    1    3    3  501    0  0.63118572209E+02 -0.29619359210E+03  0.63866401649E+03  0.70682835548E+03  0.00000000000E+00 0. -1.
<mgrwt>
<rscale>  0 0.64543313E+03</rscale>
<asrwt>0</asrwt>
<pdfrwt beam="1">0</pdfrwt>
<pdfrwt beam="2">  1        2 0.37871346E+00 0.64543313E+03</pdfrwt>
<totfact> 0.47806476E+00</totfact>
</mgrwt>
</event>
<event>
 5    1  0.2349912E-004  0.6343250E+03  0.7818608E-02  0.9836645E-01
         13   -1    0    0    0    0  0.00000000000E+00  0.00000000000E+00  0.10000000000E+04  0.10000000000E+04  0.00000000000E+00 0. -1.
          2   -1    0    0  501    0 -0.00000000000E+00 -0.00000000000E+00 -0.10059204552E+03  0.10059204552E+03  0.00000000000E+00 0. -1.
    9000006    2    1    2  501    0  0.00000000000E+00  0.00000000000E+00  0.89940795448E+03  0.11005920455E+04  0.63432498144E+03 0.  0.
         13    1    3    3    0    0 -0.62890710533E+02 -0.20762419604E+03  0.85113331432E+03  0.87834558518E+03  0.00000000000E+00 0. -1.
          4    1    3    3  501    0  0.62890710533E+02  0.20762419604E+03  0.48274640157E+02  0.22224646034E+03  0.00000000000E+00 0. -1.
<mgrwt>
<rscale>  0 0.63432498E+03</rscale>
<asrwt>0</asrwt>
<pdfrwt beam="1">0</pdfrwt>
<pdfrwt beam="2">  1        2 0.36579003E+00 0.63432498E+03</pdfrwt>
<totfact> 0.53366374E+00</totfact>
</mgrwt>
</event>
<event>
 5    1  0.2349912E-004  0.6656337E+03  0.7818608E-02  0.9777878E-01
         13   -1    0    0    0    0  0.00000000000E+00  0.00000000000E+00  0.10000000000E+04  0.10000000000E+04  0.00000000000E+00 0. -1.
          2   -1    0    0  501    0 -0.00000000000E+00 -0.00000000000E+00 -0.11076705891E+03  0.11076705891E+03  0.00000000000E+00 0. -1.
    9000006    2    1    2  501    0  0.00000000000E+00  0.00000000000E+00  0.88923294109E+03  0.11107670589E+04  0.66563370980E+03 0.  0.
         13    1    3    3    0    0 -0.12438270153E+03 -0.30866193593E+03  0.43647348683E+03  0.54886460247E+03  0.00000000000E+00 0. -1.
          4    1    3    3  501    0  0.12438270153E+03  0.30866193593E+03  0.45275945426E+03  0.56190245644E+03  0.00000000000E+00 0. -1.
<mgrwt>
<rscale>  0 0.66563371E+03</rscale>
<asrwt>0</asrwt>
<pdfrwt beam="1">0</pdfrwt>
<pdfrwt beam="2">  1        2 0.40279015E+00 0.66563371E+03</pdfrwt>
<totfact> 0.38830778E+00</totfact>
</mgrwt>
</event>
<event>
 5    1  0.2349912E-004  0.5128501E+03  0.7818608E-02  0.1010478E+00
         13   -1    0    0    0    0  0.00000000000E+00  0.00000000000E+00  0.10000000000E+04  0.10000000000E+04  0.00000000000E+00 0. -1.
          2   -1    0    0  501    0 -0.00000000000E+00 -0.00000000000E+00 -0.65753805159E+02  0.65753805159E+02  0.00000000000E+00 0. -1.
    9000006    2    1    2  501    0  0.00000000000E+00  0.00000000000E+00  0.93424619484E+03  0.10657538052E+04  0.51285009568E+03 0.  0.
         13    1    3    3    0    0 -0.10496250151E+03 -0.21102656811E+03  0.67704685539E+03  0.71689733126E+03  0.00000000000E+00 0. -1.
          2    1    3    3  501    0  0.10496250151E+03  0.21102656811E+03  0.25719933945E+03  0.34885647390E+03  0.00000000000E+00 0. -1.
<mgrwt>
<rscale>  0 0.51285010E+03</rscale>
<asrwt>0</asrwt>
<pdfrwt beam="1">0</pdfrwt>
<pdfrwt beam="2">  1        2 0.23910525E+00 0.51285010E+03</pdfrwt>
<totfact> 0.15259143E+01</totfact>
</mgrwt>
</event>
<event>
 5    1  0.2349912E-004  0.6519718E+03  0.7818608E-02  0.9803086E-01
         13   -1    0    0    0    0  0.00000000000E+00  0.00000000000E+00  0.10000000000E+04  0.10000000000E+04  0.00000000000E+00 0. -1.
          2   -1    0    0  501    0 -0.00000000000E+00 -0.00000000000E+00 -0.10626681640E+03  0.10626681640E+03  0.00000000000E+00 0. -1.
    9000006    2    1    2  501    0  0.00000000000E+00  0.00000000000E+00  0.89373318360E+03  0.11062668164E+04  0.65197182884E+03 0.  0.
         13    1    3    3    0    0  0.23282161774E+03  0.27603966362E+02  0.83117971584E+03  0.86361311053E+03  0.00000000000E+00 0. -1.
          4    1    3    3  501    0 -0.23282161774E+03 -0.27603966362E+02  0.62553467759E+02  0.24265370587E+03  0.00000000000E+00 0. -1.
<mgrwt>
<rscale>  0 0.65197183E+03</rscale>
<asrwt>0</asrwt>
<pdfrwt beam="1">0</pdfrwt>
<pdfrwt beam="2">  1        2 0.38642560E+00 0.65197183E+03</pdfrwt>
<totfact> 0.44745898E+00</totfact>
</mgrwt>
</event>
<event>
 5    1  0.2349912E-004  0.6985192E+03  0.7818608E-02  0.9719768E-01
         13   -1    0    0    0    0  0.00000000000E+00  0.00000000000E+00  0.10000000000E+04  0.10000000000E+04  0.00000000000E+00 0. -1.
          2   -1    0    0  501    0 -0.00000000000E+00 -0.00000000000E+00 -0.12198225948E+03  0.12198225948E+03  0.00000000000E+00 0. -1.
    9000006    2    1    2  501    0  0.00000000000E+00  0.00000000000E+00  0.87801774052E+03  0.11219822595E+04  0.69851917506E+03 0.  0.
         13    1    3    3    0    0 -0.16246599737E+03  0.26985549163E+03  0.19665934155E+03  0.37133823299E+03  0.00000000000E+00 0. -1.
          2    1    3    3  501    0  0.16246599737E+03 -0.26985549163E+03  0.68135839897E+03  0.75064402649E+03  0.00000000000E+00 0. -1.
<mgrwt>
<rscale>  0 0.69851918E+03</rscale>
<asrwt>0</asrwt>
<pdfrwt beam="1">0</pdfrwt>
<pdfrwt beam="2">  1        2 0.44357279E+00 0.69851918E+03</pdfrwt>
<totfact> 0.27008955E+00</totfact>
</mgrwt>
</event>
<event>
 5    1  0.2349912E-004  0.6730390E+03  0.7818608E-02  0.9764483E-01
         13   -1    0    0    0    0  0.00000000000E+00  0.00000000000E+00  0.10000000000E+04  0.10000000000E+04  0.00000000000E+00 0. -1.
          2   -1    0    0  501    0 -0.00000000000E+00 -0.00000000000E+00 -0.11324536391E+03  0.11324536391E+03  0.00000000000E+00 0. -1.
    9000006    2    1    2  501    0  0.00000000000E+00  0.00000000000E+00  0.88675463609E+03  0.11132453639E+04  0.67303897036E+03 0.  0.
         13    1    3    3    0    0 -0.30807977039E+02 -0.94653835446E+02  0.97509164731E+03  0.98015927311E+03  0.00000000000E+00 0. -1.
          4    1    3    3  501    0  0.30807977039E+02  0.94653835446E+02 -0.88337011213E+02  0.13308609080E+03  0.00000000000E+00 0. -1.
<mgrwt>
<rscale>  0 0.67303897E+03</rscale>
<asrwt>0</asrwt>
<pdfrwt beam="1">0</pdfrwt>
<pdfrwt beam="2">  1        2 0.41180219E+00 0.67303897E+03</pdfrwt>
<totfact> 0.35882404E+00</totfact>
</mgrwt>
</event>
<event>
 5    1  0.2349912E-004  0.6490382E+03  0.7818608E-02  0.9808586E-01
         13   -1    0    0    0    0  0.00000000000E+00  0.00000000000E+00  0.10000000000E+04  0.10000000000E+04  0.00000000000E+00 0. -1.
          2   -1    0    0  501    0 -0.00000000000E+00 -0.00000000000E+00 -0.10531263861E+03  0.10531263861E+03  0.00000000000E+00 0. -1.
    9000006    2    1    2  501    0  0.00000000000E+00  0.00000000000E+00  0.89468736139E+03  0.11053126386E+04  0.64903817640E+03 0.  0.
         13    1    3    3    0    0  0.12417591794E+03  0.85286252176E+02 -0.42159455280E+02  0.15643152839E+03  0.00000000000E+00 0. -1.
          4    1    3    3  501    0 -0.12417591794E+03 -0.85286252176E+02  0.93684681667E+03  0.94888111021E+03  0.00000000000E+00 0. -1.
<mgrwt>
<rscale>  0 0.64903818E+03</rscale>
<asrwt>0</asrwt>
<pdfrwt beam="1">0</pdfrwt>
<pdfrwt beam="2">  1        2 0.38295586E+00 0.64903818E+03</pdfrwt>
<totfact> 0.46100136E+00</totfact>
</mgrwt>
</event>
<event>
 5    1  0.2349912E-004  0.6610070E+03  0.7818608E-02  0.9786342E-01
         13   -1    0    0    0    0  0.00000000000E+00  0.00000000000E+00  0.10000000000E+04  0.10000000000E+04  0.00000000000E+00 0. -1.
          2   -1    0    0  501    0 -0.00000000000E+00 -0.00000000000E+00 -0.10923257881E+03  0.10923257881E+03  0.00000000000E+00 0. -1.
    9000006    2    1    2  501    0  0.00000000000E+00  0.00000000000E+00  0.89076742119E+03  0.11092325788E+04  0.66100704628E+03 0.  0.
         13    1    3    3    0    0 -0.29557125591E+03 -0.41204155324E+02  0.20704442892E+03  0.36321831628E+03  0.00000000000E+00 0. -1.
          2    1    3    3  501    0  0.29557125591E+03  0.41204155324E+02  0.68372299227E+03  0.74601426253E+03  0.00000000000E+00 0. -1.
<mgrwt>
<rscale>  0 0.66100705E+03</rscale>
<asrwt>0</asrwt>
<pdfrwt beam="1">0</pdfrwt>
<pdfrwt beam="2">  1        2 0.39721022E+00 0.66100705E+03</pdfrwt>
<totfact> 0.40763297E+00</totfact>
</mgrwt>
</event>
<event>
 5    1  0.2349912E-004  0.6581459E+03  0.7818608E-02  0.9791613E-01
         13   -1    0    0    0    0  0.00000000000E+00  0.00000000000E+00  0.10000000000E+04  0.10000000000E+04  0.00000000000E+00 0. -1.
          2   -1    0    0  501    0 -0.00000000000E+00 -0.00000000000E+00 -0.10828900560E+03  0.10828900560E+03  0.00000000000E+00 0. -1.
    9000006    2    1    2  501    0  0.00000000000E+00  0.00000000000E+00  0.89171099440E+03  0.11082890056E+04  0.65814589750E+03 0.  0.
         13    1    3    3    0    0  0.68799781716E+01  0.22539789166E+03  0.42276583574E+02  0.22943158715E+03  0.00000000000E+00 0. -1.
          4    1    3    3  501    0 -0.68799781716E+01 -0.22539789166E+03  0.84943441083E+03  0.87885741845E+03  0.00000000000E+00 0. -1.
<mgrwt>
<rscale>  0 0.65814590E+03</rscale>
<asrwt>0</asrwt>
<pdfrwt beam="1">0</pdfrwt>
<pdfrwt beam="2">  1        2 0.39377903E+00 0.65814590E+03</pdfrwt>
<totfact> 0.41994146E+00</totfact>
</mgrwt>
</event>
<event>
 5    1  0.2349912E-004  0.6393916E+03  0.7818608E-02  0.9826891E-01
         13   -1    0    0    0    0  0.00000000000E+00  0.00000000000E+00  0.10000000000E+04  0.10000000000E+04  0.00000000000E+00 0. -1.
          2   -1    0    0  501    0 -0.00000000000E+00 -0.00000000000E+00 -0.10220540573E+03  0.10220540573E+03  0.00000000000E+00 0. -1.
    9000006    2    1    2  501    0  0.00000000000E+00  0.00000000000E+00  0.89779459427E+03  0.11022054057E+04  0.63939160374E+03 0.  0.
         13    1    3    3    0    0 -0.18666758421E+03 -0.26390921183E+02  0.38135438596E+01  0.18856248522E+03  0.00000000000E+00 0. -1.
          2    1    3    3  501    0  0.18666758421E+03  0.26390921183E+02  0.89398105041E+03  0.91364292051E+03  0.00000000000E+00 0. -1.
<mgrwt>
<rscale>  0 0.63939160E+03</rscale>
<asrwt>0</asrwt>
<pdfrwt beam="1">0</pdfrwt>
<pdfrwt beam="2">  1        2 0.37165680E+00 0.63939160E+03</pdfrwt>
<totfact> 0.50772849E+00</totfact>
</mgrwt>
</event>
<event>
 5    1  0.2349912E-004  0.6448292E+03  0.7818608E-02  0.9816531E-01
         13   -1    0    0    0    0  0.00000000000E+00  0.00000000000E+00  0.10000000000E+04  0.10000000000E+04  0.00000000000E+00 0. -1.
          2   -1    0    0  501    0 -0.00000000000E+00 -0.00000000000E+00 -0.10395116809E+03  0.10395116809E+03  0.00000000000E+00 0. -1.
    9000006    2    1    2  501    0  0.00000000000E+00  0.00000000000E+00  0.89604883191E+03  0.11039511681E+04  0.64482918077E+03 0.  0.
         13    1    3    3    0    0 -0.23274874846E+03 -0.21474559895E+03  0.55164695320E+03  0.63608333821E+03  0.00000000000E+00 0. -1.
          2    1    3    3  501    0  0.23274874846E+03  0.21474559895E+03  0.34440187871E+03  0.46786782988E+03  0.00000000000E+00 0. -1.
<mgrwt>
<rscale>  0 0.64482918E+03</rscale>
<asrwt>0</asrwt>
<pdfrwt beam="1">0</pdfrwt>
<pdfrwt beam="2">  1        2 0.37800504E+00 0.64482918E+03</pdfrwt>
<totfact> 0.48096942E+00</totfact>
</mgrwt>
</event>
<event>
 5    1  0.2349912E-004  0.6583580E+03  0.7818608E-02  0.9791221E-01
         13   -1    0    0    0    0  0.00000000000E+00  0.00000000000E+00  0.10000000000E+04  0.10000000000E+04  0.00000000000E+00 0. -1.
          2   -1    0    0  501    0 -0.00000000000E+00 -0.00000000000E+00 -0.10835880530E+03  0.10835880530E+03  0.00000000000E+00 0. -1.
    9000006    2    1    2  501    0  0.00000000000E+00  0.00000000000E+00  0.89164119470E+03  0.11083588053E+04  0.65835797344E+03 0.  0.
         13    1    3    3    0    0 -0.11600440804E+03  0.18532609440E+03  0.31537759189E+02  0.22090136760E+03  0.00000000000E+00 0. -1.
          4    1    3    3  501    0  0.11600440804E+03 -0.18532609440E+03  0.86010343551E+03  0.88745743770E+03  0.00000000000E+00 0. -1.
<mgrwt>
<rscale>  0 0.65835797E+03</rscale>
<asrwt>0</asrwt>
<pdfrwt beam="1">0</pdfrwt>
<pdfrwt beam="2">  1        2 0.39403285E+00 0.65835797E+03</pdfrwt>
<totfact> 0.41901959E+00</totfact>
</mgrwt>
</event>
<event>
 5    1  0.2349912E-004  0.6794016E+03  0.7818608E-02  0.9753121E-01
         13   -1    0    0    0    0  0.00000000000E+00  0.00000000000E+00  0.10000000000E+04  0.10000000000E+04  0.00000000000E+00 0. -1.
          2   -1    0    0  501    0 -0.00000000000E+00 -0.00000000000E+00 -0.11539663656E+03  0.11539663656E+03  0.00000000000E+00 0. -1.
    9000006    2    1    2  501    0  0.00000000000E+00  0.00000000000E+00  0.88460336344E+03  0.11153966366E+04  0.67940160894E+03 0.  0.
         13    1    3    3    0    0 -0.69891001138E+02  0.14382355814E+03 -0.49743979127E+02  0.16746471681E+03  0.00000000000E+00 0. -1.
          2    1    3    3  501    0  0.69891001138E+02 -0.14382355814E+03  0.93434734257E+03  0.94793191975E+03  0.00000000000E+00 0. -1.
<mgrwt>
<rscale>  0 0.67940161E+03</rscale>
<asrwt>0</asrwt>
<pdfrwt beam="1">0</pdfrwt>
<pdfrwt beam="2">  1        2 0.41962502E+00 0.67940161E+03</pdfrwt>
<totfact> 0.33486917E+00</totfact>
</mgrwt>
</event>
<event>
 5    1  0.2349912E-004  0.6508175E+03  0.7818608E-02  0.9805246E-01
         13   -1    0    0    0    0  0.00000000000E+00  0.00000000000E+00  0.10000000000E+04  0.10000000000E+04  0.00000000000E+00 0. -1.
          2   -1    0    0  501    0 -0.00000000000E+00 -0.00000000000E+00 -0.10589086455E+03  0.10589086455E+03  0.00000000000E+00 0. -1.
    9000006    2    1    2  501    0  0.00000000000E+00  0.00000000000E+00  0.89410913545E+03  0.11058908646E+04  0.65081753065E+03 0.  0.
         13    1    3    3    0    0 -0.26464436441E+03 -0.33305649925E+02  0.76379166122E+03  0.80902633312E+03  0.00000000000E+00 0. -1.
          2    1    3    3  501    0  0.26464436441E+03  0.33305649925E+02  0.13031747423E+03  0.29686453143E+03  0.00000000000E+00 0. -1.
<mgrwt>
<rscale>  0 0.65081753E+03</rscale>
<asrwt>0</asrwt>
<pdfrwt beam="1">0</pdfrwt>
<pdfrwt beam="2">  1        2 0.38505850E+00 0.65081753E+03</pdfrwt>
<totfact> 0.45275109E+00</totfact>
</mgrwt>
</event>
<event>
 5    1  0.2349912E-004  0.6399470E+03  0.7818608E-02  0.9825828E-01
         13   -1    0    0    0    0  0.00000000000E+00  0.00000000000E+00  0.10000000000E+04  0.10000000000E+04  0.00000000000E+00 0. -1.
          2   -1    0    0  501    0 -0.00000000000E+00 -0.00000000000E+00 -0.10238303465E+03  0.10238303465E+03  0.00000000000E+00 0. -1.
    9000006    2    1    2  501    0  0.00000000000E+00  0.00000000000E+00  0.89761696535E+03  0.11023830346E+04  0.63994698107E+03 0.  0.
         13    1    3    3    0    0 -0.81756087580E+02 -0.24484627886E+03  0.12310518564E+03  0.28598714107E+03  0.00000000000E+00 0. -1.
          4    1    3    3  501    0  0.81756087580E+02  0.24484627886E+03  0.77451177971E+03  0.81639589357E+03  0.00000000000E+00 0. -1.
<mgrwt>
<rscale>  0 0.63994698E+03</rscale>
<asrwt>0</asrwt>
<pdfrwt beam="1">0</pdfrwt>
<pdfrwt beam="2">  1        2 0.37230273E+00 0.63994698E+03</pdfrwt>
<totfact> 0.50494482E+00</totfact>
</mgrwt>
</event>
<event>
 5    1  0.2349912E-004  0.6563479E+03  0.7818608E-02  0.9794940E-01
         13   -1    0    0    0    0  0.00000000000E+00  0.00000000000E+00  0.10000000000E+04  0.10000000000E+04  0.00000000000E+00 0. -1.
          2   -1    0    0  501    0 -0.00000000000E+00 -0.00000000000E+00 -0.10769815557E+03  0.10769815557E+03  0.00000000000E+00 0. -1.
    9000006    2    1    2  501    0  0.00000000000E+00  0.00000000000E+00  0.89230184443E+03  0.11076981556E+04  0.65634794298E+03 0.  0.
         13    1    3    3    0    0  0.17206768850E+03  0.82791046643E+02 -0.42908074401E+01  0.19099753365E+03  0.00000000000E+00 0. -1.
          2    1    3    3  501    0 -0.17206768850E+03 -0.82791046643E+02  0.89659265188E+03  0.91670062192E+03  0.00000000000E+00 0. -1.
<mgrwt>
<rscale>  0 0.65634794E+03</rscale>
<asrwt>0</asrwt>
<pdfrwt beam="1">0</pdfrwt>
<pdfrwt beam="2">  1        2 0.39163048E+00 0.65634794E+03</pdfrwt>
<totfact> 0.42781905E+00</totfact>
</mgrwt>
</event>
<event>
 5    1  0.2349912E-004  0.5866513E+03  0.7818608E-02  0.9933494E-01
         13   -1    0    0    0    0  0.00000000000E+00  0.00000000000E+00  0.10000000000E+04  0.10000000000E+04  0.00000000000E+00 0. -1.
          2   -1    0    0  501    0 -0.00000000000E+00 -0.00000000000E+00 -0.86039926860E+02  0.86039926860E+02  0.00000000000E+00 0. -1.
    9000006    2    1    2  501    0  0.00000000000E+00  0.00000000000E+00  0.91396007314E+03  0.10860399269E+04  0.58665126561E+03 0.  0.
         13    1    3    3    0    0  0.15044975484E+03  0.39234813906E+02  0.91743778875E+03  0.93051952993E+03  0.00000000000E+00 0. -1.
          4    1    3    3  501    0 -0.15044975484E+03 -0.39234813906E+02 -0.34777156144E+01  0.15552039693E+03  0.00000000000E+00 0. -1.
<mgrwt>
<rscale>  0 0.58665127E+03</rscale>
<asrwt>0</asrwt>
<pdfrwt beam="1">0</pdfrwt>
<pdfrwt beam="2">  1        2 0.31287312E+00 0.58665127E+03</pdfrwt>
<totfact> 0.83025789E+00</totfact>
</mgrwt>
</event>
<event>
 5    1  0.2349912E-004  0.6272646E+03  0.7818608E-02  0.9850401E-01
         13   -1    0    0    0    0  0.00000000000E+00  0.00000000000E+00  0.10000000000E+04  0.10000000000E+04  0.00000000000E+00 0. -1.
          2   -1    0    0  501    0 -0.00000000000E+00 -0.00000000000E+00 -0.98365204021E+02  0.98365204021E+02  0.00000000000E+00 0. -1.
    9000006    2    1    2  501    0  0.00000000000E+00  0.00000000000E+00  0.90163479598E+03  0.10983652040E+04  0.62726455032E+03 0.  0.
         13    1    3    3    0    0  0.67316695087E+02 -0.11357182527E+03  0.94897239917E+03  0.95811205572E+03  0.00000000000E+00 0. -1.
          4    1    3    3  501    0 -0.67316695087E+02  0.11357182527E+03 -0.47337603191E+02  0.14025314830E+03  0.00000000000E+00 0. -1.
<mgrwt>
<rscale>  0 0.62726455E+03</rscale>
<asrwt>0</asrwt>
<pdfrwt beam="1">0</pdfrwt>
<pdfrwt beam="2">  1        2 0.35769241E+00 0.62726455E+03</pdfrwt>
<totfact> 0.57146575E+00</totfact>
</mgrwt>
</event>
<event>
 5    1  0.2349912E-004  0.6548768E+03  0.7818608E-02  0.9797671E-01
         13   -1    0    0    0    0  0.00000000000E+00  0.00000000000E+00  0.10000000000E+04  0.10000000000E+04  0.00000000000E+00 0. -1.
          2   -1    0    0  501    0 -0.00000000000E+00 -0.00000000000E+00 -0.10721591783E+03  0.10721591783E+03  0.00000000000E+00 0. -1.
    9000006    2    1    2  501    0  0.00000000000E+00  0.00000000000E+00  0.89278408217E+03  0.11072159178E+04  0.65487683674E+03 0.  0.
         13    1    3    3    0    0 -0.16731583785E+03 -0.27866995922E+03  0.51326400909E+03  0.60752899420E+03  0.00000000000E+00 0. -1.
          2    1    3    3  501    0  0.16731583785E+03  0.27866995922E+03  0.37952007309E+03  0.49968692363E+03  0.00000000000E+00 0. -1.
<mgrwt>
<rscale>  0 0.65487684E+03</rscale>
<asrwt>0</asrwt>
<pdfrwt beam="1">0</pdfrwt>
<pdfrwt beam="2">  1        2 0.38987689E+00 0.65487684E+03</pdfrwt>
<totfact> 0.43434716E+00</totfact>
</mgrwt>
</event>
<event>
 5    1  0.2349912E-004  0.6383196E+03  0.7818608E-02  0.9828947E-01
         13   -1    0    0    0    0  0.00000000000E+00  0.00000000000E+00  0.10000000000E+04  0.10000000000E+04  0.00000000000E+00 0. -1.
          2   -1    0    0  501    0 -0.00000000000E+00 -0.00000000000E+00 -0.10186296502E+03  0.10186296502E+03  0.00000000000E+00 0. -1.
    9000006    2    1    2  501    0  0.00000000000E+00  0.00000000000E+00  0.89813703498E+03  0.11018629650E+04  0.63831955952E+03 0.  0.
         13    1    3    3    0    0 -0.10780711748E+03 -0.12939069434E+02  0.96713698516E+03  0.97321310213E+03  0.00000000000E+00 0. -1.
          4    1    3    3  501    0  0.10780711748E+03  0.12939069434E+02 -0.68999950174E+02  0.12864986289E+03  0.00000000000E+00 0. -1.
<mgrwt>
<rscale>  0 0.63831956E+03</rscale>
<asrwt>0</asrwt>
<pdfrwt beam="1">0</pdfrwt>
<pdfrwt beam="2">  1        2 0.37041156E+00 0.63831956E+03</pdfrwt>
<totfact> 0.51313467E+00</totfact>
</mgrwt>
</event>
<event>
 5    1  0.2349912E-004  0.6628855E+03  0.7818608E-02  0.9782896E-01
         13   -1    0    0    0    0  0.00000000000E+00  0.00000000000E+00  0.10000000000E+04  0.10000000000E+04  0.00000000000E+00 0. -1.
          2   -1    0    0  501    0 -0.00000000000E+00 -0.00000000000E+00 -0.10985429000E+03  0.10985429000E+03  0.00000000000E+00 0. -1.
    9000006    2    1    2  501    0  0.00000000000E+00  0.00000000000E+00  0.89014571000E+03  0.11098542900E+04  0.66288548029E+03 0.  0.
         13    1    3    3    0    0  0.47978693852E+01 -0.33137008346E+03  0.45346735460E+03  0.56165985566E+03  0.00000000000E+00 0. -1.
          4    1    3    3  501    0 -0.47978693852E+01  0.33137008346E+03  0.43667835540E+03  0.54819443434E+03  0.00000000000E+00 0. -1.
<mgrwt>
<rscale>  0 0.66288548E+03</rscale>
<asrwt>0</asrwt>
<pdfrwt beam="1">0</pdfrwt>
<pdfrwt beam="2">  1        2 0.39947099E+00 0.66288548E+03</pdfrwt>
<totfact> 0.39970147E+00</totfact>
</mgrwt>
</event>
<event>
 5    1  0.2349912E-004  0.6583465E+03  0.7818608E-02  0.9791242E-01
         13   -1    0    0    0    0  0.00000000000E+00  0.00000000000E+00  0.10000000000E+04  0.10000000000E+04  0.00000000000E+00 0. -1.
          2   -1    0    0  501    0 -0.00000000000E+00 -0.00000000000E+00 -0.10835502405E+03  0.10835502405E+03  0.00000000000E+00 0. -1.
    9000006    2    1    2  501    0  0.00000000000E+00  0.00000000000E+00  0.89164497595E+03  0.11083550241E+04  0.65834648643E+03 0.  0.
         13    1    3    3    0    0 -0.20380222565E+03 -0.25725678881E+03  0.40327772259E+03  0.51995127089E+03  0.00000000000E+00 0. -1.
          4    1    3    3  501    0  0.20380222565E+03  0.25725678881E+03  0.48836725336E+03  0.58840375316E+03  0.00000000000E+00 0. -1.
<mgrwt>
<rscale>  0 0.65834649E+03</rscale>
<asrwt>0</asrwt>
<pdfrwt beam="1">0</pdfrwt>
<pdfrwt beam="2">  1        2 0.39401910E+00 0.65834649E+03</pdfrwt>
<totfact> 0.41906948E+00</totfact>
</mgrwt>
</event>
<event>
 5    1  0.2349912E-004  0.6510849E+03  0.7818608E-02  0.9804745E-01
         13   -1    0    0    0    0  0.00000000000E+00  0.00000000000E+00  0.10000000000E+04  0.10000000000E+04  0.00000000000E+00 0. -1.
          2   -1    0    0  501    0 -0.00000000000E+00 -0.00000000000E+00 -0.10597790263E+03  0.10597790263E+03  0.00000000000E+00 0. -1.
    9000006    2    1    2  501    0  0.00000000000E+00  0.00000000000E+00  0.89402209737E+03  0.11059779026E+04  0.65108494877E+03 0.  0.
         13    1    3    3    0    0 -0.15865865267E+03 -0.79276526206E+01 -0.35669563510E+02  0.16281195750E+03  0.00000000000E+00 0. -1.
          4    1    3    3  501    0  0.15865865267E+03  0.79276526206E+01  0.92969166088E+03  0.94316594513E+03  0.00000000000E+00 0. -1.
<mgrwt>
<rscale>  0 0.65108495E+03</rscale>
<asrwt>0</asrwt>
<pdfrwt beam="1">0</pdfrwt>
<pdfrwt beam="2">  1        2 0.38537500E+00 0.65108495E+03</pdfrwt>
<totfact> 0.45152087E+00</totfact>
</mgrwt>
</event>
<event>
 5    1  0.2349912E-004  0.6602933E+03  0.7818608E-02  0.9787654E-01
         13   -1    0    0    0    0  0.00000000000E+00  0.00000000000E+00  0.10000000000E+04  0.10000000000E+04  0.00000000000E+00 0. -1.
          2   -1    0    0  501    0 -0.00000000000E+00 -0.00000000000E+00 -0.10899681636E+03  0.10899681636E+03  0.00000000000E+00 0. -1.
    9000006    2    1    2  501    0  0.00000000000E+00  0.00000000000E+00  0.89100318364E+03  0.11089968164E+04  0.66029331774E+03 0.  0.
         13    1    3    3    0    0 -0.30837308444E+03 -0.22572975876E+02  0.25112789883E+03  0.39833242401E+03  0.00000000000E+00 0. -1.
          4    1    3    3  501    0  0.30837308444E+03  0.22572975876E+02  0.63987528481E+03  0.71066439235E+03  0.00000000000E+00 0. -1.
<mgrwt>
<rscale>  0 0.66029332E+03</rscale>
<asrwt>0</asrwt>
<pdfrwt beam="1">0</pdfrwt>
<pdfrwt beam="2">  1        2 0.39635290E+00 0.66029332E+03</pdfrwt>
<totfact> 0.41067754E+00</totfact>
</mgrwt>
</event>
<event>
 5    1  0.2349912E-004  0.6549344E+03  0.7818608E-02  0.9797564E-01
         13   -1    0    0    0    0  0.00000000000E+00  0.00000000000E+00  0.10000000000E+04  0.10000000000E+04  0.00000000000E+00 0. -1.
          2   -1    0    0  501    0 -0.00000000000E+00 -0.00000000000E+00 -0.10723477127E+03  0.10723477127E+03  0.00000000000E+00 0. -1.
    9000006    2    1    2  501    0  0.00000000000E+00  0.00000000000E+00  0.89276522873E+03  0.11072347713E+04  0.65493441282E+03 0.  0.
         13    1    3    3    0    0 -0.17238596565E+03  0.20803938064E+03  0.13356390951E+03  0.30139114615E+03  0.00000000000E+00 0. -1.
          2    1    3    3  501    0  0.17238596565E+03 -0.20803938064E+03  0.75920131922E+03  0.80584362512E+03  0.00000000000E+00 0. -1.
<mgrwt>
<rscale>  0 0.65493441E+03</rscale>
<asrwt>0</asrwt>
<pdfrwt beam="1">0</pdfrwt>
<pdfrwt beam="2">  1        2 0.38994545E+00 0.65493441E+03</pdfrwt>
<totfact> 0.43409025E+00</totfact>
</mgrwt>
</event>
<event>
 5    1  0.2349912E-004  0.6471585E+03  0.7818608E-02  0.9812126E-01
         13   -1    0    0    0    0  0.00000000000E+00  0.00000000000E+00  0.10000000000E+04  0.10000000000E+04  0.00000000000E+00 0. -1.
          2   -1    0    0  501    0 -0.00000000000E+00 -0.00000000000E+00 -0.10470353542E+03  0.10470353542E+03  0.00000000000E+00 0. -1.
    9000006    2    1    2  501    0  0.00000000000E+00  0.00000000000E+00  0.89529646458E+03  0.11047035354E+04  0.64715851356E+03 0.  0.
         13    1    3    3    0    0  0.16921666049E+03  0.18947607224E+03  0.10553049877E+03  0.27508570721E+03  0.00000000000E+00 0. -1.
          4    1    3    3  501    0 -0.16921666049E+03 -0.18947607224E+03  0.78976596581E+03  0.82961782821E+03  0.00000000000E+00 0. -1.
<mgrwt>
<rscale>  0 0.64715851E+03</rscale>
<asrwt>0</asrwt>
<pdfrwt beam="1">0</pdfrwt>
<pdfrwt beam="2">  1        2 0.38074093E+00 0.64715851E+03</pdfrwt>
<totfact> 0.46983965E+00</totfact>
</mgrwt>
</event>
<event>
 5    1  0.2349912E-004  0.6618824E+03  0.7818608E-02  0.9784735E-01
         13   -1    0    0    0    0  0.00000000000E+00  0.00000000000E+00  0.10000000000E+04  0.10000000000E+04  0.00000000000E+00 0. -1.
          2   -1    0    0  501    0 -0.00000000000E+00 -0.00000000000E+00 -0.10952206216E+03  0.10952206216E+03  0.00000000000E+00 0. -1.
    9000006    2    1    2  501    0  0.00000000000E+00  0.00000000000E+00  0.89047793784E+03  0.11095220622E+04  0.66188235256E+03 0.  0.
         13    1    3    3    0    0 -0.30905036929E+03  0.28402303765E+01  0.24688172030E+03  0.39556387788E+03  0.00000000000E+00 0. -1.
          2    1    3    3  501    0  0.30905036929E+03 -0.28402303765E+01  0.64359621754E+03  0.71395818428E+03  0.00000000000E+00 0. -1.
<mgrwt>
<rscale>  0 0.66188235E+03</rscale>
<asrwt>0</asrwt>
<pdfrwt beam="1">0</pdfrwt>
<pdfrwt beam="2">  1        2 0.39826288E+00 0.66188235E+03</pdfrwt>
<totfact> 0.40392245E+00</totfact>
</mgrwt>
</event>
<event>
 5    1  0.2349912E-004  0.6839811E+03  0.7818608E-02  0.9745026E-01
         13   -1    0    0    0    0  0.00000000000E+00  0.00000000000E+00  0.10000000000E+04  0.10000000000E+04  0.00000000000E+00 0. -1.
          2   -1    0    0  501    0 -0.00000000000E+00 -0.00000000000E+00 -0.11695752049E+03  0.11695752049E+03  0.00000000000E+00 0. -1.
    9000006    2    1    2  501    0  0.00000000000E+00  0.00000000000E+00  0.88304247951E+03  0.11169575205E+04  0.68398105379E+03 0.  0.
         13    1    3    3    0    0 -0.15677340348E+02 -0.91351424321E+02  0.97909792636E+03  0.98347527225E+03  0.00000000000E+00 0. -1.
          4    1    3    3  501    0  0.15677340348E+02  0.91351424321E+02 -0.96055446845E+02  0.13348224824E+03  0.00000000000E+00 0. -1.
<mgrwt>
<rscale>  0 0.68398105E+03</rscale>
<asrwt>0</asrwt>
<pdfrwt beam="1">0</pdfrwt>
<pdfrwt beam="2">  1        2 0.42530097E+00 0.68398105E+03</pdfrwt>
<totfact> 0.31838832E+00</totfact>
</mgrwt>
</event>
<event>
 5    1  0.2349912E-004  0.6544114E+03  0.7818608E-02  0.9798537E-01
         13   -1    0    0    0    0  0.00000000000E+00  0.00000000000E+00  0.10000000000E+04  0.10000000000E+04  0.00000000000E+00 0. -1.
          2   -1    0    0  501    0 -0.00000000000E+00 -0.00000000000E+00 -0.10706357540E+03  0.10706357540E+03  0.00000000000E+00 0. -1.
    9000006    2    1    2  501    0  0.00000000000E+00  0.00000000000E+00  0.89293642460E+03  0.11070635754E+04  0.65441141616E+03 0.  0.
         13    1    3    3    0    0 -0.19486290076E+03 -0.21160584611E+03  0.18267795394E+03  0.34076358235E+03  0.00000000000E+00 0. -1.
          4    1    3    3  501    0  0.19486290076E+03  0.21160584611E+03  0.71025847066E+03  0.76629999305E+03  0.00000000000E+00 0. -1.
<mgrwt>
<rscale>  0 0.65441142E+03</rscale>
<asrwt>0</asrwt>
<pdfrwt beam="1">0</pdfrwt>
<pdfrwt beam="2">  1        2 0.38932291E+00 0.65441142E+03</pdfrwt>
<totfact> 0.43642806E+00</totfact>
</mgrwt>
</event>
<event>
 5    1  0.2349912E-004  0.6105425E+03  0.7818608E-02  0.9883772E-01
         13   -1    0    0    0    0  0.00000000000E+00  0.00000000000E+00  0.10000000000E+04  0.10000000000E+04  0.00000000000E+00 0. -1.
          2   -1    0    0  501    0 -0.00000000000E+00 -0.00000000000E+00 -0.93190533542E+02  0.93190533542E+02  0.00000000000E+00 0. -1.
    9000006    2    1    2  501    0  0.00000000000E+00  0.00000000000E+00  0.90680946646E+03  0.10931905335E+04  0.61054249170E+03 0.  0.
         13    1    3    3    0    0 -0.96838004115E+01  0.28451141155E+03  0.65076892532E+03  0.71031029378E+03  0.00000000000E+00 0. -1.
          2    1    3    3  501    0  0.96838004115E+01 -0.28451141155E+03  0.25604054114E+03  0.38288023976E+03  0.00000000000E+00 0. -1.
<mgrwt>
<rscale>  0 0.61054249E+03</rscale>
<asrwt>0</asrwt>
<pdfrwt beam="1">0</pdfrwt>
<pdfrwt beam="2">  1        2 0.33887538E+00 0.61054249E+03</pdfrwt>
<totfact> 0.66912346E+00</totfact>
</mgrwt>
</event>
<event>
 5    1  0.2349912E-004  0.6393797E+03  0.7818608E-02  0.9826914E-01
         13   -1    0    0    0    0  0.00000000000E+00  0.00000000000E+00  0.10000000000E+04  0.10000000000E+04  0.00000000000E+00 0. -1.
          2   -1    0    0  501    0 -0.00000000000E+00 -0.00000000000E+00 -0.10220160064E+03  0.10220160064E+03  0.00000000000E+00 0. -1.
    9000006    2    1    2  501    0  0.00000000000E+00  0.00000000000E+00  0.89779839936E+03  0.11022016006E+04  0.63937970138E+03 0.  0.
         13    1    3    3    0    0 -0.20637612193E+03  0.13496703426E+03  0.79962924477E+03  0.83678798577E+03  0.00000000000E+00 0. -1.
          4    1    3    3  501    0  0.20637612193E+03 -0.13496703426E+03  0.98169154597E+02  0.26541361487E+03  0.00000000000E+00 0. -1.
<mgrwt>
<rscale>  0 0.63937970E+03</rscale>
<asrwt>0</asrwt>
<pdfrwt beam="1">0</pdfrwt>
<pdfrwt beam="2">  1        2 0.37164297E+00 0.63937970E+03</pdfrwt>
<totfact> 0.50778827E+00</totfact>
</mgrwt>
</event>
<event>
 5    1  0.2349912E-004  0.6603560E+03  0.7818608E-02  0.9787539E-01
         13   -1    0    0    0    0  0.00000000000E+00  0.00000000000E+00  0.10000000000E+04  0.10000000000E+04  0.00000000000E+00 0. -1.
          2   -1    0    0  501    0 -0.00000000000E+00 -0.00000000000E+00 -0.10901751414E+03  0.10901751414E+03  0.00000000000E+00 0. -1.
    9000006    2    1    2  501    0  0.00000000000E+00  0.00000000000E+00  0.89098248586E+03  0.11090175141E+04  0.66035600744E+03 0.  0.
         13    1    3    3    0    0  0.32681056152E+03 -0.23962893927E+02  0.37751812331E+03  0.49989928669E+03  0.00000000000E+00 0. -1.
          2    1    3    3  501    0 -0.32681056152E+03  0.23962893927E+02  0.51346436255E+03  0.60911822745E+03  0.00000000000E+00 0. -1.
<mgrwt>
<rscale>  0 0.66035601E+03</rscale>
<asrwt>0</asrwt>
<pdfrwt beam="1">0</pdfrwt>
<pdfrwt beam="2">  1        2 0.39642816E+00 0.66035601E+03</pdfrwt>
<totfact> 0.41040944E+00</totfact>
</mgrwt>
</event>
<event>
 5    1  0.2349912E-004  0.6314627E+03  0.7818608E-02  0.9842199E-01
         13   -1    0    0    0    0  0.00000000000E+00  0.00000000000E+00  0.10000000000E+04  0.10000000000E+04  0.00000000000E+00 0. -1.
          2   -1    0    0  501    0 -0.00000000000E+00 -0.00000000000E+00 -0.99686299649E+02  0.99686299649E+02  0.00000000000E+00 0. -1.
    9000006    2    1    2  501    0  0.00000000000E+00  0.00000000000E+00  0.90031370035E+03  0.10996862996E+04  0.63146274521E+03 0.  0.
         13    1    3    3    0    0 -0.12635783497E+03  0.27708665502E+03  0.59526577554E+03  0.66864389654E+03  0.00000000000E+00 0. -1.
          2    1    3    3  501    0  0.12635783497E+03 -0.27708665502E+03  0.30504792481E+03  0.43104240311E+03  0.00000000000E+00 0. -1.
<mgrwt>
<rscale>  0 0.63146275E+03</rscale>
<asrwt>0</asrwt>
<pdfrwt beam="1">0</pdfrwt>
<pdfrwt beam="2">  1        2 0.36249640E+00 0.63146275E+03</pdfrwt>
<totfact> 0.54875198E+00</totfact>
</mgrwt>
</event>
<event>
 5    1  0.2349912E-004  0.6424379E+03  0.7818608E-02  0.9821073E-01
         13   -1    0    0    0    0  0.00000000000E+00  0.00000000000E+00  0.10000000000E+04  0.10000000000E+04  0.00000000000E+00 0. -1.
          2   -1    0    0  501    0 -0.00000000000E+00 -0.00000000000E+00 -0.10318161574E+03  0.10318161574E+03  0.00000000000E+00 0. -1.
    9000006    2    1    2  501    0  0.00000000000E+00  0.00000000000E+00  0.89681838426E+03  0.11031816157E+04  0.64243790592E+03 0.  0.
         13    1    3    3    0    0 -0.43385849568E+02 -0.16038898142E+03 -0.23658147585E+02  0.16782927412E+03  0.00000000000E+00 0. -1.
          4    1    3    3  501    0  0.43385849568E+02  0.16038898142E+03  0.92047653185E+03  0.93535234162E+03  0.00000000000E+00 0. -1.
<mgrwt>
<rscale>  0 0.64243791E+03</rscale>
<asrwt>0</asrwt>
<pdfrwt beam="1">0</pdfrwt>
<pdfrwt beam="2">  1        2 0.37520667E+00 0.64243791E+03</pdfrwt>
<totfact> 0.49260165E+00</totfact>
</mgrwt>
</event>
<event>
 5    1  0.2349912E-004  0.6441117E+03  0.7818608E-02  0.9817891E-01
         13   -1    0    0    0    0  0.00000000000E+00  0.00000000000E+00  0.10000000000E+04  0.10000000000E+04  0.00000000000E+00 0. -1.
          2   -1    0    0  501    0 -0.00000000000E+00 -0.00000000000E+00 -0.10371996474E+03  0.10371996474E+03  0.00000000000E+00 0. -1.
    9000006    2    1    2  501    0  0.00000000000E+00  0.00000000000E+00  0.89628003526E+03  0.11037199647E+04  0.64411168204E+03 0.  0.
         13    1    3    3    0    0  0.79744882420E+02 -0.22143519038E+02  0.98146660051E+03  0.98494988178E+03  0.00000000000E+00 0. -1.
          2    1    3    3  501    0 -0.79744882420E+02  0.22143519038E+02 -0.85186565242E+02  0.11877008296E+03  0.00000000000E+00 0. -1.
<mgrwt>
<rscale>  0 0.64411168E+03</rscale>
<asrwt>0</asrwt>
<pdfrwt beam="1">0</pdfrwt>
<pdfrwt beam="2">  1        2 0.37716430E+00 0.64411168E+03</pdfrwt>
<totfact> 0.48443755E+00</totfact>
</mgrwt>
</event>
<event>
 5    1  0.2349912E-004  0.6483417E+03  0.7818608E-02  0.9809896E-01
         13   -1    0    0    0    0  0.00000000000E+00  0.00000000000E+00  0.10000000000E+04  0.10000000000E+04  0.00000000000E+00 0. -1.
          2   -1    0    0  501    0 -0.00000000000E+00 -0.00000000000E+00 -0.10508673928E+03  0.10508673928E+03  0.00000000000E+00 0. -1.
    9000006    2    1    2  501    0  0.00000000000E+00  0.00000000000E+00  0.89491326072E+03  0.11050867393E+04  0.64834169781E+03 0.  0.
         13    1    3    3    0    0  0.84031003585E+01  0.31677340369E+03  0.33096756462E+03  0.45820904641E+03  0.00000000000E+00 0. -1.
          4    1    3    3  501    0 -0.84031003585E+01 -0.31677340369E+03  0.56394569610E+03  0.64687769287E+03  0.00000000000E+00 0. -1.
<mgrwt>
<rscale>  0 0.64834170E+03</rscale>
<asrwt>0</asrwt>
<pdfrwt beam="1">0</pdfrwt>
<pdfrwt beam="2">  1        2 0.38213440E+00 0.64834170E+03</pdfrwt>
<totfact> 0.46426146E+00</totfact>
</mgrwt>
</event>
<event>
 5    1  0.2349912E-004  0.6457456E+03  0.7818608E-02  0.9814795E-01
         13   -1    0    0    0    0  0.00000000000E+00  0.00000000000E+00  0.10000000000E+04  0.10000000000E+04  0.00000000000E+00 0. -1.
          2   -1    0    0  501    0 -0.00000000000E+00 -0.00000000000E+00 -0.10424683730E+03  0.10424683730E+03  0.00000000000E+00 0. -1.
    9000006    2    1    2  501    0  0.00000000000E+00  0.00000000000E+00  0.89575316270E+03  0.11042468373E+04  0.64574557622E+03 0.  0.
         13    1    3    3    0    0 -0.18519960822E+02 -0.31548117558E+03  0.33476231379E+03  0.46036634090E+03  0.00000000000E+00 0. -1.
          4    1    3    3  501    0  0.18519960822E+02  0.31548117558E+03  0.56099084891E+03  0.64388049641E+03  0.00000000000E+00 0. -1.
<mgrwt>
<rscale>  0 0.64574558E+03</rscale>
<asrwt>0</asrwt>
<pdfrwt beam="1">0</pdfrwt>
<pdfrwt beam="2">  1        2 0.37908021E+00 0.64574558E+03</pdfrwt>
<totfact> 0.47656727E+00</totfact>
</mgrwt>
</event>
<event>
 5    1  0.2349912E-004  0.6513230E+03  0.7818608E-02  0.9804300E-01
         13   -1    0    0    0    0  0.00000000000E+00  0.00000000000E+00  0.10000000000E+04  0.10000000000E+04  0.00000000000E+00 0. -1.
          2   -1    0    0  501    0 -0.00000000000E+00 -0.00000000000E+00 -0.10605541024E+03  0.10605541024E+03  0.00000000000E+00 0. -1.
    9000006    2    1    2  501    0  0.00000000000E+00  0.00000000000E+00  0.89394458976E+03  0.11060554102E+04  0.65132299282E+03 0.  0.
         13    1    3    3    0    0 -0.27990404406E+03  0.15572607457E+03  0.54684021402E+03  0.63374372096E+03  0.00000000000E+00 0. -1.
          2    1    3    3  501    0  0.27990404406E+03 -0.15572607457E+03  0.34710437573E+03  0.47231168928E+03  0.00000000000E+00 0. -1.
<mgrwt>
<rscale>  0 0.65132299E+03</rscale>
<asrwt>0</asrwt>
<pdfrwt beam="1">0</pdfrwt>
<pdfrwt beam="2">  1        2 0.38565685E+00 0.65132299E+03</pdfrwt>
<totfact> 0.45042791E+00</totfact>
</mgrwt>
</event>
<event>
 5    1  0.2349912E-004  0.6424254E+03  0.7818608E-02  0.9821097E-01
         13   -1    0    0    0    0  0.00000000000E+00  0.00000000000E+00  0.10000000000E+04  0.10000000000E+04  0.00000000000E+00 0. -1.
          2   -1    0    0  501    0 -0.00000000000E+00 -0.00000000000E+00 -0.10317761178E+03  0.10317761178E+03  0.00000000000E+00 0. -1.
    9000006    2    1    2  501    0  0.00000000000E+00  0.00000000000E+00  0.89682238822E+03  0.11031776118E+04  0.64242544091E+03 0.  0.
         13    1    3    3    0    0 -0.20109542551E+03  0.80966969221E+02  0.41383844255E+02  0.22069808071E+03  0.00000000000E+00 0. -1.
          2    1    3    3  501    0  0.20109542551E+03 -0.80966969221E+02  0.85543854396E+03  0.88247953107E+03  0.00000000000E+00 0. -1.
<mgrwt>
<rscale>  0 0.64242544E+03</rscale>
<asrwt>0</asrwt>
<pdfrwt beam="1">0</pdfrwt>
<pdfrwt beam="2">  1        2 0.37519211E+00 0.64242544E+03</pdfrwt>
<totfact> 0.49266284E+00</totfact>
</mgrwt>
</event>
<event>
 5    1  0.2349912E-004  0.6494461E+03  0.7818608E-02  0.9807819E-01
         13   -1    0    0    0    0  0.00000000000E+00  0.00000000000E+00  0.10000000000E+04  0.10000000000E+04  0.00000000000E+00 0. -1.
          2   -1    0    0  501    0 -0.00000000000E+00 -0.00000000000E+00 -0.10544506462E+03  0.10544506462E+03  0.00000000000E+00 0. -1.
    9000006    2    1    2  501    0  0.00000000000E+00  0.00000000000E+00  0.89455493538E+03  0.11054450646E+04  0.64944611668E+03 0.  0.
         13    1    3    3    0    0 -0.20564101620E+03  0.11868285486E+03  0.70220079110E+02  0.24759787377E+03  0.00000000000E+00 0. -1.
          2    1    3    3  501    0  0.20564101620E+03 -0.11868285486E+03  0.82433485627E+03  0.85784719085E+03  0.00000000000E+00 0. -1.
<mgrwt>
<rscale>  0 0.64944612E+03</rscale>
<asrwt>0</asrwt>
<pdfrwt beam="1">0</pdfrwt>
<pdfrwt beam="2">  1        2 0.38343741E+00 0.64944612E+03</pdfrwt>
<totfact> 0.45909992E+00</totfact>
</mgrwt>
</event>
<event>
 5    1  0.2349912E-004  0.6570576E+03  0.7818608E-02  0.9793626E-01
         13   -1    0    0    0    0  0.00000000000E+00  0.00000000000E+00  0.10000000000E+04  0.10000000000E+04  0.00000000000E+00 0. -1.
          2   -1    0    0  501    0 -0.00000000000E+00 -0.00000000000E+00 -0.10793116784E+03  0.10793116784E+03  0.00000000000E+00 0. -1.
    9000006    2    1    2  501    0  0.00000000000E+00  0.00000000000E+00  0.89206883216E+03  0.11079311678E+04  0.65705758603E+03 0.  0.
         13    1    3    3    0    0  0.14593782090E+03 -0.29371539747E+03  0.41383788549E+03  0.52804202271E+03  0.00000000000E+00 0. -1.
          2    1    3    3  501    0 -0.14593782090E+03  0.29371539747E+03  0.47823094667E+03  0.57988914513E+03  0.00000000000E+00 0. -1.
<mgrwt>
<rscale>  0 0.65705759E+03</rscale>
<asrwt>0</asrwt>
<pdfrwt beam="1">0</pdfrwt>
<pdfrwt beam="2">  1        2 0.39247780E+00 0.65705759E+03</pdfrwt>
<totfact> 0.42469659E+00</totfact>
</mgrwt>
</event>
<event>
 5    1  0.2349912E-004  0.6372998E+03  0.7818608E-02  0.9830906E-01
         13   -1    0    0    0    0  0.00000000000E+00  0.00000000000E+00  0.10000000000E+04  0.10000000000E+04  0.00000000000E+00 0. -1.
          2   -1    0    0  501    0 -0.00000000000E+00 -0.00000000000E+00 -0.10153776491E+03  0.10153776491E+03  0.00000000000E+00 0. -1.
    9000006    2    1    2  501    0  0.00000000000E+00  0.00000000000E+00  0.89846223509E+03  0.11015377649E+04  0.63729981926E+03 0.  0.
         13    1    3    3    0    0  0.15657224798E+03 -0.27632400867E+03  0.40456031350E+03  0.51433342675E+03  0.00000000000E+00 0. -1.
          4    1    3    3  501    0 -0.15657224798E+03  0.27632400867E+03  0.49390192159E+03  0.58720433816E+03  0.00000000000E+00 0. -1.
<mgrwt>
<rscale>  0 0.63729982E+03</rscale>
<asrwt>0</asrwt>
<pdfrwt beam="1">0</pdfrwt>
<pdfrwt beam="2">  1        2 0.36922901E+00 0.63729982E+03</pdfrwt>
<totfact> 0.51831744E+00</totfact>
</mgrwt>
</event>
<event>
 5    1  0.2349912E-004  0.6723759E+03  0.7818608E-02  0.9765675E-01
         13   -1    0    0    0    0  0.00000000000E+00  0.00000000000E+00  0.10000000000E+04  0.10000000000E+04  0.00000000000E+00 0. -1.
          2   -1    0    0  501    0 -0.00000000000E+00 -0.00000000000E+00 -0.11302235253E+03  0.11302235253E+03  0.00000000000E+00 0. -1.
    9000006    2    1    2  501    0  0.00000000000E+00  0.00000000000E+00  0.88697764747E+03  0.11130223525E+04  0.67237594404E+03 0.  0.
         13    1    3    3    0    0  0.19825961645E+03 -0.26913920054E+03  0.50270268229E+03  0.60369923933E+03  0.00000000000E+00 0. -1.
          2    1    3    3  501    0 -0.19825961645E+03  0.26913920054E+03  0.38427496518E+03  0.50932311320E+03  0.00000000000E+00 0. -1.
<mgrwt>
<rscale>  0 0.67237594E+03</rscale>
<asrwt>0</asrwt>
<pdfrwt beam="1">0</pdfrwt>
<pdfrwt beam="2">  1        2 0.41099124E+00 0.67237594E+03</pdfrwt>
<totfact> 0.36139273E+00</totfact>
</mgrwt>
</event>
<event>
 5    1  0.2349912E-004  0.6502703E+03  0.7818608E-02  0.9806272E-01
         13   -1    0    0    0    0  0.00000000000E+00  0.00000000000E+00  0.10000000000E+04  0.10000000000E+04  0.00000000000E+00 0. -1.
          2   -1    0    0  501    0 -0.00000000000E+00 -0.00000000000E+00 -0.10571286818E+03  0.10571286818E+03  0.00000000000E+00 0. -1.
    9000006    2    1    2  501    0  0.00000000000E+00  0.00000000000E+00  0.89428713182E+03  0.11057128682E+04  0.65027030741E+03 0.  0.
         13    1    3    3    0    0 -0.43905438992E+02  0.26423138620E+03  0.76052751505E+03  0.80631756410E+03  0.00000000000E+00 0. -1.
          2    1    3    3  501    0  0.43905438992E+02 -0.26423138620E+03  0.13375961677E+03  0.29939530408E+03  0.00000000000E+00 0. -1.
<mgrwt>
<rscale>  0 0.65027031E+03</rscale>
<asrwt>0</asrwt>
<pdfrwt beam="1">0</pdfrwt>
<pdfrwt beam="2">  1        2 0.38441124E+00 0.65027031E+03</pdfrwt>
<totfact> 0.45527640E+00</totfact>
</mgrwt>
</event>
<event>
 5    1  0.2349912E-004  0.5439749E+03  0.7818608E-02  0.1002898E+00
         13   -1    0    0    0    0  0.00000000000E+00  0.00000000000E+00  0.10000000000E+04  0.10000000000E+04  0.00000000000E+00 0. -1.
          2   -1    0    0  501    0 -0.00000000000E+00 -0.00000000000E+00 -0.73977181803E+02  0.73977181803E+02  0.00000000000E+00 0. -1.
    9000006    2    1    2  501    0  0.00000000000E+00  0.00000000000E+00  0.92602281820E+03  0.10739771818E+04  0.54397493252E+03 0.  0.
         13    1    3    3    0    0 -0.19456288222E+03 -0.13912785699E+03  0.71865192285E+03  0.75741128982E+03  0.00000000000E+00 0. -1.
          2    1    3    3  501    0  0.19456288222E+03  0.13912785699E+03  0.20737089535E+03  0.31656589198E+03  0.00000000000E+00 0. -1.
<mgrwt>
<rscale>  0 0.54397493E+03</rscale>
<asrwt>0</asrwt>
<pdfrwt beam="1">0</pdfrwt>
<pdfrwt beam="2">  1        2 0.26900850E+00 0.54397493E+03</pdfrwt>
<totfact> 0.11915204E+01</totfact>
</mgrwt>
</event>
<event>
 5    1  0.2349912E-004  0.6502622E+03  0.7818608E-02  0.9806287E-01
         13   -1    0    0    0    0  0.00000000000E+00  0.00000000000E+00  0.10000000000E+04  0.10000000000E+04  0.00000000000E+00 0. -1.
          2   -1    0    0  501    0 -0.00000000000E+00 -0.00000000000E+00 -0.10571023628E+03  0.10571023628E+03  0.00000000000E+00 0. -1.
    9000006    2    1    2  501    0  0.00000000000E+00  0.00000000000E+00  0.89428976372E+03  0.11057102363E+04  0.65026221260E+03 0.  0.
         13    1    3    3    0    0  0.96452446357E+02  0.57822497402E+02  0.96587685621E+03  0.97240146903E+03  0.00000000000E+00 0. -1.
          2    1    3    3  501    0 -0.96452446357E+02 -0.57822497402E+02 -0.71587092495E+02  0.13330876725E+03  0.00000000000E+00 0. -1.
<mgrwt>
<rscale>  0 0.65026221E+03</rscale>
<asrwt>0</asrwt>
<pdfrwt beam="1">0</pdfrwt>
<pdfrwt beam="2">  1        2 0.38440167E+00 0.65026221E+03</pdfrwt>
<totfact> 0.45531383E+00</totfact>
</mgrwt>
</event>
<event>
 5    1  0.2349912E-004  0.6429156E+03  0.7818608E-02  0.9820164E-01
         13   -1    0    0    0    0  0.00000000000E+00  0.00000000000E+00  0.10000000000E+04  0.10000000000E+04  0.00000000000E+00 0. -1.
          2   -1    0    0  501    0 -0.00000000000E+00 -0.00000000000E+00 -0.10333510635E+03  0.10333510635E+03  0.00000000000E+00 0. -1.
    9000006    2    1    2  501    0  0.00000000000E+00  0.00000000000E+00  0.89666489365E+03  0.11033351063E+04  0.64291556630E+03 0.  0.
         13    1    3    3    0    0 -0.18757575496E+02  0.20261106419E+03  0.87541428757E+03  0.89875094707E+03  0.00000000000E+00 0. -1.
          4    1    3    3  501    0  0.18757575496E+02 -0.20261106419E+03  0.21250606081E+02  0.20458415928E+03  0.00000000000E+00 0. -1.
<mgrwt>
<rscale>  0 0.64291557E+03</rscale>
<asrwt>0</asrwt>
<pdfrwt beam="1">0</pdfrwt>
<pdfrwt beam="2">  1        2 0.37576482E+00 0.64291557E+03</pdfrwt>
<totfact> 0.49026117E+00</totfact>
</mgrwt>
</event>
<event>
 5    1  0.2349912E-004  0.6601580E+03  0.7818608E-02  0.9787903E-01
         13   -1    0    0    0    0  0.00000000000E+00  0.00000000000E+00  0.10000000000E+04  0.10000000000E+04  0.00000000000E+00 0. -1.
          2   -1    0    0  501    0 -0.00000000000E+00 -0.00000000000E+00 -0.10895215702E+03  0.10895215702E+03  0.00000000000E+00 0. -1.
    9000006    2    1    2  501    0  0.00000000000E+00  0.00000000000E+00  0.89104784298E+03  0.11089521570E+04  0.66015803267E+03 0.  0.
         13    1    3    3    0    0 -0.27688493413E+03 -0.11764837289E+03  0.21737781345E+03  0.37115969632E+03  0.00000000000E+00 0. -1.
          2    1    3    3  501    0  0.27688493413E+03  0.11764837289E+03  0.67367002952E+03  0.73779246070E+03  0.00000000000E+00 0. -1.
<mgrwt>
<rscale>  0 0.66015803E+03</rscale>
<asrwt>0</asrwt>
<pdfrwt beam="1">0</pdfrwt>
<pdfrwt beam="2">  1        2 0.39619050E+00 0.66015803E+03</pdfrwt>
<totfact> 0.41125656E+00</totfact>
</mgrwt>
</event>
<event>
 5    1  0.2349912E-004  0.6325567E+03  0.7818608E-02  0.9840072E-01
         13   -1    0    0    0    0  0.00000000000E+00  0.00000000000E+00  0.10000000000E+04  0.10000000000E+04  0.00000000000E+00 0. -1.
          2   -1    0    0  501    0 -0.00000000000E+00 -0.00000000000E+00 -0.10003200557E+03  0.10003200557E+03  0.00000000000E+00 0. -1.
    9000006    2    1    2  501    0  0.00000000000E+00  0.00000000000E+00  0.89996799443E+03  0.11000320056E+04  0.63255673444E+03 0.  0.
         13    1    3    3    0    0  0.48106815468E+01 -0.23768794254E+03  0.81274189152E+03  0.84679872633E+03  0.00000000000E+00 0. -1.
          4    1    3    3  501    0 -0.48106815468E+01  0.23768794254E+03  0.87226102906E+02  0.25323327924E+03  0.00000000000E+00 0. -1.
<mgrwt>
<rscale>  0 0.63255673E+03</rscale>
<asrwt>0</asrwt>
<pdfrwt beam="1">0</pdfrwt>
<pdfrwt beam="2">  1        2 0.36375351E+00 0.63255673E+03</pdfrwt>
<totfact> 0.54294734E+00</totfact>
</mgrwt>
</event>
<event>
 5    1  0.2349912E-004  0.6350670E+03  0.7818608E-02  0.9835211E-01
         13   -1    0    0    0    0  0.00000000000E+00  0.00000000000E+00  0.10000000000E+04  0.10000000000E+04  0.00000000000E+00 0. -1.
          2   -1    0    0  501    0 -0.00000000000E+00 -0.00000000000E+00 -0.10082752437E+03  0.10082752437E+03  0.00000000000E+00 0. -1.
    9000006    2    1    2  501    0  0.00000000000E+00  0.00000000000E+00  0.89917247563E+03  0.11008275244E+04  0.63506700236E+03 0.  0.
         13    1    3    3    0    0  0.13020708626E+03  0.10724683848E+03  0.91590649668E+03  0.93131116193E+03  0.00000000000E+00 0. -1.
          2    1    3    3  501    0 -0.13020708626E+03 -0.10724683848E+03 -0.16734021049E+02  0.16951636244E+03  0.00000000000E+00 0. -1.
<mgrwt>
<rscale>  0 0.63506700E+03</rscale>
<asrwt>0</asrwt>
<pdfrwt beam="1">0</pdfrwt>
<pdfrwt beam="2">  1        2 0.36664632E+00 0.63506700E+03</pdfrwt>
<totfact> 0.52980407E+00</totfact>
</mgrwt>
</event>
<event>
 5    1  0.2349912E-004  0.6207892E+03  0.7818608E-02  0.9863190E-01
         13   -1    0    0    0    0  0.00000000000E+00  0.00000000000E+00  0.10000000000E+04  0.10000000000E+04  0.00000000000E+00 0. -1.
          2   -1    0    0  501    0 -0.00000000000E+00 -0.00000000000E+00 -0.96344807011E+02  0.96344807011E+02  0.00000000000E+00 0. -1.
    9000006    2    1    2  501    0  0.00000000000E+00  0.00000000000E+00  0.90365519299E+03  0.10963448070E+04  0.62078919775E+03 0.  0.
         13    1    3    3    0    0  0.29019152563E+03  0.52516143153E+02  0.28082378348E+03  0.40722360468E+03  0.00000000000E+00 0. -1.
          4    1    3    3  501    0 -0.29019152563E+03 -0.52516143153E+02  0.62283140951E+03  0.68912120233E+03  0.00000000000E+00 0. -1.
<mgrwt>
<rscale>  0 0.62078920E+03</rscale>
<asrwt>0</asrwt>
<pdfrwt beam="1">0</pdfrwt>
<pdfrwt beam="2">  1        2 0.35034549E+00 0.62078920E+03</pdfrwt>
<totfact> 0.60789531E+00</totfact>
</mgrwt>
</event>
<event>
 5    1  0.2349912E-004  0.6497984E+03  0.7818608E-02  0.9807157E-01
         13   -1    0    0    0    0  0.00000000000E+00  0.00000000000E+00  0.10000000000E+04  0.10000000000E+04  0.00000000000E+00 0. -1.
          2   -1    0    0  501    0 -0.00000000000E+00 -0.00000000000E+00 -0.10555950178E+03  0.10555950178E+03  0.00000000000E+00 0. -1.
    9000006    2    1    2  501    0  0.00000000000E+00  0.00000000000E+00  0.89444049822E+03  0.11055595018E+04  0.64979843578E+03 0.  0.
         13    1    3    3    0    0  0.30291094926E+03  0.88072693756E+02  0.31490889460E+03  0.44573473553E+03  0.00000000000E+00 0. -1.
          4    1    3    3  501    0 -0.30291094926E+03 -0.88072693756E+02  0.57953160362E+03  0.65982476625E+03  0.00000000000E+00 0. -1.
<mgrwt>
<rscale>  0 0.64979844E+03</rscale>
<asrwt>0</asrwt>
<pdfrwt beam="1">0</pdfrwt>
<pdfrwt beam="2">  1        2 0.38385354E+00 0.64979844E+03</pdfrwt>
<totfact> 0.45746251E+00</totfact>
</mgrwt>
</event>
<event>
 5    1  0.2349912E-004  0.5800561E+03  0.7818608E-02  0.9947669E-01
         13   -1    0    0    0    0  0.00000000000E+00  0.00000000000E+00  0.10000000000E+04  0.10000000000E+04  0.00000000000E+00 0. -1.
          2   -1    0    0  501    0 -0.00000000000E+00 -0.00000000000E+00 -0.84116279462E+02  0.84116279462E+02  0.00000000000E+00 0. -1.
    9000006    2    1    2  501    0  0.00000000000E+00  0.00000000000E+00  0.91588372054E+03  0.10841162795E+04  0.58005613336E+03 0.  0.
         13    1    3    3    0    0 -0.20773965415E+03  0.15174151218E+02  0.80748154033E+02  0.22339714222E+03  0.00000000000E+00 0. -1.
          2    1    3    3  501    0  0.20773965415E+03 -0.15174151218E+02  0.83513556651E+03  0.86071913724E+03  0.00000000000E+00 0. -1.
<mgrwt>
<rscale>  0 0.58005613E+03</rscale>
<asrwt>0</asrwt>
<pdfrwt beam="1">0</pdfrwt>
<pdfrwt beam="2">  1        2 0.30587802E+00 0.58005613E+03</pdfrwt>
<totfact> 0.87961005E+00</totfact>
</mgrwt>
</event>
<event>
 5    1  0.2349912E-004  0.6541429E+03  0.7818608E-02  0.9799036E-01
         13   -1    0    0    0    0  0.00000000000E+00  0.00000000000E+00  0.10000000000E+04  0.10000000000E+04  0.00000000000E+00 0. -1.
          2   -1    0    0  501    0 -0.00000000000E+00 -0.00000000000E+00 -0.10697573413E+03  0.10697573413E+03  0.00000000000E+00 0. -1.
    9000006    2    1    2  501    0  0.00000000000E+00  0.00000000000E+00  0.89302426587E+03  0.11069757341E+04  0.65414290222E+03 0.  0.
         13    1    3    3    0    0 -0.57049421367E+02 -0.39741016988E+02 -0.94325761022E+02  0.11718077531E+03  0.00000000000E+00 0. -1.
          4    1    3    3  501    0  0.57049421367E+02  0.39741016988E+02  0.98735002689E+03  0.98979495882E+03  0.00000000000E+00 0. -1.
<mgrwt>
<rscale>  0 0.65414290E+03</rscale>
<asrwt>0</asrwt>
<pdfrwt beam="1">0</pdfrwt>
<pdfrwt beam="2">  1        2 0.38900349E+00 0.65414290E+03</pdfrwt>
<totfact> 0.43763202E+00</totfact>
</mgrwt>
</event>
<event>
 5    1  0.2349912E-004  0.6483704E+03  0.7818608E-02  0.9809842E-01
         13   -1    0    0    0    0  0.00000000000E+00  0.00000000000E+00  0.10000000000E+04  0.10000000000E+04  0.00000000000E+00 0. -1.
          2   -1    0    0  501    0 -0.00000000000E+00 -0.00000000000E+00 -0.10509604591E+03  0.10509604591E+03  0.00000000000E+00 0. -1.
    9000006    2    1    2  501    0  0.00000000000E+00  0.00000000000E+00  0.89490395409E+03  0.11050960459E+04  0.64837040621E+03 0.  0.
         13    1    3    3    0    0 -0.22367640364E+03 -0.23428603532E+03  0.46999715638E+03  0.57080505157E+03  0.00000000000E+00 0. -1.
          4    1    3    3  501    0  0.22367640364E+03  0.23428603532E+03  0.42490679771E+03  0.53429099434E+03  0.00000000000E+00 0. -1.
<mgrwt>
<rscale>  0 0.64837041E+03</rscale>
<asrwt>0</asrwt>
<pdfrwt beam="1">0</pdfrwt>
<pdfrwt beam="2">  1        2 0.38216825E+00 0.64837041E+03</pdfrwt>
<totfact> 0.46412673E+00</totfact>
</mgrwt>
</event>
<event>
 5    1  0.2349912E-004  0.6233459E+03  0.7818608E-02  0.9858120E-01
         13   -1    0    0    0    0  0.00000000000E+00  0.00000000000E+00  0.10000000000E+04  0.10000000000E+04  0.00000000000E+00 0. -1.
          2   -1    0    0  501    0 -0.00000000000E+00 -0.00000000000E+00 -0.97140036664E+02  0.97140036664E+02  0.00000000000E+00 0. -1.
    9000006    2    1    2  501    0  0.00000000000E+00  0.00000000000E+00  0.90285996334E+03  0.10971400367E+04  0.62334592856E+03 0.  0.
         13    1    3    3    0    0  0.29643844941E+03  0.46124937113E+02  0.30273926167E+03  0.42620924986E+03  0.00000000000E+00 0. -1.
          2    1    3    3  501    0 -0.29643844941E+03 -0.46124937113E+02  0.60012070166E+03  0.67093078680E+03  0.00000000000E+00 0. -1.
<mgrwt>
<rscale>  0 0.62334593E+03</rscale>
<asrwt>0</asrwt>
<pdfrwt beam="1">0</pdfrwt>
<pdfrwt beam="2">  1        2 0.35323724E+00 0.62334593E+03</pdfrwt>
<totfact> 0.59330661E+00</totfact>
</mgrwt>
</event>
<event>
 5    1  0.2349912E-004  0.6331586E+03  0.7818608E-02  0.9838904E-01
         13   -1    0    0    0    0  0.00000000000E+00  0.00000000000E+00  0.10000000000E+04  0.10000000000E+04  0.00000000000E+00 0. -1.
          2   -1    0    0  501    0 -0.00000000000E+00 -0.00000000000E+00 -0.10022245363E+03  0.10022245363E+03  0.00000000000E+00 0. -1.
    9000006    2    1    2  501    0  0.00000000000E+00  0.00000000000E+00  0.89977754637E+03  0.11002224536E+04  0.63315860139E+03 0.  0.
         13    1    3    3    0    0  0.10664657033E+03 -0.28799134142E+03  0.58347444948E+03  0.65935948988E+03  0.00000000000E+00 0. -1.
          4    1    3    3  501    0 -0.10664657033E+03  0.28799134142E+03  0.31630309689E+03  0.44086296374E+03  0.00000000000E+00 0. -1.
<mgrwt>
<rscale>  0 0.63315860E+03</rscale>
<asrwt>0</asrwt>
<pdfrwt beam="1">0</pdfrwt>
<pdfrwt beam="2">  1        2 0.36444605E+00 0.63315860E+03</pdfrwt>
<totfact> 0.53977380E+00</totfact>
</mgrwt>
</event>
<event>
 5    1  0.2349912E-004  0.6437520E+03  0.7818608E-02  0.9818574E-01
         13   -1    0    0    0    0  0.00000000000E+00  0.00000000000E+00  0.10000000000E+04  0.10000000000E+04  0.00000000000E+00 0. -1.
          2   -1    0    0  501    0 -0.00000000000E+00 -0.00000000000E+00 -0.10360416993E+03  0.10360416993E+03  0.00000000000E+00 0. -1.
    9000006    2    1    2  501    0  0.00000000000E+00  0.00000000000E+00  0.89639583007E+03  0.11036041699E+04  0.64375203279E+03 0.  0.
         13    1    3    3    0    0 -0.18238405186E+02 -0.31666640090E+03  0.35439531180E+03  0.47561148631E+03  0.00000000000E+00 0. -1.
          4    1    3    3  501    0  0.18238405186E+02  0.31666640090E+03  0.54200051827E+03  0.62799268362E+03  0.00000000000E+00 0. -1.
<mgrwt>
<rscale>  0 0.64375203E+03</rscale>
<asrwt>0</asrwt>
<pdfrwt beam="1">0</pdfrwt>
<pdfrwt beam="2">  1        2 0.37674323E+00 0.64375203E+03</pdfrwt>
<totfact> 0.48618306E+00</totfact>
</mgrwt>
</event>
<event>
 5    1  0.2349912E-004  0.6493798E+03  0.7818608E-02  0.9807944E-01
         13   -1    0    0    0    0  0.00000000000E+00  0.00000000000E+00  0.10000000000E+04  0.10000000000E+04  0.00000000000E+00 0. -1.
          2   -1    0    0  501    0 -0.00000000000E+00 -0.00000000000E+00 -0.10542354065E+03  0.10542354065E+03  0.00000000000E+00 0. -1.
    9000006    2    1    2  501    0  0.00000000000E+00  0.00000000000E+00  0.89457645935E+03  0.11054235407E+04  0.64937982923E+03 0.  0.
         13    1    3    3    0    0 -0.14848479756E+03 -0.76921158513E+02  0.92105619482E+03  0.93611383590E+03  0.00000000000E+00 0. -1.
          2    1    3    3  501    0  0.14848479756E+03  0.76921158513E+02 -0.26479735475E+02  0.16930970476E+03  0.00000000000E+00 0. -1.
<mgrwt>
<rscale>  0 0.64937983E+03</rscale>
<asrwt>0</asrwt>
<pdfrwt beam="1">0</pdfrwt>
<pdfrwt beam="2">  1        2 0.38335914E+00 0.64937983E+03</pdfrwt>
<totfact> 0.45940849E+00</totfact>
</mgrwt>
</event>
<event>
 5    1  0.2349912E-004  0.6466069E+03  0.7818608E-02  0.9813167E-01
         13   -1    0    0    0    0  0.00000000000E+00  0.00000000000E+00  0.10000000000E+04  0.10000000000E+04  0.00000000000E+00 0. -1.
          2   -1    0    0  501    0 -0.00000000000E+00 -0.00000000000E+00 -0.10452511527E+03  0.10452511527E+03  0.00000000000E+00 0. -1.
    9000006    2    1    2  501    0  0.00000000000E+00  0.00000000000E+00  0.89547488473E+03  0.11045251153E+04  0.64660688295E+03 0.  0.
         13    1    3    3    0    0 -0.25646185261E+03 -0.12196608700E+03  0.18378694314E+03  0.33826919560E+03  0.00000000000E+00 0. -1.
          4    1    3    3  501    0  0.25646185261E+03  0.12196608700E+03  0.71168794159E+03  0.76625591967E+03  0.00000000000E+00 0. -1.
<mgrwt>
<rscale>  0 0.64660688E+03</rscale>
<asrwt>0</asrwt>
<pdfrwt beam="1">0</pdfrwt>
<pdfrwt beam="2">  1        2 0.38009213E+00 0.64660688E+03</pdfrwt>
<totfact> 0.47245760E+00</totfact>
</mgrwt>
</event>
<event>
 5    1  0.2349912E-004  0.6519465E+03  0.7818608E-02  0.9803134E-01
         13   -1    0    0    0    0  0.00000000000E+00  0.00000000000E+00  0.10000000000E+04  0.10000000000E+04  0.00000000000E+00 0. -1.
          2   -1    0    0  501    0 -0.00000000000E+00 -0.00000000000E+00 -0.10625855702E+03  0.10625855702E+03  0.00000000000E+00 0. -1.
    9000006    2    1    2  501    0  0.00000000000E+00  0.00000000000E+00  0.89374144298E+03  0.11062585570E+04  0.65194649173E+03 0.  0.
         13    1    3    3    0    0 -0.31584668789E+03 -0.45910023976E+02  0.55932108103E+03  0.64397743147E+03  0.00000000000E+00 0. -1.
          4    1    3    3  501    0  0.31584668789E+03  0.45910023976E+02  0.33442036195E+03  0.46228112555E+03  0.00000000000E+00 0. -1.
<mgrwt>
<rscale>  0 0.65194649E+03</rscale>
<asrwt>0</asrwt>
<pdfrwt beam="1">0</pdfrwt>
<pdfrwt beam="2">  1        2 0.38639557E+00 0.65194649E+03</pdfrwt>
<totfact> 0.44757464E+00</totfact>
</mgrwt>
</event>
<event>
 5    1  0.2349912E-004  0.6512041E+03  0.7818608E-02  0.9804522E-01
         13   -1    0    0    0    0  0.00000000000E+00  0.00000000000E+00  0.10000000000E+04  0.10000000000E+04  0.00000000000E+00 0. -1.
          2   -1    0    0  501    0 -0.00000000000E+00 -0.00000000000E+00 -0.10601669384E+03  0.10601669384E+03  0.00000000000E+00 0. -1.
    9000006    2    1    2  501    0  0.00000000000E+00  0.00000000000E+00  0.89398330616E+03  0.11060166938E+04  0.65120409654E+03 0.  0.
         13    1    3    3    0    0 -0.21134523396E+03  0.21176652891E+03  0.66518926635E+03  0.72937550737E+03  0.00000000000E+00 0. -1.
          4    1    3    3  501    0  0.21134523396E+03 -0.21176652891E+03  0.22879403982E+03  0.37664118647E+03  0.00000000000E+00 0. -1.
<mgrwt>
<rscale>  0 0.65120410E+03</rscale>
<asrwt>0</asrwt>
<pdfrwt beam="1">0</pdfrwt>
<pdfrwt beam="2">  1        2 0.38551606E+00 0.65120410E+03</pdfrwt>
<totfact> 0.45097356E+00</totfact>
</mgrwt>
</event>
<event>
 5    1  0.2349912E-004  0.5486329E+03  0.7818608E-02  0.1001811E+00
         13   -1    0    0    0    0  0.00000000000E+00  0.00000000000E+00  0.10000000000E+04  0.10000000000E+04  0.00000000000E+00 0. -1.
          2   -1    0    0  501    0 -0.00000000000E+00 -0.00000000000E+00 -0.75249523209E+02  0.75249523209E+02  0.00000000000E+00 0. -1.
    9000006    2    1    2  501    0  0.00000000000E+00  0.00000000000E+00  0.92475047679E+03  0.10752495232E+04  0.54863293087E+03 0.  0.
         13    1    3    3    0    0  0.12773419150E+03 -0.91268292699E+02  0.90325289175E+03  0.91679425793E+03  0.00000000000E+00 0. -1.
          4    1    3    3  501    0 -0.12773419150E+03  0.91268292699E+02  0.21497585044E+02  0.15845526528E+03  0.00000000000E+00 0. -1.
<mgrwt>
<rscale>  0 0.54863293E+03</rscale>
<asrwt>0</asrwt>
<pdfrwt beam="1">0</pdfrwt>
<pdfrwt beam="2">  1        2 0.27363521E+00 0.54863293E+03</pdfrwt>
<totfact> 0.11469881E+01</totfact>
</mgrwt>
</event>
<event>
 5    1  0.2349912E-004  0.6411139E+03  0.7818608E-02  0.9823598E-01
         13   -1    0    0    0    0  0.00000000000E+00  0.00000000000E+00  0.10000000000E+04  0.10000000000E+04  0.00000000000E+00 0. -1.
          2   -1    0    0  501    0 -0.00000000000E+00 -0.00000000000E+00 -0.10275674579E+03  0.10275674579E+03  0.00000000000E+00 0. -1.
    9000006    2    1    2  501    0  0.00000000000E+00  0.00000000000E+00  0.89724325421E+03  0.11027567458E+04  0.64111386130E+03 0.  0.
         13    1    3    3    0    0 -0.21836532018E+03 -0.21981962315E+03  0.30727606042E+03  0.43637444596E+03  0.00000000000E+00 0. -1.
          4    1    3    3  501    0  0.21836532018E+03  0.21981962315E+03  0.58996719379E+03  0.66638229983E+03  0.00000000000E+00 0. -1.
<mgrwt>
<rscale>  0 0.64111386E+03</rscale>
<asrwt>0</asrwt>
<pdfrwt beam="1">0</pdfrwt>
<pdfrwt beam="2">  1        2 0.37366168E+00 0.64111386E+03</pdfrwt>
<totfact> 0.49913383E+00</totfact>
</mgrwt>
</event>
<event>
 5    1  0.2349912E-004  0.6509936E+03  0.7818608E-02  0.9804916E-01
         13   -1    0    0    0    0  0.00000000000E+00  0.00000000000E+00  0.10000000000E+04  0.10000000000E+04  0.00000000000E+00 0. -1.
          2   -1    0    0  501    0 -0.00000000000E+00 -0.00000000000E+00 -0.10594817756E+03  0.10594817756E+03  0.00000000000E+00 0. -1.
    9000006    2    1    2  501    0  0.00000000000E+00  0.00000000000E+00  0.89405182244E+03  0.11059481776E+04  0.65099363303E+03 0.  0.
         13    1    3    3    0    0 -0.18741048984E+03  0.20726627644E+03  0.73061970872E+03  0.78223216491E+03  0.00000000000E+00 0. -1.
          2    1    3    3  501    0  0.18741048984E+03 -0.20726627644E+03  0.16343211372E+03  0.32371601265E+03  0.00000000000E+00 0. -1.
<mgrwt>
<rscale>  0 0.65099363E+03</rscale>
<asrwt>0</asrwt>
<pdfrwt beam="1">0</pdfrwt>
<pdfrwt beam="2">  1        2 0.38526691E+00 0.65099363E+03</pdfrwt>
<totfact> 0.45194067E+00</totfact>
</mgrwt>
</event>
<event>
 5    1  0.2349912E-004  0.6608148E+03  0.7818608E-02  0.9786695E-01
         13   -1    0    0    0    0  0.00000000000E+00  0.00000000000E+00  0.10000000000E+04  0.10000000000E+04  0.00000000000E+00 0. -1.
          2   -1    0    0  501    0 -0.00000000000E+00 -0.00000000000E+00 -0.10916906571E+03  0.10916906571E+03  0.00000000000E+00 0. -1.
    9000006    2    1    2  501    0  0.00000000000E+00  0.00000000000E+00  0.89083093429E+03  0.11091690657E+04  0.66081484763E+03 0.  0.
         13    1    3    3    0    0 -0.19138795168E+03 -0.15474508333E+03  0.81542067509E+03  0.85175481580E+03  0.00000000000E+00 0. -1.
          4    1    3    3  501    0  0.19138795168E+03  0.15474508333E+03  0.75410259195E+02  0.25741424991E+03  0.00000000000E+00 0. -1.
<mgrwt>
<rscale>  0 0.66081485E+03</rscale>
<asrwt>0</asrwt>
<pdfrwt beam="1">0</pdfrwt>
<pdfrwt beam="2">  1        2 0.39697926E+00 0.66081485E+03</pdfrwt>
<totfact> 0.40845116E+00</totfact>
</mgrwt>
</event>
<event>
 5    1  0.2349912E-004  0.6918044E+03  0.7818608E-02  0.9731351E-01
         13   -1    0    0    0    0  0.00000000000E+00  0.00000000000E+00  0.10000000000E+04  0.10000000000E+04  0.00000000000E+00 0. -1.
          2   -1    0    0  501    0 -0.00000000000E+00 -0.00000000000E+00 -0.11964833962E+03  0.11964833962E+03  0.00000000000E+00 0. -1.
    9000006    2    1    2  501    0  0.00000000000E+00  0.00000000000E+00  0.88035166038E+03  0.11196483396E+04  0.69180442214E+03 0.  0.
         13    1    3    3    0    0 -0.47848467846E+01 -0.10158319969E+03  0.97525851849E+03  0.98054638804E+03  0.00000000000E+00 0. -1.
          2    1    3    3  501    0  0.47848467846E+01  0.10158319969E+03 -0.94906858108E+02  0.13910195158E+03  0.00000000000E+00 0. -1.
<mgrwt>
<rscale>  0 0.69180442E+03</rscale>
<asrwt>0</asrwt>
<pdfrwt beam="1">0</pdfrwt>
<pdfrwt beam="2">  1        2 0.43508579E+00 0.69180442E+03</pdfrwt>
<totfact> 0.29165512E+00</totfact>
</mgrwt>
</event>
<event>
 5    1  0.2349912E-004  0.7227074E+03  0.7818608E-02  0.9679169E-01
         13   -1    0    0    0    0  0.00000000000E+00  0.00000000000E+00  0.10000000000E+04  0.10000000000E+04  0.00000000000E+00 0. -1.
          2   -1    0    0  501    0 -0.00000000000E+00 -0.00000000000E+00 -0.13057648302E+03  0.13057648302E+03  0.00000000000E+00 0. -1.
    9000006    2    1    2  501    0  0.00000000000E+00  0.00000000000E+00  0.86942351698E+03  0.11305764830E+04  0.72270736267E+03 0.  0.
         13    1    3    3    0    0  0.96005259194E+02 -0.34037865455E+03  0.31867605649E+03  0.47605573964E+03  0.00000000000E+00 0. -1.
          4    1    3    3  501    0 -0.96005259194E+02  0.34037865455E+03  0.55074746050E+03  0.65452074337E+03  0.00000000000E+00 0. -1.
<mgrwt>
<rscale>  0 0.72270736E+03</rscale>
<asrwt>0</asrwt>
<pdfrwt beam="1">0</pdfrwt>
<pdfrwt beam="2">  1        2 0.47482458E+00 0.72270736E+03</pdfrwt>
<totfact> 0.20220284E+00</totfact>
</mgrwt>
</event>
<event>
 5    1  0.2349912E-004  0.6455606E+03  0.7818608E-02  0.9815145E-01
         13   -1    0    0    0    0  0.00000000000E+00  0.00000000000E+00  0.10000000000E+04  0.10000000000E+04  0.00000000000E+00 0. -1.
          2   -1    0    0  501    0 -0.00000000000E+00 -0.00000000000E+00 -0.10418711658E+03  0.10418711658E+03  0.00000000000E+00 0. -1.
    9000006    2    1    2  501    0  0.00000000000E+00  0.00000000000E+00  0.89581288342E+03  0.11041871166E+04  0.64556058299E+03 0.  0.
         13    1    3    3    0    0  0.15447314352E+03  0.82911548452E+02 -0.15651528795E+02  0.17601490644E+03  0.00000000000E+00 0. -1.
          2    1    3    3  501    0 -0.15447314352E+03 -0.82911548452E+02  0.91146441222E+03  0.92817221014E+03  0.00000000000E+00 0. -1.
<mgrwt>
<rscale>  0 0.64556058E+03</rscale>
<asrwt>0</asrwt>
<pdfrwt beam="1">0</pdfrwt>
<pdfrwt beam="2">  1        2 0.37886304E+00 0.64556058E+03</pdfrwt>
<totfact> 0.47745347E+00</totfact>
</mgrwt>
</event>
<event>
 5    1  0.2349912E-004  0.6488899E+03  0.7818608E-02  0.9808864E-01
         13   -1    0    0    0    0  0.00000000000E+00  0.00000000000E+00  0.10000000000E+04  0.10000000000E+04  0.00000000000E+00 0. -1.
          2   -1    0    0  501    0 -0.00000000000E+00 -0.00000000000E+00 -0.10526452399E+03  0.10526452399E+03  0.00000000000E+00 0. -1.
    9000006    2    1    2  501    0  0.00000000000E+00  0.00000000000E+00  0.89473547601E+03  0.11052645240E+04  0.64888989510E+03 0.  0.
         13    1    3    3    0    0 -0.14337319557E+03  0.21851498271E+03  0.11990616948E+03  0.28754505796E+03  0.00000000000E+00 0. -1.
          4    1    3    3  501    0  0.14337319557E+03 -0.21851498271E+03  0.77482930653E+03  0.81771946603E+03  0.00000000000E+00 0. -1.
<mgrwt>
<rscale>  0 0.64888990E+03</rscale>
<asrwt>0</asrwt>
<pdfrwt beam="1">0</pdfrwt>
<pdfrwt beam="2">  1        2 0.38278089E+00 0.64888990E+03</pdfrwt>
<totfact> 0.46169399E+00</totfact>
</mgrwt>
</event>
<event>
 5    1  0.2349912E-004  0.6667357E+03  0.7818608E-02  0.9775873E-01
         13   -1    0    0    0    0  0.00000000000E+00  0.00000000000E+00  0.10000000000E+04  0.10000000000E+04  0.00000000000E+00 0. -1.
          2   -1    0    0  501    0 -0.00000000000E+00 -0.00000000000E+00 -0.11113413783E+03  0.11113413783E+03  0.00000000000E+00 0. -1.
    9000006    2    1    2  501    0  0.00000000000E+00  0.00000000000E+00  0.88886586217E+03  0.11111341378E+04  0.66673574325E+03 0.  0.
         13    1    3    3    0    0 -0.12562363511E+03  0.17160466449E+03  0.87226258000E+03  0.89781482893E+03  0.00000000000E+00 0. -1.
          2    1    3    3  501    0  0.12562363511E+03 -0.17160466449E+03  0.16603282167E+02  0.21331930891E+03  0.00000000000E+00 0. -1.
<mgrwt>
<rscale>  0 0.66673574E+03</rscale>
<asrwt>0</asrwt>
<pdfrwt beam="1">0</pdfrwt>
<pdfrwt beam="2">  1        2 0.40412499E+00 0.66673574E+03</pdfrwt>
<totfact> 0.38380842E+00</totfact>
</mgrwt>
</event>
<event>
 5    1  0.2349912E-004  0.5980514E+03  0.7818608E-02  0.9909457E-01
         13   -1    0    0    0    0  0.00000000000E+00  0.00000000000E+00  0.10000000000E+04  0.10000000000E+04  0.00000000000E+00 0. -1.
          2   -1    0    0  501    0 -0.00000000000E+00 -0.00000000000E+00 -0.89416368287E+02  0.89416368287E+02  0.00000000000E+00 0. -1.
    9000006    2    1    2  501    0  0.00000000000E+00  0.00000000000E+00  0.91058363171E+03  0.10894163683E+04  0.59805139674E+03 0.  0.
         13    1    3    3    0    0 -0.58709834317E+02  0.27138154717E+03  0.65749527404E+03  0.71371900926E+03  0.00000000000E+00 0. -1.
          4    1    3    3  501    0  0.58709834317E+02 -0.27138154717E+03  0.25308835767E+03  0.37569735903E+03  0.00000000000E+00 0. -1.
<mgrwt>
<rscale>  0 0.59805140E+03</rscale>
<asrwt>0</asrwt>
<pdfrwt beam="1">0</pdfrwt>
<pdfrwt beam="2">  1        2 0.32515112E+00 0.59805140E+03</pdfrwt>
<totfact> 0.75001874E+00</totfact>
</mgrwt>
</event>
<event>
 5    1  0.2349912E-004  0.6604952E+03  0.7818608E-02  0.9787283E-01
         13   -1    0    0    0    0  0.00000000000E+00  0.00000000000E+00  0.10000000000E+04  0.10000000000E+04  0.00000000000E+00 0. -1.
          2   -1    0    0  501    0 -0.00000000000E+00 -0.00000000000E+00 -0.10906347890E+03  0.10906347890E+03  0.00000000000E+00 0. -1.
    9000006    2    1    2  501    0  0.00000000000E+00  0.00000000000E+00  0.89093652110E+03  0.11090634789E+04  0.66049520484E+03 0.  0.
         13    1    3    3    0    0 -0.10310050390E+02  0.39223325855E+02  0.99580271927E+03  0.99662822664E+03  0.00000000000E+00 0. -1.
          2    1    3    3  501    0  0.10310050390E+02 -0.39223325855E+02 -0.10486619818E+03  0.11243525226E+03  0.00000000000E+00 0. -1.
<mgrwt>
<rscale>  0 0.66049520E+03</rscale>
<asrwt>0</asrwt>
<pdfrwt beam="1">0</pdfrwt>
<pdfrwt beam="2">  1        2 0.39659531E+00 0.66049520E+03</pdfrwt>
<totfact> 0.40981461E+00</totfact>
</mgrwt>
</event>
<event>
 5    1  0.2349912E-004  0.6697372E+03  0.7818608E-02  0.9770433E-01
         13   -1    0    0    0    0  0.00000000000E+00  0.00000000000E+00  0.10000000000E+04  0.10000000000E+04  0.00000000000E+00 0. -1.
          2   -1    0    0  501    0 -0.00000000000E+00 -0.00000000000E+00 -0.11213696277E+03  0.11213696277E+03  0.00000000000E+00 0. -1.
    9000006    2    1    2  501    0  0.00000000000E+00  0.00000000000E+00  0.88786303723E+03  0.11121369628E+04  0.66973715074E+03 0.  0.
         13    1    3    3    0    0 -0.22259663363E+03  0.18063335360E+03  0.15650974476E+03  0.32660828211E+03  0.00000000000E+00 0. -1.
          2    1    3    3  501    0  0.22259663363E+03 -0.18063335360E+03  0.73135329247E+03  0.78552868066E+03  0.00000000000E+00 0. -1.
<mgrwt>
<rscale>  0 0.66973715E+03</rscale>
<asrwt>0</asrwt>
<pdfrwt beam="1">0</pdfrwt>
<pdfrwt beam="2">  1        2 0.40777163E+00 0.66973715E+03</pdfrwt>
<totfact> 0.37175350E+00</totfact>
</mgrwt>
</event>
<event>
 5    1  0.2349912E-004  0.6560038E+03  0.7818608E-02  0.9795578E-01
         13   -1    0    0    0    0  0.00000000000E+00  0.00000000000E+00  0.10000000000E+04  0.10000000000E+04  0.00000000000E+00 0. -1.
          2   -1    0    0  501    0 -0.00000000000E+00 -0.00000000000E+00 -0.10758523631E+03  0.10758523631E+03  0.00000000000E+00 0. -1.
    9000006    2    1    2  501    0  0.00000000000E+00  0.00000000000E+00  0.89241476369E+03  0.11075852363E+04  0.65600376922E+03 0.  0.
         13    1    3    3    0    0  0.96221446659E+02 -0.30227917744E+03  0.30541239888E+03  0.44034986239E+03  0.00000000000E+00 0. -1.
          4    1    3    3  501    0 -0.96221446659E+02  0.30227917744E+03  0.58700236481E+03  0.66723537392E+03  0.00000000000E+00 0. -1.
<mgrwt>
<rscale>  0 0.65600377E+03</rscale>
<asrwt>0</asrwt>
<pdfrwt beam="1">0</pdfrwt>
<pdfrwt beam="2">  1        2 0.39121987E+00 0.65600377E+03</pdfrwt>
<totfact> 0.42933965E+00</totfact>
</mgrwt>
</event>
<event>
 5    1  0.2349912E-004  0.6508502E+03  0.7818608E-02  0.9805185E-01
         13   -1    0    0    0    0  0.00000000000E+00  0.00000000000E+00  0.10000000000E+04  0.10000000000E+04  0.00000000000E+00 0. -1.
          2   -1    0    0  501    0 -0.00000000000E+00 -0.00000000000E+00 -0.10590149998E+03  0.10590149998E+03  0.00000000000E+00 0. -1.
    9000006    2    1    2  501    0  0.00000000000E+00  0.00000000000E+00  0.89409850002E+03  0.11059015000E+04  0.65085021313E+03 0.  0.
         13    1    3    3    0    0  0.30031545554E+03  0.11969961360E+03  0.38383372021E+03  0.50184230103E+03  0.00000000000E+00 0. -1.
          2    1    3    3  501    0 -0.30031545554E+03 -0.11969961360E+03  0.51026477981E+03  0.60405919895E+03  0.00000000000E+00 0. -1.
<mgrwt>
<rscale>  0 0.65085021E+03</rscale>
<asrwt>0</asrwt>
<pdfrwt beam="1">0</pdfrwt>
<pdfrwt beam="2">  1        2 0.38509718E+00 0.65085021E+03</pdfrwt>
<totfact> 0.45260060E+00</totfact>
</mgrwt>
</event>
<event>
 5    1  0.2349912E-004  0.6452324E+03  0.7818608E-02  0.9815767E-01
         13   -1    0    0    0    0  0.00000000000E+00  0.00000000000E+00  0.10000000000E+04  0.10000000000E+04  0.00000000000E+00 0. -1.
          2   -1    0    0  501    0 -0.00000000000E+00 -0.00000000000E+00 -0.10408120785E+03  0.10408120785E+03  0.00000000000E+00 0. -1.
    9000006    2    1    2  501    0  0.00000000000E+00  0.00000000000E+00  0.89591879215E+03  0.11040812078E+04  0.64523238557E+03 0.  0.
         13    1    3    3    0    0 -0.20319576049E+03  0.25034055438E+03  0.42903622900E+03  0.53668519268E+03  0.00000000000E+00 0. -1.
          2    1    3    3  501    0  0.20319576049E+03 -0.25034055438E+03  0.46688256315E+03  0.56739601517E+03  0.00000000000E+00 0. -1.
<mgrwt>
<rscale>  0 0.64523239E+03</rscale>
<asrwt>0</asrwt>
<pdfrwt beam="1">0</pdfrwt>
<pdfrwt beam="2">  1        2 0.37847792E+00 0.64523239E+03</pdfrwt>
<totfact> 0.47902875E+00</totfact>
</mgrwt>
</event>
<event>
 5    1  0.2349912E-004  0.6402306E+03  0.7818608E-02  0.9825285E-01
         13   -1    0    0    0    0  0.00000000000E+00  0.00000000000E+00  0.10000000000E+04  0.10000000000E+04  0.00000000000E+00 0. -1.
          2   -1    0    0  501    0 -0.00000000000E+00 -0.00000000000E+00 -0.10247379747E+03  0.10247379747E+03  0.00000000000E+00 0. -1.
    9000006    2    1    2  501    0  0.00000000000E+00  0.00000000000E+00  0.89752620253E+03  0.11024737975E+04  0.64023057555E+03 0.  0.
         13    1    3    3    0    0  0.11073453609E+03 -0.24499455544E+03  0.74796103286E+03  0.79481455470E+03  0.00000000000E+00 0. -1.
          4    1    3    3  501    0 -0.11073453609E+03  0.24499455544E+03  0.14956516967E+03  0.30765924277E+03  0.00000000000E+00 0. -1.
<mgrwt>
<rscale>  0 0.64023058E+03</rscale>
<asrwt>0</asrwt>
<pdfrwt beam="1">0</pdfrwt>
<pdfrwt beam="2">  1        2 0.37263278E+00 0.64023058E+03</pdfrwt>
<totfact> 0.50352785E+00</totfact>
</mgrwt>
</event>
<event>
 5    1  0.2349912E-004  0.6607616E+03  0.7818608E-02  0.9786793E-01
         13   -1    0    0    0    0  0.00000000000E+00  0.00000000000E+00  0.10000000000E+04  0.10000000000E+04  0.00000000000E+00 0. -1.
          2   -1    0    0  501    0 -0.00000000000E+00 -0.00000000000E+00 -0.10915147622E+03  0.10915147622E+03  0.00000000000E+00 0. -1.
    9000006    2    1    2  501    0  0.00000000000E+00  0.00000000000E+00  0.89084852378E+03  0.11091514762E+04  0.66076160973E+03 0.  0.
         13    1    3    3    0    0  0.17221939886E+03 -0.17261701148E+03  0.81962428890E+03  0.85512579715E+03  0.00000000000E+00 0. -1.
          4    1    3    3  501    0 -0.17221939886E+03  0.17261701148E+03  0.71224234877E+02  0.25402567908E+03  0.00000000000E+00 0. -1.
<mgrwt>
<rscale>  0 0.66076161E+03</rscale>
<asrwt>0</asrwt>
<pdfrwt beam="1">0</pdfrwt>
<pdfrwt beam="2">  1        2 0.39691530E+00 0.66076161E+03</pdfrwt>
<totfact> 0.40867801E+00</totfact>
</mgrwt>
</event>
<event>
 5    1  0.2349912E-004  0.6480156E+03  0.7818608E-02  0.9810510E-01
         13   -1    0    0    0    0  0.00000000000E+00  0.00000000000E+00  0.10000000000E+04  0.10000000000E+04  0.00000000000E+00 0. -1.
          2   -1    0    0  501    0 -0.00000000000E+00 -0.00000000000E+00 -0.10498105703E+03  0.10498105703E+03  0.00000000000E+00 0. -1.
    9000006    2    1    2  501    0  0.00000000000E+00  0.00000000000E+00  0.89501894297E+03  0.11049810570E+04  0.64801560792E+03 0.  0.
         13    1    3    3    0    0 -0.23900990241E+02  0.30151639790E+03  0.64561592927E+03  0.71295394217E+03  0.00000000000E+00 0. -1.
          4    1    3    3  501    0  0.23900990241E+02 -0.30151639790E+03  0.24940301371E+03  0.39202711485E+03  0.00000000000E+00 0. -1.
<mgrwt>
<rscale>  0 0.64801561E+03</rscale>
<asrwt>0</asrwt>
<pdfrwt beam="1">0</pdfrwt>
<pdfrwt beam="2">  1        2 0.38175010E+00 0.64801561E+03</pdfrwt>
<totfact> 0.46579380E+00</totfact>
</mgrwt>
</event>
<event>
 5    1  0.2349912E-004  0.6476563E+03  0.7818608E-02  0.9811187E-01
         13   -1    0    0    0    0  0.00000000000E+00  0.00000000000E+00  0.10000000000E+04  0.10000000000E+04  0.00000000000E+00 0. -1.
          2   -1    0    0  501    0 -0.00000000000E+00 -0.00000000000E+00 -0.10486465820E+03  0.10486465820E+03  0.00000000000E+00 0. -1.
    9000006    2    1    2  501    0  0.00000000000E+00  0.00000000000E+00  0.89513534180E+03  0.11048646582E+04  0.64765626130E+03 0.  0.
         13    1    3    3    0    0  0.31714761696E+03  0.71748052792E+01  0.33660831507E+03  0.46253567057E+03  0.00000000000E+00 0. -1.
          4    1    3    3  501    0 -0.31714761696E+03 -0.71748052792E+01  0.55852702673E+03  0.64232898763E+03  0.00000000000E+00 0. -1.
<mgrwt>
<rscale>  0 0.64765626E+03</rscale>
<asrwt>0</asrwt>
<pdfrwt beam="1">0</pdfrwt>
<pdfrwt beam="2">  1        2 0.38132683E+00 0.64765626E+03</pdfrwt>
<totfact> 0.46748685E+00</totfact>
</mgrwt>
</event>
<event>
 5    1  0.2349912E-004  0.6290432E+03  0.7818608E-02  0.9846918E-01
         13   -1    0    0    0    0  0.00000000000E+00  0.00000000000E+00  0.10000000000E+04  0.10000000000E+04  0.00000000000E+00 0. -1.
          2   -1    0    0  501    0 -0.00000000000E+00 -0.00000000000E+00 -0.98923832838E+02  0.98923832838E+02  0.00000000000E+00 0. -1.
    9000006    2    1    2  501    0  0.00000000000E+00  0.00000000000E+00  0.90107616716E+03  0.10989238328E+04  0.62904318719E+03 0.  0.
         13    1    3    3    0    0 -0.30117175793E+03  0.10763190659E+02  0.60780052831E+03  0.67841119998E+03  0.00000000000E+00 0. -1.
          4    1    3    3  501    0  0.30117175793E+03 -0.10763190659E+02  0.29327563885E+03  0.42051263285E+03  0.00000000000E+00 0. -1.
<mgrwt>
<rscale>  0 0.62904319E+03</rscale>
<asrwt>0</asrwt>
<pdfrwt beam="1">0</pdfrwt>
<pdfrwt beam="2">  1        2 0.35972379E+00 0.62904319E+03</pdfrwt>
<totfact> 0.56175722E+00</totfact>
</mgrwt>
</event>
<event>
 5    1  0.2349912E-004  0.6592187E+03  0.7818608E-02  0.9789633E-01
         13   -1    0    0    0    0  0.00000000000E+00  0.00000000000E+00  0.10000000000E+04  0.10000000000E+04  0.00000000000E+00 0. -1.
          2   -1    0    0  501    0 -0.00000000000E+00 -0.00000000000E+00 -0.10864232165E+03  0.10864232165E+03  0.00000000000E+00 0. -1.
    9000006    2    1    2  501    0  0.00000000000E+00  0.00000000000E+00  0.89135767835E+03  0.11086423217E+04  0.65921869407E+03 0.  0.
         13    1    3    3    0    0 -0.23654143714E+02 -0.22631284810E+03  0.44640772168E+02  0.23188320825E+03  0.00000000000E+00 0. -1.
          4    1    3    3  501    0  0.23654143714E+02  0.22631284810E+03  0.84671690618E+03  0.87675911340E+03  0.00000000000E+00 0. -1.
<mgrwt>
<rscale>  0 0.65921869E+03</rscale>
<asrwt>0</asrwt>
<pdfrwt beam="1">0</pdfrwt>
<pdfrwt beam="2">  1        2 0.39506382E+00 0.65921869E+03</pdfrwt>
<totfact> 0.41529392E+00</totfact>
</mgrwt>
</event>
<event>
 5    1  0.2349912E-004  0.6450804E+03  0.7818608E-02  0.9816055E-01
         13   -1    0    0    0    0  0.00000000000E+00  0.00000000000E+00  0.10000000000E+04  0.10000000000E+04  0.00000000000E+00 0. -1.
          2   -1    0    0  501    0 -0.00000000000E+00 -0.00000000000E+00 -0.10403217317E+03  0.10403217317E+03  0.00000000000E+00 0. -1.
    9000006    2    1    2  501    0  0.00000000000E+00  0.00000000000E+00  0.89596782683E+03  0.11040321732E+04  0.64508037690E+03 0.  0.
         13    1    3    3    0    0  0.31101341305E+03 -0.97069306388E+01  0.30267457347E+03  0.43409153991E+03  0.00000000000E+00 0. -1.
          2    1    3    3  501    0 -0.31101341305E+03  0.97069306388E+01  0.59329325336E+03  0.66994063325E+03  0.00000000000E+00 0. -1.
<mgrwt>
<rscale>  0 0.64508038E+03</rscale>
<asrwt>0</asrwt>
<pdfrwt beam="1">0</pdfrwt>
<pdfrwt beam="2">  1        2 0.37829961E+00 0.64508038E+03</pdfrwt>
<totfact> 0.47975969E+00</totfact>
</mgrwt>
</event>
<event>
 5    1  0.2349912E-004  0.6482273E+03  0.7818608E-02  0.9810111E-01
         13   -1    0    0    0    0  0.00000000000E+00  0.00000000000E+00  0.10000000000E+04  0.10000000000E+04  0.00000000000E+00 0. -1.
          2   -1    0    0  501    0 -0.00000000000E+00 -0.00000000000E+00 -0.10504964734E+03  0.10504964734E+03  0.00000000000E+00 0. -1.
    9000006    2    1    2  501    0  0.00000000000E+00  0.00000000000E+00  0.89495035266E+03  0.11050496473E+04  0.64822726675E+03 0.  0.
         13    1    3    3    0    0  0.27497639501E+03  0.40855438395E+02  0.73154847461E+03  0.78258824127E+03  0.00000000000E+00 0. -1.
          2    1    3    3  501    0 -0.27497639501E+03 -0.40855438395E+02  0.16340187805E+03  0.32246140607E+03  0.00000000000E+00 0. -1.
<mgrwt>
<rscale>  0 0.64822727E+03</rscale>
<asrwt>0</asrwt>
<pdfrwt beam="1">0</pdfrwt>
<pdfrwt beam="2">  1        2 0.38199952E+00 0.64822727E+03</pdfrwt>
<totfact> 0.46479875E+00</totfact>
</mgrwt>
</event>
<event>
 5    1  0.2349912E-004  0.6436516E+03  0.7818608E-02  0.9818765E-01
         13   -1    0    0    0    0  0.00000000000E+00  0.00000000000E+00  0.10000000000E+04  0.10000000000E+04  0.00000000000E+00 0. -1.
          2   -1    0    0  501    0 -0.00000000000E+00 -0.00000000000E+00 -0.10357184731E+03  0.10357184731E+03  0.00000000000E+00 0. -1.
    9000006    2    1    2  501    0  0.00000000000E+00  0.00000000000E+00  0.89642815269E+03  0.11035718473E+04  0.64365160548E+03 0.  0.
         13    1    3    3    0    0  0.30488995945E+03  0.29744368369E+02  0.61733176975E+03  0.68915972660E+03  0.00000000000E+00 0. -1.
          2    1    3    3  501    0 -0.30488995945E+03 -0.29744368369E+02  0.27909638294E+03  0.41441212071E+03  0.00000000000E+00 0. -1.
<mgrwt>
<rscale>  0 0.64365161E+03</rscale>
<asrwt>0</asrwt>
<pdfrwt beam="1">0</pdfrwt>
<pdfrwt beam="2">  1        2 0.37662569E+00 0.64365161E+03</pdfrwt>
<totfact> 0.48667132E+00</totfact>
</mgrwt>
</event>
<event>
 5    1  0.2349912E-004  0.6328231E+03  0.7818608E-02  0.9839555E-01
         13   -1    0    0    0    0  0.00000000000E+00  0.00000000000E+00  0.10000000000E+04  0.10000000000E+04  0.00000000000E+00 0. -1.
          2   -1    0    0  501    0 -0.00000000000E+00 -0.00000000000E+00 -0.10011626042E+03  0.10011626042E+03  0.00000000000E+00 0. -1.
    9000006    2    1    2  501    0  0.00000000000E+00  0.00000000000E+00  0.89988373958E+03  0.11001162604E+04  0.63282307296E+03 0.  0.
         13    1    3    3    0    0  0.19983218855E+03 -0.10934574012E+03  0.68172748311E+02  0.23777493156E+03  0.00000000000E+00 0. -1.
          2    1    3    3  501    0 -0.19983218855E+03  0.10934574012E+03  0.83171099127E+03  0.86234132886E+03  0.00000000000E+00 0. -1.
<mgrwt>
<rscale>  0 0.63282307E+03</rscale>
<asrwt>0</asrwt>
<pdfrwt beam="1">0</pdfrwt>
<pdfrwt beam="2">  1        2 0.36405990E+00 0.63282307E+03</pdfrwt>
<totfact> 0.54154124E+00</totfact>
</mgrwt>
</event>
<event>
 5    1  0.2349912E-004  0.6511180E+03  0.7818608E-02  0.9804684E-01
         13   -1    0    0    0    0  0.00000000000E+00  0.00000000000E+00  0.10000000000E+04  0.10000000000E+04  0.00000000000E+00 0. -1.
          2   -1    0    0  501    0 -0.00000000000E+00 -0.00000000000E+00 -0.10598864863E+03  0.10598864863E+03  0.00000000000E+00 0. -1.
    9000006    2    1    2  501    0  0.00000000000E+00  0.00000000000E+00  0.89401135137E+03  0.11059886486E+04  0.65111795745E+03 0.  0.
         13    1    3    3    0    0 -0.16343834727E+03  0.26115257131E+03  0.62576977654E+03  0.69749592980E+03  0.00000000000E+00 0. -1.
          2    1    3    3  501    0  0.16343834727E+03 -0.26115257131E+03  0.26824157483E+03  0.40849271882E+03  0.00000000000E+00 0. -1.
<mgrwt>
<rscale>  0 0.65111796E+03</rscale>
<asrwt>0</asrwt>
<pdfrwt beam="1">0</pdfrwt>
<pdfrwt beam="2">  1        2 0.38541408E+00 0.65111796E+03</pdfrwt>
<totfact> 0.45136919E+00</totfact>
</mgrwt>
</event>
<event>
 5    1  0.2349912E-004  0.6519822E+03  0.7818608E-02  0.9803067E-01
         13   -1    0    0    0    0  0.00000000000E+00  0.00000000000E+00  0.10000000000E+04  0.10000000000E+04  0.00000000000E+00 0. -1.
          2   -1    0    0  501    0 -0.00000000000E+00 -0.00000000000E+00 -0.10627020220E+03  0.10627020220E+03  0.00000000000E+00 0. -1.
    9000006    2    1    2  501    0  0.00000000000E+00  0.00000000000E+00  0.89372979780E+03  0.11062702022E+04  0.65198221511E+03 0.  0.
         13    1    3    3    0    0 -0.29434116646E+03  0.25368673163E+02  0.21304206339E+03  0.36423510625E+03  0.00000000000E+00 0. -1.
          4    1    3    3  501    0  0.29434116646E+03 -0.25368673163E+02  0.68068773441E+03  0.74203509595E+03  0.00000000000E+00 0. -1.
<mgrwt>
<rscale>  0 0.65198222E+03</rscale>
<asrwt>0</asrwt>
<pdfrwt beam="1">0</pdfrwt>
<pdfrwt beam="2">  1        2 0.38643791E+00 0.65198222E+03</pdfrwt>
<totfact> 0.44741158E+00</totfact>
</mgrwt>
</event>
<event>
 5    1  0.2349912E-004  0.6367797E+03  0.7818608E-02  0.9831907E-01
         13   -1    0    0    0    0  0.00000000000E+00  0.00000000000E+00  0.10000000000E+04  0.10000000000E+04  0.00000000000E+00 0. -1.
          2   -1    0    0  501    0 -0.00000000000E+00 -0.00000000000E+00 -0.10137210604E+03  0.10137210604E+03  0.00000000000E+00 0. -1.
    9000006    2    1    2  501    0  0.00000000000E+00  0.00000000000E+00  0.89862789396E+03  0.11013721060E+04  0.63677972969E+03 0.  0.
         13    1    3    3    0    0  0.30193341970E+03  0.51268957276E+02  0.59989627471E+03  0.67354868890E+03  0.00000000000E+00 0. -1.
          4    1    3    3  501    0 -0.30193341970E+03 -0.51268957276E+02  0.29873161926E+03  0.42782341714E+03  0.00000000000E+00 0. -1.
<mgrwt>
<rscale>  0 0.63677973E+03</rscale>
<asrwt>0</asrwt>
<pdfrwt beam="1">0</pdfrwt>
<pdfrwt beam="2">  1        2 0.36862662E+00 0.63677973E+03</pdfrwt>
<totfact> 0.52097599E+00</totfact>
</mgrwt>
</event>
<event>
 5    1  0.2349912E-004  0.6530599E+03  0.7818608E-02  0.9801054E-01
         13   -1    0    0    0    0  0.00000000000E+00  0.00000000000E+00  0.10000000000E+04  0.10000000000E+04  0.00000000000E+00 0. -1.
          2   -1    0    0  501    0 -0.00000000000E+00 -0.00000000000E+00 -0.10662179430E+03  0.10662179430E+03  0.00000000000E+00 0. -1.
    9000006    2    1    2  501    0  0.00000000000E+00  0.00000000000E+00  0.89337820570E+03  0.11066217943E+04  0.65305985728E+03 0.  0.
         13    1    3    3    0    0  0.15790960478E+03  0.72574438986E+02  0.91512240525E+03  0.93147813129E+03  0.00000000000E+00 0. -1.
          2    1    3    3  501    0 -0.15790960478E+03 -0.72574438986E+02 -0.21744199548E+02  0.17514366301E+03  0.00000000000E+00 0. -1.
<mgrwt>
<rscale>  0 0.65305986E+03</rscale>
<asrwt>0</asrwt>
<pdfrwt beam="1">0</pdfrwt>
<pdfrwt beam="2">  1        2 0.38771643E+00 0.65305986E+03</pdfrwt>
<totfact> 0.44251362E+00</totfact>
</mgrwt>
</event>
<event>
 5    1  0.2349912E-004  0.4714444E+03  0.7818608E-02  0.1021513E+00
         13   -1    0    0    0    0  0.00000000000E+00  0.00000000000E+00  0.10000000000E+04  0.10000000000E+04  0.00000000000E+00 0. -1.
          2   -1    0    0  501    0 -0.00000000000E+00 -0.00000000000E+00 -0.55564961638E+02  0.55564961638E+02  0.00000000000E+00 0. -1.
    9000006    2    1    2  501    0  0.00000000000E+00  0.00000000000E+00  0.94443503836E+03  0.10555649616E+04  0.47144442573E+03 0.  0.
         13    1    3    3    0    0  0.16513159202E+03 -0.16008779220E+03  0.35655800313E+03  0.42429960345E+03  0.00000000000E+00 0. -1.
          2    1    3    3  501    0 -0.16513159202E+03  0.16008779220E+03  0.58787703523E+03  0.63126535819E+03  0.00000000000E+00 0. -1.
<mgrwt>
<rscale>  0 0.47144443E+03</rscale>
<asrwt>0</asrwt>
<pdfrwt beam="1">0</pdfrwt>
<pdfrwt beam="2">  1        2 0.20205483E+00 0.47144443E+03</pdfrwt>
<totfact> 0.20871176E+01</totfact>
</mgrwt>
</event>
<event>
 5    1  0.2349912E-004  0.6598161E+03  0.7818608E-02  0.9788532E-01
         13   -1    0    0    0    0  0.00000000000E+00  0.00000000000E+00  0.10000000000E+04  0.10000000000E+04  0.00000000000E+00 0. -1.
          2   -1    0    0  501    0 -0.00000000000E+00 -0.00000000000E+00 -0.10883933085E+03  0.10883933085E+03  0.00000000000E+00 0. -1.
    9000006    2    1    2  501    0  0.00000000000E+00  0.00000000000E+00  0.89116066915E+03  0.11088393308E+04  0.65981612846E+03 0.  0.
         13    1    3    3    0    0  0.16575473267E+02 -0.28318563580E+03  0.16251998521E+03  0.32692750913E+03  0.00000000000E+00 0. -1.
          2    1    3    3  501    0 -0.16575473267E+02  0.28318563580E+03  0.72864068394E+03  0.78191182171E+03  0.00000000000E+00 0. -1.
<mgrwt>
<rscale>  0 0.65981613E+03</rscale>
<asrwt>0</asrwt>
<pdfrwt beam="1">0</pdfrwt>
<pdfrwt beam="2">  1        2 0.39578022E+00 0.65981613E+03</pdfrwt>
<totfact> 0.41272265E+00</totfact>
</mgrwt>
</event>
<event>
 5    1  0.2349912E-004  0.6397895E+03  0.7818608E-02  0.9826129E-01
         13   -1    0    0    0    0  0.00000000000E+00  0.00000000000E+00  0.10000000000E+04  0.10000000000E+04  0.00000000000E+00 0. -1.
          2   -1    0    0  501    0 -0.00000000000E+00 -0.00000000000E+00 -0.10233265026E+03  0.10233265026E+03  0.00000000000E+00 0. -1.
    9000006    2    1    2  501    0  0.00000000000E+00  0.00000000000E+00  0.89766734974E+03  0.11023326503E+04  0.63978949744E+03 0.  0.
         13    1    3    3    0    0 -0.10207929016E+03 -0.29940243252E+03  0.36673221649E+03  0.48430828682E+03  0.00000000000E+00 0. -1.
          4    1    3    3  501    0  0.10207929016E+03  0.29940243252E+03  0.53093513325E+03  0.61802436343E+03  0.00000000000E+00 0. -1.
<mgrwt>
<rscale>  0 0.63978950E+03</rscale>
<asrwt>0</asrwt>
<pdfrwt beam="1">0</pdfrwt>
<pdfrwt beam="2">  1        2 0.37211951E+00 0.63978950E+03</pdfrwt>
<totfact> 0.50573298E+00</totfact>
</mgrwt>
</event>
<event>
 5    1  0.2349912E-004  0.6581697E+03  0.7818608E-02  0.9791569E-01
         13   -1    0    0    0    0  0.00000000000E+00  0.00000000000E+00  0.10000000000E+04  0.10000000000E+04  0.00000000000E+00 0. -1.
          2   -1    0    0  501    0 -0.00000000000E+00 -0.00000000000E+00 -0.10829682643E+03  0.10829682643E+03  0.00000000000E+00 0. -1.
    9000006    2    1    2  501    0  0.00000000000E+00  0.00000000000E+00  0.89170317357E+03  0.11082968264E+04  0.65816966332E+03 0.  0.
         13    1    3    3    0    0  0.22447805102E+03  0.23415183457E+03  0.35240838439E+03  0.47896674875E+03  0.00000000000E+00 0. -1.
          2    1    3    3  501    0 -0.22447805102E+03 -0.23415183457E+03  0.53929478919E+03  0.62933007768E+03  0.00000000000E+00 0. -1.
<mgrwt>
<rscale>  0 0.65816966E+03</rscale>
<asrwt>0</asrwt>
<pdfrwt beam="1">0</pdfrwt>
<pdfrwt beam="2">  1        2 0.39380747E+00 0.65816966E+03</pdfrwt>
<totfact> 0.41983807E+00</totfact>
</mgrwt>
</event>
<event>
 5    1  0.2349912E-004  0.6371778E+03  0.7818608E-02  0.9831141E-01
         13   -1    0    0    0    0  0.00000000000E+00  0.00000000000E+00  0.10000000000E+04  0.10000000000E+04  0.00000000000E+00 0. -1.
          2   -1    0    0  501    0 -0.00000000000E+00 -0.00000000000E+00 -0.10149887162E+03  0.10149887162E+03  0.00000000000E+00 0. -1.
    9000006    2    1    2  501    0  0.00000000000E+00  0.00000000000E+00  0.89850112838E+03  0.11014988716E+04  0.63717775110E+03 0.  0.
         13    1    3    3    0    0 -0.14686434717E+03  0.12977747139E+02 -0.38973972279E+02  0.15250091444E+03  0.00000000000E+00 0. -1.
          4    1    3    3  501    0  0.14686434717E+03 -0.12977747139E+02  0.93747510066E+03  0.94899795718E+03  0.00000000000E+00 0. -1.
<mgrwt>
<rscale>  0 0.63717775E+03</rscale>
<asrwt>0</asrwt>
<pdfrwt beam="1">0</pdfrwt>
<pdfrwt beam="2">  1        2 0.36908758E+00 0.63717775E+03</pdfrwt>
<totfact> 0.51894049E+00</totfact>
</mgrwt>
</event>
<event>
 5    1  0.2349912E-004  0.6810672E+03  0.7818608E-02  0.9750169E-01
         13   -1    0    0    0    0  0.00000000000E+00  0.00000000000E+00  0.10000000000E+04  0.10000000000E+04  0.00000000000E+00 0. -1.
          2   -1    0    0  501    0 -0.00000000000E+00 -0.00000000000E+00 -0.11596312963E+03  0.11596312963E+03  0.00000000000E+00 0. -1.
    9000006    2    1    2  501    0  0.00000000000E+00  0.00000000000E+00  0.88403687037E+03  0.11159631296E+04  0.68106719089E+03 0.  0.
         13    1    3    3    0    0  0.17227427164E+03 -0.12458663960E+03  0.61427742831E+01  0.21269224037E+03  0.00000000000E+00 0. -1.
          2    1    3    3  501    0 -0.17227427164E+03  0.12458663960E+03  0.87789409609E+03  0.90327088926E+03  0.00000000000E+00 0. -1.
<mgrwt>
<rscale>  0 0.68106719E+03</rscale>
<asrwt>0</asrwt>
<pdfrwt beam="1">0</pdfrwt>
<pdfrwt beam="2">  1        2 0.42168500E+00 0.68106719E+03</pdfrwt>
<totfact> 0.32880242E+00</totfact>
</mgrwt>
</event>
<event>
 5    1  0.2349912E-004  0.6404591E+03  0.7818608E-02  0.9824849E-01
         13   -1    0    0    0    0  0.00000000000E+00  0.00000000000E+00  0.10000000000E+04  0.10000000000E+04  0.00000000000E+00 0. -1.
          2   -1    0    0  501    0 -0.00000000000E+00 -0.00000000000E+00 -0.10254696554E+03  0.10254696554E+03  0.00000000000E+00 0. -1.
    9000006    2    1    2  501    0  0.00000000000E+00  0.00000000000E+00  0.89745303446E+03  0.11025469655E+04  0.64045910263E+03 0.  0.
         13    1    3    3    0    0  0.18440053396E+03 -0.12868735219E+03  0.56229593757E+02  0.23178817647E+03  0.00000000000E+00 0. -1.
          2    1    3    3  501    0 -0.18440053396E+03  0.12868735219E+03  0.84122344071E+03  0.87075878906E+03  0.00000000000E+00 0. -1.
<mgrwt>
<rscale>  0 0.64045910E+03</rscale>
<asrwt>0</asrwt>
<pdfrwt beam="1">0</pdfrwt>
<pdfrwt beam="2">  1        2 0.37289884E+00 0.64045910E+03</pdfrwt>
<totfact> 0.50238821E+00</totfact>
</mgrwt>
</event>
<event>
 5    1  0.2349912E-004  0.6483908E+03  0.7818608E-02  0.9809804E-01
         13   -1    0    0    0    0  0.00000000000E+00  0.00000000000E+00  0.10000000000E+04  0.10000000000E+04  0.00000000000E+00 0. -1.
          2   -1    0    0  501    0 -0.00000000000E+00 -0.00000000000E+00 -0.10510264195E+03  0.10510264195E+03  0.00000000000E+00 0. -1.
    9000006    2    1    2  501    0  0.00000000000E+00  0.00000000000E+00  0.89489735805E+03  0.11051026420E+04  0.64839075241E+03 0.  0.
         13    1    3    3    0    0 -0.35472947932E+02  0.32151396254E+03  0.41037763242E+03  0.52253168262E+03  0.00000000000E+00 0. -1.
          4    1    3    3  501    0  0.35472947932E+02 -0.32151396254E+03  0.48451972562E+03  0.58257095934E+03  0.00000000000E+00 0. -1.
<mgrwt>
<rscale>  0 0.64839075E+03</rscale>
<asrwt>0</asrwt>
<pdfrwt beam="1">0</pdfrwt>
<pdfrwt beam="2">  1        2 0.38219223E+00 0.64839075E+03</pdfrwt>
<totfact> 0.46403127E+00</totfact>
</mgrwt>
</event>
<event>
 5    1  0.2349912E-004  0.6577198E+03  0.7818608E-02  0.9792400E-01
         13   -1    0    0    0    0  0.00000000000E+00  0.00000000000E+00  0.10000000000E+04  0.10000000000E+04  0.00000000000E+00 0. -1.
          2   -1    0    0  501    0 -0.00000000000E+00 -0.00000000000E+00 -0.10814881764E+03  0.10814881764E+03  0.00000000000E+00 0. -1.
    9000006    2    1    2  501    0  0.00000000000E+00  0.00000000000E+00  0.89185118236E+03  0.11081488176E+04  0.65771975079E+03 0.  0.
         13    1    3    3    0    0 -0.18745247287E+03 -0.18664837449E+03  0.77510605670E+03  0.81900271332E+03  0.00000000000E+00 0. -1.
          2    1    3    3  501    0  0.18745247287E+03  0.18664837449E+03  0.11674512565E+03  0.28914610433E+03  0.00000000000E+00 0. -1.
<mgrwt>
<rscale>  0 0.65771975E+03</rscale>
<asrwt>0</asrwt>
<pdfrwt beam="1">0</pdfrwt>
<pdfrwt beam="2">  1        2 0.39326926E+00 0.65771975E+03</pdfrwt>
<totfact> 0.42179860E+00</totfact>
</mgrwt>
</event>
<event>
 5    1  0.2349912E-004  0.6548589E+03  0.7818608E-02  0.9797704E-01
         13   -1    0    0    0    0  0.00000000000E+00  0.00000000000E+00  0.10000000000E+04  0.10000000000E+04  0.00000000000E+00 0. -1.
          2   -1    0    0  501    0 -0.00000000000E+00 -0.00000000000E+00 -0.10721003210E+03  0.10721003210E+03  0.00000000000E+00 0. -1.
    9000006    2    1    2  501    0  0.00000000000E+00  0.00000000000E+00  0.89278996790E+03  0.11072100321E+04  0.65485886145E+03 0.  0.
         13    1    3    3    0    0  0.15921537466E+03  0.44415156762E+02  0.92427900372E+03  0.93894297931E+03  0.00000000000E+00 0. -1.
          2    1    3    3  501    0 -0.15921537466E+03 -0.44415156762E+02 -0.31489035826E+02  0.16826705279E+03  0.00000000000E+00 0. -1.
<mgrwt>
<rscale>  0 0.65485886E+03</rscale>
<asrwt>0</asrwt>
<pdfrwt beam="1">0</pdfrwt>
<pdfrwt beam="2">  1        2 0.38985548E+00 0.65485886E+03</pdfrwt>
<totfact> 0.43442739E+00</totfact>
</mgrwt>
</event>
<event>
 5    1  0.2349912E-004  0.6509862E+03  0.7818608E-02  0.9804930E-01
         13   -1    0    0    0    0  0.00000000000E+00  0.00000000000E+00  0.10000000000E+04  0.10000000000E+04  0.00000000000E+00 0. -1.
          2   -1    0    0  501    0 -0.00000000000E+00 -0.00000000000E+00 -0.10594574502E+03  0.10594574502E+03  0.00000000000E+00 0. -1.
    9000006    2    1    2  501    0  0.00000000000E+00  0.00000000000E+00  0.89405425498E+03  0.11059457450E+04  0.65098615967E+03 0.  0.
         13    1    3    3    0    0 -0.41072331403E+02  0.16438985532E+03 -0.25110414966E+02  0.17129358972E+03  0.00000000000E+00 0. -1.
          2    1    3    3  501    0  0.41072331403E+02 -0.16438985532E+03  0.91916466995E+03  0.93465215530E+03  0.00000000000E+00 0. -1.
<mgrwt>
<rscale>  0 0.65098616E+03</rscale>
<asrwt>0</asrwt>
<pdfrwt beam="1">0</pdfrwt>
<pdfrwt beam="2">  1        2 0.38525807E+00 0.65098616E+03</pdfrwt>
<totfact> 0.45197504E+00</totfact>
</mgrwt>
</event>
<event>
 5    1  0.2349912E-004  0.6554853E+03  0.7818608E-02  0.9796540E-01
         13   -1    0    0    0    0  0.00000000000E+00  0.00000000000E+00  0.10000000000E+04  0.10000000000E+04  0.00000000000E+00 0. -1.
          2   -1    0    0  501    0 -0.00000000000E+00 -0.00000000000E+00 -0.10741526005E+03  0.10741526005E+03  0.00000000000E+00 0. -1.
    9000006    2    1    2  501    0  0.00000000000E+00  0.00000000000E+00  0.89258473995E+03  0.11074152601E+04  0.65548534706E+03 0.  0.
         13    1    3    3    0    0 -0.98303216159E+02 -0.17650925112E+03  0.88227813747E+03  0.90511532409E+03  0.00000000000E+00 0. -1.
          4    1    3    3  501    0  0.98303216159E+02  0.17650925112E+03  0.10306602476E+02  0.20229993597E+03  0.00000000000E+00 0. -1.
<mgrwt>
<rscale>  0 0.65548535E+03</rscale>
<asrwt>0</asrwt>
<pdfrwt beam="1">0</pdfrwt>
<pdfrwt beam="2">  1        2 0.39060177E+00 0.65548535E+03</pdfrwt>
<totfact> 0.43163781E+00</totfact>
</mgrwt>
</event>
<event>
 5    1  0.2349912E-004  0.6551919E+03  0.7818608E-02  0.9797085E-01
         13   -1    0    0    0    0  0.00000000000E+00  0.00000000000E+00  0.10000000000E+04  0.10000000000E+04  0.00000000000E+00 0. -1.
          2   -1    0    0  501    0 -0.00000000000E+00 -0.00000000000E+00 -0.10731909529E+03  0.10731909529E+03  0.00000000000E+00 0. -1.
    9000006    2    1    2  501    0  0.00000000000E+00  0.00000000000E+00  0.89268090471E+03  0.11073190953E+04  0.65519186591E+03 0.  0.
         13    1    3    3    0    0 -0.97362635306E+02 -0.14491257248E+03  0.91482778654E+03  0.93133721898E+03  0.00000000000E+00 0. -1.
          2    1    3    3  501    0  0.97362635306E+02  0.14491257248E+03 -0.22146881833E+02  0.17598187631E+03  0.00000000000E+00 0. -1.
<mgrwt>
<rscale>  0 0.65519187E+03</rscale>
<asrwt>0</asrwt>
<pdfrwt beam="1">0</pdfrwt>
<pdfrwt beam="2">  1        2 0.39025208E+00 0.65519187E+03</pdfrwt>
<totfact> 0.43294291E+00</totfact>
</mgrwt>
</event>
<event>
 5    1  0.2349912E-004  0.6672801E+03  0.7818608E-02  0.9774884E-01
         13   -1    0    0    0    0  0.00000000000E+00  0.00000000000E+00  0.10000000000E+04  0.10000000000E+04  0.00000000000E+00 0. -1.
          2   -1    0    0  501    0 -0.00000000000E+00 -0.00000000000E+00 -0.11131568437E+03  0.11131568437E+03  0.00000000000E+00 0. -1.
    9000006    2    1    2  501    0  0.00000000000E+00  0.00000000000E+00  0.88868431563E+03  0.11113156844E+04  0.66728010421E+03 0.  0.
         13    1    3    3    0    0  0.22917802640E+03 -0.16659020386E+03  0.73776631404E+03  0.79029994175E+03  0.00000000000E+00 0. -1.
          4    1    3    3  501    0 -0.22917802640E+03  0.16659020386E+03  0.15091800159E+03  0.32101574262E+03  0.00000000000E+00 0. -1.
<mgrwt>
<rscale>  0 0.66728010E+03</rscale>
<asrwt>0</asrwt>
<pdfrwt beam="1">0</pdfrwt>
<pdfrwt beam="2">  1        2 0.40478516E+00 0.66728010E+03</pdfrwt>
<totfact> 0.38160047E+00</totfact>
</mgrwt>
</event>
<event>
 5    1  0.2349912E-004  0.6512514E+03  0.7818608E-02  0.9804434E-01
         13   -1    0    0    0    0  0.00000000000E+00  0.00000000000E+00  0.10000000000E+04  0.10000000000E+04  0.00000000000E+00 0. -1.
          2   -1    0    0  501    0 -0.00000000000E+00 -0.00000000000E+00 -0.10603210887E+03  0.10603210887E+03  0.00000000000E+00 0. -1.
    9000006    2    1    2  501    0  0.00000000000E+00  0.00000000000E+00  0.89396789113E+03  0.11060321089E+04  0.65125143800E+03 0.  0.
         13    1    3    3    0    0 -0.20042039233E+03 -0.35151831963E+02  0.15236462678E+02  0.20404934391E+03  0.00000000000E+00 0. -1.
          4    1    3    3  501    0  0.20042039233E+03  0.35151831963E+02  0.87873142845E+03  0.90198276497E+03  0.00000000000E+00 0. -1.
<mgrwt>
<rscale>  0 0.65125144E+03</rscale>
<asrwt>0</asrwt>
<pdfrwt beam="1">0</pdfrwt>
<pdfrwt beam="2">  1        2 0.38557212E+00 0.65125144E+03</pdfrwt>
<totfact> 0.45075624E+00</totfact>
</mgrwt>
</event>
<event>
 5    1  0.2349912E-004  0.6503332E+03  0.7818608E-02  0.9806154E-01
         13   -1    0    0    0    0  0.00000000000E+00  0.00000000000E+00  0.10000000000E+04  0.10000000000E+04  0.00000000000E+00 0. -1.
          2   -1    0    0  501    0 -0.00000000000E+00 -0.00000000000E+00 -0.10573333301E+03  0.10573333301E+03  0.00000000000E+00 0. -1.
    9000006    2    1    2  501    0  0.00000000000E+00  0.00000000000E+00  0.89426666699E+03  0.11057333330E+04  0.65033324691E+03 0.  0.
         13    1    3    3    0    0  0.27110096340E+03  0.60051438475E+02  0.73483072858E+03  0.78554319250E+03  0.00000000000E+00 0. -1.
          4    1    3    3  501    0 -0.27110096340E+03 -0.60051438475E+02  0.15943593841E+03  0.32019014051E+03  0.00000000000E+00 0. -1.
<mgrwt>
<rscale>  0 0.65033325E+03</rscale>
<asrwt>0</asrwt>
<pdfrwt beam="1">0</pdfrwt>
<pdfrwt beam="2">  1        2 0.38448566E+00 0.65033325E+03</pdfrwt>
<totfact> 0.45498540E+00</totfact>
</mgrwt>
</event>
<event>
 5    1  0.2349912E-004  0.6456193E+03  0.7818608E-02  0.9815034E-01
         13   -1    0    0    0    0  0.00000000000E+00  0.00000000000E+00  0.10000000000E+04  0.10000000000E+04  0.00000000000E+00 0. -1.
          2   -1    0    0  501    0 -0.00000000000E+00 -0.00000000000E+00 -0.10420606989E+03  0.10420606989E+03  0.00000000000E+00 0. -1.
    9000006    2    1    2  501    0  0.00000000000E+00  0.00000000000E+00  0.89579393011E+03  0.11042060699E+04  0.64561929926E+03 0.  0.
         13    1    3    3    0    0  0.29600400241E+03  0.95289850777E+02  0.59608822554E+03  0.67232410170E+03  0.00000000000E+00 0. -1.
          4    1    3    3  501    0 -0.29600400241E+03 -0.95289850777E+02  0.29970570457E+03  0.43188196820E+03  0.00000000000E+00 0. -1.
<mgrwt>
<rscale>  0 0.64561930E+03</rscale>
<asrwt>0</asrwt>
<pdfrwt beam="1">0</pdfrwt>
<pdfrwt beam="2">  1        2 0.37893196E+00 0.64561930E+03</pdfrwt>
<totfact> 0.47717206E+00</totfact>
</mgrwt>
</event>
<event>
 5    1  0.2349912E-004  0.6554520E+03  0.7818608E-02  0.9796602E-01
         13   -1    0    0    0    0  0.00000000000E+00  0.00000000000E+00  0.10000000000E+04  0.10000000000E+04  0.00000000000E+00 0. -1.
          2   -1    0    0  501    0 -0.00000000000E+00 -0.00000000000E+00 -0.10740431708E+03  0.10740431708E+03  0.00000000000E+00 0. -1.
    9000006    2    1    2  501    0  0.00000000000E+00  0.00000000000E+00  0.89259568292E+03  0.11074043171E+04  0.65545195729E+03 0.  0.
         13    1    3    3    0    0  0.10112922955E+03  0.25919021137E+03  0.73892108647E+03  0.78956384085E+03  0.00000000000E+00 0. -1.
          4    1    3    3  501    0 -0.10112922955E+03 -0.25919021137E+03  0.15367459645E+03  0.31784047623E+03  0.00000000000E+00 0. -1.
<mgrwt>
<rscale>  0 0.65545196E+03</rscale>
<asrwt>0</asrwt>
<pdfrwt beam="1">0</pdfrwt>
<pdfrwt beam="2">  1        2 0.39056198E+00 0.65545196E+03</pdfrwt>
<totfact> 0.43178614E+00</totfact>
</mgrwt>
</event>
<event>
 5    1  0.2349912E-004  0.6500595E+03  0.7818608E-02  0.9806668E-01
         13   -1    0    0    0    0  0.00000000000E+00  0.00000000000E+00  0.10000000000E+04  0.10000000000E+04  0.00000000000E+00 0. -1.
          2   -1    0    0  501    0 -0.00000000000E+00 -0.00000000000E+00 -0.10564433690E+03  0.10564433690E+03  0.00000000000E+00 0. -1.
    9000006    2    1    2  501    0  0.00000000000E+00  0.00000000000E+00  0.89435566310E+03  0.11056443369E+04  0.65005949545E+03 0.  0.
         13    1    3    3    0    0  0.21605440973E+03 -0.14119195447E+03  0.78319365436E+03  0.82462535506E+03  0.00000000000E+00 0. -1.
          2    1    3    3  501    0 -0.21605440973E+03  0.14119195447E+03  0.11116200873E+03  0.28101898184E+03  0.00000000000E+00 0. -1.
<mgrwt>
<rscale>  0 0.65005950E+03</rscale>
<asrwt>0</asrwt>
<pdfrwt beam="1">0</pdfrwt>
<pdfrwt beam="2">  1        2 0.38416204E+00 0.65005950E+03</pdfrwt>
<totfact> 0.45625208E+00</totfact>
</mgrwt>
</event>
<event>
 5    1  0.2349912E-004  0.6253428E+03  0.7818608E-02  0.9854179E-01
         13   -1    0    0    0    0  0.00000000000E+00  0.00000000000E+00  0.10000000000E+04  0.10000000000E+04  0.00000000000E+00 0. -1.
          2   -1    0    0  501    0 -0.00000000000E+00 -0.00000000000E+00 -0.97763413651E+02  0.97763413651E+02  0.00000000000E+00 0. -1.
    9000006    2    1    2  501    0  0.00000000000E+00  0.00000000000E+00  0.90223658635E+03  0.10977634137E+04  0.62534282966E+03 0.  0.
         13    1    3    3    0    0 -0.11540717170E+03 -0.28938187469E+03  0.40458278009E+03  0.51063481141E+03  0.00000000000E+00 0. -1.
          2    1    3    3  501    0  0.11540717170E+03  0.28938187469E+03  0.49765380626E+03  0.58712860224E+03  0.00000000000E+00 0. -1.
<mgrwt>
<rscale>  0 0.62534283E+03</rscale>
<asrwt>0</asrwt>
<pdfrwt beam="1">0</pdfrwt>
<pdfrwt beam="2">  1        2 0.35550407E+00 0.62534283E+03</pdfrwt>
<totfact> 0.58209874E+00</totfact>
</mgrwt>
</event>
<event>
 5    1  0.2349912E-004  0.6544033E+03  0.7818608E-02  0.9798552E-01
         13   -1    0    0    0    0  0.00000000000E+00  0.00000000000E+00  0.10000000000E+04  0.10000000000E+04  0.00000000000E+00 0. -1.
          2   -1    0    0  501    0 -0.00000000000E+00 -0.00000000000E+00 -0.10706092504E+03  0.10706092504E+03  0.00000000000E+00 0. -1.
    9000006    2    1    2  501    0  0.00000000000E+00  0.00000000000E+00  0.89293907496E+03  0.11070609250E+04  0.65440331613E+03 0.  0.
         13    1    3    3    0    0  0.29346951642E+03 -0.14176712232E+03  0.49546057827E+03  0.59304591614E+03  0.00000000000E+00 0. -1.
          2    1    3    3  501    0 -0.29346951642E+03  0.14176712232E+03  0.39747849669E+03  0.51401500890E+03  0.00000000000E+00 0. -1.
<mgrwt>
<rscale>  0 0.65440332E+03</rscale>
<asrwt>0</asrwt>
<pdfrwt beam="1">0</pdfrwt>
<pdfrwt beam="2">  1        2 0.38931328E+00 0.65440332E+03</pdfrwt>
<totfact> 0.43646435E+00</totfact>
</mgrwt>
</event>
<event>
 5    1  0.2349912E-004  0.6688727E+03  0.7818608E-02  0.9771996E-01
         13   -1    0    0    0    0  0.00000000000E+00  0.00000000000E+00  0.10000000000E+04  0.10000000000E+04  0.00000000000E+00 0. -1.
          2   -1    0    0  501    0 -0.00000000000E+00 -0.00000000000E+00 -0.11184768355E+03  0.11184768355E+03  0.00000000000E+00 0. -1.
    9000006    2    1    2  501    0  0.00000000000E+00  0.00000000000E+00  0.88815231645E+03  0.11118476835E+04  0.66887273392E+03 0.  0.
         13    1    3    3    0    0  0.11917953681E+03  0.27026792478E+03  0.70478876578E+03  0.76418303928E+03  0.00000000000E+00 0. -1.
          2    1    3    3  501    0 -0.11917953681E+03 -0.27026792478E+03  0.18336355068E+03  0.34766464427E+03  0.00000000000E+00 0. -1.
<mgrwt>
<rscale>  0 0.66887273E+03</rscale>
<asrwt>0</asrwt>
<pdfrwt beam="1">0</pdfrwt>
<pdfrwt beam="2">  1        2 0.40671971E+00 0.66887273E+03</pdfrwt>
<totfact> 0.37519567E+00</totfact>
</mgrwt>
</event>
<event>
 5    1  0.2349912E-004  0.4684157E+03  0.7818608E-02  0.1022368E+00
         13   -1    0    0    0    0  0.00000000000E+00  0.00000000000E+00  0.10000000000E+04  0.10000000000E+04  0.00000000000E+00 0. -1.
          2   -1    0    0  501    0 -0.00000000000E+00 -0.00000000000E+00 -0.54853307263E+02  0.54853307263E+02  0.00000000000E+00 0. -1.
    9000006    2    1    2  501    0  0.00000000000E+00  0.00000000000E+00  0.94514669274E+03  0.10548533073E+04  0.46841565842E+03 0.  0.
         13    1    3    3    0    0  0.17537665755E+03 -0.92839786198E+02  0.75273299877E+03  0.77844920537E+03  0.00000000000E+00 0. -1.
          2    1    3    3  501    0 -0.17537665755E+03  0.92839786198E+02  0.19241369397E+03  0.27640410189E+03  0.00000000000E+00 0. -1.
<mgrwt>
<rscale>  0 0.46841566E+03</rscale>
<asrwt>0</asrwt>
<pdfrwt beam="1">0</pdfrwt>
<pdfrwt beam="2">  1        2 0.19946699E+00 0.46841566E+03</pdfrwt>
<totfact> 0.21342769E+01</totfact>
</mgrwt>
</event>
<event>
 5    1  0.2349912E-004  0.6464985E+03  0.7818608E-02  0.9813372E-01
         13   -1    0    0    0    0  0.00000000000E+00  0.00000000000E+00  0.10000000000E+04  0.10000000000E+04  0.00000000000E+00 0. -1.
          2   -1    0    0  501    0 -0.00000000000E+00 -0.00000000000E+00 -0.10449008425E+03  0.10449008425E+03  0.00000000000E+00 0. -1.
    9000006    2    1    2  501    0  0.00000000000E+00  0.00000000000E+00  0.89550991575E+03  0.11044900843E+04  0.64649852051E+03 0.  0.
         13    1    3    3    0    0  0.48404728506E+02  0.20028786243E+03  0.87325696501E+03  0.89723796872E+03  0.00000000000E+00 0. -1.
          2    1    3    3  501    0 -0.48404728506E+02 -0.20028786243E+03  0.22252950741E+02  0.20725211554E+03  0.00000000000E+00 0. -1.
<mgrwt>
<rscale>  0 0.64649852E+03</rscale>
<asrwt>0</asrwt>
<pdfrwt beam="1">0</pdfrwt>
<pdfrwt beam="2">  1        2 0.37996474E+00 0.64649852E+03</pdfrwt>
<totfact> 0.47297317E+00</totfact>
</mgrwt>
</event>
<event>
 5    1  0.2349912E-004  0.6503144E+03  0.7818608E-02  0.9806189E-01
         13   -1    0    0    0    0  0.00000000000E+00  0.00000000000E+00  0.10000000000E+04  0.10000000000E+04  0.00000000000E+00 0. -1.
          2   -1    0    0  501    0 -0.00000000000E+00 -0.00000000000E+00 -0.10572721357E+03  0.10572721357E+03  0.00000000000E+00 0. -1.
    9000006    2    1    2  501    0  0.00000000000E+00  0.00000000000E+00  0.89427278643E+03  0.11057272136E+04  0.65031442726E+03 0.  0.
         13    1    3    3    0    0 -0.16381858401E+03  0.17735767715E+02 -0.29481036796E+02  0.16739240561E+03  0.00000000000E+00 0. -1.
          2    1    3    3  501    0  0.16381858401E+03 -0.17735767715E+02  0.92375382322E+03  0.93833480797E+03  0.00000000000E+00 0. -1.
<mgrwt>
<rscale>  0 0.65031443E+03</rscale>
<asrwt>0</asrwt>
<pdfrwt beam="1">0</pdfrwt>
<pdfrwt beam="2">  1        2 0.38446341E+00 0.65031443E+03</pdfrwt>
<totfact> 0.45507240E+00</totfact>
</mgrwt>
</event>
<event>
 5    1  0.2349912E-004  0.6461428E+03  0.7818608E-02  0.9814044E-01
         13   -1    0    0    0    0  0.00000000000E+00  0.00000000000E+00  0.10000000000E+04  0.10000000000E+04  0.00000000000E+00 0. -1.
          2   -1    0    0  501    0 -0.00000000000E+00 -0.00000000000E+00 -0.10437513027E+03  0.10437513027E+03  0.00000000000E+00 0. -1.
    9000006    2    1    2  501    0  0.00000000000E+00  0.00000000000E+00  0.89562486973E+03  0.11043751303E+04  0.64614280239E+03 0.  0.
         13    1    3    3    0    0 -0.29480282369E+03  0.69355180799E+02  0.25552928924E+03  0.39625000141E+03  0.00000000000E+00 0. -1.
          2    1    3    3  501    0  0.29480282369E+03 -0.69355180799E+02  0.64009558049E+03  0.70812512886E+03  0.00000000000E+00 0. -1.
<mgrwt>
<rscale>  0 0.64614280E+03</rscale>
<asrwt>0</asrwt>
<pdfrwt beam="1">0</pdfrwt>
<pdfrwt beam="2">  1        2 0.37954673E+00 0.64614280E+03</pdfrwt>
<totfact> 0.47466859E+00</totfact>
</mgrwt>
</event>
<event>
 5    1  0.2349912E-004  0.6521803E+03  0.7818608E-02  0.9802697E-01
         13   -1    0    0    0    0  0.00000000000E+00  0.00000000000E+00  0.10000000000E+04  0.10000000000E+04  0.00000000000E+00 0. -1.
          2   -1    0    0  501    0 -0.00000000000E+00 -0.00000000000E+00 -0.10633477078E+03  0.10633477078E+03  0.00000000000E+00 0. -1.
    9000006    2    1    2  501    0  0.00000000000E+00  0.00000000000E+00  0.89366522922E+03  0.11063347708E+04  0.65218025354E+03 0.  0.
         13    1    3    3    0    0  0.26757699006E+03  0.11820884485E+03  0.69127379137E+03  0.75061989798E+03  0.00000000000E+00 0. -1.
          4    1    3    3  501    0 -0.26757699006E+03 -0.11820884485E+03  0.20239143786E+03  0.35571487280E+03  0.00000000000E+00 0. -1.
<mgrwt>
<rscale>  0 0.65218025E+03</rscale>
<asrwt>0</asrwt>
<pdfrwt beam="1">0</pdfrwt>
<pdfrwt beam="2">  1        2 0.38667271E+00 0.65218025E+03</pdfrwt>
<totfact> 0.44650842E+00</totfact>
</mgrwt>
</event>
<event>
 5    1  0.2349912E-004  0.6498139E+03  0.7818608E-02  0.9807129E-01
         13   -1    0    0    0    0  0.00000000000E+00  0.00000000000E+00  0.10000000000E+04  0.10000000000E+04  0.00000000000E+00 0. -1.
          2   -1    0    0  501    0 -0.00000000000E+00 -0.00000000000E+00 -0.10556451581E+03  0.10556451581E+03  0.00000000000E+00 0. -1.
    9000006    2    1    2  501    0  0.00000000000E+00  0.00000000000E+00  0.89443548419E+03  0.11055645158E+04  0.64981386816E+03 0.  0.
         13    1    3    3    0    0  0.22398477582E+03  0.81130871107E+02  0.82311000727E+03  0.85689058934E+03  0.00000000000E+00 0. -1.
          4    1    3    3  501    0 -0.22398477582E+03 -0.81130871107E+02  0.71325476922E+02  0.24867392647E+03  0.00000000000E+00 0. -1.
<mgrwt>
<rscale>  0 0.64981387E+03</rscale>
<asrwt>0</asrwt>
<pdfrwt beam="1">0</pdfrwt>
<pdfrwt beam="2">  1        2 0.38387178E+00 0.64981387E+03</pdfrwt>
<totfact> 0.45739089E+00</totfact>
</mgrwt>
</event>
<event>
 5    1  0.2349912E-004  0.6495152E+03  0.7818608E-02  0.9807689E-01
         13   -1    0    0    0    0  0.00000000000E+00  0.00000000000E+00  0.10000000000E+04  0.10000000000E+04  0.00000000000E+00 0. -1.
          2   -1    0    0  501    0 -0.00000000000E+00 -0.00000000000E+00 -0.10546750542E+03  0.10546750542E+03  0.00000000000E+00 0. -1.
    9000006    2    1    2  501    0  0.00000000000E+00  0.00000000000E+00  0.89453249458E+03  0.11054675054E+04  0.64951522051E+03 0.  0.
         13    1    3    3    0    0 -0.24502612584E+03  0.13197072392E+03  0.16240078280E+03  0.32222366235E+03  0.00000000000E+00 0. -1.
          4    1    3    3  501    0  0.24502612584E+03 -0.13197072392E+03  0.73213171178E+03  0.78324384307E+03  0.00000000000E+00 0. -1.
<mgrwt>
<rscale>  0 0.64951522E+03</rscale>
<asrwt>0</asrwt>
<pdfrwt beam="1">0</pdfrwt>
<pdfrwt beam="2">  1        2 0.38351901E+00 0.64951522E+03</pdfrwt>
<totfact> 0.45877841E+00</totfact>
</mgrwt>
</event>
<event>
 5    1  0.2349912E-004  0.6553305E+03  0.7818608E-02  0.9796828E-01
         13   -1    0    0    0    0  0.00000000000E+00  0.00000000000E+00  0.10000000000E+04  0.10000000000E+04  0.00000000000E+00 0. -1.
          2   -1    0    0  501    0 -0.00000000000E+00 -0.00000000000E+00 -0.10736452578E+03  0.10736452578E+03  0.00000000000E+00 0. -1.
    9000006    2    1    2  501    0  0.00000000000E+00  0.00000000000E+00  0.89263547422E+03  0.11073645258E+04  0.65533052967E+03 0.  0.
         13    1    3    3    0    0 -0.14921516825E+03  0.21651570358E+03  0.77667001485E+03  0.81997593154E+03  0.00000000000E+00 0. -1.
          2    1    3    3  501    0  0.14921516825E+03 -0.21651570358E+03  0.11596545937E+03  0.28738859424E+03  0.00000000000E+00 0. -1.
<mgrwt>
<rscale>  0 0.65533053E+03</rscale>
<asrwt>0</asrwt>
<pdfrwt beam="1">0</pdfrwt>
<pdfrwt beam="2">  1        2 0.39041728E+00 0.65533053E+03</pdfrwt>
<totfact> 0.43232591E+00</totfact>
</mgrwt>
</event>
<event>
 5    1  0.2349912E-004  0.6556184E+03  0.7818608E-02  0.9796293E-01
         13   -1    0    0    0    0  0.00000000000E+00  0.00000000000E+00  0.10000000000E+04  0.10000000000E+04  0.00000000000E+00 0. -1.
          2   -1    0    0  501    0 -0.00000000000E+00 -0.00000000000E+00 -0.10745886860E+03  0.10745886860E+03  0.00000000000E+00 0. -1.
    9000006    2    1    2  501    0  0.00000000000E+00  0.00000000000E+00  0.89254113140E+03  0.11074588686E+04  0.65561839084E+03 0.  0.
         13    1    3    3    0    0 -0.66439278748E+02 -0.19721276483E+03  0.18430988882E+02  0.20891805505E+03  0.00000000000E+00 0. -1.
          2    1    3    3  501    0  0.66439278748E+02  0.19721276483E+03  0.87411014252E+03  0.89854081355E+03  0.00000000000E+00 0. -1.
<mgrwt>
<rscale>  0 0.65561839E+03</rscale>
<asrwt>0</asrwt>
<pdfrwt beam="1">0</pdfrwt>
<pdfrwt beam="2">  1        2 0.39076035E+00 0.65561839E+03</pdfrwt>
<totfact> 0.43104714E+00</totfact>
</mgrwt>
</event>
<event>
 5    1  0.2349912E-004  0.6594056E+03  0.7818608E-02  0.9789289E-01
         13   -1    0    0    0    0  0.00000000000E+00  0.00000000000E+00  0.10000000000E+04  0.10000000000E+04  0.00000000000E+00 0. -1.
          2   -1    0    0  501    0 -0.00000000000E+00 -0.00000000000E+00 -0.10870393043E+03  0.10870393043E+03  0.00000000000E+00 0. -1.
    9000006    2    1    2  501    0  0.00000000000E+00  0.00000000000E+00  0.89129606957E+03  0.11087039304E+04  0.65940558211E+03 0.  0.
         13    1    3    3    0    0 -0.10341064513E+03  0.10763125128E+03  0.93994094028E+03  0.95171803544E+03  0.00000000000E+00 0. -1.
          2    1    3    3  501    0  0.10341064513E+03 -0.10763125128E+03 -0.48644870706E+02  0.15698589499E+03  0.00000000000E+00 0. -1.
<mgrwt>
<rscale>  0 0.65940558E+03</rscale>
<asrwt>0</asrwt>
<pdfrwt beam="1">0</pdfrwt>
<pdfrwt beam="2">  1        2 0.39528785E+00 0.65940558E+03</pdfrwt>
<totfact> 0.41448829E+00</totfact>
</mgrwt>
</event>
<event>
 5    1  0.2349912E-004  0.6899454E+03  0.7818608E-02  0.9734583E-01
         13   -1    0    0    0    0  0.00000000000E+00  0.00000000000E+00  0.10000000000E+04  0.10000000000E+04  0.00000000000E+00 0. -1.
          2   -1    0    0  501    0 -0.00000000000E+00 -0.00000000000E+00 -0.11900616052E+03  0.11900616052E+03  0.00000000000E+00 0. -1.
    9000006    2    1    2  501    0  0.00000000000E+00  0.00000000000E+00  0.88099383948E+03  0.11190061605E+04  0.68994539066E+03 0.  0.
         13    1    3    3    0    0  0.29863919722E+02 -0.40709679833E+02  0.99397523803E+03  0.99525670334E+03  0.00000000000E+00 0. -1.
          4    1    3    3  501    0 -0.29863919722E+02  0.40709679833E+02 -0.11298139855E+03  0.12374945718E+03  0.00000000000E+00 0. -1.
<mgrwt>
<rscale>  0 0.68994539E+03</rscale>
<asrwt>0</asrwt>
<pdfrwt beam="1">0</pdfrwt>
<pdfrwt beam="2">  1        2 0.43275059E+00 0.68994539E+03</pdfrwt>
<totfact> 0.29784817E+00</totfact>
</mgrwt>
</event>
<event>
 5    1  0.2349912E-004  0.6463728E+03  0.7818608E-02  0.9813609E-01
         13   -1    0    0    0    0  0.00000000000E+00  0.00000000000E+00  0.10000000000E+04  0.10000000000E+04  0.00000000000E+00 0. -1.
          2   -1    0    0  501    0 -0.00000000000E+00 -0.00000000000E+00 -0.10444945793E+03  0.10444945793E+03  0.00000000000E+00 0. -1.
    9000006    2    1    2  501    0  0.00000000000E+00  0.00000000000E+00  0.89555054207E+03  0.11044494579E+04  0.64637282717E+03 0.  0.
         13    1    3    3    0    0 -0.11764385966E+03 -0.27738118305E+03  0.24800444174E+03  0.39023915943E+03  0.00000000000E+00 0. -1.
          4    1    3    3  501    0  0.11764385966E+03  0.27738118305E+03  0.64754610033E+03  0.71421029850E+03  0.00000000000E+00 0. -1.
<mgrwt>
<rscale>  0 0.64637283E+03</rscale>
<asrwt>0</asrwt>
<pdfrwt beam="1">0</pdfrwt>
<pdfrwt beam="2">  1        2 0.37981701E+00 0.64637283E+03</pdfrwt>
<totfact> 0.47357172E+00</totfact>
</mgrwt>
</event>
<event>
 5    1  0.2349912E-004  0.6738384E+03  0.7818608E-02  0.9763049E-01
         13   -1    0    0    0    0  0.00000000000E+00  0.00000000000E+00  0.10000000000E+04  0.10000000000E+04  0.00000000000E+00 0. -1.
          2   -1    0    0  501    0 -0.00000000000E+00 -0.00000000000E+00 -0.11351453759E+03  0.11351453759E+03  0.00000000000E+00 0. -1.
    9000006    2    1    2  501    0  0.00000000000E+00  0.00000000000E+00  0.88648546241E+03  0.11135145376E+04  0.67383837109E+03 0.  0.
         13    1    3    3    0    0 -0.21698660782E+03  0.20853244472E+03  0.69355928466E+03  0.75603799495E+03  0.00000000000E+00 0. -1.
          4    1    3    3  501    0  0.21698660782E+03 -0.20853244472E+03  0.19292617775E+03  0.35747654264E+03  0.00000000000E+00 0. -1.
<mgrwt>
<rscale>  0 0.67383837E+03</rscale>
<asrwt>0</asrwt>
<pdfrwt beam="1">0</pdfrwt>
<pdfrwt beam="2">  1        2 0.41278101E+00 0.67383837E+03</pdfrwt>
<totfact> 0.35574547E+00</totfact>
</mgrwt>
</event>
<event>
 5    1  0.2349912E-004  0.6526832E+03  0.7818608E-02  0.9801757E-01
         13   -1    0    0    0    0  0.00000000000E+00  0.00000000000E+00  0.10000000000E+04  0.10000000000E+04  0.00000000000E+00 0. -1.
          2   -1    0    0  501    0 -0.00000000000E+00 -0.00000000000E+00 -0.10649884538E+03  0.10649884538E+03  0.00000000000E+00 0. -1.
    9000006    2    1    2  501    0  0.00000000000E+00  0.00000000000E+00  0.89350115462E+03  0.11064988454E+04  0.65268321683E+03 0.  0.
         13    1    3    3    0    0 -0.17983629731E+02 -0.24453489597E+03  0.81656249668E+02  0.25843465207E+03  0.00000000000E+00 0. -1.
          2    1    3    3  501    0  0.17983629731E+02  0.24453489597E+03  0.81184490495E+03  0.84806419331E+03  0.00000000000E+00 0. -1.
<mgrwt>
<rscale>  0 0.65268322E+03</rscale>
<asrwt>0</asrwt>
<pdfrwt beam="1">0</pdfrwt>
<pdfrwt beam="2">  1        2 0.38726935E+00 0.65268322E+03</pdfrwt>
<totfact> 0.44422084E+00</totfact>
</mgrwt>
</event>
<event>
 5    1  0.2349912E-004  0.5605252E+03  0.7818608E-02  0.9990867E-01
         13   -1    0    0    0    0  0.00000000000E+00  0.00000000000E+00  0.10000000000E+04  0.10000000000E+04  0.00000000000E+00 0. -1.
          2   -1    0    0  501    0 -0.00000000000E+00 -0.00000000000E+00 -0.78547113734E+02  0.78547113734E+02  0.00000000000E+00 0. -1.
    9000006    2    1    2  501    0  0.00000000000E+00  0.00000000000E+00  0.92145288627E+03  0.10785471137E+04  0.56052515995E+03 0.  0.
         13    1    3    3    0    0 -0.17340359314E+02  0.11626313274E+03 -0.28820673814E+02  0.12103072062E+03  0.00000000000E+00 0. -1.
          2    1    3    3  501    0  0.17340359314E+02 -0.11626313274E+03  0.95027356008E+03  0.95751639311E+03  0.00000000000E+00 0. -1.
<mgrwt>
<rscale>  0 0.56052516E+03</rscale>
<asrwt>0</asrwt>
<pdfrwt beam="1">0</pdfrwt>
<pdfrwt beam="2">  1        2 0.28562647E+00 0.56052516E+03</pdfrwt>
<totfact> 0.10392309E+01</totfact>
</mgrwt>
</event>
<event>
 5    1  0.2349912E-004  0.6509669E+03  0.7818608E-02  0.9804967E-01
         13   -1    0    0    0    0  0.00000000000E+00  0.00000000000E+00  0.10000000000E+04  0.10000000000E+04  0.00000000000E+00 0. -1.
          2   -1    0    0  501    0 -0.00000000000E+00 -0.00000000000E+00 -0.10593946024E+03  0.10593946024E+03  0.00000000000E+00 0. -1.
    9000006    2    1    2  501    0  0.00000000000E+00  0.00000000000E+00  0.89406053976E+03  0.11059394602E+04  0.65096685091E+03 0.  0.
         13    1    3    3    0    0  0.17803859597E+03  0.91512004886E+02  0.88305118031E+03  0.90545655652E+03  0.00000000000E+00 0. -1.
          4    1    3    3  501    0 -0.17803859597E+03 -0.91512004886E+02  0.11009359446E+02  0.20048290373E+03  0.00000000000E+00 0. -1.
<mgrwt>
<rscale>  0 0.65096685E+03</rscale>
<asrwt>0</asrwt>
<pdfrwt beam="1">0</pdfrwt>
<pdfrwt beam="2">  1        2 0.38523521E+00 0.65096685E+03</pdfrwt>
<totfact> 0.45206385E+00</totfact>
</mgrwt>
</event>
<event>
 5    1  0.2349912E-004  0.7523776E+03  0.7818608E-02  0.9631628E-01
         13   -1    0    0    0    0  0.00000000000E+00  0.00000000000E+00  0.10000000000E+04  0.10000000000E+04  0.00000000000E+00 0. -1.
          2   -1    0    0  501    0 -0.00000000000E+00 -0.00000000000E+00 -0.14151803180E+03  0.14151803180E+03  0.00000000000E+00 0. -1.
    9000006    2    1    2  501    0  0.00000000000E+00  0.00000000000E+00  0.85848196820E+03  0.11415180318E+04  0.75237764931E+03 0.  0.
         13    1    3    3    0    0  0.32430225429E+03  0.51559406193E+02  0.15076828901E+03  0.36133281262E+03  0.00000000000E+00 0. -1.
          4    1    3    3  501    0 -0.32430225429E+03 -0.51559406193E+02  0.70771367920E+03  0.78018521918E+03  0.00000000000E+00 0. -1.
<mgrwt>
<rscale>  0 0.75237765E+03</rscale>
<asrwt>0</asrwt>
<pdfrwt beam="1">0</pdfrwt>
<pdfrwt beam="2">  1        2 0.51461211E+00 0.75237765E+03</pdfrwt>
<totfact> 0.13747482E+00</totfact>
</mgrwt>
</event>
<event>
 5    1  0.2349912E-004  0.5636089E+03  0.7818608E-02  0.9983922E-01
         13   -1    0    0    0    0  0.00000000000E+00  0.00000000000E+00  0.10000000000E+04  0.10000000000E+04  0.00000000000E+00 0. -1.
          2   -1    0    0  501    0 -0.00000000000E+00 -0.00000000000E+00 -0.79413756023E+02  0.79413756023E+02  0.00000000000E+00 0. -1.
    9000006    2    1    2  501    0  0.00000000000E+00  0.00000000000E+00  0.92058624398E+03  0.10794137560E+04  0.56360892833E+03 0.  0.
         13    1    3    3    0    0 -0.70615896224E+02  0.25452712767E+03  0.27222367371E+03  0.37931041648E+03  0.00000000000E+00 0. -1.
          4    1    3    3  501    0  0.70615896224E+02 -0.25452712767E+03  0.64836257027E+03  0.70010333955E+03  0.00000000000E+00 0. -1.
<mgrwt>
<rscale>  0 0.56360893E+03</rscale>
<asrwt>0</asrwt>
<pdfrwt beam="1">0</pdfrwt>
<pdfrwt beam="2">  1        2 0.28877790E+00 0.56360893E+03</pdfrwt>
<totfact> 0.10126342E+01</totfact>
</mgrwt>
</event>
<event>
 5    1  0.2349912E-004  0.6405901E+03  0.7818608E-02  0.9824598E-01
         13   -1    0    0    0    0  0.00000000000E+00  0.00000000000E+00  0.10000000000E+04  0.10000000000E+04  0.00000000000E+00 0. -1.
          2   -1    0    0  501    0 -0.00000000000E+00 -0.00000000000E+00 -0.10258892615E+03  0.10258892615E+03  0.00000000000E+00 0. -1.
    9000006    2    1    2  501    0  0.00000000000E+00  0.00000000000E+00  0.89741107385E+03  0.11025889261E+04  0.64059012215E+03 0.  0.
         13    1    3    3    0    0  0.15843995515E+03  0.65394082458E+02  0.91441662422E+03  0.93034260790E+03  0.00000000000E+00 0. -1.
          4    1    3    3  501    0 -0.15843995515E+03 -0.65394082458E+02 -0.17005550374E+02  0.17224631825E+03  0.00000000000E+00 0. -1.
<mgrwt>
<rscale>  0 0.64059012E+03</rscale>
<asrwt>0</asrwt>
<pdfrwt beam="1">0</pdfrwt>
<pdfrwt beam="2">  1        2 0.37305143E+00 0.64059012E+03</pdfrwt>
<totfact> 0.50173571E+00</totfact>
</mgrwt>
</event>
<event>
 5    1  0.2349912E-004  0.6629306E+03  0.7818608E-02  0.9782814E-01
         13   -1    0    0    0    0  0.00000000000E+00  0.00000000000E+00  0.10000000000E+04  0.10000000000E+04  0.00000000000E+00 0. -1.
          2   -1    0    0  501    0 -0.00000000000E+00 -0.00000000000E+00 -0.10986925729E+03  0.10986925729E+03  0.00000000000E+00 0. -1.
    9000006    2    1    2  501    0  0.00000000000E+00  0.00000000000E+00  0.89013074271E+03  0.11098692573E+04  0.66293063676E+03 0.  0.
         13    1    3    3    0    0  0.15980144440E+03  0.21406218301E+03  0.11652309168E+03  0.29143910293E+03  0.00000000000E+00 0. -1.
          2    1    3    3  501    0 -0.15980144440E+03 -0.21406218301E+03  0.77360765103E+03  0.81843015435E+03  0.00000000000E+00 0. -1.
<mgrwt>
<rscale>  0 0.66293064E+03</rscale>
<asrwt>0</asrwt>
<pdfrwt beam="1">0</pdfrwt>
<pdfrwt beam="2">  1        2 0.39952541E+00 0.66293064E+03</pdfrwt>
<totfact> 0.39951225E+00</totfact>
</mgrwt>
</event>
<event>
 5    1  0.2349912E-004  0.6500429E+03  0.7818608E-02  0.9806699E-01
         13   -1    0    0    0    0  0.00000000000E+00  0.00000000000E+00  0.10000000000E+04  0.10000000000E+04  0.00000000000E+00 0. -1.
          2   -1    0    0  501    0 -0.00000000000E+00 -0.00000000000E+00 -0.10563893269E+03  0.10563893269E+03  0.00000000000E+00 0. -1.
    9000006    2    1    2  501    0  0.00000000000E+00  0.00000000000E+00  0.89436106731E+03  0.11056389327E+04  0.65004286840E+03 0.  0.
         13    1    3    3    0    0  0.11552611160E+03 -0.30374273328E+03  0.45695161871E+03  0.56072338308E+03  0.00000000000E+00 0. -1.
          4    1    3    3  501    0 -0.11552611160E+03  0.30374273328E+03  0.43740944860E+03  0.54491554961E+03  0.00000000000E+00 0. -1.
<mgrwt>
<rscale>  0 0.65004287E+03</rscale>
<asrwt>0</asrwt>
<pdfrwt beam="1">0</pdfrwt>
<pdfrwt beam="2">  1        2 0.38414238E+00 0.65004287E+03</pdfrwt>
<totfact> 0.45632910E+00</totfact>
</mgrwt>
</event>
<event>
 5    1  0.2349912E-004  0.6465254E+03  0.7818608E-02  0.9813321E-01
         13   -1    0    0    0    0  0.00000000000E+00  0.00000000000E+00  0.10000000000E+04  0.10000000000E+04  0.00000000000E+00 0. -1.
          2   -1    0    0  501    0 -0.00000000000E+00 -0.00000000000E+00 -0.10449877101E+03  0.10449877101E+03  0.00000000000E+00 0. -1.
    9000006    2    1    2  501    0  0.00000000000E+00  0.00000000000E+00  0.89550122899E+03  0.11044987710E+04  0.64652539320E+03 0.  0.
         13    1    3    3    0    0 -0.23813645899E+03 -0.14497323904E+03  0.72727814189E+03  0.77888362983E+03  0.00000000000E+00 0. -1.
          2    1    3    3  501    0  0.23813645899E+03  0.14497323904E+03  0.16822308710E+03  0.32561514119E+03  0.00000000000E+00 0. -1.
<mgrwt>
<rscale>  0 0.64652539E+03</rscale>
<asrwt>0</asrwt>
<pdfrwt beam="1">0</pdfrwt>
<pdfrwt beam="2">  1        2 0.37999633E+00 0.64652539E+03</pdfrwt>
<totfact> 0.47284527E+00</totfact>
</mgrwt>
</event>
<event>
 5    1  0.2349912E-004  0.6394147E+03  0.7818608E-02  0.9826847E-01
         13   -1    0    0    0    0  0.00000000000E+00  0.00000000000E+00  0.10000000000E+04  0.10000000000E+04  0.00000000000E+00 0. -1.
          2   -1    0    0  501    0 -0.00000000000E+00 -0.00000000000E+00 -0.10221278265E+03  0.10221278265E+03  0.00000000000E+00 0. -1.
    9000006    2    1    2  501    0  0.00000000000E+00  0.00000000000E+00  0.89778721735E+03  0.11022127827E+04  0.63941467812E+03 0.  0.
         13    1    3    3    0    0  0.72817445583E+02 -0.11428766167E+03  0.94804362910E+03  0.95767989050E+03  0.00000000000E+00 0. -1.
          4    1    3    3  501    0 -0.72817445583E+02  0.11428766167E+03 -0.50256411749E+02  0.14453289215E+03  0.00000000000E+00 0. -1.
<mgrwt>
<rscale>  0 0.63941468E+03</rscale>
<asrwt>0</asrwt>
<pdfrwt beam="1">0</pdfrwt>
<pdfrwt beam="2">  1        2 0.37168363E+00 0.63941468E+03</pdfrwt>
<totfact> 0.50761260E+00</totfact>
</mgrwt>
</event>
<event>
 5    1  0.2349912E-004  0.6511670E+03  0.7818608E-02  0.9804592E-01
         13   -1    0    0    0    0  0.00000000000E+00  0.00000000000E+00  0.10000000000E+04  0.10000000000E+04  0.00000000000E+00 0. -1.
          2   -1    0    0  501    0 -0.00000000000E+00 -0.00000000000E+00 -0.10600462526E+03  0.10600462526E+03  0.00000000000E+00 0. -1.
    9000006    2    1    2  501    0  0.00000000000E+00  0.00000000000E+00  0.89399537474E+03  0.11060046253E+04  0.65116703007E+03 0.  0.
         13    1    3    3    0    0 -0.21742708008E+03  0.24091848168E+03  0.40243440450E+03  0.51698133418E+03  0.00000000000E+00 0. -1.
          4    1    3    3  501    0  0.21742708008E+03 -0.24091848168E+03  0.49156097024E+03  0.58902329108E+03  0.00000000000E+00 0. -1.
<mgrwt>
<rscale>  0 0.65116703E+03</rscale>
<asrwt>0</asrwt>
<pdfrwt beam="1">0</pdfrwt>
<pdfrwt beam="2">  1        2 0.38547218E+00 0.65116703E+03</pdfrwt>
<totfact> 0.45114377E+00</totfact>
</mgrwt>
</event>
<event>
 5    1  0.2349912E-004  0.6564798E+03  0.7818608E-02  0.9794696E-01
         13   -1    0    0    0    0  0.00000000000E+00  0.00000000000E+00  0.10000000000E+04  0.10000000000E+04  0.00000000000E+00 0. -1.
          2   -1    0    0  501    0 -0.00000000000E+00 -0.00000000000E+00 -0.10774142894E+03  0.10774142894E+03  0.00000000000E+00 0. -1.
    9000006    2    1    2  501    0  0.00000000000E+00  0.00000000000E+00  0.89225857106E+03  0.11077414289E+04  0.65647979084E+03 0.  0.
         13    1    3    3    0    0  0.31095205031E+03  0.90214837329E+02  0.35507969314E+03  0.48053249937E+03  0.00000000000E+00 0. -1.
          2    1    3    3  501    0 -0.31095205031E+03 -0.90214837329E+02  0.53717887791E+03  0.62720892958E+03  0.00000000000E+00 0. -1.
<mgrwt>
<rscale>  0 0.65647979E+03</rscale>
<asrwt>0</asrwt>
<pdfrwt beam="1">0</pdfrwt>
<pdfrwt beam="2">  1        2 0.39178784E+00 0.65647979E+03</pdfrwt>
<totfact> 0.42723761E+00</totfact>
</mgrwt>
</event>
<event>
 5    1  0.2349912E-004  0.6683840E+03  0.7818608E-02  0.9772882E-01
         13   -1    0    0    0    0  0.00000000000E+00  0.00000000000E+00  0.10000000000E+04  0.10000000000E+04  0.00000000000E+00 0. -1.
          2   -1    0    0  501    0 -0.00000000000E+00 -0.00000000000E+00 -0.11168429263E+03  0.11168429263E+03  0.00000000000E+00 0. -1.
    9000006    2    1    2  501    0  0.00000000000E+00  0.00000000000E+00  0.88831570737E+03  0.11116842926E+04  0.66838399929E+03 0.  0.
         13    1    3    3    0    0  0.28681202850E+03  0.89537326014E+02  0.68750453000E+03  0.75029364333E+03  0.00000000000E+00 0. -1.
          2    1    3    3  501    0 -0.28681202850E+03 -0.89537326014E+02  0.20081117737E+03  0.36139064930E+03  0.00000000000E+00 0. -1.
<mgrwt>
<rscale>  0 0.66838400E+03</rscale>
<asrwt>0</asrwt>
<pdfrwt beam="1">0</pdfrwt>
<pdfrwt beam="2">  1        2 0.40612556E+00 0.66838400E+03</pdfrwt>
<totfact> 0.37715244E+00</totfact>
</mgrwt>
</event>
<event>
 5    1  0.2349912E-004  0.6451235E+03  0.7818608E-02  0.9815973E-01
         13   -1    0    0    0    0  0.00000000000E+00  0.00000000000E+00  0.10000000000E+04  0.10000000000E+04  0.00000000000E+00 0. -1.
          2   -1    0    0  501    0 -0.00000000000E+00 -0.00000000000E+00 -0.10404609472E+03  0.10404609472E+03  0.00000000000E+00 0. -1.
    9000006    2    1    2  501    0  0.00000000000E+00  0.00000000000E+00  0.89595390528E+03  0.11040460947E+04  0.64512353770E+03 0.  0.
         13    1    3    3    0    0  0.25908201903E+03  0.17001876726E+03  0.29475211957E+03  0.42767825032E+03  0.00000000000E+00 0. -1.
          2    1    3    3  501    0 -0.25908201903E+03 -0.17001876726E+03  0.60120178571E+03  0.67636784440E+03  0.00000000000E+00 0. -1.
<mgrwt>
<rscale>  0 0.64512354E+03</rscale>
<asrwt>0</asrwt>
<pdfrwt beam="1">0</pdfrwt>
<pdfrwt beam="2">  1        2 0.37835023E+00 0.64512354E+03</pdfrwt>
<totfact> 0.47955206E+00</totfact>
</mgrwt>
</event>
<event>
 5    1  0.2349912E-004  0.6392030E+03  0.7818608E-02  0.9827253E-01
         13   -1    0    0    0    0  0.00000000000E+00  0.00000000000E+00  0.10000000000E+04  0.10000000000E+04  0.00000000000E+00 0. -1.
          2   -1    0    0  501    0 -0.00000000000E+00 -0.00000000000E+00 -0.10214510367E+03  0.10214510367E+03  0.00000000000E+00 0. -1.
    9000006    2    1    2  501    0  0.00000000000E+00  0.00000000000E+00  0.89785489633E+03  0.11021451037E+04  0.63920295264E+03 0.  0.
         13    1    3    3    0    0  0.23507586337E+03  0.18305226045E+02  0.82093937539E+03  0.85412949891E+03  0.00000000000E+00 0. -1.
          2    1    3    3  501    0 -0.23507586337E+03 -0.18305226045E+02  0.76915520946E+02  0.24801560476E+03  0.00000000000E+00 0. -1.
<mgrwt>
<rscale>  0 0.63920295E+03</rscale>
<asrwt>0</asrwt>
<pdfrwt beam="1">0</pdfrwt>
<pdfrwt beam="2">  1        2 0.37143752E+00 0.63920295E+03</pdfrwt>
<totfact> 0.50867669E+00</totfact>
</mgrwt>
</event>
<event>
 5    1  0.2349912E-004  0.6450286E+03  0.7818608E-02  0.9816153E-01
         13   -1    0    0    0    0  0.00000000000E+00  0.00000000000E+00  0.10000000000E+04  0.10000000000E+04  0.00000000000E+00 0. -1.
          2   -1    0    0  501    0 -0.00000000000E+00 -0.00000000000E+00 -0.10401548418E+03  0.10401548418E+03  0.00000000000E+00 0. -1.
    9000006    2    1    2  501    0  0.00000000000E+00  0.00000000000E+00  0.89598451582E+03  0.11040154842E+04  0.64502863248E+03 0.  0.
         13    1    3    3    0    0 -0.32489874539E+02  0.26133456856E+03  0.76665871965E+03  0.81062749835E+03  0.00000000000E+00 0. -1.
          2    1    3    3  501    0  0.32489874539E+02 -0.26133456856E+03  0.12932579617E+03  0.29338798583E+03  0.00000000000E+00 0. -1.
<mgrwt>
<rscale>  0 0.64502863E+03</rscale>
<asrwt>0</asrwt>
<pdfrwt beam="1">0</pdfrwt>
<pdfrwt beam="2">  1        2 0.37823892E+00 0.64502863E+03</pdfrwt>
<totfact> 0.48000870E+00</totfact>
</mgrwt>
</event>
<event>
 5    1  0.2349912E-004  0.6585867E+03  0.7818608E-02  0.9790799E-01
         13   -1    0    0    0    0  0.00000000000E+00  0.00000000000E+00  0.10000000000E+04  0.10000000000E+04  0.00000000000E+00 0. -1.
          2   -1    0    0  501    0 -0.00000000000E+00 -0.00000000000E+00 -0.10843409746E+03  0.10843409746E+03  0.00000000000E+00 0. -1.
    9000006    2    1    2  501    0  0.00000000000E+00  0.00000000000E+00  0.89156590254E+03  0.11084340975E+04  0.65858666085E+03 0.  0.
         13    1    3    3    0    0 -0.11216401496E+03 -0.71665953403E+02  0.95270602348E+03  0.96195922071E+03  0.00000000000E+00 0. -1.
          4    1    3    3  501    0  0.11216401496E+03  0.71665953403E+02 -0.61140120944E+02  0.14647487675E+03  0.00000000000E+00 0. -1.
<mgrwt>
<rscale>  0 0.65858666E+03</rscale>
<asrwt>0</asrwt>
<pdfrwt beam="1">0</pdfrwt>
<pdfrwt beam="2">  1        2 0.39430664E+00 0.65858666E+03</pdfrwt>
<totfact> 0.41802725E+00</totfact>
</mgrwt>
</event>
<event>
 5    1  0.2349912E-004  0.6515943E+03  0.7818608E-02  0.9803792E-01
         13   -1    0    0    0    0  0.00000000000E+00  0.00000000000E+00  0.10000000000E+04  0.10000000000E+04  0.00000000000E+00 0. -1.
          2   -1    0    0  501    0 -0.00000000000E+00 -0.00000000000E+00 -0.10614376765E+03  0.10614376765E+03  0.00000000000E+00 0. -1.
    9000006    2    1    2  501    0  0.00000000000E+00  0.00000000000E+00  0.89385623235E+03  0.11061437677E+04  0.65159425305E+03 0.  0.
         13    1    3    3    0    0  0.23725805858E+03 -0.82712201731E+02  0.79899442733E+03  0.83757076691E+03  0.00000000000E+00 0. -1.
          4    1    3    3  501    0 -0.23725805858E+03  0.82712201731E+02  0.94861805016E+02  0.26857300074E+03  0.00000000000E+00 0. -1.
<mgrwt>
<rscale>  0 0.65159425E+03</rscale>
<asrwt>0</asrwt>
<pdfrwt beam="1">0</pdfrwt>
<pdfrwt beam="2">  1        2 0.38597815E+00 0.65159425E+03</pdfrwt>
<totfact> 0.44918488E+00</totfact>
</mgrwt>
</event>
<event>
 5    1  0.2349912E-004  0.6644144E+03  0.7818608E-02  0.9780101E-01
         13   -1    0    0    0    0  0.00000000000E+00  0.00000000000E+00  0.10000000000E+04  0.10000000000E+04  0.00000000000E+00 0. -1.
          2   -1    0    0  501    0 -0.00000000000E+00 -0.00000000000E+00 -0.11036161680E+03  0.11036161680E+03  0.00000000000E+00 0. -1.
    9000006    2    1    2  501    0  0.00000000000E+00  0.00000000000E+00  0.88963838320E+03  0.11103616168E+04  0.66441437915E+03 0.  0.
         13    1    3    3    0    0  0.38158061869E+02  0.26944591907E+03  0.12639540463E+03  0.30005489382E+03  0.00000000000E+00 0. -1.
          2    1    3    3  501    0 -0.38158061869E+02 -0.26944591907E+03  0.76324297856E+03  0.81030672299E+03  0.00000000000E+00 0. -1.
<mgrwt>
<rscale>  0 0.66441438E+03</rscale>
<asrwt>0</asrwt>
<pdfrwt beam="1">0</pdfrwt>
<pdfrwt beam="2">  1        2 0.40131582E+00 0.66441438E+03</pdfrwt>
<totfact> 0.39333226E+00</totfact>
</mgrwt>
</event>
<event>
 5    1  0.2349912E-004  0.5814653E+03  0.7818608E-02  0.9944624E-01
         13   -1    0    0    0    0  0.00000000000E+00  0.00000000000E+00  0.10000000000E+04  0.10000000000E+04  0.00000000000E+00 0. -1.
          2   -1    0    0  501    0 -0.00000000000E+00 -0.00000000000E+00 -0.84525468489E+02  0.84525468489E+02  0.00000000000E+00 0. -1.
    9000006    2    1    2  501    0  0.00000000000E+00  0.00000000000E+00  0.91547453151E+03  0.10845254685E+04  0.58146528182E+03 0.  0.
         13    1    3    3    0    0 -0.25953071841E+03 -0.11019060217E+03  0.58998359357E+03  0.65389510114E+03  0.00000000000E+00 0. -1.
          4    1    3    3  501    0  0.25953071841E+03  0.11019060217E+03  0.32549093794E+03  0.43063036735E+03  0.00000000000E+00 0. -1.
<mgrwt>
<rscale>  0 0.58146528E+03</rscale>
<asrwt>0</asrwt>
<pdfrwt beam="1">0</pdfrwt>
<pdfrwt beam="2">  1        2 0.30736599E+00 0.58146528E+03</pdfrwt>
<totfact> 0.86887967E+00</totfact>
</mgrwt>
</event>
<event>
 5    1  0.2349912E-004  0.6469328E+03  0.7818608E-02  0.9812552E-01
         13   -1    0    0    0    0  0.00000000000E+00  0.00000000000E+00  0.10000000000E+04  0.10000000000E+04  0.00000000000E+00 0. -1.
          2   -1    0    0  501    0 -0.00000000000E+00 -0.00000000000E+00 -0.10463051587E+03  0.10463051587E+03  0.00000000000E+00 0. -1.
    9000006    2    1    2  501    0  0.00000000000E+00  0.00000000000E+00  0.89536948413E+03  0.11046305159E+04  0.64693281219E+03 0.  0.
         13    1    3    3    0    0  0.24638894772E+03 -0.20580554559E+03  0.51527800362E+03  0.60710366262E+03  0.00000000000E+00 0. -1.
          2    1    3    3  501    0 -0.24638894772E+03  0.20580554559E+03  0.38009148051E+03  0.49752685325E+03  0.00000000000E+00 0. -1.
<mgrwt>
<rscale>  0 0.64693281E+03</rscale>
<asrwt>0</asrwt>
<pdfrwt beam="1">0</pdfrwt>
<pdfrwt beam="2">  1        2 0.38047541E+00 0.64693281E+03</pdfrwt>
<totfact> 0.47090946E+00</totfact>
</mgrwt>
</event>
<event>
 5    1  0.2349912E-004  0.6351410E+03  0.7818608E-02  0.9835068E-01
         13   -1    0    0    0    0  0.00000000000E+00  0.00000000000E+00  0.10000000000E+04  0.10000000000E+04  0.00000000000E+00 0. -1.
          2   -1    0    0  501    0 -0.00000000000E+00 -0.00000000000E+00 -0.10085101533E+03  0.10085101533E+03  0.00000000000E+00 0. -1.
    9000006    2    1    2  501    0  0.00000000000E+00  0.00000000000E+00  0.89914898467E+03  0.11008510153E+04  0.63514097753E+03 0.  0.
         13    1    3    3    0    0 -0.29617602727E+03  0.89083927774E+02  0.32465100917E+03  0.44839097122E+03  0.00000000000E+00 0. -1.
          4    1    3    3  501    0  0.29617602727E+03 -0.89083927774E+02  0.57449797549E+03  0.65246004411E+03  0.00000000000E+00 0. -1.
<mgrwt>
<rscale>  0 0.63514098E+03</rscale>
<asrwt>0</asrwt>
<pdfrwt beam="1">0</pdfrwt>
<pdfrwt beam="2">  1        2 0.36673174E+00 0.63514098E+03</pdfrwt>
<totfact> 0.52942044E+00</totfact>
</mgrwt>
</event>
<event>
 5    1  0.2349912E-004  0.6596486E+03  0.7818608E-02  0.9788841E-01
         13   -1    0    0    0    0  0.00000000000E+00  0.00000000000E+00  0.10000000000E+04  0.10000000000E+04  0.00000000000E+00 0. -1.
          2   -1    0    0  501    0 -0.00000000000E+00 -0.00000000000E+00 -0.10878405660E+03  0.10878405660E+03  0.00000000000E+00 0. -1.
    9000006    2    1    2  501    0  0.00000000000E+00  0.00000000000E+00  0.89121594340E+03  0.11087840566E+04  0.65964856281E+03 0.  0.
         13    1    3    3    0    0 -0.13288620535E+03 -0.11477779104E+03  0.91490330210E+03  0.93160116847E+03  0.00000000000E+00 0. -1.
          4    1    3    3  501    0  0.13288620535E+03  0.11477779104E+03 -0.23687358707E+02  0.17718288814E+03  0.00000000000E+00 0. -1.
<mgrwt>
<rscale>  0 0.65964856E+03</rscale>
<asrwt>0</asrwt>
<pdfrwt beam="1">0</pdfrwt>
<pdfrwt beam="2">  1        2 0.39557922E+00 0.65964856E+03</pdfrwt>
<totfact> 0.41344261E+00</totfact>
</mgrwt>
</event>
<event>
 5    1  0.2349912E-004  0.6487720E+03  0.7818608E-02  0.9809086E-01
         13   -1    0    0    0    0  0.00000000000E+00  0.00000000000E+00  0.10000000000E+04  0.10000000000E+04  0.00000000000E+00 0. -1.
          2   -1    0    0  501    0 -0.00000000000E+00 -0.00000000000E+00 -0.10522628052E+03  0.10522628052E+03  0.00000000000E+00 0. -1.
    9000006    2    1    2  501    0  0.00000000000E+00  0.00000000000E+00  0.89477371948E+03  0.11052262805E+04  0.64877201085E+03 0.  0.
         13    1    3    3    0    0  0.23172592755E+03 -0.11058835210E+03  0.10966970998E+03  0.27920267621E+03  0.00000000000E+00 0. -1.
          4    1    3    3  501    0 -0.23172592755E+03  0.11058835210E+03  0.78510400951E+03  0.82602360430E+03  0.00000000000E+00 0. -1.
<mgrwt>
<rscale>  0 0.64877201E+03</rscale>
<asrwt>0</asrwt>
<pdfrwt beam="1">0</pdfrwt>
<pdfrwt beam="2">  1        2 0.38264183E+00 0.64877201E+03</pdfrwt>
<totfact> 0.46224519E+00</totfact>
</mgrwt>
</event>
<event>
 5    1  0.2349912E-004  0.6430330E+03  0.7818608E-02  0.9819941E-01
         13   -1    0    0    0    0  0.00000000000E+00  0.00000000000E+00  0.10000000000E+04  0.10000000000E+04  0.00000000000E+00 0. -1.
          2   -1    0    0  501    0 -0.00000000000E+00 -0.00000000000E+00 -0.10337287379E+03  0.10337287379E+03  0.00000000000E+00 0. -1.
    9000006    2    1    2  501    0  0.00000000000E+00  0.00000000000E+00  0.89662712621E+03  0.11033728738E+04  0.64303304359E+03 0.  0.
         13    1    3    3    0    0  0.45030505025E+02  0.70908057838E+00 -0.97933822313E+02  0.10779277680E+03  0.00000000000E+00 0. -1.
          4    1    3    3  501    0 -0.45030505025E+02 -0.70908057838E+00  0.99456094853E+03  0.99558009698E+03  0.00000000000E+00 0. -1.
<mgrwt>
<rscale>  0 0.64303304E+03</rscale>
<asrwt>0</asrwt>
<pdfrwt beam="1">0</pdfrwt>
<pdfrwt beam="2">  1        2 0.37590215E+00 0.64303304E+03</pdfrwt>
<totfact> 0.48968686E+00</totfact>
</mgrwt>
</event>
<event>
 5    1  0.2349912E-004  0.6540573E+03  0.7818608E-02  0.9799196E-01
         13   -1    0    0    0    0  0.00000000000E+00  0.00000000000E+00  0.10000000000E+04  0.10000000000E+04  0.00000000000E+00 0. -1.
          2   -1    0    0  501    0 -0.00000000000E+00 -0.00000000000E+00 -0.10694773867E+03  0.10694773867E+03  0.00000000000E+00 0. -1.
    9000006    2    1    2  501    0  0.00000000000E+00  0.00000000000E+00  0.89305226133E+03  0.11069477387E+04  0.65405730229E+03 0.  0.
         13    1    3    3    0    0 -0.30509595647E+03  0.45362247307E+02  0.63042167863E+03  0.70183528625E+03  0.00000000000E+00 0. -1.
          4    1    3    3  501    0  0.30509595647E+03 -0.45362247307E+02  0.26263058270E+03  0.40511245242E+03  0.00000000000E+00 0. -1.
<mgrwt>
<rscale>  0 0.65405730E+03</rscale>
<asrwt>0</asrwt>
<pdfrwt beam="1">0</pdfrwt>
<pdfrwt beam="2">  1        2 0.38890169E+00 0.65405730E+03</pdfrwt>
<totfact> 0.43801635E+00</totfact>
</mgrwt>
</event>
<event>
 5    1  0.2349912E-004  0.6151384E+03  0.7818608E-02  0.9874487E-01
         13   -1    0    0    0    0  0.00000000000E+00  0.00000000000E+00  0.10000000000E+04  0.10000000000E+04  0.00000000000E+00 0. -1.
          2   -1    0    0  501    0 -0.00000000000E+00 -0.00000000000E+00 -0.94598826705E+02  0.94598826705E+02  0.00000000000E+00 0. -1.
    9000006    2    1    2  501    0  0.00000000000E+00  0.00000000000E+00  0.90540117330E+03  0.10945988267E+04  0.61513844525E+03 0.  0.
         13    1    3    3    0    0 -0.24772552449E+03  0.11953866465E+03  0.20780095467E+03  0.34472984291E+03  0.00000000000E+00 0. -1.
          2    1    3    3  501    0  0.24772552449E+03 -0.11953866465E+03  0.69760021863E+03  0.74986898380E+03  0.00000000000E+00 0. -1.
<mgrwt>
<rscale>  0 0.61513845E+03</rscale>
<asrwt>0</asrwt>
<pdfrwt beam="1">0</pdfrwt>
<pdfrwt beam="2">  1        2 0.34399646E+00 0.61513845E+03</pdfrwt>
<totfact> 0.64110644E+00</totfact>
</mgrwt>
</event>
<event>
 5    1  0.2349912E-004  0.6647996E+03  0.7818608E-02  0.9779398E-01
         13   -1    0    0    0    0  0.00000000000E+00  0.00000000000E+00  0.10000000000E+04  0.10000000000E+04  0.00000000000E+00 0. -1.
          2   -1    0    0  501    0 -0.00000000000E+00 -0.00000000000E+00 -0.11048962152E+03  0.11048962152E+03  0.00000000000E+00 0. -1.
    9000006    2    1    2  501    0  0.00000000000E+00  0.00000000000E+00  0.88951037848E+03  0.11104896215E+04  0.66479958340E+03 0.  0.
         13    1    3    3    0    0 -0.22278845992E+03  0.22032377503E+03  0.63010595276E+03  0.70371213960E+03  0.00000000000E+00 0. -1.
          2    1    3    3  501    0  0.22278845992E+03 -0.22032377503E+03  0.25940442571E+03  0.40677748192E+03  0.00000000000E+00 0. -1.
<mgrwt>
<rscale>  0 0.66479958E+03</rscale>
<asrwt>0</asrwt>
<pdfrwt beam="1">0</pdfrwt>
<pdfrwt beam="2">  1        2 0.40178129E+00 0.66479958E+03</pdfrwt>
<totfact> 0.39173969E+00</totfact>
</mgrwt>
</event>
<event>
 5    1  0.2349912E-004  0.7109777E+03  0.7818608E-02  0.9698641E-01
         13   -1    0    0    0    0  0.00000000000E+00  0.00000000000E+00  0.10000000000E+04  0.10000000000E+04  0.00000000000E+00 0. -1.
          2   -1    0    0  501    0 -0.00000000000E+00 -0.00000000000E+00 -0.12637233978E+03  0.12637233978E+03  0.00000000000E+00 0. -1.
    9000006    2    1    2  501    0  0.00000000000E+00  0.00000000000E+00  0.87362766022E+03  0.11263723398E+04  0.71097774868E+03 0.  0.
         13    1    3    3    0    0  0.50636124955E+02  0.15090564787E+03  0.94038821127E+03  0.95376439418E+03  0.00000000000E+00 0. -1.
          4    1    3    3  501    0 -0.50636124955E+02 -0.15090564787E+03 -0.66760551048E+02  0.17260794560E+03  0.00000000000E+00 0. -1.
<mgrwt>
<rscale>  0 0.71097775E+03</rscale>
<asrwt>0</asrwt>
<pdfrwt beam="1">0</pdfrwt>
<pdfrwt beam="2">  1        2 0.45953675E+00 0.71097775E+03</pdfrwt>
<totfact> 0.23327880E+00</totfact>
</mgrwt>
</event>
<event>
 5    1  0.2349912E-004  0.6632713E+03  0.7818608E-02  0.9782190E-01
         13   -1    0    0    0    0  0.00000000000E+00  0.00000000000E+00  0.10000000000E+04  0.10000000000E+04  0.00000000000E+00 0. -1.
          2   -1    0    0  501    0 -0.00000000000E+00 -0.00000000000E+00 -0.10998221024E+03  0.10998221024E+03  0.00000000000E+00 0. -1.
    9000006    2    1    2  501    0  0.00000000000E+00  0.00000000000E+00  0.89001778976E+03  0.11099822102E+04  0.66327131776E+03 0.  0.
         13    1    3    3    0    0 -0.19679282169E+03  0.39937115771E+02  0.33205062382E+01  0.20083180437E+03  0.00000000000E+00 0. -1.
          2    1    3    3  501    0  0.19679282169E+03 -0.39937115771E+02  0.88669728352E+03  0.90915040587E+03  0.00000000000E+00 0. -1.
<mgrwt>
<rscale>  0 0.66327132E+03</rscale>
<asrwt>0</asrwt>
<pdfrwt beam="1">0</pdfrwt>
<pdfrwt beam="2">  1        2 0.39993615E+00 0.66327132E+03</pdfrwt>
<totfact> 0.39808683E+00</totfact>
</mgrwt>
</event>
<event>
 5    1  0.2349912E-004  0.6552434E+03  0.7818608E-02  0.9796990E-01
         13   -1    0    0    0    0  0.00000000000E+00  0.00000000000E+00  0.10000000000E+04  0.10000000000E+04  0.00000000000E+00 0. -1.
          2   -1    0    0  501    0 -0.00000000000E+00 -0.00000000000E+00 -0.10733598898E+03  0.10733598898E+03  0.00000000000E+00 0. -1.
    9000006    2    1    2  501    0  0.00000000000E+00  0.00000000000E+00  0.89266401102E+03  0.11073359890E+04  0.65524343255E+03 0.  0.
         13    1    3    3    0    0  0.16584501129E+03 -0.27332428769E+03  0.56731782642E+03  0.65119908645E+03  0.00000000000E+00 0. -1.
          2    1    3    3  501    0 -0.16584501129E+03  0.27332428769E+03  0.32534618460E+03  0.45613690253E+03  0.00000000000E+00 0. -1.
<mgrwt>
<rscale>  0 0.65524343E+03</rscale>
<asrwt>0</asrwt>
<pdfrwt beam="1">0</pdfrwt>
<pdfrwt beam="2">  1        2 0.39031351E+00 0.65524343E+03</pdfrwt>
<totfact> 0.43271338E+00</totfact>
</mgrwt>
</event>
<event>
 5    1  0.2349912E-004  0.6479064E+03  0.7818608E-02  0.9810716E-01
         13   -1    0    0    0    0  0.00000000000E+00  0.00000000000E+00  0.10000000000E+04  0.10000000000E+04  0.00000000000E+00 0. -1.
          2   -1    0    0  501    0 -0.00000000000E+00 -0.00000000000E+00 -0.10494567684E+03  0.10494567684E+03  0.00000000000E+00 0. -1.
    9000006    2    1    2  501    0  0.00000000000E+00  0.00000000000E+00  0.89505432316E+03  0.11049456768E+04  0.64790640323E+03 0.  0.
         13    1    3    3    0    0  0.23566489027E+03 -0.11090697876E+03  0.11900944812E+03  0.28635912275E+03  0.00000000000E+00 0. -1.
          4    1    3    3  501    0 -0.23566489027E+03  0.11090697876E+03  0.77604487504E+03  0.81858655408E+03  0.00000000000E+00 0. -1.
<mgrwt>
<rscale>  0 0.64790640E+03</rscale>
<asrwt>0</asrwt>
<pdfrwt beam="1">0</pdfrwt>
<pdfrwt beam="2">  1        2 0.38162145E+00 0.64790640E+03</pdfrwt>
<totfact> 0.46630782E+00</totfact>
</mgrwt>
</event>
<event>
 5    1  0.2349912E-004  0.6560595E+03  0.7818608E-02  0.9795475E-01
         13   -1    0    0    0    0  0.00000000000E+00  0.00000000000E+00  0.10000000000E+04  0.10000000000E+04  0.00000000000E+00 0. -1.
          2   -1    0    0  501    0 -0.00000000000E+00 -0.00000000000E+00 -0.10760350990E+03  0.10760350990E+03  0.00000000000E+00 0. -1.
    9000006    2    1    2  501    0  0.00000000000E+00  0.00000000000E+00  0.89239649010E+03  0.11076035099E+04  0.65605947869E+03 0.  0.
         13    1    3    3    0    0  0.11632782253E+02  0.21193550742E+03  0.23957563701E+02  0.21360230754E+03  0.00000000000E+00 0. -1.
          2    1    3    3  501    0 -0.11632782253E+02 -0.21193550742E+03  0.86843892640E+03  0.89400120236E+03  0.00000000000E+00 0. -1.
<mgrwt>
<rscale>  0 0.65605948E+03</rscale>
<asrwt>0</asrwt>
<pdfrwt beam="1">0</pdfrwt>
<pdfrwt beam="2">  1        2 0.39128632E+00 0.65605948E+03</pdfrwt>
<totfact> 0.42909324E+00</totfact>
</mgrwt>
</event>
<event>
 5    1  0.2349912E-004  0.6517203E+03  0.7818608E-02  0.9803556E-01
         13   -1    0    0    0    0  0.00000000000E+00  0.00000000000E+00  0.10000000000E+04  0.10000000000E+04  0.00000000000E+00 0. -1.
          2   -1    0    0  501    0 -0.00000000000E+00 -0.00000000000E+00 -0.10618484116E+03  0.10618484116E+03  0.00000000000E+00 0. -1.
    9000006    2    1    2  501    0  0.00000000000E+00  0.00000000000E+00  0.89381515884E+03  0.11061848412E+04  0.65172031167E+03 0.  0.
         13    1    3    3    0    0 -0.23877690527E+03 -0.21668787099E+03  0.36699237178E+03  0.48851964634E+03  0.00000000000E+00 0. -1.
          4    1    3    3  501    0  0.23877690527E+03  0.21668787099E+03  0.52682278706E+03  0.61766519482E+03  0.00000000000E+00 0. -1.
<mgrwt>
<rscale>  0 0.65172031E+03</rscale>
<asrwt>0</asrwt>
<pdfrwt beam="1">0</pdfrwt>
<pdfrwt beam="2">  1        2 0.38612751E+00 0.65172031E+03</pdfrwt>
<totfact> 0.44860811E+00</totfact>
</mgrwt>
</event>
<event>
 5    1  0.2349912E-004  0.6504684E+03  0.7818608E-02  0.9805901E-01
         13   -1    0    0    0    0  0.00000000000E+00  0.00000000000E+00  0.10000000000E+04  0.10000000000E+04  0.00000000000E+00 0. -1.
          2   -1    0    0  501    0 -0.00000000000E+00 -0.00000000000E+00 -0.10577729468E+03  0.10577729468E+03  0.00000000000E+00 0. -1.
    9000006    2    1    2  501    0  0.00000000000E+00  0.00000000000E+00  0.89422270532E+03  0.11057772947E+04  0.65046843021E+03 0.  0.
         13    1    3    3    0    0  0.15970112443E+03  0.28174417796E+03  0.49791356995E+03  0.59397150950E+03  0.00000000000E+00 0. -1.
          4    1    3    3  501    0 -0.15970112443E+03 -0.28174417796E+03  0.39630913538E+03  0.51180578518E+03  0.00000000000E+00 0. -1.
<mgrwt>
<rscale>  0 0.65046843E+03</rscale>
<asrwt>0</asrwt>
<pdfrwt beam="1">0</pdfrwt>
<pdfrwt beam="2">  1        2 0.38464552E+00 0.65046843E+03</pdfrwt>
<totfact> 0.45436088E+00</totfact>
</mgrwt>
</event>
<event>
 5    1  0.2349912E-004  0.6408055E+03  0.7818608E-02  0.9824187E-01
         13   -1    0    0    0    0  0.00000000000E+00  0.00000000000E+00  0.10000000000E+04  0.10000000000E+04  0.00000000000E+00 0. -1.
          2   -1    0    0  501    0 -0.00000000000E+00 -0.00000000000E+00 -0.10265790691E+03  0.10265790691E+03  0.00000000000E+00 0. -1.
    9000006    2    1    2  501    0  0.00000000000E+00  0.00000000000E+00  0.89734209309E+03  0.11026579069E+04  0.64080545226E+03 0.  0.
         13    1    3    3    0    0  0.76503595376E+02 -0.31106714863E+03  0.43747489596E+03  0.54221753537E+03  0.00000000000E+00 0. -1.
          4    1    3    3  501    0 -0.76503595376E+02  0.31106714863E+03  0.45986719713E+03  0.56044037154E+03  0.00000000000E+00 0. -1.
<mgrwt>
<rscale>  0 0.64080545E+03</rscale>
<asrwt>0</asrwt>
<pdfrwt beam="1">0</pdfrwt>
<pdfrwt beam="2">  1        2 0.37330227E+00 0.64080545E+03</pdfrwt>
<totfact> 0.50066473E+00</totfact>
</mgrwt>
</event>
<event>
 5    1  0.2349912E-004  0.6499523E+03  0.7818608E-02  0.9806869E-01
         13   -1    0    0    0    0  0.00000000000E+00  0.00000000000E+00  0.10000000000E+04  0.10000000000E+04  0.00000000000E+00 0. -1.
          2   -1    0    0  501    0 -0.00000000000E+00 -0.00000000000E+00 -0.10560951315E+03  0.10560951315E+03  0.00000000000E+00 0. -1.
    9000006    2    1    2  501    0  0.00000000000E+00  0.00000000000E+00  0.89439048685E+03  0.11056095131E+04  0.64995234640E+03 0.  0.
         13    1    3    3    0    0 -0.29010630762E+03  0.37469300208E+02  0.68802564516E+03  0.74762618104E+03  0.00000000000E+00 0. -1.
          2    1    3    3  501    0  0.29010630762E+03 -0.37469300208E+02  0.20636484169E+03  0.35798333210E+03  0.00000000000E+00 0. -1.
<mgrwt>
<rscale>  0 0.64995235E+03</rscale>
<asrwt>0</asrwt>
<pdfrwt beam="1">0</pdfrwt>
<pdfrwt beam="2">  1        2 0.38403540E+00 0.64995235E+03</pdfrwt>
<totfact> 0.45674860E+00</totfact>
</mgrwt>
</event>
<event>
 5    1  0.2349912E-004  0.6596006E+03  0.7818608E-02  0.9788929E-01
         13   -1    0    0    0    0  0.00000000000E+00  0.00000000000E+00  0.10000000000E+04  0.10000000000E+04  0.00000000000E+00 0. -1.
          2   -1    0    0  501    0 -0.00000000000E+00 -0.00000000000E+00 -0.10876823708E+03  0.10876823708E+03  0.00000000000E+00 0. -1.
    9000006    2    1    2  501    0  0.00000000000E+00  0.00000000000E+00  0.89123176292E+03  0.11087682371E+04  0.65960059757E+03 0.  0.
         13    1    3    3    0    0 -0.27886225016E+03  0.68735609427E+02  0.17311477346E+03  0.33534678074E+03  0.00000000000E+00 0. -1.
          2    1    3    3  501    0  0.27886225016E+03 -0.68735609427E+02  0.71811698946E+03  0.77342145633E+03  0.00000000000E+00 0. -1.
<mgrwt>
<rscale>  0 0.65960060E+03</rscale>
<asrwt>0</asrwt>
<pdfrwt beam="1">0</pdfrwt>
<pdfrwt beam="2">  1        2 0.39552170E+00 0.65960060E+03</pdfrwt>
<totfact> 0.41364887E+00</totfact>
</mgrwt>
</event>
<event>
 5    1  0.2349912E-004  0.6487473E+03  0.7818608E-02  0.9809133E-01
         13   -1    0    0    0    0  0.00000000000E+00  0.00000000000E+00  0.10000000000E+04  0.10000000000E+04  0.00000000000E+00 0. -1.
          2   -1    0    0  501    0 -0.00000000000E+00 -0.00000000000E+00 -0.10521827435E+03  0.10521827435E+03  0.00000000000E+00 0. -1.
    9000006    2    1    2  501    0  0.00000000000E+00  0.00000000000E+00  0.89478172565E+03  0.11052182744E+04  0.64874732940E+03 0.  0.
         13    1    3    3    0    0 -0.20849262154E+03  0.50637806624E+02  0.32935290281E+02  0.21706702662E+03  0.00000000000E+00 0. -1.
          2    1    3    3  501    0  0.20849262154E+03 -0.50637806624E+02  0.86184643537E+03  0.88815124773E+03  0.00000000000E+00 0. -1.
<mgrwt>
<rscale>  0 0.64874733E+03</rscale>
<asrwt>0</asrwt>
<pdfrwt beam="1">0</pdfrwt>
<pdfrwt beam="2">  1        2 0.38261271E+00 0.64874733E+03</pdfrwt>
<totfact> 0.46236065E+00</totfact>
</mgrwt>
</event>
<event>
 5    1  0.2349912E-004  0.6504139E+03  0.7818608E-02  0.9806003E-01
         13   -1    0    0    0    0  0.00000000000E+00  0.00000000000E+00  0.10000000000E+04  0.10000000000E+04  0.00000000000E+00 0. -1.
          2   -1    0    0  501    0 -0.00000000000E+00 -0.00000000000E+00 -0.10575955097E+03  0.10575955097E+03  0.00000000000E+00 0. -1.
    9000006    2    1    2  501    0  0.00000000000E+00  0.00000000000E+00  0.89424044903E+03  0.11057595510E+04  0.65041387122E+03 0.  0.
         13    1    3    3    0    0 -0.32844879986E+02 -0.30660664055E+03  0.62275756850E+03  0.69491971284E+03  0.00000000000E+00 0. -1.
          2    1    3    3  501    0  0.32844879986E+02  0.30660664055E+03  0.27148288053E+03  0.41083983812E+03  0.00000000000E+00 0. -1.
<mgrwt>
<rscale>  0 0.65041387E+03</rscale>
<asrwt>0</asrwt>
<pdfrwt beam="1">0</pdfrwt>
<pdfrwt beam="2">  1        2 0.38458100E+00 0.65041387E+03</pdfrwt>
<totfact> 0.45461285E+00</totfact>
</mgrwt>
</event>
<event>
 5    1  0.2349912E-004  0.5966418E+03  0.7818608E-02  0.9912398E-01
         13   -1    0    0    0    0  0.00000000000E+00  0.00000000000E+00  0.10000000000E+04  0.10000000000E+04  0.00000000000E+00 0. -1.
          2   -1    0    0  501    0 -0.00000000000E+00 -0.00000000000E+00 -0.88995358230E+02  0.88995358230E+02  0.00000000000E+00 0. -1.
    9000006    2    1    2  501    0  0.00000000000E+00  0.00000000000E+00  0.91100464177E+03  0.10889953582E+04  0.59664179616E+03 0.  0.
         13    1    3    3    0    0 -0.14635897860E+03 -0.21069556770E+03  0.73340056031E+03  0.77697487394E+03  0.00000000000E+00 0. -1.
          2    1    3    3  501    0  0.14635897860E+03  0.21069556770E+03  0.17760408146E+03  0.31202048429E+03  0.00000000000E+00 0. -1.
<mgrwt>
<rscale>  0 0.59664180E+03</rscale>
<asrwt>0</asrwt>
<pdfrwt beam="1">0</pdfrwt>
<pdfrwt beam="2">  1        2 0.32362017E+00 0.59664180E+03</pdfrwt>
<totfact> 0.75959729E+00</totfact>
</mgrwt>
</event>
<event>
 5    1  0.2349912E-004  0.6214338E+03  0.7818608E-02  0.9861909E-01
         13   -1    0    0    0    0  0.00000000000E+00  0.00000000000E+00  0.10000000000E+04  0.10000000000E+04  0.00000000000E+00 0. -1.
          2   -1    0    0  501    0 -0.00000000000E+00 -0.00000000000E+00 -0.96544992114E+02  0.96544992114E+02  0.00000000000E+00 0. -1.
    9000006    2    1    2  501    0  0.00000000000E+00  0.00000000000E+00  0.90345500789E+03  0.10965449921E+04  0.62143380054E+03 0.  0.
         13    1    3    3    0    0 -0.23959678799E+03  0.79733662360E+02  0.13224865118E+03  0.28505049284E+03  0.00000000000E+00 0. -1.
          2    1    3    3  501    0  0.23959678799E+03 -0.79733662360E+02  0.77120635671E+03  0.81149449928E+03  0.00000000000E+00 0. -1.
<mgrwt>
<rscale>  0 0.62143380E+03</rscale>
<asrwt>0</asrwt>
<pdfrwt beam="1">0</pdfrwt>
<pdfrwt beam="2">  1        2 0.35107344E+00 0.62143380E+03</pdfrwt>
<totfact> 0.60419177E+00</totfact>
</mgrwt>
</event>
<event>
 5    1  0.2349912E-004  0.6501114E+03  0.7818608E-02  0.9806570E-01
         13   -1    0    0    0    0  0.00000000000E+00  0.00000000000E+00  0.10000000000E+04  0.10000000000E+04  0.00000000000E+00 0. -1.
          2   -1    0    0  501    0 -0.00000000000E+00 -0.00000000000E+00 -0.10566121232E+03  0.10566121232E+03  0.00000000000E+00 0. -1.
    9000006    2    1    2  501    0  0.00000000000E+00  0.00000000000E+00  0.89433878768E+03  0.11056612123E+04  0.65011141296E+03 0.  0.
         13    1    3    3    0    0 -0.26484780499E+03  0.15417040912E+03  0.63151062788E+03  0.70193913410E+03  0.00000000000E+00 0. -1.
          2    1    3    3  501    0  0.26484780499E+03 -0.15417040912E+03  0.26282815980E+03  0.40372207822E+03  0.00000000000E+00 0. -1.
<mgrwt>
<rscale>  0 0.65011141E+03</rscale>
<asrwt>0</asrwt>
<pdfrwt beam="1">0</pdfrwt>
<pdfrwt beam="2">  1        2 0.38422340E+00 0.65011141E+03</pdfrwt>
<totfact> 0.45601165E+00</totfact>
</mgrwt>
</event>
<event>
 5    1  0.2349912E-004  0.6422899E+03  0.7818608E-02  0.9821355E-01
         13   -1    0    0    0    0  0.00000000000E+00  0.00000000000E+00  0.10000000000E+04  0.10000000000E+04  0.00000000000E+00 0. -1.
          2   -1    0    0  501    0 -0.00000000000E+00 -0.00000000000E+00 -0.10313408666E+03  0.10313408666E+03  0.00000000000E+00 0. -1.
    9000006    2    1    2  501    0  0.00000000000E+00  0.00000000000E+00  0.89686591334E+03  0.11031340867E+04  0.64228992414E+03 0.  0.
         13    1    3    3    0    0 -0.17402721459E+03  0.42655417857E+02 -0.93034380882E+01  0.17941992657E+03  0.00000000000E+00 0. -1.
          4    1    3    3  501    0  0.17402721459E+03 -0.42655417857E+02  0.90616935143E+03  0.92371416009E+03  0.00000000000E+00 0. -1.
<mgrwt>
<rscale>  0 0.64228992E+03</rscale>
<asrwt>0</asrwt>
<pdfrwt beam="1">0</pdfrwt>
<pdfrwt beam="2">  1        2 0.37503383E+00 0.64228992E+03</pdfrwt>
<totfact> 0.49332849E+00</totfact>
</mgrwt>
</event>
<event>
 5    1  0.2349912E-004  0.6576041E+03  0.7818608E-02  0.9792614E-01
         13   -1    0    0    0    0  0.00000000000E+00  0.00000000000E+00  0.10000000000E+04  0.10000000000E+04  0.00000000000E+00 0. -1.
          2   -1    0    0  501    0 -0.00000000000E+00 -0.00000000000E+00 -0.10811080094E+03  0.10811080094E+03  0.00000000000E+00 0. -1.
    9000006    2    1    2  501    0  0.00000000000E+00  0.00000000000E+00  0.89188919906E+03  0.11081108009E+04  0.65760413911E+03 0.  0.
         13    1    3    3    0    0 -0.81744113204E+02 -0.74064856322E+02 -0.76001334431E+02  0.13395486486E+03  0.00000000000E+00 0. -1.
          2    1    3    3  501    0  0.81744113204E+02  0.74064856322E+02  0.96789053349E+03  0.97415593608E+03  0.00000000000E+00 0. -1.
<mgrwt>
<rscale>  0 0.65760414E+03</rscale>
<asrwt>0</asrwt>
<pdfrwt beam="1">0</pdfrwt>
<pdfrwt beam="2">  1        2 0.39313101E+00 0.65760414E+03</pdfrwt>
<totfact> 0.42230350E+00</totfact>
</mgrwt>
</event>
<event>
 5    1  0.2349912E-004  0.6640307E+03  0.7818608E-02  0.9780802E-01
         13   -1    0    0    0    0  0.00000000000E+00  0.00000000000E+00  0.10000000000E+04  0.10000000000E+04  0.00000000000E+00 0. -1.
          2   -1    0    0  501    0 -0.00000000000E+00 -0.00000000000E+00 -0.11023418994E+03  0.11023418994E+03  0.00000000000E+00 0. -1.
    9000006    2    1    2  501    0  0.00000000000E+00  0.00000000000E+00  0.88976581006E+03  0.11102341899E+04  0.66403069187E+03 0.  0.
         13    1    3    3    0    0 -0.86014856483E+02  0.42137524332E+02  0.97639876438E+03  0.98108545682E+03  0.00000000000E+00 0. -1.
          2    1    3    3  501    0  0.86014856483E+02 -0.42137524332E+02 -0.86632954316E+02  0.12914873312E+03  0.00000000000E+00 0. -1.
<mgrwt>
<rscale>  0 0.66403069E+03</rscale>
<asrwt>0</asrwt>
<pdfrwt beam="1">0</pdfrwt>
<pdfrwt beam="2">  1        2 0.40085245E+00 0.66403069E+03</pdfrwt>
<totfact> 0.39492341E+00</totfact>
</mgrwt>
</event>
<event>
 5    1  0.2349912E-004  0.6541339E+03  0.7818608E-02  0.9799053E-01
         13   -1    0    0    0    0  0.00000000000E+00  0.00000000000E+00  0.10000000000E+04  0.10000000000E+04  0.00000000000E+00 0. -1.
          2   -1    0    0  501    0 -0.00000000000E+00 -0.00000000000E+00 -0.10697279582E+03  0.10697279582E+03  0.00000000000E+00 0. -1.
    9000006    2    1    2  501    0  0.00000000000E+00  0.00000000000E+00  0.89302720418E+03  0.11069727958E+04  0.65413391847E+03 0.  0.
         13    1    3    3    0    0  0.36357257649E+02 -0.29204627854E+03  0.20504632828E+03  0.35868771339E+03  0.00000000000E+00 0. -1.
          4    1    3    3  501    0 -0.36357257649E+02  0.29204627854E+03  0.68798087590E+03  0.74828508244E+03  0.00000000000E+00 0. -1.
<mgrwt>
<rscale>  0 0.65413392E+03</rscale>
<asrwt>0</asrwt>
<pdfrwt beam="1">0</pdfrwt>
<pdfrwt beam="2">  1        2 0.38899281E+00 0.65413392E+03</pdfrwt>
<totfact> 0.43767234E+00</totfact>
</mgrwt>
</event>
<event>
 5    1  0.2349912E-004  0.6488514E+03  0.7818608E-02  0.9808937E-01
         13   -1    0    0    0    0  0.00000000000E+00  0.00000000000E+00  0.10000000000E+04  0.10000000000E+04  0.00000000000E+00 0. -1.
          2   -1    0    0  501    0 -0.00000000000E+00 -0.00000000000E+00 -0.10525204016E+03  0.10525204016E+03  0.00000000000E+00 0. -1.
    9000006    2    1    2  501    0  0.00000000000E+00  0.00000000000E+00  0.89474795984E+03  0.11052520402E+04  0.64885141645E+03 0.  0.
         13    1    3    3    0    0 -0.56281897899E+02 -0.25170030834E+02  0.98992917921E+03  0.99184724748E+03  0.00000000000E+00 0. -1.
          4    1    3    3  501    0  0.56281897899E+02  0.25170030834E+02 -0.95181219362E+02  0.11340479268E+03  0.00000000000E+00 0. -1.
<mgrwt>
<rscale>  0 0.64885142E+03</rscale>
<asrwt>0</asrwt>
<pdfrwt beam="1">0</pdfrwt>
<pdfrwt beam="2">  1        2 0.38273550E+00 0.64885142E+03</pdfrwt>
<totfact> 0.46187385E+00</totfact>
</mgrwt>
</event>
<event>
 5    1  0.2349912E-004  0.6500616E+03  0.7818608E-02  0.9806664E-01
         13   -1    0    0    0    0  0.00000000000E+00  0.00000000000E+00  0.10000000000E+04  0.10000000000E+04  0.00000000000E+00 0. -1.
          2   -1    0    0  501    0 -0.00000000000E+00 -0.00000000000E+00 -0.10564500705E+03  0.10564500705E+03  0.00000000000E+00 0. -1.
    9000006    2    1    2  501    0  0.00000000000E+00  0.00000000000E+00  0.89435499295E+03  0.11056450070E+04  0.65006155723E+03 0.  0.
         13    1    3    3    0    0  0.18962811710E+02  0.16452660862E+03 -0.28497337504E+02  0.16804966949E+03  0.00000000000E+00 0. -1.
          4    1    3    3  501    0 -0.18962811710E+02 -0.16452660862E+03  0.92285233046E+03  0.93759533755E+03  0.00000000000E+00 0. -1.
<mgrwt>
<rscale>  0 0.65006156E+03</rscale>
<asrwt>0</asrwt>
<pdfrwt beam="1">0</pdfrwt>
<pdfrwt beam="2">  1        2 0.38416447E+00 0.65006156E+03</pdfrwt>
<totfact> 0.45624253E+00</totfact>
</mgrwt>
</event>
<event>
 5    1  0.2349912E-004  0.6531550E+03  0.7818608E-02  0.9800877E-01
         13   -1    0    0    0    0  0.00000000000E+00  0.00000000000E+00  0.10000000000E+04  0.10000000000E+04  0.00000000000E+00 0. -1.
          2   -1    0    0  501    0 -0.00000000000E+00 -0.00000000000E+00 -0.10665285218E+03  0.10665285218E+03  0.00000000000E+00 0. -1.
    9000006    2    1    2  501    0  0.00000000000E+00  0.00000000000E+00  0.89334714782E+03  0.11066528522E+04  0.65315496532E+03 0.  0.
         13    1    3    3    0    0  0.30872568359E+03  0.38937240559E+02  0.61461807216E+03  0.68889987011E+03  0.00000000000E+00 0. -1.
          4    1    3    3  501    0 -0.30872568359E+03 -0.38937240559E+02  0.27872907566E+03  0.41775298207E+03  0.00000000000E+00 0. -1.
<mgrwt>
<rscale>  0 0.65315497E+03</rscale>
<asrwt>0</asrwt>
<pdfrwt beam="1">0</pdfrwt>
<pdfrwt beam="2">  1        2 0.38782937E+00 0.65315497E+03</pdfrwt>
<totfact> 0.44208330E+00</totfact>
</mgrwt>
</event>
<event>
 5    1  0.2349912E-004  0.6439114E+03  0.7818608E-02  0.9818272E-01
         13   -1    0    0    0    0  0.00000000000E+00  0.00000000000E+00  0.10000000000E+04  0.10000000000E+04  0.00000000000E+00 0. -1.
          2   -1    0    0  501    0 -0.00000000000E+00 -0.00000000000E+00 -0.10365548093E+03  0.10365548093E+03  0.00000000000E+00 0. -1.
    9000006    2    1    2  501    0  0.00000000000E+00  0.00000000000E+00  0.89634451907E+03  0.11036554809E+04  0.64391142536E+03 0.  0.
         13    1    3    3    0    0  0.13672256556E+02 -0.24206137785E+03  0.81125771170E+03  0.84671111723E+03  0.00000000000E+00 0. -1.
          2    1    3    3  501    0 -0.13672256556E+02  0.24206137785E+03  0.85086807368E+02  0.25694436370E+03  0.00000000000E+00 0. -1.
<mgrwt>
<rscale>  0 0.64391143E+03</rscale>
<asrwt>0</asrwt>
<pdfrwt beam="1">0</pdfrwt>
<pdfrwt beam="2">  1        2 0.37692982E+00 0.64391143E+03</pdfrwt>
<totfact> 0.48540888E+00</totfact>
</mgrwt>
</event>
<event>
 5    1  0.2349912E-004  0.6505910E+03  0.7818608E-02  0.9805671E-01
         13   -1    0    0    0    0  0.00000000000E+00  0.00000000000E+00  0.10000000000E+04  0.10000000000E+04  0.00000000000E+00 0. -1.
          2   -1    0    0  501    0 -0.00000000000E+00 -0.00000000000E+00 -0.10581714750E+03  0.10581714750E+03  0.00000000000E+00 0. -1.
    9000006    2    1    2  501    0  0.00000000000E+00  0.00000000000E+00  0.89418285250E+03  0.11058171475E+04  0.65059095445E+03 0.  0.
         13    1    3    3    0    0 -0.29633684712E+03 -0.57330151405E+02  0.24090808303E+03  0.38618515986E+03  0.00000000000E+00 0. -1.
          4    1    3    3  501    0  0.29633684712E+03  0.57330151405E+02  0.65327476947E+03  0.71963198765E+03  0.00000000000E+00 0. -1.
<mgrwt>
<rscale>  0 0.65059095E+03</rscale>
<asrwt>0</asrwt>
<pdfrwt beam="1">0</pdfrwt>
<pdfrwt beam="2">  1        2 0.38479044E+00 0.65059095E+03</pdfrwt>
<totfact> 0.45379540E+00</totfact>
</mgrwt>
</event>
<event>
 5    1  0.2349912E-004  0.6652146E+03  0.7818608E-02  0.9778642E-01
         13   -1    0    0    0    0  0.00000000000E+00  0.00000000000E+00  0.10000000000E+04  0.10000000000E+04  0.00000000000E+00 0. -1.
          2   -1    0    0  501    0 -0.00000000000E+00 -0.00000000000E+00 -0.11062762758E+03  0.11062762758E+03  0.00000000000E+00 0. -1.
    9000006    2    1    2  501    0  0.00000000000E+00  0.00000000000E+00  0.88937237242E+03  0.11106276276E+04  0.66521463478E+03 0.  0.
         13    1    3    3    0    0  0.48297021908E+02  0.34327838553E+02 -0.10174454654E+03  0.11774105306E+03  0.00000000000E+00 0. -1.
          4    1    3    3  501    0 -0.48297021908E+02 -0.34327838553E+02  0.99111691896E+03  0.99288657452E+03  0.00000000000E+00 0. -1.
<mgrwt>
<rscale>  0 0.66521463E+03</rscale>
<asrwt>0</asrwt>
<pdfrwt beam="1">0</pdfrwt>
<pdfrwt beam="2">  1        2 0.40228313E+00 0.66521463E+03</pdfrwt>
<totfact> 0.39002916E+00</totfact>
</mgrwt>
</event>
<event>
 5    1  0.2349912E-004  0.6460318E+03  0.7818608E-02  0.9814254E-01
         13   -1    0    0    0    0  0.00000000000E+00  0.00000000000E+00  0.10000000000E+04  0.10000000000E+04  0.00000000000E+00 0. -1.
          2   -1    0    0  501    0 -0.00000000000E+00 -0.00000000000E+00 -0.10433926106E+03  0.10433926106E+03  0.00000000000E+00 0. -1.
    9000006    2    1    2  501    0  0.00000000000E+00  0.00000000000E+00  0.89566073894E+03  0.11043392611E+04  0.64603176721E+03 0.  0.
         13    1    3    3    0    0  0.29352726181E+03 -0.93063103804E+02  0.61462159033E+03  0.68744359333E+03  0.00000000000E+00 0. -1.
          2    1    3    3  501    0 -0.29352726181E+03  0.93063103804E+02  0.28103914861E+03  0.41689566773E+03  0.00000000000E+00 0. -1.
<mgrwt>
<rscale>  0 0.64603177E+03</rscale>
<asrwt>0</asrwt>
<pdfrwt beam="1">0</pdfrwt>
<pdfrwt beam="2">  1        2 0.37941629E+00 0.64603177E+03</pdfrwt>
<totfact> 0.47519874E+00</totfact>
</mgrwt>
</event>
<event>
 5    1  0.2349912E-004  0.6515173E+03  0.7818608E-02  0.9803936E-01
         13   -1    0    0    0    0  0.00000000000E+00  0.00000000000E+00  0.10000000000E+04  0.10000000000E+04  0.00000000000E+00 0. -1.
          2   -1    0    0  501    0 -0.00000000000E+00 -0.00000000000E+00 -0.10611871076E+03  0.10611871076E+03  0.00000000000E+00 0. -1.
    9000006    2    1    2  501    0  0.00000000000E+00  0.00000000000E+00  0.89388128924E+03  0.11061187108E+04  0.65151733901E+03 0.  0.
         13    1    3    3    0    0  0.30922729956E+03  0.10239588634E+03  0.44099353994E+03  0.54825335621E+03  0.00000000000E+00 0. -1.
          2    1    3    3  501    0 -0.30922729956E+03 -0.10239588634E+03  0.45288774930E+03  0.55786535454E+03  0.00000000000E+00 0. -1.
<mgrwt>
<rscale>  0 0.65151734E+03</rscale>
<asrwt>0</asrwt>
<pdfrwt beam="1">0</pdfrwt>
<pdfrwt beam="2">  1        2 0.38588703E+00 0.65151734E+03</pdfrwt>
<totfact> 0.44953707E+00</totfact>
</mgrwt>
</event>
<event>
 5    1  0.2349912E-004  0.6418382E+03  0.7818608E-02  0.9822216E-01
         13   -1    0    0    0    0  0.00000000000E+00  0.00000000000E+00  0.10000000000E+04  0.10000000000E+04  0.00000000000E+00 0. -1.
          2   -1    0    0  501    0 -0.00000000000E+00 -0.00000000000E+00 -0.10298905602E+03  0.10298905602E+03  0.00000000000E+00 0. -1.
    9000006    2    1    2  501    0  0.00000000000E+00  0.00000000000E+00  0.89701094398E+03  0.11029890560E+04  0.64183816034E+03 0.  0.
         13    1    3    3    0    0 -0.31787343957E+03  0.42516685795E+02  0.42832780781E+03  0.53508494943E+03  0.00000000000E+00 0. -1.
          2    1    3    3  501    0  0.31787343957E+03 -0.42516685795E+02  0.46868313617E+03  0.56790410659E+03  0.00000000000E+00 0. -1.
<mgrwt>
<rscale>  0 0.64183816E+03</rscale>
<asrwt>0</asrwt>
<pdfrwt beam="1">0</pdfrwt>
<pdfrwt beam="2">  1        2 0.37450645E+00 0.64183816E+03</pdfrwt>
<totfact> 0.49555242E+00</totfact>
</mgrwt>
</event>
<event>
 5    1  0.2349912E-004  0.6045024E+03  0.7818608E-02  0.9896109E-01
         13   -1    0    0    0    0  0.00000000000E+00  0.00000000000E+00  0.10000000000E+04  0.10000000000E+04  0.00000000000E+00 0. -1.
          2   -1    0    0  501    0 -0.00000000000E+00 -0.00000000000E+00 -0.91355777950E+02  0.91355777950E+02  0.00000000000E+00 0. -1.
    9000006    2    1    2  501    0  0.00000000000E+00  0.00000000000E+00  0.90864422205E+03  0.10913557779E+04  0.60450236707E+03 0.  0.
         13    1    3    3    0    0 -0.60873484547E+02  0.28762107184E+03  0.32763241401E+03  0.44019820627E+03  0.00000000000E+00 0. -1.
          2    1    3    3  501    0  0.60873484547E+02 -0.28762107184E+03  0.58101180804E+03  0.65115757168E+03  0.00000000000E+00 0. -1.
<mgrwt>
<rscale>  0 0.60450237E+03</rscale>
<asrwt>0</asrwt>
<pdfrwt beam="1">0</pdfrwt>
<pdfrwt beam="2">  1        2 0.33220353E+00 0.60450237E+03</pdfrwt>
<totfact> 0.70735886E+00</totfact>
</mgrwt>
</event>
<event>
 5    1  0.2349912E-004  0.6445028E+03  0.7818608E-02  0.9817149E-01
         13   -1    0    0    0    0  0.00000000000E+00  0.00000000000E+00  0.10000000000E+04  0.10000000000E+04  0.00000000000E+00 0. -1.
          2   -1    0    0  501    0 -0.00000000000E+00 -0.00000000000E+00 -0.10384597933E+03  0.10384597933E+03  0.00000000000E+00 0. -1.
    9000006    2    1    2  501    0  0.00000000000E+00  0.00000000000E+00  0.89615402067E+03  0.11038459793E+04  0.64450284507E+03 0.  0.
         13    1    3    3    0    0  0.19384626048E+03 -0.25661304063E+03  0.41300391979E+03  0.52344900715E+03  0.00000000000E+00 0. -1.
          4    1    3    3  501    0 -0.19384626048E+03  0.25661304063E+03  0.48315010088E+03  0.58039697217E+03  0.00000000000E+00 0. -1.
<mgrwt>
<rscale>  0 0.64450285E+03</rscale>
<asrwt>0</asrwt>
<pdfrwt beam="1">0</pdfrwt>
<pdfrwt beam="2">  1        2 0.37762254E+00 0.64450285E+03</pdfrwt>
<totfact> 0.48254447E+00</totfact>
</mgrwt>
</event>
<event>
 5    1  0.2349912E-004  0.6611106E+03  0.7818608E-02  0.9786151E-01
         13   -1    0    0    0    0  0.00000000000E+00  0.00000000000E+00  0.10000000000E+04  0.10000000000E+04  0.00000000000E+00 0. -1.
          2   -1    0    0  501    0 -0.00000000000E+00 -0.00000000000E+00 -0.10926682048E+03  0.10926682048E+03  0.00000000000E+00 0. -1.
    9000006    2    1    2  501    0  0.00000000000E+00  0.00000000000E+00  0.89073317952E+03  0.11092668205E+04  0.66111064272E+03 0.  0.
         13    1    3    3    0    0 -0.14887738661E+03  0.98750945697E+02 -0.21286024944E+02  0.17991475865E+03  0.00000000000E+00 0. -1.
          2    1    3    3  501    0  0.14887738661E+03 -0.98750945697E+02  0.91201920446E+03  0.92935206183E+03  0.00000000000E+00 0. -1.
<mgrwt>
<rscale>  0 0.66111064E+03</rscale>
<asrwt>0</asrwt>
<pdfrwt beam="1">0</pdfrwt>
<pdfrwt beam="2">  1        2 0.39733473E+00 0.66111064E+03</pdfrwt>
<totfact> 0.40719248E+00</totfact>
</mgrwt>
</event>
<event>
 5    1  0.2349912E-004  0.6514465E+03  0.7818608E-02  0.9804069E-01
         13   -1    0    0    0    0  0.00000000000E+00  0.00000000000E+00  0.10000000000E+04  0.10000000000E+04  0.00000000000E+00 0. -1.
          2   -1    0    0  501    0 -0.00000000000E+00 -0.00000000000E+00 -0.10609563392E+03  0.10609563392E+03  0.00000000000E+00 0. -1.
    9000006    2    1    2  501    0  0.00000000000E+00  0.00000000000E+00  0.89390436608E+03  0.11060956339E+04  0.65144649486E+03 0.  0.
         13    1    3    3    0    0 -0.18302335888E+03 -0.11384331643E+03  0.86159550263E+03  0.88814675631E+03  0.00000000000E+00 0. -1.
          2    1    3    3  501    0  0.18302335888E+03  0.11384331643E+03  0.32308863456E+02  0.21794887761E+03  0.00000000000E+00 0. -1.
<mgrwt>
<rscale>  0 0.65144649E+03</rscale>
<asrwt>0</asrwt>
<pdfrwt beam="1">0</pdfrwt>
<pdfrwt beam="2">  1        2 0.38580312E+00 0.65144649E+03</pdfrwt>
<totfact> 0.44986165E+00</totfact>
</mgrwt>
</event>
<event>
 5    1  0.2349912E-004  0.6477622E+03  0.7818608E-02  0.9810987E-01
         13   -1    0    0    0    0  0.00000000000E+00  0.00000000000E+00  0.10000000000E+04  0.10000000000E+04  0.00000000000E+00 0. -1.
          2   -1    0    0  501    0 -0.00000000000E+00 -0.00000000000E+00 -0.10489896019E+03  0.10489896019E+03  0.00000000000E+00 0. -1.
    9000006    2    1    2  501    0  0.00000000000E+00  0.00000000000E+00  0.89510103981E+03  0.11048989602E+04  0.64776217917E+03 0.  0.
         13    1    3    3    0    0  0.29042185960E+03 -0.41080462871E+02  0.68183991909E+03  0.74225207054E+03  0.00000000000E+00 0. -1.
          2    1    3    3  501    0 -0.29042185960E+03  0.41080462871E+02  0.21326112072E+03  0.36264688965E+03  0.00000000000E+00 0. -1.
<mgrwt>
<rscale>  0 0.64776218E+03</rscale>
<asrwt>0</asrwt>
<pdfrwt beam="1">0</pdfrwt>
<pdfrwt beam="2">  1        2 0.38145157E+00 0.64776218E+03</pdfrwt>
<totfact> 0.46698734E+00</totfact>
</mgrwt>
</event>
<event>
 5    1  0.2349912E-004  0.6295692E+03  0.7818608E-02  0.9845890E-01
         13   -1    0    0    0    0  0.00000000000E+00  0.00000000000E+00  0.10000000000E+04  0.10000000000E+04  0.00000000000E+00 0. -1.
          2   -1    0    0  501    0 -0.00000000000E+00 -0.00000000000E+00 -0.99089353293E+02  0.99089353293E+02  0.00000000000E+00 0. -1.
    9000006    2    1    2  501    0  0.00000000000E+00  0.00000000000E+00  0.90091064671E+03  0.10990893533E+04  0.62956922826E+03 0.  0.
         13    1    3    3    0    0 -0.13530243755E+03 -0.14080534222E+03  0.88147726070E+03  0.90284830128E+03  0.00000000000E+00 0. -1.
          4    1    3    3  501    0  0.13530243755E+03  0.14080534222E+03  0.19433386011E+02  0.19624105201E+03  0.00000000000E+00 0. -1.
<mgrwt>
<rscale>  0 0.62956923E+03</rscale>
<asrwt>0</asrwt>
<pdfrwt beam="1">0</pdfrwt>
<pdfrwt beam="2">  1        2 0.36032568E+00 0.62956923E+03</pdfrwt>
<totfact> 0.55891003E+00</totfact>
</mgrwt>
</event>
<event>
 5    1  0.2349912E-004  0.6512877E+03  0.7818608E-02  0.9804366E-01
         13   -1    0    0    0    0  0.00000000000E+00  0.00000000000E+00  0.10000000000E+04  0.10000000000E+04  0.00000000000E+00 0. -1.
          2   -1    0    0  501    0 -0.00000000000E+00 -0.00000000000E+00 -0.10604392943E+03  0.10604392943E+03  0.00000000000E+00 0. -1.
    9000006    2    1    2  501    0  0.00000000000E+00  0.00000000000E+00  0.89395607057E+03  0.11060439294E+04  0.65128773803E+03 0.  0.
         13    1    3    3    0    0  0.86459438002E+02  0.13278142546E+03  0.93012042213E+03  0.94352007982E+03  0.00000000000E+00 0. -1.
          2    1    3    3  501    0 -0.86459438002E+02 -0.13278142546E+03 -0.36164351552E+02  0.16252384961E+03  0.00000000000E+00 0. -1.
<mgrwt>
<rscale>  0 0.65128774E+03</rscale>
<asrwt>0</asrwt>
<pdfrwt beam="1">0</pdfrwt>
<pdfrwt beam="2">  1        2 0.38561510E+00 0.65128774E+03</pdfrwt>
<totfact> 0.45058965E+00</totfact>
</mgrwt>
</event>
<event>
 5    1  0.2349912E-004  0.6469481E+03  0.7818608E-02  0.9812523E-01
         13   -1    0    0    0    0  0.00000000000E+00  0.00000000000E+00  0.10000000000E+04  0.10000000000E+04  0.00000000000E+00 0. -1.
          2   -1    0    0  501    0 -0.00000000000E+00 -0.00000000000E+00 -0.10463545647E+03  0.10463545647E+03  0.00000000000E+00 0. -1.
    9000006    2    1    2  501    0  0.00000000000E+00  0.00000000000E+00  0.89536454353E+03  0.11046354565E+04  0.64694808594E+03 0.  0.
         13    1    3    3    0    0 -0.67391128371E+02 -0.49790921904E+02  0.98114893370E+03  0.98472022940E+03  0.00000000000E+00 0. -1.
          2    1    3    3  501    0  0.67391128371E+02  0.49790921904E+02 -0.85784390175E+02  0.11991522708E+03  0.00000000000E+00 0. -1.
<mgrwt>
<rscale>  0 0.64694809E+03</rscale>
<asrwt>0</asrwt>
<pdfrwt beam="1">0</pdfrwt>
<pdfrwt beam="2">  1        2 0.38049337E+00 0.64694809E+03</pdfrwt>
<totfact> 0.47083701E+00</totfact>
</mgrwt>
</event>
<event>
 5    1  0.2349912E-004  0.6547482E+03  0.7818608E-02  0.9797910E-01
         13   -1    0    0    0    0  0.00000000000E+00  0.00000000000E+00  0.10000000000E+04  0.10000000000E+04  0.00000000000E+00 0. -1.
          2   -1    0    0  501    0 -0.00000000000E+00 -0.00000000000E+00 -0.10717379116E+03  0.10717379116E+03  0.00000000000E+00 0. -1.
    9000006    2    1    2  501    0  0.00000000000E+00  0.00000000000E+00  0.89282620884E+03  0.11071737912E+04  0.65474816886E+03 0.  0.
         13    1    3    3    0    0 -0.23006145090E+03  0.22653051184E+03  0.53793696679E+03  0.62739184265E+03  0.00000000000E+00 0. -1.
          4    1    3    3  501    0  0.23006145090E+03 -0.22653051184E+03  0.35488924205E+03  0.47978194850E+03  0.00000000000E+00 0. -1.
<mgrwt>
<rscale>  0 0.65474817E+03</rscale>
<asrwt>0</asrwt>
<pdfrwt beam="1">0</pdfrwt>
<pdfrwt beam="2">  1        2 0.38972370E+00 0.65474817E+03</pdfrwt>
<totfact> 0.43492168E+00</totfact>
</mgrwt>
</event>
<event>
 5    1  0.2349912E-004  0.6564246E+03  0.7818608E-02  0.9794798E-01
         13   -1    0    0    0    0  0.00000000000E+00  0.00000000000E+00  0.10000000000E+04  0.10000000000E+04  0.00000000000E+00 0. -1.
          2   -1    0    0  501    0 -0.00000000000E+00 -0.00000000000E+00 -0.10772331917E+03  0.10772331917E+03  0.00000000000E+00 0. -1.
    9000006    2    1    2  501    0  0.00000000000E+00  0.00000000000E+00  0.89227668083E+03  0.11077233192E+04  0.65642461615E+03 0.  0.
         13    1    3    3    0    0  0.18452704849E+03  0.26429415866E+03  0.34181682257E+03  0.46983015455E+03  0.00000000000E+00 0. -1.
          4    1    3    3  501    0 -0.18452704849E+03 -0.26429415866E+03  0.55045985825E+03  0.63789316463E+03  0.00000000000E+00 0. -1.
<mgrwt>
<rscale>  0 0.65642462E+03</rscale>
<asrwt>0</asrwt>
<pdfrwt beam="1">0</pdfrwt>
<pdfrwt beam="2">  1        2 0.39172199E+00 0.65642462E+03</pdfrwt>
<totfact> 0.42748085E+00</totfact>
</mgrwt>
</event>
<event>
 5    1  0.2349912E-004  0.6704289E+03  0.7818608E-02  0.9769183E-01
         13   -1    0    0    0    0  0.00000000000E+00  0.00000000000E+00  0.10000000000E+04  0.10000000000E+04  0.00000000000E+00 0. -1.
          2   -1    0    0  501    0 -0.00000000000E+00 -0.00000000000E+00 -0.11236874329E+03  0.11236874329E+03  0.00000000000E+00 0. -1.
    9000006    2    1    2  501    0  0.00000000000E+00  0.00000000000E+00  0.88763125671E+03  0.11123687433E+04  0.67042894715E+03 0.  0.
         13    1    3    3    0    0 -0.29167734996E+03  0.57163416802E+02  0.18663904123E+03  0.35096647192E+03  0.00000000000E+00 0. -1.
          2    1    3    3  501    0  0.29167734996E+03 -0.57163416802E+02  0.70099221548E+03  0.76140227138E+03  0.00000000000E+00 0. -1.
<mgrwt>
<rscale>  0 0.67042895E+03</rscale>
<asrwt>0</asrwt>
<pdfrwt beam="1">0</pdfrwt>
<pdfrwt beam="2">  1        2 0.40861447E+00 0.67042895E+03</pdfrwt>
<totfact> 0.36901591E+00</totfact>
</mgrwt>
</event>
<event>
 5    1  0.2349912E-004  0.6583090E+03  0.7818608E-02  0.9791312E-01
         13   -1    0    0    0    0  0.00000000000E+00  0.00000000000E+00  0.10000000000E+04  0.10000000000E+04  0.00000000000E+00 0. -1.
          2   -1    0    0  501    0 -0.00000000000E+00 -0.00000000000E+00 -0.10834268261E+03  0.10834268261E+03  0.00000000000E+00 0. -1.
    9000006    2    1    2  501    0  0.00000000000E+00  0.00000000000E+00  0.89165731739E+03  0.11083426826E+04  0.65830899313E+03 0.  0.
         13    1    3    3    0    0 -0.93033310148E+02  0.29386584814E+03  0.64021468055E+03  0.71055412932E+03  0.00000000000E+00 0. -1.
          4    1    3    3  501    0  0.93033310148E+02 -0.29386584814E+03  0.25144263684E+03  0.39778855328E+03  0.00000000000E+00 0. -1.
<mgrwt>
<rscale>  0 0.65830899E+03</rscale>
<asrwt>0</asrwt>
<pdfrwt beam="1">0</pdfrwt>
<pdfrwt beam="2">  1        2 0.39397422E+00 0.65830899E+03</pdfrwt>
<totfact> 0.41923236E+00</totfact>
</mgrwt>
</event>
<event>
 5    1  0.2349912E-004  0.6486540E+03  0.7818608E-02  0.9809308E-01
         13   -1    0    0    0    0  0.00000000000E+00  0.00000000000E+00  0.10000000000E+04  0.10000000000E+04  0.00000000000E+00 0. -1.
          2   -1    0    0  501    0 -0.00000000000E+00 -0.00000000000E+00 -0.10518799273E+03  0.10518799273E+03  0.00000000000E+00 0. -1.
    9000006    2    1    2  501    0  0.00000000000E+00  0.00000000000E+00  0.89481200727E+03  0.11051879927E+04  0.64865396856E+03 0.  0.
         13    1    3    3    0    0  0.34984087764E+02 -0.14355215785E+03  0.93932525042E+03  0.95087487846E+03  0.00000000000E+00 0. -1.
          4    1    3    3  501    0 -0.34984087764E+02  0.14355215785E+03 -0.44513243151E+02  0.15431311427E+03  0.00000000000E+00 0. -1.
<mgrwt>
<rscale>  0 0.64865397E+03</rscale>
<asrwt>0</asrwt>
<pdfrwt beam="1">0</pdfrwt>
<pdfrwt beam="2">  1        2 0.38250260E+00 0.64865397E+03</pdfrwt>
<totfact> 0.46279762E+00</totfact>
</mgrwt>
</event>
<event>
 5    1  0.2349912E-004  0.6511804E+03  0.7818608E-02  0.9804567E-01
         13   -1    0    0    0    0  0.00000000000E+00  0.00000000000E+00  0.10000000000E+04  0.10000000000E+04  0.00000000000E+00 0. -1.
          2   -1    0    0  501    0 -0.00000000000E+00 -0.00000000000E+00 -0.10600897925E+03  0.10600897925E+03  0.00000000000E+00 0. -1.
    9000006    2    1    2  501    0  0.00000000000E+00  0.00000000000E+00  0.89399102075E+03  0.11060089793E+04  0.65118040281E+03 0.  0.
         13    1    3    3    0    0 -0.48141504679E+02 -0.21185661913E+03  0.85888060992E+03  0.88593269137E+03  0.00000000000E+00 0. -1.
          4    1    3    3  501    0  0.48141504679E+02  0.21185661913E+03  0.35110410833E+02  0.22007628789E+03  0.00000000000E+00 0. -1.
<mgrwt>
<rscale>  0 0.65118040E+03</rscale>
<asrwt>0</asrwt>
<pdfrwt beam="1">0</pdfrwt>
<pdfrwt beam="2">  1        2 0.38548801E+00 0.65118040E+03</pdfrwt>
<totfact> 0.45108236E+00</totfact>
</mgrwt>
</event>
<event>
 5    1  0.2349912E-004  0.6316077E+03  0.7818608E-02  0.9841916E-01
         13   -1    0    0    0    0  0.00000000000E+00  0.00000000000E+00  0.10000000000E+04  0.10000000000E+04  0.00000000000E+00 0. -1.
          2   -1    0    0  501    0 -0.00000000000E+00 -0.00000000000E+00 -0.99732073915E+02  0.99732073915E+02  0.00000000000E+00 0. -1.
    9000006    2    1    2  501    0  0.00000000000E+00  0.00000000000E+00  0.90026792609E+03  0.10997320739E+04  0.63160770709E+03 0.  0.
         13    1    3    3    0    0  0.13809257349E+03  0.26315586584E+03  0.26413482159E+03  0.39760253087E+03  0.00000000000E+00 0. -1.
          4    1    3    3  501    0 -0.13809257349E+03 -0.26315586584E+03  0.63613310449E+03  0.70212954304E+03  0.00000000000E+00 0. -1.
<mgrwt>
<rscale>  0 0.63160771E+03</rscale>
<asrwt>0</asrwt>
<pdfrwt beam="1">0</pdfrwt>
<pdfrwt beam="2">  1        2 0.36266285E+00 0.63160771E+03</pdfrwt>
<totfact> 0.54798013E+00</totfact>
</mgrwt>
</event>
<event>
 5    1  0.2349912E-004  0.5321389E+03  0.7818608E-02  0.1005715E+00
         13   -1    0    0    0    0  0.00000000000E+00  0.00000000000E+00  0.10000000000E+04  0.10000000000E+04  0.00000000000E+00 0. -1.
          2   -1    0    0  501    0 -0.00000000000E+00 -0.00000000000E+00 -0.70792957721E+02  0.70792957721E+02  0.00000000000E+00 0. -1.
    9000006    2    1    2  501    0  0.00000000000E+00  0.00000000000E+00  0.92920704228E+03  0.10707929577E+04  0.53213892066E+03 0.  0.
         13    1    3    3    0    0  0.23712455566E+03  0.11528980423E+03  0.39280382052E+03  0.47309051489E+03  0.00000000000E+00 0. -1.
          4    1    3    3  501    0 -0.23712455566E+03 -0.11528980423E+03  0.53640322175E+03  0.59770244283E+03  0.00000000000E+00 0. -1.
<mgrwt>
<rscale>  0 0.53213892E+03</rscale>
<asrwt>0</asrwt>
<pdfrwt beam="1">0</pdfrwt>
<pdfrwt beam="2">  1        2 0.25742948E+00 0.53213892E+03</pdfrwt>
<totfact> 0.13108952E+01</totfact>
</mgrwt>
</event>
<event>
 5    1  0.2349912E-004  0.6608415E+03  0.7818608E-02  0.9786646E-01
         13   -1    0    0    0    0  0.00000000000E+00  0.00000000000E+00  0.10000000000E+04  0.10000000000E+04  0.00000000000E+00 0. -1.
          2   -1    0    0  501    0 -0.00000000000E+00 -0.00000000000E+00 -0.10917785652E+03  0.10917785652E+03  0.00000000000E+00 0. -1.
    9000006    2    1    2  501    0  0.00000000000E+00  0.00000000000E+00  0.89082214348E+03  0.11091778565E+04  0.66084145306E+03 0.  0.
         13    1    3    3    0    0 -0.21159338047E+02  0.32695203244E+03  0.37356106981E+03  0.49688350947E+03  0.00000000000E+00 0. -1.
          2    1    3    3  501    0  0.21159338047E+02 -0.32695203244E+03  0.51726107366E+03  0.61229434705E+03  0.00000000000E+00 0. -1.
<mgrwt>
<rscale>  0 0.66084145E+03</rscale>
<asrwt>0</asrwt>
<pdfrwt beam="1">0</pdfrwt>
<pdfrwt beam="2">  1        2 0.39701122E+00 0.66084145E+03</pdfrwt>
<totfact> 0.40833782E+00</totfact>
</mgrwt>
</event>
<event>
 5    1  0.2349912E-004  0.6535415E+03  0.7818608E-02  0.9800156E-01
         13   -1    0    0    0    0  0.00000000000E+00  0.00000000000E+00  0.10000000000E+04  0.10000000000E+04  0.00000000000E+00 0. -1.
          2   -1    0    0  501    0 -0.00000000000E+00 -0.00000000000E+00 -0.10677913594E+03  0.10677913594E+03  0.00000000000E+00 0. -1.
    9000006    2    1    2  501    0  0.00000000000E+00  0.00000000000E+00  0.89322086406E+03  0.11067791359E+04  0.65354153942E+03 0.  0.
         13    1    3    3    0    0 -0.16696270438E+03  0.13790557839E+03  0.86103500467E+03  0.88784895814E+03  0.00000000000E+00 0. -1.
          2    1    3    3  501    0  0.16696270438E+03 -0.13790557839E+03  0.32185859390E+02  0.21893017779E+03  0.00000000000E+00 0. -1.
<mgrwt>
<rscale>  0 0.65354154E+03</rscale>
<asrwt>0</asrwt>
<pdfrwt beam="1">0</pdfrwt>
<pdfrwt beam="2">  1        2 0.38828859E+00 0.65354154E+03</pdfrwt>
<totfact> 0.44033748E+00</totfact>
</mgrwt>
</event>
<event>
 5    1  0.2349912E-004  0.6446294E+03  0.7818608E-02  0.9816909E-01
         13   -1    0    0    0    0  0.00000000000E+00  0.00000000000E+00  0.10000000000E+04  0.10000000000E+04  0.00000000000E+00 0. -1.
          2   -1    0    0  501    0 -0.00000000000E+00 -0.00000000000E+00 -0.10388678152E+03  0.10388678152E+03  0.00000000000E+00 0. -1.
    9000006    2    1    2  501    0  0.00000000000E+00  0.00000000000E+00  0.89611321848E+03  0.11038867815E+04  0.64462944868E+03 0.  0.
         13    1    3    3    0    0  0.22511572454E+03 -0.21824302886E+03  0.57597080465E+03  0.65578157712E+03  0.00000000000E+00 0. -1.
          4    1    3    3  501    0 -0.22511572454E+03  0.21824302886E+03  0.32014241383E+03  0.44810520440E+03  0.00000000000E+00 0. -1.
<mgrwt>
<rscale>  0 0.64462945E+03</rscale>
<asrwt>0</asrwt>
<pdfrwt beam="1">0</pdfrwt>
<pdfrwt beam="2">  1        2 0.37777091E+00 0.64462945E+03</pdfrwt>
<totfact> 0.48193296E+00</totfact>
</mgrwt>
</event>
<event>
 5    1  0.2349912E-004  0.6480026E+03  0.7818608E-02  0.9810534E-01
         13   -1    0    0    0    0  0.00000000000E+00  0.00000000000E+00  0.10000000000E+04  0.10000000000E+04  0.00000000000E+00 0. -1.
          2   -1    0    0  501    0 -0.00000000000E+00 -0.00000000000E+00 -0.10497684589E+03  0.10497684589E+03  0.00000000000E+00 0. -1.
    9000006    2    1    2  501    0  0.00000000000E+00  0.00000000000E+00  0.89502315411E+03  0.11049768459E+04  0.64800261075E+03 0.  0.
         13    1    3    3    0    0 -0.31456083134E+03  0.71542140650E+02  0.49895257425E+03  0.59415525400E+03  0.00000000000E+00 0. -1.
          4    1    3    3  501    0  0.31456083134E+03 -0.71542140650E+02  0.39607057987E+03  0.51082159189E+03  0.00000000000E+00 0. -1.
<mgrwt>
<rscale>  0 0.64800261E+03</rscale>
<asrwt>0</asrwt>
<pdfrwt beam="1">0</pdfrwt>
<pdfrwt beam="2">  1        2 0.38173479E+00 0.64800261E+03</pdfrwt>
<totfact> 0.46585495E+00</totfact>
</mgrwt>
</event>
<event>
 5    1  0.2349912E-004  0.6433900E+03  0.7818608E-02  0.9819262E-01
         13   -1    0    0    0    0  0.00000000000E+00  0.00000000000E+00  0.10000000000E+04  0.10000000000E+04  0.00000000000E+00 0. -1.
          2   -1    0    0  501    0 -0.00000000000E+00 -0.00000000000E+00 -0.10348767266E+03  0.10348767266E+03  0.00000000000E+00 0. -1.
    9000006    2    1    2  501    0  0.00000000000E+00  0.00000000000E+00  0.89651232734E+03  0.11034876727E+04  0.64338999886E+03 0.  0.
         13    1    3    3    0    0  0.28822692289E+03 -0.13667508573E+03  0.37686051790E+03  0.49373949415E+03  0.00000000000E+00 0. -1.
          4    1    3    3  501    0 -0.28822692289E+03  0.13667508573E+03  0.51965180944E+03  0.60974817850E+03  0.00000000000E+00 0. -1.
<mgrwt>
<rscale>  0 0.64339000E+03</rscale>
<asrwt>0</asrwt>
<pdfrwt beam="1">0</pdfrwt>
<pdfrwt beam="2">  1        2 0.37631960E+00 0.64339000E+03</pdfrwt>
<totfact> 0.48794496E+00</totfact>
</mgrwt>
</event>
<event>
 5    1  0.2349912E-004  0.6481255E+03  0.7818608E-02  0.9810303E-01
         13   -1    0    0    0    0  0.00000000000E+00  0.00000000000E+00  0.10000000000E+04  0.10000000000E+04  0.00000000000E+00 0. -1.
          2   -1    0    0  501    0 -0.00000000000E+00 -0.00000000000E+00 -0.10501668200E+03  0.10501668200E+03  0.00000000000E+00 0. -1.
    9000006    2    1    2  501    0  0.00000000000E+00  0.00000000000E+00  0.89498331800E+03  0.11050166820E+04  0.64812554957E+03 0.  0.
         13    1    3    3    0    0 -0.63621314297E+02 -0.60705580199E+02  0.97926927330E+03  0.98320961586E+03  0.00000000000E+00 0. -1.
          2    1    3    3  501    0  0.63621314297E+02  0.60705580199E+02 -0.84285955300E+02  0.12180706614E+03  0.00000000000E+00 0. -1.
<mgrwt>
<rscale>  0 0.64812555E+03</rscale>
<asrwt>0</asrwt>
<pdfrwt beam="1">0</pdfrwt>
<pdfrwt beam="2">  1        2 0.38187965E+00 0.64812555E+03</pdfrwt>
<totfact> 0.46527674E+00</totfact>
</mgrwt>
</event>
<event>
 5    1  0.2349912E-004  0.6380285E+03  0.7818608E-02  0.9829506E-01
         13   -1    0    0    0    0  0.00000000000E+00  0.00000000000E+00  0.10000000000E+04  0.10000000000E+04  0.00000000000E+00 0. -1.
          2   -1    0    0  501    0 -0.00000000000E+00 -0.00000000000E+00 -0.10177010104E+03  0.10177010104E+03  0.00000000000E+00 0. -1.
    9000006    2    1    2  501    0  0.00000000000E+00  0.00000000000E+00  0.89822989896E+03  0.11017701010E+04  0.63802852926E+03 0.  0.
         13    1    3    3    0    0  0.72483052112E+02  0.11098445964E+03  0.95019109339E+03  0.95939275434E+03  0.00000000000E+00 0. -1.
          4    1    3    3  501    0 -0.72483052112E+02 -0.11098445964E+03 -0.51961194426E+02  0.14237734670E+03  0.00000000000E+00 0. -1.
<mgrwt>
<rscale>  0 0.63802853E+03</rscale>
<asrwt>0</asrwt>
<pdfrwt beam="1">0</pdfrwt>
<pdfrwt beam="2">  1        2 0.37007388E+00 0.63802853E+03</pdfrwt>
<totfact> 0.51460979E+00</totfact>
</mgrwt>
</event>
<event>
 5    1  0.2349912E-004  0.6572928E+03  0.7818608E-02  0.9793190E-01
         13   -1    0    0    0    0  0.00000000000E+00  0.00000000000E+00  0.10000000000E+04  0.10000000000E+04  0.00000000000E+00 0. -1.
          2   -1    0    0  501    0 -0.00000000000E+00 -0.00000000000E+00 -0.10800847225E+03  0.10800847225E+03  0.00000000000E+00 0. -1.
    9000006    2    1    2  501    0  0.00000000000E+00  0.00000000000E+00  0.89199152775E+03  0.11080084722E+04  0.65729284873E+03 0.  0.
         13    1    3    3    0    0 -0.20470376374E+03  0.23924505149E+03  0.28726398774E+03  0.42621875158E+03  0.00000000000E+00 0. -1.
          2    1    3    3  501    0  0.20470376374E+03 -0.23924505149E+03  0.60472754001E+03  0.68178972066E+03  0.00000000000E+00 0. -1.
<mgrwt>
<rscale>  0 0.65729285E+03</rscale>
<asrwt>0</asrwt>
<pdfrwt beam="1">0</pdfrwt>
<pdfrwt beam="2">  1        2 0.39275891E+00 0.65729285E+03</pdfrwt>
<totfact> 0.42366524E+00</totfact>
</mgrwt>
</event>
<event>
 5    1  0.2349912E-004  0.6551358E+03  0.7818608E-02  0.9797190E-01
         13   -1    0    0    0    0  0.00000000000E+00  0.00000000000E+00  0.10000000000E+04  0.10000000000E+04  0.00000000000E+00 0. -1.
          2   -1    0    0  501    0 -0.00000000000E+00 -0.00000000000E+00 -0.10730072983E+03  0.10730072983E+03  0.00000000000E+00 0. -1.
    9000006    2    1    2  501    0  0.00000000000E+00  0.00000000000E+00  0.89269927017E+03  0.11073007298E+04  0.65513580221E+03 0.  0.
         13    1    3    3    0    0 -0.17417598928E+03  0.21241068301E+03  0.74796672482E+03  0.79681227082E+03  0.00000000000E+00 0. -1.
          2    1    3    3  501    0  0.17417598928E+03 -0.21241068301E+03  0.14473254534E+03  0.31048845901E+03  0.00000000000E+00 0. -1.
<mgrwt>
<rscale>  0 0.65513580E+03</rscale>
<asrwt>0</asrwt>
<pdfrwt beam="1">0</pdfrwt>
<pdfrwt beam="2">  1        2 0.39018529E+00 0.65513580E+03</pdfrwt>
<totfact> 0.43319257E+00</totfact>
</mgrwt>
</event>
<event>
 5    1  0.2349912E-004  0.6478140E+03  0.7818608E-02  0.9810890E-01
         13   -1    0    0    0    0  0.00000000000E+00  0.00000000000E+00  0.10000000000E+04  0.10000000000E+04  0.00000000000E+00 0. -1.
          2   -1    0    0  501    0 -0.00000000000E+00 -0.00000000000E+00 -0.10491574562E+03  0.10491574562E+03  0.00000000000E+00 0. -1.
    9000006    2    1    2  501    0  0.00000000000E+00  0.00000000000E+00  0.89508425438E+03  0.11049157456E+04  0.64781400301E+03 0.  0.
         13    1    3    3    0    0 -0.41704231859E+02 -0.25862116012E+03  0.77246619241E+03  0.81567650808E+03  0.00000000000E+00 0. -1.
          4    1    3    3  501    0  0.41704231859E+02  0.25862116012E+03  0.12261806197E+03  0.28923923755E+03  0.00000000000E+00 0. -1.
<mgrwt>
<rscale>  0 0.64781400E+03</rscale>
<asrwt>0</asrwt>
<pdfrwt beam="1">0</pdfrwt>
<pdfrwt beam="2">  1        2 0.38151261E+00 0.64781400E+03</pdfrwt>
<totfact> 0.46674308E+00</totfact>
</mgrwt>
</event>
<event>
 5    1  0.2349912E-004  0.6468834E+03  0.7818608E-02  0.9812645E-01
         13   -1    0    0    0    0  0.00000000000E+00  0.00000000000E+00  0.10000000000E+04  0.10000000000E+04  0.00000000000E+00 0. -1.
          2   -1    0    0  501    0 -0.00000000000E+00 -0.00000000000E+00 -0.10461454390E+03  0.10461454390E+03  0.00000000000E+00 0. -1.
    9000006    2    1    2  501    0  0.00000000000E+00  0.00000000000E+00  0.89538545610E+03  0.11046145439E+04  0.64688343276E+03 0.  0.
         13    1    3    3    0    0 -0.17516295181E+02  0.32270066697E+03  0.47008780356E+03  0.57046041415E+03  0.00000000000E+00 0. -1.
          2    1    3    3  501    0  0.17516295181E+02 -0.32270066697E+03  0.42529765255E+03  0.53415412974E+03  0.00000000000E+00 0. -1.
<mgrwt>
<rscale>  0 0.64688343E+03</rscale>
<asrwt>0</asrwt>
<pdfrwt beam="1">0</pdfrwt>
<pdfrwt beam="2">  1        2 0.38041733E+00 0.64688343E+03</pdfrwt>
<totfact> 0.47114377E+00</totfact>
</mgrwt>
</event>
<event>
 5    1  0.2349912E-004  0.6447652E+03  0.7818608E-02  0.9816652E-01
         13   -1    0    0    0    0  0.00000000000E+00  0.00000000000E+00  0.10000000000E+04  0.10000000000E+04  0.00000000000E+00 0. -1.
          2   -1    0    0  501    0 -0.00000000000E+00 -0.00000000000E+00 -0.10393054325E+03  0.10393054325E+03  0.00000000000E+00 0. -1.
    9000006    2    1    2  501    0  0.00000000000E+00  0.00000000000E+00  0.89606945675E+03  0.11039305432E+04  0.64476520764E+03 0.  0.
         13    1    3    3    0    0 -0.28636186129E+03  0.14049611699E+03  0.52812697662E+03  0.61697680502E+03  0.00000000000E+00 0. -1.
          2    1    3    3  501    0  0.28636186129E+03 -0.14049611699E+03  0.36794248013E+03  0.48695373823E+03  0.00000000000E+00 0. -1.
<mgrwt>
<rscale>  0 0.64476521E+03</rscale>
<asrwt>0</asrwt>
<pdfrwt beam="1">0</pdfrwt>
<pdfrwt beam="2">  1        2 0.37793005E+00 0.64476521E+03</pdfrwt>
<totfact> 0.48127788E+00</totfact>
</mgrwt>
</event>
<event>
 5    1  0.2349912E-004  0.6389816E+03  0.7818608E-02  0.9827677E-01
         13   -1    0    0    0    0  0.00000000000E+00  0.00000000000E+00  0.10000000000E+04  0.10000000000E+04  0.00000000000E+00 0. -1.
          2   -1    0    0  501    0 -0.00000000000E+00 -0.00000000000E+00 -0.10207436930E+03  0.10207436930E+03  0.00000000000E+00 0. -1.
    9000006    2    1    2  501    0  0.00000000000E+00  0.00000000000E+00  0.89792563070E+03  0.11020743693E+04  0.63898159378E+03 0.  0.
         13    1    3    3    0    0 -0.18626783375E+03  0.24768902863E+03  0.58288061305E+03  0.66014799088E+03  0.00000000000E+00 0. -1.
          4    1    3    3  501    0  0.18626783375E+03 -0.24768902863E+03  0.31504501765E+03  0.44192637842E+03  0.00000000000E+00 0. -1.
<mgrwt>
<rscale>  0 0.63898159E+03</rscale>
<asrwt>0</asrwt>
<pdfrwt beam="1">0</pdfrwt>
<pdfrwt beam="2">  1        2 0.37118031E+00 0.63898159E+03</pdfrwt>
<totfact> 0.50979099E+00</totfact>
</mgrwt>
</event>
<event>
 5    1  0.2349912E-004  0.6492644E+03  0.7818608E-02  0.9808160E-01
         13   -1    0    0    0    0  0.00000000000E+00  0.00000000000E+00  0.10000000000E+04  0.10000000000E+04  0.00000000000E+00 0. -1.
          2   -1    0    0  501    0 -0.00000000000E+00 -0.00000000000E+00 -0.10538607640E+03  0.10538607640E+03  0.00000000000E+00 0. -1.
    9000006    2    1    2  501    0  0.00000000000E+00  0.00000000000E+00  0.89461392360E+03  0.11053860764E+04  0.64926443428E+03 0.  0.
         13    1    3    3    0    0 -0.11330476205E+03  0.25594886112E+03  0.16735599640E+03  0.32612239748E+03  0.00000000000E+00 0. -1.
          2    1    3    3  501    0  0.11330476205E+03 -0.25594886112E+03  0.72725792720E+03  0.77926367892E+03  0.00000000000E+00 0. -1.
<mgrwt>
<rscale>  0 0.64926443E+03</rscale>
<asrwt>0</asrwt>
<pdfrwt beam="1">0</pdfrwt>
<pdfrwt beam="2">  1        2 0.38322290E+00 0.64926443E+03</pdfrwt>
<totfact> 0.45994602E+00</totfact>
</mgrwt>
</event>
<event>
 5    1  0.2349912E-004  0.6567947E+03  0.7818608E-02  0.9794112E-01
         13   -1    0    0    0    0  0.00000000000E+00  0.00000000000E+00  0.10000000000E+04  0.10000000000E+04  0.00000000000E+00 0. -1.
          2   -1    0    0  501    0 -0.00000000000E+00 -0.00000000000E+00 -0.10784481166E+03  0.10784481166E+03  0.00000000000E+00 0. -1.
    9000006    2    1    2  501    0  0.00000000000E+00  0.00000000000E+00  0.89215518834E+03  0.11078448117E+04  0.65679467618E+03 0.  0.
         13    1    3    3    0    0  0.35545250874E+02 -0.31813072892E+03  0.56973087845E+03  0.65350126197E+03  0.00000000000E+00 0. -1.
          4    1    3    3  501    0 -0.35545250874E+02  0.31813072892E+03  0.32242430989E+03  0.45434354969E+03  0.00000000000E+00 0. -1.
<mgrwt>
<rscale>  0 0.65679468E+03</rscale>
<asrwt>0</asrwt>
<pdfrwt beam="1">0</pdfrwt>
<pdfrwt beam="2">  1        2 0.39216378E+00 0.65679468E+03</pdfrwt>
<totfact> 0.42585139E+00</totfact>
</mgrwt>
</event>
<event>
 5    1  0.2349912E-004  0.6373293E+03  0.7818608E-02  0.9830850E-01
         13   -1    0    0    0    0  0.00000000000E+00  0.00000000000E+00  0.10000000000E+04  0.10000000000E+04  0.00000000000E+00 0. -1.
          2   -1    0    0  501    0 -0.00000000000E+00 -0.00000000000E+00 -0.10154714642E+03  0.10154714642E+03  0.00000000000E+00 0. -1.
    9000006    2    1    2  501    0  0.00000000000E+00  0.00000000000E+00  0.89845285358E+03  0.11015471464E+04  0.63732926001E+03 0.  0.
         13    1    3    3    0    0  0.23378031443E+03 -0.77213534225E+02  0.99546570616E+02  0.26556484143E+03  0.00000000000E+00 0. -1.
          4    1    3    3  501    0 -0.23378031443E+03  0.77213534225E+02  0.79890628297E+03  0.83598230498E+03  0.00000000000E+00 0. -1.
<mgrwt>
<rscale>  0 0.63732926E+03</rscale>
<asrwt>0</asrwt>
<pdfrwt beam="1">0</pdfrwt>
<pdfrwt beam="2">  1        2 0.36926313E+00 0.63732926E+03</pdfrwt>
<totfact> 0.51816725E+00</totfact>
</mgrwt>
</event>
<event>
 5    1  0.2349912E-004  0.6527093E+03  0.7818608E-02  0.9801709E-01
         13   -1    0    0    0    0  0.00000000000E+00  0.00000000000E+00  0.10000000000E+04  0.10000000000E+04  0.00000000000E+00 0. -1.
          2   -1    0    0  501    0 -0.00000000000E+00 -0.00000000000E+00 -0.10650736353E+03  0.10650736353E+03  0.00000000000E+00 0. -1.
    9000006    2    1    2  501    0  0.00000000000E+00  0.00000000000E+00  0.89349263647E+03  0.11065073635E+04  0.65270931823E+03 0.  0.
         13    1    3    3    0    0  0.30999196866E+03 -0.84736078818E+02  0.35036795050E+03  0.47542920022E+03  0.00000000000E+00 0. -1.
          4    1    3    3  501    0 -0.30999196866E+03  0.84736078818E+02  0.54312468597E+03  0.63107816330E+03  0.00000000000E+00 0. -1.
<mgrwt>
<rscale>  0 0.65270932E+03</rscale>
<asrwt>0</asrwt>
<pdfrwt beam="1">0</pdfrwt>
<pdfrwt beam="2">  1        2 0.38730032E+00 0.65270932E+03</pdfrwt>
<totfact> 0.44410237E+00</totfact>
</mgrwt>
</event>
<event>
 5    1  0.2349912E-004  0.6148503E+03  0.7818608E-02  0.9875067E-01
         13   -1    0    0    0    0  0.00000000000E+00  0.00000000000E+00  0.10000000000E+04  0.10000000000E+04  0.00000000000E+00 0. -1.
          2   -1    0    0  501    0 -0.00000000000E+00 -0.00000000000E+00 -0.94510214882E+02  0.94510214882E+02  0.00000000000E+00 0. -1.
    9000006    2    1    2  501    0  0.00000000000E+00  0.00000000000E+00  0.90548978512E+03  0.10945102149E+04  0.61485027407E+03 0.  0.
         13    1    3    3    0    0  0.20527676005E+03 -0.13150627698E+03  0.11934426719E+03  0.27143231792E+03  0.00000000000E+00 0. -1.
          2    1    3    3  501    0 -0.20527676005E+03  0.13150627698E+03  0.78614551793E+03  0.82307789696E+03  0.00000000000E+00 0. -1.
<mgrwt>
<rscale>  0 0.61485027E+03</rscale>
<asrwt>0</asrwt>
<pdfrwt beam="1">0</pdfrwt>
<pdfrwt beam="2">  1        2 0.34367423E+00 0.61485027E+03</pdfrwt>
<totfact> 0.64283636E+00</totfact>
</mgrwt>
</event>
<event>
 5    1  0.2349912E-004  0.6530246E+03  0.7818608E-02  0.9801120E-01
         13   -1    0    0    0    0  0.00000000000E+00  0.00000000000E+00  0.10000000000E+04  0.10000000000E+04  0.00000000000E+00 0. -1.
          2   -1    0    0  501    0 -0.00000000000E+00 -0.00000000000E+00 -0.10661027214E+03  0.10661027214E+03  0.00000000000E+00 0. -1.
    9000006    2    1    2  501    0  0.00000000000E+00  0.00000000000E+00  0.89338972786E+03  0.11066102721E+04  0.65302456965E+03 0.  0.
         13    1    3    3    0    0 -0.31196753629E+03  0.74199565974E+02  0.55089440504E+03  0.63742761533E+03  0.00000000000E+00 0. -1.
          4    1    3    3  501    0  0.31196753629E+03 -0.74199565974E+02  0.34249532282E+03  0.46918265681E+03  0.00000000000E+00 0. -1.
<mgrwt>
<rscale>  0 0.65302457E+03</rscale>
<asrwt>0</asrwt>
<pdfrwt beam="1">0</pdfrwt>
<pdfrwt beam="2">  1        2 0.38767453E+00 0.65302457E+03</pdfrwt>
<totfact> 0.44267336E+00</totfact>
</mgrwt>
</event>
<event>
 5    1  0.2349912E-004  0.6689840E+03  0.7818608E-02  0.9771795E-01
         13   -1    0    0    0    0  0.00000000000E+00  0.00000000000E+00  0.10000000000E+04  0.10000000000E+04  0.00000000000E+00 0. -1.
          2   -1    0    0  501    0 -0.00000000000E+00 -0.00000000000E+00 -0.11188490082E+03  0.11188490082E+03  0.00000000000E+00 0. -1.
    9000006    2    1    2  501    0  0.00000000000E+00  0.00000000000E+00  0.88811509918E+03  0.11118849008E+04  0.66898400824E+03 0.  0.
         13    1    3    3    0    0  0.89818936752E+02  0.12781226033E+03 -0.47531466933E+02  0.16328703451E+03  0.00000000000E+00 0. -1.
          4    1    3    3  501    0 -0.89818936752E+02 -0.12781226033E+03  0.93564656611E+03  0.94859786631E+03  0.00000000000E+00 0. -1.
<mgrwt>
<rscale>  0 0.66898401E+03</rscale>
<asrwt>0</asrwt>
<pdfrwt beam="1">0</pdfrwt>
<pdfrwt beam="2">  1        2 0.40685504E+00 0.66898401E+03</pdfrwt>
<totfact> 0.37475122E+00</totfact>
</mgrwt>
</event>
<event>
 5    1  0.2349912E-004  0.6331168E+03  0.7818608E-02  0.9838985E-01
         13   -1    0    0    0    0  0.00000000000E+00  0.00000000000E+00  0.10000000000E+04  0.10000000000E+04  0.00000000000E+00 0. -1.
          2   -1    0    0  501    0 -0.00000000000E+00 -0.00000000000E+00 -0.10020921096E+03  0.10020921096E+03  0.00000000000E+00 0. -1.
    9000006    2    1    2  501    0  0.00000000000E+00  0.00000000000E+00  0.89979078904E+03  0.11002092110E+04  0.63311676951E+03 0.  0.
         13    1    3    3    0    0 -0.20118867123E+03  0.17378587844E+03  0.15126840858E+03  0.30587668170E+03  0.00000000000E+00 0. -1.
          4    1    3    3  501    0  0.20118867123E+03 -0.17378587844E+03  0.74852238047E+03  0.79433252926E+03  0.00000000000E+00 0. -1.
<mgrwt>
<rscale>  0 0.63311677E+03</rscale>
<asrwt>0</asrwt>
<pdfrwt beam="1">0</pdfrwt>
<pdfrwt beam="2">  1        2 0.36439790E+00 0.63311677E+03</pdfrwt>
<totfact> 0.53999391E+00</totfact>
</mgrwt>
</event>
<event>
 5    1  0.2349912E-004  0.6515598E+03  0.7818608E-02  0.9803857E-01
         13   -1    0    0    0    0  0.00000000000E+00  0.00000000000E+00  0.10000000000E+04  0.10000000000E+04  0.00000000000E+00 0. -1.
          2   -1    0    0  501    0 -0.00000000000E+00 -0.00000000000E+00 -0.10613253837E+03  0.10613253837E+03  0.00000000000E+00 0. -1.
    9000006    2    1    2  501    0  0.00000000000E+00  0.00000000000E+00  0.89386746163E+03  0.11061325384E+04  0.65155978503E+03 0.  0.
         13    1    3    3    0    0 -0.27581910879E+03  0.41747022253E+02  0.73259411181E+03  0.78390887691E+03  0.00000000000E+00 0. -1.
          4    1    3    3  501    0  0.27581910879E+03 -0.41747022253E+02  0.16127334982E+03  0.32222366146E+03  0.00000000000E+00 0. -1.
<mgrwt>
<rscale>  0 0.65155979E+03</rscale>
<asrwt>0</asrwt>
<pdfrwt beam="1">0</pdfrwt>
<pdfrwt beam="2">  1        2 0.38593732E+00 0.65155979E+03</pdfrwt>
<totfact> 0.44934268E+00</totfact>
</mgrwt>
</event>
<event>
 5    1  0.2349912E-004  0.6637937E+03  0.7818608E-02  0.9781235E-01
         13   -1    0    0    0    0  0.00000000000E+00  0.00000000000E+00  0.10000000000E+04  0.10000000000E+04  0.00000000000E+00 0. -1.
          2   -1    0    0  501    0 -0.00000000000E+00 -0.00000000000E+00 -0.11015551511E+03  0.11015551511E+03  0.00000000000E+00 0. -1.
    9000006    2    1    2  501    0  0.00000000000E+00  0.00000000000E+00  0.88984448489E+03  0.11101555151E+04  0.66379368816E+03 0.  0.
         13    1    3    3    0    0  0.52495770402E+02  0.32040276555E+03  0.56008744252E+03  0.64738835435E+03  0.00000000000E+00 0. -1.
          2    1    3    3  501    0 -0.52495770402E+02 -0.32040276555E+03  0.32975704237E+03  0.46276716076E+03  0.00000000000E+00 0. -1.
<mgrwt>
<rscale>  0 0.66379369E+03</rscale>
<asrwt>0</asrwt>
<pdfrwt beam="1">0</pdfrwt>
<pdfrwt beam="2">  1        2 0.40056635E+00 0.66379369E+03</pdfrwt>
<totfact> 0.39590868E+00</totfact>
</mgrwt>
</event>
<event>
 5    1  0.2349912E-004  0.6543770E+03  0.7818608E-02  0.9798600E-01
         13   -1    0    0    0    0  0.00000000000E+00  0.00000000000E+00  0.10000000000E+04  0.10000000000E+04  0.00000000000E+00 0. -1.
          2   -1    0    0  501    0 -0.00000000000E+00 -0.00000000000E+00 -0.10705232751E+03  0.10705232751E+03  0.00000000000E+00 0. -1.
    9000006    2    1    2  501    0  0.00000000000E+00  0.00000000000E+00  0.89294767249E+03  0.11070523275E+04  0.65437703966E+03 0.  0.
         13    1    3    3    0    0  0.69236105782E+02 -0.26056354389E+03  0.13285629318E+03  0.30056246170E+03  0.00000000000E+00 0. -1.
          4    1    3    3  501    0 -0.69236105782E+02  0.26056354389E+03  0.76009137931E+03  0.80648986581E+03  0.00000000000E+00 0. -1.
<mgrwt>
<rscale>  0 0.65437704E+03</rscale>
<asrwt>0</asrwt>
<pdfrwt beam="1">0</pdfrwt>
<pdfrwt beam="2">  1        2 0.38928201E+00 0.65437704E+03</pdfrwt>
<totfact> 0.43658206E+00</totfact>
</mgrwt>
</event>
<event>
 5    1  0.2349912E-004  0.6315145E+03  0.7818608E-02  0.9842098E-01
         13   -1    0    0    0    0  0.00000000000E+00  0.00000000000E+00  0.10000000000E+04  0.10000000000E+04  0.00000000000E+00 0. -1.
          2   -1    0    0  501    0 -0.00000000000E+00 -0.00000000000E+00 -0.99702653809E+02  0.99702653809E+02  0.00000000000E+00 0. -1.
    9000006    2    1    2  501    0  0.00000000000E+00  0.00000000000E+00  0.90029734619E+03  0.10997026538E+04  0.63151454079E+03 0.  0.
         13    1    3    3    0    0 -0.16509154832E+03  0.81928332859E+02  0.36801397205E+01  0.18433940024E+03  0.00000000000E+00 0. -1.
          2    1    3    3  501    0  0.16509154832E+03 -0.81928332859E+02  0.89661720647E+03  0.91536325357E+03  0.00000000000E+00 0. -1.
<mgrwt>
<rscale>  0 0.63151454E+03</rscale>
<asrwt>0</asrwt>
<pdfrwt beam="1">0</pdfrwt>
<pdfrwt beam="2">  1        2 0.36255587E+00 0.63151454E+03</pdfrwt>
<totfact> 0.54847610E+00</totfact>
</mgrwt>
</event>
<event>
 5    1  0.2349912E-004  0.6453209E+03  0.7818608E-02  0.9815599E-01
         13   -1    0    0    0    0  0.00000000000E+00  0.00000000000E+00  0.10000000000E+04  0.10000000000E+04  0.00000000000E+00 0. -1.
          2   -1    0    0  501    0 -0.00000000000E+00 -0.00000000000E+00 -0.10410977966E+03  0.10410977966E+03  0.00000000000E+00 0. -1.
    9000006    2    1    2  501    0  0.00000000000E+00  0.00000000000E+00  0.89589022034E+03  0.11041097797E+04  0.64532094235E+03 0.  0.
         13    1    3    3    0    0 -0.62535764064E+02  0.24543223789E+03  0.10591801673E+03  0.27452929070E+03  0.00000000000E+00 0. -1.
          4    1    3    3  501    0  0.62535764064E+02 -0.24543223789E+03  0.78997220361E+03  0.82958048896E+03  0.00000000000E+00 0. -1.
<mgrwt>
<rscale>  0 0.64532094E+03</rscale>
<asrwt>0</asrwt>
<pdfrwt beam="1">0</pdfrwt>
<pdfrwt beam="2">  1        2 0.37858182E+00 0.64532094E+03</pdfrwt>
<totfact> 0.47860331E+00</totfact>
</mgrwt>
</event>
<event>
 5    1  0.2349912E-004  0.6626917E+03  0.7818608E-02  0.9783251E-01
         13   -1    0    0    0    0  0.00000000000E+00  0.00000000000E+00  0.10000000000E+04  0.10000000000E+04  0.00000000000E+00 0. -1.
          2   -1    0    0  501    0 -0.00000000000E+00 -0.00000000000E+00 -0.10979005908E+03  0.10979005908E+03  0.00000000000E+00 0. -1.
    9000006    2    1    2  501    0  0.00000000000E+00  0.00000000000E+00  0.89020994092E+03  0.11097900591E+04  0.66269166005E+03 0.  0.
         13    1    3    3    0    0 -0.28444044929E+03  0.57323360120E+02  0.17716963857E+03  0.33997267190E+03  0.00000000000E+00 0. -1.
          4    1    3    3  501    0  0.28444044929E+03 -0.57323360120E+02  0.71304030235E+03  0.76981738717E+03  0.00000000000E+00 0. -1.
<mgrwt>
<rscale>  0 0.66269166E+03</rscale>
<asrwt>0</asrwt>
<pdfrwt beam="1">0</pdfrwt>
<pdfrwt beam="2">  1        2 0.39923742E+00 0.66269166E+03</pdfrwt>
<totfact> 0.40051443E+00</totfact>
</mgrwt>
</event>
<event>
 5    1  0.2349912E-004  0.6391273E+03  0.7818608E-02  0.9827398E-01
         13   -1    0    0    0    0  0.00000000000E+00  0.00000000000E+00  0.10000000000E+04  0.10000000000E+04  0.00000000000E+00 0. -1.
          2   -1    0    0  501    0 -0.00000000000E+00 -0.00000000000E+00 -0.10212093097E+03  0.10212093097E+03  0.00000000000E+00 0. -1.
    9000006    2    1    2  501    0  0.00000000000E+00  0.00000000000E+00  0.89787906903E+03  0.11021209310E+04  0.63912731429E+03 0.  0.
         13    1    3    3    0    0  0.83774693331E+02  0.25031356418E+03  0.13832522516E+03  0.29800830117E+03  0.00000000000E+00 0. -1.
          2    1    3    3  501    0 -0.83774693331E+02 -0.25031356418E+03  0.75955384387E+03  0.80411262980E+03  0.00000000000E+00 0. -1.
<mgrwt>
<rscale>  0 0.63912731E+03</rscale>
<asrwt>0</asrwt>
<pdfrwt beam="1">0</pdfrwt>
<pdfrwt beam="2">  1        2 0.37134962E+00 0.63912731E+03</pdfrwt>
<totfact> 0.50905724E+00</totfact>
</mgrwt>
</event>
<event>
 5    1  0.2349912E-004  0.6500991E+03  0.7818608E-02  0.9806593E-01
         13   -1    0    0    0    0  0.00000000000E+00  0.00000000000E+00  0.10000000000E+04  0.10000000000E+04  0.00000000000E+00 0. -1.
          2   -1    0    0  501    0 -0.00000000000E+00 -0.00000000000E+00 -0.10565719659E+03  0.10565719659E+03  0.00000000000E+00 0. -1.
    9000006    2    1    2  501    0  0.00000000000E+00  0.00000000000E+00  0.89434280341E+03  0.11056571966E+04  0.65009905890E+03 0.  0.
         13    1    3    3    0    0  0.28739204242E+03  0.36065145764E+01  0.70538342365E+03  0.76169086075E+03  0.00000000000E+00 0. -1.
          4    1    3    3  501    0 -0.28739204242E+03 -0.36065145764E+01  0.18895937976E+03  0.34396633584E+03  0.00000000000E+00 0. -1.
<mgrwt>
<rscale>  0 0.65009906E+03</rscale>
<asrwt>0</asrwt>
<pdfrwt beam="1">0</pdfrwt>
<pdfrwt beam="2">  1        2 0.38420880E+00 0.65009906E+03</pdfrwt>
<totfact> 0.45606885E+00</totfact>
</mgrwt>
</event>
<event>
 5    1  0.2349912E-004  0.6536945E+03  0.7818608E-02  0.9799871E-01
         13   -1    0    0    0    0  0.00000000000E+00  0.00000000000E+00  0.10000000000E+04  0.10000000000E+04  0.00000000000E+00 0. -1.
          2   -1    0    0  501    0 -0.00000000000E+00 -0.00000000000E+00 -0.10682911952E+03  0.10682911952E+03  0.00000000000E+00 0. -1.
    9000006    2    1    2  501    0  0.00000000000E+00  0.00000000000E+00  0.89317088048E+03  0.11068291195E+04  0.65369448373E+03 0.  0.
         13    1    3    3    0    0  0.27623934633E+03  0.16644226144E+02  0.15212649990E+03  0.31579689469E+03  0.00000000000E+00 0. -1.
          4    1    3    3  501    0 -0.27623934633E+03 -0.16644226144E+02  0.74104438058E+03  0.79103222483E+03  0.00000000000E+00 0. -1.
<mgrwt>
<rscale>  0 0.65369448E+03</rscale>
<asrwt>0</asrwt>
<pdfrwt beam="1">0</pdfrwt>
<pdfrwt beam="2">  1        2 0.38847034E+00 0.65369448E+03</pdfrwt>
<totfact> 0.43964821E+00</totfact>
</mgrwt>
</event>
<event>
 5    1  0.2349912E-004  0.6631065E+03  0.7818608E-02  0.9782492E-01
         13   -1    0    0    0    0  0.00000000000E+00  0.00000000000E+00  0.10000000000E+04  0.10000000000E+04  0.00000000000E+00 0. -1.
          2   -1    0    0  501    0 -0.00000000000E+00 -0.00000000000E+00 -0.10992756489E+03  0.10992756489E+03  0.00000000000E+00 0. -1.
    9000006    2    1    2  501    0  0.00000000000E+00  0.00000000000E+00  0.89007243511E+03  0.11099275649E+04  0.66310652204E+03 0.  0.
         13    1    3    3    0    0 -0.31942248842E+03 -0.87648960779E+02  0.42052169575E+03  0.53530511209E+03  0.00000000000E+00 0. -1.
          4    1    3    3  501    0  0.31942248842E+03  0.87648960779E+02  0.46955073936E+03  0.57462245280E+03  0.00000000000E+00 0. -1.
<mgrwt>
<rscale>  0 0.66310652E+03</rscale>
<asrwt>0</asrwt>
<pdfrwt beam="1">0</pdfrwt>
<pdfrwt beam="2">  1        2 0.39973744E+00 0.66310652E+03</pdfrwt>
<totfact> 0.39877586E+00</totfact>
</mgrwt>
</event>
<event>
 5    1  0.2349912E-004  0.6318981E+03  0.7818608E-02  0.9841352E-01
         13   -1    0    0    0    0  0.00000000000E+00  0.00000000000E+00  0.10000000000E+04  0.10000000000E+04  0.00000000000E+00 0. -1.
          2   -1    0    0  501    0 -0.00000000000E+00 -0.00000000000E+00 -0.99823796145E+02  0.99823796145E+02  0.00000000000E+00 0. -1.
    9000006    2    1    2  501    0  0.00000000000E+00  0.00000000000E+00  0.90017620386E+03  0.10998237961E+04  0.63189808085E+03 0.  0.
         13    1    3    3    0    0  0.20302759770E+03  0.18851690792E+03  0.18575443153E+03  0.33356189655E+03  0.00000000000E+00 0. -1.
          4    1    3    3  501    0 -0.20302759770E+03 -0.18851690792E+03  0.71442177232E+03  0.76626189959E+03  0.00000000000E+00 0. -1.
<mgrwt>
<rscale>  0 0.63189808E+03</rscale>
<asrwt>0</asrwt>
<pdfrwt beam="1">0</pdfrwt>
<pdfrwt beam="2">  1        2 0.36299639E+00 0.63189808E+03</pdfrwt>
<totfact> 0.54643650E+00</totfact>
</mgrwt>
</event>
<event>
 5    1  0.2349912E-004  0.6446446E+03  0.7818608E-02  0.9816880E-01
         13   -1    0    0    0    0  0.00000000000E+00  0.00000000000E+00  0.10000000000E+04  0.10000000000E+04  0.00000000000E+00 0. -1.
          2   -1    0    0  501    0 -0.00000000000E+00 -0.00000000000E+00 -0.10389165239E+03  0.10389165239E+03  0.00000000000E+00 0. -1.
    9000006    2    1    2  501    0  0.00000000000E+00  0.00000000000E+00  0.89610834761E+03  0.11038916524E+04  0.64464456065E+03 0.  0.
         13    1    3    3    0    0 -0.23015943272E+03  0.21262176582E+03  0.31865409280E+03  0.44690246210E+03  0.00000000000E+00 0. -1.
          2    1    3    3  501    0  0.23015943272E+03 -0.21262176582E+03  0.57745425480E+03  0.65698919029E+03  0.00000000000E+00 0. -1.
<mgrwt>
<rscale>  0 0.64464456E+03</rscale>
<asrwt>0</asrwt>
<pdfrwt beam="1">0</pdfrwt>
<pdfrwt beam="2">  1        2 0.37778862E+00 0.64464456E+03</pdfrwt>
<totfact> 0.48186001E+00</totfact>
</mgrwt>
</event>
<event>
 5    1  0.2349912E-004  0.6320859E+03  0.7818608E-02  0.9840987E-01
         13   -1    0    0    0    0  0.00000000000E+00  0.00000000000E+00  0.10000000000E+04  0.10000000000E+04  0.00000000000E+00 0. -1.
          2   -1    0    0  501    0 -0.00000000000E+00 -0.00000000000E+00 -0.99883147076E+02  0.99883147076E+02  0.00000000000E+00 0. -1.
    9000006    2    1    2  501    0  0.00000000000E+00  0.00000000000E+00  0.90011685292E+03  0.10998831471E+04  0.63208590263E+03 0.  0.
         13    1    3    3    0    0  0.19061191516E+03  0.19433039813E+03  0.72948128907E+03  0.77861425426E+03  0.00000000000E+00 0. -1.
          4    1    3    3  501    0 -0.19061191516E+03 -0.19433039813E+03  0.17063556386E+03  0.32126889282E+03  0.00000000000E+00 0. -1.
<mgrwt>
<rscale>  0 0.63208590E+03</rscale>
<asrwt>0</asrwt>
<pdfrwt beam="1">0</pdfrwt>
<pdfrwt beam="2">  1        2 0.36321221E+00 0.63208590E+03</pdfrwt>
<totfact> 0.54543980E+00</totfact>
</mgrwt>
</event>
<event>
 5    1  0.2349912E-004  0.6460414E+03  0.7818608E-02  0.9814236E-01
         13   -1    0    0    0    0  0.00000000000E+00  0.00000000000E+00  0.10000000000E+04  0.10000000000E+04  0.00000000000E+00 0. -1.
          2   -1    0    0  501    0 -0.00000000000E+00 -0.00000000000E+00 -0.10434237582E+03  0.10434237582E+03  0.00000000000E+00 0. -1.
    9000006    2    1    2  501    0  0.00000000000E+00  0.00000000000E+00  0.89565762418E+03  0.11043423758E+04  0.64604140989E+03 0.  0.
         13    1    3    3    0    0 -0.25729089530E+03  0.64918844258E+02  0.76269855156E+03  0.80754079878E+03  0.00000000000E+00 0. -1.
          4    1    3    3  501    0  0.25729089530E+03 -0.64918844258E+02  0.13295907262E+03  0.29680157704E+03  0.00000000000E+00 0. -1.
<mgrwt>
<rscale>  0 0.64604141E+03</rscale>
<asrwt>0</asrwt>
<pdfrwt beam="1">0</pdfrwt>
<pdfrwt beam="2">  1        2 0.37942762E+00 0.64604141E+03</pdfrwt>
<totfact> 0.47515268E+00</totfact>
</mgrwt>
</event>
<event>
 5    1  0.2349912E-004  0.6914907E+03  0.7818608E-02  0.9731896E-01
         13   -1    0    0    0    0  0.00000000000E+00  0.00000000000E+00  0.10000000000E+04  0.10000000000E+04  0.00000000000E+00 0. -1.
          2   -1    0    0  501    0 -0.00000000000E+00 -0.00000000000E+00 -0.11953985896E+03  0.11953985896E+03  0.00000000000E+00 0. -1.
    9000006    2    1    2  501    0  0.00000000000E+00  0.00000000000E+00  0.88046014104E+03  0.11195398590E+04  0.69149073445E+03 0.  0.
         13    1    3    3    0    0  0.13553223978E+03 -0.21704759562E+02 -0.73538394488E+02  0.15571762929E+03  0.00000000000E+00 0. -1.
          4    1    3    3  501    0 -0.13553223978E+03  0.21704759562E+02  0.95399853553E+03  0.96382222967E+03  0.00000000000E+00 0. -1.
<mgrwt>
<rscale>  0 0.69149073E+03</rscale>
<asrwt>0</asrwt>
<pdfrwt beam="1">0</pdfrwt>
<pdfrwt beam="2">  1        2 0.43469131E+00 0.69149073E+03</pdfrwt>
<totfact> 0.29269326E+00</totfact>
</mgrwt>
</event>
<event>
 5    1  0.2349912E-004  0.6477220E+03  0.7818608E-02  0.9811063E-01
         13   -1    0    0    0    0  0.00000000000E+00  0.00000000000E+00  0.10000000000E+04  0.10000000000E+04  0.00000000000E+00 0. -1.
          2   -1    0    0  501    0 -0.00000000000E+00 -0.00000000000E+00 -0.10488595894E+03  0.10488595894E+03  0.00000000000E+00 0. -1.
    9000006    2    1    2  501    0  0.00000000000E+00  0.00000000000E+00  0.89511404106E+03  0.11048859589E+04  0.64772203589E+03 0.  0.
         13    1    3    3    0    0  0.21047045110E+03 -0.82278586066E+02  0.84328258066E+03  0.87303670447E+03  0.00000000000E+00 0. -1.
          2    1    3    3  501    0 -0.21047045110E+03  0.82278586066E+02  0.51831460399E+02  0.23184925447E+03  0.00000000000E+00 0. -1.
<mgrwt>
<rscale>  0 0.64772204E+03</rscale>
<asrwt>0</asrwt>
<pdfrwt beam="1">0</pdfrwt>
<pdfrwt beam="2">  1        2 0.38140429E+00 0.64772204E+03</pdfrwt>
<totfact> 0.46717661E+00</totfact>
</mgrwt>
</event>
<event>
 5    1  0.2349912E-004  0.5769242E+03  0.7818608E-02  0.9954472E-01
         13   -1    0    0    0    0  0.00000000000E+00  0.00000000000E+00  0.10000000000E+04  0.10000000000E+04  0.00000000000E+00 0. -1.
          2   -1    0    0  501    0 -0.00000000000E+00 -0.00000000000E+00 -0.83210370584E+02  0.83210370584E+02  0.00000000000E+00 0. -1.
    9000006    2    1    2  501    0  0.00000000000E+00  0.00000000000E+00  0.91678962942E+03  0.10832103706E+04  0.57692415648E+03 0.  0.
         13    1    3    3    0    0 -0.18367618851E+02 -0.12479006432E+03  0.94547789133E+03  0.95385448187E+03  0.00000000000E+00 0. -1.
          2    1    3    3  501    0  0.18367618851E+02  0.12479006432E+03 -0.28688261917E+02  0.12935588872E+03  0.00000000000E+00 0. -1.
<mgrwt>
<rscale>  0 0.57692416E+03</rscale>
<asrwt>0</asrwt>
<pdfrwt beam="1">0</pdfrwt>
<pdfrwt beam="2">  1        2 0.30258380E+00 0.57692416E+03</pdfrwt>
<totfact> 0.90382687E+00</totfact>
</mgrwt>
</event>
<event>
 5    1  0.2349912E-004  0.6533252E+03  0.7818608E-02  0.9800560E-01
         13   -1    0    0    0    0  0.00000000000E+00  0.00000000000E+00  0.10000000000E+04  0.10000000000E+04  0.00000000000E+00 0. -1.
          2   -1    0    0  501    0 -0.00000000000E+00 -0.00000000000E+00 -0.10670845464E+03  0.10670845464E+03  0.00000000000E+00 0. -1.
    9000006    2    1    2  501    0  0.00000000000E+00  0.00000000000E+00  0.89329154536E+03  0.11067084546E+04  0.65332520124E+03 0.  0.
         13    1    3    3    0    0 -0.58467588392E+02  0.27856446028E+03  0.17512603982E+03  0.33419417596E+03  0.00000000000E+00 0. -1.
          4    1    3    3  501    0  0.58467588392E+02 -0.27856446028E+03  0.71816550554E+03  0.77251427868E+03  0.00000000000E+00 0. -1.
<mgrwt>
<rscale>  0 0.65332520E+03</rscale>
<asrwt>0</asrwt>
<pdfrwt beam="1">0</pdfrwt>
<pdfrwt beam="2">  1        2 0.38803156E+00 0.65332520E+03</pdfrwt>
<totfact> 0.44131385E+00</totfact>
</mgrwt>
</event>
<event>
 5    1  0.2349912E-004  0.6530905E+03  0.7818608E-02  0.9800997E-01
         13   -1    0    0    0    0  0.00000000000E+00  0.00000000000E+00  0.10000000000E+04  0.10000000000E+04  0.00000000000E+00 0. -1.
          2   -1    0    0  501    0 -0.00000000000E+00 -0.00000000000E+00 -0.10663180891E+03  0.10663180891E+03  0.00000000000E+00 0. -1.
    9000006    2    1    2  501    0  0.00000000000E+00  0.00000000000E+00  0.89336819109E+03  0.11066318089E+04  0.65309052637E+03 0.  0.
         13    1    3    3    0    0 -0.31830246754E+02  0.22532947655E+03  0.84350940164E+03  0.87366735562E+03  0.00000000000E+00 0. -1.
          2    1    3    3  501    0  0.31830246754E+02 -0.22532947655E+03  0.49858789452E+02  0.23296445329E+03  0.00000000000E+00 0. -1.
<mgrwt>
<rscale>  0 0.65309053E+03</rscale>
<asrwt>0</asrwt>
<pdfrwt beam="1">0</pdfrwt>
<pdfrwt beam="2">  1        2 0.38775285E+00 0.65309053E+03</pdfrwt>
<totfact> 0.44237482E+00</totfact>
</mgrwt>
</event>
<event>
 5    1  0.2349912E-004  0.6429312E+03  0.7818608E-02  0.9820134E-01
         13   -1    0    0    0    0  0.00000000000E+00  0.00000000000E+00  0.10000000000E+04  0.10000000000E+04  0.00000000000E+00 0. -1.
          2   -1    0    0  501    0 -0.00000000000E+00 -0.00000000000E+00 -0.10334014543E+03  0.10334014543E+03  0.00000000000E+00 0. -1.
    9000006    2    1    2  501    0  0.00000000000E+00  0.00000000000E+00  0.89665985457E+03  0.11033401454E+04  0.64293124182E+03 0.  0.
         13    1    3    3    0    0 -0.27714877327E+03  0.14020411505E+03  0.59058604462E+03  0.66727843701E+03  0.00000000000E+00 0. -1.
          4    1    3    3  501    0  0.27714877327E+03 -0.14020411505E+03  0.30607380995E+03  0.43606170841E+03  0.00000000000E+00 0. -1.
<mgrwt>
<rscale>  0 0.64293124E+03</rscale>
<asrwt>0</asrwt>
<pdfrwt beam="1">0</pdfrwt>
<pdfrwt beam="2">  1        2 0.37578314E+00 0.64293124E+03</pdfrwt>
<totfact> 0.49018451E+00</totfact>
</mgrwt>
</event>
<event>
 5    1  0.2349912E-004  0.6249137E+03  0.7818608E-02  0.9855025E-01
         13   -1    0    0    0    0  0.00000000000E+00  0.00000000000E+00  0.10000000000E+04  0.10000000000E+04  0.00000000000E+00 0. -1.
          2   -1    0    0  501    0 -0.00000000000E+00 -0.00000000000E+00 -0.97629290613E+02  0.97629290613E+02  0.00000000000E+00 0. -1.
    9000006    2    1    2  501    0  0.00000000000E+00  0.00000000000E+00  0.90237070939E+03  0.10976292906E+04  0.62491372401E+03 0.  0.
         13    1    3    3    0    0 -0.27521506146E+03 -0.11984034552E+03  0.29882664164E+03  0.42355920510E+03  0.00000000000E+00 0. -1.
          2    1    3    3  501    0  0.27521506146E+03  0.11984034552E+03  0.60354406775E+03  0.67407008551E+03  0.00000000000E+00 0. -1.
<mgrwt>
<rscale>  0 0.62491372E+03</rscale>
<asrwt>0</asrwt>
<pdfrwt beam="1">0</pdfrwt>
<pdfrwt beam="2">  1        2 0.35501635E+00 0.62491372E+03</pdfrwt>
<totfact> 0.58449346E+00</totfact>
</mgrwt>
</event>
<event>
 5    1  0.2349912E-004  0.6429520E+03  0.7818608E-02  0.9820095E-01
         13   -1    0    0    0    0  0.00000000000E+00  0.00000000000E+00  0.10000000000E+04  0.10000000000E+04  0.00000000000E+00 0. -1.
          2   -1    0    0  501    0 -0.00000000000E+00 -0.00000000000E+00 -0.10334682378E+03  0.10334682378E+03  0.00000000000E+00 0. -1.
    9000006    2    1    2  501    0  0.00000000000E+00  0.00000000000E+00  0.89665317622E+03  0.11033468238E+04  0.64295201619E+03 0.  0.
         13    1    3    3    0    0 -0.98328234656E+02 -0.19675091835E+03  0.85066019802E+03  0.87863652217E+03  0.00000000000E+00 0. -1.
          2    1    3    3  501    0  0.98328234656E+02  0.19675091835E+03  0.45992978201E+02  0.22471030161E+03  0.00000000000E+00 0. -1.
<mgrwt>
<rscale>  0 0.64295202E+03</rscale>
<asrwt>0</asrwt>
<pdfrwt beam="1">0</pdfrwt>
<pdfrwt beam="2">  1        2 0.37580742E+00 0.64295202E+03</pdfrwt>
<totfact> 0.49008292E+00</totfact>
</mgrwt>
</event>
<event>
 5    1  0.2349912E-004  0.5641886E+03  0.7818608E-02  0.9982622E-01
         13   -1    0    0    0    0  0.00000000000E+00  0.00000000000E+00  0.10000000000E+04  0.10000000000E+04  0.00000000000E+00 0. -1.
          2   -1    0    0  501    0 -0.00000000000E+00 -0.00000000000E+00 -0.79577187299E+02  0.79577187299E+02  0.00000000000E+00 0. -1.
    9000006    2    1    2  501    0  0.00000000000E+00  0.00000000000E+00  0.92042281270E+03  0.10795771873E+04  0.56418857592E+03 0.  0.
         13    1    3    3    0    0  0.25708227008E+03  0.11123988447E+03  0.52400838735E+03  0.59418044019E+03  0.00000000000E+00 0. -1.
          4    1    3    3  501    0 -0.25708227008E+03 -0.11123988447E+03  0.39641442535E+03  0.48539674711E+03  0.00000000000E+00 0. -1.
<mgrwt>
<rscale>  0 0.56418858E+03</rscale>
<asrwt>0</asrwt>
<pdfrwt beam="1">0</pdfrwt>
<pdfrwt beam="2">  1        2 0.28937220E+00 0.56418858E+03</pdfrwt>
<totfact> 0.10076949E+01</totfact>
</mgrwt>
</event>
<event>
 5    1  0.2349912E-004  0.6272911E+03  0.7818608E-02  0.9850349E-01
         13   -1    0    0    0    0  0.00000000000E+00  0.00000000000E+00  0.10000000000E+04  0.10000000000E+04  0.00000000000E+00 0. -1.
          4   -1    0    0  501    0 -0.00000000000E+00 -0.00000000000E+00 -0.98373534001E+02  0.98373534001E+02  0.00000000000E+00 0. -1.
    9000006    2    1    2  501    0  0.00000000000E+00  0.00000000000E+00  0.90162646600E+03  0.10983735340E+04  0.62729110946E+03 0.  0.
         13    1    3    3    0    0 -0.19153253052E+03 -0.90255283039E+02  0.85597783720E+03  0.88177592627E+03  0.00000000000E+00 0. -1.
          4    1    3    3  501    0  0.19153253052E+03  0.90255283039E+02  0.45648628796E+02  0.21659760773E+03  0.00000000000E+00 0. -1.
<mgrwt>
<rscale>  0 0.62729111E+03</rscale>
<asrwt>0</asrwt>
<pdfrwt beam="1">0</pdfrwt>
<pdfrwt beam="2">  1        4 0.35772270E+00 0.62729111E+03</pdfrwt>
<totfact> 0.61610461E-02</totfact>
</mgrwt>
</event>
<event>
 5    1  0.2349912E-004  0.6626872E+03  0.7818608E-02  0.9783259E-01
         13   -1    0    0    0    0  0.00000000000E+00  0.00000000000E+00  0.10000000000E+04  0.10000000000E+04  0.00000000000E+00 0. -1.
          2   -1    0    0  501    0 -0.00000000000E+00 -0.00000000000E+00 -0.10978859037E+03  0.10978859037E+03  0.00000000000E+00 0. -1.
    9000006    2    1    2  501    0  0.00000000000E+00  0.00000000000E+00  0.89021140963E+03  0.11097885904E+04  0.66268722749E+03 0.  0.
         13    1    3    3    0    0 -0.49512349193E+02 -0.31934790723E+03  0.56764408308E+03  0.65318784712E+03  0.00000000000E+00 0. -1.
          2    1    3    3  501    0  0.49512349193E+02  0.31934790723E+03  0.32256732655E+03  0.45660074325E+03  0.00000000000E+00 0. -1.
<mgrwt>
<rscale>  0 0.66268723E+03</rscale>
<asrwt>0</asrwt>
<pdfrwt beam="1">0</pdfrwt>
<pdfrwt beam="2">  1        2 0.39923208E+00 0.66268723E+03</pdfrwt>
<totfact> 0.40053303E+00</totfact>
</mgrwt>
</event>
<event>
 5    1  0.2349912E-004  0.6340704E+03  0.7818608E-02  0.9837138E-01
         13   -1    0    0    0    0  0.00000000000E+00  0.00000000000E+00  0.10000000000E+04  0.10000000000E+04  0.00000000000E+00 0. -1.
          2   -1    0    0  501    0 -0.00000000000E+00 -0.00000000000E+00 -0.10051130667E+03  0.10051130667E+03  0.00000000000E+00 0. -1.
    9000006    2    1    2  501    0  0.00000000000E+00  0.00000000000E+00  0.89948869333E+03  0.11005113067E+04  0.63407036413E+03 0.  0.
         13    1    3    3    0    0  0.11390664711E+03  0.73178823816E+02 -0.47813904663E+02  0.14358284713E+03  0.00000000000E+00 0. -1.
          2    1    3    3  501    0 -0.11390664711E+03 -0.73178823816E+02  0.94730259800E+03  0.95692845954E+03  0.00000000000E+00 0. -1.
<mgrwt>
<rscale>  0 0.63407036E+03</rscale>
<asrwt>0</asrwt>
<pdfrwt beam="1">0</pdfrwt>
<pdfrwt beam="2">  1        2 0.36549643E+00 0.63407036E+03</pdfrwt>
<totfact> 0.53499305E+00</totfact>
</mgrwt>
</event>
<event>
 5    1  0.2349912E-004  0.6608632E+03  0.7818608E-02  0.9786606E-01
         13   -1    0    0    0    0  0.00000000000E+00  0.00000000000E+00  0.10000000000E+04  0.10000000000E+04  0.00000000000E+00 0. -1.
          2   -1    0    0  501    0 -0.00000000000E+00 -0.00000000000E+00 -0.10918503680E+03  0.10918503680E+03  0.00000000000E+00 0. -1.
    9000006    2    1    2  501    0  0.00000000000E+00  0.00000000000E+00  0.89081496320E+03  0.11091850368E+04  0.66086318341E+03 0.  0.
         13    1    3    3    0    0 -0.14654298786E+03  0.16571310554E+03  0.33434580992E+02  0.22372651127E+03  0.00000000000E+00 0. -1.
          4    1    3    3  501    0  0.14654298786E+03 -0.16571310554E+03  0.85738038221E+03  0.88545852553E+03  0.00000000000E+00 0. -1.
<mgrwt>
<rscale>  0 0.66086318E+03</rscale>
<asrwt>0</asrwt>
<pdfrwt beam="1">0</pdfrwt>
<pdfrwt beam="2">  1        2 0.39703733E+00 0.66086318E+03</pdfrwt>
<totfact> 0.40824528E+00</totfact>
</mgrwt>
</event>
<event>
 5    1  0.2349912E-004  0.6474111E+03  0.7818608E-02  0.9811649E-01
         13   -1    0    0    0    0  0.00000000000E+00  0.00000000000E+00  0.10000000000E+04  0.10000000000E+04  0.00000000000E+00 0. -1.
          2   -1    0    0  501    0 -0.00000000000E+00 -0.00000000000E+00 -0.10478527401E+03  0.10478527401E+03  0.00000000000E+00 0. -1.
    9000006    2    1    2  501    0  0.00000000000E+00  0.00000000000E+00  0.89521472599E+03  0.11047852740E+04  0.64741107191E+03 0.  0.
         13    1    3    3    0    0 -0.21072210154E+03  0.50399567605E+02  0.85801645935E+03  0.88494980932E+03  0.00000000000E+00 0. -1.
          4    1    3    3  501    0  0.21072210154E+03 -0.50399567605E+02  0.37198266638E+02  0.21983546469E+03  0.00000000000E+00 0. -1.
<mgrwt>
<rscale>  0 0.64741107E+03</rscale>
<asrwt>0</asrwt>
<pdfrwt beam="1">0</pdfrwt>
<pdfrwt beam="2">  1        2 0.38103816E+00 0.64741107E+03</pdfrwt>
<totfact> 0.46864472E+00</totfact>
</mgrwt>
</event>
<event>
 5    1  0.2349912E-004  0.5340353E+03  0.7818608E-02  0.1005258E+00
         13   -1    0    0    0    0  0.00000000000E+00  0.00000000000E+00  0.10000000000E+04  0.10000000000E+04  0.00000000000E+00 0. -1.
          2   -1    0    0  501    0 -0.00000000000E+00 -0.00000000000E+00 -0.71298416490E+02  0.71298416490E+02  0.00000000000E+00 0. -1.
    9000006    2    1    2  501    0  0.00000000000E+00  0.00000000000E+00  0.92870158351E+03  0.10712984165E+04  0.53403526659E+03 0.  0.
         13    1    3    3    0    0 -0.65319564382E+02  0.21434498089E+03  0.75566269005E+03  0.78818558567E+03  0.00000000000E+00 0. -1.
          2    1    3    3  501    0  0.65319564382E+02 -0.21434498089E+03  0.17303889347E+03  0.28311283082E+03  0.00000000000E+00 0. -1.
<mgrwt>
<rscale>  0 0.53403527E+03</rscale>
<asrwt>0</asrwt>
<pdfrwt beam="1">0</pdfrwt>
<pdfrwt beam="2">  1        2 0.25926752E+00 0.53403527E+03</pdfrwt>
<totfact> 0.12911523E+01</totfact>
</mgrwt>
</event>
<event>
 5    1  0.2349912E-004  0.6458032E+03  0.7818608E-02  0.9814686E-01
         13   -1    0    0    0    0  0.00000000000E+00  0.00000000000E+00  0.10000000000E+04  0.10000000000E+04  0.00000000000E+00 0. -1.
          2   -1    0    0  501    0 -0.00000000000E+00 -0.00000000000E+00 -0.10426542738E+03  0.10426542738E+03  0.00000000000E+00 0. -1.
    9000006    2    1    2  501    0  0.00000000000E+00  0.00000000000E+00  0.89573457262E+03  0.11042654274E+04  0.64580315076E+03 0.  0.
         13    1    3    3    0    0  0.30213726816E+03  0.66580013309E+01  0.64233279830E+03  0.70987511688E+03  0.00000000000E+00 0. -1.
          2    1    3    3  501    0 -0.30213726816E+03 -0.66580013309E+01  0.25340177431E+03  0.39439031050E+03  0.00000000000E+00 0. -1.
<mgrwt>
<rscale>  0 0.64580315E+03</rscale>
<asrwt>0</asrwt>
<pdfrwt beam="1">0</pdfrwt>
<pdfrwt beam="2">  1        2 0.37914781E+00 0.64580315E+03</pdfrwt>
<totfact> 0.47629172E+00</totfact>
</mgrwt>
</event>
<event>
 5    1  0.2349912E-004  0.6478230E+03  0.7818608E-02  0.9810873E-01
         13   -1    0    0    0    0  0.00000000000E+00  0.00000000000E+00  0.10000000000E+04  0.10000000000E+04  0.00000000000E+00 0. -1.
          2   -1    0    0  501    0 -0.00000000000E+00 -0.00000000000E+00 -0.10491864608E+03  0.10491864608E+03  0.00000000000E+00 0. -1.
    9000006    2    1    2  501    0  0.00000000000E+00  0.00000000000E+00  0.89508135392E+03  0.11049186461E+04  0.64782295755E+03 0.  0.
         13    1    3    3    0    0  0.14163962080E+03 -0.10260271928E+03 -0.17461202129E+02  0.17576687334E+03  0.00000000000E+00 0. -1.
          4    1    3    3  501    0 -0.14163962080E+03  0.10260271928E+03  0.91254255605E+03  0.92915177274E+03  0.00000000000E+00 0. -1.
<mgrwt>
<rscale>  0 0.64782296E+03</rscale>
<asrwt>0</asrwt>
<pdfrwt beam="1">0</pdfrwt>
<pdfrwt beam="2">  1        2 0.38152315E+00 0.64782296E+03</pdfrwt>
<totfact> 0.46670089E+00</totfact>
</mgrwt>
</event>
<event>
 5    1  0.2349912E-004  0.7326674E+03  0.7818608E-02  0.9662942E-01
         13   -1    0    0    0    0  0.00000000000E+00  0.00000000000E+00  0.10000000000E+04  0.10000000000E+04  0.00000000000E+00 0. -1.
          2   -1    0    0  501    0 -0.00000000000E+00 -0.00000000000E+00 -0.13420037615E+03  0.13420037615E+03  0.00000000000E+00 0. -1.
    9000006    2    1    2  501    0  0.00000000000E+00  0.00000000000E+00  0.86579962385E+03  0.11342003761E+04  0.73266739016E+03 0.  0.
         13    1    3    3    0    0 -0.34818410694E+03 -0.10434979823E+03  0.50348993654E+03  0.62098564308E+03  0.00000000000E+00 0. -1.
          2    1    3    3  501    0  0.34818410694E+03  0.10434979823E+03  0.36230968731E+03  0.51321473307E+03  0.00000000000E+00 0. -1.
<mgrwt>
<rscale>  0 0.73266739E+03</rscale>
<asrwt>0</asrwt>
<pdfrwt beam="1">0</pdfrwt>
<pdfrwt beam="2">  1        2 0.48800240E+00 0.73266739E+03</pdfrwt>
<totfact> 0.17836374E+00</totfact>
</mgrwt>
</event>
<event>
 5    1  0.2349912E-004  0.6488498E+03  0.7818608E-02  0.9808940E-01
         13   -1    0    0    0    0  0.00000000000E+00  0.00000000000E+00  0.10000000000E+04  0.10000000000E+04  0.00000000000E+00 0. -1.
          2   -1    0    0  501    0 -0.00000000000E+00 -0.00000000000E+00 -0.10525151535E+03  0.10525151535E+03  0.00000000000E+00 0. -1.
    9000006    2    1    2  501    0  0.00000000000E+00  0.00000000000E+00  0.89474848465E+03  0.11052515154E+04  0.64884979880E+03 0.  0.
         13    1    3    3    0    0  0.16826325676E+03  0.25650060229E+03  0.62721366335E+03  0.69821347885E+03  0.00000000000E+00 0. -1.
          2    1    3    3  501    0 -0.16826325676E+03 -0.25650060229E+03  0.26753482130E+03  0.40703803650E+03  0.00000000000E+00 0. -1.
<mgrwt>
<rscale>  0 0.64884980E+03</rscale>
<asrwt>0</asrwt>
<pdfrwt beam="1">0</pdfrwt>
<pdfrwt beam="2">  1        2 0.38273359E+00 0.64884980E+03</pdfrwt>
<totfact> 0.46188141E+00</totfact>
</mgrwt>
</event>
<event>
 5    1  0.2349912E-004  0.6604781E+03  0.7818608E-02  0.9787314E-01
         13   -1    0    0    0    0  0.00000000000E+00  0.00000000000E+00  0.10000000000E+04  0.10000000000E+04  0.00000000000E+00 0. -1.
          2   -1    0    0  501    0 -0.00000000000E+00 -0.00000000000E+00 -0.10905782080E+03  0.10905782080E+03  0.00000000000E+00 0. -1.
    9000006    2    1    2  501    0  0.00000000000E+00  0.00000000000E+00  0.89094217920E+03  0.11090578208E+04  0.66047807169E+03 0.  0.
         13    1    3    3    0    0  0.35628551402E+02 -0.16385579689E+03 -0.32252397600E+02  0.17075811255E+03  0.00000000000E+00 0. -1.
          2    1    3    3  501    0 -0.35628551402E+02  0.16385579689E+03  0.92319457680E+03  0.93829970824E+03  0.00000000000E+00 0. -1.
<mgrwt>
<rscale>  0 0.66047807E+03</rscale>
<asrwt>0</asrwt>
<pdfrwt beam="1">0</pdfrwt>
<pdfrwt beam="2">  1        2 0.39657473E+00 0.66047807E+03</pdfrwt>
<totfact> 0.40988779E+00</totfact>
</mgrwt>
</event>
<event>
 5    1  0.2349912E-004  0.6608419E+03  0.7818608E-02  0.9786645E-01
         13   -1    0    0    0    0  0.00000000000E+00  0.00000000000E+00  0.10000000000E+04  0.10000000000E+04  0.00000000000E+00 0. -1.
          2   -1    0    0  501    0 -0.00000000000E+00 -0.00000000000E+00 -0.10917801068E+03  0.10917801068E+03  0.00000000000E+00 0. -1.
    9000006    2    1    2  501    0  0.00000000000E+00  0.00000000000E+00  0.89082198932E+03  0.11091780107E+04  0.66084191960E+03 0.  0.
         13    1    3    3    0    0  0.26584193608E+03 -0.69714733759E+02  0.75328281952E+03  0.80185228394E+03  0.00000000000E+00 0. -1.
          2    1    3    3  501    0 -0.26584193608E+03  0.69714733759E+02  0.13753916980E+03  0.30732572673E+03  0.00000000000E+00 0. -1.
<mgrwt>
<rscale>  0 0.66084192E+03</rscale>
<asrwt>0</asrwt>
<pdfrwt beam="1">0</pdfrwt>
<pdfrwt beam="2">  1        2 0.39701179E+00 0.66084192E+03</pdfrwt>
<totfact> 0.40833584E+00</totfact>
</mgrwt>
</event>
<event>
 5    1  0.2349912E-004  0.6554425E+03  0.7818608E-02  0.9796620E-01
         13   -1    0    0    0    0  0.00000000000E+00  0.00000000000E+00  0.10000000000E+04  0.10000000000E+04  0.00000000000E+00 0. -1.
          2   -1    0    0  501    0 -0.00000000000E+00 -0.00000000000E+00 -0.10740120816E+03  0.10740120816E+03  0.00000000000E+00 0. -1.
    9000006    2    1    2  501    0  0.00000000000E+00  0.00000000000E+00  0.89259879184E+03  0.11074012082E+04  0.65544247089E+03 0.  0.
         13    1    3    3    0    0  0.20416088449E+03 -0.25239908164E+03  0.52212686488E+03  0.61481983231E+03  0.00000000000E+00 0. -1.
          2    1    3    3  501    0 -0.20416088449E+03  0.25239908164E+03  0.37047192696E+03  0.49258137585E+03  0.00000000000E+00 0. -1.
<mgrwt>
<rscale>  0 0.65544247E+03</rscale>
<asrwt>0</asrwt>
<pdfrwt beam="1">0</pdfrwt>
<pdfrwt beam="2">  1        2 0.39055067E+00 0.65544247E+03</pdfrwt>
<totfact> 0.43182829E+00</totfact>
</mgrwt>
</event>
<event>
 5    1  0.2349912E-004  0.5967348E+03  0.7818608E-02  0.9912204E-01
         13   -1    0    0    0    0  0.00000000000E+00  0.00000000000E+00  0.10000000000E+04  0.10000000000E+04  0.00000000000E+00 0. -1.
          2   -1    0    0  501    0 -0.00000000000E+00 -0.00000000000E+00 -0.89023102565E+02  0.89023102565E+02  0.00000000000E+00 0. -1.
    9000006    2    1    2  501    0  0.00000000000E+00  0.00000000000E+00  0.91097689743E+03  0.10890231026E+04  0.59673479056E+03 0.  0.
         13    1    3    3    0    0  0.23364259613E+02  0.11278543146E+02 -0.86960699949E+02  0.90748319535E+02  0.00000000000E+00 0. -1.
          4    1    3    3  501    0 -0.23364259613E+02 -0.11278543146E+02  0.99793759738E+03  0.99827478303E+03  0.00000000000E+00 0. -1.
<mgrwt>
<rscale>  0 0.59673479E+03</rscale>
<asrwt>0</asrwt>
<pdfrwt beam="1">0</pdfrwt>
<pdfrwt beam="2">  1        2 0.32372106E+00 0.59673479E+03</pdfrwt>
<totfact> 0.75896249E+00</totfact>
</mgrwt>
</event>
<event>
 5    1  0.2349912E-004  0.6249571E+03  0.7818608E-02  0.9854939E-01
         13   -1    0    0    0    0  0.00000000000E+00  0.00000000000E+00  0.10000000000E+04  0.10000000000E+04  0.00000000000E+00 0. -1.
          2   -1    0    0  501    0 -0.00000000000E+00 -0.00000000000E+00 -0.97642844891E+02  0.97642844891E+02  0.00000000000E+00 0. -1.
    9000006    2    1    2  501    0  0.00000000000E+00  0.00000000000E+00  0.90235715511E+03  0.10976428449E+04  0.62495710218E+03 0.  0.
         13    1    3    3    0    0  0.18569041581E+03  0.24247674432E+03  0.56724312868E+03  0.64423650090E+03  0.00000000000E+00 0. -1.
          2    1    3    3  501    0 -0.18569041581E+03 -0.24247674432E+03  0.33511402643E+03  0.45340634399E+03  0.00000000000E+00 0. -1.
<mgrwt>
<rscale>  0 0.62495710E+03</rscale>
<asrwt>0</asrwt>
<pdfrwt beam="1">0</pdfrwt>
<pdfrwt beam="2">  1        2 0.35506564E+00 0.62495710E+03</pdfrwt>
<totfact> 0.58425104E+00</totfact>
</mgrwt>
</event>
<event>
 5    1  0.2349912E-004  0.6534473E+03  0.7818608E-02  0.9800332E-01
         13   -1    0    0    0    0  0.00000000000E+00  0.00000000000E+00  0.10000000000E+04  0.10000000000E+04  0.00000000000E+00 0. -1.
          2   -1    0    0  501    0 -0.00000000000E+00 -0.00000000000E+00 -0.10674835820E+03  0.10674835820E+03  0.00000000000E+00 0. -1.
    9000006    2    1    2  501    0  0.00000000000E+00  0.00000000000E+00  0.89325164180E+03  0.11067483582E+04  0.65344734508E+03 0.  0.
         13    1    3    3    0    0  0.18138770196E+02 -0.32416870410E+03  0.50848658883E+03  0.60330172776E+03  0.00000000000E+00 0. -1.
          4    1    3    3  501    0 -0.18138770196E+02  0.32416870410E+03  0.38476505298E+03  0.50344663044E+03  0.00000000000E+00 0. -1.
<mgrwt>
<rscale>  0 0.65344735E+03</rscale>
<asrwt>0</asrwt>
<pdfrwt beam="1">0</pdfrwt>
<pdfrwt beam="2">  1        2 0.38817667E+00 0.65344735E+03</pdfrwt>
<totfact> 0.44076239E+00</totfact>
</mgrwt>
</event>
<event>
 5    1  0.2349912E-004  0.6532671E+03  0.7818608E-02  0.9800668E-01
         13   -1    0    0    0    0  0.00000000000E+00  0.00000000000E+00  0.10000000000E+04  0.10000000000E+04  0.00000000000E+00 0. -1.
          2   -1    0    0  501    0 -0.00000000000E+00 -0.00000000000E+00 -0.10668948947E+03  0.10668948947E+03  0.00000000000E+00 0. -1.
    9000006    2    1    2  501    0  0.00000000000E+00  0.00000000000E+00  0.89331051053E+03  0.11066894895E+04  0.65326714129E+03 0.  0.
         13    1    3    3    0    0 -0.30061097180E+01 -0.29948329668E+03  0.22583733445E+03  0.37510236379E+03  0.00000000000E+00 0. -1.
          2    1    3    3  501    0  0.30061097180E+01  0.29948329668E+03  0.66747317607E+03  0.73158712568E+03  0.00000000000E+00 0. -1.
<mgrwt>
<rscale>  0 0.65326714E+03</rscale>
<asrwt>0</asrwt>
<pdfrwt beam="1">0</pdfrwt>
<pdfrwt beam="2">  1        2 0.38796260E+00 0.65326714E+03</pdfrwt>
<totfact> 0.44157616E+00</totfact>
</mgrwt>
</event>
<event>
 5    1  0.2349912E-004  0.6620898E+03  0.7818608E-02  0.9784354E-01
         13   -1    0    0    0    0  0.00000000000E+00  0.00000000000E+00  0.10000000000E+04  0.10000000000E+04  0.00000000000E+00 0. -1.
          2   -1    0    0  501    0 -0.00000000000E+00 -0.00000000000E+00 -0.10959072168E+03  0.10959072168E+03  0.00000000000E+00 0. -1.
    9000006    2    1    2  501    0  0.00000000000E+00  0.00000000000E+00  0.89040927832E+03  0.11095907217E+04  0.66208978750E+03 0.  0.
         13    1    3    3    0    0 -0.28684902951E+03  0.59477090116E+02  0.70359012584E+03  0.76214103364E+03  0.00000000000E+00 0. -1.
          4    1    3    3  501    0  0.28684902951E+03 -0.59477090116E+02  0.18681915248E+03  0.34744968803E+03  0.00000000000E+00 0. -1.
<mgrwt>
<rscale>  0 0.66208979E+03</rscale>
<asrwt>0</asrwt>
<pdfrwt beam="1">0</pdfrwt>
<pdfrwt beam="2">  1        2 0.39851256E+00 0.66208979E+03</pdfrwt>
<totfact> 0.40304686E+00</totfact>
</mgrwt>
</event>
<event>
 5    1  0.2349912E-004  0.6322847E+03  0.7818608E-02  0.9840600E-01
         13   -1    0    0    0    0  0.00000000000E+00  0.00000000000E+00  0.10000000000E+04  0.10000000000E+04  0.00000000000E+00 0. -1.
          2   -1    0    0  501    0 -0.00000000000E+00 -0.00000000000E+00 -0.99945994926E+02  0.99945994926E+02  0.00000000000E+00 0. -1.
    9000006    2    1    2  501    0  0.00000000000E+00  0.00000000000E+00  0.90005400507E+03  0.10999459949E+04  0.63228472993E+03 0.  0.
         13    1    3    3    0    0  0.40088405196E+02  0.13269891017E+03 -0.44256270711E+02  0.14551528610E+03  0.00000000000E+00 0. -1.
          2    1    3    3  501    0 -0.40088405196E+02 -0.13269891017E+03  0.94431027579E+03  0.95443070882E+03  0.00000000000E+00 0. -1.
<mgrwt>
<rscale>  0 0.63228473E+03</rscale>
<asrwt>0</asrwt>
<pdfrwt beam="1">0</pdfrwt>
<pdfrwt beam="2">  1        2 0.36344075E+00 0.63228473E+03</pdfrwt>
<totfact> 0.54438621E+00</totfact>
</mgrwt>
</event>
<event>
 5    1  0.2349912E-004  0.6476957E+03  0.7818608E-02  0.9811113E-01
         13   -1    0    0    0    0  0.00000000000E+00  0.00000000000E+00  0.10000000000E+04  0.10000000000E+04  0.00000000000E+00 0. -1.
          2   -1    0    0  501    0 -0.00000000000E+00 -0.00000000000E+00 -0.10487741569E+03  0.10487741569E+03  0.00000000000E+00 0. -1.
    9000006    2    1    2  501    0  0.00000000000E+00  0.00000000000E+00  0.89512258431E+03  0.11048774157E+04  0.64769565598E+03 0.  0.
         13    1    3    3    0    0 -0.24047901520E+03  0.98703682743E+02  0.11808382831E+03  0.28551070777E+03  0.00000000000E+00 0. -1.
          2    1    3    3  501    0  0.24047901520E+03 -0.98703682743E+02  0.77703875599E+03  0.81936670793E+03  0.00000000000E+00 0. -1.
<mgrwt>
<rscale>  0 0.64769566E+03</rscale>
<asrwt>0</asrwt>
<pdfrwt beam="1">0</pdfrwt>
<pdfrwt beam="2">  1        2 0.38137322E+00 0.64769566E+03</pdfrwt>
<totfact> 0.46730102E+00</totfact>
</mgrwt>
</event>
<event>
 5    1  0.2349912E-004  0.6417921E+03  0.7818608E-02  0.9822304E-01
         13   -1    0    0    0    0  0.00000000000E+00  0.00000000000E+00  0.10000000000E+04  0.10000000000E+04  0.00000000000E+00 0. -1.
          2   -1    0    0  501    0 -0.00000000000E+00 -0.00000000000E+00 -0.10297426729E+03  0.10297426729E+03  0.00000000000E+00 0. -1.
    9000006    2    1    2  501    0  0.00000000000E+00  0.00000000000E+00  0.89702573271E+03  0.11029742673E+04  0.64179207626E+03 0.  0.
         13    1    3    3    0    0  0.88008879620E+02  0.16727279272E+03  0.28439078493E+01  0.18903395961E+03  0.00000000000E+00 0. -1.
          2    1    3    3  501    0 -0.88008879620E+02 -0.16727279272E+03  0.89418182486E+03  0.91394030767E+03  0.00000000000E+00 0. -1.
<mgrwt>
<rscale>  0 0.64179208E+03</rscale>
<asrwt>0</asrwt>
<pdfrwt beam="1">0</pdfrwt>
<pdfrwt beam="2">  1        2 0.37445267E+00 0.64179208E+03</pdfrwt>
<totfact> 0.49577971E+00</totfact>
</mgrwt>
</event>
<event>
 5    1  0.2349912E-004  0.6524261E+03  0.7818608E-02  0.9802237E-01
         13   -1    0    0    0    0  0.00000000000E+00  0.00000000000E+00  0.10000000000E+04  0.10000000000E+04  0.00000000000E+00 0. -1.
          2   -1    0    0  501    0 -0.00000000000E+00 -0.00000000000E+00 -0.10641494159E+03  0.10641494159E+03  0.00000000000E+00 0. -1.
    9000006    2    1    2  501    0  0.00000000000E+00  0.00000000000E+00  0.89358505841E+03  0.11064149416E+04  0.65242606200E+03 0.  0.
         13    1    3    3    0    0  0.24226363933E+03 -0.14801298573E+02  0.81641017764E+03  0.85172550011E+03  0.00000000000E+00 0. -1.
          2    1    3    3  501    0 -0.24226363933E+03  0.14801298573E+02  0.77174880761E+02  0.25468944148E+03  0.00000000000E+00 0. -1.
<mgrwt>
<rscale>  0 0.65242606E+03</rscale>
<asrwt>0</asrwt>
<pdfrwt beam="1">0</pdfrwt>
<pdfrwt beam="2">  1        2 0.38696424E+00 0.65242606E+03</pdfrwt>
<totfact> 0.44538933E+00</totfact>
</mgrwt>
</event>
<event>
 5    1  0.2349912E-004  0.6522593E+03  0.7818608E-02  0.9802549E-01
         13   -1    0    0    0    0  0.00000000000E+00  0.00000000000E+00  0.10000000000E+04  0.10000000000E+04  0.00000000000E+00 0. -1.
          2   -1    0    0  501    0 -0.00000000000E+00 -0.00000000000E+00 -0.10636053987E+03  0.10636053987E+03  0.00000000000E+00 0. -1.
    9000006    2    1    2  501    0  0.00000000000E+00  0.00000000000E+00  0.89363946013E+03  0.11063605399E+04  0.65225927319E+03 0.  0.
         13    1    3    3    0    0  0.10071233589E+03 -0.22353003769E+03  0.82031224127E+02  0.25853002549E+03  0.00000000000E+00 0. -1.
          2    1    3    3  501    0 -0.10071233589E+03  0.22353003769E+03  0.81160823601E+03  0.84783051437E+03  0.00000000000E+00 0. -1.
<mgrwt>
<rscale>  0 0.65225927E+03</rscale>
<asrwt>0</asrwt>
<pdfrwt beam="1">0</pdfrwt>
<pdfrwt beam="2">  1        2 0.38676642E+00 0.65225927E+03</pdfrwt>
<totfact> 0.44614844E+00</totfact>
</mgrwt>
</event>
<event>
 5    1  0.2349912E-004  0.6836388E+03  0.7818608E-02  0.9745628E-01
         13   -1    0    0    0    0  0.00000000000E+00  0.00000000000E+00  0.10000000000E+04  0.10000000000E+04  0.00000000000E+00 0. -1.
          2   -1    0    0  501    0 -0.00000000000E+00 -0.00000000000E+00 -0.11684051524E+03  0.11684051524E+03  0.00000000000E+00 0. -1.
    9000006    2    1    2  501    0  0.00000000000E+00  0.00000000000E+00  0.88315948476E+03  0.11168405152E+04  0.68363883811E+03 0.  0.
         13    1    3    3    0    0  0.28748991896E+03 -0.11225147447E+03  0.20153764262E+03  0.36860313132E+03  0.00000000000E+00 0. -1.
          2    1    3    3  501    0 -0.28748991896E+03  0.11225147447E+03  0.68162184214E+03  0.74823738393E+03  0.00000000000E+00 0. -1.
<mgrwt>
<rscale>  0 0.68363884E+03</rscale>
<asrwt>0</asrwt>
<pdfrwt beam="1">0</pdfrwt>
<pdfrwt beam="2">  1        2 0.42487550E+00 0.68363884E+03</pdfrwt>
<totfact> 0.31959835E+00</totfact>
</mgrwt>
</event>
<event>
 5    1  0.2349912E-004  0.6435051E+03  0.7818608E-02  0.9819043E-01
         13   -1    0    0    0    0  0.00000000000E+00  0.00000000000E+00  0.10000000000E+04  0.10000000000E+04  0.00000000000E+00 0. -1.
          2   -1    0    0  501    0 -0.00000000000E+00 -0.00000000000E+00 -0.10352469143E+03  0.10352469143E+03  0.00000000000E+00 0. -1.
    9000006    2    1    2  501    0  0.00000000000E+00  0.00000000000E+00  0.89647530857E+03  0.11035246914E+04  0.64350506269E+03 0.  0.
         13    1    3    3    0    0  0.36016129177E+02  0.31948458571E+03  0.42674159976E+03  0.53429949938E+03  0.00000000000E+00 0. -1.
          2    1    3    3  501    0 -0.36016129177E+02 -0.31948458571E+03  0.46973370881E+03  0.56922519205E+03  0.00000000000E+00 0. -1.
<mgrwt>
<rscale>  0 0.64350506E+03</rscale>
<asrwt>0</asrwt>
<pdfrwt beam="1">0</pdfrwt>
<pdfrwt beam="2">  1        2 0.37645422E+00 0.64350506E+03</pdfrwt>
<totfact> 0.48738446E+00</totfact>
</mgrwt>
</event>
<event>
 5    1  0.2349912E-004  0.6223586E+03  0.7818608E-02  0.9860075E-01
         13   -1    0    0    0    0  0.00000000000E+00  0.00000000000E+00  0.10000000000E+04  0.10000000000E+04  0.00000000000E+00 0. -1.
          2   -1    0    0  501    0 -0.00000000000E+00 -0.00000000000E+00 -0.96832565514E+02  0.96832565514E+02  0.00000000000E+00 0. -1.
    9000006    2    1    2  501    0  0.00000000000E+00  0.00000000000E+00  0.90316743449E+03  0.10968325655E+04  0.62235862817E+03 0.  0.
         13    1    3    3    0    0  0.14522112291E+03 -0.23669594280E+03  0.69906120347E+03  0.75219725476E+03  0.00000000000E+00 0. -1.
          2    1    3    3  501    0 -0.14522112291E+03  0.23669594280E+03  0.20410623101E+03  0.34463531075E+03  0.00000000000E+00 0. -1.
<mgrwt>
<rscale>  0 0.62235863E+03</rscale>
<asrwt>0</asrwt>
<pdfrwt beam="1">0</pdfrwt>
<pdfrwt beam="2">  1        2 0.35211916E+00 0.62235863E+03</pdfrwt>
<totfact> 0.59890821E+00</totfact>
</mgrwt>
</event>
<event>
 5    1  0.2349912E-004  0.6444224E+03  0.7818608E-02  0.9817302E-01
         13   -1    0    0    0    0  0.00000000000E+00  0.00000000000E+00  0.10000000000E+04  0.10000000000E+04  0.00000000000E+00 0. -1.
          2   -1    0    0  501    0 -0.00000000000E+00 -0.00000000000E+00 -0.10382006182E+03  0.10382006182E+03  0.00000000000E+00 0. -1.
    9000006    2    1    2  501    0  0.00000000000E+00  0.00000000000E+00  0.89617993818E+03  0.11038200618E+04  0.64442241369E+03 0.  0.
         13    1    3    3    0    0  0.10236537521E+03 -0.12755889805E+03 -0.27432082495E+02  0.16583866154E+03  0.00000000000E+00 0. -1.
          2    1    3    3  501    0 -0.10236537521E+03  0.12755889805E+03  0.92361202068E+03  0.93798140027E+03  0.00000000000E+00 0. -1.
<mgrwt>
<rscale>  0 0.64442241E+03</rscale>
<asrwt>0</asrwt>
<pdfrwt beam="1">0</pdfrwt>
<pdfrwt beam="2">  1        2 0.37752829E+00 0.64442241E+03</pdfrwt>
<totfact> 0.48293327E+00</totfact>
</mgrwt>
</event>
<event>
 5    1  0.2349912E-004  0.6335068E+03  0.7818608E-02  0.9838229E-01
         13   -1    0    0    0    0  0.00000000000E+00  0.00000000000E+00  0.10000000000E+04  0.10000000000E+04  0.00000000000E+00 0. -1.
          2   -1    0    0  501    0 -0.00000000000E+00 -0.00000000000E+00 -0.10033272077E+03  0.10033272077E+03  0.00000000000E+00 0. -1.
    9000006    2    1    2  501    0  0.00000000000E+00  0.00000000000E+00  0.89966727923E+03  0.11003327208E+04  0.63350681375E+03 0.  0.
         13    1    3    3    0    0 -0.24017505562E+03 -0.16750260517E+03  0.65964225260E+03  0.72171260311E+03  0.00000000000E+00 0. -1.
          2    1    3    3  501    0  0.24017505562E+03  0.16750260517E+03  0.24002502664E+03  0.37862011766E+03  0.00000000000E+00 0. -1.
<mgrwt>
<rscale>  0 0.63350681E+03</rscale>
<asrwt>0</asrwt>
<pdfrwt beam="1">0</pdfrwt>
<pdfrwt beam="2">  1        2 0.36484703E+00 0.63350681E+03</pdfrwt>
<totfact> 0.53794417E+00</totfact>
</mgrwt>
</event>
<event>
 5    1  0.2349912E-004  0.6455083E+03  0.7818608E-02  0.9815244E-01
         13   -1    0    0    0    0  0.00000000000E+00  0.00000000000E+00  0.10000000000E+04  0.10000000000E+04  0.00000000000E+00 0. -1.
          2   -1    0    0  501    0 -0.00000000000E+00 -0.00000000000E+00 -0.10417023648E+03  0.10417023648E+03  0.00000000000E+00 0. -1.
    9000006    2    1    2  501    0  0.00000000000E+00  0.00000000000E+00  0.89582976352E+03  0.11041702365E+04  0.64550828495E+03 0.  0.
         13    1    3    3    0    0 -0.22740390865E+03  0.16362774547E+03  0.72204873422E+03  0.77449399697E+03  0.00000000000E+00 0. -1.
          2    1    3    3  501    0  0.22740390865E+03 -0.16362774547E+03  0.17378102929E+03  0.32967623951E+03  0.00000000000E+00 0. -1.
<mgrwt>
<rscale>  0 0.64550828E+03</rscale>
<asrwt>0</asrwt>
<pdfrwt beam="1">0</pdfrwt>
<pdfrwt beam="2">  1        2 0.37880166E+00 0.64550828E+03</pdfrwt>
<totfact> 0.47770423E+00</totfact>
</mgrwt>
</event>
<event>
 5    1  0.2349912E-004  0.6598602E+03  0.7818608E-02  0.9788451E-01
         13   -1    0    0    0    0  0.00000000000E+00  0.00000000000E+00  0.10000000000E+04  0.10000000000E+04  0.00000000000E+00 0. -1.
          2   -1    0    0  501    0 -0.00000000000E+00 -0.00000000000E+00 -0.10885386542E+03  0.10885386542E+03  0.00000000000E+00 0. -1.
    9000006    2    1    2  501    0  0.00000000000E+00  0.00000000000E+00  0.89114613458E+03  0.11088538654E+04  0.65986018343E+03 0.  0.
         13    1    3    3    0    0 -0.14910526464E+03 -0.97624739316E+02  0.91215072364E+03  0.92939868318E+03  0.00000000000E+00 0. -1.
          2    1    3    3  501    0  0.14910526464E+03  0.97624739316E+02 -0.21004589055E+02  0.17945518224E+03  0.00000000000E+00 0. -1.
<mgrwt>
<rscale>  0 0.65986018E+03</rscale>
<asrwt>0</asrwt>
<pdfrwt beam="1">0</pdfrwt>
<pdfrwt beam="2">  1        2 0.39583307E+00 0.65986018E+03</pdfrwt>
<totfact> 0.41253352E+00</totfact>
</mgrwt>
</event>
<event>
 5    1  0.2349912E-004  0.6323273E+03  0.7818608E-02  0.9840518E-01
         13   -1    0    0    0    0  0.00000000000E+00  0.00000000000E+00  0.10000000000E+04  0.10000000000E+04  0.00000000000E+00 0. -1.
          2   -1    0    0  501    0 -0.00000000000E+00 -0.00000000000E+00 -0.99959447355E+02  0.99959447355E+02  0.00000000000E+00 0. -1.
    9000006    2    1    2  501    0  0.00000000000E+00  0.00000000000E+00  0.90004055265E+03  0.10999594474E+04  0.63232728031E+03 0.  0.
         13    1    3    3    0    0  0.26602626152E+03  0.73733722723E+02  0.71811748126E+03  0.76934995326E+03  0.00000000000E+00 0. -1.
          2    1    3    3  501    0 -0.26602626152E+03 -0.73733722723E+02  0.18192307139E+03  0.33060949410E+03  0.00000000000E+00 0. -1.
<mgrwt>
<rscale>  0 0.63232728E+03</rscale>
<asrwt>0</asrwt>
<pdfrwt beam="1">0</pdfrwt>
<pdfrwt beam="2">  1        2 0.36348967E+00 0.63232728E+03</pdfrwt>
<totfact> 0.54416093E+00</totfact>
</mgrwt>
</event>
<event>
 5    1  0.2349912E-004  0.6520473E+03  0.7818608E-02  0.9802945E-01
         13   -1    0    0    0    0  0.00000000000E+00  0.00000000000E+00  0.10000000000E+04  0.10000000000E+04  0.00000000000E+00 0. -1.
          2   -1    0    0  501    0 -0.00000000000E+00 -0.00000000000E+00 -0.10629142845E+03  0.10629142845E+03  0.00000000000E+00 0. -1.
    9000006    2    1    2  501    0  0.00000000000E+00  0.00000000000E+00  0.89370857155E+03  0.11062914285E+04  0.65204732483E+03 0.  0.
         13    1    3    3    0    0 -0.22202385398E+02  0.12579909391E+03 -0.62062412565E+02  0.14202148077E+03  0.00000000000E+00 0. -1.
          2    1    3    3  501    0  0.22202385398E+02 -0.12579909391E+03  0.95577098411E+03  0.96426994769E+03  0.00000000000E+00 0. -1.
<mgrwt>
<rscale>  0 0.65204732E+03</rscale>
<asrwt>0</asrwt>
<pdfrwt beam="1">0</pdfrwt>
<pdfrwt beam="2">  1        2 0.38651510E+00 0.65204732E+03</pdfrwt>
<totfact> 0.44711449E+00</totfact>
</mgrwt>
</event>
<event>
 5    1  0.2349912E-004  0.6679661E+03  0.7818608E-02  0.9773639E-01
         13   -1    0    0    0    0  0.00000000000E+00  0.00000000000E+00  0.10000000000E+04  0.10000000000E+04  0.00000000000E+00 0. -1.
          2   -1    0    0  501    0 -0.00000000000E+00 -0.00000000000E+00 -0.11154466656E+03  0.11154466656E+03  0.00000000000E+00 0. -1.
    9000006    2    1    2  501    0  0.00000000000E+00  0.00000000000E+00  0.88845533344E+03  0.11115446666E+04  0.66796606670E+03 0.  0.
         13    1    3    3    0    0  0.11242186117E+03  0.84935135031E+02 -0.59665276126E+02  0.15301175513E+03  0.00000000000E+00 0. -1.
          2    1    3    3  501    0 -0.11242186117E+03 -0.84935135031E+02  0.94812060956E+03  0.95853291144E+03  0.00000000000E+00 0. -1.
<mgrwt>
<rscale>  0 0.66796607E+03</rscale>
<asrwt>0</asrwt>
<pdfrwt beam="1">0</pdfrwt>
<pdfrwt beam="2">  1        2 0.40561782E+00 0.66796607E+03</pdfrwt>
<totfact> 0.37883183E+00</totfact>
</mgrwt>
</event>
<event>
 5    1  0.2349912E-004  0.6507691E+03  0.7818608E-02  0.9805337E-01
         13   -1    0    0    0    0  0.00000000000E+00  0.00000000000E+00  0.10000000000E+04  0.10000000000E+04  0.00000000000E+00 0. -1.
          2   -1    0    0  501    0 -0.00000000000E+00 -0.00000000000E+00 -0.10587510267E+03  0.10587510267E+03  0.00000000000E+00 0. -1.
    9000006    2    1    2  501    0  0.00000000000E+00  0.00000000000E+00  0.89412489733E+03  0.11058751027E+04  0.65076909166E+03 0.  0.
         13    1    3    3    0    0  0.86315937344E+02  0.15118787420E+03 -0.20075266641E+02  0.17524620017E+03  0.00000000000E+00 0. -1.
          4    1    3    3  501    0 -0.86315937344E+02 -0.15118787420E+03  0.91420016398E+03  0.93062890249E+03  0.00000000000E+00 0. -1.
<mgrwt>
<rscale>  0 0.65076909E+03</rscale>
<asrwt>0</asrwt>
<pdfrwt beam="1">0</pdfrwt>
<pdfrwt beam="2">  1        2 0.38500119E+00 0.65076909E+03</pdfrwt>
<totfact> 0.45297419E+00</totfact>
</mgrwt>
</event>
<event>
 5    1  0.2349912E-004  0.6455481E+03  0.7818608E-02  0.9815169E-01
         13   -1    0    0    0    0  0.00000000000E+00  0.00000000000E+00  0.10000000000E+04  0.10000000000E+04  0.00000000000E+00 0. -1.
          2   -1    0    0  501    0 -0.00000000000E+00 -0.00000000000E+00 -0.10418308806E+03  0.10418308806E+03  0.00000000000E+00 0. -1.
    9000006    2    1    2  501    0  0.00000000000E+00  0.00000000000E+00  0.89581691194E+03  0.11041830881E+04  0.64554810220E+03 0.  0.
         13    1    3    3    0    0 -0.24348030109E+03 -0.14977040232E+03  0.70430185763E+03  0.76010192547E+03  0.00000000000E+00 0. -1.
          2    1    3    3  501    0  0.24348030109E+03  0.14977040232E+03  0.19151505430E+03  0.34408116260E+03  0.00000000000E+00 0. -1.
<mgrwt>
<rscale>  0 0.64554810E+03</rscale>
<asrwt>0</asrwt>
<pdfrwt beam="1">0</pdfrwt>
<pdfrwt beam="2">  1        2 0.37884839E+00 0.64554810E+03</pdfrwt>
<totfact> 0.47751330E+00</totfact>
</mgrwt>
</event>
<event>
 5    1  0.2349912E-004  0.6428502E+03  0.7818608E-02  0.9820289E-01
         13   -1    0    0    0    0  0.00000000000E+00  0.00000000000E+00  0.10000000000E+04  0.10000000000E+04  0.00000000000E+00 0. -1.
          2   -1    0    0  501    0 -0.00000000000E+00 -0.00000000000E+00 -0.10331409543E+03  0.10331409543E+03  0.00000000000E+00 0. -1.
    9000006    2    1    2  501    0  0.00000000000E+00  0.00000000000E+00  0.89668590457E+03  0.11033140954E+04  0.64285020162E+03 0.  0.
         13    1    3    3    0    0 -0.43251397175E+02  0.25304840186E+03  0.11638524033E+03  0.28186823377E+03  0.00000000000E+00 0. -1.
          4    1    3    3  501    0  0.43251397175E+02 -0.25304840186E+03  0.78030066423E+03  0.82144586166E+03  0.00000000000E+00 0. -1.
<mgrwt>
<rscale>  0 0.64285020E+03</rscale>
<asrwt>0</asrwt>
<pdfrwt beam="1">0</pdfrwt>
<pdfrwt beam="2">  1        2 0.37568841E+00 0.64285020E+03</pdfrwt>
<totfact> 0.49058094E+00</totfact>
</mgrwt>
</event>
<event>
 5    1  0.2349912E-004  0.6327827E+03  0.7818608E-02  0.9839634E-01
         13   -1    0    0    0    0  0.00000000000E+00  0.00000000000E+00  0.10000000000E+04  0.10000000000E+04  0.00000000000E+00 0. -1.
          2   -1    0    0  501    0 -0.00000000000E+00 -0.00000000000E+00 -0.10010347199E+03  0.10010347199E+03  0.00000000000E+00 0. -1.
    9000006    2    1    2  501    0  0.00000000000E+00  0.00000000000E+00  0.89989652801E+03  0.11001034720E+04  0.63278265458E+03 0.  0.
         13    1    3    3    0    0 -0.18174487554E+03 -0.25442977690E+03  0.36589027269E+03  0.48129139075E+03  0.00000000000E+00 0. -1.
          2    1    3    3  501    0  0.18174487554E+03  0.25442977690E+03  0.53400625533E+03  0.61881208124E+03  0.00000000000E+00 0. -1.
<mgrwt>
<rscale>  0 0.63278265E+03</rscale>
<asrwt>0</asrwt>
<pdfrwt beam="1">0</pdfrwt>
<pdfrwt beam="2">  1        2 0.36401339E+00 0.63278265E+03</pdfrwt>
<totfact> 0.54175445E+00</totfact>
</mgrwt>
</event>
<event>
 5    1  0.2349912E-004  0.6383137E+03  0.7818608E-02  0.9828958E-01
         13   -1    0    0    0    0  0.00000000000E+00  0.00000000000E+00  0.10000000000E+04  0.10000000000E+04  0.00000000000E+00 0. -1.
          2   -1    0    0  501    0 -0.00000000000E+00 -0.00000000000E+00 -0.10186111007E+03  0.10186111007E+03  0.00000000000E+00 0. -1.
    9000006    2    1    2  501    0  0.00000000000E+00  0.00000000000E+00  0.89813888993E+03  0.11018611101E+04  0.63831374753E+03 0.  0.
         13    1    3    3    0    0 -0.52945061958E+02 -0.14632270634E+03  0.93008227939E+03  0.94300931088E+03  0.00000000000E+00 0. -1.
          2    1    3    3  501    0  0.52945061958E+02  0.14632270634E+03 -0.31943389459E+02  0.15885179919E+03  0.00000000000E+00 0. -1.
<mgrwt>
<rscale>  0 0.63831375E+03</rscale>
<asrwt>0</asrwt>
<pdfrwt beam="1">0</pdfrwt>
<pdfrwt beam="2">  1        2 0.37040482E+00 0.63831375E+03</pdfrwt>
<totfact> 0.51316409E+00</totfact>
</mgrwt>
</event>
<event>
 5    1  0.2349912E-004  0.6545561E+03  0.7818608E-02  0.9798267E-01
         13   -1    0    0    0    0  0.00000000000E+00  0.00000000000E+00  0.10000000000E+04  0.10000000000E+04  0.00000000000E+00 0. -1.
          2   -1    0    0  501    0 -0.00000000000E+00 -0.00000000000E+00 -0.10711091805E+03  0.10711091805E+03  0.00000000000E+00 0. -1.
    9000006    2    1    2  501    0  0.00000000000E+00  0.00000000000E+00  0.89288908195E+03  0.11071109181E+04  0.65455608791E+03 0.  0.
         13    1    3    3    0    0 -0.32040836836E+03  0.95253806942E+01  0.55811052471E+03  0.64361449112E+03  0.00000000000E+00 0. -1.
          4    1    3    3  501    0  0.32040836836E+03 -0.95253806942E+01  0.33477855724E+03  0.46349642693E+03  0.00000000000E+00 0. -1.
<mgrwt>
<rscale>  0 0.65455609E+03</rscale>
<asrwt>0</asrwt>
<pdfrwt beam="1">0</pdfrwt>
<pdfrwt beam="2">  1        2 0.38949507E+00 0.65455609E+03</pdfrwt>
<totfact> 0.43578043E+00</totfact>
</mgrwt>
</event>
<event>
 5    1  0.2349912E-004  0.4693793E+03  0.7818608E-02  0.1022096E+00
         13   -1    0    0    0    0  0.00000000000E+00  0.00000000000E+00  0.10000000000E+04  0.10000000000E+04  0.00000000000E+00 0. -1.
          2   -1    0    0  501    0 -0.00000000000E+00 -0.00000000000E+00 -0.55079239346E+02  0.55079239346E+02  0.00000000000E+00 0. -1.
    9000006    2    1    2  501    0  0.00000000000E+00  0.00000000000E+00  0.94492076065E+03  0.10550792393E+04  0.46937933208E+03 0.  0.
         13    1    3    3    0    0  0.18062151265E+03  0.14817399439E+03  0.52270179442E+03  0.57253543937E+03  0.00000000000E+00 0. -1.
          4    1    3    3  501    0 -0.18062151265E+03 -0.14817399439E+03  0.42221896624E+03  0.48254379998E+03  0.00000000000E+00 0. -1.
<mgrwt>
<rscale>  0 0.46937933E+03</rscale>
<asrwt>0</asrwt>
<pdfrwt beam="1">0</pdfrwt>
<pdfrwt beam="2">  1        2 0.20028857E+00 0.46937933E+03</pdfrwt>
<totfact> 0.21191729E+01</totfact>
</mgrwt>
</event>
<event>
 5    1  0.2349912E-004  0.6484763E+03  0.7818608E-02  0.9809642E-01
         13   -1    0    0    0    0  0.00000000000E+00  0.00000000000E+00  0.10000000000E+04  0.10000000000E+04  0.00000000000E+00 0. -1.
          2   -1    0    0  501    0 -0.00000000000E+00 -0.00000000000E+00 -0.10513038599E+03  0.10513038599E+03  0.00000000000E+00 0. -1.
    9000006    2    1    2  501    0  0.00000000000E+00  0.00000000000E+00  0.89486961401E+03  0.11051303860E+04  0.64847632492E+03 0.  0.
         13    1    3    3    0    0  0.15535345541E+03 -0.38445286549E+02  0.92799872858E+03  0.94169760349E+03  0.00000000000E+00 0. -1.
          4    1    3    3  501    0 -0.15535345541E+03  0.38445286549E+02 -0.33129114574E+02  0.16343278251E+03  0.00000000000E+00 0. -1.
<mgrwt>
<rscale>  0 0.64847632E+03</rscale>
<asrwt>0</asrwt>
<pdfrwt beam="1">0</pdfrwt>
<pdfrwt beam="2">  1        2 0.38229312E+00 0.64847632E+03</pdfrwt>
<totfact> 0.46362994E+00</totfact>
</mgrwt>
</event>
<event>
 5    1  0.2349912E-004  0.6896966E+03  0.7818608E-02  0.9735016E-01
         13   -1    0    0    0    0  0.00000000000E+00  0.00000000000E+00  0.10000000000E+04  0.10000000000E+04  0.00000000000E+00 0. -1.
          2   -1    0    0  501    0 -0.00000000000E+00 -0.00000000000E+00 -0.11892035334E+03  0.11892035334E+03  0.00000000000E+00 0. -1.
    9000006    2    1    2  501    0  0.00000000000E+00  0.00000000000E+00  0.88107964666E+03  0.11189203533E+04  0.68969660966E+03 0.  0.
         13    1    3    3    0    0  0.34144573992E+03 -0.48160986239E+02  0.43411581095E+03  0.55440166957E+03  0.00000000000E+00 0. -1.
          2    1    3    3  501    0 -0.34144573992E+03  0.48160986239E+02  0.44696383570E+03  0.56451868377E+03  0.00000000000E+00 0. -1.
<mgrwt>
<rscale>  0 0.68969661E+03</rscale>
<asrwt>0</asrwt>
<pdfrwt beam="1">0</pdfrwt>
<pdfrwt beam="2">  1        2 0.43243856E+00 0.68969661E+03</pdfrwt>
<totfact> 0.29868439E+00</totfact>
</mgrwt>
</event>
<event>
 5    1  0.2349912E-004  0.5240765E+03  0.7818608E-02  0.1007679E+00
         13   -1    0    0    0    0  0.00000000000E+00  0.00000000000E+00  0.10000000000E+04  0.10000000000E+04  0.00000000000E+00 0. -1.
          2   -1    0    0  501    0 -0.00000000000E+00 -0.00000000000E+00 -0.68664048484E+02  0.68664048484E+02  0.00000000000E+00 0. -1.
    9000006    2    1    2  501    0  0.00000000000E+00  0.00000000000E+00  0.93133595152E+03  0.10686640485E+04  0.52407651534E+03 0.  0.
         13    1    3    3    0    0  0.18097392418E+03  0.35759359623E+02  0.86181508235E+02  0.20361126048E+03  0.00000000000E+00 0. -1.
          4    1    3    3  501    0 -0.18097392418E+03 -0.35759359623E+02  0.84515444328E+03  0.86505278800E+03  0.00000000000E+00 0. -1.
<mgrwt>
<rscale>  0 0.52407652E+03</rscale>
<asrwt>0</asrwt>
<pdfrwt beam="1">0</pdfrwt>
<pdfrwt beam="2">  1        2 0.24968798E+00 0.52407652E+03</pdfrwt>
<totfact> 0.13975602E+01</totfact>
</mgrwt>
</event>
<event>
 5    1  0.2349912E-004  0.6610034E+03  0.7818608E-02  0.9786348E-01
         13   -1    0    0    0    0  0.00000000000E+00  0.00000000000E+00  0.10000000000E+04  0.10000000000E+04  0.00000000000E+00 0. -1.
          2   -1    0    0  501    0 -0.00000000000E+00 -0.00000000000E+00 -0.10923136258E+03  0.10923136258E+03  0.00000000000E+00 0. -1.
    9000006    2    1    2  501    0  0.00000000000E+00  0.00000000000E+00  0.89076863742E+03  0.11092313626E+04  0.66100336634E+03 0.  0.
         13    1    3    3    0    0  0.79586210320E+02  0.31653169608E+03  0.35810551737E+03  0.48452640905E+03  0.00000000000E+00 0. -1.
          4    1    3    3  501    0 -0.79586210320E+02 -0.31653169608E+03  0.53266312006E+03  0.62470495353E+03  0.00000000000E+00 0. -1.
<mgrwt>
<rscale>  0 0.66100337E+03</rscale>
<asrwt>0</asrwt>
<pdfrwt beam="1">0</pdfrwt>
<pdfrwt beam="2">  1        2 0.39720579E+00 0.66100337E+03</pdfrwt>
<totfact> 0.40764863E+00</totfact>
</mgrwt>
</event>
<event>
 5    1  0.2349912E-004  0.6329494E+03  0.7818608E-02  0.9839310E-01
         13   -1    0    0    0    0  0.00000000000E+00  0.00000000000E+00  0.10000000000E+04  0.10000000000E+04  0.00000000000E+00 0. -1.
          2   -1    0    0  501    0 -0.00000000000E+00 -0.00000000000E+00 -0.10015624390E+03  0.10015624390E+03  0.00000000000E+00 0. -1.
    9000006    2    1    2  501    0  0.00000000000E+00  0.00000000000E+00  0.89984375610E+03  0.11001562439E+04  0.63294942579E+03 0.  0.
         13    1    3    3    0    0  0.35471528435E+02 -0.18370930138E+03  0.89357028381E+03  0.91294862334E+03  0.00000000000E+00 0. -1.
          4    1    3    3  501    0 -0.35471528435E+02  0.18370930138E+03  0.62734722884E+01  0.18720762057E+03  0.00000000000E+00 0. -1.
<mgrwt>
<rscale>  0 0.63294943E+03</rscale>
<asrwt>0</asrwt>
<pdfrwt beam="1">0</pdfrwt>
<pdfrwt beam="2">  1        2 0.36420529E+00 0.63294943E+03</pdfrwt>
<totfact> 0.54087514E+00</totfact>
</mgrwt>
</event>
<event>
 5    1  0.2349912E-004  0.6477201E+03  0.7818608E-02  0.9811067E-01
         13   -1    0    0    0    0  0.00000000000E+00  0.00000000000E+00  0.10000000000E+04  0.10000000000E+04  0.00000000000E+00 0. -1.
          2   -1    0    0  501    0 -0.00000000000E+00 -0.00000000000E+00 -0.10488534240E+03  0.10488534240E+03  0.00000000000E+00 0. -1.
    9000006    2    1    2  501    0  0.00000000000E+00  0.00000000000E+00  0.89511465760E+03  0.11048853424E+04  0.64772013216E+03 0.  0.
         13    1    3    3    0    0  0.15137431720E+03  0.16576120393E+03  0.49353270968E+02  0.22984060997E+03  0.00000000000E+00 0. -1.
          2    1    3    3  501    0 -0.15137431720E+03 -0.16576120393E+03  0.84576138663E+03  0.87504473243E+03  0.00000000000E+00 0. -1.
<mgrwt>
<rscale>  0 0.64772013E+03</rscale>
<asrwt>0</asrwt>
<pdfrwt beam="1">0</pdfrwt>
<pdfrwt beam="2">  1        2 0.38140205E+00 0.64772013E+03</pdfrwt>
<totfact> 0.46718558E+00</totfact>
</mgrwt>
</event>
<event>
 5    1  0.2349912E-004  0.6649951E+03  0.7818608E-02  0.9779042E-01
         13   -1    0    0    0    0  0.00000000000E+00  0.00000000000E+00  0.10000000000E+04  0.10000000000E+04  0.00000000000E+00 0. -1.
          2   -1    0    0  501    0 -0.00000000000E+00 -0.00000000000E+00 -0.11055461169E+03  0.11055461169E+03  0.00000000000E+00 0. -1.
    9000006    2    1    2  501    0  0.00000000000E+00  0.00000000000E+00  0.88944538831E+03  0.11105546117E+04  0.66499507275E+03 0.  0.
         13    1    3    3    0    0 -0.29858763796E+03 -0.21532775650E+02  0.68636458393E+03  0.74880877402E+03  0.00000000000E+00 0. -1.
          4    1    3    3  501    0  0.29858763796E+03  0.21532775650E+02  0.20308080438E+03  0.36174583768E+03  0.00000000000E+00 0. -1.
<mgrwt>
<rscale>  0 0.66499507E+03</rscale>
<asrwt>0</asrwt>
<pdfrwt beam="1">0</pdfrwt>
<pdfrwt beam="2">  1        2 0.40201762E+00 0.66499507E+03</pdfrwt>
<totfact> 0.39093333E+00</totfact>
</mgrwt>
</event>
<event>
 5    1  0.2349912E-004  0.6523033E+03  0.7818608E-02  0.9802467E-01
         13   -1    0    0    0    0  0.00000000000E+00  0.00000000000E+00  0.10000000000E+04  0.10000000000E+04  0.00000000000E+00 0. -1.
          2   -1    0    0  501    0 -0.00000000000E+00 -0.00000000000E+00 -0.10637491200E+03  0.10637491200E+03  0.00000000000E+00 0. -1.
    9000006    2    1    2  501    0  0.00000000000E+00  0.00000000000E+00  0.89362508800E+03  0.11063749120E+04  0.65230334048E+03 0.  0.
         13    1    3    3    0    0  0.14968262643E+03 -0.23920526901E+03  0.16940286349E+03  0.32912213468E+03  0.00000000000E+00 0. -1.
          4    1    3    3  501    0 -0.14968262643E+03  0.23920526901E+03  0.72422222451E+03  0.77725277732E+03  0.00000000000E+00 0. -1.
<mgrwt>
<rscale>  0 0.65230334E+03</rscale>
<asrwt>0</asrwt>
<pdfrwt beam="1">0</pdfrwt>
<pdfrwt beam="2">  1        2 0.38681868E+00 0.65230334E+03</pdfrwt>
<totfact> 0.44594778E+00</totfact>
</mgrwt>
</event>
<event>
 5    1  0.2349912E-004  0.6698699E+03  0.7818608E-02  0.9770193E-01
         13   -1    0    0    0    0  0.00000000000E+00  0.00000000000E+00  0.10000000000E+04  0.10000000000E+04  0.00000000000E+00 0. -1.
          2   -1    0    0  501    0 -0.00000000000E+00 -0.00000000000E+00 -0.11218141167E+03  0.11218141167E+03  0.00000000000E+00 0. -1.
    9000006    2    1    2  501    0  0.00000000000E+00  0.00000000000E+00  0.88781858833E+03  0.11121814117E+04  0.66986987293E+03 0.  0.
         13    1    3    3    0    0 -0.21182727976E+03  0.25739188290E+03  0.49796543644E+03  0.59924198261E+03  0.00000000000E+00 0. -1.
          4    1    3    3  501    0  0.21182727976E+03 -0.25739188290E+03  0.38985315190E+03  0.51293942905E+03  0.00000000000E+00 0. -1.
<mgrwt>
<rscale>  0 0.66986987E+03</rscale>
<asrwt>0</asrwt>
<pdfrwt beam="1">0</pdfrwt>
<pdfrwt beam="2">  1        2 0.40793327E+00 0.66986987E+03</pdfrwt>
<totfact> 0.37122710E+00</totfact>
</mgrwt>
</event>
<event>
 5    1  0.2349912E-004  0.6532516E+03  0.7818608E-02  0.9800697E-01
         13   -1    0    0    0    0  0.00000000000E+00  0.00000000000E+00  0.10000000000E+04  0.10000000000E+04  0.00000000000E+00 0. -1.
          2   -1    0    0  501    0 -0.00000000000E+00 -0.00000000000E+00 -0.10668442687E+03  0.10668442687E+03  0.00000000000E+00 0. -1.
    9000006    2    1    2  501    0  0.00000000000E+00  0.00000000000E+00  0.89331557313E+03  0.11066844269E+04  0.65325164179E+03 0.  0.
         13    1    3    3    0    0  0.22028964243E+03 -0.85937711411E+02  0.64930015227E+02  0.24521158961E+03  0.00000000000E+00 0. -1.
          4    1    3    3  501    0 -0.22028964243E+03  0.85937711411E+02  0.82838555790E+03  0.86147283726E+03  0.00000000000E+00 0. -1.
<mgrwt>
<rscale>  0 0.65325164E+03</rscale>
<asrwt>0</asrwt>
<pdfrwt beam="1">0</pdfrwt>
<pdfrwt beam="2">  1        2 0.38794419E+00 0.65325164E+03</pdfrwt>
<totfact> 0.44164620E+00</totfact>
</mgrwt>
</event>
<event>
 5    1  0.2349912E-004  0.5617136E+03  0.7818608E-02  0.9988185E-01
         13   -1    0    0    0    0  0.00000000000E+00  0.00000000000E+00  0.10000000000E+04  0.10000000000E+04  0.00000000000E+00 0. -1.
          2   -1    0    0  501    0 -0.00000000000E+00 -0.00000000000E+00 -0.78880541207E+02  0.78880541207E+02  0.00000000000E+00 0. -1.
    9000006    2    1    2  501    0  0.00000000000E+00  0.00000000000E+00  0.92111945879E+03  0.10788805412E+04  0.56171359680E+03 0.  0.
         13    1    3    3    0    0  0.67109978984E+02 -0.18875561388E+03  0.82479744843E+02  0.21664565391E+03  0.00000000000E+00 0. -1.
          4    1    3    3  501    0 -0.67109978984E+02  0.18875561388E+03  0.83863971395E+03  0.86223488729E+03  0.00000000000E+00 0. -1.
<mgrwt>
<rscale>  0 0.56171360E+03</rscale>
<asrwt>0</asrwt>
<pdfrwt beam="1">0</pdfrwt>
<pdfrwt beam="2">  1        2 0.28683894E+00 0.56171360E+03</pdfrwt>
<totfact> 0.10289170E+01</totfact>
</mgrwt>
</event>
<event>
 5    1  0.2349912E-004  0.6436051E+03  0.7818608E-02  0.9818853E-01
         13   -1    0    0    0    0  0.00000000000E+00  0.00000000000E+00  0.10000000000E+04  0.10000000000E+04  0.00000000000E+00 0. -1.
          2   -1    0    0  501    0 -0.00000000000E+00 -0.00000000000E+00 -0.10355686616E+03  0.10355686616E+03  0.00000000000E+00 0. -1.
    9000006    2    1    2  501    0  0.00000000000E+00  0.00000000000E+00  0.89644313384E+03  0.11035568662E+04  0.64360505330E+03 0.  0.
         13    1    3    3    0    0 -0.34935418111E+01  0.20318080228E+03  0.87606767215E+03  0.89932708702E+03  0.00000000000E+00 0. -1.
          4    1    3    3  501    0  0.34935418111E+01 -0.20318080228E+03  0.20375461689E+02  0.20422977914E+03  0.00000000000E+00 0. -1.
<mgrwt>
<rscale>  0 0.64360505E+03</rscale>
<asrwt>0</asrwt>
<pdfrwt beam="1">0</pdfrwt>
<pdfrwt beam="2">  1        2 0.37657122E+00 0.64360505E+03</pdfrwt>
<totfact> 0.48689778E+00</totfact>
</mgrwt>
</event>
<event>
 5    1  0.2349912E-004  0.6425212E+03  0.7818608E-02  0.9820915E-01
         13   -1    0    0    0    0  0.00000000000E+00  0.00000000000E+00  0.10000000000E+04  0.10000000000E+04  0.00000000000E+00 0. -1.
          2   -1    0    0  501    0 -0.00000000000E+00 -0.00000000000E+00 -0.10320838827E+03  0.10320838827E+03  0.00000000000E+00 0. -1.
    9000006    2    1    2  501    0  0.00000000000E+00  0.00000000000E+00  0.89679161173E+03  0.11032083883E+04  0.64252124717E+03 0.  0.
         13    1    3    3    0    0 -0.11152173021E+03  0.31816939943E+02 -0.66013719919E+02  0.13344371545E+03  0.00000000000E+00 0. -1.
          2    1    3    3  501    0  0.11152173021E+03 -0.31816939943E+02  0.96280533165E+03  0.96976467281E+03  0.00000000000E+00 0. -1.
<mgrwt>
<rscale>  0 0.64252125E+03</rscale>
<asrwt>0</asrwt>
<pdfrwt beam="1">0</pdfrwt>
<pdfrwt beam="2">  1        2 0.37530402E+00 0.64252125E+03</pdfrwt>
<totfact> 0.49219266E+00</totfact>
</mgrwt>
</event>
<event>
 5    1  0.2349912E-004  0.6368275E+03  0.7818608E-02  0.9831815E-01
         13   -1    0    0    0    0  0.00000000000E+00  0.00000000000E+00  0.10000000000E+04  0.10000000000E+04  0.00000000000E+00 0. -1.
          2   -1    0    0  501    0 -0.00000000000E+00 -0.00000000000E+00 -0.10138731161E+03  0.10138731161E+03  0.00000000000E+00 0. -1.
    9000006    2    1    2  501    0  0.00000000000E+00  0.00000000000E+00  0.89861268839E+03  0.11013873116E+04  0.63682748561E+03 0.  0.
         13    1    3    3    0    0 -0.20722187568E+03 -0.71431968300E+02  0.84875463679E+03  0.87660017415E+03  0.00000000000E+00 0. -1.
          2    1    3    3  501    0  0.20722187568E+03  0.71431968300E+02  0.49858051603E+02  0.22478713745E+03  0.00000000000E+00 0. -1.
<mgrwt>
<rscale>  0 0.63682749E+03</rscale>
<asrwt>0</asrwt>
<pdfrwt beam="1">0</pdfrwt>
<pdfrwt beam="2">  1        2 0.36868191E+00 0.63682749E+03</pdfrwt>
<totfact> 0.52073144E+00</totfact>
</mgrwt>
</event>
<event>
 5    1  0.2349912E-004  0.6418568E+03  0.7818608E-02  0.9822180E-01
         13   -1    0    0    0    0  0.00000000000E+00  0.00000000000E+00  0.10000000000E+04  0.10000000000E+04  0.00000000000E+00 0. -1.
          2   -1    0    0  501    0 -0.00000000000E+00 -0.00000000000E+00 -0.10299504667E+03  0.10299504667E+03  0.00000000000E+00 0. -1.
    9000006    2    1    2  501    0  0.00000000000E+00  0.00000000000E+00  0.89700495333E+03  0.11029950467E+04  0.64185682724E+03 0.  0.
         13    1    3    3    0    0  0.79784031436E+00 -0.24494812901E+03  0.92179780452E+02  0.26171995411E+03  0.00000000000E+00 0. -1.
          2    1    3    3  501    0 -0.79784031436E+00  0.24494812901E+03  0.80482517288E+03  0.84127509256E+03  0.00000000000E+00 0. -1.
<mgrwt>
<rscale>  0 0.64185683E+03</rscale>
<asrwt>0</asrwt>
<pdfrwt beam="1">0</pdfrwt>
<pdfrwt beam="2">  1        2 0.37452823E+00 0.64185683E+03</pdfrwt>
<totfact> 0.49546038E+00</totfact>
</mgrwt>
</event>
<event>
 5    1  0.2349912E-004  0.6456765E+03  0.7818608E-02  0.9814926E-01
         13   -1    0    0    0    0  0.00000000000E+00  0.00000000000E+00  0.10000000000E+04  0.10000000000E+04  0.00000000000E+00 0. -1.
          2   -1    0    0  501    0 -0.00000000000E+00 -0.00000000000E+00 -0.10422452320E+03  0.10422452320E+03  0.00000000000E+00 0. -1.
    9000006    2    1    2  501    0  0.00000000000E+00  0.00000000000E+00  0.89577547680E+03  0.11042245232E+04  0.64567646140E+03 0.  0.
         13    1    3    3    0    0 -0.18215019173E+03 -0.13819812969E+03  0.83767094154E+03  0.86831447166E+03  0.00000000000E+00 0. -1.
          4    1    3    3  501    0  0.18215019173E+03  0.13819812969E+03  0.58104535256E+02  0.23591005154E+03  0.00000000000E+00 0. -1.
<mgrwt>
<rscale>  0 0.64567646E+03</rscale>
<asrwt>0</asrwt>
<pdfrwt beam="1">0</pdfrwt>
<pdfrwt beam="2">  1        2 0.37899907E+00 0.64567646E+03</pdfrwt>
<totfact> 0.47689821E+00</totfact>
</mgrwt>
</event>
<event>
 5    1  0.2349912E-004  0.6551325E+03  0.7818608E-02  0.9797196E-01
         13   -1    0    0    0    0  0.00000000000E+00  0.00000000000E+00  0.10000000000E+04  0.10000000000E+04  0.00000000000E+00 0. -1.
          2   -1    0    0  501    0 -0.00000000000E+00 -0.00000000000E+00 -0.10729966366E+03  0.10729966366E+03  0.00000000000E+00 0. -1.
    9000006    2    1    2  501    0  0.00000000000E+00  0.00000000000E+00  0.89270033634E+03  0.11072996637E+04  0.65513254738E+03 0.  0.
         13    1    3    3    0    0  0.11170128344E+03  0.11112440193E+03  0.93174387060E+03  0.94497219527E+03  0.00000000000E+00 0. -1.
          2    1    3    3  501    0 -0.11170128344E+03 -0.11112440193E+03 -0.39043534261E+02  0.16232746839E+03  0.00000000000E+00 0. -1.
<mgrwt>
<rscale>  0 0.65513255E+03</rscale>
<asrwt>0</asrwt>
<pdfrwt beam="1">0</pdfrwt>
<pdfrwt beam="2">  1        2 0.39018142E+00 0.65513255E+03</pdfrwt>
<totfact> 0.43320706E+00</totfact>
</mgrwt>
</event>
<event>
 5    1  0.2349912E-004  0.6572738E+03  0.7818608E-02  0.9793225E-01
         13   -1    0    0    0    0  0.00000000000E+00  0.00000000000E+00  0.10000000000E+04  0.10000000000E+04  0.00000000000E+00 0. -1.
          2   -1    0    0  501    0 -0.00000000000E+00 -0.00000000000E+00 -0.10800222362E+03  0.10800222362E+03  0.00000000000E+00 0. -1.
    9000006    2    1    2  501    0  0.00000000000E+00  0.00000000000E+00  0.89199777638E+03  0.11080022236E+04  0.65727383524E+03 0.  0.
         13    1    3    3    0    0 -0.18457512201E+03 -0.20859153886E+02 -0.11021344717E+02  0.18607673150E+03  0.00000000000E+00 0. -1.
          4    1    3    3  501    0  0.18457512201E+03  0.20859153886E+02  0.90301912109E+03  0.92192549212E+03  0.00000000000E+00 0. -1.
<mgrwt>
<rscale>  0 0.65727384E+03</rscale>
<asrwt>0</asrwt>
<pdfrwt beam="1">0</pdfrwt>
<pdfrwt beam="2">  1        2 0.39273619E+00 0.65727384E+03</pdfrwt>
<totfact> 0.42374852E+00</totfact>
</mgrwt>
</event>
<event>
 5    1  0.2349912E-004  0.6436715E+03  0.7818608E-02  0.9818727E-01
         13   -1    0    0    0    0  0.00000000000E+00  0.00000000000E+00  0.10000000000E+04  0.10000000000E+04  0.00000000000E+00 0. -1.
          2   -1    0    0  501    0 -0.00000000000E+00 -0.00000000000E+00 -0.10357826540E+03  0.10357826540E+03  0.00000000000E+00 0. -1.
    9000006    2    1    2  501    0  0.00000000000E+00  0.00000000000E+00  0.89642173460E+03  0.11035782654E+04  0.64367154793E+03 0.  0.
         13    1    3    3    0    0 -0.58282354369E+02 -0.33448364039E+02  0.98783799475E+03  0.99012096723E+03  0.00000000000E+00 0. -1.
          4    1    3    3  501    0  0.58282354369E+02  0.33448364039E+02 -0.91416260152E+02  0.11345729817E+03  0.00000000000E+00 0. -1.
<mgrwt>
<rscale>  0 0.64367155E+03</rscale>
<asrwt>0</asrwt>
<pdfrwt beam="1">0</pdfrwt>
<pdfrwt beam="2">  1        2 0.37664903E+00 0.64367155E+03</pdfrwt>
<totfact> 0.48657434E+00</totfact>
</mgrwt>
</event>
<event>
 5    1  0.2349912E-004  0.6576394E+03  0.7818608E-02  0.9792549E-01
         13   -1    0    0    0    0  0.00000000000E+00  0.00000000000E+00  0.10000000000E+04  0.10000000000E+04  0.00000000000E+00 0. -1.
          2   -1    0    0  501    0 -0.00000000000E+00 -0.00000000000E+00 -0.10812238470E+03  0.10812238470E+03  0.00000000000E+00 0. -1.
    9000006    2    1    2  501    0  0.00000000000E+00  0.00000000000E+00  0.89187761530E+03  0.11081223847E+04  0.65763936835E+03 0.  0.
         13    1    3    3    0    0  0.11050720866E+03  0.22116152078E+03  0.80646789770E+02  0.26005416001E+03  0.00000000000E+00 0. -1.
          2    1    3    3  501    0 -0.11050720866E+03 -0.22116152078E+03  0.81123082553E+03  0.84806822469E+03  0.00000000000E+00 0. -1.
<mgrwt>
<rscale>  0 0.65763937E+03</rscale>
<asrwt>0</asrwt>
<pdfrwt beam="1">0</pdfrwt>
<pdfrwt beam="2">  1        2 0.39317314E+00 0.65763937E+03</pdfrwt>
<totfact> 0.42214960E+00</totfact>
</mgrwt>
</event>
<event>
 5    1  0.2349912E-004  0.6520964E+03  0.7818608E-02  0.9802853E-01
         13   -1    0    0    0    0  0.00000000000E+00  0.00000000000E+00  0.10000000000E+04  0.10000000000E+04  0.00000000000E+00 0. -1.
          2   -1    0    0  501    0 -0.00000000000E+00 -0.00000000000E+00 -0.10630742840E+03  0.10630742840E+03  0.00000000000E+00 0. -1.
    9000006    2    1    2  501    0  0.00000000000E+00  0.00000000000E+00  0.89369257160E+03  0.11063074284E+04  0.65209639901E+03 0.  0.
         13    1    3    3    0    0 -0.25419865038E+03 -0.29257355822E+02  0.78967528448E+03  0.83009638094E+03  0.00000000000E+00 0. -1.
          4    1    3    3  501    0  0.25419865038E+03  0.29257355822E+02  0.10401728712E+03  0.27621104746E+03  0.00000000000E+00 0. -1.
<mgrwt>
<rscale>  0 0.65209640E+03</rscale>
<asrwt>0</asrwt>
<pdfrwt beam="1">0</pdfrwt>
<pdfrwt beam="2">  1        2 0.38657328E+00 0.65209640E+03</pdfrwt>
<totfact> 0.44689067E+00</totfact>
</mgrwt>
</event>
<event>
 5    1  0.2349912E-004  0.6508217E+03  0.7818608E-02  0.9805239E-01
         13   -1    0    0    0    0  0.00000000000E+00  0.00000000000E+00  0.10000000000E+04  0.10000000000E+04  0.00000000000E+00 0. -1.
          2   -1    0    0  501    0 -0.00000000000E+00 -0.00000000000E+00 -0.10589221742E+03  0.10589221742E+03  0.00000000000E+00 0. -1.
    9000006    2    1    2  501    0  0.00000000000E+00  0.00000000000E+00  0.89410778258E+03  0.11058922174E+04  0.65082168809E+03 0.  0.
         13    1    3    3    0    0 -0.11524600525E+03 -0.55878480840E+02  0.95536968167E+03  0.96391663280E+03  0.00000000000E+00 0. -1.
          2    1    3    3  501    0  0.11524600525E+03  0.55878480840E+02 -0.61261899089E+02  0.14197558462E+03  0.00000000000E+00 0. -1.
<mgrwt>
<rscale>  0 0.65082169E+03</rscale>
<asrwt>0</asrwt>
<pdfrwt beam="1">0</pdfrwt>
<pdfrwt beam="2">  1        2 0.38506342E+00 0.65082169E+03</pdfrwt>
<totfact> 0.45273194E+00</totfact>
</mgrwt>
</event>
<event>
 5    1  0.2349912E-004  0.6479766E+03  0.7818608E-02  0.9810583E-01
         13   -1    0    0    0    0  0.00000000000E+00  0.00000000000E+00  0.10000000000E+04  0.10000000000E+04  0.00000000000E+00 0. -1.
          2   -1    0    0  501    0 -0.00000000000E+00 -0.00000000000E+00 -0.10496843314E+03  0.10496843314E+03  0.00000000000E+00 0. -1.
    9000006    2    1    2  501    0  0.00000000000E+00  0.00000000000E+00  0.89503156686E+03  0.11049684331E+04  0.64797664506E+03 0.  0.
         13    1    3    3    0    0  0.29026238781E+03  0.11481704375E+03  0.59552235934E+03  0.67237049890E+03  0.00000000000E+00 0. -1.
          4    1    3    3  501    0 -0.29026238781E+03 -0.11481704375E+03  0.29950920752E+03  0.43259793423E+03  0.00000000000E+00 0. -1.
<mgrwt>
<rscale>  0 0.64797665E+03</rscale>
<asrwt>0</asrwt>
<pdfrwt beam="1">0</pdfrwt>
<pdfrwt beam="2">  1        2 0.38170420E+00 0.64797665E+03</pdfrwt>
<totfact> 0.46597715E+00</totfact>
</mgrwt>
</event>
<event>
 5    1  0.2349912E-004  0.6481622E+03  0.7818608E-02  0.9810234E-01
         13   -1    0    0    0    0  0.00000000000E+00  0.00000000000E+00  0.10000000000E+04  0.10000000000E+04  0.00000000000E+00 0. -1.
          2   -1    0    0  501    0 -0.00000000000E+00 -0.00000000000E+00 -0.10502855672E+03  0.10502855672E+03  0.00000000000E+00 0. -1.
    9000006    2    1    2  501    0  0.00000000000E+00  0.00000000000E+00  0.89497144328E+03  0.11050285567E+04  0.64816219180E+03 0.  0.
         13    1    3    3    0    0  0.51095508689E+01 -0.16065180205E+03  0.92725720658E+03  0.94108503131E+03  0.00000000000E+00 0. -1.
          4    1    3    3  501    0 -0.51095508689E+01  0.16065180205E+03 -0.32285763301E+02  0.16394352541E+03  0.00000000000E+00 0. -1.
<mgrwt>
<rscale>  0 0.64816219E+03</rscale>
<asrwt>0</asrwt>
<pdfrwt beam="1">0</pdfrwt>
<pdfrwt beam="2">  1        2 0.38192283E+00 0.64816219E+03</pdfrwt>
<totfact> 0.46510451E+00</totfact>
</mgrwt>
</event>
<event>
 5    1  0.2349912E-004  0.6467991E+03  0.7818608E-02  0.9812804E-01
         13   -1    0    0    0    0  0.00000000000E+00  0.00000000000E+00  0.10000000000E+04  0.10000000000E+04  0.00000000000E+00 0. -1.
          2   -1    0    0  501    0 -0.00000000000E+00 -0.00000000000E+00 -0.10458726026E+03  0.10458726026E+03  0.00000000000E+00 0. -1.
    9000006    2    1    2  501    0  0.00000000000E+00  0.00000000000E+00  0.89541273974E+03  0.11045872603E+04  0.64679907316E+03 0.  0.
         13    1    3    3    0    0  0.40368641637E+02  0.31645742282E+03  0.35714062163E+03  0.47887822179E+03  0.00000000000E+00 0. -1.
          2    1    3    3  501    0 -0.40368641637E+02 -0.31645742282E+03  0.53827211811E+03  0.62570903847E+03  0.00000000000E+00 0. -1.
<mgrwt>
<rscale>  0 0.64679907E+03</rscale>
<asrwt>0</asrwt>
<pdfrwt beam="1">0</pdfrwt>
<pdfrwt beam="2">  1        2 0.38031811E+00 0.64679907E+03</pdfrwt>
<totfact> 0.47154425E+00</totfact>
</mgrwt>
</event>
<event>
 5    1  0.2349912E-004  0.6507999E+03  0.7818608E-02  0.9805279E-01
         13   -1    0    0    0    0  0.00000000000E+00  0.00000000000E+00  0.10000000000E+04  0.10000000000E+04  0.00000000000E+00 0. -1.
          2   -1    0    0  501    0 -0.00000000000E+00 -0.00000000000E+00 -0.10588514055E+03  0.10588514055E+03  0.00000000000E+00 0. -1.
    9000006    2    1    2  501    0  0.00000000000E+00  0.00000000000E+00  0.89411485945E+03  0.11058851405E+04  0.65079994022E+03 0.  0.
         13    1    3    3    0    0 -0.31055311257E+03  0.55804431575E+02  0.31188507822E+03  0.44365490229E+03  0.00000000000E+00 0. -1.
          2    1    3    3  501    0  0.31055311257E+03 -0.55804431575E+02  0.58222978123E+03  0.66223023826E+03  0.00000000000E+00 0. -1.
<mgrwt>
<rscale>  0 0.65079994E+03</rscale>
<asrwt>0</asrwt>
<pdfrwt beam="1">0</pdfrwt>
<pdfrwt beam="2">  1        2 0.38503769E+00 0.65079994E+03</pdfrwt>
<totfact> 0.45283210E+00</totfact>
</mgrwt>
</event>
<event>
 5    1  0.2349912E-004  0.6473375E+03  0.7818608E-02  0.9811788E-01
         13   -1    0    0    0    0  0.00000000000E+00  0.00000000000E+00  0.10000000000E+04  0.10000000000E+04  0.00000000000E+00 0. -1.
          2   -1    0    0  501    0 -0.00000000000E+00 -0.00000000000E+00 -0.10476145431E+03  0.10476145431E+03  0.00000000000E+00 0. -1.
    9000006    2    1    2  501    0  0.00000000000E+00  0.00000000000E+00  0.89523854569E+03  0.11047614543E+04  0.64733748327E+03 0.  0.
         13    1    3    3    0    0 -0.28551633073E+03 -0.12392334912E+03  0.59916209739E+03  0.67518278305E+03  0.00000000000E+00 0. -1.
          4    1    3    3  501    0  0.28551633073E+03  0.12392334912E+03  0.29607644830E+03  0.42957867127E+03  0.00000000000E+00 0. -1.
<mgrwt>
<rscale>  0 0.64733748E+03</rscale>
<asrwt>0</asrwt>
<pdfrwt beam="1">0</pdfrwt>
<pdfrwt beam="2">  1        2 0.38095155E+00 0.64733748E+03</pdfrwt>
<totfact> 0.46899265E+00</totfact>
</mgrwt>
</event>
<event>
 5    1  0.2349912E-004  0.6993311E+03  0.7818608E-02  0.9718377E-01
         13   -1    0    0    0    0  0.00000000000E+00  0.00000000000E+00  0.10000000000E+04  0.10000000000E+04  0.00000000000E+00 0. -1.
          2   -1    0    0  501    0 -0.00000000000E+00 -0.00000000000E+00 -0.12226600811E+03  0.12226600811E+03  0.00000000000E+00 0. -1.
    9000006    2    1    2  501    0  0.00000000000E+00  0.00000000000E+00  0.87773399189E+03  0.11222660081E+04  0.69933113219E+03 0.  0.
         13    1    3    3    0    0  0.18805106754E+03 -0.26406065648E+03  0.22855770470E+03  0.39664828082E+03  0.00000000000E+00 0. -1.
          2    1    3    3  501    0 -0.18805106754E+03  0.26406065648E+03  0.64917628719E+03  0.72561772729E+03  0.00000000000E+00 0. -1.
<mgrwt>
<rscale>  0 0.69933113E+03</rscale>
<asrwt>0</asrwt>
<pdfrwt beam="1">0</pdfrwt>
<pdfrwt beam="2">  1        2 0.44460460E+00 0.69933113E+03</pdfrwt>
<totfact> 0.26756556E+00</totfact>
</mgrwt>
</event>
<event>
 5    1  0.2349912E-004  0.6537502E+03  0.7818608E-02  0.9799768E-01
         13   -1    0    0    0    0  0.00000000000E+00  0.00000000000E+00  0.10000000000E+04  0.10000000000E+04  0.00000000000E+00 0. -1.
          2   -1    0    0  501    0 -0.00000000000E+00 -0.00000000000E+00 -0.10684731507E+03  0.10684731507E+03  0.00000000000E+00 0. -1.
    9000006    2    1    2  501    0  0.00000000000E+00  0.00000000000E+00  0.89315268493E+03  0.11068473151E+04  0.65375015128E+03 0.  0.
         13    1    3    3    0    0 -0.24008187728E+03  0.11975829359E+03  0.76271435401E+03  0.80852615449E+03  0.00000000000E+00 0. -1.
          2    1    3    3  501    0  0.24008187728E+03 -0.11975829359E+03  0.13043833092E+03  0.29832116059E+03  0.00000000000E+00 0. -1.
<mgrwt>
<rscale>  0 0.65375015E+03</rscale>
<asrwt>0</asrwt>
<pdfrwt beam="1">0</pdfrwt>
<pdfrwt beam="2">  1        2 0.38853651E+00 0.65375015E+03</pdfrwt>
<totfact> 0.43939753E+00</totfact>
</mgrwt>
</event>
<event>
 5    1  0.2349912E-004  0.6489286E+03  0.7818608E-02  0.9808792E-01
         13   -1    0    0    0    0  0.00000000000E+00  0.00000000000E+00  0.10000000000E+04  0.10000000000E+04  0.00000000000E+00 0. -1.
          2   -1    0    0  501    0 -0.00000000000E+00 -0.00000000000E+00 -0.10527706991E+03  0.10527706991E+03  0.00000000000E+00 0. -1.
    9000006    2    1    2  501    0  0.00000000000E+00  0.00000000000E+00  0.89472293009E+03  0.11052770699E+04  0.64892856283E+03 0.  0.
         13    1    3    3    0    0 -0.20154011228E+03 -0.30287075691E+02  0.87737773272E+03  0.90073714794E+03  0.00000000000E+00 0. -1.
          4    1    3    3  501    0  0.20154011228E+03  0.30287075691E+02  0.17345197368E+02  0.20453992198E+03  0.00000000000E+00 0. -1.
<mgrwt>
<rscale>  0 0.64892856E+03</rscale>
<asrwt>0</asrwt>
<pdfrwt beam="1">0</pdfrwt>
<pdfrwt beam="2">  1        2 0.38282652E+00 0.64892856E+03</pdfrwt>
<totfact> 0.46151329E+00</totfact>
</mgrwt>
</event>
<event>
 5    1  0.2349912E-004  0.6484493E+03  0.7818608E-02  0.9809693E-01
         13   -1    0    0    0    0  0.00000000000E+00  0.00000000000E+00  0.10000000000E+04  0.10000000000E+04  0.00000000000E+00 0. -1.
          2   -1    0    0  501    0 -0.00000000000E+00 -0.00000000000E+00 -0.10512162020E+03  0.10512162020E+03  0.00000000000E+00 0. -1.
    9000006    2    1    2  501    0  0.00000000000E+00  0.00000000000E+00  0.89487837980E+03  0.11051216202E+04  0.64844928930E+03 0.  0.
         13    1    3    3    0    0 -0.22460382805E+03 -0.23118403550E+03  0.50717762853E+03  0.60093434310E+03  0.00000000000E+00 0. -1.
          4    1    3    3  501    0  0.22460382805E+03  0.23118403550E+03  0.38770075127E+03  0.50418727709E+03  0.00000000000E+00 0. -1.
<mgrwt>
<rscale>  0 0.64844929E+03</rscale>
<asrwt>0</asrwt>
<pdfrwt beam="1">0</pdfrwt>
<pdfrwt beam="2">  1        2 0.38226124E+00 0.64844929E+03</pdfrwt>
<totfact> 0.46375670E+00</totfact>
</mgrwt>
</event>
<event>
 5    1  0.2349912E-004  0.6324490E+03  0.7818608E-02  0.9840281E-01
         13   -1    0    0    0    0  0.00000000000E+00  0.00000000000E+00  0.10000000000E+04  0.10000000000E+04  0.00000000000E+00 0. -1.
          2   -1    0    0  501    0 -0.00000000000E+00 -0.00000000000E+00 -0.99997928959E+02  0.99997928959E+02  0.00000000000E+00 0. -1.
    9000006    2    1    2  501    0  0.00000000000E+00  0.00000000000E+00  0.90000207104E+03  0.10999979290E+04  0.63244898279E+03 0.  0.
         13    1    3    3    0    0 -0.20038648128E+03  0.15205365718E+03  0.78330055764E+03  0.82269971444E+03  0.00000000000E+00 0. -1.
          2    1    3    3  501    0  0.20038648128E+03 -0.15205365718E+03  0.11670151340E+03  0.27729821452E+03  0.00000000000E+00 0. -1.
<mgrwt>
<rscale>  0 0.63244898E+03</rscale>
<asrwt>0</asrwt>
<pdfrwt beam="1">0</pdfrwt>
<pdfrwt beam="2">  1        2 0.36362960E+00 0.63244898E+03</pdfrwt>
<totfact> 0.54351698E+00</totfact>
</mgrwt>
</event>
<event>
 5    1  0.2349912E-004  0.6924685E+03  0.7818608E-02  0.9730199E-01
         13   -1    0    0    0    0  0.00000000000E+00  0.00000000000E+00  0.10000000000E+04  0.10000000000E+04  0.00000000000E+00 0. -1.
          2   -1    0    0  501    0 -0.00000000000E+00 -0.00000000000E+00 -0.11987815066E+03  0.11987815066E+03  0.00000000000E+00 0. -1.
    9000006    2    1    2  501    0  0.00000000000E+00  0.00000000000E+00  0.88012184934E+03  0.11198781507E+04  0.69246848493E+03 0.  0.
         13    1    3    3    0    0  0.26218598883E+02  0.41279401730E+02 -0.11426500950E+03  0.12428956646E+03  0.00000000000E+00 0. -1.
          2    1    3    3  501    0 -0.26218598883E+02 -0.41279401730E+02  0.99438685885E+03  0.99558858420E+03  0.00000000000E+00 0. -1.
<mgrwt>
<rscale>  0 0.69246848E+03</rscale>
<asrwt>0</asrwt>
<pdfrwt beam="1">0</pdfrwt>
<pdfrwt beam="2">  1        2 0.43592147E+00 0.69246848E+03</pdfrwt>
<totfact> 0.28946657E+00</totfact>
</mgrwt>
</event>
<event>
 5    1  0.2349912E-004  0.6493216E+03  0.7818608E-02  0.9808053E-01
         13   -1    0    0    0    0  0.00000000000E+00  0.00000000000E+00  0.10000000000E+04  0.10000000000E+04  0.00000000000E+00 0. -1.
          2   -1    0    0  501    0 -0.00000000000E+00 -0.00000000000E+00 -0.10540465125E+03  0.10540465125E+03  0.00000000000E+00 0. -1.
    9000006    2    1    2  501    0  0.00000000000E+00  0.00000000000E+00  0.89459534875E+03  0.11054046512E+04  0.64932164987E+03 0.  0.
         13    1    3    3    0    0 -0.40116178711E+02  0.32217111341E+03  0.44909702162E+03  0.55415852329E+03  0.00000000000E+00 0. -1.
          4    1    3    3  501    0  0.40116178711E+02 -0.32217111341E+03  0.44549832714E+03  0.55124612796E+03  0.00000000000E+00 0. -1.
<mgrwt>
<rscale>  0 0.64932165E+03</rscale>
<asrwt>0</asrwt>
<pdfrwt beam="1">0</pdfrwt>
<pdfrwt beam="2">  1        2 0.38329045E+00 0.64932165E+03</pdfrwt>
<totfact> 0.45967944E+00</totfact>
</mgrwt>
</event>
<event>
 5    1  0.2349912E-004  0.4665596E+03  0.7818608E-02  0.1022896E+00
         13   -1    0    0    0    0  0.00000000000E+00  0.00000000000E+00  0.10000000000E+04  0.10000000000E+04  0.00000000000E+00 0. -1.
          2   -1    0    0  501    0 -0.00000000000E+00 -0.00000000000E+00 -0.54419460207E+02  0.54419460207E+02  0.00000000000E+00 0. -1.
    9000006    2    1    2  501    0  0.00000000000E+00  0.00000000000E+00  0.94558053979E+03  0.10544194602E+04  0.46655957908E+03 0.  0.
         13    1    3    3    0    0  0.58816255179E+02 -0.18996038539E+03  0.19715351415E+03  0.28002465612E+03  0.00000000000E+00 0. -1.
          4    1    3    3  501    0 -0.58816255179E+02  0.18996038539E+03  0.74842702564E+03  0.77439480409E+03  0.00000000000E+00 0. -1.
<mgrwt>
<rscale>  0 0.46655958E+03</rscale>
<asrwt>0</asrwt>
<pdfrwt beam="1">0</pdfrwt>
<pdfrwt beam="2">  1        2 0.19788936E+00 0.46655958E+03</pdfrwt>
<totfact> 0.21636316E+01</totfact>
</mgrwt>
</event>
<event>
 5    1  0.2349912E-004  0.6393735E+03  0.7818608E-02  0.9826926E-01
         13   -1    0    0    0    0  0.00000000000E+00  0.00000000000E+00  0.10000000000E+04  0.10000000000E+04  0.00000000000E+00 0. -1.
          2   -1    0    0  501    0 -0.00000000000E+00 -0.00000000000E+00 -0.10219963082E+03  0.10219963082E+03  0.00000000000E+00 0. -1.
    9000006    2    1    2  501    0  0.00000000000E+00  0.00000000000E+00  0.89780036918E+03  0.11021996308E+04  0.63937353971E+03 0.  0.
         13    1    3    3    0    0 -0.41750481532E+01 -0.29346749061E+03  0.23044352910E+03  0.37315522129E+03  0.00000000000E+00 0. -1.
          2    1    3    3  501    0  0.41750481532E+01  0.29346749061E+03  0.66735684008E+03  0.72904440953E+03  0.00000000000E+00 0. -1.
<mgrwt>
<rscale>  0 0.63937354E+03</rscale>
<asrwt>0</asrwt>
<pdfrwt beam="1">0</pdfrwt>
<pdfrwt beam="2">  1        2 0.37163580E+00 0.63937354E+03</pdfrwt>
<totfact> 0.50781922E+00</totfact>
</mgrwt>
</event>
<event>
 5    1  0.2349912E-004  0.6422920E+03  0.7818608E-02  0.9821351E-01
         13   -1    0    0    0    0  0.00000000000E+00  0.00000000000E+00  0.10000000000E+04  0.10000000000E+04  0.00000000000E+00 0. -1.
          2   -1    0    0  501    0 -0.00000000000E+00 -0.00000000000E+00 -0.10313476576E+03  0.10313476576E+03  0.00000000000E+00 0. -1.
    9000006    2    1    2  501    0  0.00000000000E+00  0.00000000000E+00  0.89686523424E+03  0.11031347658E+04  0.64229203875E+03 0.  0.
         13    1    3    3    0    0 -0.22901051844E+03 -0.10689393894E+03  0.10811396790E+03  0.27488317845E+03  0.00000000000E+00 0. -1.
          4    1    3    3  501    0  0.22901051844E+03  0.10689393894E+03  0.78875126633E+03  0.82825158731E+03  0.00000000000E+00 0. -1.
<mgrwt>
<rscale>  0 0.64229204E+03</rscale>
<asrwt>0</asrwt>
<pdfrwt beam="1">0</pdfrwt>
<pdfrwt beam="2">  1        2 0.37503630E+00 0.64229204E+03</pdfrwt>
<totfact> 0.49331810E+00</totfact>
</mgrwt>
</event>
<event>
 5    1  0.2349912E-004  0.7161915E+03  0.7818608E-02  0.9689936E-01
         13   -1    0    0    0    0  0.00000000000E+00  0.00000000000E+00  0.10000000000E+04  0.10000000000E+04  0.00000000000E+00 0. -1.
          2   -1    0    0  501    0 -0.00000000000E+00 -0.00000000000E+00 -0.12823255329E+03  0.12823255329E+03  0.00000000000E+00 0. -1.
    9000006    2    1    2  501    0  0.00000000000E+00  0.00000000000E+00  0.87176744671E+03  0.11282325533E+04  0.71619146403E+03 0.  0.
         13    1    3    3    0    0  0.32327032928E+03  0.14348592730E+03  0.34760047612E+03  0.49590120803E+03  0.00000000000E+00 0. -1.
          4    1    3    3  501    0 -0.32327032928E+03 -0.14348592730E+03  0.52416697060E+03  0.63233134526E+03  0.00000000000E+00 0. -1.
<mgrwt>
<rscale>  0 0.71619146E+03</rscale>
<asrwt>0</asrwt>
<pdfrwt beam="1">0</pdfrwt>
<pdfrwt beam="2">  1        2 0.46630118E+00 0.71619146E+03</pdfrwt>
<totfact> 0.21905039E+00</totfact>
</mgrwt>
</event>
<event>
 5    1  0.2349912E-004  0.6341967E+03  0.7818608E-02  0.9836893E-01
         13   -1    0    0    0    0  0.00000000000E+00  0.00000000000E+00  0.10000000000E+04  0.10000000000E+04  0.00000000000E+00 0. -1.
          2   -1    0    0  501    0 -0.00000000000E+00 -0.00000000000E+00 -0.10055135617E+03  0.10055135617E+03  0.00000000000E+00 0. -1.
    9000006    2    1    2  501    0  0.00000000000E+00  0.00000000000E+00  0.89944864383E+03  0.11005513562E+04  0.63419667665E+03 0.  0.
         13    1    3    3    0    0  0.21196714627E+03  0.88318364239E+02  0.82921085326E+03  0.86041899312E+03  0.00000000000E+00 0. -1.
          4    1    3    3  501    0 -0.21196714627E+03 -0.88318364239E+02  0.70237790572E+02  0.24013236305E+03  0.00000000000E+00 0. -1.
<mgrwt>
<rscale>  0 0.63419668E+03</rscale>
<asrwt>0</asrwt>
<pdfrwt beam="1">0</pdfrwt>
<pdfrwt beam="2">  1        2 0.36564207E+00 0.63419668E+03</pdfrwt>
<totfact> 0.53433328E+00</totfact>
</mgrwt>
</event>
<event>
 5    1  0.2349912E-004  0.6522925E+03  0.7818608E-02  0.9802487E-01
         13   -1    0    0    0    0  0.00000000000E+00  0.00000000000E+00  0.10000000000E+04  0.10000000000E+04  0.00000000000E+00 0. -1.
          2   -1    0    0  501    0 -0.00000000000E+00 -0.00000000000E+00 -0.10637138492E+03  0.10637138492E+03  0.00000000000E+00 0. -1.
    9000006    2    1    2  501    0  0.00000000000E+00  0.00000000000E+00  0.89362861508E+03  0.11063713849E+04  0.65229252615E+03 0.  0.
         13    1    3    3    0    0  0.28327191896E+03  0.12500837882E+03  0.62062651419E+03  0.69357576729E+03  0.00000000000E+00 0. -1.
          2    1    3    3  501    0 -0.28327191896E+03 -0.12500837882E+03  0.27300210089E+03  0.41279561763E+03  0.00000000000E+00 0. -1.
<mgrwt>
<rscale>  0 0.65229253E+03</rscale>
<asrwt>0</asrwt>
<pdfrwt beam="1">0</pdfrwt>
<pdfrwt beam="2">  1        2 0.38680585E+00 0.65229253E+03</pdfrwt>
<totfact> 0.44599701E+00</totfact>
</mgrwt>
</event>
<event>
 5    1  0.2349912E-004  0.6468993E+03  0.7818608E-02  0.9812615E-01
         13   -1    0    0    0    0  0.00000000000E+00  0.00000000000E+00  0.10000000000E+04  0.10000000000E+04  0.00000000000E+00 0. -1.
          2   -1    0    0  501    0 -0.00000000000E+00 -0.00000000000E+00 -0.10461968708E+03  0.10461968708E+03  0.00000000000E+00 0. -1.
    9000006    2    1    2  501    0  0.00000000000E+00  0.00000000000E+00  0.89538031292E+03  0.11046196871E+04  0.64689933399E+03 0.  0.
         13    1    3    3    0    0 -0.61172238300E+02  0.56327025303E+02 -0.86055398096E+02  0.11966748957E+03  0.00000000000E+00 0. -1.
          4    1    3    3  501    0  0.61172238300E+02 -0.56327025303E+02  0.98143571102E+03  0.98495219751E+03  0.00000000000E+00 0. -1.
<mgrwt>
<rscale>  0 0.64689933E+03</rscale>
<asrwt>0</asrwt>
<pdfrwt beam="1">0</pdfrwt>
<pdfrwt beam="2">  1        2 0.38043603E+00 0.64689933E+03</pdfrwt>
<totfact> 0.47106831E+00</totfact>
</mgrwt>
</event>
<event>
 5    1  0.2349912E-004  0.6527052E+03  0.7818608E-02  0.9801716E-01
         13   -1    0    0    0    0  0.00000000000E+00  0.00000000000E+00  0.10000000000E+04  0.10000000000E+04  0.00000000000E+00 0. -1.
          2   -1    0    0  501    0 -0.00000000000E+00 -0.00000000000E+00 -0.10650601828E+03  0.10650601828E+03  0.00000000000E+00 0. -1.
    9000006    2    1    2  501    0  0.00000000000E+00  0.00000000000E+00  0.89349398172E+03  0.11065060183E+04  0.65270519617E+03 0.  0.
         13    1    3    3    0    0  0.16475009914E+03  0.28069561125E+03  0.48734122906E+03  0.58603250326E+03  0.00000000000E+00 0. -1.
          4    1    3    3  501    0 -0.16475009914E+03 -0.28069561125E+03  0.40615275266E+03  0.52047351502E+03  0.00000000000E+00 0. -1.
<mgrwt>
<rscale>  0 0.65270520E+03</rscale>
<asrwt>0</asrwt>
<pdfrwt beam="1">0</pdfrwt>
<pdfrwt beam="2">  1        2 0.38729543E+00 0.65270520E+03</pdfrwt>
<totfact> 0.44412108E+00</totfact>
</mgrwt>
</event>
<event>
 5    1  0.2349912E-004  0.6548055E+03  0.7818608E-02  0.9797804E-01
         13   -1    0    0    0    0  0.00000000000E+00  0.00000000000E+00  0.10000000000E+04  0.10000000000E+04  0.00000000000E+00 0. -1.
          2   -1    0    0  501    0 -0.00000000000E+00 -0.00000000000E+00 -0.10719254818E+03  0.10719254818E+03  0.00000000000E+00 0. -1.
    9000006    2    1    2  501    0  0.00000000000E+00  0.00000000000E+00  0.89280745182E+03  0.11071925482E+04  0.65480546175E+03 0.  0.
         13    1    3    3    0    0  0.64032798846E+02 -0.24366248293E+03  0.79995761801E+03  0.83869171662E+03  0.00000000000E+00 0. -1.
          2    1    3    3  501    0 -0.64032798846E+02  0.24366248293E+03  0.92849833807E+02  0.26850083157E+03  0.00000000000E+00 0. -1.
<mgrwt>
<rscale>  0 0.65480546E+03</rscale>
<asrwt>0</asrwt>
<pdfrwt beam="1">0</pdfrwt>
<pdfrwt beam="2">  1        2 0.38979191E+00 0.65480546E+03</pdfrwt>
<totfact> 0.43466579E+00</totfact>
</mgrwt>
</event>
<event>
 5    1  0.2349912E-004  0.6524402E+03  0.7818608E-02  0.9802211E-01
         13   -1    0    0    0    0  0.00000000000E+00  0.00000000000E+00  0.10000000000E+04  0.10000000000E+04  0.00000000000E+00 0. -1.
          2   -1    0    0  501    0 -0.00000000000E+00 -0.00000000000E+00 -0.10641954402E+03  0.10641954402E+03  0.00000000000E+00 0. -1.
    9000006    2    1    2  501    0  0.00000000000E+00  0.00000000000E+00  0.89358045598E+03  0.11064195440E+04  0.65244017049E+03 0.  0.
         13    1    3    3    0    0  0.16674420527E+03  0.25959200447E+03  0.62648213405E+03  0.69833480728E+03  0.00000000000E+00 0. -1.
          2    1    3    3  501    0 -0.16674420527E+03 -0.25959200447E+03  0.26709832193E+03  0.40808473674E+03  0.00000000000E+00 0. -1.
<mgrwt>
<rscale>  0 0.65244017E+03</rscale>
<asrwt>0</asrwt>
<pdfrwt beam="1">0</pdfrwt>
<pdfrwt beam="2">  1        2 0.38698098E+00 0.65244017E+03</pdfrwt>
<totfact> 0.44532516E+00</totfact>
</mgrwt>
</event>
<event>
 5    1  0.2349912E-004  0.6348638E+03  0.7818608E-02  0.9835603E-01
         13   -1    0    0    0    0  0.00000000000E+00  0.00000000000E+00  0.10000000000E+04  0.10000000000E+04  0.00000000000E+00 0. -1.
          4   -1    0    0  501    0 -0.00000000000E+00 -0.00000000000E+00 -0.10076300505E+03  0.10076300505E+03  0.00000000000E+00 0. -1.
    9000006    2    1    2  501    0  0.00000000000E+00  0.00000000000E+00  0.89923699495E+03  0.11007630051E+04  0.63486378083E+03 0.  0.
         13    1    3    3    0    0  0.92084264869E+01  0.57257892719E+02  0.99073674693E+03  0.99243264915E+03  0.00000000000E+00 0. -1.
          2    1    3    3  501    0 -0.92084264869E+01 -0.57257892719E+02 -0.91499751979E+02  0.10833035590E+03  0.00000000000E+00 0. -1.
<mgrwt>
<rscale>  0 0.63486378E+03</rscale>
<asrwt>0</asrwt>
<pdfrwt beam="1">0</pdfrwt>
<pdfrwt beam="2">  1        4 0.36641170E+00 0.63486378E+03</pdfrwt>
<totfact> 0.54035019E-02</totfact>
</mgrwt>
</event>
<event>
 5    1  0.2349912E-004  0.6492091E+03  0.7818608E-02  0.9808264E-01
         13   -1    0    0    0    0  0.00000000000E+00  0.00000000000E+00  0.10000000000E+04  0.10000000000E+04  0.00000000000E+00 0. -1.
          2   -1    0    0  501    0 -0.00000000000E+00 -0.00000000000E+00 -0.10536812807E+03  0.10536812807E+03  0.00000000000E+00 0. -1.
    9000006    2    1    2  501    0  0.00000000000E+00  0.00000000000E+00  0.89463187193E+03  0.11053681281E+04  0.64920914370E+03 0.  0.
         13    1    3    3    0    0  0.77938672503E+02  0.27621518037E+03  0.70552739821E+03  0.76166801965E+03  0.00000000000E+00 0. -1.
          2    1    3    3  501    0 -0.77938672503E+02 -0.27621518037E+03  0.18910447373E+03  0.34370010841E+03  0.00000000000E+00 0. -1.
<mgrwt>
<rscale>  0 0.64920914E+03</rscale>
<asrwt>0</asrwt>
<pdfrwt beam="1">0</pdfrwt>
<pdfrwt beam="2">  1        2 0.38315764E+00 0.64920914E+03</pdfrwt>
<totfact> 0.46020375E+00</totfact>
</mgrwt>
</event>
<event>
 5    1  0.2349912E-004  0.6432103E+03  0.7818608E-02  0.9819604E-01
         13   -1    0    0    0    0  0.00000000000E+00  0.00000000000E+00  0.10000000000E+04  0.10000000000E+04  0.00000000000E+00 0. -1.
          2   -1    0    0  501    0 -0.00000000000E+00 -0.00000000000E+00 -0.10342986452E+03  0.10342986452E+03  0.00000000000E+00 0. -1.
    9000006    2    1    2  501    0  0.00000000000E+00  0.00000000000E+00  0.89657013548E+03  0.11034298645E+04  0.64321027517E+03 0.  0.
         13    1    3    3    0    0 -0.21449956117E+02  0.18798033115E+03  0.89442551355E+03  0.91421753691E+03  0.00000000000E+00 0. -1.
          2    1    3    3  501    0  0.21449956117E+02 -0.18798033115E+03  0.21446219335E+01  0.18921232761E+03  0.00000000000E+00 0. -1.
<mgrwt>
<rscale>  0 0.64321028E+03</rscale>
<asrwt>0</asrwt>
<pdfrwt beam="1">0</pdfrwt>
<pdfrwt beam="2">  1        2 0.37610939E+00 0.64321028E+03</pdfrwt>
<totfact> 0.48882140E+00</totfact>
</mgrwt>
</event>
<event>
 5    1  0.2349912E-004  0.6683265E+03  0.7818608E-02  0.9772986E-01
         13   -1    0    0    0    0  0.00000000000E+00  0.00000000000E+00  0.10000000000E+04  0.10000000000E+04  0.00000000000E+00 0. -1.
          2   -1    0    0  501    0 -0.00000000000E+00 -0.00000000000E+00 -0.11166506154E+03  0.11166506154E+03  0.00000000000E+00 0. -1.
    9000006    2    1    2  501    0  0.00000000000E+00  0.00000000000E+00  0.88833493846E+03  0.11116650615E+04  0.66832645179E+03 0.  0.
         13    1    3    3    0    0 -0.23819561445E+03  0.17080100868E+03  0.71110857867E+03  0.76914598482E+03  0.00000000000E+00 0. -1.
          2    1    3    3  501    0  0.23819561445E+03 -0.17080100868E+03  0.17722635979E+03  0.34251907672E+03  0.00000000000E+00 0. -1.
<mgrwt>
<rscale>  0 0.66832645E+03</rscale>
<asrwt>0</asrwt>
<pdfrwt beam="1">0</pdfrwt>
<pdfrwt beam="2">  1        2 0.40605563E+00 0.66832645E+03</pdfrwt>
<totfact> 0.37738335E+00</totfact>
</mgrwt>
</event>
<event>
 5    1  0.2349912E-004  0.6462384E+03  0.7818608E-02  0.9813863E-01
         13   -1    0    0    0    0  0.00000000000E+00  0.00000000000E+00  0.10000000000E+04  0.10000000000E+04  0.00000000000E+00 0. -1.
          2   -1    0    0  501    0 -0.00000000000E+00 -0.00000000000E+00 -0.10440601114E+03  0.10440601114E+03  0.00000000000E+00 0. -1.
    9000006    2    1    2  501    0  0.00000000000E+00  0.00000000000E+00  0.89559398886E+03  0.11044060111E+04  0.64623838059E+03 0.  0.
         13    1    3    3    0    0 -0.79534030009E+02  0.20034344368E+03  0.36423832505E+02  0.21860890405E+03  0.00000000000E+00 0. -1.
          4    1    3    3  501    0  0.79534030009E+02 -0.20034344368E+03  0.85917015636E+03  0.88579710709E+03  0.00000000000E+00 0. -1.
<mgrwt>
<rscale>  0 0.64623838E+03</rscale>
<asrwt>0</asrwt>
<pdfrwt beam="1">0</pdfrwt>
<pdfrwt beam="2">  1        2 0.37965902E+00 0.64623838E+03</pdfrwt>
<totfact> 0.47421259E+00</totfact>
</mgrwt>
</event>
<event>
 5    1  0.2349912E-004  0.5962000E+03  0.7818608E-02  0.9913321E-01
         13   -1    0    0    0    0  0.00000000000E+00  0.00000000000E+00  0.10000000000E+04  0.10000000000E+04  0.00000000000E+00 0. -1.
          2   -1    0    0  501    0 -0.00000000000E+00 -0.00000000000E+00 -0.88863601186E+02  0.88863601186E+02  0.00000000000E+00 0. -1.
    9000006    2    1    2  501    0  0.00000000000E+00  0.00000000000E+00  0.91113639881E+03  0.10888636012E+04  0.59619997043E+03 0.  0.
         13    1    3    3    0    0  0.17399018301E+03 -0.21151017390E+03  0.24059892510E+03  0.36455038089E+03  0.00000000000E+00 0. -1.
          2    1    3    3  501    0 -0.17399018301E+03  0.21151017390E+03  0.67053747371E+03  0.72431322030E+03  0.00000000000E+00 0. -1.
<mgrwt>
<rscale>  0 0.59619997E+03</rscale>
<asrwt>0</asrwt>
<pdfrwt beam="1">0</pdfrwt>
<pdfrwt beam="2">  1        2 0.32314105E+00 0.59619997E+03</pdfrwt>
<totfact> 0.76261951E+00</totfact>
</mgrwt>
</event>
<event>
 5    1  0.2349912E-004  0.6686920E+03  0.7818608E-02  0.9772324E-01
         13   -1    0    0    0    0  0.00000000000E+00  0.00000000000E+00  0.10000000000E+04  0.10000000000E+04  0.00000000000E+00 0. -1.
          2   -1    0    0  501    0 -0.00000000000E+00 -0.00000000000E+00 -0.11178724016E+03  0.11178724016E+03  0.00000000000E+00 0. -1.
    9000006    2    1    2  501    0  0.00000000000E+00  0.00000000000E+00  0.88821275984E+03  0.11117872402E+04  0.66869197739E+03 0.  0.
         13    1    3    3    0    0 -0.18467590896E+03  0.13391116184E+03  0.85051600099E+03  0.88057643538E+03  0.00000000000E+00 0. -1.
          4    1    3    3  501    0  0.18467590896E+03 -0.13391116184E+03  0.37696758856E+02  0.23121080477E+03  0.00000000000E+00 0. -1.
<mgrwt>
<rscale>  0 0.66869198E+03</rscale>
<asrwt>0</asrwt>
<pdfrwt beam="1">0</pdfrwt>
<pdfrwt beam="2">  1        2 0.40649991E+00 0.66869198E+03</pdfrwt>
<totfact> 0.37591848E+00</totfact>
</mgrwt>
</event>
<event>
 5    1  0.2349912E-004  0.6353167E+03  0.7818608E-02  0.9834728E-01
         13   -1    0    0    0    0  0.00000000000E+00  0.00000000000E+00  0.10000000000E+04  0.10000000000E+04  0.00000000000E+00 0. -1.
          2   -1    0    0  501    0 -0.00000000000E+00 -0.00000000000E+00 -0.10090681688E+03  0.10090681688E+03  0.00000000000E+00 0. -1.
    9000006    2    1    2  501    0  0.00000000000E+00  0.00000000000E+00  0.89909318312E+03  0.11009068169E+04  0.63531666713E+03 0.  0.
         13    1    3    3    0    0  0.22218655093E+03 -0.17705716951E+03  0.69577385088E+03  0.75154331629E+03  0.00000000000E+00 0. -1.
          4    1    3    3  501    0 -0.22218655093E+03  0.17705716951E+03  0.20331933224E+03  0.34936350060E+03  0.00000000000E+00 0. -1.
<mgrwt>
<rscale>  0 0.63531667E+03</rscale>
<asrwt>0</asrwt>
<pdfrwt beam="1">0</pdfrwt>
<pdfrwt beam="2">  1        2 0.36693465E+00 0.63531667E+03</pdfrwt>
<totfact> 0.52851019E+00</totfact>
</mgrwt>
</event>
<event>
 5    1  0.2349912E-004  0.6362189E+03  0.7818608E-02  0.9832988E-01
         13   -1    0    0    0    0  0.00000000000E+00  0.00000000000E+00  0.10000000000E+04  0.10000000000E+04  0.00000000000E+00 0. -1.
          2   -1    0    0  501    0 -0.00000000000E+00 -0.00000000000E+00 -0.10119362413E+03  0.10119362413E+03  0.00000000000E+00 0. -1.
    9000006    2    1    2  501    0  0.00000000000E+00  0.00000000000E+00  0.89880637587E+03  0.11011936241E+04  0.63621890613E+03 0.  0.
         13    1    3    3    0    0  0.41467031240E+02 -0.23628134244E+03  0.81100079179E+03  0.84573676268E+03  0.00000000000E+00 0. -1.
          4    1    3    3  501    0 -0.41467031240E+02  0.23628134244E+03  0.87805584081E+02  0.25545686145E+03  0.00000000000E+00 0. -1.
<mgrwt>
<rscale>  0 0.63621891E+03</rscale>
<asrwt>0</asrwt>
<pdfrwt beam="1">0</pdfrwt>
<pdfrwt beam="2">  1        2 0.36797759E+00 0.63621891E+03</pdfrwt>
<totfact> 0.52385432E+00</totfact>
</mgrwt>
</event>
<event>
 5    1  0.2349912E-004  0.6470621E+03  0.7818608E-02  0.9812308E-01
         13   -1    0    0    0    0  0.00000000000E+00  0.00000000000E+00  0.10000000000E+04  0.10000000000E+04  0.00000000000E+00 0. -1.
          2   -1    0    0  501    0 -0.00000000000E+00 -0.00000000000E+00 -0.10467235608E+03  0.10467235608E+03  0.00000000000E+00 0. -1.
    9000006    2    1    2  501    0  0.00000000000E+00  0.00000000000E+00  0.89532764392E+03  0.11046723561E+04  0.64706214872E+03 0.  0.
         13    1    3    3    0    0  0.17982480205E+03 -0.55445713751E+02 -0.16320213372E+01  0.18818567985E+03  0.00000000000E+00 0. -1.
          2    1    3    3  501    0 -0.17982480205E+03  0.55445713751E+02  0.89695966526E+03  0.91648667623E+03  0.00000000000E+00 0. -1.
<mgrwt>
<rscale>  0 0.64706215E+03</rscale>
<asrwt>0</asrwt>
<pdfrwt beam="1">0</pdfrwt>
<pdfrwt beam="2">  1        2 0.38062755E+00 0.64706215E+03</pdfrwt>
<totfact> 0.47029619E+00</totfact>
</mgrwt>
</event>
<event>
 5    1  0.2349912E-004  0.6533985E+03  0.7818608E-02  0.9800423E-01
         13   -1    0    0    0    0  0.00000000000E+00  0.00000000000E+00  0.10000000000E+04  0.10000000000E+04  0.00000000000E+00 0. -1.
          2   -1    0    0  501    0 -0.00000000000E+00 -0.00000000000E+00 -0.10673239270E+03  0.10673239270E+03  0.00000000000E+00 0. -1.
    9000006    2    1    2  501    0  0.00000000000E+00  0.00000000000E+00  0.89326760730E+03  0.11067323927E+04  0.65339847781E+03 0.  0.
         13    1    3    3    0    0 -0.13172168299E+03  0.29894997799E+03  0.44109279639E+03  0.54889392977E+03  0.00000000000E+00 0. -1.
          2    1    3    3  501    0  0.13172168299E+03 -0.29894997799E+03  0.45217481090E+03  0.55783846293E+03  0.00000000000E+00 0. -1.
<mgrwt>
<rscale>  0 0.65339848E+03</rscale>
<asrwt>0</asrwt>
<pdfrwt beam="1">0</pdfrwt>
<pdfrwt beam="2">  1        2 0.38811861E+00 0.65339848E+03</pdfrwt>
<totfact> 0.44098296E+00</totfact>
</mgrwt>
</event>
<event>
 5    1  0.2349912E-004  0.5075974E+03  0.7818608E-02  0.1011815E+00
         13   -1    0    0    0    0  0.00000000000E+00  0.00000000000E+00  0.10000000000E+04  0.10000000000E+04  0.00000000000E+00 0. -1.
          2   -1    0    0  501    0 -0.00000000000E+00 -0.00000000000E+00 -0.64413789481E+02  0.64413789481E+02  0.00000000000E+00 0. -1.
    9000006    2    1    2  501    0  0.00000000000E+00  0.00000000000E+00  0.93558621052E+03  0.10644137895E+04  0.50759743688E+03 0.  0.
         13    1    3    3    0    0 -0.53873976584E+02 -0.66062083885E+02 -0.33496262870E+02  0.91589322011E+02  0.00000000000E+00 0. -1.
          2    1    3    3  501    0  0.53873976584E+02  0.66062083885E+02  0.96908247339E+03  0.97282446747E+03  0.00000000000E+00 0. -1.
<mgrwt>
<rscale>  0 0.50759744E+03</rscale>
<asrwt>0</asrwt>
<pdfrwt beam="1">0</pdfrwt>
<pdfrwt beam="2">  1        2 0.23423246E+00 0.50759744E+03</pdfrwt>
<totfact> 0.15891894E+01</totfact>
</mgrwt>
</event>
<event>
 5    1  0.2349912E-004  0.6080306E+03  0.7818608E-02  0.9888884E-01
         13   -1    0    0    0    0  0.00000000000E+00  0.00000000000E+00  0.10000000000E+04  0.10000000000E+04  0.00000000000E+00 0. -1.
          2   -1    0    0  501    0 -0.00000000000E+00 -0.00000000000E+00 -0.92425292237E+02  0.92425292237E+02  0.00000000000E+00 0. -1.
    9000006    2    1    2  501    0  0.00000000000E+00  0.00000000000E+00  0.90757470776E+03  0.10924252922E+04  0.60803056580E+03 0.  0.
         13    1    3    3    0    0  0.23854749897E+03  0.35011282676E+02  0.12106715912E+03  0.26979243169E+03  0.00000000000E+00 0. -1.
          4    1    3    3  501    0 -0.23854749897E+03 -0.35011282676E+02  0.78650754864E+03  0.82263286054E+03  0.00000000000E+00 0. -1.
<mgrwt>
<rscale>  0 0.60803057E+03</rscale>
<asrwt>0</asrwt>
<pdfrwt beam="1">0</pdfrwt>
<pdfrwt beam="2">  1        2 0.33609268E+00 0.60803057E+03</pdfrwt>
<totfact> 0.68482739E+00</totfact>
</mgrwt>
</event>
<event>
 5    1  0.2349912E-004  0.6453287E+03  0.7818608E-02  0.9815584E-01
         13   -1    0    0    0    0  0.00000000000E+00  0.00000000000E+00  0.10000000000E+04  0.10000000000E+04  0.00000000000E+00 0. -1.
          2   -1    0    0  501    0 -0.00000000000E+00 -0.00000000000E+00 -0.10411227141E+03  0.10411227141E+03  0.00000000000E+00 0. -1.
    9000006    2    1    2  501    0  0.00000000000E+00  0.00000000000E+00  0.89588772859E+03  0.11041122714E+04  0.64532866483E+03 0.  0.
         13    1    3    3    0    0 -0.59517678832E+02 -0.18460282327E+03  0.67636294275E+01  0.19407808515E+03  0.00000000000E+00 0. -1.
          4    1    3    3  501    0  0.59517678832E+02  0.18460282327E+03  0.88912409916E+03  0.91003418626E+03  0.00000000000E+00 0. -1.
<mgrwt>
<rscale>  0 0.64532866E+03</rscale>
<asrwt>0</asrwt>
<pdfrwt beam="1">0</pdfrwt>
<pdfrwt beam="2">  1        2 0.37859088E+00 0.64532866E+03</pdfrwt>
<totfact> 0.47856622E+00</totfact>
</mgrwt>
</event>
<event>
 5    1  0.2349912E-004  0.6440493E+03  0.7818608E-02  0.9818010E-01
         13   -1    0    0    0    0  0.00000000000E+00  0.00000000000E+00  0.10000000000E+04  0.10000000000E+04  0.00000000000E+00 0. -1.
          2   -1    0    0  501    0 -0.00000000000E+00 -0.00000000000E+00 -0.10369988021E+03  0.10369988021E+03  0.00000000000E+00 0. -1.
    9000006    2    1    2  501    0  0.00000000000E+00  0.00000000000E+00  0.89630011979E+03  0.11036998802E+04  0.64404931555E+03 0.  0.
         13    1    3    3    0    0  0.56960043581E+02  0.29204736355E+03  0.65917582440E+03  0.72322118096E+03  0.00000000000E+00 0. -1.
          2    1    3    3  501    0 -0.56960043581E+02 -0.29204736355E+03  0.23712429539E+03  0.38047869925E+03  0.00000000000E+00 0. -1.
<mgrwt>
<rscale>  0 0.64404932E+03</rscale>
<asrwt>0</asrwt>
<pdfrwt beam="1">0</pdfrwt>
<pdfrwt beam="2">  1        2 0.37709127E+00 0.64404932E+03</pdfrwt>
<totfact> 0.48473990E+00</totfact>
</mgrwt>
</event>
<event>
 5    1  0.2349912E-004  0.6686933E+03  0.7818608E-02  0.9772321E-01
         13   -1    0    0    0    0  0.00000000000E+00  0.00000000000E+00  0.10000000000E+04  0.10000000000E+04  0.00000000000E+00 0. -1.
          2   -1    0    0  501    0 -0.00000000000E+00 -0.00000000000E+00 -0.11178768711E+03  0.11178768711E+03  0.00000000000E+00 0. -1.
    9000006    2    1    2  501    0  0.00000000000E+00  0.00000000000E+00  0.88821231289E+03  0.11117876871E+04  0.66869331419E+03 0.  0.
         13    1    3    3    0    0 -0.21588777886E+03 -0.15698493446E+00  0.86858151921E+03  0.89500916935E+03  0.00000000000E+00 0. -1.
          2    1    3    3  501    0  0.21588777886E+03  0.15698493446E+00  0.19630793680E+02  0.21677851776E+03  0.00000000000E+00 0. -1.
<mgrwt>
<rscale>  0 0.66869331E+03</rscale>
<asrwt>0</asrwt>
<pdfrwt beam="1">0</pdfrwt>
<pdfrwt beam="2">  1        2 0.40650154E+00 0.66869331E+03</pdfrwt>
<totfact> 0.37591313E+00</totfact>
</mgrwt>
</event>
<event>
 5    1  0.2349912E-004  0.6367758E+03  0.7818608E-02  0.9831915E-01
         13   -1    0    0    0    0  0.00000000000E+00  0.00000000000E+00  0.10000000000E+04  0.10000000000E+04  0.00000000000E+00 0. -1.
          2   -1    0    0  501    0 -0.00000000000E+00 -0.00000000000E+00 -0.10137084171E+03  0.10137084171E+03  0.00000000000E+00 0. -1.
    9000006    2    1    2  501    0  0.00000000000E+00  0.00000000000E+00  0.89862915829E+03  0.11013708417E+04  0.63677575868E+03 0.  0.
         13    1    3    3    0    0 -0.10653687378E+03 -0.20434014760E+03  0.69329110719E+02  0.24064813939E+03  0.00000000000E+00 0. -1.
          4    1    3    3  501    0  0.10653687378E+03  0.20434014760E+03  0.82930004757E+03  0.86072270232E+03  0.00000000000E+00 0. -1.
<mgrwt>
<rscale>  0 0.63677576E+03</rscale>
<asrwt>0</asrwt>
<pdfrwt beam="1">0</pdfrwt>
<pdfrwt beam="2">  1        2 0.36862202E+00 0.63677576E+03</pdfrwt>
<totfact> 0.52099633E+00</totfact>
</mgrwt>
</event>
<event>
 5    1  0.2349912E-004  0.7192977E+03  0.7818608E-02  0.9684788E-01
         13   -1    0    0    0    0  0.00000000000E+00  0.00000000000E+00  0.10000000000E+04  0.10000000000E+04  0.00000000000E+00 0. -1.
          2   -1    0    0  501    0 -0.00000000000E+00 -0.00000000000E+00 -0.12934731141E+03  0.12934731141E+03  0.00000000000E+00 0. -1.
    9000006    2    1    2  501    0  0.00000000000E+00  0.00000000000E+00  0.87065268859E+03  0.11293473114E+04  0.71929774478E+03 0.  0.
         13    1    3    3    0    0  0.20477781336E+03 -0.28407864681E+03  0.30668907037E+03  0.46550275649E+03  0.00000000000E+00 0. -1.
          2    1    3    3  501    0 -0.20477781336E+03  0.28407864681E+03  0.56396361822E+03  0.66384455492E+03  0.00000000000E+00 0. -1.
<mgrwt>
<rscale>  0 0.71929774E+03</rscale>
<asrwt>0</asrwt>
<pdfrwt beam="1">0</pdfrwt>
<pdfrwt beam="2">  1        2 0.47035485E+00 0.71929774E+03</pdfrwt>
<totfact> 0.21088989E+00</totfact>
</mgrwt>
</event>
<event>
 5    1  0.2349912E-004  0.6456699E+03  0.7818608E-02  0.9814938E-01
         13   -1    0    0    0    0  0.00000000000E+00  0.00000000000E+00  0.10000000000E+04  0.10000000000E+04  0.00000000000E+00 0. -1.
          2   -1    0    0  501    0 -0.00000000000E+00 -0.00000000000E+00 -0.10422241085E+03  0.10422241085E+03  0.00000000000E+00 0. -1.
    9000006    2    1    2  501    0  0.00000000000E+00  0.00000000000E+00  0.89577758915E+03  0.11042224109E+04  0.64566991831E+03 0.  0.
         13    1    3    3    0    0  0.86393666493E+02  0.29443000029E+03  0.27627571207E+03  0.41289364219E+03  0.00000000000E+00 0. -1.
          2    1    3    3  501    0 -0.86393666493E+02 -0.29443000029E+03  0.61950187708E+03  0.69132876867E+03  0.00000000000E+00 0. -1.
<mgrwt>
<rscale>  0 0.64566992E+03</rscale>
<asrwt>0</asrwt>
<pdfrwt beam="1">0</pdfrwt>
<pdfrwt beam="2">  1        2 0.37899138E+00 0.64566992E+03</pdfrwt>
<totfact> 0.47692955E+00</totfact>
</mgrwt>
</event>
<event>
 5    1  0.2349912E-004  0.6442734E+03  0.7818608E-02  0.9817584E-01
         13   -1    0    0    0    0  0.00000000000E+00  0.00000000000E+00  0.10000000000E+04  0.10000000000E+04  0.00000000000E+00 0. -1.
          2   -1    0    0  501    0 -0.00000000000E+00 -0.00000000000E+00 -0.10377205027E+03  0.10377205027E+03  0.00000000000E+00 0. -1.
    9000006    2    1    2  501    0  0.00000000000E+00  0.00000000000E+00  0.89622794973E+03  0.11037720503E+04  0.64427339001E+03 0.  0.
         13    1    3    3    0    0  0.60057132532E+02 -0.17744041132E+03  0.89709153026E+03  0.91644158155E+03  0.00000000000E+00 0. -1.
          4    1    3    3  501    0 -0.60057132532E+02  0.17744041132E+03 -0.86358052754E+00  0.18733046872E+03  0.00000000000E+00 0. -1.
<mgrwt>
<rscale>  0 0.64427339E+03</rscale>
<asrwt>0</asrwt>
<pdfrwt beam="1">0</pdfrwt>
<pdfrwt beam="2">  1        2 0.37735371E+00 0.64427339E+03</pdfrwt>
<totfact> 0.48365426E+00</totfact>
</mgrwt>
</event>
<event>
 5    1  0.2349912E-004  0.6710173E+03  0.7818608E-02  0.9768122E-01
         13   -1    0    0    0    0  0.00000000000E+00  0.00000000000E+00  0.10000000000E+04  0.10000000000E+04  0.00000000000E+00 0. -1.
          2   -1    0    0  501    0 -0.00000000000E+00 -0.00000000000E+00 -0.11256604844E+03  0.11256604844E+03  0.00000000000E+00 0. -1.
    9000006    2    1    2  501    0  0.00000000000E+00  0.00000000000E+00  0.88743395156E+03  0.11125660484E+04  0.67101728275E+03 0.  0.
         13    1    3    3    0    0  0.20018904053E+03 -0.13705897599E+03  0.59478897469E+02  0.24979702578E+03  0.00000000000E+00 0. -1.
          2    1    3    3  501    0 -0.20018904053E+03  0.13705897599E+03  0.82795505409E+03  0.86276902265E+03  0.00000000000E+00 0. -1.
<mgrwt>
<rscale>  0 0.67101728E+03</rscale>
<asrwt>0</asrwt>
<pdfrwt beam="1">0</pdfrwt>
<pdfrwt beam="2">  1        2 0.40933195E+00 0.67101728E+03</pdfrwt>
<totfact> 0.36669971E+00</totfact>
</mgrwt>
</event>
<event>
 5    1  0.2349912E-004  0.6192159E+03  0.7818608E-02  0.9866322E-01
         13   -1    0    0    0    0  0.00000000000E+00  0.00000000000E+00  0.10000000000E+04  0.10000000000E+04  0.00000000000E+00 0. -1.
          2   -1    0    0  501    0 -0.00000000000E+00 -0.00000000000E+00 -0.95857084478E+02  0.95857084478E+02  0.00000000000E+00 0. -1.
    9000006    2    1    2  501    0  0.00000000000E+00  0.00000000000E+00  0.90414291552E+03  0.10958570845E+04  0.61921590573E+03 0.  0.
         13    1    3    3    0    0  0.85020300448E+02  0.10405030692E+03  0.94570840941E+03  0.95520642454E+03  0.00000000000E+00 0. -1.
          4    1    3    3  501    0 -0.85020300448E+02 -0.10405030692E+03 -0.41565493887E+02  0.14065065994E+03  0.00000000000E+00 0. -1.
<mgrwt>
<rscale>  0 0.61921591E+03</rscale>
<asrwt>0</asrwt>
<pdfrwt beam="1">0</pdfrwt>
<pdfrwt beam="2">  1        2 0.34857195E+00 0.61921591E+03</pdfrwt>
<totfact> 0.61700716E+00</totfact>
</mgrwt>
</event>
<event>
 5    1  0.2349912E-004  0.6392577E+03  0.7818608E-02  0.9827148E-01
         13   -1    0    0    0    0  0.00000000000E+00  0.00000000000E+00  0.10000000000E+04  0.10000000000E+04  0.00000000000E+00 0. -1.
          4   -1    0    0  501    0 -0.00000000000E+00 -0.00000000000E+00 -0.10216261624E+03  0.10216261624E+03  0.00000000000E+00 0. -1.
    9000006    2    1    2  501    0  0.00000000000E+00  0.00000000000E+00  0.89783738376E+03  0.11021626162E+04  0.63925774533E+03 0.  0.
         13    1    3    3    0    0 -0.65003747266E+02 -0.16418989322E+03 -0.10421056925E+02  0.17689659867E+03  0.00000000000E+00 0. -1.
          4    1    3    3  501    0  0.65003747266E+02  0.16418989322E+03  0.90825844068E+03  0.92526601757E+03  0.00000000000E+00 0. -1.
<mgrwt>
<rscale>  0 0.63925775E+03</rscale>
<asrwt>0</asrwt>
<pdfrwt beam="1">0</pdfrwt>
<pdfrwt beam="2">  1        4 0.37150121E+00 0.63925775E+03</pdfrwt>
<totfact> 0.50002511E-02</totfact>
</mgrwt>
</event>
<event>
 5    1  0.2349912E-004  0.6367232E+03  0.7818608E-02  0.9832016E-01
         13   -1    0    0    0    0  0.00000000000E+00  0.00000000000E+00  0.10000000000E+04  0.10000000000E+04  0.00000000000E+00 0. -1.
          2   -1    0    0  501    0 -0.00000000000E+00 -0.00000000000E+00 -0.10135409951E+03  0.10135409951E+03  0.00000000000E+00 0. -1.
    9000006    2    1    2  501    0  0.00000000000E+00  0.00000000000E+00  0.89864590049E+03  0.11013540995E+04  0.63672317221E+03 0.  0.
         13    1    3    3    0    0  0.87896056669E+02  0.57069282757E+02 -0.70663484359E+02  0.12639599612E+03  0.00000000000E+00 0. -1.
          4    1    3    3  501    0 -0.87896056669E+02 -0.57069282757E+02  0.96930938485E+03  0.97495810339E+03  0.00000000000E+00 0. -1.
<mgrwt>
<rscale>  0 0.63672317E+03</rscale>
<asrwt>0</asrwt>
<pdfrwt beam="1">0</pdfrwt>
<pdfrwt beam="2">  1        2 0.36856114E+00 0.63672317E+03</pdfrwt>
<totfact> 0.52126572E+00</totfact>
</mgrwt>
</event>
<event>
 5    1  0.2349912E-004  0.4596134E+03  0.7818608E-02  0.1024893E+00
         13   -1    0    0    0    0  0.00000000000E+00  0.00000000000E+00  0.10000000000E+04  0.10000000000E+04  0.00000000000E+00 0. -1.
          2   -1    0    0  501    0 -0.00000000000E+00 -0.00000000000E+00 -0.52811110874E+02  0.52811110874E+02  0.00000000000E+00 0. -1.
    9000006    2    1    2  501    0  0.00000000000E+00  0.00000000000E+00  0.94718888913E+03  0.10528111109E+04  0.45961336305E+03 0.  0.
         13    1    3    3    0    0  0.60422258636E+02  0.36092689462E+02 -0.27515678750E+02  0.75568804068E+02  0.00000000000E+00 0. -1.
          4    1    3    3  501    0 -0.60422258636E+02 -0.36092689462E+02  0.97470456788E+03  0.97724230681E+03  0.00000000000E+00 0. -1.
<mgrwt>
<rscale>  0 0.45961336E+03</rscale>
<asrwt>0</asrwt>
<pdfrwt beam="1">0</pdfrwt>
<pdfrwt beam="2">  1        2 0.19204081E+00 0.45961336E+03</pdfrwt>
<totfact> 0.22766415E+01</totfact>
</mgrwt>
</event>
<event>
 5    1  0.2349912E-004  0.6597923E+03  0.7818608E-02  0.9788576E-01
         13   -1    0    0    0    0  0.00000000000E+00  0.00000000000E+00  0.10000000000E+04  0.10000000000E+04  0.00000000000E+00 0. -1.
          2   -1    0    0  501    0 -0.00000000000E+00 -0.00000000000E+00 -0.10883148239E+03  0.10883148239E+03  0.00000000000E+00 0. -1.
    9000006    2    1    2  501    0  0.00000000000E+00  0.00000000000E+00  0.89116851761E+03  0.11088314824E+04  0.65979233820E+03 0.  0.
         13    1    3    3    0    0  0.36372239611E+02  0.18793122480E+02  0.99571413646E+03  0.99655544894E+03  0.00000000000E+00 0. -1.
          4    1    3    3  501    0 -0.36372239611E+02 -0.18793122480E+02 -0.10454561884E+03  0.11227603345E+03  0.00000000000E+00 0. -1.
<mgrwt>
<rscale>  0 0.65979234E+03</rscale>
<asrwt>0</asrwt>
<pdfrwt beam="1">0</pdfrwt>
<pdfrwt beam="2">  1        2 0.39575168E+00 0.65979234E+03</pdfrwt>
<totfact> 0.41282481E+00</totfact>
</mgrwt>
</event>
<event>
 5    1  0.2349912E-004  0.7252980E+03  0.7818608E-02  0.9674921E-01
         13   -1    0    0    0    0  0.00000000000E+00  0.00000000000E+00  0.10000000000E+04  0.10000000000E+04  0.00000000000E+00 0. -1.
          2   -1    0    0  501    0 -0.00000000000E+00 -0.00000000000E+00 -0.13151429050E+03  0.13151429050E+03  0.00000000000E+00 0. -1.
    9000006    2    1    2  501    0  0.00000000000E+00  0.00000000000E+00  0.86848570950E+03  0.11315142905E+04  0.72529798153E+03 0.  0.
         13    1    3    3    0    0 -0.19983343198E+03  0.23708008055E+03  0.14082590228E+03  0.34054705972E+03  0.00000000000E+00 0. -1.
          4    1    3    3  501    0  0.19983343198E+03 -0.23708008055E+03  0.72765980721E+03  0.79096723078E+03  0.00000000000E+00 0. -1.
<mgrwt>
<rscale>  0 0.72529798E+03</rscale>
<asrwt>0</asrwt>
<pdfrwt beam="1">0</pdfrwt>
<pdfrwt beam="2">  1        2 0.47823479E+00 0.72529798E+03</pdfrwt>
<totfact> 0.19578488E+00</totfact>
</mgrwt>
</event>
<event>
 5    1  0.2349912E-004  0.6345449E+03  0.7818608E-02  0.9836220E-01
         13   -1    0    0    0    0  0.00000000000E+00  0.00000000000E+00  0.10000000000E+04  0.10000000000E+04  0.00000000000E+00 0. -1.
          2   -1    0    0  501    0 -0.00000000000E+00 -0.00000000000E+00 -0.10066180475E+03  0.10066180475E+03  0.00000000000E+00 0. -1.
    9000006    2    1    2  501    0  0.00000000000E+00  0.00000000000E+00  0.89933819525E+03  0.11006618047E+04  0.63454489123E+03 0.  0.
         13    1    3    3    0    0  0.28700463155E+03 -0.12439663347E+03  0.54170957397E+03  0.62553612484E+03  0.00000000000E+00 0. -1.
          2    1    3    3  501    0 -0.28700463155E+03  0.12439663347E+03  0.35762862128E+03  0.47512567991E+03  0.00000000000E+00 0. -1.
<mgrwt>
<rscale>  0 0.63454489E+03</rscale>
<asrwt>0</asrwt>
<pdfrwt beam="1">0</pdfrwt>
<pdfrwt beam="2">  1        2 0.36604370E+00 0.63454489E+03</pdfrwt>
<totfact> 0.53251765E+00</totfact>
</mgrwt>
</event>
<event>
 5    1  0.2349912E-004  0.6534656E+03  0.7818608E-02  0.9800298E-01
         13   -1    0    0    0    0  0.00000000000E+00  0.00000000000E+00  0.10000000000E+04  0.10000000000E+04  0.00000000000E+00 0. -1.
          2   -1    0    0  501    0 -0.00000000000E+00 -0.00000000000E+00 -0.10675430981E+03  0.10675430981E+03  0.00000000000E+00 0. -1.
    9000006    2    1    2  501    0  0.00000000000E+00  0.00000000000E+00  0.89324569019E+03  0.11067543098E+04  0.65346556086E+03 0.  0.
         13    1    3    3    0    0 -0.23986077072E+03 -0.12312919988E+03  0.75919686890E+03  0.80565121172E+03  0.00000000000E+00 0. -1.
          4    1    3    3  501    0  0.23986077072E+03  0.12312919988E+03  0.13404882129E+03  0.30110309809E+03  0.00000000000E+00 0. -1.
<mgrwt>
<rscale>  0 0.65346556E+03</rscale>
<asrwt>0</asrwt>
<pdfrwt beam="1">0</pdfrwt>
<pdfrwt beam="2">  1        2 0.38819831E+00 0.65346556E+03</pdfrwt>
<totfact> 0.44068020E+00</totfact>
</mgrwt>
</event>
<event>
 5    1  0.2349912E-004  0.6795602E+03  0.7818608E-02  0.9752840E-01
         13   -1    0    0    0    0  0.00000000000E+00  0.00000000000E+00  0.10000000000E+04  0.10000000000E+04  0.00000000000E+00 0. -1.
          2   -1    0    0  501    0 -0.00000000000E+00 -0.00000000000E+00 -0.11545051671E+03  0.11545051671E+03  0.00000000000E+00 0. -1.
    9000006    2    1    2  501    0  0.00000000000E+00  0.00000000000E+00  0.88454948329E+03  0.11154505167E+04  0.67956020105E+03 0.  0.
         13    1    3    3    0    0 -0.27391524506E+03  0.19602646998E+03  0.51558215877E+03  0.61585785767E+03  0.00000000000E+00 0. -1.
          2    1    3    3  501    0  0.27391524506E+03 -0.19602646998E+03  0.36896732452E+03  0.49959265904E+03  0.00000000000E+00 0. -1.
<mgrwt>
<rscale>  0 0.67956020E+03</rscale>
<asrwt>0</asrwt>
<pdfrwt beam="1">0</pdfrwt>
<pdfrwt beam="2">  1        2 0.41982095E+00 0.67956020E+03</pdfrwt>
<totfact> 0.33428791E+00</totfact>
</mgrwt>
</event>
<event>
 5    1  0.2349912E-004  0.6592813E+03  0.7818608E-02  0.9789518E-01
         13   -1    0    0    0    0  0.00000000000E+00  0.00000000000E+00  0.10000000000E+04  0.10000000000E+04  0.00000000000E+00 0. -1.
          2   -1    0    0  501    0 -0.00000000000E+00 -0.00000000000E+00 -0.10866296741E+03  0.10866296741E+03  0.00000000000E+00 0. -1.
    9000006    2    1    2  501    0  0.00000000000E+00  0.00000000000E+00  0.89133703259E+03  0.11086629674E+04  0.65928132816E+03 0.  0.
         13    1    3    3    0    0  0.68910691084E+02 -0.30259908229E+02  0.98535864210E+03  0.98822871794E+03  0.00000000000E+00 0. -1.
          4    1    3    3  501    0 -0.68910691084E+02  0.30259908229E+02 -0.94021609515E+02  0.12043424948E+03  0.00000000000E+00 0. -1.
<mgrwt>
<rscale>  0 0.65928133E+03</rscale>
<asrwt>0</asrwt>
<pdfrwt beam="1">0</pdfrwt>
<pdfrwt beam="2">  1        2 0.39513890E+00 0.65928133E+03</pdfrwt>
<totfact> 0.41502379E+00</totfact>
</mgrwt>
</event>
<event>
 5    1  0.2349912E-004  0.6584483E+03  0.7818608E-02  0.9791054E-01
         13   -1    0    0    0    0  0.00000000000E+00  0.00000000000E+00  0.10000000000E+04  0.10000000000E+04  0.00000000000E+00 0. -1.
          2   -1    0    0  501    0 -0.00000000000E+00 -0.00000000000E+00 -0.10838853679E+03  0.10838853679E+03  0.00000000000E+00 0. -1.
    9000006    2    1    2  501    0  0.00000000000E+00  0.00000000000E+00  0.89161146321E+03  0.11083885368E+04  0.65844828738E+03 0.  0.
         13    1    3    3    0    0  0.11326350726E+03 -0.28605168835E+03  0.24852968778E+03  0.39550119619E+03  0.00000000000E+00 0. -1.
          4    1    3    3  501    0 -0.11326350726E+03  0.28605168835E+03  0.64308177544E+03  0.71288734060E+03  0.00000000000E+00 0. -1.
<mgrwt>
<rscale>  0 0.65844829E+03</rscale>
<asrwt>0</asrwt>
<pdfrwt beam="1">0</pdfrwt>
<pdfrwt beam="2">  1        2 0.39414096E+00 0.65844829E+03</pdfrwt>
<totfact> 0.41862748E+00</totfact>
</mgrwt>
</event>
<event>
 5    1  0.2349912E-004  0.6091609E+03  0.7818608E-02  0.9886580E-01
         13   -1    0    0    0    0  0.00000000000E+00  0.00000000000E+00  0.10000000000E+04  0.10000000000E+04  0.00000000000E+00 0. -1.
          2   -1    0    0  501    0 -0.00000000000E+00 -0.00000000000E+00 -0.92769240048E+02  0.92769240048E+02  0.00000000000E+00 0. -1.
    9000006    2    1    2  501    0  0.00000000000E+00  0.00000000000E+00  0.90723075995E+03  0.10927692400E+04  0.60916086561E+03 0.  0.
         13    1    3    3    0    0 -0.18559455520E+03  0.23577668872E+03  0.54740104821E+03  0.62424666074E+03  0.00000000000E+00 0. -1.
          2    1    3    3  501    0  0.18559455520E+03 -0.23577668872E+03  0.35982971174E+03  0.46852257931E+03  0.00000000000E+00 0. -1.
<mgrwt>
<rscale>  0 0.60916087E+03</rscale>
<asrwt>0</asrwt>
<pdfrwt beam="1">0</pdfrwt>
<pdfrwt beam="2">  1        2 0.33734340E+00 0.60916087E+03</pdfrwt>
<totfact> 0.67772656E+00</totfact>
</mgrwt>
</event>
<event>
 5    1  0.2349912E-004  0.6457276E+03  0.7818608E-02  0.9814829E-01
         13   -1    0    0    0    0  0.00000000000E+00  0.00000000000E+00  0.10000000000E+04  0.10000000000E+04  0.00000000000E+00 0. -1.
          2   -1    0    0  501    0 -0.00000000000E+00 -0.00000000000E+00 -0.10424102897E+03  0.10424102897E+03  0.00000000000E+00 0. -1.
    9000006    2    1    2  501    0  0.00000000000E+00  0.00000000000E+00  0.89575897103E+03  0.11042410290E+04  0.64572758644E+03 0.  0.
         13    1    3    3    0    0  0.27285648439E+03 -0.16980082110E+03  0.50081028000E+03  0.59505791018E+03  0.00000000000E+00 0. -1.
          4    1    3    3  501    0 -0.27285648439E+03  0.16980082110E+03  0.39494869103E+03  0.50918311879E+03  0.00000000000E+00 0. -1.
<mgrwt>
<rscale>  0 0.64572759E+03</rscale>
<asrwt>0</asrwt>
<pdfrwt beam="1">0</pdfrwt>
<pdfrwt beam="2">  1        2 0.37905909E+00 0.64572759E+03</pdfrwt>
<totfact> 0.47665339E+00</totfact>
</mgrwt>
</event>
<event>
 5    1  0.2349912E-004  0.6156800E+03  0.7818608E-02  0.9873399E-01
         13   -1    0    0    0    0  0.00000000000E+00  0.00000000000E+00  0.10000000000E+04  0.10000000000E+04  0.00000000000E+00 0. -1.
          2   -1    0    0  501    0 -0.00000000000E+00 -0.00000000000E+00 -0.94765475392E+02  0.94765475392E+02  0.00000000000E+00 0. -1.
    9000006    2    1    2  501    0  0.00000000000E+00  0.00000000000E+00  0.90523452461E+03  0.10947654754E+04  0.61568003181E+03 0.  0.
         13    1    3    3    0    0 -0.14366516137E+03  0.15004554167E+03  0.48653949429E+02  0.21335545449E+03  0.00000000000E+00 0. -1.
          2    1    3    3  501    0  0.14366516137E+03 -0.15004554167E+03  0.85658057518E+03  0.88141002090E+03  0.00000000000E+00 0. -1.
<mgrwt>
<rscale>  0 0.61568003E+03</rscale>
<asrwt>0</asrwt>
<pdfrwt beam="1">0</pdfrwt>
<pdfrwt beam="2">  1        2 0.34460246E+00 0.61568003E+03</pdfrwt>
<totfact> 0.63786484E+00</totfact>
</mgrwt>
</event>
<event>
 5    1  0.2349912E-004  0.6656198E+03  0.7818608E-02  0.9777903E-01
         13   -1    0    0    0    0  0.00000000000E+00  0.00000000000E+00  0.10000000000E+04  0.10000000000E+04  0.00000000000E+00 0. -1.
          2   -1    0    0  501    0 -0.00000000000E+00 -0.00000000000E+00 -0.11076242657E+03  0.11076242657E+03  0.00000000000E+00 0. -1.
    9000006    2    1    2  501    0  0.00000000000E+00  0.00000000000E+00  0.88923757343E+03  0.11107624266E+04  0.66561979108E+03 0.  0.
         13    1    3    3    0    0  0.78261970033E+02 -0.32069969201E+03  0.37403187586E+03  0.49887179973E+03  0.00000000000E+00 0. -1.
          2    1    3    3  501    0 -0.78261970033E+02  0.32069969201E+03  0.51520569757E+03  0.61189062684E+03  0.00000000000E+00 0. -1.
<mgrwt>
<rscale>  0 0.66561979E+03</rscale>
<asrwt>0</asrwt>
<pdfrwt beam="1">0</pdfrwt>
<pdfrwt beam="2">  1        2 0.40277331E+00 0.66561979E+03</pdfrwt>
<totfact> 0.38836486E+00</totfact>
</mgrwt>
</event>
<event>
 5    1  0.2349912E-004  0.6499819E+03  0.7818608E-02  0.9806813E-01
         13   -1    0    0    0    0  0.00000000000E+00  0.00000000000E+00  0.10000000000E+04  0.10000000000E+04  0.00000000000E+00 0. -1.
          2   -1    0    0  501    0 -0.00000000000E+00 -0.00000000000E+00 -0.10561913254E+03  0.10561913254E+03  0.00000000000E+00 0. -1.
    9000006    2    1    2  501    0  0.00000000000E+00  0.00000000000E+00  0.89438086746E+03  0.11056191325E+04  0.64998194603E+03 0.  0.
         13    1    3    3    0    0 -0.21234370120E+03 -0.22243922520E+02  0.30412540143E+02  0.21566075704E+03  0.00000000000E+00 0. -1.
          4    1    3    3  501    0  0.21234370120E+03  0.22243922520E+02  0.86396832731E+03  0.88995837550E+03  0.00000000000E+00 0. -1.
<mgrwt>
<rscale>  0 0.64998195E+03</rscale>
<asrwt>0</asrwt>
<pdfrwt beam="1">0</pdfrwt>
<pdfrwt beam="2">  1        2 0.38407038E+00 0.64998195E+03</pdfrwt>
<totfact> 0.45661139E+00</totfact>
</mgrwt>
</event>
<event>
 5    1  0.2349912E-004  0.6630990E+03  0.7818608E-02  0.9782506E-01
         13   -1    0    0    0    0  0.00000000000E+00  0.00000000000E+00  0.10000000000E+04  0.10000000000E+04  0.00000000000E+00 0. -1.
          2   -1    0    0  501    0 -0.00000000000E+00 -0.00000000000E+00 -0.10992508233E+03  0.10992508233E+03  0.00000000000E+00 0. -1.
    9000006    2    1    2  501    0  0.00000000000E+00  0.00000000000E+00  0.89007491767E+03  0.11099250823E+04  0.66309903432E+03 0.  0.
         13    1    3    3    0    0  0.23635002610E+03 -0.16234128714E+03  0.16640858495E+03  0.33152352178E+03  0.00000000000E+00 0. -1.
          2    1    3    3  501    0 -0.23635002610E+03  0.16234128714E+03  0.72366633273E+03  0.77840156055E+03  0.00000000000E+00 0. -1.
<mgrwt>
<rscale>  0 0.66309903E+03</rscale>
<asrwt>0</asrwt>
<pdfrwt beam="1">0</pdfrwt>
<pdfrwt beam="2">  1        2 0.39972842E+00 0.66309903E+03</pdfrwt>
<totfact> 0.39880719E+00</totfact>
</mgrwt>
</event>
<event>
 5    1  0.2349912E-004  0.6451701E+03  0.7818608E-02  0.9815885E-01
         13   -1    0    0    0    0  0.00000000000E+00  0.00000000000E+00  0.10000000000E+04  0.10000000000E+04  0.00000000000E+00 0. -1.
          2   -1    0    0  501    0 -0.00000000000E+00 -0.00000000000E+00 -0.10406110148E+03  0.10406110148E+03  0.00000000000E+00 0. -1.
    9000006    2    1    2  501    0  0.00000000000E+00  0.00000000000E+00  0.89593889852E+03  0.11040611015E+04  0.64517005968E+03 0.  0.
         13    1    3    3    0    0  0.27075543298E+03  0.15174491493E+03  0.59838697549E+03  0.67409346247E+03  0.00000000000E+00 0. -1.
          2    1    3    3  501    0 -0.27075543298E+03 -0.15174491493E+03  0.29755192303E+03  0.42996763901E+03  0.00000000000E+00 0. -1.
<mgrwt>
<rscale>  0 0.64517006E+03</rscale>
<asrwt>0</asrwt>
<pdfrwt beam="1">0</pdfrwt>
<pdfrwt beam="2">  1        2 0.37840480E+00 0.64517006E+03</pdfrwt>
<totfact> 0.47932834E+00</totfact>
</mgrwt>
</event>
<event>
 5    1  0.2349912E-004  0.6458112E+03  0.7818608E-02  0.9814671E-01
         13   -1    0    0    0    0  0.00000000000E+00  0.00000000000E+00  0.10000000000E+04  0.10000000000E+04  0.00000000000E+00 0. -1.
          2   -1    0    0  501    0 -0.00000000000E+00 -0.00000000000E+00 -0.10426802598E+03  0.10426802598E+03  0.00000000000E+00 0. -1.
    9000006    2    1    2  501    0  0.00000000000E+00  0.00000000000E+00  0.89573197402E+03  0.11042680260E+04  0.64581119835E+03 0.  0.
         13    1    3    3    0    0 -0.15863471153E+03  0.20338760781E+03  0.78002798004E+03  0.82156870703E+03  0.00000000000E+00 0. -1.
          4    1    3    3  501    0  0.15863471153E+03 -0.20338760781E+03  0.11570399398E+03  0.28269931895E+03  0.00000000000E+00 0. -1.
<mgrwt>
<rscale>  0 0.64581120E+03</rscale>
<asrwt>0</asrwt>
<pdfrwt beam="1">0</pdfrwt>
<pdfrwt beam="2">  1        2 0.37915726E+00 0.64581120E+03</pdfrwt>
<totfact> 0.47625321E+00</totfact>
</mgrwt>
</event>
<event>
 5    1  0.2349912E-004  0.6504050E+03  0.7818608E-02  0.9806020E-01
         13   -1    0    0    0    0  0.00000000000E+00  0.00000000000E+00  0.10000000000E+04  0.10000000000E+04  0.00000000000E+00 0. -1.
          2   -1    0    0  501    0 -0.00000000000E+00 -0.00000000000E+00 -0.10575665667E+03  0.10575665667E+03  0.00000000000E+00 0. -1.
    9000006    2    1    2  501    0  0.00000000000E+00  0.00000000000E+00  0.89424334333E+03  0.11057566567E+04  0.65040497128E+03 0.  0.
         13    1    3    3    0    0 -0.48282310608E+02 -0.22898756796E+03  0.63220943758E+02  0.24241158290E+03  0.00000000000E+00 0. -1.
          2    1    3    3  501    0  0.48282310608E+02  0.22898756796E+03  0.83102239957E+03  0.86334507376E+03  0.00000000000E+00 0. -1.
<mgrwt>
<rscale>  0 0.65040497E+03</rscale>
<asrwt>0</asrwt>
<pdfrwt beam="1">0</pdfrwt>
<pdfrwt beam="2">  1        2 0.38457047E+00 0.65040497E+03</pdfrwt>
<totfact> 0.45465397E+00</totfact>
</mgrwt>
</event>
<event>
 5    1  0.2349912E-004  0.6471024E+03  0.7818608E-02  0.9812232E-01
         13   -1    0    0    0    0  0.00000000000E+00  0.00000000000E+00  0.10000000000E+04  0.10000000000E+04  0.00000000000E+00 0. -1.
          2   -1    0    0  501    0 -0.00000000000E+00 -0.00000000000E+00 -0.10468537751E+03  0.10468537751E+03  0.00000000000E+00 0. -1.
    9000006    2    1    2  501    0  0.00000000000E+00  0.00000000000E+00  0.89531462249E+03  0.11046853775E+04  0.64710239532E+03 0.  0.
         13    1    3    3    0    0 -0.17190204328E+03 -0.27290682178E+03  0.49141210997E+03  0.58780465095E+03  0.00000000000E+00 0. -1.
          4    1    3    3  501    0  0.17190204328E+03  0.27290682178E+03  0.40390251253E+03  0.51688072656E+03  0.00000000000E+00 0. -1.
<mgrwt>
<rscale>  0 0.64710240E+03</rscale>
<asrwt>0</asrwt>
<pdfrwt beam="1">0</pdfrwt>
<pdfrwt beam="2">  1        2 0.38067490E+00 0.64710240E+03</pdfrwt>
<totfact> 0.47010548E+00</totfact>
</mgrwt>
</event>
<event>
 5    1  0.2349912E-004  0.6476462E+03  0.7818608E-02  0.9811206E-01
         13   -1    0    0    0    0  0.00000000000E+00  0.00000000000E+00  0.10000000000E+04  0.10000000000E+04  0.00000000000E+00 0. -1.
          2   -1    0    0  501    0 -0.00000000000E+00 -0.00000000000E+00 -0.10486140271E+03  0.10486140271E+03  0.00000000000E+00 0. -1.
    9000006    2    1    2  501    0  0.00000000000E+00  0.00000000000E+00  0.89513859729E+03  0.11048614027E+04  0.64764620809E+03 0.  0.
         13    1    3    3    0    0 -0.20507993633E+03 -0.22556189431E+03  0.26127162120E+03  0.40149571417E+03  0.00000000000E+00 0. -1.
          2    1    3    3  501    0  0.20507993633E+03  0.22556189431E+03  0.63386697609E+03  0.70336568855E+03  0.00000000000E+00 0. -1.
<mgrwt>
<rscale>  0 0.64764621E+03</rscale>
<asrwt>0</asrwt>
<pdfrwt beam="1">0</pdfrwt>
<pdfrwt beam="2">  1        2 0.38131500E+00 0.64764621E+03</pdfrwt>
<totfact> 0.46753428E+00</totfact>
</mgrwt>
</event>
<event>
 5    1  0.2349912E-004  0.6441899E+03  0.7818608E-02  0.9817743E-01
         13   -1    0    0    0    0  0.00000000000E+00  0.00000000000E+00  0.10000000000E+04  0.10000000000E+04  0.00000000000E+00 0. -1.
          2   -1    0    0  501    0 -0.00000000000E+00 -0.00000000000E+00 -0.10374516954E+03  0.10374516954E+03  0.00000000000E+00 0. -1.
    9000006    2    1    2  501    0  0.00000000000E+00  0.00000000000E+00  0.89625483046E+03  0.11037451695E+04  0.64418993951E+03 0.  0.
         13    1    3    3    0    0 -0.12664091473E+03  0.15186743519E+02 -0.58630863997E+02  0.14037854777E+03  0.00000000000E+00 0. -1.
          4    1    3    3  501    0  0.12664091473E+03 -0.15186743519E+02  0.95488569446E+03  0.96336662177E+03  0.00000000000E+00 0. -1.
<mgrwt>
<rscale>  0 0.64418994E+03</rscale>
<asrwt>0</asrwt>
<pdfrwt beam="1">0</pdfrwt>
<pdfrwt beam="2">  1        2 0.37725596E+00 0.64418994E+03</pdfrwt>
<totfact> 0.48405836E+00</totfact>
</mgrwt>
</event>
<event>
 5    1  0.2349912E-004  0.6555508E+03  0.7818608E-02  0.9796419E-01
         13   -1    0    0    0    0  0.00000000000E+00  0.00000000000E+00  0.10000000000E+04  0.10000000000E+04  0.00000000000E+00 0. -1.
          2   -1    0    0  501    0 -0.00000000000E+00 -0.00000000000E+00 -0.10743671183E+03  0.10743671183E+03  0.00000000000E+00 0. -1.
    9000006    2    1    2  501    0  0.00000000000E+00  0.00000000000E+00  0.89256328817E+03  0.11074367118E+04  0.65555079690E+03 0.  0.
         13    1    3    3    0    0  0.29120482944E+03  0.13917854714E+03  0.54282152772E+03  0.63152682574E+03  0.00000000000E+00 0. -1.
          2    1    3    3  501    0 -0.29120482944E+03 -0.13917854714E+03  0.34974176045E+03  0.47590988609E+03  0.00000000000E+00 0. -1.
<mgrwt>
<rscale>  0 0.65555080E+03</rscale>
<asrwt>0</asrwt>
<pdfrwt beam="1">0</pdfrwt>
<pdfrwt beam="2">  1        2 0.39067978E+00 0.65555080E+03</pdfrwt>
<totfact> 0.43134716E+00</totfact>
</mgrwt>
</event>
<event>
 5    1  0.2349912E-004  0.6493864E+03  0.7818608E-02  0.9807931E-01
         13   -1    0    0    0    0  0.00000000000E+00  0.00000000000E+00  0.10000000000E+04  0.10000000000E+04  0.00000000000E+00 0. -1.
          2   -1    0    0  501    0 -0.00000000000E+00 -0.00000000000E+00 -0.10542567430E+03  0.10542567430E+03  0.00000000000E+00 0. -1.
    9000006    2    1    2  501    0  0.00000000000E+00  0.00000000000E+00  0.89457432570E+03  0.11054256743E+04  0.64938640054E+03 0.  0.
         13    1    3    3    0    0 -0.14825234339E+03 -0.28648614313E+03  0.38422056152E+03  0.50167569945E+03  0.00000000000E+00 0. -1.
          4    1    3    3  501    0  0.14825234339E+03  0.28648614313E+03  0.51035376418E+03  0.60374997486E+03  0.00000000000E+00 0. -1.
<mgrwt>
<rscale>  0 0.64938640E+03</rscale>
<asrwt>0</asrwt>
<pdfrwt beam="1">0</pdfrwt>
<pdfrwt beam="2">  1        2 0.38336690E+00 0.64938640E+03</pdfrwt>
<totfact> 0.45937789E+00</totfact>
</mgrwt>
</event>
<event>
 5    1  0.2349912E-004  0.6643791E+03  0.7818608E-02  0.9780166E-01
         13   -1    0    0    0    0  0.00000000000E+00  0.00000000000E+00  0.10000000000E+04  0.10000000000E+04  0.00000000000E+00 0. -1.
          2   -1    0    0  501    0 -0.00000000000E+00 -0.00000000000E+00 -0.11034989696E+03  0.11034989696E+03  0.00000000000E+00 0. -1.
    9000006    2    1    2  501    0  0.00000000000E+00  0.00000000000E+00  0.88965010304E+03  0.11103498970E+04  0.66437909948E+03 0.  0.
         13    1    3    3    0    0  0.19256353906E+03 -0.21562138027E+03  0.71830256122E+03  0.77429443086E+03  0.00000000000E+00 0. -1.
          4    1    3    3  501    0 -0.19256353906E+03  0.21562138027E+03  0.17134754182E+03  0.33605546609E+03  0.00000000000E+00 0. -1.
<mgrwt>
<rscale>  0 0.66437910E+03</rscale>
<asrwt>0</asrwt>
<pdfrwt beam="1">0</pdfrwt>
<pdfrwt beam="2">  1        2 0.40127320E+00 0.66437910E+03</pdfrwt>
<totfact> 0.39347836E+00</totfact>
</mgrwt>
</event>
<event>
 5    1  0.2349912E-004  0.6479170E+03  0.7818608E-02  0.9810696E-01
         13   -1    0    0    0    0  0.00000000000E+00  0.00000000000E+00  0.10000000000E+04  0.10000000000E+04  0.00000000000E+00 0. -1.
          2   -1    0    0  501    0 -0.00000000000E+00 -0.00000000000E+00 -0.10494912524E+03  0.10494912524E+03  0.00000000000E+00 0. -1.
    9000006    2    1    2  501    0  0.00000000000E+00  0.00000000000E+00  0.89505087476E+03  0.11049491252E+04  0.64791704791E+03 0.  0.
         13    1    3    3    0    0 -0.61479521386E+02 -0.30165650159E+03  0.61953081866E+03  0.69180547249E+03  0.00000000000E+00 0. -1.
          2    1    3    3  501    0  0.61479521386E+02  0.30165650159E+03  0.27552005609E+03  0.41314365275E+03  0.00000000000E+00 0. -1.
<mgrwt>
<rscale>  0 0.64791705E+03</rscale>
<asrwt>0</asrwt>
<pdfrwt beam="1">0</pdfrwt>
<pdfrwt beam="2">  1        2 0.38163399E+00 0.64791705E+03</pdfrwt>
<totfact> 0.46625770E+00</totfact>
</mgrwt>
</event>
<event>
 5    1  0.2349912E-004  0.6201654E+03  0.7818608E-02  0.9864431E-01
         13   -1    0    0    0    0  0.00000000000E+00  0.00000000000E+00  0.10000000000E+04  0.10000000000E+04  0.00000000000E+00 0. -1.
          2   -1    0    0  501    0 -0.00000000000E+00 -0.00000000000E+00 -0.96151266900E+02  0.96151266900E+02  0.00000000000E+00 0. -1.
    9000006    2    1    2  501    0  0.00000000000E+00  0.00000000000E+00  0.90384873310E+03  0.10961512669E+04  0.62016535505E+03 0.  0.
         13    1    3    3    0    0 -0.85248244690E+02  0.25243076487E+03  0.17154779696E+03  0.31688673200E+03  0.00000000000E+00 0. -1.
          4    1    3    3  501    0  0.85248244690E+02 -0.25243076487E+03  0.73230093614E+03  0.77926453490E+03  0.00000000000E+00 0. -1.
<mgrwt>
<rscale>  0 0.62016536E+03</rscale>
<asrwt>0</asrwt>
<pdfrwt beam="1">0</pdfrwt>
<pdfrwt beam="2">  1        2 0.34964171E+00 0.62016536E+03</pdfrwt>
<totfact> 0.61149600E+00</totfact>
</mgrwt>
</event>
<event>
 5    1  0.2349912E-004  0.6590587E+03  0.7818608E-02  0.9789928E-01
         13   -1    0    0    0    0  0.00000000000E+00  0.00000000000E+00  0.10000000000E+04  0.10000000000E+04  0.00000000000E+00 0. -1.
          2   -1    0    0  501    0 -0.00000000000E+00 -0.00000000000E+00 -0.10858960078E+03  0.10858960078E+03  0.00000000000E+00 0. -1.
    9000006    2    1    2  501    0  0.00000000000E+00  0.00000000000E+00  0.89141039922E+03  0.11085896008E+04  0.65905872509E+03 0.  0.
         13    1    3    3    0    0  0.36104794700E+02 -0.32746397987E+03  0.45799549368E+03  0.56417735380E+03  0.00000000000E+00 0. -1.
          2    1    3    3  501    0 -0.36104794700E+02  0.32746397987E+03  0.43341490554E+03  0.54441224697E+03  0.00000000000E+00 0. -1.
<mgrwt>
<rscale>  0 0.65905873E+03</rscale>
<asrwt>0</asrwt>
<pdfrwt beam="1">0</pdfrwt>
<pdfrwt beam="2">  1        2 0.39487211E+00 0.65905873E+03</pdfrwt>
<totfact> 0.41598446E+00</totfact>
</mgrwt>
</event>
<event>
 5    1  0.2349912E-004  0.6636614E+03  0.7818608E-02  0.9781477E-01
         13   -1    0    0    0    0  0.00000000000E+00  0.00000000000E+00  0.10000000000E+04  0.10000000000E+04  0.00000000000E+00 0. -1.
          2   -1    0    0  501    0 -0.00000000000E+00 -0.00000000000E+00 -0.11011162820E+03  0.11011162820E+03  0.00000000000E+00 0. -1.
    9000006    2    1    2  501    0  0.00000000000E+00  0.00000000000E+00  0.88988837180E+03  0.11101116282E+04  0.66366144440E+03 0.  0.
         13    1    3    3    0    0  0.83330905425E+02 -0.40857038023E+02 -0.87960364279E+02  0.12786853811E+03  0.00000000000E+00 0. -1.
          4    1    3    3  501    0 -0.83330905425E+02  0.40857038023E+02  0.97784873608E+03  0.98224309008E+03  0.00000000000E+00 0. -1.
<mgrwt>
<rscale>  0 0.66366144E+03</rscale>
<asrwt>0</asrwt>
<pdfrwt beam="1">0</pdfrwt>
<pdfrwt beam="2">  1        2 0.40040677E+00 0.66366144E+03</pdfrwt>
<totfact> 0.39645925E+00</totfact>
</mgrwt>
</event>
<event>
 5    1  0.2349912E-004  0.6503218E+03  0.7818608E-02  0.9806176E-01
         13   -1    0    0    0    0  0.00000000000E+00  0.00000000000E+00  0.10000000000E+04  0.10000000000E+04  0.00000000000E+00 0. -1.
          2   -1    0    0  501    0 -0.00000000000E+00 -0.00000000000E+00 -0.10572960199E+03  0.10572960199E+03  0.00000000000E+00 0. -1.
    9000006    2    1    2  501    0  0.00000000000E+00  0.00000000000E+00  0.89427039801E+03  0.11057296020E+04  0.65032177262E+03 0.  0.
         13    1    3    3    0    0 -0.34896389316E+02 -0.21546424288E+03  0.37346355280E+02  0.22144378113E+03  0.00000000000E+00 0. -1.
          4    1    3    3  501    0  0.34896389316E+02  0.21546424288E+03  0.85692404273E+03  0.88428582086E+03  0.00000000000E+00 0. -1.
<mgrwt>
<rscale>  0 0.65032177E+03</rscale>
<asrwt>0</asrwt>
<pdfrwt beam="1">0</pdfrwt>
<pdfrwt beam="2">  1        2 0.38447209E+00 0.65032177E+03</pdfrwt>
<totfact> 0.45503844E+00</totfact>
</mgrwt>
</event>
<event>
 5    1  0.2349912E-004  0.6168102E+03  0.7818608E-02  0.9871131E-01
         13   -1    0    0    0    0  0.00000000000E+00  0.00000000000E+00  0.10000000000E+04  0.10000000000E+04  0.00000000000E+00 0. -1.
          2   -1    0    0  501    0 -0.00000000000E+00 -0.00000000000E+00 -0.95113692045E+02  0.95113692045E+02  0.00000000000E+00 0. -1.
    9000006    2    1    2  501    0  0.00000000000E+00  0.00000000000E+00  0.90488630795E+03  0.10951136920E+04  0.61681015571E+03 0.  0.
         13    1    3    3    0    0 -0.27611716271E+03  0.60551733733E+02  0.23350461647E+03  0.36664915916E+03  0.00000000000E+00 0. -1.
          4    1    3    3  501    0  0.27611716271E+03 -0.60551733733E+02  0.67138169149E+03  0.72846453288E+03  0.00000000000E+00 0. -1.
<mgrwt>
<rscale>  0 0.61681016E+03</rscale>
<asrwt>0</asrwt>
<pdfrwt beam="1">0</pdfrwt>
<pdfrwt beam="2">  1        2 0.34586870E+00 0.61681016E+03</pdfrwt>
<totfact> 0.63114088E+00</totfact>
</mgrwt>
</event>
<event>
 5    1  0.2349912E-004  0.6157142E+03  0.7818608E-02  0.9873330E-01
         13   -1    0    0    0    0  0.00000000000E+00  0.00000000000E+00  0.10000000000E+04  0.10000000000E+04  0.00000000000E+00 0. -1.
          2   -1    0    0  501    0 -0.00000000000E+00 -0.00000000000E+00 -0.94776004444E+02  0.94776004444E+02  0.00000000000E+00 0. -1.
    9000006    2    1    2  501    0  0.00000000000E+00  0.00000000000E+00  0.90522399556E+03  0.10947760044E+04  0.61571423386E+03 0.  0.
         13    1    3    3    0    0 -0.64072681352E+02 -0.27454378395E+03  0.23270412044E+03  0.36555547523E+03  0.00000000000E+00 0. -1.
          2    1    3    3  501    0  0.64072681352E+02  0.27454378395E+03  0.67251987512E+03  0.72922052922E+03  0.00000000000E+00 0. -1.
<mgrwt>
<rscale>  0 0.61571423E+03</rscale>
<asrwt>0</asrwt>
<pdfrwt beam="1">0</pdfrwt>
<pdfrwt beam="2">  1        2 0.34464074E+00 0.61571423E+03</pdfrwt>
<totfact> 0.63766055E+00</totfact>
</mgrwt>
</event>
<event>
 5    1  0.2349912E-004  0.6422026E+03  0.7818608E-02  0.9821521E-01
         13   -1    0    0    0    0  0.00000000000E+00  0.00000000000E+00  0.10000000000E+04  0.10000000000E+04  0.00000000000E+00 0. -1.
          2   -1    0    0  501    0 -0.00000000000E+00 -0.00000000000E+00 -0.10310605455E+03  0.10310605455E+03  0.00000000000E+00 0. -1.
    9000006    2    1    2  501    0  0.00000000000E+00  0.00000000000E+00  0.89689394545E+03  0.11031060545E+04  0.64220263016E+03 0.  0.
         13    1    3    3    0    0  0.31897539574E+03  0.24841537472E+02  0.49528831439E+03  0.58963795625E+03  0.00000000000E+00 0. -1.
          4    1    3    3  501    0 -0.31897539574E+03 -0.24841537472E+02  0.40160563106E+03  0.51346809830E+03  0.00000000000E+00 0. -1.
<mgrwt>
<rscale>  0 0.64220263E+03</rscale>
<asrwt>0</asrwt>
<pdfrwt beam="1">0</pdfrwt>
<pdfrwt beam="2">  1        2 0.37493190E+00 0.64220263E+03</pdfrwt>
<totfact> 0.49375763E+00</totfact>
</mgrwt>
</event>
<event>
 5    1  0.2349912E-004  0.6317479E+03  0.7818608E-02  0.9841644E-01
         13   -1    0    0    0    0  0.00000000000E+00  0.00000000000E+00  0.10000000000E+04  0.10000000000E+04  0.00000000000E+00 0. -1.
          2   -1    0    0  501    0 -0.00000000000E+00 -0.00000000000E+00 -0.99776364719E+02  0.99776364719E+02  0.00000000000E+00 0. -1.
    9000006    2    1    2  501    0  0.00000000000E+00  0.00000000000E+00  0.90022363528E+03  0.10997763647E+04  0.63174793935E+03 0.  0.
         13    1    3    3    0    0 -0.88258983214E+02 -0.23452400534E+03  0.11532019833E+03  0.27584398732E+03  0.00000000000E+00 0. -1.
          2    1    3    3  501    0  0.88258983214E+02  0.23452400534E+03  0.78490343695E+03  0.82393237740E+03  0.00000000000E+00 0. -1.
<mgrwt>
<rscale>  0 0.63174794E+03</rscale>
<asrwt>0</asrwt>
<pdfrwt beam="1">0</pdfrwt>
<pdfrwt beam="2">  1        2 0.36282391E+00 0.63174794E+03</pdfrwt>
<totfact> 0.54723424E+00</totfact>
</mgrwt>
</event>
<event>
 5    1  0.2349912E-004  0.6378419E+03  0.7818608E-02  0.9829864E-01
         13   -1    0    0    0    0  0.00000000000E+00  0.00000000000E+00  0.10000000000E+04  0.10000000000E+04  0.00000000000E+00 0. -1.
          2   -1    0    0  501    0 -0.00000000000E+00 -0.00000000000E+00 -0.10171055967E+03  0.10171055967E+03  0.00000000000E+00 0. -1.
    9000006    2    1    2  501    0  0.00000000000E+00  0.00000000000E+00  0.89828944033E+03  0.11017105597E+04  0.63784186025E+03 0.  0.
         13    1    3    3    0    0 -0.12928823273E+03  0.20975933264E+03  0.79886913426E+03  0.83600617128E+03  0.00000000000E+00 0. -1.
          2    1    3    3  501    0  0.12928823273E+03 -0.20975933264E+03  0.99420306071E+02  0.26570438839E+03  0.00000000000E+00 0. -1.
<mgrwt>
<rscale>  0 0.63784186E+03</rscale>
<asrwt>0</asrwt>
<pdfrwt beam="1">0</pdfrwt>
<pdfrwt beam="2">  1        2 0.36985736E+00 0.63784186E+03</pdfrwt>
<totfact> 0.51555763E+00</totfact>
</mgrwt>
</event>
<event>
 5    1  0.2349912E-004  0.6466090E+03  0.7818608E-02  0.9813163E-01
         13   -1    0    0    0    0  0.00000000000E+00  0.00000000000E+00  0.10000000000E+04  0.10000000000E+04  0.00000000000E+00 0. -1.
          2   -1    0    0  501    0 -0.00000000000E+00 -0.00000000000E+00 -0.10452579501E+03  0.10452579501E+03  0.00000000000E+00 0. -1.
    9000006    2    1    2  501    0  0.00000000000E+00  0.00000000000E+00  0.89547420499E+03  0.11045257950E+04  0.64660898543E+03 0.  0.
         13    1    3    3    0    0 -0.27255195714E+03  0.14324549333E+03  0.61616379309E+03  0.68881177445E+03  0.00000000000E+00 0. -1.
          2    1    3    3  501    0  0.27255195714E+03 -0.14324549333E+03  0.27931041190E+03  0.41571402056E+03  0.00000000000E+00 0. -1.
<mgrwt>
<rscale>  0 0.64660899E+03</rscale>
<asrwt>0</asrwt>
<pdfrwt beam="1">0</pdfrwt>
<pdfrwt beam="2">  1        2 0.38009460E+00 0.64660899E+03</pdfrwt>
<totfact> 0.47244760E+00</totfact>
</mgrwt>
</event>
<event>
 5    1  0.2349912E-004  0.6330635E+03  0.7818608E-02  0.9839089E-01
         13   -1    0    0    0    0  0.00000000000E+00  0.00000000000E+00  0.10000000000E+04  0.10000000000E+04  0.00000000000E+00 0. -1.
          2   -1    0    0  501    0 -0.00000000000E+00 -0.00000000000E+00 -0.10019234669E+03  0.10019234669E+03  0.00000000000E+00 0. -1.
    9000006    2    1    2  501    0  0.00000000000E+00  0.00000000000E+00  0.89980765331E+03  0.11001923467E+04  0.63306349345E+03 0.  0.
         13    1    3    3    0    0  0.18935092975E+03 -0.12999024508E+03  0.71375170845E+02  0.24051123347E+03  0.00000000000E+00 0. -1.
          4    1    3    3  501    0 -0.18935092975E+03  0.12999024508E+03  0.82843248247E+03  0.85968111322E+03  0.00000000000E+00 0. -1.
<mgrwt>
<rscale>  0 0.63306349E+03</rscale>
<asrwt>0</asrwt>
<pdfrwt beam="1">0</pdfrwt>
<pdfrwt beam="2">  1        2 0.36433657E+00 0.63306349E+03</pdfrwt>
<totfact> 0.54027435E+00</totfact>
</mgrwt>
</event>
<event>
 5    1  0.2349912E-004  0.6433525E+03  0.7818608E-02  0.9819333E-01
         13   -1    0    0    0    0  0.00000000000E+00  0.00000000000E+00  0.10000000000E+04  0.10000000000E+04  0.00000000000E+00 0. -1.
          2   -1    0    0  501    0 -0.00000000000E+00 -0.00000000000E+00 -0.10347561579E+03  0.10347561579E+03  0.00000000000E+00 0. -1.
    9000006    2    1    2  501    0  0.00000000000E+00  0.00000000000E+00  0.89652438421E+03  0.11034756158E+04  0.64335251857E+03 0.  0.
         13    1    3    3    0    0 -0.23469589259E+03 -0.21902233389E+03  0.48352484521E+03  0.58038713000E+03  0.00000000000E+00 0. -1.
          2    1    3    3  501    0  0.23469589259E+03  0.21902233389E+03  0.41299953900E+03  0.52308848578E+03  0.00000000000E+00 0. -1.
<mgrwt>
<rscale>  0 0.64335252E+03</rscale>
<asrwt>0</asrwt>
<pdfrwt beam="1">0</pdfrwt>
<pdfrwt beam="2">  1        2 0.37627576E+00 0.64335252E+03</pdfrwt>
<totfact> 0.48812764E+00</totfact>
</mgrwt>
</event>
<event>
 5    1  0.2349912E-004  0.6436083E+03  0.7818608E-02  0.9818847E-01
         13   -1    0    0    0    0  0.00000000000E+00  0.00000000000E+00  0.10000000000E+04  0.10000000000E+04  0.00000000000E+00 0. -1.
          2   -1    0    0  501    0 -0.00000000000E+00 -0.00000000000E+00 -0.10355791824E+03  0.10355791824E+03  0.00000000000E+00 0. -1.
    9000006    2    1    2  501    0  0.00000000000E+00  0.00000000000E+00  0.89644208176E+03  0.11035579182E+04  0.64360832264E+03 0.  0.
         13    1    3    3    0    0  0.29842374934E+03 -0.83919538832E+02  0.30013814248E+03  0.43148827069E+03  0.00000000000E+00 0. -1.
          2    1    3    3  501    0 -0.29842374934E+03  0.83919538832E+02  0.59630393928E+03  0.67206964756E+03  0.00000000000E+00 0. -1.
<mgrwt>
<rscale>  0 0.64360832E+03</rscale>
<asrwt>0</asrwt>
<pdfrwt beam="1">0</pdfrwt>
<pdfrwt beam="2">  1        2 0.37657504E+00 0.64360832E+03</pdfrwt>
<totfact> 0.48688187E+00</totfact>
</mgrwt>
</event>
<event>
 5    1  0.2349912E-004  0.5809250E+03  0.7818608E-02  0.9945790E-01
         13   -1    0    0    0    0  0.00000000000E+00  0.00000000000E+00  0.10000000000E+04  0.10000000000E+04  0.00000000000E+00 0. -1.
          2   -1    0    0  501    0 -0.00000000000E+00 -0.00000000000E+00 -0.84368452419E+02  0.84368452419E+02  0.00000000000E+00 0. -1.
    9000006    2    1    2  501    0  0.00000000000E+00  0.00000000000E+00  0.91563154758E+03  0.10843684524E+04  0.58092496045E+03 0.  0.
         13    1    3    3    0    0  0.22543588294E+03 -0.15397429467E+03  0.27266180887E+03  0.38584178461E+03  0.00000000000E+00 0. -1.
          4    1    3    3  501    0 -0.22543588294E+03  0.15397429467E+03  0.64296973871E+03  0.69852666781E+03  0.00000000000E+00 0. -1.
<mgrwt>
<rscale>  0 0.58092496E+03</rscale>
<asrwt>0</asrwt>
<pdfrwt beam="1">0</pdfrwt>
<pdfrwt beam="2">  1        2 0.30679502E+00 0.58092496E+03</pdfrwt>
<totfact> 0.87298207E+00</totfact>
</mgrwt>
</event>
<event>
 5    1  0.2349912E-004  0.6437836E+03  0.7818608E-02  0.9818514E-01
         13   -1    0    0    0    0  0.00000000000E+00  0.00000000000E+00  0.10000000000E+04  0.10000000000E+04  0.00000000000E+00 0. -1.
          2   -1    0    0  501    0 -0.00000000000E+00 -0.00000000000E+00 -0.10361433461E+03  0.10361433461E+03  0.00000000000E+00 0. -1.
    9000006    2    1    2  501    0  0.00000000000E+00  0.00000000000E+00  0.89638566539E+03  0.11036143346E+04  0.64378361152E+03 0.  0.
         13    1    3    3    0    0  0.15112087596E+03  0.37437621804E+02 -0.34776929749E+02  0.15952595249E+03  0.00000000000E+00 0. -1.
          2    1    3    3  501    0 -0.15112087596E+03 -0.37437621804E+02  0.93116259513E+03  0.94408838212E+03  0.00000000000E+00 0. -1.
<mgrwt>
<rscale>  0 0.64378361E+03</rscale>
<asrwt>0</asrwt>
<pdfrwt beam="1">0</pdfrwt>
<pdfrwt beam="2">  1        2 0.37678019E+00 0.64378361E+03</pdfrwt>
<totfact> 0.48602961E+00</totfact>
</mgrwt>
</event>
<event>
 5    1  0.2349912E-004  0.6468756E+03  0.7818608E-02  0.9812660E-01
         13   -1    0    0    0    0  0.00000000000E+00  0.00000000000E+00  0.10000000000E+04  0.10000000000E+04  0.00000000000E+00 0. -1.
          2   -1    0    0  501    0 -0.00000000000E+00 -0.00000000000E+00 -0.10461201594E+03  0.10461201594E+03  0.00000000000E+00 0. -1.
    9000006    2    1    2  501    0  0.00000000000E+00  0.00000000000E+00  0.89538798406E+03  0.11046120159E+04  0.64687561693E+03 0.  0.
         13    1    3    3    0    0 -0.24776580629E+03  0.17713893951E+03  0.63354859854E+03  0.70295798265E+03  0.00000000000E+00 0. -1.
          2    1    3    3  501    0  0.24776580629E+03 -0.17713893951E+03  0.26183938551E+03  0.40165403330E+03  0.00000000000E+00 0. -1.
<mgrwt>
<rscale>  0 0.64687562E+03</rscale>
<asrwt>0</asrwt>
<pdfrwt beam="1">0</pdfrwt>
<pdfrwt beam="2">  1        2 0.38040813E+00 0.64687562E+03</pdfrwt>
<totfact> 0.47118086E+00</totfact>
</mgrwt>
</event>
<event>
 5    1  0.2349912E-004  0.6640648E+03  0.7818608E-02  0.9780740E-01
         13   -1    0    0    0    0  0.00000000000E+00  0.00000000000E+00  0.10000000000E+04  0.10000000000E+04  0.00000000000E+00 0. -1.
          2   -1    0    0  501    0 -0.00000000000E+00 -0.00000000000E+00 -0.11024550304E+03  0.11024550304E+03  0.00000000000E+00 0. -1.
    9000006    2    1    2  501    0  0.00000000000E+00  0.00000000000E+00  0.88975449696E+03  0.11102455030E+04  0.66406476504E+03 0.  0.
         13    1    3    3    0    0 -0.50660699805E+01  0.14672175975E+03 -0.53034287472E+02  0.15609476448E+03  0.00000000000E+00 0. -1.
          4    1    3    3  501    0  0.50660699805E+01 -0.14672175975E+03  0.94278878443E+03  0.95415073856E+03  0.00000000000E+00 0. -1.
<mgrwt>
<rscale>  0 0.66406477E+03</rscale>
<asrwt>0</asrwt>
<pdfrwt beam="1">0</pdfrwt>
<pdfrwt beam="2">  1        2 0.40089358E+00 0.66406477E+03</pdfrwt>
<totfact> 0.39478191E+00</totfact>
</mgrwt>
</event>
<event>
 5    1  0.2349912E-004  0.6531753E+03  0.7818608E-02  0.9800839E-01
         13   -1    0    0    0    0  0.00000000000E+00  0.00000000000E+00  0.10000000000E+04  0.10000000000E+04  0.00000000000E+00 0. -1.
          2   -1    0    0  501    0 -0.00000000000E+00 -0.00000000000E+00 -0.10665949021E+03  0.10665949021E+03  0.00000000000E+00 0. -1.
    9000006    2    1    2  501    0  0.00000000000E+00  0.00000000000E+00  0.89334050979E+03  0.11066594902E+04  0.65317529106E+03 0.  0.
         13    1    3    3    0    0  0.25361259114E+03 -0.11545338279E+03  0.15809235301E+03  0.32037793629E+03  0.00000000000E+00 0. -1.
          2    1    3    3  501    0 -0.25361259114E+03  0.11545338279E+03  0.73524815678E+03  0.78628155392E+03  0.00000000000E+00 0. -1.
<mgrwt>
<rscale>  0 0.65317529E+03</rscale>
<asrwt>0</asrwt>
<pdfrwt beam="1">0</pdfrwt>
<pdfrwt beam="2">  1        2 0.38785351E+00 0.65317529E+03</pdfrwt>
<totfact> 0.44199137E+00</totfact>
</mgrwt>
</event>
<event>
 5    1  0.2349912E-004  0.6014632E+03  0.7818608E-02  0.9902375E-01
         13   -1    0    0    0    0  0.00000000000E+00  0.00000000000E+00  0.10000000000E+04  0.10000000000E+04  0.00000000000E+00 0. -1.
          2   -1    0    0  501    0 -0.00000000000E+00 -0.00000000000E+00 -0.90439509341E+02  0.90439509341E+02  0.00000000000E+00 0. -1.
    9000006    2    1    2  501    0  0.00000000000E+00  0.00000000000E+00  0.90956049066E+03  0.10904395093E+04  0.60146324689E+03 0.  0.
         13    1    3    3    0    0 -0.29832139372E+03 -0.34511720366E+02  0.42595466538E+03  0.52117568031E+03  0.00000000000E+00 0. -1.
          4    1    3    3  501    0  0.29832139372E+03  0.34511720366E+02  0.48360582528E+03  0.56926382903E+03  0.00000000000E+00 0. -1.
<mgrwt>
<rscale>  0 0.60146325E+03</rscale>
<asrwt>0</asrwt>
<pdfrwt beam="1">0</pdfrwt>
<pdfrwt beam="2">  1        2 0.32887164E+00 0.60146325E+03</pdfrwt>
<totfact> 0.72721798E+00</totfact>
</mgrwt>
</event>
<event>
 5    1  0.2349912E-004  0.6462871E+03  0.7818608E-02  0.9813771E-01
         13   -1    0    0    0    0  0.00000000000E+00  0.00000000000E+00  0.10000000000E+04  0.10000000000E+04  0.00000000000E+00 0. -1.
          2   -1    0    0  501    0 -0.00000000000E+00 -0.00000000000E+00 -0.10442175895E+03  0.10442175895E+03  0.00000000000E+00 0. -1.
    9000006    2    1    2  501    0  0.00000000000E+00  0.00000000000E+00  0.89557824105E+03  0.11044217590E+04  0.64628711561E+03 0.  0.
         13    1    3    3    0    0 -0.22231768470E+03  0.11697085293E+03  0.10044470894E+03  0.27054846686E+03  0.00000000000E+00 0. -1.
          2    1    3    3  501    0  0.22231768470E+03 -0.11697085293E+03  0.79513353211E+03  0.83387329209E+03  0.00000000000E+00 0. -1.
<mgrwt>
<rscale>  0 0.64628712E+03</rscale>
<asrwt>0</asrwt>
<pdfrwt beam="1">0</pdfrwt>
<pdfrwt beam="2">  1        2 0.37971629E+00 0.64628712E+03</pdfrwt>
<totfact> 0.47398021E+00</totfact>
</mgrwt>
</event>
<event>
 5    1  0.2349912E-004  0.5265151E+03  0.7818608E-02  0.1007081E+00
         13   -1    0    0    0    0  0.00000000000E+00  0.00000000000E+00  0.10000000000E+04  0.10000000000E+04  0.00000000000E+00 0. -1.
          2   -1    0    0  501    0 -0.00000000000E+00 -0.00000000000E+00 -0.69304527523E+02  0.69304527523E+02  0.00000000000E+00 0. -1.
    9000006    2    1    2  501    0  0.00000000000E+00  0.00000000000E+00  0.93069547248E+03  0.10693045275E+04  0.52651506160E+03 0.  0.
         13    1    3    3    0    0 -0.15968950121E+03 -0.94995714285E+02  0.84409798702E+03  0.86430685189E+03  0.00000000000E+00 0. -1.
          2    1    3    3  501    0  0.15968950121E+03  0.94995714285E+02  0.86597485458E+02  0.20499767564E+03  0.00000000000E+00 0. -1.
<mgrwt>
<rscale>  0 0.52651506E+03</rscale>
<asrwt>0</asrwt>
<pdfrwt beam="1">0</pdfrwt>
<pdfrwt beam="2">  1        2 0.25201700E+00 0.52651506E+03</pdfrwt>
<totfact> 0.13708750E+01</totfact>
</mgrwt>
</event>
<event>
 5    1  0.2349912E-004  0.6505348E+03  0.7818608E-02  0.9805776E-01
         13   -1    0    0    0    0  0.00000000000E+00  0.00000000000E+00  0.10000000000E+04  0.10000000000E+04  0.00000000000E+00 0. -1.
          2   -1    0    0  501    0 -0.00000000000E+00 -0.00000000000E+00 -0.10579888560E+03  0.10579888560E+03  0.00000000000E+00 0. -1.
    9000006    2    1    2  501    0  0.00000000000E+00  0.00000000000E+00  0.89420111440E+03  0.11057988856E+04  0.65053481261E+03 0.  0.
         13    1    3    3    0    0  0.30449198779E+03  0.10851098506E+03  0.38560330604E+03  0.50316986608E+03  0.00000000000E+00 0. -1.
          2    1    3    3  501    0 -0.30449198779E+03 -0.10851098506E+03  0.50859780836E+03  0.60262901953E+03  0.00000000000E+00 0. -1.
<mgrwt>
<rscale>  0 0.65053481E+03</rscale>
<asrwt>0</asrwt>
<pdfrwt beam="1">0</pdfrwt>
<pdfrwt beam="2">  1        2 0.38472403E+00 0.65053481E+03</pdfrwt>
<totfact> 0.45405444E+00</totfact>
</mgrwt>
</event>
<event>
 5    1  0.2349912E-004  0.6544526E+03  0.7818608E-02  0.9798460E-01
         13   -1    0    0    0    0  0.00000000000E+00  0.00000000000E+00  0.10000000000E+04  0.10000000000E+04  0.00000000000E+00 0. -1.
          2   -1    0    0  501    0 -0.00000000000E+00 -0.00000000000E+00 -0.10707704083E+03  0.10707704083E+03  0.00000000000E+00 0. -1.
    9000006    2    1    2  501    0  0.00000000000E+00  0.00000000000E+00  0.89292295917E+03  0.11070770408E+04  0.65445256767E+03 0.  0.
         13    1    3    3    0    0  0.23956477225E+02  0.32542841043E+03  0.40504375943E+03  0.52013268516E+03  0.00000000000E+00 0. -1.
          2    1    3    3  501    0 -0.23956477225E+02 -0.32542841043E+03  0.48787919974E+03  0.58694435567E+03  0.00000000000E+00 0. -1.
<mgrwt>
<rscale>  0 0.65445257E+03</rscale>
<asrwt>0</asrwt>
<pdfrwt beam="1">0</pdfrwt>
<pdfrwt beam="2">  1        2 0.38937188E+00 0.65445257E+03</pdfrwt>
<totfact> 0.43624377E+00</totfact>
</mgrwt>
</event>
<event>
 5    1  0.2349912E-004  0.6492813E+03  0.7818608E-02  0.9808129E-01
         13   -1    0    0    0    0  0.00000000000E+00  0.00000000000E+00  0.10000000000E+04  0.10000000000E+04  0.00000000000E+00 0. -1.
          2   -1    0    0  501    0 -0.00000000000E+00 -0.00000000000E+00 -0.10539154244E+03  0.10539154244E+03  0.00000000000E+00 0. -1.
    9000006    2    1    2  501    0  0.00000000000E+00  0.00000000000E+00  0.89460845756E+03  0.11053915424E+04  0.64928127167E+03 0.  0.
         13    1    3    3    0    0  0.30005233226E+02 -0.13130608199E+03  0.95018593018E+03  0.95968479362E+03  0.00000000000E+00 0. -1.
          2    1    3    3  501    0 -0.30005233226E+02  0.13130608199E+03 -0.55577472615E+02  0.14570674882E+03  0.00000000000E+00 0. -1.
<mgrwt>
<rscale>  0 0.64928127E+03</rscale>
<asrwt>0</asrwt>
<pdfrwt beam="1">0</pdfrwt>
<pdfrwt beam="2">  1        2 0.38324278E+00 0.64928127E+03</pdfrwt>
<totfact> 0.45986756E+00</totfact>
</mgrwt>
</event>
<event>
 5    1  0.2349912E-004  0.6525950E+03  0.7818608E-02  0.9801922E-01
         13   -1    0    0    0    0  0.00000000000E+00  0.00000000000E+00  0.10000000000E+04  0.10000000000E+04  0.00000000000E+00 0. -1.
          2   -1    0    0  501    0 -0.00000000000E+00 -0.00000000000E+00 -0.10647004514E+03  0.10647004514E+03  0.00000000000E+00 0. -1.
    9000006    2    1    2  501    0  0.00000000000E+00  0.00000000000E+00  0.89352995486E+03  0.11064700451E+04  0.65259495903E+03 0.  0.
         13    1    3    3    0    0  0.64510702679E+02  0.29929009816E+03  0.63809179030E+03  0.70774100239E+03  0.00000000000E+00 0. -1.
          4    1    3    3  501    0 -0.64510702679E+02 -0.29929009816E+03  0.25543816457E+03  0.39872904275E+03  0.00000000000E+00 0. -1.
<mgrwt>
<rscale>  0 0.65259496E+03</rscale>
<asrwt>0</asrwt>
<pdfrwt beam="1">0</pdfrwt>
<pdfrwt beam="2">  1        2 0.38716462E+00 0.65259496E+03</pdfrwt>
<totfact> 0.44462162E+00</totfact>
</mgrwt>
</event>
<event>
 5    1  0.2349912E-004  0.6509983E+03  0.7818608E-02  0.9804908E-01
         13   -1    0    0    0    0  0.00000000000E+00  0.00000000000E+00  0.10000000000E+04  0.10000000000E+04  0.00000000000E+00 0. -1.
          2   -1    0    0  501    0 -0.00000000000E+00 -0.00000000000E+00 -0.10594969123E+03  0.10594969123E+03  0.00000000000E+00 0. -1.
    9000006    2    1    2  501    0  0.00000000000E+00  0.00000000000E+00  0.89405030877E+03  0.11059496912E+04  0.65099828333E+03 0.  0.
         13    1    3    3    0    0  0.25736103272E+03 -0.10579180615E+03  0.73394049365E+03  0.78491735592E+03  0.00000000000E+00 0. -1.
          2    1    3    3  501    0 -0.25736103272E+03  0.10579180615E+03  0.16010981513E+03  0.32103233530E+03  0.00000000000E+00 0. -1.
<mgrwt>
<rscale>  0 0.65099828E+03</rscale>
<asrwt>0</asrwt>
<pdfrwt beam="1">0</pdfrwt>
<pdfrwt beam="2">  1        2 0.38527242E+00 0.65099828E+03</pdfrwt>
<totfact> 0.45191928E+00</totfact>
</mgrwt>
</event>
<event>
 5    1  0.2349912E-004  0.6408890E+03  0.7818608E-02  0.9824027E-01
         13   -1    0    0    0    0  0.00000000000E+00  0.00000000000E+00  0.10000000000E+04  0.10000000000E+04  0.00000000000E+00 0. -1.
          2   -1    0    0  501    0 -0.00000000000E+00 -0.00000000000E+00 -0.10268469090E+03  0.10268469090E+03  0.00000000000E+00 0. -1.
    9000006    2    1    2  501    0  0.00000000000E+00  0.00000000000E+00  0.89731530910E+03  0.11026846909E+04  0.64088904155E+03 0.  0.
         13    1    3    3    0    0 -0.30033890195E+03  0.93628882628E+02  0.55352496902E+03  0.63667865915E+03  0.00000000000E+00 0. -1.
          2    1    3    3  501    0  0.30033890195E+03 -0.93628882628E+02  0.34379034008E+03  0.46600603174E+03  0.00000000000E+00 0. -1.
<mgrwt>
<rscale>  0 0.64088904E+03</rscale>
<asrwt>0</asrwt>
<pdfrwt beam="1">0</pdfrwt>
<pdfrwt beam="2">  1        2 0.37339966E+00 0.64088904E+03</pdfrwt>
<totfact> 0.50024946E+00</totfact>
</mgrwt>
</event>
<event>
 5    1  0.2349912E-004  0.6461515E+03  0.7818608E-02  0.9814028E-01
         13   -1    0    0    0    0  0.00000000000E+00  0.00000000000E+00  0.10000000000E+04  0.10000000000E+04  0.00000000000E+00 0. -1.
          4   -1    0    0  501    0 -0.00000000000E+00 -0.00000000000E+00 -0.10437792953E+03  0.10437792953E+03  0.00000000000E+00 0. -1.
    9000006    2    1    2  501    0  0.00000000000E+00  0.00000000000E+00  0.89562207047E+03  0.11043779295E+04  0.64615146684E+03 0.  0.
         13    1    3    3    0    0 -0.39631546869E+02 -0.23809871272E+03  0.81484857497E+03  0.84984696072E+03  0.00000000000E+00 0. -1.
          2    1    3    3  501    0  0.39631546869E+02  0.23809871272E+03  0.80773495502E+02  0.25453096881E+03  0.00000000000E+00 0. -1.
<mgrwt>
<rscale>  0 0.64615147E+03</rscale>
<asrwt>0</asrwt>
<pdfrwt beam="1">0</pdfrwt>
<pdfrwt beam="2">  1        4 0.37955691E+00 0.64615147E+03</pdfrwt>
<totfact> 0.44175572E-02</totfact>
</mgrwt>
</event>
<event>
 5    1  0.2349912E-004  0.6821096E+03  0.7818608E-02  0.9748326E-01
         13   -1    0    0    0    0  0.00000000000E+00  0.00000000000E+00  0.10000000000E+04  0.10000000000E+04  0.00000000000E+00 0. -1.
          2   -1    0    0  501    0 -0.00000000000E+00 -0.00000000000E+00 -0.11631837586E+03  0.11631837586E+03  0.00000000000E+00 0. -1.
    9000006    2    1    2  501    0  0.00000000000E+00  0.00000000000E+00  0.88368162414E+03  0.11163183759E+04  0.68210959781E+03 0.  0.
         13    1    3    3    0    0  0.19444268176E+03 -0.12177801629E+03  0.85482864972E+03  0.88508183922E+03  0.00000000000E+00 0. -1.
          4    1    3    3  501    0 -0.19444268176E+03  0.12177801629E+03  0.28852974429E+02  0.23123653664E+03  0.00000000000E+00 0. -1.
<mgrwt>
<rscale>  0 0.68210960E+03</rscale>
<asrwt>0</asrwt>
<pdfrwt beam="1">0</pdfrwt>
<pdfrwt beam="2">  1        2 0.42297680E+00 0.68210960E+03</pdfrwt>
<totfact> 0.32504787E+00</totfact>
</mgrwt>
</event>
<event>
 5    1  0.2349912E-004  0.6057737E+03  0.7818608E-02  0.9893499E-01
         13   -1    0    0    0    0  0.00000000000E+00  0.00000000000E+00  0.10000000000E+04  0.10000000000E+04  0.00000000000E+00 0. -1.
          2   -1    0    0  501    0 -0.00000000000E+00 -0.00000000000E+00 -0.91740445617E+02  0.91740445617E+02  0.00000000000E+00 0. -1.
    9000006    2    1    2  501    0  0.00000000000E+00  0.00000000000E+00  0.90825955438E+03  0.10917404456E+04  0.60577370566E+03 0.  0.
         13    1    3    3    0    0  0.11496286413E+03  0.24865438876E+03  0.22126599941E+03  0.35214216969E+03  0.00000000000E+00 0. -1.
          4    1    3    3  501    0 -0.11496286413E+03 -0.24865438876E+03  0.68699355497E+03  0.73959827593E+03  0.00000000000E+00 0. -1.
<mgrwt>
<rscale>  0 0.60577371E+03</rscale>
<asrwt>0</asrwt>
<pdfrwt beam="1">0</pdfrwt>
<pdfrwt beam="2">  1        2 0.33360232E+00 0.60577371E+03</pdfrwt>
<totfact> 0.69917561E+00</totfact>
</mgrwt>
</event>
<event>
 5    1  0.2349912E-004  0.6558341E+03  0.7818608E-02  0.9795893E-01
         13   -1    0    0    0    0  0.00000000000E+00  0.00000000000E+00  0.10000000000E+04  0.10000000000E+04  0.00000000000E+00 0. -1.
          2   -1    0    0  501    0 -0.00000000000E+00 -0.00000000000E+00 -0.10752957833E+03  0.10752957833E+03  0.00000000000E+00 0. -1.
    9000006    2    1    2  501    0  0.00000000000E+00  0.00000000000E+00  0.89247042167E+03  0.11075295783E+04  0.65583405928E+03 0.  0.
         13    1    3    3    0    0 -0.23285206362E+03 -0.12321136068E+03  0.77598609797E+03  0.81948492797E+03  0.00000000000E+00 0. -1.
          2    1    3    3  501    0  0.23285206362E+03  0.12321136068E+03  0.11648432371E+03  0.28804465036E+03  0.00000000000E+00 0. -1.
<mgrwt>
<rscale>  0 0.65583406E+03</rscale>
<asrwt>0</asrwt>
<pdfrwt beam="1">0</pdfrwt>
<pdfrwt beam="2">  1        2 0.39101747E+00 0.65583406E+03</pdfrwt>
<totfact> 0.43009095E+00</totfact>
</mgrwt>
</event>
<event>
 5    1  0.2349912E-004  0.6239181E+03  0.7818608E-02  0.9856990E-01
         13   -1    0    0    0    0  0.00000000000E+00  0.00000000000E+00  0.10000000000E+04  0.10000000000E+04  0.00000000000E+00 0. -1.
          2   -1    0    0  501    0 -0.00000000000E+00 -0.00000000000E+00 -0.97318444319E+02  0.97318444319E+02  0.00000000000E+00 0. -1.
    9000006    2    1    2  501    0  0.00000000000E+00  0.00000000000E+00  0.90268155568E+03  0.10973184443E+04  0.62391808539E+03 0.  0.
         13    1    3    3    0    0  0.13761777492E+03  0.11859667916E+03  0.53150006831E+01  0.18174727925E+03  0.00000000000E+00 0. -1.
          2    1    3    3  501    0 -0.13761777492E+03 -0.11859667916E+03  0.89736655500E+03  0.91557116507E+03  0.00000000000E+00 0. -1.
<mgrwt>
<rscale>  0 0.62391809E+03</rscale>
<asrwt>0</asrwt>
<pdfrwt beam="1">0</pdfrwt>
<pdfrwt beam="2">  1        2 0.35388600E+00 0.62391809E+03</pdfrwt>
<totfact> 0.59007868E+00</totfact>
</mgrwt>
</event>
<event>
 5    1  0.2349912E-004  0.6435764E+03  0.7818608E-02  0.9818908E-01
         13   -1    0    0    0    0  0.00000000000E+00  0.00000000000E+00  0.10000000000E+04  0.10000000000E+04  0.00000000000E+00 0. -1.
          2   -1    0    0  501    0 -0.00000000000E+00 -0.00000000000E+00 -0.10354765061E+03  0.10354765061E+03  0.00000000000E+00 0. -1.
    9000006    2    1    2  501    0  0.00000000000E+00  0.00000000000E+00  0.89645234939E+03  0.11035476506E+04  0.64357641538E+03 0.  0.
         13    1    3    3    0    0  0.17101161115E+03  0.24482388124E+03  0.24271858697E+03  0.38483245242E+03  0.00000000000E+00 0. -1.
          2    1    3    3  501    0 -0.17101161115E+03 -0.24482388124E+03  0.65373376242E+03  0.71871519819E+03  0.00000000000E+00 0. -1.
<mgrwt>
<rscale>  0 0.64357642E+03</rscale>
<asrwt>0</asrwt>
<pdfrwt beam="1">0</pdfrwt>
<pdfrwt beam="2">  1        2 0.37653771E+00 0.64357642E+03</pdfrwt>
<totfact> 0.48703713E+00</totfact>
</mgrwt>
</event>
<event>
 5    1  0.2349912E-004  0.6759797E+03  0.7818608E-02  0.9759215E-01
         13   -1    0    0    0    0  0.00000000000E+00  0.00000000000E+00  0.10000000000E+04  0.10000000000E+04  0.00000000000E+00 0. -1.
          2   -1    0    0  501    0 -0.00000000000E+00 -0.00000000000E+00 -0.11423712646E+03  0.11423712646E+03  0.00000000000E+00 0. -1.
    9000006    2    1    2  501    0  0.00000000000E+00  0.00000000000E+00  0.88576287354E+03  0.11142371265E+04  0.67597966377E+03 0.  0.
         13    1    3    3    0    0  0.18499870169E+03  0.35268509625E+02  0.90549774757E+03  0.92487542850E+03  0.00000000000E+00 0. -1.
          2    1    3    3  501    0 -0.18499870169E+03 -0.35268509625E+02 -0.19734874028E+02  0.18936169795E+03  0.00000000000E+00 0. -1.
<mgrwt>
<rscale>  0 0.67597966E+03</rscale>
<asrwt>0</asrwt>
<pdfrwt beam="1">0</pdfrwt>
<pdfrwt beam="2">  1        2 0.41540861E+00 0.67597966E+03</pdfrwt>
<totfact> 0.34759747E+00</totfact>
</mgrwt>
</event>
<event>
 5    1  0.2349912E-004  0.6448253E+03  0.7818608E-02  0.9816538E-01
         13   -1    0    0    0    0  0.00000000000E+00  0.00000000000E+00  0.10000000000E+04  0.10000000000E+04  0.00000000000E+00 0. -1.
          2   -1    0    0  501    0 -0.00000000000E+00 -0.00000000000E+00 -0.10394992238E+03  0.10394992238E+03  0.00000000000E+00 0. -1.
    9000006    2    1    2  501    0  0.00000000000E+00  0.00000000000E+00  0.89605007762E+03  0.11039499224E+04  0.64482531706E+03 0.  0.
         13    1    3    3    0    0  0.10810774578E+03 -0.24255270796E+03  0.76105133140E+03  0.80605100947E+03  0.00000000000E+00 0. -1.
          2    1    3    3  501    0 -0.10810774578E+03  0.24255270796E+03  0.13499874622E+03  0.29789891291E+03  0.00000000000E+00 0. -1.
<mgrwt>
<rscale>  0 0.64482532E+03</rscale>
<asrwt>0</asrwt>
<pdfrwt beam="1">0</pdfrwt>
<pdfrwt beam="2">  1        2 0.37800051E+00 0.64482532E+03</pdfrwt>
<totfact> 0.48098805E+00</totfact>
</mgrwt>
</event>
<event>
 5    1  0.2349912E-004  0.6555475E+03  0.7818608E-02  0.9796425E-01
         13   -1    0    0    0    0  0.00000000000E+00  0.00000000000E+00  0.10000000000E+04  0.10000000000E+04  0.00000000000E+00 0. -1.
          2   -1    0    0  501    0 -0.00000000000E+00 -0.00000000000E+00 -0.10743562945E+03  0.10743562945E+03  0.00000000000E+00 0. -1.
    9000006    2    1    2  501    0  0.00000000000E+00  0.00000000000E+00  0.89256437055E+03  0.11074356295E+04  0.65554749471E+03 0.  0.
         13    1    3    3    0    0  0.28325873765E+03 -0.14197344270E+03  0.30450267303E+03  0.43944720817E+03  0.00000000000E+00 0. -1.
          4    1    3    3  501    0 -0.28325873765E+03  0.14197344270E+03  0.58806169751E+03  0.66798842128E+03  0.00000000000E+00 0. -1.
<mgrwt>
<rscale>  0 0.65554749E+03</rscale>
<asrwt>0</asrwt>
<pdfrwt beam="1">0</pdfrwt>
<pdfrwt beam="2">  1        2 0.39067584E+00 0.65554749E+03</pdfrwt>
<totfact> 0.43136182E+00</totfact>
</mgrwt>
</event>
<event>
 5    1  0.2349912E-004  0.6503645E+03  0.7818608E-02  0.9806095E-01
         13   -1    0    0    0    0  0.00000000000E+00  0.00000000000E+00  0.10000000000E+04  0.10000000000E+04  0.00000000000E+00 0. -1.
          2   -1    0    0  501    0 -0.00000000000E+00 -0.00000000000E+00 -0.10574350849E+03  0.10574350849E+03  0.00000000000E+00 0. -1.
    9000006    2    1    2  501    0  0.00000000000E+00  0.00000000000E+00  0.89425649151E+03  0.11057435085E+04  0.65036453928E+03 0.  0.
         13    1    3    3    0    0  0.13953307554E+03 -0.19199110643E+03  0.69190639048E+02  0.24721935331E+03  0.00000000000E+00 0. -1.
          4    1    3    3  501    0 -0.13953307554E+03  0.19199110643E+03  0.82506585246E+03  0.85852415518E+03  0.00000000000E+00 0. -1.
<mgrwt>
<rscale>  0 0.65036454E+03</rscale>
<asrwt>0</asrwt>
<pdfrwt beam="1">0</pdfrwt>
<pdfrwt beam="2">  1        2 0.38452266E+00 0.65036454E+03</pdfrwt>
<totfact> 0.45484078E+00</totfact>
</mgrwt>
</event>
<event>
 5    1  0.2349912E-004  0.6540230E+03  0.7818608E-02  0.9799259E-01
         13   -1    0    0    0    0  0.00000000000E+00  0.00000000000E+00  0.10000000000E+04  0.10000000000E+04  0.00000000000E+00 0. -1.
          2   -1    0    0  501    0 -0.00000000000E+00 -0.00000000000E+00 -0.10693652356E+03  0.10693652356E+03  0.00000000000E+00 0. -1.
    9000006    2    1    2  501    0  0.00000000000E+00  0.00000000000E+00  0.89306347644E+03  0.11069365236E+04  0.65402300743E+03 0.  0.
         13    1    3    3    0    0 -0.19174423250E+03  0.15989795549E+03  0.89083411875E+02  0.26508312119E+03  0.00000000000E+00 0. -1.
          4    1    3    3  501    0  0.19174423250E+03 -0.15989795549E+03  0.80398006456E+03  0.84185340237E+03  0.00000000000E+00 0. -1.
<mgrwt>
<rscale>  0 0.65402301E+03</rscale>
<asrwt>0</asrwt>
<pdfrwt beam="1">0</pdfrwt>
<pdfrwt beam="2">  1        2 0.38886091E+00 0.65402301E+03</pdfrwt>
<totfact> 0.43817041E+00</totfact>
</mgrwt>
</event>
<event>
 5    1  0.2349912E-004  0.6509206E+03  0.7818608E-02  0.9805053E-01
         13   -1    0    0    0    0  0.00000000000E+00  0.00000000000E+00  0.10000000000E+04  0.10000000000E+04  0.00000000000E+00 0. -1.
          2   -1    0    0  501    0 -0.00000000000E+00 -0.00000000000E+00 -0.10592440556E+03  0.10592440556E+03  0.00000000000E+00 0. -1.
    9000006    2    1    2  501    0  0.00000000000E+00  0.00000000000E+00  0.89407559444E+03  0.11059244056E+04  0.65092059597E+03 0.  0.
         13    1    3    3    0    0 -0.19569946860E+03  0.16956115349E+03  0.11204659225E+03  0.28214128663E+03  0.00000000000E+00 0. -1.
          2    1    3    3  501    0  0.19569946860E+03 -0.16956115349E+03  0.78202900219E+03  0.82378311894E+03  0.00000000000E+00 0. -1.
<mgrwt>
<rscale>  0 0.65092060E+03</rscale>
<asrwt>0</asrwt>
<pdfrwt beam="1">0</pdfrwt>
<pdfrwt beam="2">  1        2 0.38518047E+00 0.65092060E+03</pdfrwt>
<totfact> 0.45227665E+00</totfact>
</mgrwt>
</event>
<event>
 5    1  0.2349912E-004  0.6610961E+03  0.7818608E-02  0.9786178E-01
         13   -1    0    0    0    0  0.00000000000E+00  0.00000000000E+00  0.10000000000E+04  0.10000000000E+04  0.00000000000E+00 0. -1.
          2   -1    0    0  501    0 -0.00000000000E+00 -0.00000000000E+00 -0.10926200399E+03  0.10926200399E+03  0.00000000000E+00 0. -1.
    9000006    2    1    2  501    0  0.00000000000E+00  0.00000000000E+00  0.89073799601E+03  0.11092620040E+04  0.66109607166E+03 0.  0.
         13    1    3    3    0    0 -0.17481100342E+03 -0.63752441736E+02  0.90377650357E+03  0.92273247973E+03  0.00000000000E+00 0. -1.
          4    1    3    3  501    0  0.17481100342E+03  0.63752441736E+02 -0.13038507557E+02  0.18652952427E+03  0.00000000000E+00 0. -1.
<mgrwt>
<rscale>  0 0.66109607E+03</rscale>
<asrwt>0</asrwt>
<pdfrwt beam="1">0</pdfrwt>
<pdfrwt beam="2">  1        2 0.39731722E+00 0.66109607E+03</pdfrwt>
<totfact> 0.40725441E+00</totfact>
</mgrwt>
</event>
<event>
 5    1  0.2349912E-004  0.6468426E+03  0.7818608E-02  0.9812722E-01
         13   -1    0    0    0    0  0.00000000000E+00  0.00000000000E+00  0.10000000000E+04  0.10000000000E+04  0.00000000000E+00 0. -1.
          2   -1    0    0  501    0 -0.00000000000E+00 -0.00000000000E+00 -0.10460132548E+03  0.10460132548E+03  0.00000000000E+00 0. -1.
    9000006    2    1    2  501    0  0.00000000000E+00  0.00000000000E+00  0.89539867452E+03  0.11046013255E+04  0.64684256347E+03 0.  0.
         13    1    3    3    0    0  0.17807547782E+00  0.29193613259E+03  0.68539606954E+03  0.74497953620E+03  0.00000000000E+00 0. -1.
          2    1    3    3  501    0 -0.17807547782E+00 -0.29193613259E+03  0.21000260498E+03  0.35962178928E+03  0.00000000000E+00 0. -1.
<mgrwt>
<rscale>  0 0.64684256E+03</rscale>
<asrwt>0</asrwt>
<pdfrwt beam="1">0</pdfrwt>
<pdfrwt beam="2">  1        2 0.38036926E+00 0.64684256E+03</pdfrwt>
<totfact> 0.47133775E+00</totfact>
</mgrwt>
</event>
<event>
 5    1  0.2349912E-004  0.6505086E+03  0.7818608E-02  0.9805825E-01
         13   -1    0    0    0    0  0.00000000000E+00  0.00000000000E+00  0.10000000000E+04  0.10000000000E+04  0.00000000000E+00 0. -1.
          2   -1    0    0  501    0 -0.00000000000E+00 -0.00000000000E+00 -0.10579036848E+03  0.10579036848E+03  0.00000000000E+00 0. -1.
    9000006    2    1    2  501    0  0.00000000000E+00  0.00000000000E+00  0.89420963152E+03  0.11057903685E+04  0.65050862711E+03 0.  0.
         13    1    3    3    0    0 -0.23062236990E+03 -0.51530613770E+02  0.67195414472E+02  0.24567723822E+03  0.00000000000E+00 0. -1.
          4    1    3    3  501    0  0.23062236990E+03  0.51530613770E+02  0.82701421704E+03  0.86011313026E+03  0.00000000000E+00 0. -1.
<mgrwt>
<rscale>  0 0.65050863E+03</rscale>
<asrwt>0</asrwt>
<pdfrwt beam="1">0</pdfrwt>
<pdfrwt beam="2">  1        2 0.38469306E+00 0.65050863E+03</pdfrwt>
<totfact> 0.45417530E+00</totfact>
</mgrwt>
</event>
<event>
 5    1  0.2349912E-004  0.6775492E+03  0.7818608E-02  0.9756415E-01
         13   -1    0    0    0    0  0.00000000000E+00  0.00000000000E+00  0.10000000000E+04  0.10000000000E+04  0.00000000000E+00 0. -1.
          2   -1    0    0  501    0 -0.00000000000E+00 -0.00000000000E+00 -0.11476824469E+03  0.11476824469E+03  0.00000000000E+00 0. -1.
    9000006    2    1    2  501    0  0.00000000000E+00  0.00000000000E+00  0.88523175531E+03  0.11147682447E+04  0.67754924452E+03 0.  0.
         13    1    3    3    0    0  0.25514115592E+03  0.17804739304E+02  0.80813146194E+03  0.84763817632E+03  0.00000000000E+00 0. -1.
          2    1    3    3  501    0 -0.25514115592E+03 -0.17804739304E+02  0.77100293377E+02  0.26713006837E+03  0.00000000000E+00 0. -1.
<mgrwt>
<rscale>  0 0.67754924E+03</rscale>
<asrwt>0</asrwt>
<pdfrwt beam="1">0</pdfrwt>
<pdfrwt beam="2">  1        2 0.41733995E+00 0.67754924E+03</pdfrwt>
<totfact> 0.34171484E+00</totfact>
</mgrwt>
</event>
<event>
 5    1  0.2349912E-004  0.6182559E+03  0.7818608E-02  0.9868238E-01
         13   -1    0    0    0    0  0.00000000000E+00  0.00000000000E+00  0.10000000000E+04  0.10000000000E+04  0.00000000000E+00 0. -1.
          2   -1    0    0  501    0 -0.00000000000E+00 -0.00000000000E+00 -0.95560093012E+02  0.95560093012E+02  0.00000000000E+00 0. -1.
    9000006    2    1    2  501    0  0.00000000000E+00  0.00000000000E+00  0.90443990699E+03  0.10955600930E+04  0.61825591145E+03 0.  0.
         13    1    3    3    0    0 -0.14712474578E+03 -0.25250140976E+03  0.63081115745E+03  0.69521605930E+03  0.00000000000E+00 0. -1.
          4    1    3    3  501    0  0.14712474578E+03  0.25250140976E+03  0.27362874954E+03  0.40034403371E+03  0.00000000000E+00 0. -1.
<mgrwt>
<rscale>  0 0.61825591E+03</rscale>
<asrwt>0</asrwt>
<pdfrwt beam="1">0</pdfrwt>
<pdfrwt beam="2">  1        2 0.34749198E+00 0.61825591E+03</pdfrwt>
<totfact> 0.62261788E+00</totfact>
</mgrwt>
</event>
<event>
 5    1  0.2349912E-004  0.6404450E+03  0.7818608E-02  0.9824875E-01
         13   -1    0    0    0    0  0.00000000000E+00  0.00000000000E+00  0.10000000000E+04  0.10000000000E+04  0.00000000000E+00 0. -1.
          2   -1    0    0  501    0 -0.00000000000E+00 -0.00000000000E+00 -0.10254246180E+03  0.10254246180E+03  0.00000000000E+00 0. -1.
    9000006    2    1    2  501    0  0.00000000000E+00  0.00000000000E+00  0.89745753820E+03  0.11025424618E+04  0.64044503840E+03 0.  0.
         13    1    3    3    0    0 -0.13172465457E+03  0.22769408931E+03  0.13436068369E+03  0.29537903827E+03  0.00000000000E+00 0. -1.
          4    1    3    3  501    0  0.13172465457E+03 -0.22769408931E+03  0.76309685451E+03  0.80716342353E+03  0.00000000000E+00 0. -1.
<mgrwt>
<rscale>  0 0.64044504E+03</rscale>
<asrwt>0</asrwt>
<pdfrwt beam="1">0</pdfrwt>
<pdfrwt beam="2">  1        2 0.37288247E+00 0.64044504E+03</pdfrwt>
<totfact> 0.50245829E+00</totfact>
</mgrwt>
</event>
<event>
 5    1  0.2349912E-004  0.6407615E+03  0.7818608E-02  0.9824271E-01
         13   -1    0    0    0    0  0.00000000000E+00  0.00000000000E+00  0.10000000000E+04  0.10000000000E+04  0.00000000000E+00 0. -1.
          2   -1    0    0  501    0 -0.00000000000E+00 -0.00000000000E+00 -0.10264381523E+03  0.10264381523E+03  0.00000000000E+00 0. -1.
    9000006    2    1    2  501    0  0.00000000000E+00  0.00000000000E+00  0.89735618477E+03  0.11026438152E+04  0.64076146959E+03 0.  0.
         13    1    3    3    0    0 -0.27646081949E+03  0.94418825633E+02  0.67500738643E+03  0.73551374636E+03  0.00000000000E+00 0. -1.
          2    1    3    3  501    0  0.27646081949E+03 -0.94418825633E+02  0.22234879834E+03  0.36713006887E+03  0.00000000000E+00 0. -1.
<mgrwt>
<rscale>  0 0.64076147E+03</rscale>
<asrwt>0</asrwt>
<pdfrwt beam="1">0</pdfrwt>
<pdfrwt beam="2">  1        2 0.37325102E+00 0.64076147E+03</pdfrwt>
<totfact> 0.50088335E+00</totfact>
</mgrwt>
</event>
<event>
 5    1  0.2349912E-004  0.6340293E+03  0.7818608E-02  0.9837217E-01
         13   -1    0    0    0    0  0.00000000000E+00  0.00000000000E+00  0.10000000000E+04  0.10000000000E+04  0.00000000000E+00 0. -1.
          2   -1    0    0  501    0 -0.00000000000E+00 -0.00000000000E+00 -0.10049828909E+03  0.10049828909E+03  0.00000000000E+00 0. -1.
    9000006    2    1    2  501    0  0.00000000000E+00  0.00000000000E+00  0.89950171091E+03  0.11004982891E+04  0.63402930243E+03 0.  0.
         13    1    3    3    0    0  0.20226260604E+03 -0.31356719721E+02  0.86994204797E+03  0.89369601795E+03  0.00000000000E+00 0. -1.
          2    1    3    3  501    0 -0.20226260604E+03  0.31356719721E+02  0.29559662941E+02  0.20680227113E+03  0.00000000000E+00 0. -1.
<mgrwt>
<rscale>  0 0.63402930E+03</rscale>
<asrwt>0</asrwt>
<pdfrwt beam="1">0</pdfrwt>
<pdfrwt beam="2">  1        2 0.36544909E+00 0.63402930E+03</pdfrwt>
<totfact> 0.53520766E+00</totfact>
</mgrwt>
</event>
<event>
 5    1  0.2349912E-004  0.6540394E+03  0.7818608E-02  0.9799229E-01
         13   -1    0    0    0    0  0.00000000000E+00  0.00000000000E+00  0.10000000000E+04  0.10000000000E+04  0.00000000000E+00 0. -1.
          2   -1    0    0  501    0 -0.00000000000E+00 -0.00000000000E+00 -0.10694188725E+03  0.10694188725E+03  0.00000000000E+00 0. -1.
    9000006    2    1    2  501    0  0.00000000000E+00  0.00000000000E+00  0.89305811275E+03  0.11069418873E+04  0.65403940937E+03 0.  0.
         13    1    3    3    0    0 -0.79682317424E+02  0.21143864731E+03  0.84663374173E+03  0.87626723431E+03  0.00000000000E+00 0. -1.
          4    1    3    3  501    0  0.79682317424E+02 -0.21143864731E+03  0.46424371020E+02  0.23067465295E+03  0.00000000000E+00 0. -1.
<mgrwt>
<rscale>  0 0.65403941E+03</rscale>
<asrwt>0</asrwt>
<pdfrwt beam="1">0</pdfrwt>
<pdfrwt beam="2">  1        2 0.38888041E+00 0.65403941E+03</pdfrwt>
<totfact> 0.43809672E+00</totfact>
</mgrwt>
</event>
<event>
 5    1  0.2349912E-004  0.5864556E+03  0.7818608E-02  0.9933912E-01
         13   -1    0    0    0    0  0.00000000000E+00  0.00000000000E+00  0.10000000000E+04  0.10000000000E+04  0.00000000000E+00 0. -1.
          2   -1    0    0  501    0 -0.00000000000E+00 -0.00000000000E+00 -0.85982540321E+02  0.85982540321E+02  0.00000000000E+00 0. -1.
    9000006    2    1    2  501    0  0.00000000000E+00  0.00000000000E+00  0.91401745968E+03  0.10859825403E+04  0.58645559191E+03 0.  0.
         13    1    3    3    0    0 -0.19351545543E+03 -0.12223361923E+03  0.11760725137E+03  0.25733393623E+03  0.00000000000E+00 0. -1.
          4    1    3    3  501    0  0.19351545543E+03  0.12223361923E+03  0.79641020831E+03  0.82864860409E+03  0.00000000000E+00 0. -1.
<mgrwt>
<rscale>  0 0.58645559E+03</rscale>
<asrwt>0</asrwt>
<pdfrwt beam="1">0</pdfrwt>
<pdfrwt beam="2">  1        2 0.31266444E+00 0.58645559E+03</pdfrwt>
<totfact> 0.83169063E+00</totfact>
</mgrwt>
</event>
<event>
 5    1  0.2349912E-004  0.6652761E+03  0.7818608E-02  0.9778529E-01
         13   -1    0    0    0    0  0.00000000000E+00  0.00000000000E+00  0.10000000000E+04  0.10000000000E+04  0.00000000000E+00 0. -1.
          2   -1    0    0  501    0 -0.00000000000E+00 -0.00000000000E+00 -0.11064807152E+03  0.11064807152E+03  0.00000000000E+00 0. -1.
    9000006    2    1    2  501    0  0.00000000000E+00  0.00000000000E+00  0.88935192848E+03  0.11106480715E+04  0.66527609764E+03 0.  0.
         13    1    3    3    0    0  0.25555230913E+03  0.54082385746E+02  0.78850325545E+03  0.83064388941E+03  0.00000000000E+00 0. -1.
          4    1    3    3  501    0 -0.25555230913E+03 -0.54082385746E+02  0.10084867302E+03  0.28000418211E+03  0.00000000000E+00 0. -1.
<mgrwt>
<rscale>  0 0.66527610E+03</rscale>
<asrwt>0</asrwt>
<pdfrwt beam="1">0</pdfrwt>
<pdfrwt beam="2">  1        2 0.40235747E+00 0.66527610E+03</pdfrwt>
<totfact> 0.38977634E+00</totfact>
</mgrwt>
</event>
<event>
 5    1  0.2349912E-004  0.6546258E+03  0.7818608E-02  0.9798138E-01
         13   -1    0    0    0    0  0.00000000000E+00  0.00000000000E+00  0.10000000000E+04  0.10000000000E+04  0.00000000000E+00 0. -1.
          2   -1    0    0  501    0 -0.00000000000E+00 -0.00000000000E+00 -0.10713373214E+03  0.10713373214E+03  0.00000000000E+00 0. -1.
    9000006    2    1    2  501    0  0.00000000000E+00  0.00000000000E+00  0.89286626786E+03  0.11071337321E+04  0.65462579276E+03 0.  0.
         13    1    3    3    0    0  0.73195005440E+02  0.21650534902E+02 -0.91871007954E+02  0.11944260791E+03  0.00000000000E+00 0. -1.
          4    1    3    3  501    0 -0.73195005440E+02 -0.21650534902E+02  0.98473727582E+03  0.98769112422E+03  0.00000000000E+00 0. -1.
<mgrwt>
<rscale>  0 0.65462579E+03</rscale>
<asrwt>0</asrwt>
<pdfrwt beam="1">0</pdfrwt>
<pdfrwt beam="2">  1        2 0.38957803E+00 0.65462579E+03</pdfrwt>
<totfact> 0.43546865E+00</totfact>
</mgrwt>
</event>
<event>
 5    1  0.2349912E-004  0.6551417E+03  0.7818608E-02  0.9797179E-01
         13   -1    0    0    0    0  0.00000000000E+00  0.00000000000E+00  0.10000000000E+04  0.10000000000E+04  0.00000000000E+00 0. -1.
          2   -1    0    0  501    0 -0.00000000000E+00 -0.00000000000E+00 -0.10730267728E+03  0.10730267728E+03  0.00000000000E+00 0. -1.
    9000006    2    1    2  501    0  0.00000000000E+00  0.00000000000E+00  0.89269732272E+03  0.11073026773E+04  0.65514174735E+03 0.  0.
         13    1    3    3    0    0 -0.49534621539E+02  0.32040473673E+03  0.52544085510E+03  0.61741474412E+03  0.00000000000E+00 0. -1.
          4    1    3    3  501    0  0.49534621539E+02 -0.32040473673E+03  0.36725646762E+03  0.48988793316E+03  0.00000000000E+00 0. -1.
<mgrwt>
<rscale>  0 0.65514175E+03</rscale>
<asrwt>0</asrwt>
<pdfrwt beam="1">0</pdfrwt>
<pdfrwt beam="2">  1        2 0.39019238E+00 0.65514175E+03</pdfrwt>
<totfact> 0.43316609E+00</totfact>
</mgrwt>
</event>
<event>
 5    1  0.2349912E-004  0.6326484E+03  0.7818608E-02  0.9839894E-01
         13   -1    0    0    0    0  0.00000000000E+00  0.00000000000E+00  0.10000000000E+04  0.10000000000E+04  0.00000000000E+00 0. -1.
          2   -1    0    0  501    0 -0.00000000000E+00 -0.00000000000E+00 -0.10006099481E+03  0.10006099481E+03  0.00000000000E+00 0. -1.
    9000006    2    1    2  501    0  0.00000000000E+00  0.00000000000E+00  0.89993900519E+03  0.11000609948E+04  0.63264838516E+03 0.  0.
         13    1    3    3    0    0  0.18958228154E+03 -0.93662212673E+02  0.85904284791E+03  0.88468563123E+03  0.00000000000E+00 0. -1.
          2    1    3    3  501    0 -0.18958228154E+03  0.93662212673E+02  0.40896157279E+02  0.21537536358E+03  0.00000000000E+00 0. -1.
<mgrwt>
<rscale>  0 0.63264839E+03</rscale>
<asrwt>0</asrwt>
<pdfrwt beam="1">0</pdfrwt>
<pdfrwt beam="2">  1        2 0.36385893E+00 0.63264839E+03</pdfrwt>
<totfact> 0.54246317E+00</totfact>
</mgrwt>
</event>
<event>
 5    1  0.2349912E-004  0.6563335E+03  0.7818608E-02  0.9794967E-01
         13   -1    0    0    0    0  0.00000000000E+00  0.00000000000E+00  0.10000000000E+04  0.10000000000E+04  0.00000000000E+00 0. -1.
          2   -1    0    0  501    0 -0.00000000000E+00 -0.00000000000E+00 -0.10769342991E+03  0.10769342991E+03  0.00000000000E+00 0. -1.
    9000006    2    1    2  501    0  0.00000000000E+00  0.00000000000E+00  0.89230657009E+03  0.11076934299E+04  0.65633354297E+03 0.  0.
         13    1    3    3    0    0  0.24448349537E+03 -0.21839984428E+03  0.47134234969E+03  0.57413785984E+03  0.00000000000E+00 0. -1.
          4    1    3    3  501    0 -0.24448349537E+03  0.21839984428E+03  0.42096422040E+03  0.53355557007E+03  0.00000000000E+00 0. -1.
<mgrwt>
<rscale>  0 0.65633354E+03</rscale>
<asrwt>0</asrwt>
<pdfrwt beam="1">0</pdfrwt>
<pdfrwt beam="2">  1        2 0.39161330E+00 0.65633354E+03</pdfrwt>
<totfact> 0.42788259E+00</totfact>
</mgrwt>
</event>
<event>
 5    1  0.2349912E-004  0.6602120E+03  0.7818608E-02  0.9787804E-01
         13   -1    0    0    0    0  0.00000000000E+00  0.00000000000E+00  0.10000000000E+04  0.10000000000E+04  0.00000000000E+00 0. -1.
          2   -1    0    0  501    0 -0.00000000000E+00 -0.00000000000E+00 -0.10896997227E+03  0.10896997227E+03  0.00000000000E+00 0. -1.
    9000006    2    1    2  501    0  0.00000000000E+00  0.00000000000E+00  0.89103002773E+03  0.11089699723E+04  0.66021200314E+03 0.  0.
         13    1    3    3    0    0  0.24395317069E+03  0.83999123526E+02  0.79139407158E+03  0.83239028032E+03  0.00000000000E+00 0. -1.
          2    1    3    3  501    0 -0.24395317069E+03 -0.83999123526E+02  0.99635956149E+02  0.27657969195E+03  0.00000000000E+00 0. -1.
<mgrwt>
<rscale>  0 0.66021200E+03</rscale>
<asrwt>0</asrwt>
<pdfrwt beam="1">0</pdfrwt>
<pdfrwt beam="2">  1        2 0.39625528E+00 0.66021200E+03</pdfrwt>
<totfact> 0.41102549E+00</totfact>
</mgrwt>
</event>
<event>
 5    1  0.2349912E-004  0.6513273E+03  0.7818608E-02  0.9804292E-01
         13   -1    0    0    0    0  0.00000000000E+00  0.00000000000E+00  0.10000000000E+04  0.10000000000E+04  0.00000000000E+00 0. -1.
          2   -1    0    0  501    0 -0.00000000000E+00 -0.00000000000E+00 -0.10605681568E+03  0.10605681568E+03  0.00000000000E+00 0. -1.
    9000006    2    1    2  501    0  0.00000000000E+00  0.00000000000E+00  0.89394318432E+03  0.11060568157E+04  0.65132730845E+03 0.  0.
         13    1    3    3    0    0 -0.20956180875E+03 -0.16713515642E+03  0.13289722686E+03  0.29918553626E+03  0.00000000000E+00 0. -1.
          2    1    3    3  501    0  0.20956180875E+03  0.16713515642E+03  0.76104595746E+03  0.80687127942E+03  0.00000000000E+00 0. -1.
<mgrwt>
<rscale>  0 0.65132731E+03</rscale>
<asrwt>0</asrwt>
<pdfrwt beam="1">0</pdfrwt>
<pdfrwt beam="2">  1        2 0.38566196E+00 0.65132731E+03</pdfrwt>
<totfact> 0.45040811E+00</totfact>
</mgrwt>
</event>
<event>
 5    1  0.2349912E-004  0.6597231E+03  0.7818608E-02  0.9788704E-01
         13   -1    0    0    0    0  0.00000000000E+00  0.00000000000E+00  0.10000000000E+04  0.10000000000E+04  0.00000000000E+00 0. -1.
          2   -1    0    0  501    0 -0.00000000000E+00 -0.00000000000E+00 -0.10880864280E+03  0.10880864280E+03  0.00000000000E+00 0. -1.
    9000006    2    1    2  501    0  0.00000000000E+00  0.00000000000E+00  0.89119135720E+03  0.11088086428E+04  0.65972310193E+03 0.  0.
         13    1    3    3    0    0  0.21696559766E+03  0.14925944631E+03  0.77944652596E+03  0.82273284832E+03  0.00000000000E+00 0. -1.
          4    1    3    3  501    0 -0.21696559766E+03 -0.14925944631E+03  0.11174483124E+03  0.28607579448E+03  0.00000000000E+00 0. -1.
<mgrwt>
<rscale>  0 0.65972310E+03</rscale>
<asrwt>0</asrwt>
<pdfrwt beam="1">0</pdfrwt>
<pdfrwt beam="2">  1        2 0.39566863E+00 0.65972310E+03</pdfrwt>
<totfact> 0.41312223E+00</totfact>
</mgrwt>
</event>
<event>
 5    1  0.2349912E-004  0.6203936E+03  0.7818608E-02  0.9863976E-01
         13   -1    0    0    0    0  0.00000000000E+00  0.00000000000E+00  0.10000000000E+04  0.10000000000E+04  0.00000000000E+00 0. -1.
          2   -1    0    0  501    0 -0.00000000000E+00 -0.00000000000E+00 -0.96222042011E+02  0.96222042011E+02  0.00000000000E+00 0. -1.
    9000006    2    1    2  501    0  0.00000000000E+00  0.00000000000E+00  0.90377795799E+03  0.10962220420E+04  0.62039355900E+03 0.  0.
         13    1    3    3    0    0  0.21141633350E+03  0.21519406767E+03  0.57951191478E+03  0.65332948212E+03  0.00000000000E+00 0. -1.
          2    1    3    3  501    0 -0.21141633350E+03 -0.21519406767E+03  0.32426604321E+03  0.44289255989E+03  0.00000000000E+00 0. -1.
<mgrwt>
<rscale>  0 0.62039356E+03</rscale>
<asrwt>0</asrwt>
<pdfrwt beam="1">0</pdfrwt>
<pdfrwt beam="2">  1        2 0.34989907E+00 0.62039356E+03</pdfrwt>
<totfact> 0.61017698E+00</totfact>
</mgrwt>
</event>
<event>
 5    1  0.2349912E-004  0.6536864E+03  0.7818608E-02  0.9799886E-01
         13   -1    0    0    0    0  0.00000000000E+00  0.00000000000E+00  0.10000000000E+04  0.10000000000E+04  0.00000000000E+00 0. -1.
          2   -1    0    0  501    0 -0.00000000000E+00 -0.00000000000E+00 -0.10682648523E+03  0.10682648523E+03  0.00000000000E+00 0. -1.
    9000006    2    1    2  501    0  0.00000000000E+00  0.00000000000E+00  0.89317351477E+03  0.11068264852E+04  0.65368642400E+03 0.  0.
         13    1    3    3    0    0 -0.10723694490E+02 -0.30475255516E+03  0.64576267131E+03  0.71414182426E+03  0.00000000000E+00 0. -1.
          4    1    3    3  501    0  0.10723694490E+02  0.30475255516E+03  0.24741084346E+03  0.39268466097E+03  0.00000000000E+00 0. -1.
<mgrwt>
<rscale>  0 0.65368642E+03</rscale>
<asrwt>0</asrwt>
<pdfrwt beam="1">0</pdfrwt>
<pdfrwt beam="2">  1        2 0.38846077E+00 0.65368642E+03</pdfrwt>
<totfact> 0.43968451E+00</totfact>
</mgrwt>
</event>
<event>
 5    1  0.2349912E-004  0.6471100E+03  0.7818608E-02  0.9812217E-01
         13   -1    0    0    0    0  0.00000000000E+00  0.00000000000E+00  0.10000000000E+04  0.10000000000E+04  0.00000000000E+00 0. -1.
          2   -1    0    0  501    0 -0.00000000000E+00 -0.00000000000E+00 -0.10468783944E+03  0.10468783944E+03  0.00000000000E+00 0. -1.
    9000006    2    1    2  501    0  0.00000000000E+00  0.00000000000E+00  0.89531216056E+03  0.11046878394E+04  0.64711000437E+03 0.  0.
         13    1    3    3    0    0  0.72531863159E+02  0.16951393363E+03  0.90154186042E+03  0.92020300529E+03  0.00000000000E+00 0. -1.
          4    1    3    3  501    0 -0.72531863159E+02 -0.16951393363E+03 -0.62296998561E+01  0.18448483414E+03  0.00000000000E+00 0. -1.
<mgrwt>
<rscale>  0 0.64711000E+03</rscale>
<asrwt>0</asrwt>
<pdfrwt beam="1">0</pdfrwt>
<pdfrwt beam="2">  1        2 0.38068386E+00 0.64711000E+03</pdfrwt>
<totfact> 0.47006943E+00</totfact>
</mgrwt>
</event>
<event>
 5    1  0.2349912E-004  0.6611473E+03  0.7818608E-02  0.9786084E-01
         13   -1    0    0    0    0  0.00000000000E+00  0.00000000000E+00  0.10000000000E+04  0.10000000000E+04  0.00000000000E+00 0. -1.
          2   -1    0    0  501    0 -0.00000000000E+00 -0.00000000000E+00 -0.10927894473E+03  0.10927894473E+03  0.00000000000E+00 0. -1.
    9000006    2    1    2  501    0  0.00000000000E+00  0.00000000000E+00  0.89072105527E+03  0.11092789447E+04  0.66114732013E+03 0.  0.
         13    1    3    3    0    0  0.14243666030E+03 -0.14830162603E+03  0.11078950916E+02  0.20592308670E+03  0.00000000000E+00 0. -1.
          4    1    3    3  501    0 -0.14243666030E+03  0.14830162603E+03  0.87964210436E+03  0.90335585803E+03  0.00000000000E+00 0. -1.
<mgrwt>
<rscale>  0 0.66114732E+03</rscale>
<asrwt>0</asrwt>
<pdfrwt beam="1">0</pdfrwt>
<pdfrwt beam="2">  1        2 0.39737882E+00 0.66114732E+03</pdfrwt>
<totfact> 0.40703661E+00</totfact>
</mgrwt>
</event>
<event>
 5    1  0.2349912E-004  0.6527779E+03  0.7818608E-02  0.9801581E-01
         13   -1    0    0    0    0  0.00000000000E+00  0.00000000000E+00  0.10000000000E+04  0.10000000000E+04  0.00000000000E+00 0. -1.
          2   -1    0    0  501    0 -0.00000000000E+00 -0.00000000000E+00 -0.10652973959E+03  0.10652973959E+03  0.00000000000E+00 0. -1.
    9000006    2    1    2  501    0  0.00000000000E+00  0.00000000000E+00  0.89347026041E+03  0.11065297396E+04  0.65277787828E+03 0.  0.
         13    1    3    3    0    0 -0.45044437787E+02 -0.26598430451E+03  0.13530945265E+03  0.30180341218E+03  0.00000000000E+00 0. -1.
          4    1    3    3  501    0  0.45044437787E+02  0.26598430451E+03  0.75816080775E+03  0.80472632742E+03  0.00000000000E+00 0. -1.
<mgrwt>
<rscale>  0 0.65277788E+03</rscale>
<asrwt>0</asrwt>
<pdfrwt beam="1">0</pdfrwt>
<pdfrwt beam="2">  1        2 0.38738169E+00 0.65277788E+03</pdfrwt>
<totfact> 0.44379130E+00</totfact>
</mgrwt>
</event>
<event>
 5    1  0.2349912E-004  0.6490953E+03  0.7818608E-02  0.9808478E-01
         13   -1    0    0    0    0  0.00000000000E+00  0.00000000000E+00  0.10000000000E+04  0.10000000000E+04  0.00000000000E+00 0. -1.
          2   -1    0    0  501    0 -0.00000000000E+00 -0.00000000000E+00 -0.10533117062E+03  0.10533117062E+03  0.00000000000E+00 0. -1.
    9000006    2    1    2  501    0  0.00000000000E+00  0.00000000000E+00  0.89466882938E+03  0.11053311706E+04  0.64909527996E+03 0.  0.
         13    1    3    3    0    0  0.25183114261E+03  0.11636831635E+03  0.73416053260E+03  0.78482622093E+03  0.00000000000E+00 0. -1.
          4    1    3    3  501    0 -0.25183114261E+03 -0.11636831635E+03  0.16050829679E+03  0.32050494969E+03  0.00000000000E+00 0. -1.
<mgrwt>
<rscale>  0 0.64909528E+03</rscale>
<asrwt>0</asrwt>
<pdfrwt beam="1">0</pdfrwt>
<pdfrwt beam="2">  1        2 0.38302325E+00 0.64909528E+03</pdfrwt>
<totfact> 0.46073484E+00</totfact>
</mgrwt>
</event>
<event>
 5    1  0.2349912E-004  0.6473888E+03  0.7818608E-02  0.9811691E-01
         13   -1    0    0    0    0  0.00000000000E+00  0.00000000000E+00  0.10000000000E+04  0.10000000000E+04  0.00000000000E+00 0. -1.
          2   -1    0    0  501    0 -0.00000000000E+00 -0.00000000000E+00 -0.10477806349E+03  0.10477806349E+03  0.00000000000E+00 0. -1.
    9000006    2    1    2  501    0  0.00000000000E+00  0.00000000000E+00  0.89522193651E+03  0.11047780635E+04  0.64738879659E+03 0.  0.
         13    1    3    3    0    0  0.29891922127E+03  0.10109546802E+03  0.32449252715E+03  0.45262389980E+03  0.00000000000E+00 0. -1.
          4    1    3    3  501    0 -0.29891922127E+03 -0.10109546802E+03  0.57072940937E+03  0.65215416369E+03  0.00000000000E+00 0. -1.
<mgrwt>
<rscale>  0 0.64738880E+03</rscale>
<asrwt>0</asrwt>
<pdfrwt beam="1">0</pdfrwt>
<pdfrwt beam="2">  1        2 0.38101194E+00 0.64738880E+03</pdfrwt>
<totfact> 0.46875002E+00</totfact>
</mgrwt>
</event>
<event>
 5    1  0.2349912E-004  0.6442735E+03  0.7818608E-02  0.9817584E-01
         13   -1    0    0    0    0  0.00000000000E+00  0.00000000000E+00  0.10000000000E+04  0.10000000000E+04  0.00000000000E+00 0. -1.
          2   -1    0    0  501    0 -0.00000000000E+00 -0.00000000000E+00 -0.10377208271E+03  0.10377208271E+03  0.00000000000E+00 0. -1.
    9000006    2    1    2  501    0  0.00000000000E+00  0.00000000000E+00  0.89622791729E+03  0.11037720827E+04  0.64427349071E+03 0.  0.
         13    1    3    3    0    0 -0.18246423307E+03  0.93929313693E+02  0.87351389078E+03  0.89729729170E+03  0.00000000000E+00 0. -1.
          2    1    3    3  501    0  0.18246423307E+03 -0.93929313693E+02  0.22714026516E+02  0.20647479100E+03  0.00000000000E+00 0. -1.
<mgrwt>
<rscale>  0 0.64427349E+03</rscale>
<asrwt>0</asrwt>
<pdfrwt beam="1">0</pdfrwt>
<pdfrwt beam="2">  1        2 0.37735382E+00 0.64427349E+03</pdfrwt>
<totfact> 0.48365378E+00</totfact>
</mgrwt>
</event>
<event>
 5    1  0.2349912E-004  0.7422040E+03  0.7818608E-02  0.9647661E-01
         13   -1    0    0    0    0  0.00000000000E+00  0.00000000000E+00  0.10000000000E+04  0.10000000000E+04  0.00000000000E+00 0. -1.
          2   -1    0    0  501    0 -0.00000000000E+00 -0.00000000000E+00 -0.13771669075E+03  0.13771669075E+03  0.00000000000E+00 0. -1.
    9000006    2    1    2  501    0  0.00000000000E+00  0.00000000000E+00  0.86228330925E+03  0.11377166908E+04  0.74220399016E+03 0.  0.
         13    1    3    3    0    0 -0.30739773915E+02  0.15527433497E+03 -0.83374334048E+02  0.17890313686E+03  0.00000000000E+00 0. -1.
          4    1    3    3  501    0  0.30739773915E+02 -0.15527433497E+03  0.94565764330E+03  0.95881355389E+03  0.00000000000E+00 0. -1.
<mgrwt>
<rscale>  0 0.74220399E+03</rscale>
<asrwt>0</asrwt>
<pdfrwt beam="1">0</pdfrwt>
<pdfrwt beam="2">  1        2 0.50078902E+00 0.74220399E+03</pdfrwt>
<totfact> 0.15758109E+00</totfact>
</mgrwt>
</event>
<event>
 5    1  0.2349912E-004  0.6432334E+03  0.7818608E-02  0.9819560E-01
         13   -1    0    0    0    0  0.00000000000E+00  0.00000000000E+00  0.10000000000E+04  0.10000000000E+04  0.00000000000E+00 0. -1.
          2   -1    0    0  501    0 -0.00000000000E+00 -0.00000000000E+00 -0.10343731362E+03  0.10343731362E+03  0.00000000000E+00 0. -1.
    9000006    2    1    2  501    0  0.00000000000E+00  0.00000000000E+00  0.89656268638E+03  0.11034373136E+04  0.64323343700E+03 0.  0.
         13    1    3    3    0    0  0.19794879726E+03  0.24786379233E+03  0.53933184072E+03  0.62569882556E+03  0.00000000000E+00 0. -1.
          4    1    3    3  501    0 -0.19794879726E+03 -0.24786379233E+03  0.35723084566E+03  0.47773848806E+03  0.00000000000E+00 0. -1.
<mgrwt>
<rscale>  0 0.64323344E+03</rscale>
<asrwt>0</asrwt>
<pdfrwt beam="1">0</pdfrwt>
<pdfrwt beam="2">  1        2 0.37613648E+00 0.64323344E+03</pdfrwt>
<totfact> 0.48870838E+00</totfact>
</mgrwt>
</event>
<event>
 5    1  0.2349912E-004  0.6462827E+03  0.7818608E-02  0.9813780E-01
         13   -1    0    0    0    0  0.00000000000E+00  0.00000000000E+00  0.10000000000E+04  0.10000000000E+04  0.00000000000E+00 0. -1.
          2   -1    0    0  501    0 -0.00000000000E+00 -0.00000000000E+00 -0.10442032360E+03  0.10442032360E+03  0.00000000000E+00 0. -1.
    9000006    2    1    2  501    0  0.00000000000E+00  0.00000000000E+00  0.89557967640E+03  0.11044203236E+04  0.64628267375E+03 0.  0.
         13    1    3    3    0    0  0.11544833483E+03  0.19548149670E+03  0.84075445973E+03  0.87086703642E+03  0.00000000000E+00 0. -1.
          2    1    3    3  501    0 -0.11544833483E+03 -0.19548149670E+03  0.54825216675E+02  0.23355328718E+03  0.00000000000E+00 0. -1.
<mgrwt>
<rscale>  0 0.64628267E+03</rscale>
<asrwt>0</asrwt>
<pdfrwt beam="1">0</pdfrwt>
<pdfrwt beam="2">  1        2 0.37971107E+00 0.64628267E+03</pdfrwt>
<totfact> 0.47400139E+00</totfact>
</mgrwt>
</event>
<event>
 5    1  0.2349912E-004  0.6174184E+03  0.7818608E-02  0.9869913E-01
         13   -1    0    0    0    0  0.00000000000E+00  0.00000000000E+00  0.10000000000E+04  0.10000000000E+04  0.00000000000E+00 0. -1.
          2   -1    0    0  501    0 -0.00000000000E+00 -0.00000000000E+00 -0.95301361756E+02  0.95301361756E+02  0.00000000000E+00 0. -1.
    9000006    2    1    2  501    0  0.00000000000E+00  0.00000000000E+00  0.90469863824E+03  0.10953013618E+04  0.61741837276E+03 0.  0.
         13    1    3    3    0    0  0.28346698813E+03 -0.72878432087E+02  0.62649597967E+03  0.69149259705E+03  0.00000000000E+00 0. -1.
          4    1    3    3  501    0 -0.28346698813E+03  0.72878432087E+02  0.27820265857E+03  0.40380876471E+03  0.00000000000E+00 0. -1.
<mgrwt>
<rscale>  0 0.61741837E+03</rscale>
<asrwt>0</asrwt>
<pdfrwt beam="1">0</pdfrwt>
<pdfrwt beam="2">  1        2 0.34655114E+00 0.61741837E+03</pdfrwt>
<totfact> 0.62754457E+00</totfact>
</mgrwt>
</event>
<event>
 5    1  0.2349912E-004  0.6289586E+03  0.7818608E-02  0.9847083E-01
         13   -1    0    0    0    0  0.00000000000E+00  0.00000000000E+00  0.10000000000E+04  0.10000000000E+04  0.00000000000E+00 0. -1.
          2   -1    0    0  501    0 -0.00000000000E+00 -0.00000000000E+00 -0.98897223444E+02  0.98897223444E+02  0.00000000000E+00 0. -1.
    9000006    2    1    2  501    0  0.00000000000E+00  0.00000000000E+00  0.90110277656E+03  0.10988972234E+04  0.62895857874E+03 0.  0.
         13    1    3    3    0    0  0.20555432077E+03  0.20022621572E+02  0.36196826833E+02  0.20967521178E+03  0.00000000000E+00 0. -1.
          4    1    3    3  501    0 -0.20555432077E+03 -0.20022621572E+02  0.86490594972E+03  0.88922201166E+03  0.00000000000E+00 0. -1.
<mgrwt>
<rscale>  0 0.62895858E+03</rscale>
<asrwt>0</asrwt>
<pdfrwt beam="1">0</pdfrwt>
<pdfrwt beam="2">  1        2 0.35962703E+00 0.62895858E+03</pdfrwt>
<totfact> 0.56221619E+00</totfact>
</mgrwt>
</event>
<event>
 5    1  0.2349912E-004  0.6456067E+03  0.7818608E-02  0.9815058E-01
         13   -1    0    0    0    0  0.00000000000E+00  0.00000000000E+00  0.10000000000E+04  0.10000000000E+04  0.00000000000E+00 0. -1.
          2   -1    0    0  501    0 -0.00000000000E+00 -0.00000000000E+00 -0.10420200824E+03  0.10420200824E+03  0.00000000000E+00 0. -1.
    9000006    2    1    2  501    0  0.00000000000E+00  0.00000000000E+00  0.89579799176E+03  0.11042020082E+04  0.64560671694E+03 0.  0.
         13    1    3    3    0    0  0.23300102905E+03 -0.19293660129E+03  0.64055254718E+03  0.70839365988E+03  0.00000000000E+00 0. -1.
          2    1    3    3  501    0 -0.23300102905E+03  0.19293660129E+03  0.25524544458E+03  0.39580834836E+03  0.00000000000E+00 0. -1.
<mgrwt>
<rscale>  0 0.64560672E+03</rscale>
<asrwt>0</asrwt>
<pdfrwt beam="1">0</pdfrwt>
<pdfrwt beam="2">  1        2 0.37891719E+00 0.64560672E+03</pdfrwt>
<totfact> 0.47723235E+00</totfact>
</mgrwt>
</event>
<event>
 5    1  0.2349912E-004  0.6557138E+03  0.7818608E-02  0.9796116E-01
         13   -1    0    0    0    0  0.00000000000E+00  0.00000000000E+00  0.10000000000E+04  0.10000000000E+04  0.00000000000E+00 0. -1.
          2   -1    0    0  501    0 -0.00000000000E+00 -0.00000000000E+00 -0.10749015494E+03  0.10749015494E+03  0.00000000000E+00 0. -1.
    9000006    2    1    2  501    0  0.00000000000E+00  0.00000000000E+00  0.89250984506E+03  0.11074901549E+04  0.65571382459E+03 0.  0.
         13    1    3    3    0    0  0.69685991924E+02 -0.21060847739E+03  0.85399009518E+03  0.88233278920E+03  0.00000000000E+00 0. -1.
          2    1    3    3  501    0 -0.69685991924E+02  0.21060847739E+03  0.38519749876E+02  0.22515736574E+03  0.00000000000E+00 0. -1.
<mgrwt>
<rscale>  0 0.65571382E+03</rscale>
<asrwt>0</asrwt>
<pdfrwt beam="1">0</pdfrwt>
<pdfrwt beam="2">  1        2 0.39087411E+00 0.65571382E+03</pdfrwt>
<totfact> 0.43062383E+00</totfact>
</mgrwt>
</event>
<event>
 5    1  0.2349912E-004  0.5773429E+03  0.7818608E-02  0.9953560E-01
         13   -1    0    0    0    0  0.00000000000E+00  0.00000000000E+00  0.10000000000E+04  0.10000000000E+04  0.00000000000E+00 0. -1.
          2   -1    0    0  501    0 -0.00000000000E+00 -0.00000000000E+00 -0.83331204707E+02  0.83331204707E+02  0.00000000000E+00 0. -1.
    9000006    2    1    2  501    0  0.00000000000E+00  0.00000000000E+00  0.91666879529E+03  0.10833312047E+04  0.57734289537E+03 0.  0.
         13    1    3    3    0    0 -0.18959577893E+03  0.18690060582E+02  0.86528295261E+03  0.88600816353E+03  0.00000000000E+00 0. -1.
          4    1    3    3  501    0  0.18959577893E+03 -0.18690060582E+02  0.51385842681E+02  0.19732304118E+03  0.00000000000E+00 0. -1.
<mgrwt>
<rscale>  0 0.57734290E+03</rscale>
<asrwt>0</asrwt>
<pdfrwt beam="1">0</pdfrwt>
<pdfrwt beam="2">  1        2 0.30302320E+00 0.57734290E+03</pdfrwt>
<totfact> 0.90055956E+00</totfact>
</mgrwt>
</event>
<event>
 5    1  0.2349912E-004  0.6372494E+03  0.7818608E-02  0.9831003E-01
         13   -1    0    0    0    0  0.00000000000E+00  0.00000000000E+00  0.10000000000E+04  0.10000000000E+04  0.00000000000E+00 0. -1.
          2   -1    0    0  501    0 -0.00000000000E+00 -0.00000000000E+00 -0.10152169524E+03  0.10152169524E+03  0.00000000000E+00 0. -1.
    9000006    2    1    2  501    0  0.00000000000E+00  0.00000000000E+00  0.89847830476E+03  0.11015216952E+04  0.63724938678E+03 0.  0.
         13    1    3    3    0    0 -0.19681819808E+03  0.12245803013E+03  0.71367315932E+02  0.24254209124E+03  0.00000000000E+00 0. -1.
          4    1    3    3  501    0  0.19681819808E+03 -0.12245803013E+03  0.82711098883E+03  0.85897960400E+03  0.00000000000E+00 0. -1.
<mgrwt>
<rscale>  0 0.63724939E+03</rscale>
<asrwt>0</asrwt>
<pdfrwt beam="1">0</pdfrwt>
<pdfrwt beam="2">  1        2 0.36917058E+00 0.63724939E+03</pdfrwt>
<totfact> 0.51857478E+00</totfact>
</mgrwt>
</event>
<event>
 5    1  0.2349912E-004  0.6281944E+03  0.7818608E-02  0.9848579E-01
         13   -1    0    0    0    0  0.00000000000E+00  0.00000000000E+00  0.10000000000E+04  0.10000000000E+04  0.00000000000E+00 0. -1.
          2   -1    0    0  501    0 -0.00000000000E+00 -0.00000000000E+00 -0.98657043223E+02  0.98657043223E+02  0.00000000000E+00 0. -1.
    9000006    2    1    2  501    0  0.00000000000E+00  0.00000000000E+00  0.90134295678E+03  0.10986570432E+04  0.62819437509E+03 0.  0.
         13    1    3    3    0    0  0.15332335981E+03 -0.22565434702E+02  0.92847936105E+03  0.94132416064E+03  0.00000000000E+00 0. -1.
          4    1    3    3  501    0 -0.15332335981E+03  0.22565434702E+02 -0.27136404272E+02  0.15733288259E+03  0.00000000000E+00 0. -1.
<mgrwt>
<rscale>  0 0.62819438E+03</rscale>
<asrwt>0</asrwt>
<pdfrwt beam="1">0</pdfrwt>
<pdfrwt beam="2">  1        2 0.35875364E+00 0.62819438E+03</pdfrwt>
<totfact> 0.56637462E+00</totfact>
</mgrwt>
</event>
<event>
 5    1  0.2349912E-004  0.6292584E+03  0.7818608E-02  0.9846497E-01
         13   -1    0    0    0    0  0.00000000000E+00  0.00000000000E+00  0.10000000000E+04  0.10000000000E+04  0.00000000000E+00 0. -1.
          2   -1    0    0  501    0 -0.00000000000E+00 -0.00000000000E+00 -0.98991534389E+02  0.98991534389E+02  0.00000000000E+00 0. -1.
    9000006    2    1    2  501    0  0.00000000000E+00  0.00000000000E+00  0.90100846561E+03  0.10989915344E+04  0.62925840285E+03 0.  0.
         13    1    3    3    0    0 -0.75953437177E+02  0.18696355599E+03  0.28926619066E+02  0.20386526231E+03  0.00000000000E+00 0. -1.
          2    1    3    3  501    0  0.75953437177E+02 -0.18696355599E+03  0.87208184655E+03  0.89512627208E+03  0.00000000000E+00 0. -1.
<mgrwt>
<rscale>  0 0.62925840E+03</rscale>
<asrwt>0</asrwt>
<pdfrwt beam="1">0</pdfrwt>
<pdfrwt beam="2">  1        2 0.35996998E+00 0.62925840E+03</pdfrwt>
<totfact> 0.56059104E+00</totfact>
</mgrwt>
</event>
<event>
 5    1  0.2349912E-004  0.6729780E+03  0.7818608E-02  0.9764593E-01
         13   -1    0    0    0    0  0.00000000000E+00  0.00000000000E+00  0.10000000000E+04  0.10000000000E+04  0.00000000000E+00 0. -1.
          2   -1    0    0  501    0 -0.00000000000E+00 -0.00000000000E+00 -0.11322485971E+03  0.11322485971E+03  0.00000000000E+00 0. -1.
    9000006    2    1    2  501    0  0.00000000000E+00  0.00000000000E+00  0.88677514029E+03  0.11132248597E+04  0.67297803740E+03 0.  0.
         13    1    3    3    0    0 -0.99328454776E+02  0.18922885273E+03  0.13456920019E+02  0.21413731419E+03  0.00000000000E+00 0. -1.
          4    1    3    3  501    0  0.99328454776E+02 -0.18922885273E+03  0.87331822028E+03  0.89908754551E+03  0.00000000000E+00 0. -1.
<mgrwt>
<rscale>  0 0.67297804E+03</rscale>
<asrwt>0</asrwt>
<pdfrwt beam="1">0</pdfrwt>
<pdfrwt beam="2">  1        2 0.41172763E+00 0.67297804E+03</pdfrwt>
<totfact> 0.35905953E+00</totfact>
</mgrwt>
</event>
<event>
 5    1  0.2349912E-004  0.6481534E+03  0.7818608E-02  0.9810250E-01
         13   -1    0    0    0    0  0.00000000000E+00  0.00000000000E+00  0.10000000000E+04  0.10000000000E+04  0.00000000000E+00 0. -1.
          2   -1    0    0  501    0 -0.00000000000E+00 -0.00000000000E+00 -0.10502570002E+03  0.10502570002E+03  0.00000000000E+00 0. -1.
    9000006    2    1    2  501    0  0.00000000000E+00  0.00000000000E+00  0.89497429998E+03  0.11050257000E+04  0.64815337697E+03 0.  0.
         13    1    3    3    0    0  0.24589821273E+02 -0.25853282830E+03  0.77799629420E+03  0.82019638893E+03  0.00000000000E+00 0. -1.
          2    1    3    3  501    0 -0.24589821273E+02  0.25853282830E+03  0.11697800578E+03  0.28482931109E+03  0.00000000000E+00 0. -1.
<mgrwt>
<rscale>  0 0.64815338E+03</rscale>
<asrwt>0</asrwt>
<pdfrwt beam="1">0</pdfrwt>
<pdfrwt beam="2">  1        2 0.38191244E+00 0.64815338E+03</pdfrwt>
<totfact> 0.46514594E+00</totfact>
</mgrwt>
</event>
<event>
 5    1  0.2349912E-004  0.5227756E+03  0.7818608E-02  0.1007999E+00
         13   -1    0    0    0    0  0.00000000000E+00  0.00000000000E+00  0.10000000000E+04  0.10000000000E+04  0.00000000000E+00 0. -1.
          2   -1    0    0  501    0 -0.00000000000E+00 -0.00000000000E+00 -0.68323571588E+02  0.68323571588E+02  0.00000000000E+00 0. -1.
    9000006    2    1    2  501    0  0.00000000000E+00  0.00000000000E+00  0.93167642841E+03  0.10683235716E+04  0.52277556021E+03 0.  0.
         13    1    3    3    0    0  0.23566076061E+03 -0.63925074849E+02  0.27521483261E+03  0.36792066179E+03  0.00000000000E+00 0. -1.
          4    1    3    3  501    0 -0.23566076061E+03  0.63925074849E+02  0.65646159580E+03  0.70040290979E+03  0.00000000000E+00 0. -1.
<mgrwt>
<rscale>  0 0.52277556E+03</rscale>
<asrwt>0</asrwt>
<pdfrwt beam="1">0</pdfrwt>
<pdfrwt beam="2">  1        2 0.24844988E+00 0.52277556E+03</pdfrwt>
<totfact> 0.14119675E+01</totfact>
</mgrwt>
</event>
<event>
 5    1  0.2349912E-004  0.6402423E+03  0.7818608E-02  0.9825263E-01
         13   -1    0    0    0    0  0.00000000000E+00  0.00000000000E+00  0.10000000000E+04  0.10000000000E+04  0.00000000000E+00 0. -1.
          2   -1    0    0  501    0 -0.00000000000E+00 -0.00000000000E+00 -0.10247753582E+03  0.10247753582E+03  0.00000000000E+00 0. -1.
    9000006    2    1    2  501    0  0.00000000000E+00  0.00000000000E+00  0.89752246418E+03  0.11024775358E+04  0.64024225359E+03 0.  0.
         13    1    3    3    0    0  0.23966871672E+02  0.16399803737E+03  0.92036638255E+03  0.93517059691E+03  0.00000000000E+00 0. -1.
          2    1    3    3  501    0 -0.23966871672E+02 -0.16399803737E+03 -0.22843918371E+02  0.16730693891E+03  0.00000000000E+00 0. -1.
<mgrwt>
<rscale>  0 0.64024225E+03</rscale>
<asrwt>0</asrwt>
<pdfrwt beam="1">0</pdfrwt>
<pdfrwt beam="2">  1        2 0.37264637E+00 0.64024225E+03</pdfrwt>
<totfact> 0.50346956E+00</totfact>
</mgrwt>
</event>
<event>
 5    1  0.2349912E-004  0.6419925E+03  0.7818608E-02  0.9821922E-01
         13   -1    0    0    0    0  0.00000000000E+00  0.00000000000E+00  0.10000000000E+04  0.10000000000E+04  0.00000000000E+00 0. -1.
          2   -1    0    0  501    0 -0.00000000000E+00 -0.00000000000E+00 -0.10303858425E+03  0.10303858425E+03  0.00000000000E+00 0. -1.
    9000006    2    1    2  501    0  0.00000000000E+00  0.00000000000E+00  0.89696141575E+03  0.11030385843E+04  0.64199247427E+03 0.  0.
         13    1    3    3    0    0  0.23539760825E+03 -0.21758580698E+03  0.41957866271E+03  0.52801692356E+03  0.00000000000E+00 0. -1.
          2    1    3    3  501    0 -0.23539760825E+03  0.21758580698E+03  0.47738275304E+03  0.57502166069E+03  0.00000000000E+00 0. -1.
<mgrwt>
<rscale>  0 0.64199247E+03</rscale>
<asrwt>0</asrwt>
<pdfrwt beam="1">0</pdfrwt>
<pdfrwt beam="2">  1        2 0.37468655E+00 0.64199247E+03</pdfrwt>
<totfact> 0.49479192E+00</totfact>
</mgrwt>
</event>
<event>
 5    1  0.2349912E-004  0.6509328E+03  0.7818608E-02  0.9805030E-01
         13   -1    0    0    0    0  0.00000000000E+00  0.00000000000E+00  0.10000000000E+04  0.10000000000E+04  0.00000000000E+00 0. -1.
          2   -1    0    0  501    0 -0.00000000000E+00 -0.00000000000E+00 -0.10592839358E+03  0.10592839358E+03  0.00000000000E+00 0. -1.
    9000006    2    1    2  501    0  0.00000000000E+00  0.00000000000E+00  0.89407160642E+03  0.11059283936E+04  0.65093284930E+03 0.  0.
         13    1    3    3    0    0 -0.28862223157E+02  0.32387916779E+03  0.42315001483E+03  0.53365408113E+03  0.00000000000E+00 0. -1.
          4    1    3    3  501    0  0.28862223157E+02 -0.32387916779E+03  0.47092159159E+03  0.57227431244E+03  0.00000000000E+00 0. -1.
<mgrwt>
<rscale>  0 0.65093285E+03</rscale>
<asrwt>0</asrwt>
<pdfrwt beam="1">0</pdfrwt>
<pdfrwt beam="2">  1        2 0.38519497E+00 0.65093285E+03</pdfrwt>
<totfact> 0.45222027E+00</totfact>
</mgrwt>
</event>
<event>
 5    1  0.2349912E-004  0.6583491E+03  0.7818608E-02  0.9791238E-01
         13   -1    0    0    0    0  0.00000000000E+00  0.00000000000E+00  0.10000000000E+04  0.10000000000E+04  0.00000000000E+00 0. -1.
          2   -1    0    0  501    0 -0.00000000000E+00 -0.00000000000E+00 -0.10835588723E+03  0.10835588723E+03  0.00000000000E+00 0. -1.
    9000006    2    1    2  501    0  0.00000000000E+00  0.00000000000E+00  0.89164411277E+03  0.11083558872E+04  0.65834910869E+03 0.  0.
         13    1    3    3    0    0 -0.30890548156E+03  0.11360851488E+03  0.45447158346E+03  0.56113626809E+03  0.00000000000E+00 0. -1.
          4    1    3    3  501    0  0.30890548156E+03 -0.11360851488E+03  0.43717252931E+03  0.54721961914E+03  0.00000000000E+00 0. -1.
<mgrwt>
<rscale>  0 0.65834911E+03</rscale>
<asrwt>0</asrwt>
<pdfrwt beam="1">0</pdfrwt>
<pdfrwt beam="2">  1        2 0.39402224E+00 0.65834911E+03</pdfrwt>
<totfact> 0.41905809E+00</totfact>
</mgrwt>
</event>
<event>
 5    1  0.2349912E-004  0.6785781E+03  0.7818608E-02  0.9754584E-01
         13   -1    0    0    0    0  0.00000000000E+00  0.00000000000E+00  0.10000000000E+04  0.10000000000E+04  0.00000000000E+00 0. -1.
          2   -1    0    0  501    0 -0.00000000000E+00 -0.00000000000E+00 -0.11511705761E+03  0.11511705761E+03  0.00000000000E+00 0. -1.
    9000006    2    1    2  501    0  0.00000000000E+00  0.00000000000E+00  0.88488294239E+03  0.11151170576E+04  0.67857809457E+03 0.  0.
         13    1    3    3    0    0 -0.20502101570E+03 -0.16013154560E+03  0.84510692068E+02  0.27352840044E+03  0.00000000000E+00 0. -1.
          2    1    3    3  501    0  0.20502101570E+03  0.16013154560E+03  0.80037225032E+03  0.84158865716E+03  0.00000000000E+00 0. -1.
<mgrwt>
<rscale>  0 0.67857809E+03</rscale>
<asrwt>0</asrwt>
<pdfrwt beam="1">0</pdfrwt>
<pdfrwt beam="2">  1        2 0.41860836E+00 0.67857809E+03</pdfrwt>
<totfact> 0.33789971E+00</totfact>
</mgrwt>
</event>
<event>
 5    1  0.2349912E-004  0.6498839E+03  0.7818608E-02  0.9806997E-01
         13   -1    0    0    0    0  0.00000000000E+00  0.00000000000E+00  0.10000000000E+04  0.10000000000E+04  0.00000000000E+00 0. -1.
          2   -1    0    0  501    0 -0.00000000000E+00 -0.00000000000E+00 -0.10558728140E+03  0.10558728140E+03  0.00000000000E+00 0. -1.
    9000006    2    1    2  501    0  0.00000000000E+00  0.00000000000E+00  0.89441271860E+03  0.11055872814E+04  0.64988393240E+03 0.  0.
         13    1    3    3    0    0 -0.20818579131E+03 -0.98096928849E+02  0.56954635036E+02  0.23708260502E+03  0.00000000000E+00 0. -1.
          2    1    3    3  501    0  0.20818579131E+03  0.98096928849E+02  0.83745808357E+03  0.86850467637E+03  0.00000000000E+00 0. -1.
<mgrwt>
<rscale>  0 0.64988393E+03</rscale>
<asrwt>0</asrwt>
<pdfrwt beam="1">0</pdfrwt>
<pdfrwt beam="2">  1        2 0.38395456E+00 0.64988393E+03</pdfrwt>
<totfact> 0.45706583E+00</totfact>
</mgrwt>
</event>
<event>
 5    1  0.2349912E-004  0.6482949E+03  0.7818608E-02  0.9809984E-01
         13   -1    0    0    0    0  0.00000000000E+00  0.00000000000E+00  0.10000000000E+04  0.10000000000E+04  0.00000000000E+00 0. -1.
          2   -1    0    0  501    0 -0.00000000000E+00 -0.00000000000E+00 -0.10507155472E+03  0.10507155472E+03  0.00000000000E+00 0. -1.
    9000006    2    1    2  501    0  0.00000000000E+00  0.00000000000E+00  0.89492844528E+03  0.11050715547E+04  0.64829485488E+03 0.  0.
         13    1    3    3    0    0  0.24741106622E+03  0.18712409174E+03  0.28716198940E+03  0.42271700883E+03  0.00000000000E+00 0. -1.
          2    1    3    3  501    0 -0.24741106622E+03 -0.18712409174E+03  0.60776645589E+03  0.68235454589E+03  0.00000000000E+00 0. -1.
<mgrwt>
<rscale>  0 0.64829485E+03</rscale>
<asrwt>0</asrwt>
<pdfrwt beam="1">0</pdfrwt>
<pdfrwt beam="2">  1        2 0.38207919E+00 0.64829485E+03</pdfrwt>
<totfact> 0.46448134E+00</totfact>
</mgrwt>
</event>
<event>
 5    1  0.2349912E-004  0.5697362E+03  0.7818608E-02  0.9970262E-01
         13   -1    0    0    0    0  0.00000000000E+00  0.00000000000E+00  0.10000000000E+04  0.10000000000E+04  0.00000000000E+00 0. -1.
          2   -1    0    0  501    0 -0.00000000000E+00 -0.00000000000E+00 -0.81149845527E+02  0.81149845527E+02  0.00000000000E+00 0. -1.
    9000006    2    1    2  501    0  0.00000000000E+00  0.00000000000E+00  0.91885015447E+03  0.10811498455E+04  0.56973623907E+03 0.  0.
         13    1    3    3    0    0  0.19125447252E+03 -0.12293640103E+03  0.78512319552E+03  0.81737999982E+03  0.00000000000E+00 0. -1.
          4    1    3    3  501    0 -0.19125447252E+03  0.12293640103E+03  0.13372695895E+03  0.26376984571E+03  0.00000000000E+00 0. -1.
<mgrwt>
<rscale>  0 0.56973624E+03</rscale>
<asrwt>0</asrwt>
<pdfrwt beam="1">0</pdfrwt>
<pdfrwt beam="2">  1        2 0.29509097E+00 0.56973624E+03</pdfrwt>
<totfact> 0.96136709E+00</totfact>
</mgrwt>
</event>
<event>
 5    1  0.2349912E-004  0.6272836E+03  0.7818608E-02  0.9850364E-01
         13   -1    0    0    0    0  0.00000000000E+00  0.00000000000E+00  0.10000000000E+04  0.10000000000E+04  0.00000000000E+00 0. -1.
          2   -1    0    0  501    0 -0.00000000000E+00 -0.00000000000E+00 -0.98371187247E+02  0.98371187247E+02  0.00000000000E+00 0. -1.
    9000006    2    1    2  501    0  0.00000000000E+00  0.00000000000E+00  0.90162881275E+03  0.10983711872E+04  0.62728362723E+03 0.  0.
         13    1    3    3    0    0  0.11838678101E+03  0.18975796272E+03  0.83582525534E+03  0.86523255359E+03  0.00000000000E+00 0. -1.
          2    1    3    3  501    0 -0.11838678101E+03 -0.18975796272E+03  0.65803557414E+02  0.23313863365E+03  0.00000000000E+00 0. -1.
<mgrwt>
<rscale>  0 0.62728363E+03</rscale>
<asrwt>0</asrwt>
<pdfrwt beam="1">0</pdfrwt>
<pdfrwt beam="2">  1        2 0.35771416E+00 0.62728363E+03</pdfrwt>
<totfact> 0.57136095E+00</totfact>
</mgrwt>
</event>
<event>
 5    1  0.2349912E-004  0.6504230E+03  0.7818608E-02  0.9805986E-01
         13   -1    0    0    0    0  0.00000000000E+00  0.00000000000E+00  0.10000000000E+04  0.10000000000E+04  0.00000000000E+00 0. -1.
          2   -1    0    0  501    0 -0.00000000000E+00 -0.00000000000E+00 -0.10576250450E+03  0.10576250450E+03  0.00000000000E+00 0. -1.
    9000006    2    1    2  501    0  0.00000000000E+00  0.00000000000E+00  0.89423749550E+03  0.11057625045E+04  0.65042295317E+03 0.  0.
         13    1    3    3    0    0  0.12931995318E+03 -0.75535819576E+02 -0.43647870704E+02  0.15599502219E+03  0.00000000000E+00 0. -1.
          2    1    3    3  501    0 -0.12931995318E+03  0.75535819576E+02  0.93788536620E+03  0.94976748232E+03  0.00000000000E+00 0. -1.
<mgrwt>
<rscale>  0 0.65042295E+03</rscale>
<asrwt>0</asrwt>
<pdfrwt beam="1">0</pdfrwt>
<pdfrwt beam="2">  1        2 0.38459174E+00 0.65042295E+03</pdfrwt>
<totfact> 0.45457090E+00</totfact>
</mgrwt>
</event>
<event>
 5    1  0.2349912E-004  0.6510400E+03  0.7818608E-02  0.9804830E-01
         13   -1    0    0    0    0  0.00000000000E+00  0.00000000000E+00  0.10000000000E+04  0.10000000000E+04  0.00000000000E+00 0. -1.
          2   -1    0    0  501    0 -0.00000000000E+00 -0.00000000000E+00 -0.10596326024E+03  0.10596326024E+03  0.00000000000E+00 0. -1.
    9000006    2    1    2  501    0  0.00000000000E+00  0.00000000000E+00  0.89403673976E+03  0.11059632602E+04  0.65103996878E+03 0.  0.
         13    1    3    3    0    0  0.13002207359E+03  0.26391619383E+03  0.21037278144E+03  0.36168246316E+03  0.00000000000E+00 0. -1.
          2    1    3    3  501    0 -0.13002207359E+03 -0.26391619383E+03  0.68366395832E+03  0.74428079707E+03  0.00000000000E+00 0. -1.
<mgrwt>
<rscale>  0 0.65103997E+03</rscale>
<asrwt>0</asrwt>
<pdfrwt beam="1">0</pdfrwt>
<pdfrwt beam="2">  1        2 0.38532176E+00 0.65103997E+03</pdfrwt>
<totfact> 0.45172761E+00</totfact>
</mgrwt>
</event>
<event>
 5    1  0.2349912E-004  0.5248712E+03  0.7818608E-02  0.1007484E+00
         13   -1    0    0    0    0  0.00000000000E+00  0.00000000000E+00  0.10000000000E+04  0.10000000000E+04  0.00000000000E+00 0. -1.
          2   -1    0    0  501    0 -0.00000000000E+00 -0.00000000000E+00 -0.68872442194E+02  0.68872442194E+02  0.00000000000E+00 0. -1.
    9000006    2    1    2  501    0  0.00000000000E+00  0.00000000000E+00  0.93112755781E+03  0.10688724422E+04  0.52487119256E+03 0.  0.
         13    1    3    3    0    0 -0.51954610690E+01 -0.15117333993E+03  0.90229538664E+03  0.91488651552E+03  0.00000000000E+00 0. -1.
          4    1    3    3  501    0  0.51954610690E+01  0.15117333993E+03  0.28832171164E+02  0.15398592668E+03  0.00000000000E+00 0. -1.
<mgrwt>
<rscale>  0 0.52487119E+03</rscale>
<asrwt>0</asrwt>
<pdfrwt beam="1">0</pdfrwt>
<pdfrwt beam="2">  1        2 0.25044577E+00 0.52487119E+03</pdfrwt>
<totfact> 0.13888183E+01</totfact>
</mgrwt>
</event>
<event>
 5    1  0.2349912E-004  0.6521863E+03  0.7818608E-02  0.9802685E-01
         13   -1    0    0    0    0  0.00000000000E+00  0.00000000000E+00  0.10000000000E+04  0.10000000000E+04  0.00000000000E+00 0. -1.
          2   -1    0    0  501    0 -0.00000000000E+00 -0.00000000000E+00 -0.10633674859E+03  0.10633674859E+03  0.00000000000E+00 0. -1.
    9000006    2    1    2  501    0  0.00000000000E+00  0.00000000000E+00  0.89366325141E+03  0.11063367486E+04  0.65218631874E+03 0.  0.
         13    1    3    3    0    0  0.26714718206E+03 -0.39369750626E+02  0.13672333093E+03  0.30267286527E+03  0.00000000000E+00 0. -1.
          2    1    3    3  501    0 -0.26714718206E+03  0.39369750626E+02  0.75693992048E+03  0.80366388332E+03  0.00000000000E+00 0. -1.
<mgrwt>
<rscale>  0 0.65218632E+03</rscale>
<asrwt>0</asrwt>
<pdfrwt beam="1">0</pdfrwt>
<pdfrwt beam="2">  1        2 0.38667990E+00 0.65218632E+03</pdfrwt>
<totfact> 0.44648078E+00</totfact>
</mgrwt>
</event>
<event>
 5    1  0.2349912E-004  0.6628078E+03  0.7818608E-02  0.9783039E-01
         13   -1    0    0    0    0  0.00000000000E+00  0.00000000000E+00  0.10000000000E+04  0.10000000000E+04  0.00000000000E+00 0. -1.
          2   -1    0    0  501    0 -0.00000000000E+00 -0.00000000000E+00 -0.10982854615E+03  0.10982854615E+03  0.00000000000E+00 0. -1.
    9000006    2    1    2  501    0  0.00000000000E+00  0.00000000000E+00  0.89017145385E+03  0.11098285462E+04  0.66280780368E+03 0.  0.
         13    1    3    3    0    0 -0.27806962134E+03  0.17960529739E+03  0.41872898336E+03  0.53377405208E+03  0.00000000000E+00 0. -1.
          2    1    3    3  501    0  0.27806962134E+03 -0.17960529739E+03  0.47144247049E+03  0.57605449408E+03  0.00000000000E+00 0. -1.
<mgrwt>
<rscale>  0 0.66280780E+03</rscale>
<asrwt>0</asrwt>
<pdfrwt beam="1">0</pdfrwt>
<pdfrwt beam="2">  1        2 0.39937737E+00 0.66280780E+03</pdfrwt>
<totfact> 0.40002713E+00</totfact>
</mgrwt>
</event>
<event>
 5    1  0.2349912E-004  0.6494836E+03  0.7818608E-02  0.9807749E-01
         13   -1    0    0    0    0  0.00000000000E+00  0.00000000000E+00  0.10000000000E+04  0.10000000000E+04  0.00000000000E+00 0. -1.
          2   -1    0    0  501    0 -0.00000000000E+00 -0.00000000000E+00 -0.10545724322E+03  0.10545724322E+03  0.00000000000E+00 0. -1.
    9000006    2    1    2  501    0  0.00000000000E+00  0.00000000000E+00  0.89454275678E+03  0.11054572432E+04  0.64948362018E+03 0.  0.
         13    1    3    3    0    0  0.29507371748E+03  0.12382612741E+03  0.35318241752E+03  0.47659125949E+03  0.00000000000E+00 0. -1.
          4    1    3    3  501    0 -0.29507371748E+03 -0.12382612741E+03  0.54136033926E+03  0.62886598373E+03  0.00000000000E+00 0. -1.
<mgrwt>
<rscale>  0 0.64948362E+03</rscale>
<asrwt>0</asrwt>
<pdfrwt beam="1">0</pdfrwt>
<pdfrwt beam="2">  1        2 0.38348169E+00 0.64948362E+03</pdfrwt>
<totfact> 0.45892541E+00</totfact>
</mgrwt>
</event>
<event>
 5    1  0.2349912E-004  0.6582552E+03  0.7818608E-02  0.9791411E-01
         13   -1    0    0    0    0  0.00000000000E+00  0.00000000000E+00  0.10000000000E+04  0.10000000000E+04  0.00000000000E+00 0. -1.
          2   -1    0    0  501    0 -0.00000000000E+00 -0.00000000000E+00 -0.10832496645E+03  0.10832496645E+03  0.00000000000E+00 0. -1.
    9000006    2    1    2  501    0  0.00000000000E+00  0.00000000000E+00  0.89167503355E+03  0.11083249664E+04  0.65825516768E+03 0.  0.
         13    1    3    3    0    0  0.40417014272E+02  0.16190805684E+03 -0.31811955047E+02  0.16988158934E+03  0.00000000000E+00 0. -1.
          4    1    3    3  501    0 -0.40417014272E+02 -0.16190805684E+03  0.92348698860E+03  0.93844337710E+03  0.00000000000E+00 0. -1.
<mgrwt>
<rscale>  0 0.65825517E+03</rscale>
<asrwt>0</asrwt>
<pdfrwt beam="1">0</pdfrwt>
<pdfrwt beam="2">  1        2 0.39390980E+00 0.65825517E+03</pdfrwt>
<totfact> 0.41946627E+00</totfact>
</mgrwt>
</event>
<event>
 5    1  0.2349912E-004  0.6518894E+03  0.7818608E-02  0.9803240E-01
         13   -1    0    0    0    0  0.00000000000E+00  0.00000000000E+00  0.10000000000E+04  0.10000000000E+04  0.00000000000E+00 0. -1.
          2   -1    0    0  501    0 -0.00000000000E+00 -0.00000000000E+00 -0.10623995536E+03  0.10623995536E+03  0.00000000000E+00 0. -1.
    9000006    2    1    2  501    0  0.00000000000E+00  0.00000000000E+00  0.89376004464E+03  0.11062399554E+04  0.65188942424E+03 0.  0.
         13    1    3    3    0    0  0.12186767113E+03  0.61615508278E+02 -0.55355029403E+02  0.14735121108E+03  0.00000000000E+00 0. -1.
          2    1    3    3  501    0 -0.12186767113E+03 -0.61615508278E+02  0.94911507405E+03  0.95888874428E+03  0.00000000000E+00 0. -1.
<mgrwt>
<rscale>  0 0.65188942E+03</rscale>
<asrwt>0</asrwt>
<pdfrwt beam="1">0</pdfrwt>
<pdfrwt beam="2">  1        2 0.38632793E+00 0.65188942E+03</pdfrwt>
<totfact> 0.44783522E+00</totfact>
</mgrwt>
</event>
<event>
 5    1  0.2349912E-004  0.6664999E+03  0.7818608E-02  0.9776302E-01
         13   -1    0    0    0    0  0.00000000000E+00  0.00000000000E+00  0.10000000000E+04  0.10000000000E+04  0.00000000000E+00 0. -1.
          2   -1    0    0  501    0 -0.00000000000E+00 -0.00000000000E+00 -0.11105552242E+03  0.11105552242E+03  0.00000000000E+00 0. -1.
    9000006    2    1    2  501    0  0.00000000000E+00  0.00000000000E+00  0.88894447758E+03  0.11110555224E+04  0.66649987974E+03 0.  0.
         13    1    3    3    0    0  0.29617654191E+03  0.91788569192E+02  0.64802272068E+03  0.71838647811E+03  0.00000000000E+00 0. -1.
          4    1    3    3  501    0 -0.29617654191E+03 -0.91788569192E+02  0.24092175690E+03  0.39266904431E+03  0.00000000000E+00 0. -1.
<mgrwt>
<rscale>  0 0.66649988E+03</rscale>
<asrwt>0</asrwt>
<pdfrwt beam="1">0</pdfrwt>
<pdfrwt beam="2">  1        2 0.40383911E+00 0.66649988E+03</pdfrwt>
<totfact> 0.38476807E+00</totfact>
</mgrwt>
</event>
<event>
 5    1  0.2349912E-004  0.6654263E+03  0.7818608E-02  0.9778256E-01
         13   -1    0    0    0    0  0.00000000000E+00  0.00000000000E+00  0.10000000000E+04  0.10000000000E+04  0.00000000000E+00 0. -1.
          2   -1    0    0  501    0 -0.00000000000E+00 -0.00000000000E+00 -0.11069805484E+03  0.11069805484E+03  0.00000000000E+00 0. -1.
    9000006    2    1    2  501    0  0.00000000000E+00  0.00000000000E+00  0.88930194516E+03  0.11106980548E+04  0.66542634406E+03 0.  0.
         13    1    3    3    0    0  0.67425151513E+02 -0.25607662040E+03  0.78087923252E+03  0.82455670658E+03  0.00000000000E+00 0. -1.
          4    1    3    3  501    0 -0.67425151513E+02  0.25607662040E+03  0.10842271263E+03  0.28614134827E+03  0.00000000000E+00 0. -1.
<mgrwt>
<rscale>  0 0.66542634E+03</rscale>
<asrwt>0</asrwt>
<pdfrwt beam="1">0</pdfrwt>
<pdfrwt beam="2">  1        2 0.40253923E+00 0.66542634E+03</pdfrwt>
<totfact> 0.38915883E+00</totfact>
</mgrwt>
</event>
<event>
 5    1  0.2349912E-004  0.6532044E+03  0.7818608E-02  0.9800785E-01
         13   -1    0    0    0    0  0.00000000000E+00  0.00000000000E+00  0.10000000000E+04  0.10000000000E+04  0.00000000000E+00 0. -1.
          2   -1    0    0  501    0 -0.00000000000E+00 -0.00000000000E+00 -0.10666898550E+03  0.10666898550E+03  0.00000000000E+00 0. -1.
    9000006    2    1    2  501    0  0.00000000000E+00  0.00000000000E+00  0.89333101450E+03  0.11066689855E+04  0.65320436465E+03 0.  0.
         13    1    3    3    0    0  0.18844761273E+03  0.21309727398E+03  0.71851206308E+03  0.77277586383E+03  0.00000000000E+00 0. -1.
          4    1    3    3  501    0 -0.18844761273E+03 -0.21309727398E+03  0.17481895142E+03  0.33389312167E+03  0.00000000000E+00 0. -1.
<mgrwt>
<rscale>  0 0.65320436E+03</rscale>
<asrwt>0</asrwt>
<pdfrwt beam="1">0</pdfrwt>
<pdfrwt beam="2">  1        2 0.38788804E+00 0.65320436E+03</pdfrwt>
<totfact> 0.44185991E+00</totfact>
</mgrwt>
</event>
<event>
 5    1  0.2349912E-004  0.6440380E+03  0.7818608E-02  0.9818031E-01
         13   -1    0    0    0    0  0.00000000000E+00  0.00000000000E+00  0.10000000000E+04  0.10000000000E+04  0.00000000000E+00 0. -1.
          2   -1    0    0  501    0 -0.00000000000E+00 -0.00000000000E+00 -0.10369622920E+03  0.10369622920E+03  0.00000000000E+00 0. -1.
    9000006    2    1    2  501    0  0.00000000000E+00  0.00000000000E+00  0.89630377080E+03  0.11036962292E+04  0.64403797776E+03 0.  0.
         13    1    3    3    0    0  0.23698102750E+03 -0.15536038711E+03  0.71029604194E+03  0.76473349899E+03  0.00000000000E+00 0. -1.
          2    1    3    3  501    0 -0.23698102750E+03  0.15536038711E+03  0.18600772886E+03  0.33896273021E+03  0.00000000000E+00 0. -1.
<mgrwt>
<rscale>  0 0.64403798E+03</rscale>
<asrwt>0</asrwt>
<pdfrwt beam="1">0</pdfrwt>
<pdfrwt beam="2">  1        2 0.37707799E+00 0.64403798E+03</pdfrwt>
<totfact> 0.48479488E+00</totfact>
</mgrwt>
</event>
<event>
 5    1  0.2349912E-004  0.6499164E+03  0.7818608E-02  0.9806936E-01
         13   -1    0    0    0    0  0.00000000000E+00  0.00000000000E+00  0.10000000000E+04  0.10000000000E+04  0.00000000000E+00 0. -1.
          2   -1    0    0  501    0 -0.00000000000E+00 -0.00000000000E+00 -0.10559784772E+03  0.10559784772E+03  0.00000000000E+00 0. -1.
    9000006    2    1    2  501    0  0.00000000000E+00  0.00000000000E+00  0.89440215228E+03  0.11055978477E+04  0.64991644915E+03 0.  0.
         13    1    3    3    0    0  0.96542089788E+02 -0.21855571672E+02 -0.79327530686E+02  0.12684990437E+03  0.00000000000E+00 0. -1.
          2    1    3    3  501    0 -0.96542089788E+02  0.21855571672E+02  0.97372968297E+03  0.97874794335E+03  0.00000000000E+00 0. -1.
<mgrwt>
<rscale>  0 0.64991645E+03</rscale>
<asrwt>0</asrwt>
<pdfrwt beam="1">0</pdfrwt>
<pdfrwt beam="2">  1        2 0.38399298E+00 0.64991645E+03</pdfrwt>
<totfact> 0.45691503E+00</totfact>
</mgrwt>
</event>
<event>
 5    1  0.2349912E-004  0.6453892E+03  0.7818608E-02  0.9815470E-01
         13   -1    0    0    0    0  0.00000000000E+00  0.00000000000E+00  0.10000000000E+04  0.10000000000E+04  0.00000000000E+00 0. -1.
          2   -1    0    0  501    0 -0.00000000000E+00 -0.00000000000E+00 -0.10413180250E+03  0.10413180250E+03  0.00000000000E+00 0. -1.
    9000006    2    1    2  501    0  0.00000000000E+00  0.00000000000E+00  0.89586819750E+03  0.11041318025E+04  0.64538919266E+03 0.  0.
         13    1    3    3    0    0 -0.84731247580E+02 -0.30315158784E+03  0.56952772950E+03  0.65072429200E+03  0.00000000000E+00 0. -1.
          4    1    3    3  501    0  0.84731247580E+02  0.30315158784E+03  0.32634046800E+03  0.45340751050E+03  0.00000000000E+00 0. -1.
<mgrwt>
<rscale>  0 0.64538919E+03</rscale>
<asrwt>0</asrwt>
<pdfrwt beam="1">0</pdfrwt>
<pdfrwt beam="2">  1        2 0.37866190E+00 0.64538919E+03</pdfrwt>
<totfact> 0.47827562E+00</totfact>
</mgrwt>
</event>
<event>
 5    1  0.2349912E-004  0.6241039E+03  0.7818608E-02  0.9856623E-01
         13   -1    0    0    0    0  0.00000000000E+00  0.00000000000E+00  0.10000000000E+04  0.10000000000E+04  0.00000000000E+00 0. -1.
          2   -1    0    0  501    0 -0.00000000000E+00 -0.00000000000E+00 -0.97376409891E+02  0.97376409891E+02  0.00000000000E+00 0. -1.
    9000006    2    1    2  501    0  0.00000000000E+00  0.00000000000E+00  0.90262359011E+03  0.10973764099E+04  0.62410386921E+03 0.  0.
         13    1    3    3    0    0 -0.19229581381E+03 -0.22956885919E+03  0.60557266850E+03  0.67557220040E+03  0.00000000000E+00 0. -1.
          2    1    3    3  501    0  0.19229581381E+03  0.22956885919E+03  0.29705092161E+03  0.42180420949E+03  0.00000000000E+00 0. -1.
<mgrwt>
<rscale>  0 0.62410387E+03</rscale>
<asrwt>0</asrwt>
<pdfrwt beam="1">0</pdfrwt>
<pdfrwt beam="2">  1        2 0.35409678E+00 0.62410387E+03</pdfrwt>
<totfact> 0.58903343E+00</totfact>
</mgrwt>
</event>
<event>
 5    1  0.2349912E-004  0.6520203E+03  0.7818608E-02  0.9802996E-01
         13   -1    0    0    0    0  0.00000000000E+00  0.00000000000E+00  0.10000000000E+04  0.10000000000E+04  0.00000000000E+00 0. -1.
          2   -1    0    0  501    0 -0.00000000000E+00 -0.00000000000E+00 -0.10628262575E+03  0.10628262575E+03  0.00000000000E+00 0. -1.
    9000006    2    1    2  501    0  0.00000000000E+00  0.00000000000E+00  0.89371737425E+03  0.11062826258E+04  0.65202032408E+03 0.  0.
         13    1    3    3    0    0 -0.15947668084E+03  0.51878661226E+02  0.92120206302E+03  0.93634259122E+03  0.00000000000E+00 0. -1.
          2    1    3    3  501    0  0.15947668084E+03 -0.51878661226E+02 -0.27484688772E+02  0.16994003454E+03  0.00000000000E+00 0. -1.
<mgrwt>
<rscale>  0 0.65202032E+03</rscale>
<asrwt>0</asrwt>
<pdfrwt beam="1">0</pdfrwt>
<pdfrwt beam="2">  1        2 0.38648309E+00 0.65202032E+03</pdfrwt>
<totfact> 0.44723767E+00</totfact>
</mgrwt>
</event>
<event>
 5    1  0.2349912E-004  0.6461413E+03  0.7818608E-02  0.9814047E-01
         13   -1    0    0    0    0  0.00000000000E+00  0.00000000000E+00  0.10000000000E+04  0.10000000000E+04  0.00000000000E+00 0. -1.
          2   -1    0    0  501    0 -0.00000000000E+00 -0.00000000000E+00 -0.10437463619E+03  0.10437463619E+03  0.00000000000E+00 0. -1.
    9000006    2    1    2  501    0  0.00000000000E+00  0.00000000000E+00  0.89562536381E+03  0.11043746362E+04  0.64614127305E+03 0.  0.
         13    1    3    3    0    0 -0.22445067833E+03 -0.20902311888E+03  0.62132534060E+03  0.69290255455E+03  0.00000000000E+00 0. -1.
          4    1    3    3  501    0  0.22445067833E+03  0.20902311888E+03  0.27430002322E+03  0.41147208164E+03  0.00000000000E+00 0. -1.
<mgrwt>
<rscale>  0 0.64614127E+03</rscale>
<asrwt>0</asrwt>
<pdfrwt beam="1">0</pdfrwt>
<pdfrwt beam="2">  1        2 0.37954493E+00 0.64614127E+03</pdfrwt>
<totfact> 0.47467588E+00</totfact>
</mgrwt>
</event>
<event>
 5    1  0.2349912E-004  0.6454062E+03  0.7818608E-02  0.9815438E-01
         13   -1    0    0    0    0  0.00000000000E+00  0.00000000000E+00  0.10000000000E+04  0.10000000000E+04  0.00000000000E+00 0. -1.
          2   -1    0    0  501    0 -0.00000000000E+00 -0.00000000000E+00 -0.10413727908E+03  0.10413727908E+03  0.00000000000E+00 0. -1.
    9000006    2    1    2  501    0  0.00000000000E+00  0.00000000000E+00  0.89586272092E+03  0.11041372791E+04  0.64540616383E+03 0.  0.
         13    1    3    3    0    0  0.14828543032E+03  0.27797514588E+03  0.56742213819E+03  0.64901974815E+03  0.00000000000E+00 0. -1.
          4    1    3    3  501    0 -0.14828543032E+03 -0.27797514588E+03  0.32844058273E+03  0.45511753093E+03  0.00000000000E+00 0. -1.
<mgrwt>
<rscale>  0 0.64540616E+03</rscale>
<asrwt>0</asrwt>
<pdfrwt beam="1">0</pdfrwt>
<pdfrwt beam="2">  1        2 0.37868181E+00 0.64540616E+03</pdfrwt>
<totfact> 0.47819416E+00</totfact>
</mgrwt>
</event>
<event>
 5    1  0.2349912E-004  0.6267399E+03  0.7818608E-02  0.9851431E-01
         13   -1    0    0    0    0  0.00000000000E+00  0.00000000000E+00  0.10000000000E+04  0.10000000000E+04  0.00000000000E+00 0. -1.
          2   -1    0    0  501    0 -0.00000000000E+00 -0.00000000000E+00 -0.98200713394E+02  0.98200713394E+02  0.00000000000E+00 0. -1.
    9000006    2    1    2  501    0  0.00000000000E+00  0.00000000000E+00  0.90179928661E+03  0.10982007134E+04  0.62673986117E+03 0.  0.
         13    1    3    3    0    0 -0.91980526657E+02 -0.16048133566E+01  0.97580610810E+03  0.98013292635E+03  0.00000000000E+00 0. -1.
          2    1    3    3  501    0  0.91980526657E+02  0.16048133566E+01 -0.74006821494E+02  0.11806778704E+03  0.00000000000E+00 0. -1.
<mgrwt>
<rscale>  0 0.62673986E+03</rscale>
<asrwt>0</asrwt>
<pdfrwt beam="1">0</pdfrwt>
<pdfrwt beam="2">  1        2 0.35709426E+00 0.62673986E+03</pdfrwt>
<totfact> 0.57435394E+00</totfact>
</mgrwt>
</event>
<event>
 5    1  0.2349912E-004  0.6830291E+03  0.7818608E-02  0.9746703E-01
         13   -1    0    0    0    0  0.00000000000E+00  0.00000000000E+00  0.10000000000E+04  0.10000000000E+04  0.00000000000E+00 0. -1.
          2   -1    0    0  501    0 -0.00000000000E+00 -0.00000000000E+00 -0.11663219838E+03  0.11663219838E+03  0.00000000000E+00 0. -1.
    9000006    2    1    2  501    0  0.00000000000E+00  0.00000000000E+00  0.88336780162E+03  0.11166321984E+04  0.68302913080E+03 0.  0.
         13    1    3    3    0    0  0.12639562961E+03  0.65791211923E+02  0.94907970953E+03  0.95971695504E+03  0.00000000000E+00 0. -1.
          4    1    3    3  501    0 -0.12639562961E+03 -0.65791211923E+02 -0.65711907908E+02  0.15691524334E+03  0.00000000000E+00 0. -1.
<mgrwt>
<rscale>  0 0.68302913E+03</rscale>
<asrwt>0</asrwt>
<pdfrwt beam="1">0</pdfrwt>
<pdfrwt beam="2">  1        2 0.42411798E+00 0.68302913E+03</pdfrwt>
<totfact> 0.32176276E+00</totfact>
</mgrwt>
</event>
<event>
 5    1  0.2349912E-004  0.6476489E+03  0.7818608E-02  0.9811201E-01
         13   -1    0    0    0    0  0.00000000000E+00  0.00000000000E+00  0.10000000000E+04  0.10000000000E+04  0.00000000000E+00 0. -1.
          2   -1    0    0  501    0 -0.00000000000E+00 -0.00000000000E+00 -0.10486226932E+03  0.10486226932E+03  0.00000000000E+00 0. -1.
    9000006    2    1    2  501    0  0.00000000000E+00  0.00000000000E+00  0.89513773068E+03  0.11048622693E+04  0.64764888427E+03 0.  0.
         13    1    3    3    0    0  0.10741838667E+03  0.27425629956E+03  0.21801095020E+03  0.36644781627E+03  0.00000000000E+00 0. -1.
          2    1    3    3  501    0 -0.10741838667E+03 -0.27425629956E+03  0.67712678047E+03  0.73841445305E+03  0.00000000000E+00 0. -1.
<mgrwt>
<rscale>  0 0.64764888E+03</rscale>
<asrwt>0</asrwt>
<pdfrwt beam="1">0</pdfrwt>
<pdfrwt beam="2">  1        2 0.38131815E+00 0.64764888E+03</pdfrwt>
<totfact> 0.46752165E+00</totfact>
</mgrwt>
</event>
<event>
 5    1  0.2349912E-004  0.6479663E+03  0.7818608E-02  0.9810603E-01
         13   -1    0    0    0    0  0.00000000000E+00  0.00000000000E+00  0.10000000000E+04  0.10000000000E+04  0.00000000000E+00 0. -1.
          2   -1    0    0  501    0 -0.00000000000E+00 -0.00000000000E+00 -0.10496509558E+03  0.10496509558E+03  0.00000000000E+00 0. -1.
    9000006    2    1    2  501    0  0.00000000000E+00  0.00000000000E+00  0.89503490442E+03  0.11049650956E+04  0.64796634350E+03 0.  0.
         13    1    3    3    0    0  0.19842829173E+03  0.20148208755E+03  0.17790883094E+03  0.33409634941E+03  0.00000000000E+00 0. -1.
          2    1    3    3  501    0 -0.19842829173E+03 -0.20148208755E+03  0.71712607348E+03  0.77086874617E+03  0.00000000000E+00 0. -1.
<mgrwt>
<rscale>  0 0.64796634E+03</rscale>
<asrwt>0</asrwt>
<pdfrwt beam="1">0</pdfrwt>
<pdfrwt beam="2">  1        2 0.38169206E+00 0.64796634E+03</pdfrwt>
<totfact> 0.46602563E+00</totfact>
</mgrwt>
</event>
<event>
 5    1  0.2349912E-004  0.6740302E+03  0.7818608E-02  0.9762705E-01
         13   -1    0    0    0    0  0.00000000000E+00  0.00000000000E+00  0.10000000000E+04  0.10000000000E+04  0.00000000000E+00 0. -1.
          2   -1    0    0  501    0 -0.00000000000E+00 -0.00000000000E+00 -0.11357916561E+03  0.11357916561E+03  0.00000000000E+00 0. -1.
    9000006    2    1    2  501    0  0.00000000000E+00  0.00000000000E+00  0.88642083439E+03  0.11135791656E+04  0.67403016434E+03 0.  0.
         13    1    3    3    0    0 -0.18264778983E+03 -0.22658443552E+03  0.72396616713E+03  0.78027413945E+03  0.00000000000E+00 0. -1.
          2    1    3    3  501    0  0.18264778983E+03  0.22658443552E+03  0.16245466727E+03  0.33330502616E+03  0.00000000000E+00 0. -1.
<mgrwt>
<rscale>  0 0.67403016E+03</rscale>
<asrwt>0</asrwt>
<pdfrwt beam="1">0</pdfrwt>
<pdfrwt beam="2">  1        2 0.41301602E+00 0.67403016E+03</pdfrwt>
<totfact> 0.35500986E+00</totfact>
</mgrwt>
</event>
<event>
 5    1  0.2349912E-004  0.6661005E+03  0.7818608E-02  0.9777028E-01
         13   -1    0    0    0    0  0.00000000000E+00  0.00000000000E+00  0.10000000000E+04  0.10000000000E+04  0.00000000000E+00 0. -1.
          2   -1    0    0  501    0 -0.00000000000E+00 -0.00000000000E+00 -0.11092247202E+03  0.11092247202E+03  0.00000000000E+00 0. -1.
    9000006    2    1    2  501    0  0.00000000000E+00  0.00000000000E+00  0.88907752798E+03  0.11109224720E+04  0.66610050900E+03 0.  0.
         13    1    3    3    0    0  0.66354175979E+02 -0.15216320045E+03  0.92608539987E+03  0.94084572810E+03  0.00000000000E+00 0. -1.
          4    1    3    3  501    0 -0.66354175979E+02  0.15216320045E+03 -0.37007871887E+02  0.17007674392E+03  0.00000000000E+00 0. -1.
<mgrwt>
<rscale>  0 0.66610051E+03</rscale>
<asrwt>0</asrwt>
<pdfrwt beam="1">0</pdfrwt>
<pdfrwt beam="2">  1        2 0.40335529E+00 0.66610051E+03</pdfrwt>
<totfact> 0.38639711E+00</totfact>
</mgrwt>
</event>
<event>
 5    1  0.2349912E-004  0.6564093E+03  0.7818608E-02  0.9794826E-01
         13   -1    0    0    0    0  0.00000000000E+00  0.00000000000E+00  0.10000000000E+04  0.10000000000E+04  0.00000000000E+00 0. -1.
          2   -1    0    0  501    0 -0.00000000000E+00 -0.00000000000E+00 -0.10771829230E+03  0.10771829230E+03  0.00000000000E+00 0. -1.
    9000006    2    1    2  501    0  0.00000000000E+00  0.00000000000E+00  0.89228170770E+03  0.11077182923E+04  0.65640930004E+03 0.  0.
         13    1    3    3    0    0  0.11001092439E+03 -0.20179805841E+03  0.50760763997E+02  0.23537526426E+03  0.00000000000E+00 0. -1.
          4    1    3    3  501    0 -0.11001092439E+03  0.20179805841E+03  0.84152094371E+03  0.87234302804E+03  0.00000000000E+00 0. -1.
<mgrwt>
<rscale>  0 0.65640930E+03</rscale>
<asrwt>0</asrwt>
<pdfrwt beam="1">0</pdfrwt>
<pdfrwt beam="2">  1        2 0.39170371E+00 0.65640930E+03</pdfrwt>
<totfact> 0.42754839E+00</totfact>
</mgrwt>
</event>
<event>
 5    1  0.2349912E-004  0.6563865E+03  0.7818608E-02  0.9794869E-01
         13   -1    0    0    0    0  0.00000000000E+00  0.00000000000E+00  0.10000000000E+04  0.10000000000E+04  0.00000000000E+00 0. -1.
          2   -1    0    0  501    0 -0.00000000000E+00 -0.00000000000E+00 -0.10771080701E+03  0.10771080701E+03  0.00000000000E+00 0. -1.
    9000006    2    1    2  501    0  0.00000000000E+00  0.00000000000E+00  0.89228919299E+03  0.11077108070E+04  0.65638649288E+03 0.  0.
         13    1    3    3    0    0  0.23229691294E+03 -0.20750006553E+03  0.62065041872E+03  0.69442427608E+03  0.00000000000E+00 0. -1.
          4    1    3    3  501    0 -0.23229691294E+03  0.20750006553E+03  0.27163877428E+03  0.41328653093E+03  0.00000000000E+00 0. -1.
<mgrwt>
<rscale>  0 0.65638649E+03</rscale>
<asrwt>0</asrwt>
<pdfrwt beam="1">0</pdfrwt>
<pdfrwt beam="2">  1        2 0.39167649E+00 0.65638649E+03</pdfrwt>
<totfact> 0.42764898E+00</totfact>
</mgrwt>
</event>
<event>
 5    1  0.2349912E-004  0.6620513E+03  0.7818608E-02  0.9784425E-01
         13   -1    0    0    0    0  0.00000000000E+00  0.00000000000E+00  0.10000000000E+04  0.10000000000E+04  0.00000000000E+00 0. -1.
          2   -1    0    0  501    0 -0.00000000000E+00 -0.00000000000E+00 -0.10957797501E+03  0.10957797501E+03  0.00000000000E+00 0. -1.
    9000006    2    1    2  501    0  0.00000000000E+00  0.00000000000E+00  0.89042202499E+03  0.11095779750E+04  0.66205128204E+03 0.  0.
         13    1    3    3    0    0 -0.15653929090E+03  0.25900021767E+01  0.93402771104E+03  0.94705808834E+03  0.00000000000E+00 0. -1.
          2    1    3    3  501    0  0.15653929090E+03 -0.25900021767E+01 -0.43605686051E+02  0.16251988667E+03  0.00000000000E+00 0. -1.
<mgrwt>
<rscale>  0 0.66205128E+03</rscale>
<asrwt>0</asrwt>
<pdfrwt beam="1">0</pdfrwt>
<pdfrwt beam="2">  1        2 0.39846620E+00 0.66205128E+03</pdfrwt>
<totfact> 0.40320928E+00</totfact>
</mgrwt>
</event>
<event>
 5    1  0.2349912E-004  0.6608715E+03  0.7818608E-02  0.9786591E-01
         13   -1    0    0    0    0  0.00000000000E+00  0.00000000000E+00  0.10000000000E+04  0.10000000000E+04  0.00000000000E+00 0. -1.
          2   -1    0    0  501    0 -0.00000000000E+00 -0.00000000000E+00 -0.10918780090E+03  0.10918780090E+03  0.00000000000E+00 0. -1.
    9000006    2    1    2  501    0  0.00000000000E+00  0.00000000000E+00  0.89081219910E+03  0.11091878009E+04  0.66087154849E+03 0.  0.
         13    1    3    3    0    0 -0.48106986114E+02  0.22838314104E+03  0.83799668463E+03  0.86989170860E+03  0.00000000000E+00 0. -1.
          2    1    3    3  501    0  0.48106986114E+02 -0.22838314104E+03  0.52815514465E+02  0.23929609230E+03  0.00000000000E+00 0. -1.
<mgrwt>
<rscale>  0 0.66087155E+03</rscale>
<asrwt>0</asrwt>
<pdfrwt beam="1">0</pdfrwt>
<pdfrwt beam="2">  1        2 0.39704739E+00 0.66087155E+03</pdfrwt>
<totfact> 0.40820965E+00</totfact>
</mgrwt>
</event>
<event>
 5    1  0.2349912E-004  0.6578501E+03  0.7818608E-02  0.9792160E-01
         13   -1    0    0    0    0  0.00000000000E+00  0.00000000000E+00  0.10000000000E+04  0.10000000000E+04  0.00000000000E+00 0. -1.
          2   -1    0    0  501    0 -0.00000000000E+00 -0.00000000000E+00 -0.10819167357E+03  0.10819167357E+03  0.00000000000E+00 0. -1.
    9000006    2    1    2  501    0  0.00000000000E+00  0.00000000000E+00  0.89180832643E+03  0.11081916736E+04  0.65785005456E+03 0.  0.
         13    1    3    3    0    0  0.98418281296E+02  0.23198943307E+03  0.89801073702E+02  0.26752474275E+03  0.00000000000E+00 0. -1.
          4    1    3    3  501    0 -0.98418281296E+02 -0.23198943307E+03  0.80200725273E+03  0.84066693082E+03  0.00000000000E+00 0. -1.
<mgrwt>
<rscale>  0 0.65785005E+03</rscale>
<asrwt>0</asrwt>
<pdfrwt beam="1">0</pdfrwt>
<pdfrwt beam="2">  1        2 0.39342510E+00 0.65785005E+03</pdfrwt>
<totfact> 0.42123008E+00</totfact>
</mgrwt>
</event>
<event>
 5    1  0.2349912E-004  0.6630042E+03  0.7818608E-02  0.9782679E-01
         13   -1    0    0    0    0  0.00000000000E+00  0.00000000000E+00  0.10000000000E+04  0.10000000000E+04  0.00000000000E+00 0. -1.
          2   -1    0    0  501    0 -0.00000000000E+00 -0.00000000000E+00 -0.10989365811E+03  0.10989365811E+03  0.00000000000E+00 0. -1.
    9000006    2    1    2  501    0  0.00000000000E+00  0.00000000000E+00  0.89010634189E+03  0.11098936581E+04  0.66300424769E+03 0.  0.
         13    1    3    3    0    0 -0.21202917581E+03 -0.88301470539E+02  0.84521503529E+03  0.87586641503E+03  0.00000000000E+00 0. -1.
          4    1    3    3  501    0  0.21202917581E+03  0.88301470539E+02  0.44891306593E+02  0.23402724308E+03  0.00000000000E+00 0. -1.
<mgrwt>
<rscale>  0 0.66300425E+03</rscale>
<asrwt>0</asrwt>
<pdfrwt beam="1">0</pdfrwt>
<pdfrwt beam="2">  1        2 0.39961414E+00 0.66300425E+03</pdfrwt>
<totfact> 0.39920393E+00</totfact>
</mgrwt>
</event>
<event>
 5    1  0.2349912E-004  0.6459494E+03  0.7818608E-02  0.9814410E-01
         13   -1    0    0    0    0  0.00000000000E+00  0.00000000000E+00  0.10000000000E+04  0.10000000000E+04  0.00000000000E+00 0. -1.
          2   -1    0    0  501    0 -0.00000000000E+00 -0.00000000000E+00 -0.10431266960E+03  0.10431266960E+03  0.00000000000E+00 0. -1.
    9000006    2    1    2  501    0  0.00000000000E+00  0.00000000000E+00  0.89568733040E+03  0.11043126696E+04  0.64594943950E+03 0.  0.
         13    1    3    3    0    0 -0.14629951273E+02  0.21701966857E+03  0.39679250910E+02  0.22110182038E+03  0.00000000000E+00 0. -1.
          4    1    3    3  501    0  0.14629951273E+02 -0.21701966857E+03  0.85600807949E+03  0.88321084922E+03  0.00000000000E+00 0. -1.
<mgrwt>
<rscale>  0 0.64594944E+03</rscale>
<asrwt>0</asrwt>
<pdfrwt beam="1">0</pdfrwt>
<pdfrwt beam="2">  1        2 0.37931960E+00 0.64594944E+03</pdfrwt>
<totfact> 0.47559212E+00</totfact>
</mgrwt>
</event>
<event>
 5    1  0.2349912E-004  0.6478771E+03  0.7818608E-02  0.9810771E-01
         13   -1    0    0    0    0  0.00000000000E+00  0.00000000000E+00  0.10000000000E+04  0.10000000000E+04  0.00000000000E+00 0. -1.
          2   -1    0    0  501    0 -0.00000000000E+00 -0.00000000000E+00 -0.10493619081E+03  0.10493619081E+03  0.00000000000E+00 0. -1.
    9000006    2    1    2  501    0  0.00000000000E+00  0.00000000000E+00  0.89506380919E+03  0.11049361908E+04  0.64787712048E+03 0.  0.
         13    1    3    3    0    0 -0.25102393647E+03  0.19152714176E+03  0.57099355615E+03  0.65247935131E+03  0.00000000000E+00 0. -1.
          4    1    3    3  501    0  0.25102393647E+03 -0.19152714176E+03  0.32407025304E+03  0.45245683950E+03  0.00000000000E+00 0. -1.
<mgrwt>
<rscale>  0 0.64787712E+03</rscale>
<asrwt>0</asrwt>
<pdfrwt beam="1">0</pdfrwt>
<pdfrwt beam="2">  1        2 0.38158695E+00 0.64787712E+03</pdfrwt>
<totfact> 0.46644573E+00</totfact>
</mgrwt>
</event>
<event>
 5    1  0.2349912E-004  0.6431851E+03  0.7818608E-02  0.9819652E-01
         13   -1    0    0    0    0  0.00000000000E+00  0.00000000000E+00  0.10000000000E+04  0.10000000000E+04  0.00000000000E+00 0. -1.
          2   -1    0    0  501    0 -0.00000000000E+00 -0.00000000000E+00 -0.10342175245E+03  0.10342175245E+03  0.00000000000E+00 0. -1.
    9000006    2    1    2  501    0  0.00000000000E+00  0.00000000000E+00  0.89657824755E+03  0.11034217524E+04  0.64318505097E+03 0.  0.
         13    1    3    3    0    0 -0.33831291085E+02  0.62625733776E+02 -0.89738151043E+02  0.11454027475E+03  0.00000000000E+00 0. -1.
          4    1    3    3  501    0  0.33831291085E+02 -0.62625733776E+02  0.98631639860E+03  0.98888147770E+03  0.00000000000E+00 0. -1.
<mgrwt>
<rscale>  0 0.64318505E+03</rscale>
<asrwt>0</asrwt>
<pdfrwt beam="1">0</pdfrwt>
<pdfrwt beam="2">  1        2 0.37607989E+00 0.64318505E+03</pdfrwt>
<totfact> 0.48894451E+00</totfact>
</mgrwt>
</event>
<event>
 5    1  0.2349912E-004  0.6507824E+03  0.7818608E-02  0.9805312E-01
         13   -1    0    0    0    0  0.00000000000E+00  0.00000000000E+00  0.10000000000E+04  0.10000000000E+04  0.00000000000E+00 0. -1.
          2   -1    0    0  501    0 -0.00000000000E+00 -0.00000000000E+00 -0.10587942634E+03  0.10587942634E+03  0.00000000000E+00 0. -1.
    9000006    2    1    2  501    0  0.00000000000E+00  0.00000000000E+00  0.89412057366E+03  0.11058794263E+04  0.65078237942E+03 0.  0.
         13    1    3    3    0    0 -0.78394308610E+02  0.26493474155E+03  0.15498030027E+03  0.31678853890E+03  0.00000000000E+00 0. -1.
          4    1    3    3  501    0  0.78394308610E+02 -0.26493474155E+03  0.73914027339E+03  0.78909088745E+03  0.00000000000E+00 0. -1.
<mgrwt>
<rscale>  0 0.65078238E+03</rscale>
<asrwt>0</asrwt>
<pdfrwt beam="1">0</pdfrwt>
<pdfrwt beam="2">  1        2 0.38501691E+00 0.65078238E+03</pdfrwt>
<totfact> 0.45291298E+00</totfact>
</mgrwt>
</event>
<event>
 5    1  0.2349912E-004  0.6430438E+03  0.7818608E-02  0.9819920E-01
         13   -1    0    0    0    0  0.00000000000E+00  0.00000000000E+00  0.10000000000E+04  0.10000000000E+04  0.00000000000E+00 0. -1.
          2   -1    0    0  501    0 -0.00000000000E+00 -0.00000000000E+00 -0.10337633023E+03  0.10337633023E+03  0.00000000000E+00 0. -1.
    9000006    2    1    2  501    0  0.00000000000E+00  0.00000000000E+00  0.89662366977E+03  0.11033763302E+04  0.64304379392E+03 0.  0.
         13    1    3    3    0    0 -0.70847313076E+02  0.90923829159E+02  0.96332820510E+03  0.97019983263E+03  0.00000000000E+00 0. -1.
          2    1    3    3  501    0  0.70847313076E+02 -0.90923829159E+02 -0.66704535330E+02  0.13317649760E+03  0.00000000000E+00 0. -1.
<mgrwt>
<rscale>  0 0.64304379E+03</rscale>
<asrwt>0</asrwt>
<pdfrwt beam="1">0</pdfrwt>
<pdfrwt beam="2">  1        2 0.37591472E+00 0.64304379E+03</pdfrwt>
<totfact> 0.48963433E+00</totfact>
</mgrwt>
</event>
<event>
 5    1  0.2349912E-004  0.6568771E+03  0.7818608E-02  0.9793960E-01
         13   -1    0    0    0    0  0.00000000000E+00  0.00000000000E+00  0.10000000000E+04  0.10000000000E+04  0.00000000000E+00 0. -1.
          2   -1    0    0  501    0 -0.00000000000E+00 -0.00000000000E+00 -0.10787188759E+03  0.10787188759E+03  0.00000000000E+00 0. -1.
    9000006    2    1    2  501    0  0.00000000000E+00  0.00000000000E+00  0.89212811241E+03  0.11078718876E+04  0.65687711967E+03 0.  0.
         13    1    3    3    0    0  0.12234039486E+03 -0.17555738318E+03  0.25825037364E+02  0.21553305909E+03  0.00000000000E+00 0. -1.
          2    1    3    3  501    0 -0.12234039486E+03  0.17555738318E+03  0.86630307505E+03  0.89233882850E+03  0.00000000000E+00 0. -1.
<mgrwt>
<rscale>  0 0.65687712E+03</rscale>
<asrwt>0</asrwt>
<pdfrwt beam="1">0</pdfrwt>
<pdfrwt beam="2">  1        2 0.39226224E+00 0.65687712E+03</pdfrwt>
<totfact> 0.42548901E+00</totfact>
</mgrwt>
</event>
<event>
 5    1  0.2349912E-004  0.6389247E+03  0.7818608E-02  0.9827786E-01
         13   -1    0    0    0    0  0.00000000000E+00  0.00000000000E+00  0.10000000000E+04  0.10000000000E+04  0.00000000000E+00 0. -1.
          2   -1    0    0  501    0 -0.00000000000E+00 -0.00000000000E+00 -0.10205618912E+03  0.10205618912E+03  0.00000000000E+00 0. -1.
    9000006    2    1    2  501    0  0.00000000000E+00  0.00000000000E+00  0.89794381088E+03  0.11020561891E+04  0.63892468765E+03 0.  0.
         13    1    3    3    0    0 -0.14275818490E+03  0.28381259081E+03  0.39107453944E+03  0.50385392869E+03  0.00000000000E+00 0. -1.
          2    1    3    3  501    0  0.14275818490E+03 -0.28381259081E+03  0.50686927144E+03  0.59820226044E+03  0.00000000000E+00 0. -1.
<mgrwt>
<rscale>  0 0.63892469E+03</rscale>
<asrwt>0</asrwt>
<pdfrwt beam="1">0</pdfrwt>
<pdfrwt beam="2">  1        2 0.37111420E+00 0.63892469E+03</pdfrwt>
<totfact> 0.51007775E+00</totfact>
</mgrwt>
</event>
<event>
 5    1  0.2349912E-004  0.6475469E+03  0.7818608E-02  0.9811393E-01
         13   -1    0    0    0    0  0.00000000000E+00  0.00000000000E+00  0.10000000000E+04  0.10000000000E+04  0.00000000000E+00 0. -1.
          2   -1    0    0  501    0 -0.00000000000E+00 -0.00000000000E+00 -0.10482923727E+03  0.10482923727E+03  0.00000000000E+00 0. -1.
    9000006    2    1    2  501    0  0.00000000000E+00  0.00000000000E+00  0.89517076273E+03  0.11048292373E+04  0.64754687017E+03 0.  0.
         13    1    3    3    0    0  0.21273752813E+03  0.23808946986E+03  0.35593676986E+03  0.47815775187E+03  0.00000000000E+00 0. -1.
          4    1    3    3  501    0 -0.21273752813E+03 -0.23808946986E+03  0.53923399288E+03  0.62667148540E+03  0.00000000000E+00 0. -1.
<mgrwt>
<rscale>  0 0.64754687E+03</rscale>
<asrwt>0</asrwt>
<pdfrwt beam="1">0</pdfrwt>
<pdfrwt beam="2">  1        2 0.38119803E+00 0.64754687E+03</pdfrwt>
<totfact> 0.46800316E+00</totfact>
</mgrwt>
</event>
<event>
 5    1  0.2349912E-004  0.6634401E+03  0.7818608E-02  0.9781882E-01
         13   -1    0    0    0    0  0.00000000000E+00  0.00000000000E+00  0.10000000000E+04  0.10000000000E+04  0.00000000000E+00 0. -1.
          2   -1    0    0  501    0 -0.00000000000E+00 -0.00000000000E+00 -0.11003817616E+03  0.11003817616E+03  0.00000000000E+00 0. -1.
    9000006    2    1    2  501    0  0.00000000000E+00  0.00000000000E+00  0.88996182384E+03  0.11100381762E+04  0.66344005354E+03 0.  0.
         13    1    3    3    0    0  0.31285318034E+03 -0.70894683294E+02  0.30365120851E+03  0.44170943503E+03  0.00000000000E+00 0. -1.
          2    1    3    3  501    0 -0.31285318034E+03  0.70894683294E+02  0.58631061533E+03  0.66832874113E+03  0.00000000000E+00 0. -1.
<mgrwt>
<rscale>  0 0.66344005E+03</rscale>
<asrwt>0</asrwt>
<pdfrwt beam="1">0</pdfrwt>
<pdfrwt beam="2">  1        2 0.40013967E+00 0.66344005E+03</pdfrwt>
<totfact> 0.39738226E+00</totfact>
</mgrwt>
</event>
<event>
 5    1  0.2349912E-004  0.6456428E+03  0.7818608E-02  0.9814990E-01
         13   -1    0    0    0    0  0.00000000000E+00  0.00000000000E+00  0.10000000000E+04  0.10000000000E+04  0.00000000000E+00 0. -1.
          2   -1    0    0  501    0 -0.00000000000E+00 -0.00000000000E+00 -0.10421364360E+03  0.10421364360E+03  0.00000000000E+00 0. -1.
    9000006    2    1    2  501    0  0.00000000000E+00  0.00000000000E+00  0.89578635640E+03  0.11042136436E+04  0.64564276065E+03 0.  0.
         13    1    3    3    0    0 -0.21898568148E+03 -0.19681766174E+03  0.22150735469E+03  0.36845274981E+03  0.00000000000E+00 0. -1.
          2    1    3    3  501    0  0.21898568148E+03  0.19681766174E+03  0.67427900172E+03  0.73576089378E+03  0.00000000000E+00 0. -1.
<mgrwt>
<rscale>  0 0.64564276E+03</rscale>
<asrwt>0</asrwt>
<pdfrwt beam="1">0</pdfrwt>
<pdfrwt beam="2">  1        2 0.37895950E+00 0.64564276E+03</pdfrwt>
<totfact> 0.47705965E+00</totfact>
</mgrwt>
</event>
<event>
 5    1  0.2349912E-004  0.6383819E+03  0.7818608E-02  0.9828827E-01
         13   -1    0    0    0    0  0.00000000000E+00  0.00000000000E+00  0.10000000000E+04  0.10000000000E+04  0.00000000000E+00 0. -1.
          2   -1    0    0  501    0 -0.00000000000E+00 -0.00000000000E+00 -0.10188287786E+03  0.10188287786E+03  0.00000000000E+00 0. -1.
    9000006    2    1    2  501    0  0.00000000000E+00  0.00000000000E+00  0.89811712214E+03  0.11018828779E+04  0.63838194793E+03 0.  0.
         13    1    3    3    0    0 -0.15585920603E+03 -0.30554849373E+02  0.92695222886E+03  0.94046059221E+03  0.00000000000E+00 0. -1.
          2    1    3    3  501    0  0.15585920603E+03  0.30554849373E+02 -0.28835106718E+02  0.16142228565E+03  0.00000000000E+00 0. -1.
<mgrwt>
<rscale>  0 0.63838195E+03</rscale>
<asrwt>0</asrwt>
<pdfrwt beam="1">0</pdfrwt>
<pdfrwt beam="2">  1        2 0.37048397E+00 0.63838195E+03</pdfrwt>
<totfact> 0.51281886E+00</totfact>
</mgrwt>
</event>
<event>
 5    1  0.2349912E-004  0.6557852E+03  0.7818608E-02  0.9795984E-01
         13   -1    0    0    0    0  0.00000000000E+00  0.00000000000E+00  0.10000000000E+04  0.10000000000E+04  0.00000000000E+00 0. -1.
          2   -1    0    0  501    0 -0.00000000000E+00 -0.00000000000E+00 -0.10751356758E+03  0.10751356758E+03  0.00000000000E+00 0. -1.
    9000006    2    1    2  501    0  0.00000000000E+00  0.00000000000E+00  0.89248643242E+03  0.11075135676E+04  0.65578523186E+03 0.  0.
         13    1    3    3    0    0  0.31975152055E+03  0.72046795447E+02  0.43096957056E+03  0.54144856301E+03  0.00000000000E+00 0. -1.
          4    1    3    3  501    0 -0.31975152055E+03 -0.72046795447E+02  0.46151686186E+03  0.56606500458E+03  0.00000000000E+00 0. -1.
<mgrwt>
<rscale>  0 0.65578523E+03</rscale>
<asrwt>0</asrwt>
<pdfrwt beam="1">0</pdfrwt>
<pdfrwt beam="2">  1        2 0.39095925E+00 0.65578523E+03</pdfrwt>
<totfact> 0.43030729E+00</totfact>
</mgrwt>
</event>
<event>
 5    1  0.2349912E-004  0.6445014E+03  0.7818608E-02  0.9817152E-01
         13   -1    0    0    0    0  0.00000000000E+00  0.00000000000E+00  0.10000000000E+04  0.10000000000E+04  0.00000000000E+00 0. -1.
          4   -1    0    0  501    0 -0.00000000000E+00 -0.00000000000E+00 -0.10384552173E+03  0.10384552173E+03  0.00000000000E+00 0. -1.
    9000006    2    1    2  501    0  0.00000000000E+00  0.00000000000E+00  0.89615447827E+03  0.11038455217E+04  0.64450142508E+03 0.  0.
         13    1    3    3    0    0  0.28904671987E+03 -0.14245609938E+03  0.44474945480E+03  0.54922110672E+03  0.00000000000E+00 0. -1.
          2    1    3    3  501    0 -0.28904671987E+03  0.14245609938E+03  0.45140502347E+03  0.55462441501E+03  0.00000000000E+00 0. -1.
<mgrwt>
<rscale>  0 0.64450143E+03</rscale>
<asrwt>0</asrwt>
<pdfrwt beam="1">0</pdfrwt>
<pdfrwt beam="2">  1        4 0.37762088E+00 0.64450143E+03</pdfrwt>
<totfact> 0.45516853E-02</totfact>
</mgrwt>
</event>
<event>
 5    1  0.2349912E-004  0.6516455E+03  0.7818608E-02  0.9803696E-01
         13   -1    0    0    0    0  0.00000000000E+00  0.00000000000E+00  0.10000000000E+04  0.10000000000E+04  0.00000000000E+00 0. -1.
          2   -1    0    0  501    0 -0.00000000000E+00 -0.00000000000E+00 -0.10616046448E+03  0.10616046448E+03  0.00000000000E+00 0. -1.
    9000006    2    1    2  501    0  0.00000000000E+00  0.00000000000E+00  0.89383953552E+03  0.11061604645E+04  0.65164550021E+03 0.  0.
         13    1    3    3    0    0 -0.26778989038E+03  0.15449643079E+03  0.62152101755E+03  0.69416780952E+03  0.00000000000E+00 0. -1.
          2    1    3    3  501    0  0.26778989038E+03 -0.15449643079E+03  0.27231851796E+03  0.41199265496E+03  0.00000000000E+00 0. -1.
<mgrwt>
<rscale>  0 0.65164550E+03</rscale>
<asrwt>0</asrwt>
<pdfrwt beam="1">0</pdfrwt>
<pdfrwt beam="2">  1        2 0.38603887E+00 0.65164550E+03</pdfrwt>
<totfact> 0.44895033E+00</totfact>
</mgrwt>
</event>
<event>
 5    1  0.2349912E-004  0.6301601E+03  0.7818608E-02  0.9844736E-01
         13   -1    0    0    0    0  0.00000000000E+00  0.00000000000E+00  0.10000000000E+04  0.10000000000E+04  0.00000000000E+00 0. -1.
          2   -1    0    0  501    0 -0.00000000000E+00 -0.00000000000E+00 -0.99275447767E+02  0.99275447767E+02  0.00000000000E+00 0. -1.
    9000006    2    1    2  501    0  0.00000000000E+00  0.00000000000E+00  0.90072455223E+03  0.10992754478E+04  0.63016013129E+03 0.  0.
         13    1    3    3    0    0  0.12947936402E+01 -0.31448171860E+03  0.48414407611E+03  0.57731786241E+03  0.00000000000E+00 0. -1.
          2    1    3    3  501    0 -0.12947936402E+01  0.31448171860E+03  0.41658047612E+03  0.52195758536E+03  0.00000000000E+00 0. -1.
<mgrwt>
<rscale>  0 0.63016013E+03</rscale>
<asrwt>0</asrwt>
<pdfrwt beam="1">0</pdfrwt>
<pdfrwt beam="2">  1        2 0.36100239E+00 0.63016013E+03</pdfrwt>
<totfact> 0.55572485E+00</totfact>
</mgrwt>
</event>
<event>
 5    1  0.2349912E-004  0.6390821E+03  0.7818608E-02  0.9827484E-01
         13   -1    0    0    0    0  0.00000000000E+00  0.00000000000E+00  0.10000000000E+04  0.10000000000E+04  0.00000000000E+00 0. -1.
          2   -1    0    0  501    0 -0.00000000000E+00 -0.00000000000E+00 -0.10210649771E+03  0.10210649771E+03  0.00000000000E+00 0. -1.
    9000006    2    1    2  501    0  0.00000000000E+00  0.00000000000E+00  0.89789350229E+03  0.11021064977E+04  0.63908214717E+03 0.  0.
         13    1    3    3    0    0  0.11477237845E+03 -0.26802912335E+02 -0.63252675312E+02  0.13376096553E+03  0.00000000000E+00 0. -1.
          2    1    3    3  501    0 -0.11477237845E+03  0.26802912335E+02  0.96114617760E+03  0.96834553218E+03  0.00000000000E+00 0. -1.
<mgrwt>
<rscale>  0 0.63908215E+03</rscale>
<asrwt>0</asrwt>
<pdfrwt beam="1">0</pdfrwt>
<pdfrwt beam="2">  1        2 0.37129714E+00 0.63908215E+03</pdfrwt>
<totfact> 0.50928459E+00</totfact>
</mgrwt>
</event>
<event>
 5    1  0.2349912E-004  0.6256788E+03  0.7818608E-02  0.9853518E-01
         13   -1    0    0    0    0  0.00000000000E+00  0.00000000000E+00  0.10000000000E+04  0.10000000000E+04  0.00000000000E+00 0. -1.
          2   -1    0    0  501    0 -0.00000000000E+00 -0.00000000000E+00 -0.97868474783E+02  0.97868474783E+02  0.00000000000E+00 0. -1.
    9000006    2    1    2  501    0  0.00000000000E+00  0.00000000000E+00  0.90213152522E+03  0.10978684748E+04  0.62567875074E+03 0.  0.
         13    1    3    3    0    0 -0.47239956761E+02  0.20194453521E+03  0.86203382359E+03  0.88663155923E+03  0.00000000000E+00 0. -1.
          2    1    3    3  501    0  0.47239956761E+02 -0.20194453521E+03  0.40097701630E+02  0.21123691555E+03  0.00000000000E+00 0. -1.
<mgrwt>
<rscale>  0 0.62567875E+03</rscale>
<asrwt>0</asrwt>
<pdfrwt beam="1">0</pdfrwt>
<pdfrwt beam="2">  1        2 0.35588611E+00 0.62567875E+03</pdfrwt>
<totfact> 0.58022927E+00</totfact>
</mgrwt>
</event>
<event>
 5    1  0.2349912E-004  0.6592869E+03  0.7818608E-02  0.9789507E-01
         13   -1    0    0    0    0  0.00000000000E+00  0.00000000000E+00  0.10000000000E+04  0.10000000000E+04  0.00000000000E+00 0. -1.
          2   -1    0    0  501    0 -0.00000000000E+00 -0.00000000000E+00 -0.10866479590E+03  0.10866479590E+03  0.00000000000E+00 0. -1.
    9000006    2    1    2  501    0  0.00000000000E+00  0.00000000000E+00  0.89133520410E+03  0.11086647959E+04  0.65928687505E+03 0.  0.
         13    1    3    3    0    0 -0.17224477804E+03  0.22156983963E+03  0.15487345175E+03  0.32054210871E+03  0.00000000000E+00 0. -1.
          2    1    3    3  501    0  0.17224477804E+03 -0.22156983963E+03  0.73646175235E+03  0.78812268719E+03  0.00000000000E+00 0. -1.
<mgrwt>
<rscale>  0 0.65928688E+03</rscale>
<asrwt>0</asrwt>
<pdfrwt beam="1">0</pdfrwt>
<pdfrwt beam="2">  1        2 0.39514555E+00 0.65928688E+03</pdfrwt>
<totfact> 0.41499987E+00</totfact>
</mgrwt>
</event>
<event>
 5    1  0.2349912E-004  0.6398889E+03  0.7818608E-02  0.9825939E-01
         13   -1    0    0    0    0  0.00000000000E+00  0.00000000000E+00  0.10000000000E+04  0.10000000000E+04  0.00000000000E+00 0. -1.
          2   -1    0    0  501    0 -0.00000000000E+00 -0.00000000000E+00 -0.10236446535E+03  0.10236446535E+03  0.00000000000E+00 0. -1.
    9000006    2    1    2  501    0  0.00000000000E+00  0.00000000000E+00  0.89763553465E+03  0.11023644653E+04  0.63988894457E+03 0.  0.
         13    1    3    3    0    0  0.22599231863E+03  0.22513007745E+03  0.49131004617E+03  0.58578293021E+03  0.00000000000E+00 0. -1.
          4    1    3    3  501    0 -0.22599231863E+03 -0.22513007745E+03  0.40632548848E+03  0.51658153514E+03  0.00000000000E+00 0. -1.
<mgrwt>
<rscale>  0 0.63988894E+03</rscale>
<asrwt>0</asrwt>
<pdfrwt beam="1">0</pdfrwt>
<pdfrwt beam="2">  1        2 0.37223520E+00 0.63988894E+03</pdfrwt>
<totfact> 0.50523517E+00</totfact>
</mgrwt>
</event>
<event>
 5    1  0.2349912E-004  0.6547797E+03  0.7818608E-02  0.9797852E-01
         13   -1    0    0    0    0  0.00000000000E+00  0.00000000000E+00  0.10000000000E+04  0.10000000000E+04  0.00000000000E+00 0. -1.
          2   -1    0    0  501    0 -0.00000000000E+00 -0.00000000000E+00 -0.10718411518E+03  0.10718411518E+03  0.00000000000E+00 0. -1.
    9000006    2    1    2  501    0  0.00000000000E+00  0.00000000000E+00  0.89281588482E+03  0.11071841152E+04  0.65477970397E+03 0.  0.
         13    1    3    3    0    0  0.12370066709E+01 -0.32726828851E+03  0.46134680642E+03  0.56563852295E+03  0.00000000000E+00 0. -1.
          2    1    3    3  501    0 -0.12370066709E+01  0.32726828851E+03  0.43146907840E+03  0.54154559223E+03  0.00000000000E+00 0. -1.
<mgrwt>
<rscale>  0 0.65477970E+03</rscale>
<asrwt>0</asrwt>
<pdfrwt beam="1">0</pdfrwt>
<pdfrwt beam="2">  1        2 0.38976124E+00 0.65477970E+03</pdfrwt>
<totfact> 0.43478082E+00</totfact>
</mgrwt>
</event>
<event>
 5    1  0.2349912E-004  0.6522770E+03  0.7818608E-02  0.9802516E-01
         13   -1    0    0    0    0  0.00000000000E+00  0.00000000000E+00  0.10000000000E+04  0.10000000000E+04  0.00000000000E+00 0. -1.
          2   -1    0    0  501    0 -0.00000000000E+00 -0.00000000000E+00 -0.10636631190E+03  0.10636631190E+03  0.00000000000E+00 0. -1.
    9000006    2    1    2  501    0  0.00000000000E+00  0.00000000000E+00  0.89363368810E+03  0.11063663119E+04  0.65227697153E+03 0.  0.
         13    1    3    3    0    0  0.28481220540E+03  0.99375423133E+02  0.65711914235E+03  0.72304843151E+03  0.00000000000E+00 0. -1.
          4    1    3    3  501    0 -0.28481220540E+03 -0.99375423133E+02  0.23651454575E+03  0.38331788038E+03  0.00000000000E+00 0. -1.
<mgrwt>
<rscale>  0 0.65227697E+03</rscale>
<asrwt>0</asrwt>
<pdfrwt beam="1">0</pdfrwt>
<pdfrwt beam="2">  1        2 0.38678740E+00 0.65227697E+03</pdfrwt>
<totfact> 0.44606784E+00</totfact>
</mgrwt>
</event>
<event>
 5    1  0.2349912E-004  0.6325807E+03  0.7818608E-02  0.9840026E-01
         13   -1    0    0    0    0  0.00000000000E+00  0.00000000000E+00  0.10000000000E+04  0.10000000000E+04  0.00000000000E+00 0. -1.
          2   -1    0    0  501    0 -0.00000000000E+00 -0.00000000000E+00 -0.10003958822E+03  0.10003958822E+03  0.00000000000E+00 0. -1.
    9000006    2    1    2  501    0  0.00000000000E+00  0.00000000000E+00  0.89996041178E+03  0.11000395882E+04  0.63258070858E+03 0.  0.
         13    1    3    3    0    0  0.42254904199E+02 -0.15144299755E+03 -0.27268784437E+02  0.15957457517E+03  0.00000000000E+00 0. -1.
          4    1    3    3  501    0 -0.42254904199E+02  0.15144299755E+03  0.92722919622E+03  0.94046501304E+03  0.00000000000E+00 0. -1.
<mgrwt>
<rscale>  0 0.63258071E+03</rscale>
<asrwt>0</asrwt>
<pdfrwt beam="1">0</pdfrwt>
<pdfrwt beam="2">  1        2 0.36378109E+00 0.63258071E+03</pdfrwt>
<totfact> 0.54282066E+00</totfact>
</mgrwt>
</event>
<event>
 5    1  0.2349912E-004  0.6019186E+03  0.7818608E-02  0.9901433E-01
         13   -1    0    0    0    0  0.00000000000E+00  0.00000000000E+00  0.10000000000E+04  0.10000000000E+04  0.00000000000E+00 0. -1.
          2   -1    0    0  501    0 -0.00000000000E+00 -0.00000000000E+00 -0.90576513345E+02  0.90576513345E+02  0.00000000000E+00 0. -1.
    9000006    2    1    2  501    0  0.00000000000E+00  0.00000000000E+00  0.90942348666E+03  0.10905765133E+04  0.60191864349E+03 0.  0.
         13    1    3    3    0    0  0.93487451972E+02 -0.26255885466E+03  0.24893131422E+03  0.37368951689E+03  0.00000000000E+00 0. -1.
          2    1    3    3  501    0 -0.93487451972E+02  0.26255885466E+03  0.66049217244E+03  0.71688699646E+03  0.00000000000E+00 0. -1.
<mgrwt>
<rscale>  0 0.60191864E+03</rscale>
<asrwt>0</asrwt>
<pdfrwt beam="1">0</pdfrwt>
<pdfrwt beam="2">  1        2 0.32936983E+00 0.60191864E+03</pdfrwt>
<totfact> 0.72421533E+00</totfact>
</mgrwt>
</event>
<event>
 5    1  0.2349912E-004  0.6444065E+03  0.7818608E-02  0.9817332E-01
         13   -1    0    0    0    0  0.00000000000E+00  0.00000000000E+00  0.10000000000E+04  0.10000000000E+04  0.00000000000E+00 0. -1.
          2   -1    0    0  501    0 -0.00000000000E+00 -0.00000000000E+00 -0.10381494557E+03  0.10381494557E+03  0.00000000000E+00 0. -1.
    9000006    2    1    2  501    0  0.00000000000E+00  0.00000000000E+00  0.89618505443E+03  0.11038149456E+04  0.64440653495E+03 0.  0.
         13    1    3    3    0    0  0.31873648057E+02  0.29754767833E+03  0.65267245277E+03  0.71800548809E+03  0.00000000000E+00 0. -1.
          2    1    3    3  501    0 -0.31873648057E+02 -0.29754767833E+03  0.24351260166E+03  0.38580945748E+03  0.00000000000E+00 0. -1.
<mgrwt>
<rscale>  0 0.64440653E+03</rscale>
<asrwt>0</asrwt>
<pdfrwt beam="1">0</pdfrwt>
<pdfrwt beam="2">  1        2 0.37750969E+00 0.64440653E+03</pdfrwt>
<totfact> 0.48301006E+00</totfact>
</mgrwt>
</event>
<event>
 5    1  0.2349912E-004  0.6522934E+03  0.7818608E-02  0.9802485E-01
         13   -1    0    0    0    0  0.00000000000E+00  0.00000000000E+00  0.10000000000E+04  0.10000000000E+04  0.00000000000E+00 0. -1.
          2   -1    0    0  501    0 -0.00000000000E+00 -0.00000000000E+00 -0.10637166762E+03  0.10637166762E+03  0.00000000000E+00 0. -1.
    9000006    2    1    2  501    0  0.00000000000E+00  0.00000000000E+00  0.89362833238E+03  0.11063716676E+04  0.65229339295E+03 0.  0.
         13    1    3    3    0    0  0.11471344280E+03 -0.19149118276E+03  0.43494059960E+02  0.22741983266E+03  0.00000000000E+00 0. -1.
          2    1    3    3  501    0 -0.11471344280E+03  0.19149118276E+03  0.85013427242E+03  0.87895183496E+03  0.00000000000E+00 0. -1.
<mgrwt>
<rscale>  0 0.65229339E+03</rscale>
<asrwt>0</asrwt>
<pdfrwt beam="1">0</pdfrwt>
<pdfrwt beam="2">  1        2 0.38680688E+00 0.65229339E+03</pdfrwt>
<totfact> 0.44599307E+00</totfact>
</mgrwt>
</event>
<event>
 5    1  0.2349912E-004  0.6401011E+03  0.7818608E-02  0.9825533E-01
         13   -1    0    0    0    0  0.00000000000E+00  0.00000000000E+00  0.10000000000E+04  0.10000000000E+04  0.00000000000E+00 0. -1.
          2   -1    0    0  501    0 -0.00000000000E+00 -0.00000000000E+00 -0.10243234580E+03  0.10243234580E+03  0.00000000000E+00 0. -1.
    9000006    2    1    2  501    0  0.00000000000E+00  0.00000000000E+00  0.89756765420E+03  0.11024323458E+04  0.64010107265E+03 0.  0.
         13    1    3    3    0    0  0.13868838634E+03  0.25072540002E+03  0.20318756394E+03  0.35125899399E+03  0.00000000000E+00 0. -1.
          2    1    3    3  501    0 -0.13868838634E+03 -0.25072540002E+03  0.69438009026E+03  0.75117335181E+03  0.00000000000E+00 0. -1.
<mgrwt>
<rscale>  0 0.64010107E+03</rscale>
<asrwt>0</asrwt>
<pdfrwt beam="1">0</pdfrwt>
<pdfrwt beam="2">  1        2 0.37248204E+00 0.64010107E+03</pdfrwt>
<totfact> 0.50417453E+00</totfact>
</mgrwt>
</event>
<event>
 5    1  0.2349912E-004  0.6453519E+03  0.7818608E-02  0.9815540E-01
         13   -1    0    0    0    0  0.00000000000E+00  0.00000000000E+00  0.10000000000E+04  0.10000000000E+04  0.00000000000E+00 0. -1.
          2   -1    0    0  501    0 -0.00000000000E+00 -0.00000000000E+00 -0.10411975945E+03  0.10411975945E+03  0.00000000000E+00 0. -1.
    9000006    2    1    2  501    0  0.00000000000E+00  0.00000000000E+00  0.89588024055E+03  0.11041197594E+04  0.64535187130E+03 0.  0.
         13    1    3    3    0    0  0.11926300915E+03 -0.21550158901E+03  0.91291719281E+02  0.26267618512E+03  0.00000000000E+00 0. -1.
          2    1    3    3  501    0 -0.11926300915E+03  0.21550158901E+03  0.80458852127E+03  0.84144357433E+03  0.00000000000E+00 0. -1.
<mgrwt>
<rscale>  0 0.64535187E+03</rscale>
<asrwt>0</asrwt>
<pdfrwt beam="1">0</pdfrwt>
<pdfrwt beam="2">  1        2 0.37861811E+00 0.64535187E+03</pdfrwt>
<totfact> 0.47845479E+00</totfact>
</mgrwt>
</event>
<event>
 5    1  0.2349912E-004  0.6520630E+03  0.7818608E-02  0.9802916E-01
         13   -1    0    0    0    0  0.00000000000E+00  0.00000000000E+00  0.10000000000E+04  0.10000000000E+04  0.00000000000E+00 0. -1.
          2   -1    0    0  501    0 -0.00000000000E+00 -0.00000000000E+00 -0.10629654876E+03  0.10629654876E+03  0.00000000000E+00 0. -1.
    9000006    2    1    2  501    0  0.00000000000E+00  0.00000000000E+00  0.89370345124E+03  0.11062965488E+04  0.65206302995E+03 0.  0.
         13    1    3    3    0    0 -0.41944547814E+02  0.12609990451E+03 -0.58259589958E+02  0.14510241497E+03  0.00000000000E+00 0. -1.
          2    1    3    3  501    0  0.41944547814E+02 -0.12609990451E+03  0.95196304120E+03  0.96119413378E+03  0.00000000000E+00 0. -1.
<mgrwt>
<rscale>  0 0.65206303E+03</rscale>
<asrwt>0</asrwt>
<pdfrwt beam="1">0</pdfrwt>
<pdfrwt beam="2">  1        2 0.38653372E+00 0.65206303E+03</pdfrwt>
<totfact> 0.44704285E+00</totfact>
</mgrwt>
</event>
<event>
 5    1  0.2349912E-004  0.6517034E+03  0.7818608E-02  0.9803588E-01
         13   -1    0    0    0    0  0.00000000000E+00  0.00000000000E+00  0.10000000000E+04  0.10000000000E+04  0.00000000000E+00 0. -1.
          2   -1    0    0  501    0 -0.00000000000E+00 -0.00000000000E+00 -0.10617932730E+03  0.10617932730E+03  0.00000000000E+00 0. -1.
    9000006    2    1    2  501    0  0.00000000000E+00  0.00000000000E+00  0.89382067270E+03  0.11061793273E+04  0.65170339051E+03 0.  0.
         13    1    3    3    0    0 -0.27316053214E+02  0.12864668834E+03 -0.59130277958E+02  0.14419614057E+03  0.00000000000E+00 0. -1.
          2    1    3    3  501    0  0.27316053214E+02 -0.12864668834E+03  0.95295095066E+03  0.96198318673E+03  0.00000000000E+00 0. -1.
<mgrwt>
<rscale>  0 0.65170339E+03</rscale>
<asrwt>0</asrwt>
<pdfrwt beam="1">0</pdfrwt>
<pdfrwt beam="2">  1        2 0.38610746E+00 0.65170339E+03</pdfrwt>
<totfact> 0.44868549E+00</totfact>
</mgrwt>
</event>
<event>
 5    1  0.2349912E-004  0.6615637E+03  0.7818608E-02  0.9785320E-01
         13   -1    0    0    0    0  0.00000000000E+00  0.00000000000E+00  0.10000000000E+04  0.10000000000E+04  0.00000000000E+00 0. -1.
          2   -1    0    0  501    0 -0.00000000000E+00 -0.00000000000E+00 -0.10941661662E+03  0.10941661662E+03  0.00000000000E+00 0. -1.
    9000006    2    1    2  501    0  0.00000000000E+00  0.00000000000E+00  0.89058338338E+03  0.11094166166E+04  0.66156365262E+03 0.  0.
         13    1    3    3    0    0 -0.15633694508E+02 -0.30429151605E+03  0.22936785377E+03  0.38137560421E+03  0.00000000000E+00 0. -1.
          2    1    3    3  501    0  0.15633694508E+02  0.30429151605E+03  0.66121552961E+03  0.72804101241E+03  0.00000000000E+00 0. -1.
<mgrwt>
<rscale>  0 0.66156365E+03</rscale>
<asrwt>0</asrwt>
<pdfrwt beam="1">0</pdfrwt>
<pdfrwt beam="2">  1        2 0.39787944E+00 0.66156365E+03</pdfrwt>
<totfact> 0.40527049E+00</totfact>
</mgrwt>
</event>
<event>
 5    1  0.2349912E-004  0.6477730E+03  0.7818608E-02  0.9810967E-01
         13   -1    0    0    0    0  0.00000000000E+00  0.00000000000E+00  0.10000000000E+04  0.10000000000E+04  0.00000000000E+00 0. -1.
          2   -1    0    0  501    0 -0.00000000000E+00 -0.00000000000E+00 -0.10490245953E+03  0.10490245953E+03  0.00000000000E+00 0. -1.
    9000006    2    1    2  501    0  0.00000000000E+00  0.00000000000E+00  0.89509754047E+03  0.11049024595E+04  0.64777298346E+03 0.  0.
         13    1    3    3    0    0 -0.18302933979E+03 -0.19474089918E+03  0.13545477105E+03  0.29961934523E+03  0.00000000000E+00 0. -1.
          2    1    3    3  501    0  0.18302933979E+03  0.19474089918E+03  0.75964276942E+03  0.80528311430E+03  0.00000000000E+00 0. -1.
<mgrwt>
<rscale>  0 0.64777298E+03</rscale>
<asrwt>0</asrwt>
<pdfrwt beam="1">0</pdfrwt>
<pdfrwt beam="2">  1        2 0.38146429E+00 0.64777298E+03</pdfrwt>
<totfact> 0.46693641E+00</totfact>
</mgrwt>
</event>
<event>
 5    1  0.2349912E-004  0.6546856E+03  0.7818608E-02  0.9798027E-01
         13   -1    0    0    0    0  0.00000000000E+00  0.00000000000E+00  0.10000000000E+04  0.10000000000E+04  0.00000000000E+00 0. -1.
          2   -1    0    0  501    0 -0.00000000000E+00 -0.00000000000E+00 -0.10715329254E+03  0.10715329254E+03  0.00000000000E+00 0. -1.
    9000006    2    1    2  501    0  0.00000000000E+00  0.00000000000E+00  0.89284670746E+03  0.11071532925E+04  0.65468555060E+03 0.  0.
         13    1    3    3    0    0  0.13446317821E+03 -0.29716868986E+03  0.39968849349E+03  0.51588803859E+03  0.00000000000E+00 0. -1.
          4    1    3    3  501    0 -0.13446317821E+03  0.29716868986E+03  0.49315821397E+03  0.59126525395E+03  0.00000000000E+00 0. -1.
<mgrwt>
<rscale>  0 0.65468555E+03</rscale>
<asrwt>0</asrwt>
<pdfrwt beam="1">0</pdfrwt>
<pdfrwt beam="2">  1        2 0.38964916E+00 0.65468555E+03</pdfrwt>
<totfact> 0.43520149E+00</totfact>
</mgrwt>
</event>
<event>
 5    1  0.2349912E-004  0.6575441E+03  0.7818608E-02  0.9792725E-01
         13   -1    0    0    0    0  0.00000000000E+00  0.00000000000E+00  0.10000000000E+04  0.10000000000E+04  0.00000000000E+00 0. -1.
          2   -1    0    0  501    0 -0.00000000000E+00 -0.00000000000E+00 -0.10809106250E+03  0.10809106250E+03  0.00000000000E+00 0. -1.
    9000006    2    1    2  501    0  0.00000000000E+00  0.00000000000E+00  0.89190893750E+03  0.11080910625E+04  0.65754410499E+03 0.  0.
         13    1    3    3    0    0  0.28017939647E+03  0.15504112995E+03  0.32037830333E+03  0.45296854574E+03  0.00000000000E+00 0. -1.
          4    1    3    3  501    0 -0.28017939647E+03 -0.15504112995E+03  0.57153063417E+03  0.65512251677E+03  0.00000000000E+00 0. -1.
<mgrwt>
<rscale>  0 0.65754410E+03</rscale>
<asrwt>0</asrwt>
<pdfrwt beam="1">0</pdfrwt>
<pdfrwt beam="2">  1        2 0.39305924E+00 0.65754410E+03</pdfrwt>
<totfact> 0.42256586E+00</totfact>
</mgrwt>
</event>
<event>
 5    1  0.2349912E-004  0.5939144E+03  0.7818608E-02  0.9918113E-01
         13   -1    0    0    0    0  0.00000000000E+00  0.00000000000E+00  0.10000000000E+04  0.10000000000E+04  0.00000000000E+00 0. -1.
          2   -1    0    0  501    0 -0.00000000000E+00 -0.00000000000E+00 -0.88183586225E+02  0.88183586225E+02  0.00000000000E+00 0. -1.
    9000006    2    1    2  501    0  0.00000000000E+00  0.00000000000E+00  0.91181641378E+03  0.10881835862E+04  0.59391442557E+03 0.  0.
         13    1    3    3    0    0 -0.42115494669E+02  0.28737968882E+03  0.56919212936E+03  0.63901524283E+03  0.00000000000E+00 0. -1.
          2    1    3    3  501    0  0.42115494669E+02 -0.28737968882E+03  0.34262428441E+03  0.44916834340E+03  0.00000000000E+00 0. -1.
<mgrwt>
<rscale>  0 0.59391443E+03</rscale>
<asrwt>0</asrwt>
<pdfrwt beam="1">0</pdfrwt>
<pdfrwt beam="2">  1        2 0.32066826E+00 0.59391443E+03</pdfrwt>
<totfact> 0.77840726E+00</totfact>
</mgrwt>
</event>
<event>
 5    1  0.2349912E-004  0.6465176E+03  0.7818608E-02  0.9813336E-01
         13   -1    0    0    0    0  0.00000000000E+00  0.00000000000E+00  0.10000000000E+04  0.10000000000E+04  0.00000000000E+00 0. -1.
          2   -1    0    0  501    0 -0.00000000000E+00 -0.00000000000E+00 -0.10449625260E+03  0.10449625260E+03  0.00000000000E+00 0. -1.
    9000006    2    1    2  501    0  0.00000000000E+00  0.00000000000E+00  0.89550374740E+03  0.11044962526E+04  0.64651760255E+03 0.  0.
         13    1    3    3    0    0  0.18827983049E+03 -0.26275000007E+03  0.44251534272E+03  0.54800245041E+03  0.00000000000E+00 0. -1.
          4    1    3    3  501    0 -0.18827983049E+03  0.26275000007E+03  0.45298840468E+03  0.55649380220E+03  0.00000000000E+00 0. -1.
<mgrwt>
<rscale>  0 0.64651760E+03</rscale>
<asrwt>0</asrwt>
<pdfrwt beam="1">0</pdfrwt>
<pdfrwt beam="2">  1        2 0.37998717E+00 0.64651760E+03</pdfrwt>
<totfact> 0.47288235E+00</totfact>
</mgrwt>
</event>
<event>
 5    1  0.2349912E-004  0.6306375E+03  0.7818608E-02  0.9843806E-01
         13   -1    0    0    0    0  0.00000000000E+00  0.00000000000E+00  0.10000000000E+04  0.10000000000E+04  0.00000000000E+00 0. -1.
          2   -1    0    0  501    0 -0.00000000000E+00 -0.00000000000E+00 -0.99425916581E+02  0.99425916581E+02  0.00000000000E+00 0. -1.
    9000006    2    1    2  501    0  0.00000000000E+00  0.00000000000E+00  0.90057408342E+03  0.10994259166E+04  0.63063750786E+03 0.  0.
         13    1    3    3    0    0  0.28754980163E+03  0.94169468260E+01  0.22531739377E+03  0.36543329794E+03  0.00000000000E+00 0. -1.
          4    1    3    3  501    0 -0.28754980163E+03 -0.94169468260E+01  0.67525668965E+03  0.73399261865E+03  0.00000000000E+00 0. -1.
<mgrwt>
<rscale>  0 0.63063751E+03</rscale>
<asrwt>0</asrwt>
<pdfrwt beam="1">0</pdfrwt>
<pdfrwt beam="2">  1        2 0.36154955E+00 0.63063751E+03</pdfrwt>
<totfact> 0.55316171E+00</totfact>
</mgrwt>
</event>
<event>
 5    1  0.2349912E-004  0.6533014E+03  0.7818608E-02  0.9800604E-01
         13   -1    0    0    0    0  0.00000000000E+00  0.00000000000E+00  0.10000000000E+04  0.10000000000E+04  0.00000000000E+00 0. -1.
          2   -1    0    0  501    0 -0.00000000000E+00 -0.00000000000E+00 -0.10670067703E+03  0.10670067703E+03  0.00000000000E+00 0. -1.
    9000006    2    1    2  501    0  0.00000000000E+00  0.00000000000E+00  0.89329932297E+03  0.11067006770E+04  0.65330139150E+03 0.  0.
         13    1    3    3    0    0 -0.10038795206E+03 -0.26164933794E+03  0.16236550411E+03  0.32388373514E+03  0.00000000000E+00 0. -1.
          4    1    3    3  501    0  0.10038795206E+03  0.26164933794E+03  0.73093381886E+03  0.78281694189E+03  0.00000000000E+00 0. -1.
<mgrwt>
<rscale>  0 0.65330139E+03</rscale>
<asrwt>0</asrwt>
<pdfrwt beam="1">0</pdfrwt>
<pdfrwt beam="2">  1        2 0.38800328E+00 0.65330139E+03</pdfrwt>
<totfact> 0.44142140E+00</totfact>
</mgrwt>
</event>
<event>
 5    1  0.2349912E-004  0.5084958E+03  0.7818608E-02  0.1011585E+00
         13   -1    0    0    0    0  0.00000000000E+00  0.00000000000E+00  0.10000000000E+04  0.10000000000E+04  0.00000000000E+00 0. -1.
          2   -1    0    0  501    0 -0.00000000000E+00 -0.00000000000E+00 -0.64641990581E+02  0.64641990581E+02  0.00000000000E+00 0. -1.
    9000006    2    1    2  501    0  0.00000000000E+00  0.00000000000E+00  0.93535800942E+03  0.10646419906E+04  0.50849578398E+03 0.  0.
         13    1    3    3    0    0 -0.22899653602E+03 -0.10653125574E+03  0.52885216175E+03  0.58606563706E+03  0.00000000000E+00 0. -1.
          2    1    3    3  501    0  0.22899653602E+03  0.10653125574E+03  0.40650584767E+03  0.47857635352E+03  0.00000000000E+00 0. -1.
<mgrwt>
<rscale>  0 0.50849578E+03</rscale>
<asrwt>0</asrwt>
<pdfrwt beam="1">0</pdfrwt>
<pdfrwt beam="2">  1        2 0.23506228E+00 0.50849578E+03</pdfrwt>
<totfact> 0.15782176E+01</totfact>
</mgrwt>
</event>
<event>
 5    1  0.2349912E-004  0.5992116E+03  0.7818608E-02  0.9907043E-01
         13   -1    0    0    0    0  0.00000000000E+00  0.00000000000E+00  0.10000000000E+04  0.10000000000E+04  0.00000000000E+00 0. -1.
          2   -1    0    0  501    0 -0.00000000000E+00 -0.00000000000E+00 -0.89763630252E+02  0.89763630252E+02  0.00000000000E+00 0. -1.
    9000006    2    1    2  501    0  0.00000000000E+00  0.00000000000E+00  0.91023636975E+03  0.10897636303E+04  0.59921158284E+03 0.  0.
         13    1    3    3    0    0 -0.20021673212E+03 -0.14940428379E+03  0.75591446236E+03  0.79612502425E+03  0.00000000000E+00 0. -1.
          4    1    3    3  501    0  0.20021673212E+03  0.14940428379E+03  0.15432190739E+03  0.29363860600E+03  0.00000000000E+00 0. -1.
<mgrwt>
<rscale>  0 0.59921158E+03</rscale>
<asrwt>0</asrwt>
<pdfrwt beam="1">0</pdfrwt>
<pdfrwt beam="2">  1        2 0.32641389E+00 0.59921158E+03</pdfrwt>
<totfact> 0.74220481E+00</totfact>
</mgrwt>
</event>
<event>
 5    1  0.2349912E-004  0.6558305E+03  0.7818608E-02  0.9795900E-01
         13   -1    0    0    0    0  0.00000000000E+00  0.00000000000E+00  0.10000000000E+04  0.10000000000E+04  0.00000000000E+00 0. -1.
          2   -1    0    0  501    0 -0.00000000000E+00 -0.00000000000E+00 -0.10752842027E+03  0.10752842027E+03  0.00000000000E+00 0. -1.
    9000006    2    1    2  501    0  0.00000000000E+00  0.00000000000E+00  0.89247157973E+03  0.11075284203E+04  0.65583052771E+03 0.  0.
         13    1    3    3    0    0 -0.11680196639E+03 -0.17633300808E+03  0.23063947895E+02  0.21276271944E+03  0.00000000000E+00 0. -1.
          4    1    3    3  501    0  0.11680196639E+03  0.17633300808E+03  0.86940763184E+03  0.89476570083E+03  0.00000000000E+00 0. -1.
<mgrwt>
<rscale>  0 0.65583053E+03</rscale>
<asrwt>0</asrwt>
<pdfrwt beam="1">0</pdfrwt>
<pdfrwt beam="2">  1        2 0.39101326E+00 0.65583053E+03</pdfrwt>
<totfact> 0.43010660E+00</totfact>
</mgrwt>
</event>
<event>
 5    1  0.2349912E-004  0.6314756E+03  0.7818608E-02  0.9842174E-01
         13   -1    0    0    0    0  0.00000000000E+00  0.00000000000E+00  0.10000000000E+04  0.10000000000E+04  0.00000000000E+00 0. -1.
          2   -1    0    0  501    0 -0.00000000000E+00 -0.00000000000E+00 -0.99690355920E+02  0.99690355920E+02  0.00000000000E+00 0. -1.
    9000006    2    1    2  501    0  0.00000000000E+00  0.00000000000E+00  0.90030964408E+03  0.10996903559E+04  0.63147559231E+03 0.  0.
         13    1    3    3    0    0 -0.85170164947E+02  0.26830318841E+03  0.69918865833E+03  0.75372762842E+03  0.00000000000E+00 0. -1.
          2    1    3    3  501    0  0.85170164947E+02 -0.26830318841E+03  0.20112098575E+03  0.34596272750E+03  0.00000000000E+00 0. -1.
<mgrwt>
<rscale>  0 0.63147559E+03</rscale>
<asrwt>0</asrwt>
<pdfrwt beam="1">0</pdfrwt>
<pdfrwt beam="2">  1        2 0.36251115E+00 0.63147559E+03</pdfrwt>
<totfact> 0.54868354E+00</totfact>
</mgrwt>
</event>
<event>
 5    1  0.2349912E-004  0.6506729E+03  0.7818608E-02  0.9805517E-01
         13   -1    0    0    0    0  0.00000000000E+00  0.00000000000E+00  0.10000000000E+04  0.10000000000E+04  0.00000000000E+00 0. -1.
          2   -1    0    0  501    0 -0.00000000000E+00 -0.00000000000E+00 -0.10584379087E+03  0.10584379087E+03  0.00000000000E+00 0. -1.
    9000006    2    1    2  501    0  0.00000000000E+00  0.00000000000E+00  0.89415620913E+03  0.11058437909E+04  0.65067285442E+03 0.  0.
         13    1    3    3    0    0  0.44210792412E+02 -0.30307800572E+03  0.26064776332E+03  0.40217922403E+03  0.00000000000E+00 0. -1.
          4    1    3    3  501    0 -0.44210792412E+02  0.30307800572E+03  0.63350844581E+03  0.70366456684E+03  0.00000000000E+00 0. -1.
<mgrwt>
<rscale>  0 0.65067285E+03</rscale>
<asrwt>0</asrwt>
<pdfrwt beam="1">0</pdfrwt>
<pdfrwt beam="2">  1        2 0.38488732E+00 0.65067285E+03</pdfrwt>
<totfact> 0.45341770E+00</totfact>
</mgrwt>
</event>
<event>
 5    1  0.2349912E-004  0.6525696E+03  0.7818608E-02  0.9801969E-01
         13   -1    0    0    0    0  0.00000000000E+00  0.00000000000E+00  0.10000000000E+04  0.10000000000E+04  0.00000000000E+00 0. -1.
          2   -1    0    0  501    0 -0.00000000000E+00 -0.00000000000E+00 -0.10646177534E+03  0.10646177534E+03  0.00000000000E+00 0. -1.
    9000006    2    1    2  501    0  0.00000000000E+00  0.00000000000E+00  0.89353822466E+03  0.11064617753E+04  0.65256961418E+03 0.  0.
         13    1    3    3    0    0  0.25926355741E+03  0.12339160416E+03  0.18399397457E+03  0.34102325853E+03  0.00000000000E+00 0. -1.
          4    1    3    3  501    0 -0.25926355741E+03 -0.12339160416E+03  0.70954425009E+03  0.76543851681E+03  0.00000000000E+00 0. -1.
<mgrwt>
<rscale>  0 0.65256961E+03</rscale>
<asrwt>0</asrwt>
<pdfrwt beam="1">0</pdfrwt>
<pdfrwt beam="2">  1        2 0.38713454E+00 0.65256961E+03</pdfrwt>
<totfact> 0.44473676E+00</totfact>
</mgrwt>
</event>
<event>
 5    1  0.2349912E-004  0.6574854E+03  0.7818608E-02  0.9792834E-01
         13   -1    0    0    0    0  0.00000000000E+00  0.00000000000E+00  0.10000000000E+04  0.10000000000E+04  0.00000000000E+00 0. -1.
          2   -1    0    0  501    0 -0.00000000000E+00 -0.00000000000E+00 -0.10807175015E+03  0.10807175015E+03  0.00000000000E+00 0. -1.
    9000006    2    1    2  501    0  0.00000000000E+00  0.00000000000E+00  0.89192824985E+03  0.11080717501E+04  0.65748536151E+03 0.  0.
         13    1    3    3    0    0  0.32131877086E+03  0.56381632507E+02  0.51436205927E+03  0.60909192164E+03  0.00000000000E+00 0. -1.
          2    1    3    3  501    0 -0.32131877086E+03 -0.56381632507E+02  0.37756619058E+03  0.49897982851E+03  0.00000000000E+00 0. -1.
<mgrwt>
<rscale>  0 0.65748536E+03</rscale>
<asrwt>0</asrwt>
<pdfrwt beam="1">0</pdfrwt>
<pdfrwt beam="2">  1        2 0.39298901E+00 0.65748536E+03</pdfrwt>
<totfact> 0.42282270E+00</totfact>
</mgrwt>
</event>
<event>
 5    1  0.2349912E-004  0.6371625E+03  0.7818608E-02  0.9831171E-01
         13   -1    0    0    0    0  0.00000000000E+00  0.00000000000E+00  0.10000000000E+04  0.10000000000E+04  0.00000000000E+00 0. -1.
          2   -1    0    0  501    0 -0.00000000000E+00 -0.00000000000E+00 -0.10149401031E+03  0.10149401031E+03  0.00000000000E+00 0. -1.
    9000006    2    1    2  501    0  0.00000000000E+00  0.00000000000E+00  0.89850598969E+03  0.11014940103E+04  0.63716249203E+03 0.  0.
         13    1    3    3    0    0 -0.25204782638E+02  0.21801319186E+03  0.50031822348E+02  0.22509601538E+03  0.00000000000E+00 0. -1.
          2    1    3    3  501    0  0.25204782638E+02 -0.21801319186E+03  0.84847416734E+03  0.87639799494E+03  0.00000000000E+00 0. -1.
<mgrwt>
<rscale>  0 0.63716249E+03</rscale>
<asrwt>0</asrwt>
<pdfrwt beam="1">0</pdfrwt>
<pdfrwt beam="2">  1        2 0.36906991E+00 0.63716249E+03</pdfrwt>
<totfact> 0.51901842E+00</totfact>
</mgrwt>
</event>
<event>
 5    1  0.2349912E-004  0.6655392E+03  0.7818608E-02  0.9778050E-01
         13   -1    0    0    0    0  0.00000000000E+00  0.00000000000E+00  0.10000000000E+04  0.10000000000E+04  0.00000000000E+00 0. -1.
          2   -1    0    0  501    0 -0.00000000000E+00 -0.00000000000E+00 -0.11073560087E+03  0.11073560087E+03  0.00000000000E+00 0. -1.
    9000006    2    1    2  501    0  0.00000000000E+00  0.00000000000E+00  0.88926439913E+03  0.11107356009E+04  0.66553918252E+03 0.  0.
         13    1    3    3    0    0  0.16613815057E+02  0.31468742443E+03  0.26619438099E+03  0.41250896041E+03  0.00000000000E+00 0. -1.
          4    1    3    3  501    0 -0.16613815057E+02 -0.31468742443E+03  0.62307001814E+03  0.69822664046E+03  0.00000000000E+00 0. -1.
<mgrwt>
<rscale>  0 0.66553918E+03</rscale>
<asrwt>0</asrwt>
<pdfrwt beam="1">0</pdfrwt>
<pdfrwt beam="2">  1        2 0.40267576E+00 0.66553918E+03</pdfrwt>
<totfact> 0.38869556E+00</totfact>
</mgrwt>
</event>
<event>
 5    1  0.2349912E-004  0.6670049E+03  0.7818608E-02  0.9775384E-01
         13   -1    0    0    0    0  0.00000000000E+00  0.00000000000E+00  0.10000000000E+04  0.10000000000E+04  0.00000000000E+00 0. -1.
          2   -1    0    0  501    0 -0.00000000000E+00 -0.00000000000E+00 -0.11122387720E+03  0.11122387720E+03  0.00000000000E+00 0. -1.
    9000006    2    1    2  501    0  0.00000000000E+00  0.00000000000E+00  0.88877612280E+03  0.11112238772E+04  0.66700487915E+03 0.  0.
         13    1    3    3    0    0  0.31116540015E+03 -0.11012359534E+03  0.52381170227E+03  0.61913634357E+03  0.00000000000E+00 0. -1.
          2    1    3    3  501    0 -0.31116540015E+03  0.11012359534E+03  0.36496442053E+03  0.49208753363E+03  0.00000000000E+00 0. -1.
<mgrwt>
<rscale>  0 0.66700488E+03</rscale>
<asrwt>0</asrwt>
<pdfrwt beam="1">0</pdfrwt>
<pdfrwt beam="2">  1        2 0.40445132E+00 0.66700488E+03</pdfrwt>
<totfact> 0.38271559E+00</totfact>
</mgrwt>
</event>
<event>
 5    1  0.2349912E-004  0.7967183E+03  0.7818608E-02  0.9564779E-01
         13   -1    0    0    0    0  0.00000000000E+00  0.00000000000E+00  0.10000000000E+04  0.10000000000E+04  0.00000000000E+00 0. -1.
          2   -1    0    0  501    0 -0.00000000000E+00 -0.00000000000E+00 -0.15868999394E+03  0.15868999394E+03  0.00000000000E+00 0. -1.
    9000006    2    1    2  501    0  0.00000000000E+00  0.00000000000E+00  0.84131000606E+03  0.11586899939E+04  0.79671825370E+03 0.  0.
         13    1    3    3    0    0 -0.14225759433E+03 -0.18888537377E+03 -0.45581652040E+02  0.24081651640E+03  0.00000000000E+00 0. -1.
          4    1    3    3  501    0  0.14225759433E+03  0.18888537377E+03  0.88689165810E+03  0.91787347754E+03  0.00000000000E+00 0. -1.
<mgrwt>
<rscale>  0 0.79671825E+03</rscale>
<asrwt>0</asrwt>
<pdfrwt beam="1">0</pdfrwt>
<pdfrwt beam="2">  1        2 0.57705574E+00 0.79671825E+03</pdfrwt>
<totfact> 0.71366176E-01</totfact>
</mgrwt>
</event>
<event>
 5    1  0.2349912E-004  0.6531436E+03  0.7818608E-02  0.9800898E-01
         13   -1    0    0    0    0  0.00000000000E+00  0.00000000000E+00  0.10000000000E+04  0.10000000000E+04  0.00000000000E+00 0. -1.
          2   -1    0    0  501    0 -0.00000000000E+00 -0.00000000000E+00 -0.10664913029E+03  0.10664913029E+03  0.00000000000E+00 0. -1.
    9000006    2    1    2  501    0  0.00000000000E+00  0.00000000000E+00  0.89335086971E+03  0.11066491303E+04  0.65314356857E+03 0.  0.
         13    1    3    3    0    0 -0.16898436002E+03  0.67779093540E+02  0.90602490654E+03  0.92413789595E+03  0.00000000000E+00 0. -1.
          4    1    3    3  501    0  0.16898436002E+03 -0.67779093540E+02 -0.12674036833E+02  0.18251123435E+03  0.00000000000E+00 0. -1.
<mgrwt>
<rscale>  0 0.65314357E+03</rscale>
<asrwt>0</asrwt>
<pdfrwt beam="1">0</pdfrwt>
<pdfrwt beam="2">  1        2 0.38781584E+00 0.65314357E+03</pdfrwt>
<totfact> 0.44213484E+00</totfact>
</mgrwt>
</event>
<event>
 5    1  0.2349912E-004  0.6545309E+03  0.7818608E-02  0.9798314E-01
         13   -1    0    0    0    0  0.00000000000E+00  0.00000000000E+00  0.10000000000E+04  0.10000000000E+04  0.00000000000E+00 0. -1.
          2   -1    0    0  501    0 -0.00000000000E+00 -0.00000000000E+00 -0.10710266318E+03  0.10710266318E+03  0.00000000000E+00 0. -1.
    9000006    2    1    2  501    0  0.00000000000E+00  0.00000000000E+00  0.89289733682E+03  0.11071026632E+04  0.65453086460E+03 0.  0.
         13    1    3    3    0    0 -0.36264194991E+02 -0.21775323311E+03  0.37793772232E+02  0.22396413014E+03  0.00000000000E+00 0. -1.
          2    1    3    3  501    0  0.36264194991E+02  0.21775323311E+03  0.85510356459E+03  0.88313853304E+03  0.00000000000E+00 0. -1.
<mgrwt>
<rscale>  0 0.65453086E+03</rscale>
<asrwt>0</asrwt>
<pdfrwt beam="1">0</pdfrwt>
<pdfrwt beam="2">  1        2 0.38946505E+00 0.65453086E+03</pdfrwt>
<totfact> 0.43589329E+00</totfact>
</mgrwt>
</event>
<event>
 5    1  0.2349912E-004  0.6604095E+03  0.7818608E-02  0.9787440E-01
         13   -1    0    0    0    0  0.00000000000E+00  0.00000000000E+00  0.10000000000E+04  0.10000000000E+04  0.00000000000E+00 0. -1.
          2   -1    0    0  501    0 -0.00000000000E+00 -0.00000000000E+00 -0.10903519170E+03  0.10903519170E+03  0.00000000000E+00 0. -1.
    9000006    2    1    2  501    0  0.00000000000E+00  0.00000000000E+00  0.89096480830E+03  0.11090351917E+04  0.66040954476E+03 0.  0.
         13    1    3    3    0    0  0.16444959636E+03  0.20152582498E+03  0.10387972609E+03  0.28008449684E+03  0.00000000000E+00 0. -1.
          2    1    3    3  501    0 -0.16444959636E+03 -0.20152582498E+03  0.78708508221E+03  0.82895069486E+03  0.00000000000E+00 0. -1.
<mgrwt>
<rscale>  0 0.66040954E+03</rscale>
<asrwt>0</asrwt>
<pdfrwt beam="1">0</pdfrwt>
<pdfrwt beam="2">  1        2 0.39649244E+00 0.66040954E+03</pdfrwt>
<totfact> 0.41018058E+00</totfact>
</mgrwt>
</event>
<event>
 5    1  0.2349912E-004  0.6540433E+03  0.7818608E-02  0.9799222E-01
         13   -1    0    0    0    0  0.00000000000E+00  0.00000000000E+00  0.10000000000E+04  0.10000000000E+04  0.00000000000E+00 0. -1.
          2   -1    0    0  501    0 -0.00000000000E+00 -0.00000000000E+00 -0.10694315136E+03  0.10694315136E+03  0.00000000000E+00 0. -1.
    9000006    2    1    2  501    0  0.00000000000E+00  0.00000000000E+00  0.89305684864E+03  0.11069431514E+04  0.65404327489E+03 0.  0.
         13    1    3    3    0    0  0.10804683712E+03  0.41496187893E+02 -0.71118925152E+02  0.13584533167E+03  0.00000000000E+00 0. -1.
          2    1    3    3  501    0 -0.10804683712E+03 -0.41496187893E+02  0.96417577380E+03  0.97109781968E+03  0.00000000000E+00 0. -1.
<mgrwt>
<rscale>  0 0.65404327E+03</rscale>
<asrwt>0</asrwt>
<pdfrwt beam="1">0</pdfrwt>
<pdfrwt beam="2">  1        2 0.38888501E+00 0.65404327E+03</pdfrwt>
<totfact> 0.43807936E+00</totfact>
</mgrwt>
</event>
<event>
 5    1  0.2349912E-004  0.6571210E+03  0.7818608E-02  0.9793508E-01
         13   -1    0    0    0    0  0.00000000000E+00  0.00000000000E+00  0.10000000000E+04  0.10000000000E+04  0.00000000000E+00 0. -1.
          2   -1    0    0  501    0 -0.00000000000E+00 -0.00000000000E+00 -0.10795198737E+03  0.10795198737E+03  0.00000000000E+00 0. -1.
    9000006    2    1    2  501    0  0.00000000000E+00  0.00000000000E+00  0.89204801263E+03  0.11079519874E+04  0.65712095499E+03 0.  0.
         13    1    3    3    0    0 -0.27905234512E+03  0.17227138390E+03  0.41211989361E+03  0.52667869497E+03  0.00000000000E+00 0. -1.
          2    1    3    3  501    0  0.27905234512E+03 -0.17227138390E+03  0.47992811902E+03  0.58127329240E+03  0.00000000000E+00 0. -1.
<mgrwt>
<rscale>  0 0.65712095E+03</rscale>
<asrwt>0</asrwt>
<pdfrwt beam="1">0</pdfrwt>
<pdfrwt beam="2">  1        2 0.39255351E+00 0.65712095E+03</pdfrwt>
<totfact> 0.42441861E+00</totfact>
</mgrwt>
</event>
<event>
 5    1  0.2349912E-004  0.5712739E+03  0.7818608E-02  0.9966864E-01
         13   -1    0    0    0    0  0.00000000000E+00  0.00000000000E+00  0.10000000000E+04  0.10000000000E+04  0.00000000000E+00 0. -1.
          2   -1    0    0  501    0 -0.00000000000E+00 -0.00000000000E+00 -0.81588473587E+02  0.81588473587E+02  0.00000000000E+00 0. -1.
    9000006    2    1    2  501    0  0.00000000000E+00  0.00000000000E+00  0.91841152641E+03  0.10815884736E+04  0.57127392234E+03 0.  0.
         13    1    3    3    0    0 -0.22729687657E+03  0.12096874635E+03  0.69332545874E+03  0.73959279298E+03  0.00000000000E+00 0. -1.
          4    1    3    3  501    0  0.22729687657E+03 -0.12096874635E+03  0.22508606767E+03  0.34199568061E+03  0.00000000000E+00 0. -1.
<mgrwt>
<rscale>  0 0.57127392E+03</rscale>
<asrwt>0</asrwt>
<pdfrwt beam="1">0</pdfrwt>
<pdfrwt beam="2">  1        2 0.29668598E+00 0.57127392E+03</pdfrwt>
<totfact> 0.94882480E+00</totfact>
</mgrwt>
</event>
<event>
 5    1  0.2349912E-004  0.6524847E+03  0.7818608E-02  0.9802128E-01
         13   -1    0    0    0    0  0.00000000000E+00  0.00000000000E+00  0.10000000000E+04  0.10000000000E+04  0.00000000000E+00 0. -1.
          2   -1    0    0  501    0 -0.00000000000E+00 -0.00000000000E+00 -0.10643405971E+03  0.10643405971E+03  0.00000000000E+00 0. -1.
    9000006    2    1    2  501    0  0.00000000000E+00  0.00000000000E+00  0.89356594029E+03  0.11064340597E+04  0.65248466558E+03 0.  0.
         13    1    3    3    0    0  0.22714823403E+03  0.13856865880E+02  0.84318268179E+03  0.87335294573E+03  0.00000000000E+00 0. -1.
          2    1    3    3  501    0 -0.22714823403E+03 -0.13856865880E+02  0.50383258505E+02  0.23308111397E+03  0.00000000000E+00 0. -1.
<mgrwt>
<rscale>  0 0.65248467E+03</rscale>
<asrwt>0</asrwt>
<pdfrwt beam="1">0</pdfrwt>
<pdfrwt beam="2">  1        2 0.38703376E+00 0.65248467E+03</pdfrwt>
<totfact> 0.44512283E+00</totfact>
</mgrwt>
</event>
<event>
 5    1  0.2349912E-004  0.6321555E+03  0.7818608E-02  0.9840851E-01
         13   -1    0    0    0    0  0.00000000000E+00  0.00000000000E+00  0.10000000000E+04  0.10000000000E+04  0.00000000000E+00 0. -1.
          2   -1    0    0  501    0 -0.00000000000E+00 -0.00000000000E+00 -0.99905153957E+02  0.99905153957E+02  0.00000000000E+00 0. -1.
    9000006    2    1    2  501    0  0.00000000000E+00  0.00000000000E+00  0.90009484604E+03  0.10999051540E+04  0.63215553136E+03 0.  0.
         13    1    3    3    0    0 -0.28628374137E+03 -0.58104082170E+02  0.24002225572E+03  0.37808087518E+03  0.00000000000E+00 0. -1.
          4    1    3    3  501    0  0.28628374137E+03  0.58104082170E+02  0.66007259032E+03  0.72182427878E+03  0.00000000000E+00 0. -1.
<mgrwt>
<rscale>  0 0.63215553E+03</rscale>
<asrwt>0</asrwt>
<pdfrwt beam="1">0</pdfrwt>
<pdfrwt beam="2">  1        2 0.36329224E+00 0.63215553E+03</pdfrwt>
<totfact> 0.54507066E+00</totfact>
</mgrwt>
</event>
<event>
 5    1  0.2349912E-004  0.6523808E+03  0.7818608E-02  0.9802322E-01
         13   -1    0    0    0    0  0.00000000000E+00  0.00000000000E+00  0.10000000000E+04  0.10000000000E+04  0.00000000000E+00 0. -1.
          2   -1    0    0  501    0 -0.00000000000E+00 -0.00000000000E+00 -0.10640019328E+03  0.10640019328E+03  0.00000000000E+00 0. -1.
    9000006    2    1    2  501    0  0.00000000000E+00  0.00000000000E+00  0.89359980672E+03  0.11064001933E+04  0.65238084974E+03 0.  0.
         13    1    3    3    0    0  0.17693597497E+03  0.17511120774E+03  0.80427747528E+03  0.84192192723E+03  0.00000000000E+00 0. -1.
          4    1    3    3  501    0 -0.17693597497E+03 -0.17511120774E+03  0.89322331443E+02  0.26447826604E+03  0.00000000000E+00 0. -1.
<mgrwt>
<rscale>  0 0.65238085E+03</rscale>
<asrwt>0</asrwt>
<pdfrwt beam="1">0</pdfrwt>
<pdfrwt beam="2">  1        2 0.38691061E+00 0.65238085E+03</pdfrwt>
<totfact> 0.44559500E+00</totfact>
</mgrwt>
</event>
<event>
 5    1  0.2349912E-004  0.6491438E+03  0.7818608E-02  0.9808387E-01
         13   -1    0    0    0    0  0.00000000000E+00  0.00000000000E+00  0.10000000000E+04  0.10000000000E+04  0.00000000000E+00 0. -1.
          2   -1    0    0  501    0 -0.00000000000E+00 -0.00000000000E+00 -0.10534690902E+03  0.10534690902E+03  0.00000000000E+00 0. -1.
    9000006    2    1    2  501    0  0.00000000000E+00  0.00000000000E+00  0.89465309098E+03  0.11053469090E+04  0.64914377150E+03 0.  0.
         13    1    3    3    0    0 -0.26481192192E+03 -0.22317094437E+02  0.13002698668E+03  0.29585541057E+03  0.00000000000E+00 0. -1.
          4    1    3    3  501    0  0.26481192192E+03  0.22317094437E+02  0.76462610430E+03  0.80949149845E+03  0.00000000000E+00 0. -1.
<mgrwt>
<rscale>  0 0.64914377E+03</rscale>
<asrwt>0</asrwt>
<pdfrwt beam="1">0</pdfrwt>
<pdfrwt beam="2">  1        2 0.38308048E+00 0.64914377E+03</pdfrwt>
<totfact> 0.46050861E+00</totfact>
</mgrwt>
</event>
<event>
 5    1  0.2349912E-004  0.6506831E+03  0.7818608E-02  0.9805498E-01
         13   -1    0    0    0    0  0.00000000000E+00  0.00000000000E+00  0.10000000000E+04  0.10000000000E+04  0.00000000000E+00 0. -1.
          2   -1    0    0  501    0 -0.00000000000E+00 -0.00000000000E+00 -0.10584711788E+03  0.10584711788E+03  0.00000000000E+00 0. -1.
    9000006    2    1    2  501    0  0.00000000000E+00  0.00000000000E+00  0.89415288212E+03  0.11058471179E+04  0.65068308070E+03 0.  0.
         13    1    3    3    0    0  0.23161198537E+03  0.83131155408E+01  0.59028238556E+02  0.23916009827E+03  0.00000000000E+00 0. -1.
          2    1    3    3  501    0 -0.23161198537E+03 -0.83131155408E+01  0.83512464357E+03  0.86668701960E+03  0.00000000000E+00 0. -1.
<mgrwt>
<rscale>  0 0.65068308E+03</rscale>
<asrwt>0</asrwt>
<pdfrwt beam="1">0</pdfrwt>
<pdfrwt beam="2">  1        2 0.38489942E+00 0.65068308E+03</pdfrwt>
<totfact> 0.45337056E+00</totfact>
</mgrwt>
</event>
<event>
 5    1  0.2349912E-004  0.6721315E+03  0.7818608E-02  0.9766115E-01
         13   -1    0    0    0    0  0.00000000000E+00  0.00000000000E+00  0.10000000000E+04  0.10000000000E+04  0.00000000000E+00 0. -1.
          2   -1    0    0  501    0 -0.00000000000E+00 -0.00000000000E+00 -0.11294020283E+03  0.11294020283E+03  0.00000000000E+00 0. -1.
    9000006    2    1    2  501    0  0.00000000000E+00  0.00000000000E+00  0.88705979717E+03  0.11129402028E+04  0.67213154316E+03 0.  0.
         13    1    3    3    0    0  0.16862029044E+03 -0.27543019549E+03  0.28956726868E+03  0.43375545879E+03  0.00000000000E+00 0. -1.
          2    1    3    3  501    0 -0.16862029044E+03  0.27543019549E+03  0.59749252849E+03  0.67918474404E+03  0.00000000000E+00 0. -1.
<mgrwt>
<rscale>  0 0.67213154E+03</rscale>
<asrwt>0</asrwt>
<pdfrwt beam="1">0</pdfrwt>
<pdfrwt beam="2">  1        2 0.41069251E+00 0.67213154E+03</pdfrwt>
<totfact> 0.36234307E+00</totfact>
</mgrwt>
</event>
<event>
 5    1  0.2349912E-004  0.6527877E+03  0.7818608E-02  0.9801562E-01
         13   -1    0    0    0    0  0.00000000000E+00  0.00000000000E+00  0.10000000000E+04  0.10000000000E+04  0.00000000000E+00 0. -1.
          2   -1    0    0  501    0 -0.00000000000E+00 -0.00000000000E+00 -0.10653293639E+03  0.10653293639E+03  0.00000000000E+00 0. -1.
    9000006    2    1    2  501    0  0.00000000000E+00  0.00000000000E+00  0.89346706361E+03  0.11065329364E+04  0.65278767264E+03 0.  0.
         13    1    3    3    0    0 -0.15435818195E+03  0.41598940241E+02  0.92909277419E+03  0.94274614993E+03  0.00000000000E+00 0. -1.
          2    1    3    3  501    0  0.15435818195E+03 -0.41598940241E+02 -0.35625710576E+02  0.16378678645E+03  0.00000000000E+00 0. -1.
<mgrwt>
<rscale>  0 0.65278767E+03</rscale>
<asrwt>0</asrwt>
<pdfrwt beam="1">0</pdfrwt>
<pdfrwt beam="2">  1        2 0.38739331E+00 0.65278767E+03</pdfrwt>
<totfact> 0.44374687E+00</totfact>
</mgrwt>
</event>
<event>
 5    1  0.2349912E-004  0.6512093E+03  0.7818608E-02  0.9804513E-01
         13   -1    0    0    0    0  0.00000000000E+00  0.00000000000E+00  0.10000000000E+04  0.10000000000E+04  0.00000000000E+00 0. -1.
          2   -1    0    0  501    0 -0.00000000000E+00 -0.00000000000E+00 -0.10601837812E+03  0.10601837812E+03  0.00000000000E+00 0. -1.
    9000006    2    1    2  501    0  0.00000000000E+00  0.00000000000E+00  0.89398162188E+03  0.11060183781E+04  0.65120926934E+03 0.  0.
         13    1    3    3    0    0  0.27221329689E+03  0.11318926866E+03  0.21222642787E+03  0.36325190465E+03  0.00000000000E+00 0. -1.
          2    1    3    3  501    0 -0.27221329689E+03 -0.11318926866E+03  0.68175519401E+03  0.74276647347E+03  0.00000000000E+00 0. -1.
<mgrwt>
<rscale>  0 0.65120927E+03</rscale>
<asrwt>0</asrwt>
<pdfrwt beam="1">0</pdfrwt>
<pdfrwt beam="2">  1        2 0.38552219E+00 0.65120927E+03</pdfrwt>
<totfact> 0.45094981E+00</totfact>
</mgrwt>
</event>
<event>
 5    1  0.2349912E-004  0.6571177E+03  0.7818608E-02  0.9793514E-01
         13   -1    0    0    0    0  0.00000000000E+00  0.00000000000E+00  0.10000000000E+04  0.10000000000E+04  0.00000000000E+00 0. -1.
          2   -1    0    0  501    0 -0.00000000000E+00 -0.00000000000E+00 -0.10795090204E+03  0.10795090204E+03  0.00000000000E+00 0. -1.
    9000006    2    1    2  501    0  0.00000000000E+00  0.00000000000E+00  0.89204909796E+03  0.11079509020E+04  0.65711765170E+03 0.  0.
         13    1    3    3    0    0  0.32005903851E+03  0.71659369724E+02  0.41324135809E+03  0.52758058478E+03  0.00000000000E+00 0. -1.
          2    1    3    3  501    0 -0.32005903851E+03 -0.71659369724E+02  0.47880773987E+03  0.58037031727E+03  0.00000000000E+00 0. -1.
<mgrwt>
<rscale>  0 0.65711765E+03</rscale>
<asrwt>0</asrwt>
<pdfrwt beam="1">0</pdfrwt>
<pdfrwt beam="2">  1        2 0.39254956E+00 0.65711765E+03</pdfrwt>
<totfact> 0.42443310E+00</totfact>
</mgrwt>
</event>
<event>
 5    1  0.2349912E-004  0.6764618E+03  0.7818608E-02  0.9758355E-01
         13   -1    0    0    0    0  0.00000000000E+00  0.00000000000E+00  0.10000000000E+04  0.10000000000E+04  0.00000000000E+00 0. -1.
          2   -1    0    0  501    0 -0.00000000000E+00 -0.00000000000E+00 -0.11440013494E+03  0.11440013494E+03  0.00000000000E+00 0. -1.
    9000006    2    1    2  501    0  0.00000000000E+00  0.00000000000E+00  0.88559986506E+03  0.11144001349E+04  0.67646177997E+03 0.  0.
         13    1    3    3    0    0  0.28883530218E+03  0.17338892293E+03  0.39308829917E+03  0.51769485348E+03  0.00000000000E+00 0. -1.
          2    1    3    3  501    0 -0.28883530218E+03 -0.17338892293E+03  0.49251156589E+03  0.59670528146E+03  0.00000000000E+00 0. -1.
<mgrwt>
<rscale>  0 0.67646178E+03</rscale>
<asrwt>0</asrwt>
<pdfrwt beam="1">0</pdfrwt>
<pdfrwt beam="2">  1        2 0.41600137E+00 0.67646178E+03</pdfrwt>
<totfact> 0.34578250E+00</totfact>
</mgrwt>
</event>
<event>
 5    1  0.2349912E-004  0.6466560E+03  0.7818608E-02  0.9813074E-01
         13   -1    0    0    0    0  0.00000000000E+00  0.00000000000E+00  0.10000000000E+04  0.10000000000E+04  0.00000000000E+00 0. -1.
          2   -1    0    0  501    0 -0.00000000000E+00 -0.00000000000E+00 -0.10454099854E+03  0.10454099854E+03  0.00000000000E+00 0. -1.
    9000006    2    1    2  501    0  0.00000000000E+00  0.00000000000E+00  0.89545900146E+03  0.11045409985E+04  0.64665600914E+03 0.  0.
         13    1    3    3    0    0  0.74419455360E+02  0.25004101643E+03  0.77397853233E+03  0.81676283813E+03  0.00000000000E+00 0. -1.
          4    1    3    3  501    0 -0.74419455360E+02 -0.25004101643E+03  0.12148046913E+03  0.28777816041E+03  0.00000000000E+00 0. -1.
<mgrwt>
<rscale>  0 0.64665601E+03</rscale>
<asrwt>0</asrwt>
<pdfrwt beam="1">0</pdfrwt>
<pdfrwt beam="2">  1        2 0.38014989E+00 0.64665601E+03</pdfrwt>
<totfact> 0.47222401E+00</totfact>
</mgrwt>
</event>
<event>
 5    1  0.2349912E-004  0.6447740E+03  0.7818608E-02  0.9816635E-01
         13   -1    0    0    0    0  0.00000000000E+00  0.00000000000E+00  0.10000000000E+04  0.10000000000E+04  0.00000000000E+00 0. -1.
          2   -1    0    0  501    0 -0.00000000000E+00 -0.00000000000E+00 -0.10393338637E+03  0.10393338637E+03  0.00000000000E+00 0. -1.
    9000006    2    1    2  501    0  0.00000000000E+00  0.00000000000E+00  0.89606661363E+03  0.11039333864E+04  0.64477402666E+03 0.  0.
         13    1    3    3    0    0  0.18756083369E+03  0.14465961881E+03  0.82246797853E+03  0.85589663357E+03  0.00000000000E+00 0. -1.
          2    1    3    3  501    0 -0.18756083369E+03 -0.14465961881E+03  0.73598635106E+02  0.24803675280E+03  0.00000000000E+00 0. -1.
<mgrwt>
<rscale>  0 0.64477403E+03</rscale>
<asrwt>0</asrwt>
<pdfrwt beam="1">0</pdfrwt>
<pdfrwt beam="2">  1        2 0.37794038E+00 0.64477403E+03</pdfrwt>
<totfact> 0.48123535E+00</totfact>
</mgrwt>
</event>
<event>
 5    1  0.2349912E-004  0.6474765E+03  0.7818608E-02  0.9811526E-01
         13   -1    0    0    0    0  0.00000000000E+00  0.00000000000E+00  0.10000000000E+04  0.10000000000E+04  0.00000000000E+00 0. -1.
          2   -1    0    0  501    0 -0.00000000000E+00 -0.00000000000E+00 -0.10480644553E+03  0.10480644553E+03  0.00000000000E+00 0. -1.
    9000006    2    1    2  501    0  0.00000000000E+00  0.00000000000E+00  0.89519355447E+03  0.11048064455E+04  0.64747647226E+03 0.  0.
         13    1    3    3    0    0  0.20105258605E+02 -0.58928039043E+01 -0.10364845420E+03  0.10574473330E+03  0.00000000000E+00 0. -1.
          4    1    3    3  501    0 -0.20105258605E+02  0.58928039043E+01  0.99884200867E+03  0.99906171223E+03  0.00000000000E+00 0. -1.
<mgrwt>
<rscale>  0 0.64747647E+03</rscale>
<asrwt>0</asrwt>
<pdfrwt beam="1">0</pdfrwt>
<pdfrwt beam="2">  1        2 0.38111515E+00 0.64747647E+03</pdfrwt>
<totfact> 0.46833566E+00</totfact>
</mgrwt>
</event>
<event>
 5    1  0.2349912E-004  0.6519688E+03  0.7818608E-02  0.9803092E-01
         13   -1    0    0    0    0  0.00000000000E+00  0.00000000000E+00  0.10000000000E+04  0.10000000000E+04  0.00000000000E+00 0. -1.
          2   -1    0    0  501    0 -0.00000000000E+00 -0.00000000000E+00 -0.10626581444E+03  0.10626581444E+03  0.00000000000E+00 0. -1.
    9000006    2    1    2  501    0  0.00000000000E+00  0.00000000000E+00  0.89373418556E+03  0.11062658144E+04  0.65196875520E+03 0.  0.
         13    1    3    3    0    0 -0.19581567031E+03  0.54867605914E+02  0.14558556733E+02  0.20387786170E+03  0.00000000000E+00 0. -1.
          4    1    3    3  501    0  0.19581567031E+03 -0.54867605914E+02  0.87917562883E+03  0.90238795274E+03  0.00000000000E+00 0. -1.
<mgrwt>
<rscale>  0 0.65196876E+03</rscale>
<asrwt>0</asrwt>
<pdfrwt beam="1">0</pdfrwt>
<pdfrwt beam="2">  1        2 0.38642196E+00 0.65196876E+03</pdfrwt>
<totfact> 0.44747301E+00</totfact>
</mgrwt>
</event>
<event>
 5    1  0.2349912E-004  0.6408100E+03  0.7818608E-02  0.9824178E-01
         13   -1    0    0    0    0  0.00000000000E+00  0.00000000000E+00  0.10000000000E+04  0.10000000000E+04  0.00000000000E+00 0. -1.
          2   -1    0    0  501    0 -0.00000000000E+00 -0.00000000000E+00 -0.10265936671E+03  0.10265936671E+03  0.00000000000E+00 0. -1.
    9000006    2    1    2  501    0  0.00000000000E+00  0.00000000000E+00  0.89734063329E+03  0.11026593667E+04  0.64081000838E+03 0.  0.
         13    1    3    3    0    0 -0.12819190623E+03  0.14819870162E+03  0.88487844546E+03  0.90631445052E+03  0.00000000000E+00 0. -1.
          4    1    3    3  501    0  0.12819190623E+03 -0.14819870162E+03  0.12462187829E+02  0.19634491618E+03  0.00000000000E+00 0. -1.
<mgrwt>
<rscale>  0 0.64081001E+03</rscale>
<asrwt>0</asrwt>
<pdfrwt beam="1">0</pdfrwt>
<pdfrwt beam="2">  1        2 0.37330758E+00 0.64081001E+03</pdfrwt>
<totfact> 0.50064209E+00</totfact>
</mgrwt>
</event>
<event>
 5    1  0.2349912E-004  0.6497100E+03  0.7818608E-02  0.9807323E-01
         13   -1    0    0    0    0  0.00000000000E+00  0.00000000000E+00  0.10000000000E+04  0.10000000000E+04  0.00000000000E+00 0. -1.
          2   -1    0    0  501    0 -0.00000000000E+00 -0.00000000000E+00 -0.10553077530E+03  0.10553077530E+03  0.00000000000E+00 0. -1.
    9000006    2    1    2  501    0  0.00000000000E+00  0.00000000000E+00  0.89446922470E+03  0.11055307753E+04  0.64971001318E+03 0.  0.
         13    1    3    3    0    0 -0.23555015309E+03  0.95123375687E+02  0.10269832911E+03  0.27400598173E+03  0.00000000000E+00 0. -1.
          4    1    3    3  501    0  0.23555015309E+03 -0.95123375687E+02  0.79177089559E+03  0.83152479357E+03  0.00000000000E+00 0. -1.
<mgrwt>
<rscale>  0 0.64971001E+03</rscale>
<asrwt>0</asrwt>
<pdfrwt beam="1">0</pdfrwt>
<pdfrwt beam="2">  1        2 0.38374908E+00 0.64971001E+03</pdfrwt>
<totfact> 0.45787304E+00</totfact>
</mgrwt>
</event>
<event>
 5    1  0.2349912E-004  0.6137100E+03  0.7818608E-02  0.9877363E-01
         13   -1    0    0    0    0  0.00000000000E+00  0.00000000000E+00  0.10000000000E+04  0.10000000000E+04  0.00000000000E+00 0. -1.
          2   -1    0    0  501    0 -0.00000000000E+00 -0.00000000000E+00 -0.94160003815E+02  0.94160003815E+02  0.00000000000E+00 0. -1.
    9000006    2    1    2  501    0  0.00000000000E+00  0.00000000000E+00  0.90583999618E+03  0.10941600038E+04  0.61371004168E+03 0.  0.
         13    1    3    3    0    0 -0.11753865750E+03  0.87069910026E+02 -0.28001722548E+02  0.14893153361E+03  0.00000000000E+00 0. -1.
          4    1    3    3  501    0  0.11753865750E+03 -0.87069910026E+02  0.93384171873E+03  0.94522847020E+03  0.00000000000E+00 0. -1.
<mgrwt>
<rscale>  0 0.61371004E+03</rscale>
<asrwt>0</asrwt>
<pdfrwt beam="1">0</pdfrwt>
<pdfrwt beam="2">  1        2 0.34240074E+00 0.61371004E+03</pdfrwt>
<totfact> 0.64971622E+00</totfact>
</mgrwt>
</event>
<event>
 5    1  0.2349912E-004  0.6455896E+03  0.7818608E-02  0.9815090E-01
         13   -1    0    0    0    0  0.00000000000E+00  0.00000000000E+00  0.10000000000E+04  0.10000000000E+04  0.00000000000E+00 0. -1.
          2   -1    0    0  501    0 -0.00000000000E+00 -0.00000000000E+00 -0.10419648287E+03  0.10419648287E+03  0.00000000000E+00 0. -1.
    9000006    2    1    2  501    0  0.00000000000E+00  0.00000000000E+00  0.89580351713E+03  0.11041964829E+04  0.64558959988E+03 0.  0.
         13    1    3    3    0    0  0.11069557509E+03 -0.22067536617E+03  0.80358185959E+03  0.84065149297E+03  0.00000000000E+00 0. -1.
          4    1    3    3  501    0 -0.11069557509E+03  0.22067536617E+03  0.92221657542E+02  0.26354498990E+03  0.00000000000E+00 0. -1.
<mgrwt>
<rscale>  0 0.64558960E+03</rscale>
<asrwt>0</asrwt>
<pdfrwt beam="1">0</pdfrwt>
<pdfrwt beam="2">  1        2 0.37889710E+00 0.64558960E+03</pdfrwt>
<totfact> 0.47731438E+00</totfact>
</mgrwt>
</event>
<event>
 5    1  0.2349912E-004  0.6447780E+03  0.7818608E-02  0.9816627E-01
         13   -1    0    0    0    0  0.00000000000E+00  0.00000000000E+00  0.10000000000E+04  0.10000000000E+04  0.00000000000E+00 0. -1.
          2   -1    0    0  501    0 -0.00000000000E+00 -0.00000000000E+00 -0.10393467882E+03  0.10393467882E+03  0.00000000000E+00 0. -1.
    9000006    2    1    2  501    0  0.00000000000E+00  0.00000000000E+00  0.89606532118E+03  0.11039346788E+04  0.64477803567E+03 0.  0.
         13    1    3    3    0    0  0.19625853123E+03  0.73625771368E+02  0.28663830125E+02  0.21156507379E+03  0.00000000000E+00 0. -1.
          2    1    3    3  501    0 -0.19625853123E+03 -0.73625771368E+02  0.86740149106E+03  0.89236960503E+03  0.00000000000E+00 0. -1.
<mgrwt>
<rscale>  0 0.64477804E+03</rscale>
<asrwt>0</asrwt>
<pdfrwt beam="1">0</pdfrwt>
<pdfrwt beam="2">  1        2 0.37794508E+00 0.64477804E+03</pdfrwt>
<totfact> 0.48121602E+00</totfact>
</mgrwt>
</event>
<event>
 5    1  0.2349912E-004  0.6454157E+03  0.7818608E-02  0.9815419E-01
         13   -1    0    0    0    0  0.00000000000E+00  0.00000000000E+00  0.10000000000E+04  0.10000000000E+04  0.00000000000E+00 0. -1.
          2   -1    0    0  501    0 -0.00000000000E+00 -0.00000000000E+00 -0.10414036129E+03  0.10414036129E+03  0.00000000000E+00 0. -1.
    9000006    2    1    2  501    0  0.00000000000E+00  0.00000000000E+00  0.89585963871E+03  0.11041403613E+04  0.64541571499E+03 0.  0.
         13    1    3    3    0    0 -0.29149651931E+03 -0.11547276201E+03  0.31723777419E+03  0.44603137211E+03  0.00000000000E+00 0. -1.
          2    1    3    3  501    0  0.29149651931E+03  0.11547276201E+03  0.57862186452E+03  0.65810898917E+03  0.00000000000E+00 0. -1.
<mgrwt>
<rscale>  0 0.64541571E+03</rscale>
<asrwt>0</asrwt>
<pdfrwt beam="1">0</pdfrwt>
<pdfrwt beam="2">  1        2 0.37869302E+00 0.64541571E+03</pdfrwt>
<totfact> 0.47814832E+00</totfact>
</mgrwt>
</event>
<event>
 5    1  0.2349912E-004  0.6484209E+03  0.7818608E-02  0.9809747E-01
         13   -1    0    0    0    0  0.00000000000E+00  0.00000000000E+00  0.10000000000E+04  0.10000000000E+04  0.00000000000E+00 0. -1.
          2   -1    0    0  501    0 -0.00000000000E+00 -0.00000000000E+00 -0.10511239971E+03  0.10511239971E+03  0.00000000000E+00 0. -1.
    9000006    2    1    2  501    0  0.00000000000E+00  0.00000000000E+00  0.89488760029E+03  0.11051123997E+04  0.64842085009E+03 0.  0.
         13    1    3    3    0    0  0.18344671421E+03  0.34477736165E+02 -0.43471340090E+01  0.18670915569E+03  0.00000000000E+00 0. -1.
          4    1    3    3  501    0 -0.18344671421E+03 -0.34477736165E+02  0.89923473430E+03  0.91840324402E+03  0.00000000000E+00 0. -1.
<mgrwt>
<rscale>  0 0.64842085E+03</rscale>
<asrwt>0</asrwt>
<pdfrwt beam="1">0</pdfrwt>
<pdfrwt beam="2">  1        2 0.38222771E+00 0.64842085E+03</pdfrwt>
<totfact> 0.46389008E+00</totfact>
</mgrwt>
</event>
<event>
 5    1  0.2349912E-004  0.6461743E+03  0.7818608E-02  0.9813984E-01
         13   -1    0    0    0    0  0.00000000000E+00  0.00000000000E+00  0.10000000000E+04  0.10000000000E+04  0.00000000000E+00 0. -1.
          2   -1    0    0  501    0 -0.00000000000E+00 -0.00000000000E+00 -0.10438529561E+03  0.10438529561E+03  0.00000000000E+00 0. -1.
    9000006    2    1    2  501    0  0.00000000000E+00  0.00000000000E+00  0.89561470439E+03  0.11043852956E+04  0.64617426631E+03 0.  0.
         13    1    3    3    0    0 -0.64813511808E+02  0.28458764040E+03  0.68459442715E+03  0.74421800977E+03  0.00000000000E+00 0. -1.
          4    1    3    3  501    0  0.64813511808E+02 -0.28458764040E+03  0.21102027724E+03  0.36016728584E+03  0.00000000000E+00 0. -1.
<mgrwt>
<rscale>  0 0.64617427E+03</rscale>
<asrwt>0</asrwt>
<pdfrwt beam="1">0</pdfrwt>
<pdfrwt beam="2">  1        2 0.37958369E+00 0.64617427E+03</pdfrwt>
<totfact> 0.47451844E+00</totfact>
</mgrwt>
</event>
<event>
 5    1  0.2349912E-004  0.6509288E+03  0.7818608E-02  0.9805038E-01
         13   -1    0    0    0    0  0.00000000000E+00  0.00000000000E+00  0.10000000000E+04  0.10000000000E+04  0.00000000000E+00 0. -1.
          2   -1    0    0  501    0 -0.00000000000E+00 -0.00000000000E+00 -0.10592709034E+03  0.10592709034E+03  0.00000000000E+00 0. -1.
    9000006    2    1    2  501    0  0.00000000000E+00  0.00000000000E+00  0.89407290966E+03  0.11059270903E+04  0.65092884509E+03 0.  0.
         13    1    3    3    0    0  0.12155325147E+03 -0.30052531658E+03  0.49617340169E+03  0.59268769465E+03  0.00000000000E+00 0. -1.
          4    1    3    3  501    0 -0.12155325147E+03  0.30052531658E+03  0.39789950797E+03  0.51323939569E+03  0.00000000000E+00 0. -1.
<mgrwt>
<rscale>  0 0.65092885E+03</rscale>
<asrwt>0</asrwt>
<pdfrwt beam="1">0</pdfrwt>
<pdfrwt beam="2">  1        2 0.38519023E+00 0.65092885E+03</pdfrwt>
<totfact> 0.45223869E+00</totfact>
</mgrwt>
</event>
<event>
 5    1  0.2349912E-004  0.6424438E+03  0.7818608E-02  0.9821062E-01
         13   -1    0    0    0    0  0.00000000000E+00  0.00000000000E+00  0.10000000000E+04  0.10000000000E+04  0.00000000000E+00 0. -1.
          2   -1    0    0  501    0 -0.00000000000E+00 -0.00000000000E+00 -0.10318350252E+03  0.10318350252E+03  0.00000000000E+00 0. -1.
    9000006    2    1    2  501    0  0.00000000000E+00  0.00000000000E+00  0.89681649748E+03  0.11031835025E+04  0.64244377969E+03 0.  0.
         13    1    3    3    0    0  0.19208841008E+03  0.25120927813E+03  0.54523340517E+03  0.63030431128E+03  0.00000000000E+00 0. -1.
          4    1    3    3  501    0 -0.19208841008E+03 -0.25120927813E+03  0.35158309232E+03  0.47287919124E+03  0.00000000000E+00 0. -1.
<mgrwt>
<rscale>  0 0.64244378E+03</rscale>
<asrwt>0</asrwt>
<pdfrwt beam="1">0</pdfrwt>
<pdfrwt beam="2">  1        2 0.37521353E+00 0.64244378E+03</pdfrwt>
<totfact> 0.49257282E+00</totfact>
</mgrwt>
</event>
<event>
 5    1  0.2349912E-004  0.6431780E+03  0.7818608E-02  0.9819665E-01
         13   -1    0    0    0    0  0.00000000000E+00  0.00000000000E+00  0.10000000000E+04  0.10000000000E+04  0.00000000000E+00 0. -1.
          2   -1    0    0  501    0 -0.00000000000E+00 -0.00000000000E+00 -0.10341949312E+03  0.10341949312E+03  0.00000000000E+00 0. -1.
    9000006    2    1    2  501    0  0.00000000000E+00  0.00000000000E+00  0.89658050688E+03  0.11034194931E+04  0.64317802549E+03 0.  0.
         13    1    3    3    0    0  0.70953422211E+02  0.23374810667E+02  0.98490776646E+03  0.98773684670E+03  0.00000000000E+00 0. -1.
          4    1    3    3  501    0 -0.70953422211E+02 -0.23374810667E+02 -0.88327259580E+02  0.11568264642E+03  0.00000000000E+00 0. -1.
<mgrwt>
<rscale>  0 0.64317803E+03</rscale>
<asrwt>0</asrwt>
<pdfrwt beam="1">0</pdfrwt>
<pdfrwt beam="2">  1        2 0.37607168E+00 0.64317803E+03</pdfrwt>
<totfact> 0.48897880E+00</totfact>
</mgrwt>
</event>
<event>
 5    1  0.2349912E-004  0.6531248E+03  0.7818608E-02  0.9800933E-01
         13   -1    0    0    0    0  0.00000000000E+00  0.00000000000E+00  0.10000000000E+04  0.10000000000E+04  0.00000000000E+00 0. -1.
          2   -1    0    0  501    0 -0.00000000000E+00 -0.00000000000E+00 -0.10664299201E+03  0.10664299201E+03  0.00000000000E+00 0. -1.
    9000006    2    1    2  501    0  0.00000000000E+00  0.00000000000E+00  0.89335700799E+03  0.11066429920E+04  0.65312477219E+03 0.  0.
         13    1    3    3    0    0 -0.28057270894E+03 -0.12918680813E+03  0.26710024211E+03  0.40835378745E+03  0.00000000000E+00 0. -1.
          2    1    3    3  501    0  0.28057270894E+03  0.12918680813E+03  0.62625676588E+03  0.69828920456E+03  0.00000000000E+00 0. -1.
<mgrwt>
<rscale>  0 0.65312477E+03</rscale>
<asrwt>0</asrwt>
<pdfrwt beam="1">0</pdfrwt>
<pdfrwt beam="2">  1        2 0.38779352E+00 0.65312477E+03</pdfrwt>
<totfact> 0.44221987E+00</totfact>
</mgrwt>
</event>
<event>
 5    1  0.2349912E-004  0.6606029E+03  0.7818608E-02  0.9787084E-01
         13   -1    0    0    0    0  0.00000000000E+00  0.00000000000E+00  0.10000000000E+04  0.10000000000E+04  0.00000000000E+00 0. -1.
          2   -1    0    0  501    0 -0.00000000000E+00 -0.00000000000E+00 -0.10909906282E+03  0.10909906282E+03  0.00000000000E+00 0. -1.
    9000006    2    1    2  501    0  0.00000000000E+00  0.00000000000E+00  0.89090093718E+03  0.11090990628E+04  0.66060294525E+03 0.  0.
         13    1    3    3    0    0 -0.26964630664E+03  0.19052964473E+03  0.42966625061E+03  0.54187061474E+03  0.00000000000E+00 0. -1.
          2    1    3    3  501    0  0.26964630664E+03 -0.19052964473E+03  0.46123468657E+03  0.56722844808E+03  0.00000000000E+00 0. -1.
<mgrwt>
<rscale>  0 0.66060295E+03</rscale>
<asrwt>0</asrwt>
<pdfrwt beam="1">0</pdfrwt>
<pdfrwt beam="2">  1        2 0.39672470E+00 0.66060295E+03</pdfrwt>
<totfact> 0.40935465E+00</totfact>
</mgrwt>
</event>
<event>
 5    1  0.2349912E-004  0.6739926E+03  0.7818608E-02  0.9762772E-01
         13   -1    0    0    0    0  0.00000000000E+00  0.00000000000E+00  0.10000000000E+04  0.10000000000E+04  0.00000000000E+00 0. -1.
          2   -1    0    0  501    0 -0.00000000000E+00 -0.00000000000E+00 -0.11356649766E+03  0.11356649766E+03  0.00000000000E+00 0. -1.
    9000006    2    1    2  501    0  0.00000000000E+00  0.00000000000E+00  0.88643350234E+03  0.11135664977E+04  0.67399257460E+03 0.  0.
         13    1    3    3    0    0 -0.23453537286E+03 -0.16635285213E+03  0.73358196477E+03  0.78792297312E+03  0.00000000000E+00 0. -1.
          2    1    3    3  501    0  0.23453537286E+03  0.16635285213E+03  0.15285153758E+03  0.32564352454E+03  0.00000000000E+00 0. -1.
<mgrwt>
<rscale>  0 0.67399257E+03</rscale>
<asrwt>0</asrwt>
<pdfrwt beam="1">0</pdfrwt>
<pdfrwt beam="2">  1        2 0.41296995E+00 0.67399257E+03</pdfrwt>
<totfact> 0.35515394E+00</totfact>
</mgrwt>
</event>
<event>
 5    1  0.2349912E-004  0.6461590E+03  0.7818608E-02  0.9814013E-01
         13   -1    0    0    0    0  0.00000000000E+00  0.00000000000E+00  0.10000000000E+04  0.10000000000E+04  0.00000000000E+00 0. -1.
          2   -1    0    0  501    0 -0.00000000000E+00 -0.00000000000E+00 -0.10438036965E+03  0.10438036965E+03  0.00000000000E+00 0. -1.
    9000006    2    1    2  501    0  0.00000000000E+00  0.00000000000E+00  0.89561963035E+03  0.11043803697E+04  0.64615901960E+03 0.  0.
         13    1    3    3    0    0 -0.31934751464E+03 -0.48164713032E+02  0.43274458708E+03  0.53997273295E+03  0.00000000000E+00 0. -1.
          4    1    3    3  501    0  0.31934751464E+03  0.48164713032E+02  0.46287504327E+03  0.56440763670E+03  0.00000000000E+00 0. -1.
<mgrwt>
<rscale>  0 0.64615902E+03</rscale>
<asrwt>0</asrwt>
<pdfrwt beam="1">0</pdfrwt>
<pdfrwt beam="2">  1        2 0.37956578E+00 0.64615902E+03</pdfrwt>
<totfact> 0.47459119E+00</totfact>
</mgrwt>
</event>
<event>
 5    1  0.2349912E-004  0.6868364E+03  0.7818608E-02  0.9740012E-01
         13   -1    0    0    0    0  0.00000000000E+00  0.00000000000E+00  0.10000000000E+04  0.10000000000E+04  0.00000000000E+00 0. -1.
          2   -1    0    0  501    0 -0.00000000000E+00 -0.00000000000E+00 -0.11793606398E+03  0.11793606398E+03  0.00000000000E+00 0. -1.
    9000006    2    1    2  501    0  0.00000000000E+00  0.00000000000E+00  0.88206393602E+03  0.11179360640E+04  0.68683641133E+03 0.  0.
         13    1    3    3    0    0 -0.29885685133E+03 -0.14225411626E+03  0.59007098663E+03  0.67656146834E+03  0.00000000000E+00 0. -1.
          2    1    3    3  501    0  0.29885685133E+03  0.14225411626E+03  0.29199294939E+03  0.44137459564E+03  0.00000000000E+00 0. -1.
<mgrwt>
<rscale>  0 0.68683641E+03</rscale>
<asrwt>0</asrwt>
<pdfrwt beam="1">0</pdfrwt>
<pdfrwt beam="2">  1        2 0.42885932E+00 0.68683641E+03</pdfrwt>
<totfact> 0.30842609E+00</totfact>
</mgrwt>
</event>
<event>
 5    1  0.2349912E-004  0.6265373E+03  0.7818608E-02  0.9851829E-01
         13   -1    0    0    0    0  0.00000000000E+00  0.00000000000E+00  0.10000000000E+04  0.10000000000E+04  0.00000000000E+00 0. -1.
          2   -1    0    0  501    0 -0.00000000000E+00 -0.00000000000E+00 -0.98137239117E+02  0.98137239117E+02  0.00000000000E+00 0. -1.
    9000006    2    1    2  501    0  0.00000000000E+00  0.00000000000E+00  0.90186276088E+03  0.10981372391E+04  0.62653727460E+03 0.  0.
         13    1    3    3    0    0  0.64162382484E+02 -0.29022473929E+03  0.27751038150E+03  0.40664385212E+03  0.00000000000E+00 0. -1.
          4    1    3    3  501    0 -0.64162382484E+02  0.29022473929E+03  0.62435237938E+03  0.69149338700E+03  0.00000000000E+00 0. -1.
<mgrwt>
<rscale>  0 0.62653727E+03</rscale>
<asrwt>0</asrwt>
<pdfrwt beam="1">0</pdfrwt>
<pdfrwt beam="2">  1        2 0.35686344E+00 0.62653727E+03</pdfrwt>
<totfact> 0.57547214E+00</totfact>
</mgrwt>
</event>
<event>
 5    1  0.2349912E-004  0.6578398E+03  0.7818608E-02  0.9792178E-01
         13   -1    0    0    0    0  0.00000000000E+00  0.00000000000E+00  0.10000000000E+04  0.10000000000E+04  0.00000000000E+00 0. -1.
          2   -1    0    0  501    0 -0.00000000000E+00 -0.00000000000E+00 -0.10818831457E+03  0.10818831457E+03  0.00000000000E+00 0. -1.
    9000006    2    1    2  501    0  0.00000000000E+00  0.00000000000E+00  0.89181168543E+03  0.11081883146E+04  0.65783984242E+03 0.  0.
         13    1    3    3    0    0 -0.11190317753E+02 -0.34074267506E+02 -0.10488458093E+03  0.11084698568E+03  0.00000000000E+00 0. -1.
          4    1    3    3  501    0  0.11190317753E+02  0.34074267506E+02  0.99669626636E+03  0.99734132889E+03  0.00000000000E+00 0. -1.
<mgrwt>
<rscale>  0 0.65783984E+03</rscale>
<asrwt>0</asrwt>
<pdfrwt beam="1">0</pdfrwt>
<pdfrwt beam="2">  1        2 0.39341288E+00 0.65783984E+03</pdfrwt>
<totfact> 0.42127461E+00</totfact>
</mgrwt>
</event>
<event>
 5    1  0.2349912E-004  0.6537024E+03  0.7818608E-02  0.9799857E-01
         13   -1    0    0    0    0  0.00000000000E+00  0.00000000000E+00  0.10000000000E+04  0.10000000000E+04  0.00000000000E+00 0. -1.
          2   -1    0    0  501    0 -0.00000000000E+00 -0.00000000000E+00 -0.10683171045E+03  0.10683171045E+03  0.00000000000E+00 0. -1.
    9000006    2    1    2  501    0  0.00000000000E+00  0.00000000000E+00  0.89316828955E+03  0.11068317105E+04  0.65370241075E+03 0.  0.
         13    1    3    3    0    0  0.14138870301E+03 -0.17102301297E+03  0.40250422728E+02  0.22552102526E+03  0.00000000000E+00 0. -1.
          2    1    3    3  501    0 -0.14138870301E+03  0.17102301297E+03  0.85291786682E+03  0.88131068520E+03  0.00000000000E+00 0. -1.
<mgrwt>
<rscale>  0 0.65370241E+03</rscale>
<asrwt>0</asrwt>
<pdfrwt beam="1">0</pdfrwt>
<pdfrwt beam="2">  1        2 0.38847977E+00 0.65370241E+03</pdfrwt>
<totfact> 0.43961251E+00</totfact>
</mgrwt>
</event>
<event>
 5    1  0.2349912E-004  0.6578640E+03  0.7818608E-02  0.9792134E-01
         13   -1    0    0    0    0  0.00000000000E+00  0.00000000000E+00  0.10000000000E+04  0.10000000000E+04  0.00000000000E+00 0. -1.
          2   -1    0    0  501    0 -0.00000000000E+00 -0.00000000000E+00 -0.10819625050E+03  0.10819625050E+03  0.00000000000E+00 0. -1.
    9000006    2    1    2  501    0  0.00000000000E+00  0.00000000000E+00  0.89180374950E+03  0.11081962505E+04  0.65786396922E+03 0.  0.
         13    1    3    3    0    0  0.13345090957E+02  0.26080596236E+03  0.10900115866E+03  0.28298249778E+03  0.00000000000E+00 0. -1.
          4    1    3    3  501    0 -0.13345090957E+02 -0.26080596236E+03  0.78280259084E+03  0.82521375272E+03  0.00000000000E+00 0. -1.
<mgrwt>
<rscale>  0 0.65786397E+03</rscale>
<asrwt>0</asrwt>
<pdfrwt beam="1">0</pdfrwt>
<pdfrwt beam="2">  1        2 0.39344174E+00 0.65786397E+03</pdfrwt>
<totfact> 0.42116940E+00</totfact>
</mgrwt>
</event>
<event>
 5    1  0.2349912E-004  0.6336866E+03  0.7818608E-02  0.9837881E-01
         13   -1    0    0    0    0  0.00000000000E+00  0.00000000000E+00  0.10000000000E+04  0.10000000000E+04  0.00000000000E+00 0. -1.
          2   -1    0    0  501    0 -0.00000000000E+00 -0.00000000000E+00 -0.10038968569E+03  0.10038968569E+03  0.00000000000E+00 0. -1.
    9000006    2    1    2  501    0  0.00000000000E+00  0.00000000000E+00  0.89961031431E+03  0.11003896857E+04  0.63368662819E+03 0.  0.
         13    1    3    3    0    0  0.14639037866E+03 -0.23935219294E+03  0.70542945344E+03  0.75917740286E+03  0.00000000000E+00 0. -1.
          2    1    3    3  501    0 -0.14639037866E+03  0.23935219294E+03  0.19418086087E+03  0.34121228283E+03  0.00000000000E+00 0. -1.
<mgrwt>
<rscale>  0 0.63368663E+03</rscale>
<asrwt>0</asrwt>
<pdfrwt beam="1">0</pdfrwt>
<pdfrwt beam="2">  1        2 0.36505417E+00 0.63368663E+03</pdfrwt>
<totfact> 0.53700120E+00</totfact>
</mgrwt>
</event>
<event>
 5    1  0.2349912E-004  0.6503891E+03  0.7818608E-02  0.9806049E-01
         13   -1    0    0    0    0  0.00000000000E+00  0.00000000000E+00  0.10000000000E+04  0.10000000000E+04  0.00000000000E+00 0. -1.
          2   -1    0    0  501    0 -0.00000000000E+00 -0.00000000000E+00 -0.10575150021E+03  0.10575150021E+03  0.00000000000E+00 0. -1.
    9000006    2    1    2  501    0  0.00000000000E+00  0.00000000000E+00  0.89424849979E+03  0.11057515002E+04  0.65038911496E+03 0.  0.
         13    1    3    3    0    0 -0.75131945135E+02  0.12271780251E+03  0.94293261989E+03  0.95384820274E+03  0.00000000000E+00 0. -1.
          4    1    3    3  501    0  0.75131945135E+02 -0.12271780251E+03 -0.48684120100E+02  0.15190329747E+03  0.00000000000E+00 0. -1.
<mgrwt>
<rscale>  0 0.65038911E+03</rscale>
<asrwt>0</asrwt>
<pdfrwt beam="1">0</pdfrwt>
<pdfrwt beam="2">  1        2 0.38455172E+00 0.65038911E+03</pdfrwt>
<totfact> 0.45472722E+00</totfact>
</mgrwt>
</event>
<event>
 5    1  0.2349912E-004  0.6538373E+03  0.7818608E-02  0.9799605E-01
         13   -1    0    0    0    0  0.00000000000E+00  0.00000000000E+00  0.10000000000E+04  0.10000000000E+04  0.00000000000E+00 0. -1.
          2   -1    0    0  501    0 -0.00000000000E+00 -0.00000000000E+00 -0.10687579308E+03  0.10687579308E+03  0.00000000000E+00 0. -1.
    9000006    2    1    2  501    0  0.00000000000E+00  0.00000000000E+00  0.89312420692E+03  0.11068757931E+04  0.65383726747E+03 0.  0.
         13    1    3    3    0    0 -0.12667328346E+03 -0.40505813908E+02  0.95213612232E+03  0.96137923690E+03  0.00000000000E+00 0. -1.
          4    1    3    3  501    0  0.12667328346E+03  0.40505813908E+02 -0.59011915405E+02  0.14549655619E+03  0.00000000000E+00 0. -1.
<mgrwt>
<rscale>  0 0.65383727E+03</rscale>
<asrwt>0</asrwt>
<pdfrwt beam="1">0</pdfrwt>
<pdfrwt beam="2">  1        2 0.38864007E+00 0.65383727E+03</pdfrwt>
<totfact> 0.43900546E+00</totfact>
</mgrwt>
</event>
<event>
 5    1  0.2349912E-004  0.6426040E+03  0.7818608E-02  0.9820757E-01
         13   -1    0    0    0    0  0.00000000000E+00  0.00000000000E+00  0.10000000000E+04  0.10000000000E+04  0.00000000000E+00 0. -1.
          2   -1    0    0  501    0 -0.00000000000E+00 -0.00000000000E+00 -0.10323498085E+03  0.10323498085E+03  0.00000000000E+00 0. -1.
    9000006    2    1    2  501    0  0.00000000000E+00  0.00000000000E+00  0.89676501915E+03  0.11032349809E+04  0.64260401758E+03 0.  0.
         13    1    3    3    0    0  0.28207670016E+03  0.14644402016E+03  0.36745737598E+03  0.48583746147E+03  0.00000000000E+00 0. -1.
          2    1    3    3  501    0 -0.28207670016E+03 -0.14644402016E+03  0.52930764317E+03  0.61739751938E+03  0.00000000000E+00 0. -1.
<mgrwt>
<rscale>  0 0.64260402E+03</rscale>
<asrwt>0</asrwt>
<pdfrwt beam="1">0</pdfrwt>
<pdfrwt beam="2">  1        2 0.37540072E+00 0.64260402E+03</pdfrwt>
<totfact> 0.49178673E+00</totfact>
</mgrwt>
</event>
<event>
 5    1  0.2349912E-004  0.6691973E+03  0.7818608E-02  0.9771409E-01
         13   -1    0    0    0    0  0.00000000000E+00  0.00000000000E+00  0.10000000000E+04  0.10000000000E+04  0.00000000000E+00 0. -1.
          2   -1    0    0  501    0 -0.00000000000E+00 -0.00000000000E+00 -0.11195626369E+03  0.11195626369E+03  0.00000000000E+00 0. -1.
    9000006    2    1    2  501    0  0.00000000000E+00  0.00000000000E+00  0.88804373631E+03  0.11119562637E+04  0.66919732124E+03 0.  0.
         13    1    3    3    0    0  0.31878820179E+03  0.22397760077E+02  0.27928862385E+03  0.42441690903E+03  0.00000000000E+00 0. -1.
          2    1    3    3  501    0 -0.31878820179E+03 -0.22397760077E+02  0.60875511246E+03  0.68753935466E+03  0.00000000000E+00 0. -1.
<mgrwt>
<rscale>  0 0.66919732E+03</rscale>
<asrwt>0</asrwt>
<pdfrwt beam="1">0</pdfrwt>
<pdfrwt beam="2">  1        2 0.40711454E+00 0.66919732E+03</pdfrwt>
<totfact> 0.37390033E+00</totfact>
</mgrwt>
</event>
<event>
 5    1  0.2349912E-004  0.6267108E+03  0.7818608E-02  0.9851488E-01
         13   -1    0    0    0    0  0.00000000000E+00  0.00000000000E+00  0.10000000000E+04  0.10000000000E+04  0.00000000000E+00 0. -1.
          2   -1    0    0  501    0 -0.00000000000E+00 -0.00000000000E+00 -0.98191614271E+02  0.98191614271E+02  0.00000000000E+00 0. -1.
    9000006    2    1    2  501    0  0.00000000000E+00  0.00000000000E+00  0.90180838573E+03  0.10981916143E+04  0.62671082413E+03 0.  0.
         13    1    3    3    0    0 -0.27709994716E+03 -0.13702514541E+03  0.36101661756E+03  0.47528230489E+03  0.00000000000E+00 0. -1.
          2    1    3    3  501    0  0.27709994716E+03  0.13702514541E+03  0.54079176817E+03  0.62290930938E+03  0.00000000000E+00 0. -1.
<mgrwt>
<rscale>  0 0.62671082E+03</rscale>
<asrwt>0</asrwt>
<pdfrwt beam="1">0</pdfrwt>
<pdfrwt beam="2">  1        2 0.35706117E+00 0.62671082E+03</pdfrwt>
<totfact> 0.57451411E+00</totfact>
</mgrwt>
</event>
<event>
 5    1  0.2349912E-004  0.6579156E+03  0.7818608E-02  0.9792038E-01
         13   -1    0    0    0    0  0.00000000000E+00  0.00000000000E+00  0.10000000000E+04  0.10000000000E+04  0.00000000000E+00 0. -1.
          2   -1    0    0  501    0 -0.00000000000E+00 -0.00000000000E+00 -0.10821323722E+03  0.10821323722E+03  0.00000000000E+00 0. -1.
    9000006    2    1    2  501    0  0.00000000000E+00  0.00000000000E+00  0.89178676278E+03  0.11082132372E+04  0.65791560923E+03 0.  0.
         13    1    3    3    0    0  0.18555322967E+03  0.21924258346E+03  0.17577494639E+03  0.33674046864E+03  0.00000000000E+00 0. -1.
          4    1    3    3  501    0 -0.18555322967E+03 -0.21924258346E+03  0.71601181639E+03  0.77147276858E+03  0.00000000000E+00 0. -1.
<mgrwt>
<rscale>  0 0.65791561E+03</rscale>
<asrwt>0</asrwt>
<pdfrwt beam="1">0</pdfrwt>
<pdfrwt beam="2">  1        2 0.39350351E+00 0.65791561E+03</pdfrwt>
<totfact> 0.42094428E+00</totfact>
</mgrwt>
</event>
<event>
 5    1  0.2349912E-004  0.6415043E+03  0.7818608E-02  0.9822853E-01
         13   -1    0    0    0    0  0.00000000000E+00  0.00000000000E+00  0.10000000000E+04  0.10000000000E+04  0.00000000000E+00 0. -1.
          2   -1    0    0  501    0 -0.00000000000E+00 -0.00000000000E+00 -0.10288194453E+03  0.10288194453E+03  0.00000000000E+00 0. -1.
    9000006    2    1    2  501    0  0.00000000000E+00  0.00000000000E+00  0.89711805547E+03  0.11028819445E+04  0.64150430874E+03 0.  0.
         13    1    3    3    0    0  0.13412454625E+03 -0.27869558262E+03  0.59465486113E+03  0.67027981138E+03  0.00000000000E+00 0. -1.
          2    1    3    3  501    0 -0.13412454625E+03  0.27869558262E+03  0.30246319434E+03  0.43260213315E+03  0.00000000000E+00 0. -1.
<mgrwt>
<rscale>  0 0.64150431E+03</rscale>
<asrwt>0</asrwt>
<pdfrwt beam="1">0</pdfrwt>
<pdfrwt beam="2">  1        2 0.37411695E+00 0.64150431E+03</pdfrwt>
<totfact> 0.49720078E+00</totfact>
</mgrwt>
</event>
<event>
 5    1  0.2349912E-004  0.6598152E+03  0.7818608E-02  0.9788534E-01
         13   -1    0    0    0    0  0.00000000000E+00  0.00000000000E+00  0.10000000000E+04  0.10000000000E+04  0.00000000000E+00 0. -1.
          2   -1    0    0  501    0 -0.00000000000E+00 -0.00000000000E+00 -0.10883902364E+03  0.10883902364E+03  0.00000000000E+00 0. -1.
    9000006    2    1    2  501    0  0.00000000000E+00  0.00000000000E+00  0.89116097636E+03  0.11088390236E+04  0.65981519728E+03 0.  0.
         13    1    3    3    0    0 -0.15572238419E+03 -0.26564078094E+03  0.64459762430E+03  0.71436726037E+03  0.00000000000E+00 0. -1.
          2    1    3    3  501    0  0.15572238419E+03  0.26564078094E+03  0.24656335206E+03  0.39447176327E+03  0.00000000000E+00 0. -1.
<mgrwt>
<rscale>  0 0.65981520E+03</rscale>
<asrwt>0</asrwt>
<pdfrwt beam="1">0</pdfrwt>
<pdfrwt beam="2">  1        2 0.39577910E+00 0.65981520E+03</pdfrwt>
<totfact> 0.41272665E+00</totfact>
</mgrwt>
</event>
<event>
 5    1  0.2349912E-004  0.6428260E+03  0.7818608E-02  0.9820335E-01
         13   -1    0    0    0    0  0.00000000000E+00  0.00000000000E+00  0.10000000000E+04  0.10000000000E+04  0.00000000000E+00 0. -1.
          2   -1    0    0  501    0 -0.00000000000E+00 -0.00000000000E+00 -0.10330631950E+03  0.10330631950E+03  0.00000000000E+00 0. -1.
    9000006    2    1    2  501    0  0.00000000000E+00  0.00000000000E+00  0.89669368050E+03  0.11033063195E+04  0.64282600912E+03 0.  0.
         13    1    3    3    0    0  0.18405602341E+03 -0.21398151760E+03  0.18444574739E+03  0.33717197890E+03  0.00000000000E+00 0. -1.
          4    1    3    3  501    0 -0.18405602341E+03  0.21398151760E+03  0.71224793311E+03  0.76613434060E+03  0.00000000000E+00 0. -1.
<mgrwt>
<rscale>  0 0.64282601E+03</rscale>
<asrwt>0</asrwt>
<pdfrwt beam="1">0</pdfrwt>
<pdfrwt beam="2">  1        2 0.37566014E+00 0.64282601E+03</pdfrwt>
<totfact> 0.49069933E+00</totfact>
</mgrwt>
</event>
<event>
 5    1  0.2349912E-004  0.7347791E+03  0.7818608E-02  0.9659537E-01
         13   -1    0    0    0    0  0.00000000000E+00  0.00000000000E+00  0.10000000000E+04  0.10000000000E+04  0.00000000000E+00 0. -1.
          2   -1    0    0  501    0 -0.00000000000E+00 -0.00000000000E+00 -0.13497507318E+03  0.13497507318E+03  0.00000000000E+00 0. -1.
    9000006    2    1    2  501    0  0.00000000000E+00  0.00000000000E+00  0.86502492682E+03  0.11349750732E+04  0.73477907748E+03 0.  0.
         13    1    3    3    0    0 -0.44893354380E+01  0.33264721726E+03  0.19172195599E+03  0.38396827173E+03  0.00000000000E+00 0. -1.
          2    1    3    3  501    0  0.44893354380E+01 -0.33264721726E+03  0.67330297084E+03  0.75100680145E+03  0.00000000000E+00 0. -1.
<mgrwt>
<rscale>  0 0.73477908E+03</rscale>
<asrwt>0</asrwt>
<pdfrwt beam="1">0</pdfrwt>
<pdfrwt beam="2">  1        2 0.49081948E+00 0.73477908E+03</pdfrwt>
<totfact> 0.17359413E+00</totfact>
</mgrwt>
</event>
<event>
 5    1  0.2349912E-004  0.6474502E+03  0.7818608E-02  0.9811575E-01
         13   -1    0    0    0    0  0.00000000000E+00  0.00000000000E+00  0.10000000000E+04  0.10000000000E+04  0.00000000000E+00 0. -1.
          2   -1    0    0  501    0 -0.00000000000E+00 -0.00000000000E+00 -0.10479795617E+03  0.10479795617E+03  0.00000000000E+00 0. -1.
    9000006    2    1    2  501    0  0.00000000000E+00  0.00000000000E+00  0.89520204383E+03  0.11047979562E+04  0.64745024879E+03 0.  0.
         13    1    3    3    0    0  0.94602054862E+02  0.25352552233E+03  0.75080568535E+03  0.79808139711E+03  0.00000000000E+00 0. -1.
          4    1    3    3  501    0 -0.94602054862E+02 -0.25352552233E+03  0.14439635848E+03  0.30671655905E+03  0.00000000000E+00 0. -1.
<mgrwt>
<rscale>  0 0.64745025E+03</rscale>
<asrwt>0</asrwt>
<pdfrwt beam="1">0</pdfrwt>
<pdfrwt beam="2">  1        2 0.38108428E+00 0.64745025E+03</pdfrwt>
<totfact> 0.46845957E+00</totfact>
</mgrwt>
</event>
<event>
 5    1  0.2349912E-004  0.6383216E+03  0.7818608E-02  0.9828943E-01
         13   -1    0    0    0    0  0.00000000000E+00  0.00000000000E+00  0.10000000000E+04  0.10000000000E+04  0.00000000000E+00 0. -1.
          2   -1    0    0  501    0 -0.00000000000E+00 -0.00000000000E+00 -0.10186360341E+03  0.10186360341E+03  0.00000000000E+00 0. -1.
    9000006    2    1    2  501    0  0.00000000000E+00  0.00000000000E+00  0.89813639659E+03  0.11018636034E+04  0.63832155975E+03 0.  0.
         13    1    3    3    0    0  0.22992932896E+03 -0.15920983453E+03  0.71452179569E+03  0.76730480531E+03  0.00000000000E+00 0. -1.
          4    1    3    3  501    0 -0.22992932896E+03  0.15920983453E+03  0.18361460090E+03  0.33455879811E+03  0.00000000000E+00 0. -1.
<mgrwt>
<rscale>  0 0.63832156E+03</rscale>
<asrwt>0</asrwt>
<pdfrwt beam="1">0</pdfrwt>
<pdfrwt beam="2">  1        2 0.37041388E+00 0.63832156E+03</pdfrwt>
<totfact> 0.51312454E+00</totfact>
</mgrwt>
</event>
<event>
 5    1  0.2349912E-004  0.5153527E+03  0.7818608E-02  0.1009848E+00
         13   -1    0    0    0    0  0.00000000000E+00  0.00000000000E+00  0.10000000000E+04  0.10000000000E+04  0.00000000000E+00 0. -1.
          2   -1    0    0  501    0 -0.00000000000E+00 -0.00000000000E+00 -0.66397093526E+02  0.66397093526E+02  0.00000000000E+00 0. -1.
    9000006    2    1    2  501    0  0.00000000000E+00  0.00000000000E+00  0.93360290647E+03  0.10663970935E+04  0.51535266964E+03 0.  0.
         13    1    3    3    0    0  0.17155780609E+03 -0.33275642555E+02  0.85863887090E+03  0.87624200985E+03  0.00000000000E+00 0. -1.
          4    1    3    3  501    0 -0.17155780609E+03  0.33275642555E+02  0.74964035577E+02  0.19015508367E+03  0.00000000000E+00 0. -1.
<mgrwt>
<rscale>  0 0.51535267E+03</rscale>
<asrwt>0</asrwt>
<pdfrwt beam="1">0</pdfrwt>
<pdfrwt beam="2">  1        2 0.24144449E+00 0.51535267E+03</pdfrwt>
<totfact> 0.14965019E+01</totfact>
</mgrwt>
</event>
<event>
 5    1  0.2349912E-004  0.6459904E+03  0.7818608E-02  0.9814332E-01
         13   -1    0    0    0    0  0.00000000000E+00  0.00000000000E+00  0.10000000000E+04  0.10000000000E+04  0.00000000000E+00 0. -1.
          2   -1    0    0  501    0 -0.00000000000E+00 -0.00000000000E+00 -0.10432590268E+03  0.10432590268E+03  0.00000000000E+00 0. -1.
    9000006    2    1    2  501    0  0.00000000000E+00  0.00000000000E+00  0.89567409732E+03  0.11043259027E+04  0.64599041070E+03 0.  0.
         13    1    3    3    0    0  0.14097537312E+03  0.28380425727E+03  0.55469143639E+03  0.63882822564E+03  0.00000000000E+00 0. -1.
          4    1    3    3  501    0 -0.14097537312E+03 -0.28380425727E+03  0.34098266093E+03  0.46549767703E+03  0.00000000000E+00 0. -1.
<mgrwt>
<rscale>  0 0.64599041E+03</rscale>
<asrwt>0</asrwt>
<pdfrwt beam="1">0</pdfrwt>
<pdfrwt beam="2">  1        2 0.37936772E+00 0.64599041E+03</pdfrwt>
<totfact> 0.47539632E+00</totfact>
</mgrwt>
</event>
<event>
 5    1  0.2349912E-004  0.6531998E+03  0.7818608E-02  0.9800793E-01
         13   -1    0    0    0    0  0.00000000000E+00  0.00000000000E+00  0.10000000000E+04  0.10000000000E+04  0.00000000000E+00 0. -1.
          2   -1    0    0  501    0 -0.00000000000E+00 -0.00000000000E+00 -0.10666748567E+03  0.10666748567E+03  0.00000000000E+00 0. -1.
    9000006    2    1    2  501    0  0.00000000000E+00  0.00000000000E+00  0.89333251433E+03  0.11066674857E+04  0.65319977242E+03 0.  0.
         13    1    3    3    0    0 -0.19942731182E+03  0.19234511164E+03  0.73962316934E+03  0.78981664156E+03  0.00000000000E+00 0. -1.
          4    1    3    3  501    0  0.19942731182E+03 -0.19234511164E+03  0.15370934499E+03  0.31685084411E+03  0.00000000000E+00 0. -1.
<mgrwt>
<rscale>  0 0.65319977E+03</rscale>
<asrwt>0</asrwt>
<pdfrwt beam="1">0</pdfrwt>
<pdfrwt beam="2">  1        2 0.38788258E+00 0.65319977E+03</pdfrwt>
<totfact> 0.44188067E+00</totfact>
</mgrwt>
</event>
<event>
 5    1  0.2349912E-004  0.6377748E+03  0.7818608E-02  0.9829993E-01
         13   -1    0    0    0    0  0.00000000000E+00  0.00000000000E+00  0.10000000000E+04  0.10000000000E+04  0.00000000000E+00 0. -1.
          2   -1    0    0  501    0 -0.00000000000E+00 -0.00000000000E+00 -0.10168917210E+03  0.10168917210E+03  0.00000000000E+00 0. -1.
    9000006    2    1    2  501    0  0.00000000000E+00  0.00000000000E+00  0.89831082790E+03  0.11016891721E+04  0.63777479443E+03 0.  0.
         13    1    3    3    0    0  0.82477070195E+02  0.24252246377E+03  0.77722211326E+03  0.81834823021E+03  0.00000000000E+00 0. -1.
          2    1    3    3  501    0 -0.82477070195E+02 -0.24252246377E+03  0.12108871464E+03  0.28334094190E+03  0.00000000000E+00 0. -1.
<mgrwt>
<rscale>  0 0.63777479E+03</rscale>
<asrwt>0</asrwt>
<pdfrwt beam="1">0</pdfrwt>
<pdfrwt beam="2">  1        2 0.36977959E+00 0.63777479E+03</pdfrwt>
<totfact> 0.51589849E+00</totfact>
</mgrwt>
</event>
<event>
 5    1  0.2349912E-004  0.6531055E+03  0.7818608E-02  0.9800969E-01
         13   -1    0    0    0    0  0.00000000000E+00  0.00000000000E+00  0.10000000000E+04  0.10000000000E+04  0.00000000000E+00 0. -1.
          2   -1    0    0  501    0 -0.00000000000E+00 -0.00000000000E+00 -0.10663669468E+03  0.10663669468E+03  0.00000000000E+00 0. -1.
    9000006    2    1    2  501    0  0.00000000000E+00  0.00000000000E+00  0.89336330532E+03  0.11066366947E+04  0.65310548819E+03 0.  0.
         13    1    3    3    0    0  0.13407087057E+02 -0.24325998887E+03  0.78241070444E+02  0.25588442171E+03  0.00000000000E+00 0. -1.
          2    1    3    3  501    0 -0.13407087057E+02  0.24325998887E+03  0.81512223488E+03  0.85075227297E+03  0.00000000000E+00 0. -1.
<mgrwt>
<rscale>  0 0.65310549E+03</rscale>
<asrwt>0</asrwt>
<pdfrwt beam="1">0</pdfrwt>
<pdfrwt beam="2">  1        2 0.38777062E+00 0.65310549E+03</pdfrwt>
<totfact> 0.44230712E+00</totfact>
</mgrwt>
</event>
<event>
 5    1  0.2349912E-004  0.6499151E+03  0.7818608E-02  0.9806938E-01
         13   -1    0    0    0    0  0.00000000000E+00  0.00000000000E+00  0.10000000000E+04  0.10000000000E+04  0.00000000000E+00 0. -1.
          2   -1    0    0  501    0 -0.00000000000E+00 -0.00000000000E+00 -0.10559741027E+03  0.10559741027E+03  0.00000000000E+00 0. -1.
    9000006    2    1    2  501    0  0.00000000000E+00  0.00000000000E+00  0.89440258973E+03  0.11055974103E+04  0.64991510299E+03 0.  0.
         13    1    3    3    0    0  0.22322781285E+03 -0.21684175926E+03  0.60629580079E+03  0.68150246004E+03  0.00000000000E+00 0. -1.
          2    1    3    3  501    0 -0.22322781285E+03  0.21684175926E+03  0.28810678894E+03  0.42409495024E+03  0.00000000000E+00 0. -1.
<mgrwt>
<rscale>  0 0.64991510E+03</rscale>
<asrwt>0</asrwt>
<pdfrwt beam="1">0</pdfrwt>
<pdfrwt beam="2">  1        2 0.38399139E+00 0.64991510E+03</pdfrwt>
<totfact> 0.45692127E+00</totfact>
</mgrwt>
</event>
<event>
 5    1  0.2349912E-004  0.6272145E+03  0.7818608E-02  0.9850500E-01
         13   -1    0    0    0    0  0.00000000000E+00  0.00000000000E+00  0.10000000000E+04  0.10000000000E+04  0.00000000000E+00 0. -1.
          2   -1    0    0  501    0 -0.00000000000E+00 -0.00000000000E+00 -0.98349505333E+02  0.98349505333E+02  0.00000000000E+00 0. -1.
    9000006    2    1    2  501    0  0.00000000000E+00  0.00000000000E+00  0.90165049467E+03  0.10983495053E+04  0.62721449388E+03 0.  0.
         13    1    3    3    0    0  0.14167405735E+03  0.23629106724E+03  0.71317425430E+03  0.76454072748E+03  0.00000000000E+00 0. -1.
          2    1    3    3  501    0 -0.14167405735E+03 -0.23629106724E+03  0.18847624037E+03  0.33380877785E+03  0.00000000000E+00 0. -1.
<mgrwt>
<rscale>  0 0.62721449E+03</rscale>
<asrwt>0</asrwt>
<pdfrwt beam="1">0</pdfrwt>
<pdfrwt beam="2">  1        2 0.35763532E+00 0.62721449E+03</pdfrwt>
<totfact> 0.57174081E+00</totfact>
</mgrwt>
</event>
<event>
 5    1  0.2349912E-004  0.6462462E+03  0.7818608E-02  0.9813849E-01
         13   -1    0    0    0    0  0.00000000000E+00  0.00000000000E+00  0.10000000000E+04  0.10000000000E+04  0.00000000000E+00 0. -1.
          2   -1    0    0  501    0 -0.00000000000E+00 -0.00000000000E+00 -0.10440852304E+03  0.10440852304E+03  0.00000000000E+00 0. -1.
    9000006    2    1    2  501    0  0.00000000000E+00  0.00000000000E+00  0.89559147696E+03  0.11044085230E+04  0.64624615446E+03 0.  0.
         13    1    3    3    0    0 -0.89710110614E+02 -0.28214825803E+03  0.66899201263E+03  0.73157764893E+03  0.00000000000E+00 0. -1.
          4    1    3    3  501    0  0.89710110614E+02  0.28214825803E+03  0.22659946433E+03  0.37283087411E+03  0.00000000000E+00 0. -1.
<mgrwt>
<rscale>  0 0.64624615E+03</rscale>
<asrwt>0</asrwt>
<pdfrwt beam="1">0</pdfrwt>
<pdfrwt beam="2">  1        2 0.37966816E+00 0.64624615E+03</pdfrwt>
<totfact> 0.47417552E+00</totfact>
</mgrwt>
</event>
<event>
 5    1  0.2349912E-004  0.6384999E+03  0.7818608E-02  0.9828601E-01
         13   -1    0    0    0    0  0.00000000000E+00  0.00000000000E+00  0.10000000000E+04  0.10000000000E+04  0.00000000000E+00 0. -1.
          2   -1    0    0  501    0 -0.00000000000E+00 -0.00000000000E+00 -0.10192054213E+03  0.10192054213E+03  0.00000000000E+00 0. -1.
    9000006    2    1    2  501    0  0.00000000000E+00  0.00000000000E+00  0.89807945787E+03  0.11019205421E+04  0.63849993620E+03 0.  0.
         13    1    3    3    0    0 -0.29562395496E+03 -0.65714362144E+02  0.62341038760E+03  0.69307460746E+03  0.00000000000E+00 0. -1.
          4    1    3    3  501    0  0.29562395496E+03  0.65714362144E+02  0.27466907027E+03  0.40884593467E+03  0.00000000000E+00 0. -1.
<mgrwt>
<rscale>  0 0.63849994E+03</rscale>
<asrwt>0</asrwt>
<pdfrwt beam="1">0</pdfrwt>
<pdfrwt beam="2">  1        2 0.37062093E+00 0.63849994E+03</pdfrwt>
<totfact> 0.51222201E+00</totfact>
</mgrwt>
</event>
<event>
 5    1  0.2349912E-004  0.6413275E+03  0.7818608E-02  0.9823190E-01
         13   -1    0    0    0    0  0.00000000000E+00  0.00000000000E+00  0.10000000000E+04  0.10000000000E+04  0.00000000000E+00 0. -1.
          2   -1    0    0  501    0 -0.00000000000E+00 -0.00000000000E+00 -0.10282523902E+03  0.10282523902E+03  0.00000000000E+00 0. -1.
    9000006    2    1    2  501    0  0.00000000000E+00  0.00000000000E+00  0.89717476098E+03  0.11028252390E+04  0.64132749520E+03 0.  0.
         13    1    3    3    0    0 -0.31201520405E+03  0.65021422376E+02  0.50923742294E+03  0.60075288252E+03  0.00000000000E+00 0. -1.
          4    1    3    3  501    0  0.31201520405E+03 -0.65021422376E+02  0.38793733803E+03  0.50207235651E+03  0.00000000000E+00 0. -1.
<mgrwt>
<rscale>  0 0.64132750E+03</rscale>
<asrwt>0</asrwt>
<pdfrwt beam="1">0</pdfrwt>
<pdfrwt beam="2">  1        2 0.37391075E+00 0.64132750E+03</pdfrwt>
<totfact> 0.49807545E+00</totfact>
</mgrwt>
</event>
<event>
 5    1  0.2349912E-004  0.6367115E+03  0.7818608E-02  0.9832039E-01
         13   -1    0    0    0    0  0.00000000000E+00  0.00000000000E+00  0.10000000000E+04  0.10000000000E+04  0.00000000000E+00 0. -1.
          2   -1    0    0  501    0 -0.00000000000E+00 -0.00000000000E+00 -0.10135037010E+03  0.10135037010E+03  0.00000000000E+00 0. -1.
    9000006    2    1    2  501    0  0.00000000000E+00  0.00000000000E+00  0.89864962990E+03  0.11013503701E+04  0.63671145772E+03 0.  0.
         13    1    3    3    0    0 -0.55421923517E+02  0.14124214946E+03 -0.34786614270E+02  0.15566323561E+03  0.00000000000E+00 0. -1.
          2    1    3    3  501    0  0.55421923517E+02 -0.14124214946E+03  0.93343624417E+03  0.94568713448E+03  0.00000000000E+00 0. -1.
<mgrwt>
<rscale>  0 0.63671146E+03</rscale>
<asrwt>0</asrwt>
<pdfrwt beam="1">0</pdfrwt>
<pdfrwt beam="2">  1        2 0.36854758E+00 0.63671146E+03</pdfrwt>
<totfact> 0.52132574E+00</totfact>
</mgrwt>
</event>
<event>
 5    1  0.2349912E-004  0.6543322E+03  0.7818608E-02  0.9798684E-01
         13   -1    0    0    0    0  0.00000000000E+00  0.00000000000E+00  0.10000000000E+04  0.10000000000E+04  0.00000000000E+00 0. -1.
          2   -1    0    0  501    0 -0.00000000000E+00 -0.00000000000E+00 -0.10703765520E+03  0.10703765520E+03  0.00000000000E+00 0. -1.
    9000006    2    1    2  501    0  0.00000000000E+00  0.00000000000E+00  0.89296234480E+03  0.11070376552E+04  0.65433219454E+03 0.  0.
         13    1    3    3    0    0 -0.29908774504E+03 -0.89239481672E+02  0.61242561799E+03  0.68737348064E+03  0.00000000000E+00 0. -1.
          2    1    3    3  501    0  0.29908774504E+03  0.89239481672E+02  0.28053672681E+03  0.41966417456E+03  0.00000000000E+00 0. -1.
<mgrwt>
<rscale>  0 0.65433219E+03</rscale>
<asrwt>0</asrwt>
<pdfrwt beam="1">0</pdfrwt>
<pdfrwt beam="2">  1        2 0.38922866E+00 0.65433219E+03</pdfrwt>
<totfact> 0.43678301E+00</totfact>
</mgrwt>
</event>
<event>
 5    1  0.2349912E-004  0.6427892E+03  0.7818608E-02  0.9820405E-01
         13   -1    0    0    0    0  0.00000000000E+00  0.00000000000E+00  0.10000000000E+04  0.10000000000E+04  0.00000000000E+00 0. -1.
          2   -1    0    0  501    0 -0.00000000000E+00 -0.00000000000E+00 -0.10329449213E+03  0.10329449213E+03  0.00000000000E+00 0. -1.
    9000006    2    1    2  501    0  0.00000000000E+00  0.00000000000E+00  0.89670550787E+03  0.11032944921E+04  0.64278921001E+03 0.  0.
         13    1    3    3    0    0 -0.11243192170E+02  0.31062483938E+03  0.30806473175E+03  0.43762778609E+03  0.00000000000E+00 0. -1.
          2    1    3    3  501    0  0.11243192170E+02 -0.31062483938E+03  0.58864077612E+03  0.66566670604E+03  0.00000000000E+00 0. -1.
<mgrwt>
<rscale>  0 0.64278921E+03</rscale>
<asrwt>0</asrwt>
<pdfrwt beam="1">0</pdfrwt>
<pdfrwt beam="2">  1        2 0.37561713E+00 0.64278921E+03</pdfrwt>
<totfact> 0.49087945E+00</totfact>
</mgrwt>
</event>
<event>
 5    1  0.2349912E-004  0.6516384E+03  0.7818608E-02  0.9803710E-01
         13   -1    0    0    0    0  0.00000000000E+00  0.00000000000E+00  0.10000000000E+04  0.10000000000E+04  0.00000000000E+00 0. -1.
          2   -1    0    0  501    0 -0.00000000000E+00 -0.00000000000E+00 -0.10615814482E+03  0.10615814482E+03  0.00000000000E+00 0. -1.
    9000006    2    1    2  501    0  0.00000000000E+00  0.00000000000E+00  0.89384185518E+03  0.11061581448E+04  0.65163838076E+03 0.  0.
         13    1    3    3    0    0  0.55400682103E+01 -0.27982011559E+03  0.73009453629E+03  0.78190026306E+03  0.00000000000E+00 0. -1.
          4    1    3    3  501    0 -0.55400682103E+01  0.27982011559E+03  0.16374731888E+03  0.32425788176E+03  0.00000000000E+00 0. -1.
<mgrwt>
<rscale>  0 0.65163838E+03</rscale>
<asrwt>0</asrwt>
<pdfrwt beam="1">0</pdfrwt>
<pdfrwt beam="2">  1        2 0.38603043E+00 0.65163838E+03</pdfrwt>
<totfact> 0.44898291E+00</totfact>
</mgrwt>
</event>
<event>
 5    1  0.2349912E-004  0.7511857E+03  0.7818608E-02  0.9633492E-01
         13   -1    0    0    0    0  0.00000000000E+00  0.00000000000E+00  0.10000000000E+04  0.10000000000E+04  0.00000000000E+00 0. -1.
          2   -1    0    0  501    0 -0.00000000000E+00 -0.00000000000E+00 -0.14107000533E+03  0.14107000533E+03  0.00000000000E+00 0. -1.
    9000006    2    1    2  501    0  0.00000000000E+00  0.00000000000E+00  0.85892999467E+03  0.11410700053E+04  0.75118574354E+03 0.  0.
         13    1    3    3    0    0 -0.35390687043E+03 -0.96635150481E+02  0.55175906712E+03  0.66259074352E+03  0.00000000000E+00 0. -1.
          4    1    3    3  501    0  0.35390687043E+03  0.96635150481E+02  0.30717092755E+03  0.47847926181E+03  0.00000000000E+00 0. -1.
<mgrwt>
<rscale>  0 0.75118574E+03</rscale>
<asrwt>0</asrwt>
<pdfrwt beam="1">0</pdfrwt>
<pdfrwt beam="2">  1        2 0.51298292E+00 0.75118574E+03</pdfrwt>
<totfact> 0.13972466E+00</totfact>
</mgrwt>
</event>
<event>
 5    1  0.2349912E-004  0.6512670E+03  0.7818608E-02  0.9804405E-01
         13   -1    0    0    0    0  0.00000000000E+00  0.00000000000E+00  0.10000000000E+04  0.10000000000E+04  0.00000000000E+00 0. -1.
          2   -1    0    0  501    0 -0.00000000000E+00 -0.00000000000E+00 -0.10603717446E+03  0.10603717446E+03  0.00000000000E+00 0. -1.
    9000006    2    1    2  501    0  0.00000000000E+00  0.00000000000E+00  0.89396282554E+03  0.11060371745E+04  0.65126699429E+03 0.  0.
         13    1    3    3    0    0 -0.99848328169E+01  0.17641484603E+03 -0.17540073510E+02  0.17756561876E+03  0.00000000000E+00 0. -1.
          2    1    3    3  501    0  0.99848328169E+01 -0.17641484603E+03  0.91150289905E+03  0.92847155571E+03  0.00000000000E+00 0. -1.
<mgrwt>
<rscale>  0 0.65126699E+03</rscale>
<asrwt>0</asrwt>
<pdfrwt beam="1">0</pdfrwt>
<pdfrwt beam="2">  1        2 0.38559054E+00 0.65126699E+03</pdfrwt>
<totfact> 0.45068484E+00</totfact>
</mgrwt>
</event>
<event>
 5    1  0.2349912E-004  0.6360101E+03  0.7818608E-02  0.9833390E-01
         13   -1    0    0    0    0  0.00000000000E+00  0.00000000000E+00  0.10000000000E+04  0.10000000000E+04  0.00000000000E+00 0. -1.
          2   -1    0    0  501    0 -0.00000000000E+00 -0.00000000000E+00 -0.10112720160E+03  0.10112720160E+03  0.00000000000E+00 0. -1.
    9000006    2    1    2  501    0  0.00000000000E+00  0.00000000000E+00  0.89887279840E+03  0.11011272016E+04  0.63601006784E+03 0.  0.
         13    1    3    3    0    0 -0.16946364315E+02  0.12550018889E+03  0.95446044961E+03  0.96282512771E+03  0.00000000000E+00 0. -1.
          2    1    3    3  501    0  0.16946364315E+02 -0.12550018889E+03 -0.55587651207E+02  0.13830207389E+03  0.00000000000E+00 0. -1.
<mgrwt>
<rscale>  0 0.63601007E+03</rscale>
<asrwt>0</asrwt>
<pdfrwt beam="1">0</pdfrwt>
<pdfrwt beam="2">  1        2 0.36773605E+00 0.63601007E+03</pdfrwt>
<totfact> 0.52492922E+00</totfact>
</mgrwt>
</event>
<event>
 5    1  0.2349912E-004  0.6522093E+03  0.7818608E-02  0.9802642E-01
         13   -1    0    0    0    0  0.00000000000E+00  0.00000000000E+00  0.10000000000E+04  0.10000000000E+04  0.00000000000E+00 0. -1.
          2   -1    0    0  501    0 -0.00000000000E+00 -0.00000000000E+00 -0.10634423081E+03  0.10634423081E+03  0.00000000000E+00 0. -1.
    9000006    2    1    2  501    0  0.00000000000E+00  0.00000000000E+00  0.89365576919E+03  0.11063442308E+04  0.65220926338E+03 0.  0.
         13    1    3    3    0    0 -0.31689748136E+03  0.38792793413E+02  0.33411197856E+03  0.46212520893E+03  0.00000000000E+00 0. -1.
          4    1    3    3  501    0  0.31689748136E+03 -0.38792793413E+02  0.55954379063E+03  0.64421902188E+03  0.00000000000E+00 0. -1.
<mgrwt>
<rscale>  0 0.65220926E+03</rscale>
<asrwt>0</asrwt>
<pdfrwt beam="1">0</pdfrwt>
<pdfrwt beam="2">  1        2 0.38670711E+00 0.65220926E+03</pdfrwt>
<totfact> 0.44637624E+00</totfact>
</mgrwt>
</event>
<event>
 5    1  0.2349912E-004  0.6427719E+03  0.7818608E-02  0.9820437E-01
         13   -1    0    0    0    0  0.00000000000E+00  0.00000000000E+00  0.10000000000E+04  0.10000000000E+04  0.00000000000E+00 0. -1.
          2   -1    0    0  501    0 -0.00000000000E+00 -0.00000000000E+00 -0.10328893764E+03  0.10328893764E+03  0.00000000000E+00 0. -1.
    9000006    2    1    2  501    0  0.00000000000E+00  0.00000000000E+00  0.89671106236E+03  0.11032889376E+04  0.64277192732E+03 0.  0.
         13    1    3    3    0    0 -0.71918143482E+02 -0.19829510769E+03  0.32152346988E+02  0.21337043495E+03  0.00000000000E+00 0. -1.
          2    1    3    3  501    0  0.71918143482E+02  0.19829510769E+03  0.86455871537E+03  0.88991850269E+03  0.00000000000E+00 0. -1.
<mgrwt>
<rscale>  0 0.64277193E+03</rscale>
<asrwt>0</asrwt>
<pdfrwt beam="1">0</pdfrwt>
<pdfrwt beam="2">  1        2 0.37559693E+00 0.64277193E+03</pdfrwt>
<totfact> 0.49096406E+00</totfact>
</mgrwt>
</event>
<event>
 5    1  0.2349912E-004  0.6446025E+03  0.7818608E-02  0.9816960E-01
         13   -1    0    0    0    0  0.00000000000E+00  0.00000000000E+00  0.10000000000E+04  0.10000000000E+04  0.00000000000E+00 0. -1.
          2   -1    0    0  501    0 -0.00000000000E+00 -0.00000000000E+00 -0.10387810009E+03  0.10387810009E+03  0.00000000000E+00 0. -1.
    9000006    2    1    2  501    0  0.00000000000E+00  0.00000000000E+00  0.89612189991E+03  0.11038781001E+04  0.64460251345E+03 0.  0.
         13    1    3    3    0    0  0.18999275153E+03  0.11328415605E+03  0.46636975222E+02  0.22606537352E+03  0.00000000000E+00 0. -1.
          2    1    3    3  501    0 -0.18999275153E+03 -0.11328415605E+03  0.84948492469E+03  0.87781272657E+03  0.00000000000E+00 0. -1.
<mgrwt>
<rscale>  0 0.64460251E+03</rscale>
<asrwt>0</asrwt>
<pdfrwt beam="1">0</pdfrwt>
<pdfrwt beam="2">  1        2 0.37773934E+00 0.64460251E+03</pdfrwt>
<totfact> 0.48206301E+00</totfact>
</mgrwt>
</event>
<event>
 5    1  0.2349912E-004  0.6312698E+03  0.7818608E-02  0.9842574E-01
         13   -1    0    0    0    0  0.00000000000E+00  0.00000000000E+00  0.10000000000E+04  0.10000000000E+04  0.00000000000E+00 0. -1.
          2   -1    0    0  501    0 -0.00000000000E+00 -0.00000000000E+00 -0.99625398179E+02  0.99625398179E+02  0.00000000000E+00 0. -1.
    9000006    2    1    2  501    0  0.00000000000E+00  0.00000000000E+00  0.90037460182E+03  0.10996253982E+04  0.63126982560E+03 0.  0.
         13    1    3    3    0    0 -0.10274168156E+03  0.29338973023E+03  0.35490519612E+03  0.47179559681E+03  0.00000000000E+00 0. -1.
          4    1    3    3  501    0  0.10274168156E+03 -0.29338973023E+03  0.54546940570E+03  0.62782980137E+03  0.00000000000E+00 0. -1.
<mgrwt>
<rscale>  0 0.63126983E+03</rscale>
<asrwt>0</asrwt>
<pdfrwt beam="1">0</pdfrwt>
<pdfrwt beam="2">  1        2 0.36227494E+00 0.63126983E+03</pdfrwt>
<totfact> 0.54978046E+00</totfact>
</mgrwt>
</event>
<event>
 5    1  0.2349912E-004  0.5207382E+03  0.7818608E-02  0.1008503E+00
         13   -1    0    0    0    0  0.00000000000E+00  0.00000000000E+00  0.10000000000E+04  0.10000000000E+04  0.00000000000E+00 0. -1.
          2   -1    0    0  501    0 -0.00000000000E+00 -0.00000000000E+00 -0.67792062569E+02  0.67792062569E+02  0.00000000000E+00 0. -1.
    9000006    2    1    2  501    0  0.00000000000E+00  0.00000000000E+00  0.93220793743E+03  0.10677920626E+04  0.52073817824E+03 0.  0.
         13    1    3    3    0    0  0.22273596608E+03  0.12388348698E+03  0.57525783377E+03  0.62918995880E+03  0.00000000000E+00 0. -1.
          4    1    3    3  501    0 -0.22273596608E+03 -0.12388348698E+03  0.35695010366E+03  0.43860210377E+03  0.00000000000E+00 0. -1.
<mgrwt>
<rscale>  0 0.52073818E+03</rscale>
<asrwt>0</asrwt>
<pdfrwt beam="1">0</pdfrwt>
<pdfrwt beam="2">  1        2 0.24651711E+00 0.52073818E+03</pdfrwt>
<totfact> 0.14347722E+01</totfact>
</mgrwt>
</event>
<event>
 5    1  0.2349912E-004  0.6513426E+03  0.7818608E-02  0.9804263E-01
         13   -1    0    0    0    0  0.00000000000E+00  0.00000000000E+00  0.10000000000E+04  0.10000000000E+04  0.00000000000E+00 0. -1.
          2   -1    0    0  501    0 -0.00000000000E+00 -0.00000000000E+00 -0.10606178835E+03  0.10606178835E+03  0.00000000000E+00 0. -1.
    9000006    2    1    2  501    0  0.00000000000E+00  0.00000000000E+00  0.89393821165E+03  0.11060617883E+04  0.65134257760E+03 0.  0.
         13    1    3    3    0    0  0.30558274960E+03  0.96783316268E+02  0.54472515227E+03  0.63203901674E+03  0.00000000000E+00 0. -1.
          2    1    3    3  501    0 -0.30558274960E+03 -0.96783316268E+02  0.34921305938E+03  0.47402277161E+03  0.00000000000E+00 0. -1.
<mgrwt>
<rscale>  0 0.65134258E+03</rscale>
<asrwt>0</asrwt>
<pdfrwt beam="1">0</pdfrwt>
<pdfrwt beam="2">  1        2 0.38568004E+00 0.65134258E+03</pdfrwt>
<totfact> 0.45033808E+00</totfact>
</mgrwt>
</event>
<event>
 5    1  0.2349912E-004  0.5811473E+03  0.7818608E-02  0.9945310E-01
         13   -1    0    0    0    0  0.00000000000E+00  0.00000000000E+00  0.10000000000E+04  0.10000000000E+04  0.00000000000E+00 0. -1.
          2   -1    0    0  501    0 -0.00000000000E+00 -0.00000000000E+00 -0.84433049742E+02  0.84433049742E+02  0.00000000000E+00 0. -1.
    9000006    2    1    2  501    0  0.00000000000E+00  0.00000000000E+00  0.91556695026E+03  0.10844330497E+04  0.58114731262E+03 0.  0.
         13    1    3    3    0    0  0.17820593562E+03 -0.20811584738E+03  0.63834921330E+03  0.69466486851E+03  0.00000000000E+00 0. -1.
          2    1    3    3  501    0 -0.17820593562E+03  0.20811584738E+03  0.27721773696E+03  0.38976818124E+03  0.00000000000E+00 0. -1.
<mgrwt>
<rscale>  0 0.58114731E+03</rscale>
<asrwt>0</asrwt>
<pdfrwt beam="1">0</pdfrwt>
<pdfrwt beam="2">  1        2 0.30702992E+00 0.58114731E+03</pdfrwt>
<totfact> 0.87129205E+00</totfact>
</mgrwt>
</event>
<event>
 5    1  0.2349912E-004  0.6366936E+03  0.7818608E-02  0.9832073E-01
         13   -1    0    0    0    0  0.00000000000E+00  0.00000000000E+00  0.10000000000E+04  0.10000000000E+04  0.00000000000E+00 0. -1.
          2   -1    0    0  501    0 -0.00000000000E+00 -0.00000000000E+00 -0.10134467272E+03  0.10134467272E+03  0.00000000000E+00 0. -1.
    9000006    2    1    2  501    0  0.00000000000E+00  0.00000000000E+00  0.89865532728E+03  0.11013446727E+04  0.63669356121E+03 0.  0.
         13    1    3    3    0    0 -0.12593322986E+02 -0.18047981521E+03  0.90243007436E+03  0.92038665494E+03  0.00000000000E+00 0. -1.
          4    1    3    3  501    0  0.12593322986E+02  0.18047981521E+03 -0.37747470836E+01  0.18095801778E+03  0.00000000000E+00 0. -1.
<mgrwt>
<rscale>  0 0.63669356E+03</rscale>
<asrwt>0</asrwt>
<pdfrwt beam="1">0</pdfrwt>
<pdfrwt beam="2">  1        2 0.36852686E+00 0.63669356E+03</pdfrwt>
<totfact> 0.52141745E+00</totfact>
</mgrwt>
</event>
<event>
 5    1  0.2349912E-004  0.6451115E+03  0.7818608E-02  0.9815996E-01
         13   -1    0    0    0    0  0.00000000000E+00  0.00000000000E+00  0.10000000000E+04  0.10000000000E+04  0.00000000000E+00 0. -1.
          2   -1    0    0  501    0 -0.00000000000E+00 -0.00000000000E+00 -0.10404222135E+03  0.10404222135E+03  0.00000000000E+00 0. -1.
    9000006    2    1    2  501    0  0.00000000000E+00  0.00000000000E+00  0.89595777865E+03  0.11040422214E+04  0.64511152944E+03 0.  0.
         13    1    3    3    0    0 -0.44021072346E+00  0.12328636847E+03  0.95808586367E+03  0.96598563374E+03  0.00000000000E+00 0. -1.
          2    1    3    3  501    0  0.44021072346E+00 -0.12328636847E+03 -0.62128085018E+02  0.13805658761E+03  0.00000000000E+00 0. -1.
<mgrwt>
<rscale>  0 0.64511153E+03</rscale>
<asrwt>0</asrwt>
<pdfrwt beam="1">0</pdfrwt>
<pdfrwt beam="2">  1        2 0.37833615E+00 0.64511153E+03</pdfrwt>
<totfact> 0.47960982E+00</totfact>
</mgrwt>
</event>
<event>
 5    1  0.2349912E-004  0.6525576E+03  0.7818608E-02  0.9801992E-01
         13   -1    0    0    0    0  0.00000000000E+00  0.00000000000E+00  0.10000000000E+04  0.10000000000E+04  0.00000000000E+00 0. -1.
          2   -1    0    0  501    0 -0.00000000000E+00 -0.00000000000E+00 -0.10645786461E+03  0.10645786461E+03  0.00000000000E+00 0. -1.
    9000006    2    1    2  501    0  0.00000000000E+00  0.00000000000E+00  0.89354213539E+03  0.11064578646E+04  0.65255762843E+03 0.  0.
         13    1    3    3    0    0 -0.15330721674E+03  0.35981231857E+02 -0.37759295055E+02  0.16193676579E+03  0.00000000000E+00 0. -1.
          2    1    3    3  501    0  0.15330721674E+03 -0.35981231857E+02  0.93130143045E+03  0.94452109882E+03  0.00000000000E+00 0. -1.
<mgrwt>
<rscale>  0 0.65255763E+03</rscale>
<asrwt>0</asrwt>
<pdfrwt beam="1">0</pdfrwt>
<pdfrwt beam="2">  1        2 0.38712032E+00 0.65255763E+03</pdfrwt>
<totfact> 0.44479121E+00</totfact>
</mgrwt>
</event>
<event>
 5    1  0.2349912E-004  0.6621275E+03  0.7818608E-02  0.9784285E-01
         13   -1    0    0    0    0  0.00000000000E+00  0.00000000000E+00  0.10000000000E+04  0.10000000000E+04  0.00000000000E+00 0. -1.
          2   -1    0    0  501    0 -0.00000000000E+00 -0.00000000000E+00 -0.10960319933E+03  0.10960319933E+03  0.00000000000E+00 0. -1.
    9000006    2    1    2  501    0  0.00000000000E+00  0.00000000000E+00  0.89039680067E+03  0.11096031993E+04  0.66212747815E+03 0.  0.
         13    1    3    3    0    0  0.13990320616E+03  0.25657260933E+02  0.94618582012E+03  0.95681701925E+03  0.00000000000E+00 0. -1.
          2    1    3    3  501    0 -0.13990320616E+03 -0.25657260933E+02 -0.55789019450E+02  0.15278618008E+03  0.00000000000E+00 0. -1.
<mgrwt>
<rscale>  0 0.66212748E+03</rscale>
<asrwt>0</asrwt>
<pdfrwt beam="1">0</pdfrwt>
<pdfrwt beam="2">  1        2 0.39855793E+00 0.66212748E+03</pdfrwt>
<totfact> 0.40288792E+00</totfact>
</mgrwt>
</event>
<event>
 5    1  0.2349912E-004  0.6450941E+03  0.7818608E-02  0.9816029E-01
         13   -1    0    0    0    0  0.00000000000E+00  0.00000000000E+00  0.10000000000E+04  0.10000000000E+04  0.00000000000E+00 0. -1.
          2   -1    0    0  501    0 -0.00000000000E+00 -0.00000000000E+00 -0.10403658498E+03  0.10403658498E+03  0.00000000000E+00 0. -1.
    9000006    2    1    2  501    0  0.00000000000E+00  0.00000000000E+00  0.89596341502E+03  0.11040365850E+04  0.64509405511E+03 0.  0.
         13    1    3    3    0    0  0.18254643186E+03  0.21118468653E+03  0.72454883728E+03  0.77646196894E+03  0.00000000000E+00 0. -1.
          2    1    3    3  501    0 -0.18254643186E+03 -0.21118468653E+03  0.17141457774E+03  0.32757461604E+03  0.00000000000E+00 0. -1.
<mgrwt>
<rscale>  0 0.64509406E+03</rscale>
<asrwt>0</asrwt>
<pdfrwt beam="1">0</pdfrwt>
<pdfrwt beam="2">  1        2 0.37831565E+00 0.64509406E+03</pdfrwt>
<totfact> 0.47969388E+00</totfact>
</mgrwt>
</event>
<event>
 5    1  0.2349912E-004  0.6353959E+03  0.7818608E-02  0.9834575E-01
         13   -1    0    0    0    0  0.00000000000E+00  0.00000000000E+00  0.10000000000E+04  0.10000000000E+04  0.00000000000E+00 0. -1.
          2   -1    0    0  501    0 -0.00000000000E+00 -0.00000000000E+00 -0.10093199793E+03  0.10093199793E+03  0.00000000000E+00 0. -1.
    9000006    2    1    2  501    0  0.00000000000E+00  0.00000000000E+00  0.89906800207E+03  0.11009319979E+04  0.63539593302E+03 0.  0.
         13    1    3    3    0    0 -0.10686914065E+03 -0.34924215116E+02  0.96437719963E+03  0.97090890263E+03  0.00000000000E+00 0. -1.
          2    1    3    3  501    0  0.10686914065E+03  0.34924215116E+02 -0.65309197560E+02  0.13002309530E+03  0.00000000000E+00 0. -1.
<mgrwt>
<rscale>  0 0.63539593E+03</rscale>
<asrwt>0</asrwt>
<pdfrwt beam="1">0</pdfrwt>
<pdfrwt beam="2">  1        2 0.36702622E+00 0.63539593E+03</pdfrwt>
<totfact> 0.52809990E+00</totfact>
</mgrwt>
</event>
<event>
 5    1  0.2349912E-004  0.6508852E+03  0.7818608E-02  0.9805120E-01
         13   -1    0    0    0    0  0.00000000000E+00  0.00000000000E+00  0.10000000000E+04  0.10000000000E+04  0.00000000000E+00 0. -1.
          2   -1    0    0  501    0 -0.00000000000E+00 -0.00000000000E+00 -0.10591287920E+03  0.10591287920E+03  0.00000000000E+00 0. -1.
    9000006    2    1    2  501    0  0.00000000000E+00  0.00000000000E+00  0.89408712080E+03  0.11059128792E+04  0.65088517944E+03 0.  0.
         13    1    3    3    0    0  0.24426485766E+03 -0.15824762876E+03  0.69446549348E+03  0.75298735336E+03  0.00000000000E+00 0. -1.
          2    1    3    3  501    0 -0.24426485766E+03  0.15824762876E+03  0.19962162732E+03  0.35292552584E+03  0.00000000000E+00 0. -1.
<mgrwt>
<rscale>  0 0.65088518E+03</rscale>
<asrwt>0</asrwt>
<pdfrwt beam="1">0</pdfrwt>
<pdfrwt beam="2">  1        2 0.38513855E+00 0.65088518E+03</pdfrwt>
<totfact> 0.45243964E+00</totfact>
</mgrwt>
</event>
<event>
 5    1  0.2349912E-004  0.6503130E+03  0.7818608E-02  0.9806192E-01
         13   -1    0    0    0    0  0.00000000000E+00  0.00000000000E+00  0.10000000000E+04  0.10000000000E+04  0.00000000000E+00 0. -1.
          2   -1    0    0  501    0 -0.00000000000E+00 -0.00000000000E+00 -0.10572676417E+03  0.10572676417E+03  0.00000000000E+00 0. -1.
    9000006    2    1    2  501    0  0.00000000000E+00  0.00000000000E+00  0.89427323583E+03  0.11057267642E+04  0.65031304513E+03 0.  0.
         13    1    3    3    0    0  0.11441084755E+03 -0.13302035695E+03  0.91260422601E+03  0.92931734662E+03  0.00000000000E+00 0. -1.
          2    1    3    3  501    0 -0.11441084755E+03  0.13302035695E+03 -0.18330990176E+02  0.17640941755E+03  0.00000000000E+00 0. -1.
<mgrwt>
<rscale>  0 0.65031305E+03</rscale>
<asrwt>0</asrwt>
<pdfrwt beam="1">0</pdfrwt>
<pdfrwt beam="2">  1        2 0.38446177E+00 0.65031305E+03</pdfrwt>
<totfact> 0.45507879E+00</totfact>
</mgrwt>
</event>
<event>
 5    1  0.2349912E-004  0.5208424E+03  0.7818608E-02  0.1008478E+00
         13   -1    0    0    0    0  0.00000000000E+00  0.00000000000E+00  0.10000000000E+04  0.10000000000E+04  0.00000000000E+00 0. -1.
          2   -1    0    0  501    0 -0.00000000000E+00 -0.00000000000E+00 -0.67819194485E+02  0.67819194485E+02  0.00000000000E+00 0. -1.
    9000006    2    1    2  501    0  0.00000000000E+00  0.00000000000E+00  0.93218080551E+03  0.10678191945E+04  0.52084237341E+03 0.  0.
         13    1    3    3    0    0  0.79623024665E+02  0.24738036177E+03  0.50053856940E+03  0.56398202888E+03  0.00000000000E+00 0. -1.
          4    1    3    3  501    0 -0.79623024665E+02 -0.24738036177E+03  0.43164223611E+03  0.50383716560E+03  0.00000000000E+00 0. -1.
<mgrwt>
<rscale>  0 0.52084237E+03</rscale>
<asrwt>0</asrwt>
<pdfrwt beam="1">0</pdfrwt>
<pdfrwt beam="2">  1        2 0.24661577E+00 0.52084237E+03</pdfrwt>
<totfact> 0.14335987E+01</totfact>
</mgrwt>
</event>
<event>
 5    1  0.2349912E-004  0.6464953E+03  0.7818608E-02  0.9813378E-01
         13   -1    0    0    0    0  0.00000000000E+00  0.00000000000E+00  0.10000000000E+04  0.10000000000E+04  0.00000000000E+00 0. -1.
          2   -1    0    0  501    0 -0.00000000000E+00 -0.00000000000E+00 -0.10448905608E+03  0.10448905608E+03  0.00000000000E+00 0. -1.
    9000006    2    1    2  501    0  0.00000000000E+00  0.00000000000E+00  0.89551094392E+03  0.11044890561E+04  0.64649533976E+03 0.  0.
         13    1    3    3    0    0  0.10099724568E+03  0.19373220953E+02  0.97130714011E+03  0.97673605736E+03  0.00000000000E+00 0. -1.
          4    1    3    3  501    0 -0.10099724568E+03 -0.19373220953E+02 -0.75796196188E+02  0.12775299872E+03  0.00000000000E+00 0. -1.
<mgrwt>
<rscale>  0 0.64649534E+03</rscale>
<asrwt>0</asrwt>
<pdfrwt beam="1">0</pdfrwt>
<pdfrwt beam="2">  1        2 0.37996101E+00 0.64649534E+03</pdfrwt>
<totfact> 0.47298831E+00</totfact>
</mgrwt>
</event>
<event>
 5    1  0.2349912E-004  0.6392221E+03  0.7818608E-02  0.9827216E-01
         13   -1    0    0    0    0  0.00000000000E+00  0.00000000000E+00  0.10000000000E+04  0.10000000000E+04  0.00000000000E+00 0. -1.
          2   -1    0    0  501    0 -0.00000000000E+00 -0.00000000000E+00 -0.10215123245E+03  0.10215123245E+03  0.00000000000E+00 0. -1.
    9000006    2    1    2  501    0  0.00000000000E+00  0.00000000000E+00  0.89784876755E+03  0.11021512325E+04  0.63922212868E+03 0.  0.
         13    1    3    3    0    0 -0.22429563779E+03 -0.20508247581E+03  0.61947170065E+03  0.69000908902E+03  0.00000000000E+00 0. -1.
          2    1    3    3  501    0  0.22429563779E+03  0.20508247581E+03  0.27837706690E+03  0.41214214343E+03  0.00000000000E+00 0. -1.
<mgrwt>
<rscale>  0 0.63922213E+03</rscale>
<asrwt>0</asrwt>
<pdfrwt beam="1">0</pdfrwt>
<pdfrwt beam="2">  1        2 0.37145981E+00 0.63922213E+03</pdfrwt>
<totfact> 0.50858024E+00</totfact>
</mgrwt>
</event>
<event>
 5    1  0.2349912E-004  0.6484479E+03  0.7818608E-02  0.9809696E-01
         13   -1    0    0    0    0  0.00000000000E+00  0.00000000000E+00  0.10000000000E+04  0.10000000000E+04  0.00000000000E+00 0. -1.
          2   -1    0    0  501    0 -0.00000000000E+00 -0.00000000000E+00 -0.10512116416E+03  0.10512116416E+03  0.00000000000E+00 0. -1.
    9000006    2    1    2  501    0  0.00000000000E+00  0.00000000000E+00  0.89487883584E+03  0.11051211642E+04  0.64844788275E+03 0.  0.
         13    1    3    3    0    0 -0.99703050020E+02  0.13314027123E+03 -0.26864946888E+02  0.16848962988E+03  0.00000000000E+00 0. -1.
          2    1    3    3  501    0  0.99703050020E+02 -0.13314027123E+03  0.92174378273E+03  0.93663153428E+03  0.00000000000E+00 0. -1.
<mgrwt>
<rscale>  0 0.64844788E+03</rscale>
<asrwt>0</asrwt>
<pdfrwt beam="1">0</pdfrwt>
<pdfrwt beam="2">  1        2 0.38225958E+00 0.64844788E+03</pdfrwt>
<totfact> 0.46376330E+00</totfact>
</mgrwt>
</event>
<event>
 5    1  0.2349912E-004  0.6507449E+03  0.7818608E-02  0.9805382E-01
         13   -1    0    0    0    0  0.00000000000E+00  0.00000000000E+00  0.10000000000E+04  0.10000000000E+04  0.00000000000E+00 0. -1.
          2   -1    0    0  501    0 -0.00000000000E+00 -0.00000000000E+00 -0.10586722676E+03  0.10586722676E+03  0.00000000000E+00 0. -1.
    9000006    2    1    2  501    0  0.00000000000E+00  0.00000000000E+00  0.89413277324E+03  0.11058672268E+04  0.65074488629E+03 0.  0.
         13    1    3    3    0    0 -0.26333983467E+03  0.11563951228E+03  0.70561265829E+03  0.76197742018E+03  0.00000000000E+00 0. -1.
          2    1    3    3  501    0  0.26333983467E+03 -0.11563951228E+03  0.18852011495E+03  0.34388980658E+03  0.00000000000E+00 0. -1.
<mgrwt>
<rscale>  0 0.65074489E+03</rscale>
<asrwt>0</asrwt>
<pdfrwt beam="1">0</pdfrwt>
<pdfrwt beam="2">  1        2 0.38497255E+00 0.65074489E+03</pdfrwt>
<totfact> 0.45308571E+00</totfact>
</mgrwt>
</event>
<event>
 5    1  0.2349912E-004  0.6450027E+03  0.7818608E-02  0.9816202E-01
         13   -1    0    0    0    0  0.00000000000E+00  0.00000000000E+00  0.10000000000E+04  0.10000000000E+04  0.00000000000E+00 0. -1.
          2   -1    0    0  501    0 -0.00000000000E+00 -0.00000000000E+00 -0.10400712833E+03  0.10400712833E+03  0.00000000000E+00 0. -1.
    9000006    2    1    2  501    0  0.00000000000E+00  0.00000000000E+00  0.89599287167E+03  0.11040071283E+04  0.64500272350E+03 0.  0.
         13    1    3    3    0    0  0.19282196317E+03 -0.25390225711E+03  0.36483750469E+03  0.48451323044E+03  0.00000000000E+00 0. -1.
          2    1    3    3  501    0 -0.19282196317E+03  0.25390225711E+03  0.53115536698E+03  0.61949389789E+03  0.00000000000E+00 0. -1.
<mgrwt>
<rscale>  0 0.64500272E+03</rscale>
<asrwt>0</asrwt>
<pdfrwt beam="1">0</pdfrwt>
<pdfrwt beam="2">  1        2 0.37820854E+00 0.64500272E+03</pdfrwt>
<totfact> 0.48013341E+00</totfact>
</mgrwt>
</event>
<event>
 5    1  0.2349912E-004  0.6758888E+03  0.7818608E-02  0.9759378E-01
         13   -1    0    0    0    0  0.00000000000E+00  0.00000000000E+00  0.10000000000E+04  0.10000000000E+04  0.00000000000E+00 0. -1.
          2   -1    0    0  501    0 -0.00000000000E+00 -0.00000000000E+00 -0.11420642836E+03  0.11420642836E+03  0.00000000000E+00 0. -1.
    9000006    2    1    2  501    0  0.00000000000E+00  0.00000000000E+00  0.88579357164E+03  0.11142064284E+04  0.67588883216E+03 0.  0.
         13    1    3    3    0    0  0.27770017844E+03  0.40433079974E+02  0.13249496028E+03  0.31033391301E+03  0.00000000000E+00 0. -1.
          4    1    3    3  501    0 -0.27770017844E+03 -0.40433079974E+02  0.75329861136E+03  0.80387251535E+03  0.00000000000E+00 0. -1.
<mgrwt>
<rscale>  0 0.67588883E+03</rscale>
<asrwt>0</asrwt>
<pdfrwt beam="1">0</pdfrwt>
<pdfrwt beam="2">  1        2 0.41529698E+00 0.67588883E+03</pdfrwt>
<totfact> 0.34794022E+00</totfact>
</mgrwt>
</event>
<event>
 5    1  0.2349912E-004  0.6387299E+03  0.7818608E-02  0.9828160E-01
         13   -1    0    0    0    0  0.00000000000E+00  0.00000000000E+00  0.10000000000E+04  0.10000000000E+04  0.00000000000E+00 0. -1.
          2   -1    0    0  501    0 -0.00000000000E+00 -0.00000000000E+00 -0.10199396133E+03  0.10199396133E+03  0.00000000000E+00 0. -1.
    9000006    2    1    2  501    0  0.00000000000E+00  0.00000000000E+00  0.89800603867E+03  0.11019939613E+04  0.63872986882E+03 0.  0.
         13    1    3    3    0    0  0.46117359845E+02 -0.29887520367E+03  0.27187061594E+03  0.40665320613E+03  0.00000000000E+00 0. -1.
          2    1    3    3  501    0 -0.46117359845E+02  0.29887520367E+03  0.62613542273E+03  0.69534075520E+03  0.00000000000E+00 0. -1.
<mgrwt>
<rscale>  0 0.63872987E+03</rscale>
<asrwt>0</asrwt>
<pdfrwt beam="1">0</pdfrwt>
<pdfrwt beam="2">  1        2 0.37088791E+00 0.63872987E+03</pdfrwt>
<totfact> 0.51106041E+00</totfact>
</mgrwt>
</event>
<event>
 5    1  0.2349912E-004  0.6442541E+03  0.7818608E-02  0.9817621E-01
         13   -1    0    0    0    0  0.00000000000E+00  0.00000000000E+00  0.10000000000E+04  0.10000000000E+04  0.00000000000E+00 0. -1.
          2   -1    0    0  501    0 -0.00000000000E+00 -0.00000000000E+00 -0.10376584189E+03  0.10376584189E+03  0.00000000000E+00 0. -1.
    9000006    2    1    2  501    0  0.00000000000E+00  0.00000000000E+00  0.89623415811E+03  0.11037658419E+04  0.64425411721E+03 0.  0.
         13    1    3    3    0    0 -0.27516565463E+03 -0.13092308627E+03  0.26917633870E+03  0.40658688287E+03  0.00000000000E+00 0. -1.
          2    1    3    3  501    0  0.27516565463E+03  0.13092308627E+03  0.62705781941E+03  0.69717895901E+03  0.00000000000E+00 0. -1.
<mgrwt>
<rscale>  0 0.64425412E+03</rscale>
<asrwt>0</asrwt>
<pdfrwt beam="1">0</pdfrwt>
<pdfrwt beam="2">  1        2 0.37733113E+00 0.64425412E+03</pdfrwt>
<totfact> 0.48374757E+00</totfact>
</mgrwt>
</event>
<event>
 5    1  0.2349912E-004  0.6502052E+03  0.7818608E-02  0.9806394E-01
         13   -1    0    0    0    0  0.00000000000E+00  0.00000000000E+00  0.10000000000E+04  0.10000000000E+04  0.00000000000E+00 0. -1.
          2   -1    0    0  501    0 -0.00000000000E+00 -0.00000000000E+00 -0.10569171217E+03  0.10569171217E+03  0.00000000000E+00 0. -1.
    9000006    2    1    2  501    0  0.00000000000E+00  0.00000000000E+00  0.89430828783E+03  0.11056917122E+04  0.65020523582E+03 0.  0.
         13    1    3    3    0    0  0.29653945784E+03  0.12457183139E+03  0.36670786470E+03  0.48777909884E+03  0.00000000000E+00 0. -1.
          4    1    3    3  501    0 -0.29653945784E+03 -0.12457183139E+03  0.52760042313E+03  0.61791261333E+03  0.00000000000E+00 0. -1.
<mgrwt>
<rscale>  0 0.65020524E+03</rscale>
<asrwt>0</asrwt>
<pdfrwt beam="1">0</pdfrwt>
<pdfrwt beam="2">  1        2 0.38433431E+00 0.65020524E+03</pdfrwt>
<totfact> 0.45557739E+00</totfact>
</mgrwt>
</event>
<event>
 5    1  0.2349912E-004  0.6544108E+03  0.7818608E-02  0.9798538E-01
         13   -1    0    0    0    0  0.00000000000E+00  0.00000000000E+00  0.10000000000E+04  0.10000000000E+04  0.00000000000E+00 0. -1.
          2   -1    0    0  501    0 -0.00000000000E+00 -0.00000000000E+00 -0.10706337321E+03  0.10706337321E+03  0.00000000000E+00 0. -1.
    9000006    2    1    2  501    0  0.00000000000E+00  0.00000000000E+00  0.89293662679E+03  0.11070633732E+04  0.65441079822E+03 0.  0.
         13    1    3    3    0    0 -0.16598746027E+03 -0.16900707423E+03  0.82831252734E+03  0.86152009324E+03  0.00000000000E+00 0. -1.
          4    1    3    3  501    0  0.16598746027E+03  0.16900707423E+03  0.64624099449E+02  0.24554327997E+03  0.00000000000E+00 0. -1.
<mgrwt>
<rscale>  0 0.65441080E+03</rscale>
<asrwt>0</asrwt>
<pdfrwt beam="1">0</pdfrwt>
<pdfrwt beam="2">  1        2 0.38932218E+00 0.65441080E+03</pdfrwt>
<totfact> 0.43643083E+00</totfact>
</mgrwt>
</event>
<event>
 5    1  0.2349912E-004  0.6423842E+03  0.7818608E-02  0.9821176E-01
         13   -1    0    0    0    0  0.00000000000E+00  0.00000000000E+00  0.10000000000E+04  0.10000000000E+04  0.00000000000E+00 0. -1.
          2   -1    0    0  501    0 -0.00000000000E+00 -0.00000000000E+00 -0.10316435356E+03  0.10316435356E+03  0.00000000000E+00 0. -1.
    9000006    2    1    2  501    0  0.00000000000E+00  0.00000000000E+00  0.89683564644E+03  0.11031643536E+04  0.64238416405E+03 0.  0.
         13    1    3    3    0    0  0.74097001929E+02 -0.14988344303E+03  0.91937360357E+03  0.93445344193E+03  0.00000000000E+00 0. -1.
          2    1    3    3  501    0 -0.74097001929E+02  0.14988344303E+03 -0.22537957127E+02  0.16871091163E+03  0.00000000000E+00 0. -1.
<mgrwt>
<rscale>  0 0.64238416E+03</rscale>
<asrwt>0</asrwt>
<pdfrwt beam="1">0</pdfrwt>
<pdfrwt beam="2">  1        2 0.37514389E+00 0.64238416E+03</pdfrwt>
<totfact> 0.49286552E+00</totfact>
</mgrwt>
</event>
<event>
 5    1  0.2349912E-004  0.6542748E+03  0.7818608E-02  0.9798791E-01
         13   -1    0    0    0    0  0.00000000000E+00  0.00000000000E+00  0.10000000000E+04  0.10000000000E+04  0.00000000000E+00 0. -1.
          2   -1    0    0  501    0 -0.00000000000E+00 -0.00000000000E+00 -0.10701886545E+03  0.10701886545E+03  0.00000000000E+00 0. -1.
    9000006    2    1    2  501    0  0.00000000000E+00  0.00000000000E+00  0.89298113455E+03  0.11070188654E+04  0.65427476017E+03 0.  0.
         13    1    3    3    0    0 -0.14661451328E+03 -0.86142649249E+01  0.94108355187E+03  0.95247481472E+03  0.00000000000E+00 0. -1.
          2    1    3    3  501    0  0.14661451328E+03  0.86142649249E+01 -0.48102417322E+02  0.15454405073E+03  0.00000000000E+00 0. -1.
<mgrwt>
<rscale>  0 0.65427476E+03</rscale>
<asrwt>0</asrwt>
<pdfrwt beam="1">0</pdfrwt>
<pdfrwt beam="2">  1        2 0.38916033E+00 0.65427476E+03</pdfrwt>
<totfact> 0.43704048E+00</totfact>
</mgrwt>
</event>
<event>
 5    1  0.2349912E-004  0.6453839E+03  0.7818608E-02  0.9815480E-01
         13   -1    0    0    0    0  0.00000000000E+00  0.00000000000E+00  0.10000000000E+04  0.10000000000E+04  0.00000000000E+00 0. -1.
          2   -1    0    0  501    0 -0.00000000000E+00 -0.00000000000E+00 -0.10413009265E+03  0.10413009265E+03  0.00000000000E+00 0. -1.
    9000006    2    1    2  501    0  0.00000000000E+00  0.00000000000E+00  0.89586990735E+03  0.11041300927E+04  0.64538389397E+03 0.  0.
         13    1    3    3    0    0 -0.89054991971E+02  0.30174848684E+03  0.57067480969E+03  0.65165380328E+03  0.00000000000E+00 0. -1.
          2    1    3    3  501    0  0.89054991971E+02 -0.30174848684E+03  0.32519509766E+03  0.45247628937E+03  0.00000000000E+00 0. -1.
<mgrwt>
<rscale>  0 0.64538389E+03</rscale>
<asrwt>0</asrwt>
<pdfrwt beam="1">0</pdfrwt>
<pdfrwt beam="2">  1        2 0.37865568E+00 0.64538389E+03</pdfrwt>
<totfact> 0.47830105E+00</totfact>
</mgrwt>
</event>
<event>
 5    1  0.2349912E-004  0.6320492E+03  0.7818608E-02  0.9841058E-01
         13   -1    0    0    0    0  0.00000000000E+00  0.00000000000E+00  0.10000000000E+04  0.10000000000E+04  0.00000000000E+00 0. -1.
          2   -1    0    0  501    0 -0.00000000000E+00 -0.00000000000E+00 -0.99871532486E+02  0.99871532486E+02  0.00000000000E+00 0. -1.
    9000006    2    1    2  501    0  0.00000000000E+00  0.00000000000E+00  0.90012846751E+03  0.10998715325E+04  0.63204915153E+03 0.  0.
         13    1    3    3    0    0 -0.29221527797E+03 -0.76218772298E+02  0.28800927467E+03  0.41731092991E+03  0.00000000000E+00 0. -1.
          2    1    3    3  501    0  0.29221527797E+03  0.76218772298E+02  0.61211919285E+03  0.68256060257E+03  0.00000000000E+00 0. -1.
<mgrwt>
<rscale>  0 0.63204915E+03</rscale>
<asrwt>0</asrwt>
<pdfrwt beam="1">0</pdfrwt>
<pdfrwt beam="2">  1        2 0.36316997E+00 0.63204915E+03</pdfrwt>
<totfact> 0.54563472E+00</totfact>
</mgrwt>
</event>
<event>
 5    1  0.2349912E-004  0.6597324E+03  0.7818608E-02  0.9788686E-01
         13   -1    0    0    0    0  0.00000000000E+00  0.00000000000E+00  0.10000000000E+04  0.10000000000E+04  0.00000000000E+00 0. -1.
          2   -1    0    0  501    0 -0.00000000000E+00 -0.00000000000E+00 -0.10881171940E+03  0.10881171940E+03  0.00000000000E+00 0. -1.
    9000006    2    1    2  501    0  0.00000000000E+00  0.00000000000E+00  0.89118828060E+03  0.11088117194E+04  0.65973242879E+03 0.  0.
         13    1    3    3    0    0  0.15855496108E+03  0.14941348802E+03  0.29310874801E+02  0.21982537039E+03  0.00000000000E+00 0. -1.
          2    1    3    3  501    0 -0.15855496108E+03 -0.14941348802E+03  0.86187740580E+03  0.88898634901E+03  0.00000000000E+00 0. -1.
<mgrwt>
<rscale>  0 0.65973243E+03</rscale>
<asrwt>0</asrwt>
<pdfrwt beam="1">0</pdfrwt>
<pdfrwt beam="2">  1        2 0.39567981E+00 0.65973243E+03</pdfrwt>
<totfact> 0.41308215E+00</totfact>
</mgrwt>
</event>
<event>
 5    1  0.2349912E-004  0.6433275E+03  0.7818608E-02  0.9819381E-01
         13   -1    0    0    0    0  0.00000000000E+00  0.00000000000E+00  0.10000000000E+04  0.10000000000E+04  0.00000000000E+00 0. -1.
          2   -1    0    0  501    0 -0.00000000000E+00 -0.00000000000E+00 -0.10346756073E+03  0.10346756073E+03  0.00000000000E+00 0. -1.
    9000006    2    1    2  501    0  0.00000000000E+00  0.00000000000E+00  0.89653243927E+03  0.11034675607E+04  0.64332747719E+03 0.  0.
         13    1    3    3    0    0  0.54566504257E+02  0.18549658603E+03  0.88919253143E+03  0.90997244176E+03  0.00000000000E+00 0. -1.
          4    1    3    3  501    0 -0.54566504257E+02 -0.18549658603E+03  0.73399078414E+01  0.19349511896E+03  0.00000000000E+00 0. -1.
<mgrwt>
<rscale>  0 0.64332748E+03</rscale>
<asrwt>0</asrwt>
<pdfrwt beam="1">0</pdfrwt>
<pdfrwt beam="2">  1        2 0.37624647E+00 0.64332748E+03</pdfrwt>
<totfact> 0.48824972E+00</totfact>
</mgrwt>
</event>
<event>
 5    1  0.2349912E-004  0.6277596E+03  0.7818608E-02  0.9849431E-01
         13   -1    0    0    0    0  0.00000000000E+00  0.00000000000E+00  0.10000000000E+04  0.10000000000E+04  0.00000000000E+00 0. -1.
          2   -1    0    0  501    0 -0.00000000000E+00 -0.00000000000E+00 -0.98520523375E+02  0.98520523375E+02  0.00000000000E+00 0. -1.
    9000006    2    1    2  501    0  0.00000000000E+00  0.00000000000E+00  0.90147947663E+03  0.10985205234E+04  0.62775958256E+03 0.  0.
         13    1    3    3    0    0  0.27471545502E+03  0.10781082585E+03  0.26366526454E+03  0.39574123758E+03  0.00000000000E+00 0. -1.
          4    1    3    3  501    0 -0.27471545502E+03 -0.10781082585E+03  0.63781421209E+03  0.70277928579E+03  0.00000000000E+00 0. -1.
<mgrwt>
<rscale>  0 0.62775958E+03</rscale>
<asrwt>0</asrwt>
<pdfrwt beam="1">0</pdfrwt>
<pdfrwt beam="2">  1        2 0.35825720E+00 0.62775958E+03</pdfrwt>
<totfact> 0.56875096E+00</totfact>
</mgrwt>
</event>
<event>
 5    1  0.2349912E-004  0.6347009E+03  0.7818608E-02  0.9835918E-01
         13   -1    0    0    0    0  0.00000000000E+00  0.00000000000E+00  0.10000000000E+04  0.10000000000E+04  0.00000000000E+00 0. -1.
          2   -1    0    0  501    0 -0.00000000000E+00 -0.00000000000E+00 -0.10071130220E+03  0.10071130220E+03  0.00000000000E+00 0. -1.
    9000006    2    1    2  501    0  0.00000000000E+00  0.00000000000E+00  0.89928869780E+03  0.11007113022E+04  0.63470088135E+03 0.  0.
         13    1    3    3    0    0 -0.24937859536E+02 -0.27322144930E+03  0.72624814794E+03  0.77634285569E+03  0.00000000000E+00 0. -1.
          2    1    3    3  501    0  0.24937859536E+02  0.27322144930E+03  0.17304054986E+03  0.32436844651E+03  0.00000000000E+00 0. -1.
<mgrwt>
<rscale>  0 0.63470088E+03</rscale>
<asrwt>0</asrwt>
<pdfrwt beam="1">0</pdfrwt>
<pdfrwt beam="2">  1        2 0.36622369E+00 0.63470088E+03</pdfrwt>
<totfact> 0.53170582E+00</totfact>
</mgrwt>
</event>
<event>
 5    1  0.2349912E-004  0.6395781E+03  0.7818608E-02  0.9826534E-01
         13   -1    0    0    0    0  0.00000000000E+00  0.00000000000E+00  0.10000000000E+04  0.10000000000E+04  0.00000000000E+00 0. -1.
          2   -1    0    0  501    0 -0.00000000000E+00 -0.00000000000E+00 -0.10226505188E+03  0.10226505188E+03  0.00000000000E+00 0. -1.
    9000006    2    1    2  501    0  0.00000000000E+00  0.00000000000E+00  0.89773494812E+03  0.11022650519E+04  0.63957814808E+03 0.  0.
         13    1    3    3    0    0 -0.20138813278E+03  0.19532493786E+03  0.18435657782E+03  0.33570278397E+03  0.00000000000E+00 0. -1.
          4    1    3    3  501    0  0.20138813278E+03 -0.19532493786E+03  0.71337837030E+03  0.76656226791E+03  0.00000000000E+00 0. -1.
<mgrwt>
<rscale>  0 0.63957815E+03</rscale>
<asrwt>0</asrwt>
<pdfrwt beam="1">0</pdfrwt>
<pdfrwt beam="2">  1        2 0.37187370E+00 0.63957815E+03</pdfrwt>
<totfact> 0.50679220E+00</totfact>
</mgrwt>
</event>
<event>
 5    1  0.2349912E-004  0.6291181E+03  0.7818608E-02  0.9846771E-01
         13   -1    0    0    0    0  0.00000000000E+00  0.00000000000E+00  0.10000000000E+04  0.10000000000E+04  0.00000000000E+00 0. -1.
          2   -1    0    0  501    0 -0.00000000000E+00 -0.00000000000E+00 -0.98947386770E+02  0.98947386770E+02  0.00000000000E+00 0. -1.
    9000006    2    1    2  501    0  0.00000000000E+00  0.00000000000E+00  0.90105261323E+03  0.10989473868E+04  0.62911807086E+03 0.  0.
         13    1    3    3    0    0 -0.26207441441E+03  0.13593801789E+03  0.26089326181E+03  0.39398913367E+03  0.00000000000E+00 0. -1.
          4    1    3    3  501    0  0.26207441441E+03 -0.13593801789E+03  0.64015935142E+03  0.70495825310E+03  0.00000000000E+00 0. -1.
<mgrwt>
<rscale>  0 0.62911807E+03</rscale>
<asrwt>0</asrwt>
<pdfrwt beam="1">0</pdfrwt>
<pdfrwt beam="2">  1        2 0.35980944E+00 0.62911807E+03</pdfrwt>
<totfact> 0.56135125E+00</totfact>
</mgrwt>
</event>
<event>
 5    1  0.2349912E-004  0.6484716E+03  0.7818608E-02  0.9809651E-01
         13   -1    0    0    0    0  0.00000000000E+00  0.00000000000E+00  0.10000000000E+04  0.10000000000E+04  0.00000000000E+00 0. -1.
          2   -1    0    0  501    0 -0.00000000000E+00 -0.00000000000E+00 -0.10512886957E+03  0.10512886957E+03  0.00000000000E+00 0. -1.
    9000006    2    1    2  501    0  0.00000000000E+00  0.00000000000E+00  0.89487113043E+03  0.11051288696E+04  0.64847164801E+03 0.  0.
         13    1    3    3    0    0 -0.17883076527E+03 -0.23580228155E+03  0.67317499146E+03  0.73535551111E+03  0.00000000000E+00 0. -1.
          4    1    3    3  501    0  0.17883076527E+03  0.23580228155E+03  0.22169613897E+03  0.36977335846E+03  0.00000000000E+00 0. -1.
<mgrwt>
<rscale>  0 0.64847165E+03</rscale>
<asrwt>0</asrwt>
<pdfrwt beam="1">0</pdfrwt>
<pdfrwt beam="2">  1        2 0.38228760E+00 0.64847165E+03</pdfrwt>
<totfact> 0.46365186E+00</totfact>
</mgrwt>
</event>
<event>
 5    1  0.2349912E-004  0.6472478E+03  0.7818608E-02  0.9811957E-01
         13   -1    0    0    0    0  0.00000000000E+00  0.00000000000E+00  0.10000000000E+04  0.10000000000E+04  0.00000000000E+00 0. -1.
          2   -1    0    0  501    0 -0.00000000000E+00 -0.00000000000E+00 -0.10473241622E+03  0.10473241622E+03  0.00000000000E+00 0. -1.
    9000006    2    1    2  501    0  0.00000000000E+00  0.00000000000E+00  0.89526758378E+03  0.11047324162E+04  0.64724776159E+03 0.  0.
         13    1    3    3    0    0 -0.28793852698E+03 -0.14755389036E+03  0.43536484788E+03  0.54242353991E+03  0.00000000000E+00 0. -1.
          4    1    3    3  501    0  0.28793852698E+03  0.14755389036E+03  0.45990273590E+03  0.56230887631E+03  0.00000000000E+00 0. -1.
<mgrwt>
<rscale>  0 0.64724776E+03</rscale>
<asrwt>0</asrwt>
<pdfrwt beam="1">0</pdfrwt>
<pdfrwt beam="2">  1        2 0.38084595E+00 0.64724776E+03</pdfrwt>
<totfact> 0.46941713E+00</totfact>
</mgrwt>
</event>
<event>
 5    1  0.2349912E-004  0.5981937E+03  0.7818608E-02  0.9909161E-01
         13   -1    0    0    0    0  0.00000000000E+00  0.00000000000E+00  0.10000000000E+04  0.10000000000E+04  0.00000000000E+00 0. -1.
          2   -1    0    0  501    0 -0.00000000000E+00 -0.00000000000E+00 -0.89458927228E+02  0.89458927228E+02  0.00000000000E+00 0. -1.
    9000006    2    1    2  501    0  0.00000000000E+00  0.00000000000E+00  0.91054107277E+03  0.10894589272E+04  0.59819370518E+03 0.  0.
         13    1    3    3    0    0  0.16583921279E+02  0.29567936010E+03  0.53162441797E+03  0.60854402652E+03  0.00000000000E+00 0. -1.
          2    1    3    3  501    0 -0.16583921279E+02 -0.29567936010E+03  0.37891665481E+03  0.48091490071E+03  0.00000000000E+00 0. -1.
<mgrwt>
<rscale>  0 0.59819371E+03</rscale>
<asrwt>0</asrwt>
<pdfrwt beam="1">0</pdfrwt>
<pdfrwt beam="2">  1        2 0.32530588E+00 0.59819371E+03</pdfrwt>
<totfact> 0.74905691E+00</totfact>
</mgrwt>
</event>
<event>
 5    1  0.2349912E-004  0.6544331E+03  0.7818608E-02  0.9798496E-01
         13   -1    0    0    0    0  0.00000000000E+00  0.00000000000E+00  0.10000000000E+04  0.10000000000E+04  0.00000000000E+00 0. -1.
          2   -1    0    0  501    0 -0.00000000000E+00 -0.00000000000E+00 -0.10707065544E+03  0.10707065544E+03  0.00000000000E+00 0. -1.
    9000006    2    1    2  501    0  0.00000000000E+00  0.00000000000E+00  0.89292934456E+03  0.11070706554E+04  0.65443305368E+03 0.  0.
         13    1    3    3    0    0  0.28414980179E+03  0.14720384157E+03  0.56195080682E+03  0.64668291311E+03  0.00000000000E+00 0. -1.
          4    1    3    3  501    0 -0.28414980179E+03 -0.14720384157E+03  0.33097853775E+03  0.46038774232E+03  0.00000000000E+00 0. -1.
<mgrwt>
<rscale>  0 0.65443305E+03</rscale>
<asrwt>0</asrwt>
<pdfrwt beam="1">0</pdfrwt>
<pdfrwt beam="2">  1        2 0.38934866E+00 0.65443305E+03</pdfrwt>
<totfact> 0.43633116E+00</totfact>
</mgrwt>
</event>
<event>
 5    1  0.2349912E-004  0.6463329E+03  0.7818608E-02  0.9813685E-01
         13   -1    0    0    0    0  0.00000000000E+00  0.00000000000E+00  0.10000000000E+04  0.10000000000E+04  0.00000000000E+00 0. -1.
          2   -1    0    0  501    0 -0.00000000000E+00 -0.00000000000E+00 -0.10443655824E+03  0.10443655824E+03  0.00000000000E+00 0. -1.
    9000006    2    1    2  501    0  0.00000000000E+00  0.00000000000E+00  0.89556344176E+03  0.11044365582E+04  0.64633291188E+03 0.  0.
         13    1    3    3    0    0 -0.22194181282E+03 -0.46361452538E+02  0.54284884819E+02  0.23314030385E+03  0.00000000000E+00 0. -1.
          2    1    3    3  501    0  0.22194181282E+03  0.46361452538E+02  0.84127855694E+03  0.87129625439E+03  0.00000000000E+00 0. -1.
<mgrwt>
<rscale>  0 0.64633291E+03</rscale>
<asrwt>0</asrwt>
<pdfrwt beam="1">0</pdfrwt>
<pdfrwt beam="2">  1        2 0.37977010E+00 0.64633291E+03</pdfrwt>
<totfact> 0.47376192E+00</totfact>
</mgrwt>
</event>
<event>
 5    1  0.2349912E-004  0.6435778E+03  0.7818608E-02  0.9818905E-01
         13   -1    0    0    0    0  0.00000000000E+00  0.00000000000E+00  0.10000000000E+04  0.10000000000E+04  0.00000000000E+00 0. -1.
          2   -1    0    0  501    0 -0.00000000000E+00 -0.00000000000E+00 -0.10354810323E+03  0.10354810323E+03  0.00000000000E+00 0. -1.
    9000006    2    1    2  501    0  0.00000000000E+00  0.00000000000E+00  0.89645189677E+03  0.11035481032E+04  0.64357782196E+03 0.  0.
         13    1    3    3    0    0 -0.26185494092E+03 -0.92591394687E+02  0.16958231174E+03  0.32542178309E+03  0.00000000000E+00 0. -1.
          2    1    3    3  501    0  0.26185494092E+03  0.92591394687E+02  0.72686958503E+03  0.77812632014E+03  0.00000000000E+00 0. -1.
<mgrwt>
<rscale>  0 0.64357782E+03</rscale>
<asrwt>0</asrwt>
<pdfrwt beam="1">0</pdfrwt>
<pdfrwt beam="2">  1        2 0.37653935E+00 0.64357782E+03</pdfrwt>
<totfact> 0.48703028E+00</totfact>
</mgrwt>
</event>
<event>
 5    1  0.2349912E-004  0.6526378E+03  0.7818608E-02  0.9801842E-01
         13   -1    0    0    0    0  0.00000000000E+00  0.00000000000E+00  0.10000000000E+04  0.10000000000E+04  0.00000000000E+00 0. -1.
          2   -1    0    0  501    0 -0.00000000000E+00 -0.00000000000E+00 -0.10648404031E+03  0.10648404031E+03  0.00000000000E+00 0. -1.
    9000006    2    1    2  501    0  0.00000000000E+00  0.00000000000E+00  0.89351595969E+03  0.11064840403E+04  0.65263784847E+03 0.  0.
         13    1    3    3    0    0 -0.50524532478E+02  0.23693168285E+03  0.76109075560E+02  0.25393294804E+03  0.00000000000E+00 0. -1.
          2    1    3    3  501    0  0.50524532478E+02 -0.23693168285E+03  0.81740688413E+03  0.85255109227E+03  0.00000000000E+00 0. -1.
<mgrwt>
<rscale>  0 0.65263785E+03</rscale>
<asrwt>0</asrwt>
<pdfrwt beam="1">0</pdfrwt>
<pdfrwt beam="2">  1        2 0.38721551E+00 0.65263785E+03</pdfrwt>
<totfact> 0.44442682E+00</totfact>
</mgrwt>
</event>
<event>
 5    1  0.2349912E-004  0.6517551E+03  0.7818608E-02  0.9803491E-01
         13   -1    0    0    0    0  0.00000000000E+00  0.00000000000E+00  0.10000000000E+04  0.10000000000E+04  0.00000000000E+00 0. -1.
          2   -1    0    0  501    0 -0.00000000000E+00 -0.00000000000E+00 -0.10619619302E+03  0.10619619302E+03  0.00000000000E+00 0. -1.
    9000006    2    1    2  501    0  0.00000000000E+00  0.00000000000E+00  0.89380380698E+03  0.11061961930E+04  0.65175514735E+03 0.  0.
         13    1    3    3    0    0 -0.25884768827E+03 -0.14087347117E+03  0.68298992305E+03  0.74385663645E+03  0.00000000000E+00 0. -1.
          4    1    3    3  501    0  0.25884768827E+03  0.14087347117E+03  0.21081388393E+03  0.36233955658E+03  0.00000000000E+00 0. -1.
<mgrwt>
<rscale>  0 0.65175515E+03</rscale>
<asrwt>0</asrwt>
<pdfrwt beam="1">0</pdfrwt>
<pdfrwt beam="2">  1        2 0.38616879E+00 0.65175515E+03</pdfrwt>
<totfact> 0.44844882E+00</totfact>
</mgrwt>
</event>
<event>
 5    1  0.2349912E-004  0.6737699E+03  0.7818608E-02  0.9763171E-01
         13   -1    0    0    0    0  0.00000000000E+00  0.00000000000E+00  0.10000000000E+04  0.10000000000E+04  0.00000000000E+00 0. -1.
          2   -1    0    0  501    0 -0.00000000000E+00 -0.00000000000E+00 -0.11349146460E+03  0.11349146460E+03  0.00000000000E+00 0. -1.
    9000006    2    1    2  501    0  0.00000000000E+00  0.00000000000E+00  0.88650853540E+03  0.11134914646E+04  0.67376988534E+03 0.  0.
         13    1    3    3    0    0 -0.23005195835E+03 -0.24425350182E+03  0.49304717591E+03  0.59638845928E+03  0.00000000000E+00 0. -1.
          2    1    3    3  501    0  0.23005195835E+03  0.24425350182E+03  0.39346135949E+03  0.51710300531E+03  0.00000000000E+00 0. -1.
<mgrwt>
<rscale>  0 0.67376989E+03</rscale>
<asrwt>0</asrwt>
<pdfrwt beam="1">0</pdfrwt>
<pdfrwt beam="2">  1        2 0.41269711E+00 0.67376989E+03</pdfrwt>
<totfact> 0.35600843E+00</totfact>
</mgrwt>
</event>
<event>
 5    1  0.2349912E-004  0.6508745E+03  0.7818608E-02  0.9805140E-01
         13   -1    0    0    0    0  0.00000000000E+00  0.00000000000E+00  0.10000000000E+04  0.10000000000E+04  0.00000000000E+00 0. -1.
          2   -1    0    0  501    0 -0.00000000000E+00 -0.00000000000E+00 -0.10590939264E+03  0.10590939264E+03  0.00000000000E+00 0. -1.
    9000006    2    1    2  501    0  0.00000000000E+00  0.00000000000E+00  0.89409060736E+03  0.11059093926E+04  0.65087446605E+03 0.  0.
         13    1    3    3    0    0 -0.43682065473E+02  0.32040992067E+03  0.50921410088E+03  0.60321608122E+03  0.00000000000E+00 0. -1.
          4    1    3    3  501    0  0.43682065473E+02 -0.32040992067E+03  0.38487650648E+03  0.50269331142E+03  0.00000000000E+00 0. -1.
<mgrwt>
<rscale>  0 0.65087447E+03</rscale>
<asrwt>0</asrwt>
<pdfrwt beam="1">0</pdfrwt>
<pdfrwt beam="2">  1        2 0.38512588E+00 0.65087447E+03</pdfrwt>
<totfact> 0.45248895E+00</totfact>
</mgrwt>
</event>
<event>
 5    1  0.2349912E-004  0.6067259E+03  0.7818608E-02  0.9891549E-01
         13   -1    0    0    0    0  0.00000000000E+00  0.00000000000E+00  0.10000000000E+04  0.10000000000E+04  0.00000000000E+00 0. -1.
          2   -1    0    0  501    0 -0.00000000000E+00 -0.00000000000E+00 -0.92029077113E+02  0.92029077113E+02  0.00000000000E+00 0. -1.
    9000006    2    1    2  501    0  0.00000000000E+00  0.00000000000E+00  0.90797092289E+03  0.10920290771E+04  0.60672589235E+03 0.  0.
         13    1    3    3    0    0  0.44262374600E+02 -0.25628734036E+03  0.73505796087E+03  0.77971312960E+03  0.00000000000E+00 0. -1.
          2    1    3    3  501    0 -0.44262374600E+02  0.25628734036E+03  0.17291296202E+03  0.31231594751E+03  0.00000000000E+00 0. -1.
<mgrwt>
<rscale>  0 0.60672589E+03</rscale>
<asrwt>0</asrwt>
<pdfrwt beam="1">0</pdfrwt>
<pdfrwt beam="2">  1        2 0.33465190E+00 0.60672589E+03</pdfrwt>
<totfact> 0.69309423E+00</totfact>
</mgrwt>
</event>
<event>
 5    1  0.2349912E-004  0.6371715E+03  0.7818608E-02  0.9831153E-01
         13   -1    0    0    0    0  0.00000000000E+00  0.00000000000E+00  0.10000000000E+04  0.10000000000E+04  0.00000000000E+00 0. -1.
          2   -1    0    0  501    0 -0.00000000000E+00 -0.00000000000E+00 -0.10149687926E+03  0.10149687926E+03  0.00000000000E+00 0. -1.
    9000006    2    1    2  501    0  0.00000000000E+00  0.00000000000E+00  0.89850312074E+03  0.11014968793E+04  0.63717149736E+03 0.  0.
         13    1    3    3    0    0  0.98347936553E+02 -0.71824804847E+02  0.95817295174E+03  0.96588121664E+03  0.00000000000E+00 0. -1.
          4    1    3    3  501    0 -0.98347936553E+02  0.71824804847E+02 -0.59669831005E+02  0.13561566262E+03  0.00000000000E+00 0. -1.
<mgrwt>
<rscale>  0 0.63717150E+03</rscale>
<asrwt>0</asrwt>
<pdfrwt beam="1">0</pdfrwt>
<pdfrwt beam="2">  1        2 0.36908034E+00 0.63717150E+03</pdfrwt>
<totfact> 0.51897243E+00</totfact>
</mgrwt>
</event>
<event>
 5    1  0.2349912E-004  0.6719773E+03  0.7818608E-02  0.9766392E-01
         13   -1    0    0    0    0  0.00000000000E+00  0.00000000000E+00  0.10000000000E+04  0.10000000000E+04  0.00000000000E+00 0. -1.
          2   -1    0    0  501    0 -0.00000000000E+00 -0.00000000000E+00 -0.11288836993E+03  0.11288836993E+03  0.00000000000E+00 0. -1.
    9000006    2    1    2  501    0  0.00000000000E+00  0.00000000000E+00  0.88711163007E+03  0.11128883699E+04  0.67197729107E+03 0.  0.
         13    1    3    3    0    0  0.20153781621E+03 -0.25472726224E+03  0.30123470267E+03  0.44299640584E+03  0.00000000000E+00 0. -1.
          2    1    3    3  501    0 -0.20153781621E+03  0.25472726224E+03  0.58587692740E+03  0.66989196409E+03  0.00000000000E+00 0. -1.
<mgrwt>
<rscale>  0 0.67197729E+03</rscale>
<asrwt>0</asrwt>
<pdfrwt beam="1">0</pdfrwt>
<pdfrwt beam="2">  1        2 0.41050403E+00 0.67197729E+03</pdfrwt>
<totfact> 0.36294384E+00</totfact>
</mgrwt>
</event>
<event>
 5    1  0.2349912E-004  0.6429822E+03  0.7818608E-02  0.9820037E-01
         13   -1    0    0    0    0  0.00000000000E+00  0.00000000000E+00  0.10000000000E+04  0.10000000000E+04  0.00000000000E+00 0. -1.
          2   -1    0    0  501    0 -0.00000000000E+00 -0.00000000000E+00 -0.10335652816E+03  0.10335652816E+03  0.00000000000E+00 0. -1.
    9000006    2    1    2  501    0  0.00000000000E+00  0.00000000000E+00  0.89664347184E+03  0.11033565282E+04  0.64298220244E+03 0.  0.
         13    1    3    3    0    0  0.15996139871E+03  0.14957843937E+03  0.85220221711E+03  0.87989202601E+03  0.00000000000E+00 0. -1.
          4    1    3    3  501    0 -0.15996139871E+03 -0.14957843937E+03  0.44441254727E+02  0.22346450215E+03  0.00000000000E+00 0. -1.
<mgrwt>
<rscale>  0 0.64298220E+03</rscale>
<asrwt>0</asrwt>
<pdfrwt beam="1">0</pdfrwt>
<pdfrwt beam="2">  1        2 0.37584271E+00 0.64298220E+03</pdfrwt>
<totfact> 0.48993535E+00</totfact>
</mgrwt>
</event>
<event>
 5    1  0.2349912E-004  0.6455821E+03  0.7818608E-02  0.9815104E-01
         13   -1    0    0    0    0  0.00000000000E+00  0.00000000000E+00  0.10000000000E+04  0.10000000000E+04  0.00000000000E+00 0. -1.
          2   -1    0    0  501    0 -0.00000000000E+00 -0.00000000000E+00 -0.10419407175E+03  0.10419407175E+03  0.00000000000E+00 0. -1.
    9000006    2    1    2  501    0  0.00000000000E+00  0.00000000000E+00  0.89580592825E+03  0.11041940717E+04  0.64558213033E+03 0.  0.
         13    1    3    3    0    0 -0.99449322091E+02  0.21557296074E+03  0.82197401598E+03  0.85557182750E+03  0.00000000000E+00 0. -1.
          2    1    3    3  501    0  0.99449322091E+02 -0.21557296074E+03  0.73831912274E+02  0.24862224425E+03  0.00000000000E+00 0. -1.
<mgrwt>
<rscale>  0 0.64558213E+03</rscale>
<asrwt>0</asrwt>
<pdfrwt beam="1">0</pdfrwt>
<pdfrwt beam="2">  1        2 0.37888833E+00 0.64558213E+03</pdfrwt>
<totfact> 0.47735018E+00</totfact>
</mgrwt>
</event>
<event>
 5    1  0.2349912E-004  0.6142689E+03  0.7818608E-02  0.9876237E-01
         13   -1    0    0    0    0  0.00000000000E+00  0.00000000000E+00  0.10000000000E+04  0.10000000000E+04  0.00000000000E+00 0. -1.
          2   -1    0    0  501    0 -0.00000000000E+00 -0.00000000000E+00 -0.94331582484E+02  0.94331582484E+02  0.00000000000E+00 0. -1.
    9000006    2    1    2  501    0  0.00000000000E+00  0.00000000000E+00  0.90566841752E+03  0.10943315825E+04  0.61426893942E+03 0.  0.
         13    1    3    3    0    0  0.29627685908E+03 -0.57661334372E+02  0.55403287100E+03  0.63091776711E+03  0.00000000000E+00 0. -1.
          2    1    3    3  501    0 -0.29627685908E+03  0.57661334372E+02  0.35163554651E+03  0.46341381537E+03  0.00000000000E+00 0. -1.
<mgrwt>
<rscale>  0 0.61426894E+03</rscale>
<asrwt>0</asrwt>
<pdfrwt beam="1">0</pdfrwt>
<pdfrwt beam="2">  1        2 0.34302466E+00 0.61426894E+03</pdfrwt>
<totfact> 0.64633700E+00</totfact>
</mgrwt>
</event>
<event>
 5    1  0.2349912E-004  0.6485507E+03  0.7818608E-02  0.9809502E-01
         13   -1    0    0    0    0  0.00000000000E+00  0.00000000000E+00  0.10000000000E+04  0.10000000000E+04  0.00000000000E+00 0. -1.
          2   -1    0    0  501    0 -0.00000000000E+00 -0.00000000000E+00 -0.10515451469E+03  0.10515451469E+03  0.00000000000E+00 0. -1.
    9000006    2    1    2  501    0  0.00000000000E+00  0.00000000000E+00  0.89484548531E+03  0.11051545147E+04  0.64855073722E+03 0.  0.
         13    1    3    3    0    0 -0.10108728546E+02  0.35065902592E+01  0.99969912043E+03  0.99975637730E+03  0.00000000000E+00 0. -1.
          4    1    3    3  501    0  0.10108728546E+02 -0.35065902592E+01 -0.10485363511E+03  0.10539813739E+03  0.00000000000E+00 0. -1.
<mgrwt>
<rscale>  0 0.64855074E+03</rscale>
<asrwt>0</asrwt>
<pdfrwt beam="1">0</pdfrwt>
<pdfrwt beam="2">  1        2 0.38238086E+00 0.64855074E+03</pdfrwt>
<totfact> 0.46328115E+00</totfact>
</mgrwt>
</event>
<event>
 5    1  0.2349912E-004  0.6483820E+03  0.7818608E-02  0.9809820E-01
         13   -1    0    0    0    0  0.00000000000E+00  0.00000000000E+00  0.10000000000E+04  0.10000000000E+04  0.00000000000E+00 0. -1.
          2   -1    0    0  501    0 -0.00000000000E+00 -0.00000000000E+00 -0.10509980463E+03  0.10509980463E+03  0.00000000000E+00 0. -1.
    9000006    2    1    2  501    0  0.00000000000E+00  0.00000000000E+00  0.89490019537E+03  0.11050998046E+04  0.64838200045E+03 0.  0.
         13    1    3    3    0    0  0.14543507393E+03 -0.28733220027E+03  0.51096374347E+03  0.60398269940E+03  0.00000000000E+00 0. -1.
          2    1    3    3  501    0 -0.14543507393E+03  0.28733220027E+03  0.38393645191E+03  0.50111710522E+03  0.00000000000E+00 0. -1.
<mgrwt>
<rscale>  0 0.64838200E+03</rscale>
<asrwt>0</asrwt>
<pdfrwt beam="1">0</pdfrwt>
<pdfrwt beam="2">  1        2 0.38218191E+00 0.64838200E+03</pdfrwt>
<totfact> 0.46407233E+00</totfact>
</mgrwt>
</event>
<event>
 5    1  0.2349912E-004  0.6489150E+03  0.7818608E-02  0.9808817E-01
         13   -1    0    0    0    0  0.00000000000E+00  0.00000000000E+00  0.10000000000E+04  0.10000000000E+04  0.00000000000E+00 0. -1.
          2   -1    0    0  501    0 -0.00000000000E+00 -0.00000000000E+00 -0.10527267246E+03  0.10527267246E+03  0.00000000000E+00 0. -1.
    9000006    2    1    2  501    0  0.00000000000E+00  0.00000000000E+00  0.89472732754E+03  0.11052726725E+04  0.64891500972E+03 0.  0.
         13    1    3    3    0    0  0.23480042776E+03  0.14465250205E+03  0.15622488470E+03  0.31695709776E+03  0.00000000000E+00 0. -1.
          2    1    3    3  501    0 -0.23480042776E+03 -0.14465250205E+03  0.73850244284E+03  0.78831557470E+03  0.00000000000E+00 0. -1.
<mgrwt>
<rscale>  0 0.64891501E+03</rscale>
<asrwt>0</asrwt>
<pdfrwt beam="1">0</pdfrwt>
<pdfrwt beam="2">  1        2 0.38281053E+00 0.64891501E+03</pdfrwt>
<totfact> 0.46157662E+00</totfact>
</mgrwt>
</event>
<event>
 5    1  0.2349912E-004  0.6478302E+03  0.7818608E-02  0.9810859E-01
         13   -1    0    0    0    0  0.00000000000E+00  0.00000000000E+00  0.10000000000E+04  0.10000000000E+04  0.00000000000E+00 0. -1.
          2   -1    0    0  501    0 -0.00000000000E+00 -0.00000000000E+00 -0.10492097871E+03  0.10492097871E+03  0.00000000000E+00 0. -1.
    9000006    2    1    2  501    0  0.00000000000E+00  0.00000000000E+00  0.89507902129E+03  0.11049209787E+04  0.64783015894E+03 0.  0.
         13    1    3    3    0    0 -0.15974792003E+03 -0.19946143885E+03  0.10806334458E+03  0.27745621273E+03  0.00000000000E+00 0. -1.
          4    1    3    3  501    0  0.15974792003E+03  0.19946143885E+03  0.78701567671E+03  0.82746476598E+03  0.00000000000E+00 0. -1.
<mgrwt>
<rscale>  0 0.64783016E+03</rscale>
<asrwt>0</asrwt>
<pdfrwt beam="1">0</pdfrwt>
<pdfrwt beam="2">  1        2 0.38153164E+00 0.64783016E+03</pdfrwt>
<totfact> 0.46666696E+00</totfact>
</mgrwt>
</event>
<event>
 5    1  0.2349912E-004  0.6514034E+03  0.7818608E-02  0.9804149E-01
         13   -1    0    0    0    0  0.00000000000E+00  0.00000000000E+00  0.10000000000E+04  0.10000000000E+04  0.00000000000E+00 0. -1.
          2   -1    0    0  501    0 -0.00000000000E+00 -0.00000000000E+00 -0.10608160365E+03  0.10608160365E+03  0.00000000000E+00 0. -1.
    9000006    2    1    2  501    0  0.00000000000E+00  0.00000000000E+00  0.89391839635E+03  0.11060816036E+04  0.65140341924E+03 0.  0.
         13    1    3    3    0    0  0.29059036020E+03  0.13413291016E+03  0.54950489444E+03  0.63591668011E+03  0.00000000000E+00 0. -1.
          2    1    3    3  501    0 -0.29059036020E+03 -0.13413291016E+03  0.34441350191E+03  0.47016492354E+03  0.00000000000E+00 0. -1.
<mgrwt>
<rscale>  0 0.65140342E+03</rscale>
<asrwt>0</asrwt>
<pdfrwt beam="1">0</pdfrwt>
<pdfrwt beam="2">  1        2 0.38575210E+00 0.65140342E+03</pdfrwt>
<totfact> 0.45005909E+00</totfact>
</mgrwt>
</event>
<event>
 5    1  0.2349912E-004  0.6676234E+03  0.7818608E-02  0.9774261E-01
         13   -1    0    0    0    0  0.00000000000E+00  0.00000000000E+00  0.10000000000E+04  0.10000000000E+04  0.00000000000E+00 0. -1.
          2   -1    0    0  501    0 -0.00000000000E+00 -0.00000000000E+00 -0.11143024792E+03  0.11143024792E+03  0.00000000000E+00 0. -1.
    9000006    2    1    2  501    0  0.00000000000E+00  0.00000000000E+00  0.88856975208E+03  0.11114302479E+04  0.66762339061E+03 0.  0.
         13    1    3    3    0    0  0.11980592130E+03  0.22220265882E+03  0.80788368846E+03  0.84640624669E+03  0.00000000000E+00 0. -1.
          2    1    3    3  501    0 -0.11980592130E+03 -0.22220265882E+03  0.80686063620E+02  0.26502400123E+03  0.00000000000E+00 0. -1.
<mgrwt>
<rscale>  0 0.66762339E+03</rscale>
<asrwt>0</asrwt>
<pdfrwt beam="1">0</pdfrwt>
<pdfrwt beam="2">  1        2 0.40520176E+00 0.66762339E+03</pdfrwt>
<totfact> 0.38021302E+00</totfact>
</mgrwt>
</event>
<event>
 5    1  0.2349912E-004  0.6758089E+03  0.7818608E-02  0.9759521E-01
         13   -1    0    0    0    0  0.00000000000E+00  0.00000000000E+00  0.10000000000E+04  0.10000000000E+04  0.00000000000E+00 0. -1.
          2   -1    0    0  501    0 -0.00000000000E+00 -0.00000000000E+00 -0.11417940842E+03  0.11417940842E+03  0.00000000000E+00 0. -1.
    9000006    2    1    2  501    0  0.00000000000E+00  0.00000000000E+00  0.88582059158E+03  0.11141794084E+04  0.67580887363E+03 0.  0.
         13    1    3    3    0    0 -0.28039899788E+03  0.18804858226E+03  0.41997428610E+03  0.53885458918E+03  0.00000000000E+00 0. -1.
          4    1    3    3  501    0  0.28039899788E+03 -0.18804858226E+03  0.46584630548E+03  0.57532481924E+03  0.00000000000E+00 0. -1.
<mgrwt>
<rscale>  0 0.67580887E+03</rscale>
<asrwt>0</asrwt>
<pdfrwt beam="1">0</pdfrwt>
<pdfrwt beam="2">  1        2 0.41519872E+00 0.67580887E+03</pdfrwt>
<totfact> 0.34824215E+00</totfact>
</mgrwt>
</event>
<event>
 5    1  0.2349912E-004  0.7583992E+03  0.7818608E-02  0.9622265E-01
         13   -1    0    0    0    0  0.00000000000E+00  0.00000000000E+00  0.10000000000E+04  0.10000000000E+04  0.00000000000E+00 0. -1.
          2   -1    0    0  501    0 -0.00000000000E+00 -0.00000000000E+00 -0.14379234770E+03  0.14379234770E+03  0.00000000000E+00 0. -1.
    9000006    2    1    2  501    0  0.00000000000E+00  0.00000000000E+00  0.85620765230E+03  0.11437923477E+04  0.75839922918E+03 0.  0.
         13    1    3    3    0    0  0.23035950436E+03  0.80922993986E+02  0.86567572056E+03  0.89944898986E+03  0.00000000000E+00 0. -1.
          4    1    3    3  501    0 -0.23035950436E+03 -0.80922993986E+02 -0.94680682589E+01  0.24434335784E+03  0.00000000000E+00 0. -1.
<mgrwt>
<rscale>  0 0.75839923E+03</rscale>
<asrwt>0</asrwt>
<pdfrwt beam="1">0</pdfrwt>
<pdfrwt beam="2">  1        2 0.52288237E+00 0.75839923E+03</pdfrwt>
<totfact> 0.12652180E+00</totfact>
</mgrwt>
</event>
<event>
 5    1  0.2349912E-004  0.6494497E+03  0.7818608E-02  0.9807812E-01
         13   -1    0    0    0    0  0.00000000000E+00  0.00000000000E+00  0.10000000000E+04  0.10000000000E+04  0.00000000000E+00 0. -1.
          2   -1    0    0  501    0 -0.00000000000E+00 -0.00000000000E+00 -0.10544621384E+03  0.10544621384E+03  0.00000000000E+00 0. -1.
    9000006    2    1    2  501    0  0.00000000000E+00  0.00000000000E+00  0.89455378616E+03  0.11054462138E+04  0.64944965575E+03 0.  0.
         13    1    3    3    0    0 -0.71902660549E+02 -0.31518410760E+03  0.49932971434E+03  0.59484550759E+03  0.00000000000E+00 0. -1.
          2    1    3    3  501    0  0.71902660549E+02  0.31518410760E+03  0.39522407183E+03  0.51060070625E+03  0.00000000000E+00 0. -1.
<mgrwt>
<rscale>  0 0.64944966E+03</rscale>
<asrwt>0</asrwt>
<pdfrwt beam="1">0</pdfrwt>
<pdfrwt beam="2">  1        2 0.38344159E+00 0.64944966E+03</pdfrwt>
<totfact> 0.45908345E+00</totfact>
</mgrwt>
</event>
<event>
 5    1  0.2349912E-004  0.6481412E+03  0.7818608E-02  0.9810273E-01
         13   -1    0    0    0    0  0.00000000000E+00  0.00000000000E+00  0.10000000000E+04  0.10000000000E+04  0.00000000000E+00 0. -1.
          2   -1    0    0  501    0 -0.00000000000E+00 -0.00000000000E+00 -0.10502174832E+03  0.10502174832E+03  0.00000000000E+00 0. -1.
    9000006    2    1    2  501    0  0.00000000000E+00  0.00000000000E+00  0.89497825168E+03  0.11050217483E+04  0.64814118314E+03 0.  0.
         13    1    3    3    0    0  0.28852465983E+03  0.14363943936E+03  0.38984957211E+03  0.50582749702E+03  0.00000000000E+00 0. -1.
          4    1    3    3  501    0 -0.28852465983E+03 -0.14363943936E+03  0.50512867957E+03  0.59919425130E+03  0.00000000000E+00 0. -1.
<mgrwt>
<rscale>  0 0.64814118E+03</rscale>
<asrwt>0</asrwt>
<pdfrwt beam="1">0</pdfrwt>
<pdfrwt beam="2">  1        2 0.38189807E+00 0.64814118E+03</pdfrwt>
<totfact> 0.46520325E+00</totfact>
</mgrwt>
</event>
<event>
 5    1  0.2349912E-004  0.6446354E+03  0.7818608E-02  0.9816898E-01
         13   -1    0    0    0    0  0.00000000000E+00  0.00000000000E+00  0.10000000000E+04  0.10000000000E+04  0.00000000000E+00 0. -1.
          2   -1    0    0  501    0 -0.00000000000E+00 -0.00000000000E+00 -0.10388870388E+03  0.10388870388E+03  0.00000000000E+00 0. -1.
    9000006    2    1    2  501    0  0.00000000000E+00  0.00000000000E+00  0.89611129612E+03  0.11038887039E+04  0.64463541285E+03 0.  0.
         13    1    3    3    0    0  0.25906246414E+03  0.48661424436E+02  0.13041423704E+03  0.29409040749E+03  0.00000000000E+00 0. -1.
          2    1    3    3  501    0 -0.25906246414E+03 -0.48661424436E+02  0.76569705908E+03  0.80979829639E+03  0.00000000000E+00 0. -1.
<mgrwt>
<rscale>  0 0.64463541E+03</rscale>
<asrwt>0</asrwt>
<pdfrwt beam="1">0</pdfrwt>
<pdfrwt beam="2">  1        2 0.37777790E+00 0.64463541E+03</pdfrwt>
<totfact> 0.48190417E+00</totfact>
</mgrwt>
</event>
<event>
 5    1  0.2349912E-004  0.6324417E+03  0.7818608E-02  0.9840296E-01
         13   -1    0    0    0    0  0.00000000000E+00  0.00000000000E+00  0.10000000000E+04  0.10000000000E+04  0.00000000000E+00 0. -1.
          2   -1    0    0  501    0 -0.00000000000E+00 -0.00000000000E+00 -0.99995619955E+02  0.99995619955E+02  0.00000000000E+00 0. -1.
    9000006    2    1    2  501    0  0.00000000000E+00  0.00000000000E+00  0.90000438004E+03  0.10999956200E+04  0.63244168096E+03 0.  0.
         13    1    3    3    0    0 -0.23329167699E+03  0.19950079017E+03  0.31788473807E+03  0.44190075643E+03  0.00000000000E+00 0. -1.
          2    1    3    3  501    0  0.23329167699E+03 -0.19950079017E+03  0.58211964197E+03  0.65809486353E+03  0.00000000000E+00 0. -1.
<mgrwt>
<rscale>  0 0.63244168E+03</rscale>
<asrwt>0</asrwt>
<pdfrwt beam="1">0</pdfrwt>
<pdfrwt beam="2">  1        2 0.36362120E+00 0.63244168E+03</pdfrwt>
<totfact> 0.54355560E+00</totfact>
</mgrwt>
</event>
<event>
 5    1  0.2349912E-004  0.6382037E+03  0.7818608E-02  0.9829169E-01
         13   -1    0    0    0    0  0.00000000000E+00  0.00000000000E+00  0.10000000000E+04  0.10000000000E+04  0.00000000000E+00 0. -1.
          2   -1    0    0  501    0 -0.00000000000E+00 -0.00000000000E+00 -0.10182597778E+03  0.10182597778E+03  0.00000000000E+00 0. -1.
    9000006    2    1    2  501    0  0.00000000000E+00  0.00000000000E+00  0.89817402222E+03  0.11018259778E+04  0.63820365960E+03 0.  0.
         13    1    3    3    0    0  0.26882109086E+03 -0.13638985979E+03  0.62982076976E+03  0.69824148743E+03  0.00000000000E+00 0. -1.
          2    1    3    3  501    0 -0.26882109086E+03  0.13638985979E+03  0.26835325246E+03  0.40358449035E+03  0.00000000000E+00 0. -1.
<mgrwt>
<rscale>  0 0.63820366E+03</rscale>
<asrwt>0</asrwt>
<pdfrwt beam="1">0</pdfrwt>
<pdfrwt beam="2">  1        2 0.37027706E+00 0.63820366E+03</pdfrwt>
<totfact> 0.51372173E+00</totfact>
</mgrwt>
</event>
<event>
 5    1  0.2349912E-004  0.6353386E+03  0.7818608E-02  0.9834686E-01
         13   -1    0    0    0    0  0.00000000000E+00  0.00000000000E+00  0.10000000000E+04  0.10000000000E+04  0.00000000000E+00 0. -1.
          2   -1    0    0  501    0 -0.00000000000E+00 -0.00000000000E+00 -0.10091379345E+03  0.10091379345E+03  0.00000000000E+00 0. -1.
    9000006    2    1    2  501    0  0.00000000000E+00  0.00000000000E+00  0.89908620655E+03  0.11009137935E+04  0.63533862924E+03 0.  0.
         13    1    3    3    0    0 -0.21242289652E+02 -0.31362027776E+03  0.37004409378E+03  0.48553222842E+03  0.00000000000E+00 0. -1.
          4    1    3    3  501    0  0.21242289652E+02  0.31362027776E+03  0.52904211277E+03  0.61538156503E+03  0.00000000000E+00 0. -1.
<mgrwt>
<rscale>  0 0.63533863E+03</rscale>
<asrwt>0</asrwt>
<pdfrwt beam="1">0</pdfrwt>
<pdfrwt beam="2">  1        2 0.36696002E+00 0.63533863E+03</pdfrwt>
<totfact> 0.52839648E+00</totfact>
</mgrwt>
</event>
<event>
 5    1  0.2349912E-004  0.6038957E+03  0.7818608E-02  0.9897356E-01
         13   -1    0    0    0    0  0.00000000000E+00  0.00000000000E+00  0.10000000000E+04  0.10000000000E+04  0.00000000000E+00 0. -1.
          2   -1    0    0  501    0 -0.00000000000E+00 -0.00000000000E+00 -0.91172515205E+02  0.91172515205E+02  0.00000000000E+00 0. -1.
    9000006    2    1    2  501    0  0.00000000000E+00  0.00000000000E+00  0.90882748479E+03  0.10911725152E+04  0.60389573671E+03 0.  0.
         13    1    3    3    0    0 -0.13077560593E+03 -0.32470618210E+02  0.94266145887E+03  0.95224325998E+03  0.00000000000E+00 0. -1.
          4    1    3    3  501    0  0.13077560593E+03  0.32470618210E+02 -0.33833974072E+02  0.13892925522E+03  0.00000000000E+00 0. -1.
<mgrwt>
<rscale>  0 0.60389574E+03</rscale>
<asrwt>0</asrwt>
<pdfrwt beam="1">0</pdfrwt>
<pdfrwt beam="2">  1        2 0.33153712E+00 0.60389574E+03</pdfrwt>
<totfact> 0.71128931E+00</totfact>
</mgrwt>
</event>
<event>
 5    1  0.2349912E-004  0.6572202E+03  0.7818608E-02  0.9793325E-01
         13   -1    0    0    0    0  0.00000000000E+00  0.00000000000E+00  0.10000000000E+04  0.10000000000E+04  0.00000000000E+00 0. -1.
          2   -1    0    0  501    0 -0.00000000000E+00 -0.00000000000E+00 -0.10798459867E+03  0.10798459867E+03  0.00000000000E+00 0. -1.
    9000006    2    1    2  501    0  0.00000000000E+00  0.00000000000E+00  0.89201540133E+03  0.11079845987E+04  0.65722020258E+03 0.  0.
         13    1    3    3    0    0 -0.31810908085E+03 -0.93361920078E+01  0.58404337446E+03  0.66512195502E+03  0.00000000000E+00 0. -1.
          4    1    3    3  501    0  0.31810908085E+03  0.93361920078E+01  0.30797202687E+03  0.44286264365E+03  0.00000000000E+00 0. -1.
<mgrwt>
<rscale>  0 0.65722020E+03</rscale>
<asrwt>0</asrwt>
<pdfrwt beam="1">0</pdfrwt>
<pdfrwt beam="2">  1        2 0.39267210E+00 0.65722020E+03</pdfrwt>
<totfact> 0.42398351E+00</totfact>
</mgrwt>
</event>
<event>
 5    1  0.2349912E-004  0.6563432E+03  0.7818608E-02  0.9794949E-01
         13   -1    0    0    0    0  0.00000000000E+00  0.00000000000E+00  0.10000000000E+04  0.10000000000E+04  0.00000000000E+00 0. -1.
          2   -1    0    0  501    0 -0.00000000000E+00 -0.00000000000E+00 -0.10769658913E+03  0.10769658913E+03  0.00000000000E+00 0. -1.
    9000006    2    1    2  501    0  0.00000000000E+00  0.00000000000E+00  0.89230341087E+03  0.11076965891E+04  0.65634316979E+03 0.  0.
         13    1    3    3    0    0  0.19806536586E+03  0.26157441794E+03  0.43476470397E+03  0.54467551175E+03  0.00000000000E+00 0. -1.
          2    1    3    3  501    0 -0.19806536586E+03 -0.26157441794E+03  0.45753870689E+03  0.56302107739E+03  0.00000000000E+00 0. -1.
<mgrwt>
<rscale>  0 0.65634317E+03</rscale>
<asrwt>0</asrwt>
<pdfrwt beam="1">0</pdfrwt>
<pdfrwt beam="2">  1        2 0.39162479E+00 0.65634317E+03</pdfrwt>
<totfact> 0.42784011E+00</totfact>
</mgrwt>
</event>
<event>
 5    1  0.2349912E-004  0.6421375E+03  0.7818608E-02  0.9821645E-01
         13   -1    0    0    0    0  0.00000000000E+00  0.00000000000E+00  0.10000000000E+04  0.10000000000E+04  0.00000000000E+00 0. -1.
          2   -1    0    0  501    0 -0.00000000000E+00 -0.00000000000E+00 -0.10308515436E+03  0.10308515436E+03  0.00000000000E+00 0. -1.
    9000006    2    1    2  501    0  0.00000000000E+00  0.00000000000E+00  0.89691484564E+03  0.11030851544E+04  0.64213753779E+03 0.  0.
         13    1    3    3    0    0  0.43996569817E+02  0.31742662989E+03  0.41454203439E+03  0.52396608840E+03  0.00000000000E+00 0. -1.
          2    1    3    3  501    0 -0.43996569817E+02 -0.31742662989E+03  0.48237281125E+03  0.57911906596E+03  0.00000000000E+00 0. -1.
<mgrwt>
<rscale>  0 0.64213754E+03</rscale>
<asrwt>0</asrwt>
<pdfrwt beam="1">0</pdfrwt>
<pdfrwt beam="2">  1        2 0.37485590E+00 0.64213754E+03</pdfrwt>
<totfact> 0.49407781E+00</totfact>
</mgrwt>
</event>
<event>
 5    1  0.2349912E-004  0.6546831E+03  0.7818608E-02  0.9798031E-01
         13   -1    0    0    0    0  0.00000000000E+00  0.00000000000E+00  0.10000000000E+04  0.10000000000E+04  0.00000000000E+00 0. -1.
          2   -1    0    0  501    0 -0.00000000000E+00 -0.00000000000E+00 -0.10715250215E+03  0.10715250215E+03  0.00000000000E+00 0. -1.
    9000006    2    1    2  501    0  0.00000000000E+00  0.00000000000E+00  0.89284749785E+03  0.11071525021E+04  0.65468313602E+03 0.  0.
         13    1    3    3    0    0  0.19750669924E+03 -0.10246469927E+03  0.40396132112E+02  0.22614101426E+03  0.00000000000E+00 0. -1.
          2    1    3    3  501    0 -0.19750669924E+03  0.10246469927E+03  0.85245136574E+03  0.88101148789E+03  0.00000000000E+00 0. -1.
<mgrwt>
<rscale>  0 0.65468314E+03</rscale>
<asrwt>0</asrwt>
<pdfrwt beam="1">0</pdfrwt>
<pdfrwt beam="2">  1        2 0.38964628E+00 0.65468314E+03</pdfrwt>
<totfact> 0.43521229E+00</totfact>
</mgrwt>
</event>
<event>
 5    1  0.2349912E-004  0.6479081E+03  0.7818608E-02  0.9810712E-01
         13   -1    0    0    0    0  0.00000000000E+00  0.00000000000E+00  0.10000000000E+04  0.10000000000E+04  0.00000000000E+00 0. -1.
          2   -1    0    0  501    0 -0.00000000000E+00 -0.00000000000E+00 -0.10494624213E+03  0.10494624213E+03  0.00000000000E+00 0. -1.
    9000006    2    1    2  501    0  0.00000000000E+00  0.00000000000E+00  0.89505375787E+03  0.11049462421E+04  0.64790814822E+03 0.  0.
         13    1    3    3    0    0  0.83119341179E+02 -0.13962279531E+03  0.92547543334E+03  0.93963191067E+03  0.00000000000E+00 0. -1.
          2    1    3    3  501    0 -0.83119341179E+02  0.13962279531E+03 -0.30421675467E+02  0.16531433146E+03  0.00000000000E+00 0. -1.
<mgrwt>
<rscale>  0 0.64790815E+03</rscale>
<asrwt>0</asrwt>
<pdfrwt beam="1">0</pdfrwt>
<pdfrwt beam="2">  1        2 0.38162350E+00 0.64790815E+03</pdfrwt>
<totfact> 0.46629961E+00</totfact>
</mgrwt>
</event>
<event>
 5    1  0.2349912E-004  0.6539342E+03  0.7818608E-02  0.9799425E-01
         13   -1    0    0    0    0  0.00000000000E+00  0.00000000000E+00  0.10000000000E+04  0.10000000000E+04  0.00000000000E+00 0. -1.
          2   -1    0    0  501    0 -0.00000000000E+00 -0.00000000000E+00 -0.10690747213E+03  0.10690747213E+03  0.00000000000E+00 0. -1.
    9000006    2    1    2  501    0  0.00000000000E+00  0.00000000000E+00  0.89309252787E+03  0.11069074721E+04  0.65393416223E+03 0.  0.
         13    1    3    3    0    0 -0.44609603427E+02  0.32225630519E+03  0.50187233602E+03  0.59809278931E+03  0.00000000000E+00 0. -1.
          2    1    3    3  501    0  0.44609603427E+02 -0.32225630519E+03  0.39122019184E+03  0.50881468283E+03  0.00000000000E+00 0. -1.
<mgrwt>
<rscale>  0 0.65393416E+03</rscale>
<asrwt>0</asrwt>
<pdfrwt beam="1">0</pdfrwt>
<pdfrwt beam="2">  1        2 0.38875526E+00 0.65393416E+03</pdfrwt>
<totfact> 0.43856969E+00</totfact>
</mgrwt>
</event>
<event>
 5    1  0.2349912E-004  0.6405359E+03  0.7818608E-02  0.9824702E-01
         13   -1    0    0    0    0  0.00000000000E+00  0.00000000000E+00  0.10000000000E+04  0.10000000000E+04  0.00000000000E+00 0. -1.
          2   -1    0    0  501    0 -0.00000000000E+00 -0.00000000000E+00 -0.10257154994E+03  0.10257154994E+03  0.00000000000E+00 0. -1.
    9000006    2    1    2  501    0  0.00000000000E+00  0.00000000000E+00  0.89742845006E+03  0.11025715499E+04  0.64053586922E+03 0.  0.
         13    1    3    3    0    0  0.27409020596E+03  0.77638265334E+01  0.73357083176E+03  0.78314231352E+03  0.00000000000E+00 0. -1.
          4    1    3    3  501    0 -0.27409020596E+03 -0.77638265334E+01  0.16385761830E+03  0.31942923642E+03  0.00000000000E+00 0. -1.
<mgrwt>
<rscale>  0 0.64053587E+03</rscale>
<asrwt>0</asrwt>
<pdfrwt beam="1">0</pdfrwt>
<pdfrwt beam="2">  1        2 0.37298824E+00 0.64053587E+03</pdfrwt>
<totfact> 0.50200582E+00</totfact>
</mgrwt>
</event>
<event>
 5    1  0.2349912E-004  0.6407935E+03  0.7818608E-02  0.9824209E-01
         13   -1    0    0    0    0  0.00000000000E+00  0.00000000000E+00  0.10000000000E+04  0.10000000000E+04  0.00000000000E+00 0. -1.
          2   -1    0    0  501    0 -0.00000000000E+00 -0.00000000000E+00 -0.10265408851E+03  0.10265408851E+03  0.00000000000E+00 0. -1.
    9000006    2    1    2  501    0  0.00000000000E+00  0.00000000000E+00  0.89734591149E+03  0.11026540885E+04  0.64079353465E+03 0.  0.
         13    1    3    3    0    0 -0.39144511137E+02 -0.31799016925E+03  0.44521083230E+03  0.54850954931E+03  0.00000000000E+00 0. -1.
          2    1    3    3  501    0  0.39144511137E+02  0.31799016925E+03  0.45213507919E+03  0.55414453920E+03  0.00000000000E+00 0. -1.
<mgrwt>
<rscale>  0 0.64079353E+03</rscale>
<asrwt>0</asrwt>
<pdfrwt beam="1">0</pdfrwt>
<pdfrwt beam="2">  1        2 0.37328838E+00 0.64079353E+03</pdfrwt>
<totfact> 0.50072396E+00</totfact>
</mgrwt>
</event>
<event>
 5    1  0.2349912E-004  0.6492360E+03  0.7818608E-02  0.9808214E-01
         13   -1    0    0    0    0  0.00000000000E+00  0.00000000000E+00  0.10000000000E+04  0.10000000000E+04  0.00000000000E+00 0. -1.
          2   -1    0    0  501    0 -0.00000000000E+00 -0.00000000000E+00 -0.10537683573E+03  0.10537683573E+03  0.00000000000E+00 0. -1.
    9000006    2    1    2  501    0  0.00000000000E+00  0.00000000000E+00  0.89462316427E+03  0.11053768357E+04  0.64923596861E+03 0.  0.
         13    1    3    3    0    0  0.26005507032E+03  0.40744555953E+02  0.77074855156E+03  0.81445815618E+03  0.00000000000E+00 0. -1.
          4    1    3    3  501    0 -0.26005507032E+03 -0.40744555953E+02  0.12387461271E+03  0.29091867955E+03  0.00000000000E+00 0. -1.
<mgrwt>
<rscale>  0 0.64923597E+03</rscale>
<asrwt>0</asrwt>
<pdfrwt beam="1">0</pdfrwt>
<pdfrwt beam="2">  1        2 0.38318930E+00 0.64923597E+03</pdfrwt>
<totfact> 0.46007870E+00</totfact>
</mgrwt>
</event>
<event>
 5    1  0.2349912E-004  0.6546836E+03  0.7818608E-02  0.9798030E-01
         13   -1    0    0    0    0  0.00000000000E+00  0.00000000000E+00  0.10000000000E+04  0.10000000000E+04  0.00000000000E+00 0. -1.
          2   -1    0    0  501    0 -0.00000000000E+00 -0.00000000000E+00 -0.10715265450E+03  0.10715265450E+03  0.00000000000E+00 0. -1.
    9000006    2    1    2  501    0  0.00000000000E+00  0.00000000000E+00  0.89284734550E+03  0.11071526545E+04  0.65468360144E+03 0.  0.
         13    1    3    3    0    0 -0.10388827036E+03 -0.82287612327E+02  0.95260077127E+03  0.96177557325E+03  0.00000000000E+00 0. -1.
          2    1    3    3  501    0  0.10388827036E+03  0.82287612327E+02 -0.59753425772E+02  0.14537708125E+03  0.00000000000E+00 0. -1.
<mgrwt>
<rscale>  0 0.65468360E+03</rscale>
<asrwt>0</asrwt>
<pdfrwt beam="1">0</pdfrwt>
<pdfrwt beam="2">  1        2 0.38964684E+00 0.65468360E+03</pdfrwt>
<totfact> 0.43521020E+00</totfact>
</mgrwt>
</event>
<event>
 5    1  0.2349912E-004  0.6203908E+03  0.7818608E-02  0.9863982E-01
         13   -1    0    0    0    0  0.00000000000E+00  0.00000000000E+00  0.10000000000E+04  0.10000000000E+04  0.00000000000E+00 0. -1.
          2   -1    0    0  501    0 -0.00000000000E+00 -0.00000000000E+00 -0.96221199499E+02  0.96221199499E+02  0.00000000000E+00 0. -1.
    9000006    2    1    2  501    0  0.00000000000E+00  0.00000000000E+00  0.90377880050E+03  0.10962211995E+04  0.62039084293E+03 0.  0.
         13    1    3    3    0    0 -0.17161177638E+03  0.23608578809E+03  0.63749934577E+03  0.70113658939E+03  0.00000000000E+00 0. -1.
          4    1    3    3  501    0  0.17161177638E+03 -0.23608578809E+03  0.26627945474E+03  0.39508461011E+03  0.00000000000E+00 0. -1.
<mgrwt>
<rscale>  0 0.62039084E+03</rscale>
<asrwt>0</asrwt>
<pdfrwt beam="1">0</pdfrwt>
<pdfrwt beam="2">  1        2 0.34989601E+00 0.62039084E+03</pdfrwt>
<totfact> 0.61019267E+00</totfact>
</mgrwt>
</event>
<event>
 5    1  0.2349912E-004  0.6949606E+03  0.7818608E-02  0.9725889E-01
         13   -1    0    0    0    0  0.00000000000E+00  0.00000000000E+00  0.10000000000E+04  0.10000000000E+04  0.00000000000E+00 0. -1.
          2   -1    0    0  501    0 -0.00000000000E+00 -0.00000000000E+00 -0.12074256363E+03  0.12074256363E+03  0.00000000000E+00 0. -1.
    9000006    2    1    2  501    0  0.00000000000E+00  0.00000000000E+00  0.87925743637E+03  0.11207425636E+04  0.69496061364E+03 0.  0.
         13    1    3    3    0    0 -0.32336140356E+03 -0.11926175613E+03  0.51096273519E+03  0.61633503919E+03  0.00000000000E+00 0. -1.
          4    1    3    3  501    0  0.32336140356E+03  0.11926175613E+03  0.36829470118E+03  0.50440752443E+03  0.00000000000E+00 0. -1.
<mgrwt>
<rscale>  0 0.69496061E+03</rscale>
<asrwt>0</asrwt>
<pdfrwt beam="1">0</pdfrwt>
<pdfrwt beam="2">  1        2 0.43906479E+00 0.69496061E+03</pdfrwt>
<totfact> 0.28136325E+00</totfact>
</mgrwt>
</event>
<event>
 5    1  0.2349912E-004  0.6571896E+03  0.7818608E-02  0.9793381E-01
         13   -1    0    0    0    0  0.00000000000E+00  0.00000000000E+00  0.10000000000E+04  0.10000000000E+04  0.00000000000E+00 0. -1.
          2   -1    0    0  501    0 -0.00000000000E+00 -0.00000000000E+00 -0.10797453601E+03  0.10797453601E+03  0.00000000000E+00 0. -1.
    9000006    2    1    2  501    0  0.00000000000E+00  0.00000000000E+00  0.89202546399E+03  0.11079745360E+04  0.65718957997E+03 0.  0.
         13    1    3    3    0    0 -0.29811600019E+02  0.32723666206E+03  0.44364551047E+03  0.55208142828E+03  0.00000000000E+00 0. -1.
          2    1    3    3  501    0  0.29811600019E+02 -0.32723666206E+03  0.44837995353E+03  0.55589310773E+03  0.00000000000E+00 0. -1.
<mgrwt>
<rscale>  0 0.65718958E+03</rscale>
<asrwt>0</asrwt>
<pdfrwt beam="1">0</pdfrwt>
<pdfrwt beam="2">  1        2 0.39263550E+00 0.65718958E+03</pdfrwt>
<totfact> 0.42411772E+00</totfact>
</mgrwt>
</event>
<event>
 5    1  0.2349912E-004  0.6539838E+03  0.7818608E-02  0.9799332E-01
         13   -1    0    0    0    0  0.00000000000E+00  0.00000000000E+00  0.10000000000E+04  0.10000000000E+04  0.00000000000E+00 0. -1.
          2   -1    0    0  501    0 -0.00000000000E+00 -0.00000000000E+00 -0.10692370854E+03  0.10692370854E+03  0.00000000000E+00 0. -1.
    9000006    2    1    2  501    0  0.00000000000E+00  0.00000000000E+00  0.89307629146E+03  0.11069237085E+04  0.65398381796E+03 0.  0.
         13    1    3    3    0    0 -0.45993321316E+02  0.26639718346E+03  0.13517198931E+03  0.30224875790E+03  0.00000000000E+00 0. -1.
          4    1    3    3  501    0  0.45993321316E+02 -0.26639718346E+03  0.75790430215E+03  0.80467495064E+03  0.00000000000E+00 0. -1.
<mgrwt>
<rscale>  0 0.65398382E+03</rscale>
<asrwt>0</asrwt>
<pdfrwt beam="1">0</pdfrwt>
<pdfrwt beam="2">  1        2 0.38881431E+00 0.65398382E+03</pdfrwt>
<totfact> 0.43834649E+00</totfact>
</mgrwt>
</event>
<event>
 5    1  0.2349912E-004  0.5182178E+03  0.7818608E-02  0.1009130E+00
         13   -1    0    0    0    0  0.00000000000E+00  0.00000000000E+00  0.10000000000E+04  0.10000000000E+04  0.00000000000E+00 0. -1.
          2   -1    0    0  501    0 -0.00000000000E+00 -0.00000000000E+00 -0.67137420015E+02  0.67137420015E+02  0.00000000000E+00 0. -1.
    9000006    2    1    2  501    0  0.00000000000E+00  0.00000000000E+00  0.93286257999E+03  0.10671374200E+04  0.51821779211E+03 0.  0.
         13    1    3    3    0    0 -0.10779179294E+03 -0.44199956736E+02  0.94302402892E+03  0.95019315190E+03  0.00000000000E+00 0. -1.
          2    1    3    3  501    0  0.10779179294E+03  0.44199956736E+02 -0.10161448933E+02  0.11694426811E+03  0.00000000000E+00 0. -1.
<mgrwt>
<rscale>  0 0.51821779E+03</rscale>
<asrwt>0</asrwt>
<pdfrwt beam="1">0</pdfrwt>
<pdfrwt beam="2">  1        2 0.24413659E+00 0.51821779E+03</pdfrwt>
<totfact> 0.14633981E+01</totfact>
</mgrwt>
</event>
<event>
 5    1  0.2349912E-004  0.5137712E+03  0.7818608E-02  0.1010246E+00
         13   -1    0    0    0    0  0.00000000000E+00  0.00000000000E+00  0.10000000000E+04  0.10000000000E+04  0.00000000000E+00 0. -1.
          2   -1    0    0  501    0 -0.00000000000E+00 -0.00000000000E+00 -0.65990202362E+02  0.65990202362E+02  0.00000000000E+00 0. -1.
    9000006    2    1    2  501    0  0.00000000000E+00  0.00000000000E+00  0.93400979764E+03  0.10659902024E+04  0.51377116448E+03 0.  0.
         13    1    3    3    0    0 -0.44514653890E+02  0.22221218287E+03  0.71796893729E+03  0.75288724491E+03  0.00000000000E+00 0. -1.
          4    1    3    3  501    0  0.44514653890E+02 -0.22221218287E+03  0.21604086034E+03  0.31310295745E+03  0.00000000000E+00 0. -1.
<mgrwt>
<rscale>  0 0.51377116E+03</rscale>
<asrwt>0</asrwt>
<pdfrwt beam="1">0</pdfrwt>
<pdfrwt beam="2">  1        2 0.23996488E+00 0.51377116E+03</pdfrwt>
<totfact> 0.15150347E+01</totfact>
</mgrwt>
</event>
<event>
 5    1  0.2349912E-004  0.6378936E+03  0.7818608E-02  0.9829765E-01
         13   -1    0    0    0    0  0.00000000000E+00  0.00000000000E+00  0.10000000000E+04  0.10000000000E+04  0.00000000000E+00 0. -1.
          2   -1    0    0  501    0 -0.00000000000E+00 -0.00000000000E+00 -0.10172705604E+03  0.10172705604E+03  0.00000000000E+00 0. -1.
    9000006    2    1    2  501    0  0.00000000000E+00  0.00000000000E+00  0.89827294396E+03  0.11017270560E+04  0.63789358371E+03 0.  0.
         13    1    3    3    0    0  0.14848681022E+03 -0.24135053423E+03  0.70196327578E+03  0.75700122439E+03  0.00000000000E+00 0. -1.
          4    1    3    3  501    0 -0.14848681022E+03  0.24135053423E+03  0.19630966818E+03  0.34472583164E+03  0.00000000000E+00 0. -1.
<mgrwt>
<rscale>  0 0.63789358E+03</rscale>
<asrwt>0</asrwt>
<pdfrwt beam="1">0</pdfrwt>
<pdfrwt beam="2">  1        2 0.36991735E+00 0.63789358E+03</pdfrwt>
<totfact> 0.51529487E+00</totfact>
</mgrwt>
</event>
<event>
 5    1  0.2349912E-004  0.6498482E+03  0.7818608E-02  0.9807064E-01
         13   -1    0    0    0    0  0.00000000000E+00  0.00000000000E+00  0.10000000000E+04  0.10000000000E+04  0.00000000000E+00 0. -1.
          2   -1    0    0  501    0 -0.00000000000E+00 -0.00000000000E+00 -0.10557568689E+03  0.10557568689E+03  0.00000000000E+00 0. -1.
    9000006    2    1    2  501    0  0.00000000000E+00  0.00000000000E+00  0.89442431311E+03  0.11055756869E+04  0.64984824965E+03 0.  0.
         13    1    3    3    0    0 -0.13164159703E+03 -0.18800994494E+03  0.83850143458E+03  0.86934567650E+03  0.00000000000E+00 0. -1.
          2    1    3    3  501    0  0.13164159703E+03  0.18800994494E+03  0.55922878529E+02  0.23623001039E+03  0.00000000000E+00 0. -1.
<mgrwt>
<rscale>  0 0.64984825E+03</rscale>
<asrwt>0</asrwt>
<pdfrwt beam="1">0</pdfrwt>
<pdfrwt beam="2">  1        2 0.38391240E+00 0.64984825E+03</pdfrwt>
<totfact> 0.45723136E+00</totfact>
</mgrwt>
</event>
<event>
 5    1  0.2349912E-004  0.6685273E+03  0.7818608E-02  0.9772622E-01
         13   -1    0    0    0    0  0.00000000000E+00  0.00000000000E+00  0.10000000000E+04  0.10000000000E+04  0.00000000000E+00 0. -1.
          2   -1    0    0  501    0 -0.00000000000E+00 -0.00000000000E+00 -0.11173217242E+03  0.11173217242E+03  0.00000000000E+00 0. -1.
    9000006    2    1    2  501    0  0.00000000000E+00  0.00000000000E+00  0.88826782758E+03  0.11117321724E+04  0.66852725426E+03 0.  0.
         13    1    3    3    0    0  0.53291671762E+00 -0.86678062602E+02  0.98098531980E+03  0.98480737619E+03  0.00000000000E+00 0. -1.
          2    1    3    3  501    0 -0.53291671762E+00  0.86678062602E+02 -0.92717492218E+02  0.12692479624E+03  0.00000000000E+00 0. -1.
<mgrwt>
<rscale>  0 0.66852725E+03</rscale>
<asrwt>0</asrwt>
<pdfrwt beam="1">0</pdfrwt>
<pdfrwt beam="2">  1        2 0.40629967E+00 0.66852725E+03</pdfrwt>
<totfact> 0.37657809E+00</totfact>
</mgrwt>
</event>
<event>
 5    1  0.2349912E-004  0.6461452E+03  0.7818608E-02  0.9814039E-01
         13   -1    0    0    0    0  0.00000000000E+00  0.00000000000E+00  0.10000000000E+04  0.10000000000E+04  0.00000000000E+00 0. -1.
          2   -1    0    0  501    0 -0.00000000000E+00 -0.00000000000E+00 -0.10437589737E+03  0.10437589737E+03  0.00000000000E+00 0. -1.
    9000006    2    1    2  501    0  0.00000000000E+00  0.00000000000E+00  0.89562410263E+03  0.11043758974E+04  0.64614517680E+03 0.  0.
         13    1    3    3    0    0 -0.21181999651E+03  0.20316202654E+03  0.67860385102E+03  0.73935492598E+03  0.00000000000E+00 0. -1.
          4    1    3    3  501    0  0.21181999651E+03 -0.20316202654E+03  0.21702025161E+03  0.36502097140E+03  0.00000000000E+00 0. -1.
<mgrwt>
<rscale>  0 0.64614518E+03</rscale>
<asrwt>0</asrwt>
<pdfrwt beam="1">0</pdfrwt>
<pdfrwt beam="2">  1        2 0.37954952E+00 0.64614518E+03</pdfrwt>
<totfact> 0.47465725E+00</totfact>
</mgrwt>
</event>
<event>
 5    1  0.2349912E-004  0.6363578E+03  0.7818608E-02  0.9832720E-01
         13   -1    0    0    0    0  0.00000000000E+00  0.00000000000E+00  0.10000000000E+04  0.10000000000E+04  0.00000000000E+00 0. -1.
          2   -1    0    0  501    0 -0.00000000000E+00 -0.00000000000E+00 -0.10123779986E+03  0.10123779986E+03  0.00000000000E+00 0. -1.
    9000006    2    1    2  501    0  0.00000000000E+00  0.00000000000E+00  0.89876220014E+03  0.11012377999E+04  0.63635776056E+03 0.  0.
         13    1    3    3    0    0  0.30543841072E+03  0.77884647709E+02  0.52439841276E+03  0.61184339205E+03  0.00000000000E+00 0. -1.
          4    1    3    3  501    0 -0.30543841072E+03 -0.77884647709E+02  0.37436378738E+03  0.48939440780E+03  0.00000000000E+00 0. -1.
<mgrwt>
<rscale>  0 0.63635776E+03</rscale>
<asrwt>0</asrwt>
<pdfrwt beam="1">0</pdfrwt>
<pdfrwt beam="2">  1        2 0.36813823E+00 0.63635776E+03</pdfrwt>
<totfact> 0.52314056E+00</totfact>
</mgrwt>
</event>
<event>
 5    1  0.2349912E-004  0.6477877E+03  0.7818608E-02  0.9810939E-01
         13   -1    0    0    0    0  0.00000000000E+00  0.00000000000E+00  0.10000000000E+04  0.10000000000E+04  0.00000000000E+00 0. -1.
          2   -1    0    0  501    0 -0.00000000000E+00 -0.00000000000E+00 -0.10490723319E+03  0.10490723319E+03  0.00000000000E+00 0. -1.
    9000006    2    1    2  501    0  0.00000000000E+00  0.00000000000E+00  0.89509276681E+03  0.11049072332E+04  0.64778772199E+03 0.  0.
         13    1    3    3    0    0  0.31985023417E+03  0.37560158137E+02  0.38865048639E+03  0.50474165505E+03  0.00000000000E+00 0. -1.
          2    1    3    3  501    0 -0.31985023417E+03 -0.37560158137E+02  0.50644228042E+03  0.60016557814E+03  0.00000000000E+00 0. -1.
<mgrwt>
<rscale>  0 0.64778772E+03</rscale>
<asrwt>0</asrwt>
<pdfrwt beam="1">0</pdfrwt>
<pdfrwt beam="2">  1        2 0.38148165E+00 0.64778772E+03</pdfrwt>
<totfact> 0.46686694E+00</totfact>
</mgrwt>
</event>
<event>
 5    1  0.2349912E-004  0.6612361E+03  0.7818608E-02  0.9785921E-01
         13   -1    0    0    0    0  0.00000000000E+00  0.00000000000E+00  0.10000000000E+04  0.10000000000E+04  0.00000000000E+00 0. -1.
          2   -1    0    0  501    0 -0.00000000000E+00 -0.00000000000E+00 -0.10930829378E+03  0.10930829378E+03  0.00000000000E+00 0. -1.
    9000006    2    1    2  501    0  0.00000000000E+00  0.00000000000E+00  0.89069170622E+03  0.11093082938E+04  0.66123609636E+03 0.  0.
         13    1    3    3    0    0 -0.16808767541E+03 -0.27646036814E+03  0.55943063677E+03  0.64625570724E+03  0.00000000000E+00 0. -1.
          4    1    3    3  501    0  0.16808767541E+03  0.27646036814E+03  0.33126106945E+03  0.46305258655E+03  0.00000000000E+00 0. -1.
<mgrwt>
<rscale>  0 0.66123610E+03</rscale>
<asrwt>0</asrwt>
<pdfrwt beam="1">0</pdfrwt>
<pdfrwt beam="2">  1        2 0.39748554E+00 0.66123610E+03</pdfrwt>
<totfact> 0.40665953E+00</totfact>
</mgrwt>
</event>
<event>
 5    1  0.2349912E-004  0.6578684E+03  0.7818608E-02  0.9792126E-01
         13   -1    0    0    0    0  0.00000000000E+00  0.00000000000E+00  0.10000000000E+04  0.10000000000E+04  0.00000000000E+00 0. -1.
          2   -1    0    0  501    0 -0.00000000000E+00 -0.00000000000E+00 -0.10819770497E+03  0.10819770497E+03  0.00000000000E+00 0. -1.
    9000006    2    1    2  501    0  0.00000000000E+00  0.00000000000E+00  0.89180229503E+03  0.11081977050E+04  0.65786839099E+03 0.  0.
         13    1    3    3    0    0 -0.14370808229E+03 -0.21734125169E+02  0.94297483898E+03  0.95411002094E+03  0.00000000000E+00 0. -1.
          2    1    3    3  501    0  0.14370808229E+03  0.21734125169E+02 -0.51172543947E+02  0.15408768402E+03  0.00000000000E+00 0. -1.
<mgrwt>
<rscale>  0 0.65786839E+03</rscale>
<asrwt>0</asrwt>
<pdfrwt beam="1">0</pdfrwt>
<pdfrwt beam="2">  1        2 0.39344703E+00 0.65786839E+03</pdfrwt>
<totfact> 0.42115012E+00</totfact>
</mgrwt>
</event>
<event>
 5    1  0.2349912E-004  0.6458855E+03  0.7818608E-02  0.9814531E-01
         13   -1    0    0    0    0  0.00000000000E+00  0.00000000000E+00  0.10000000000E+04  0.10000000000E+04  0.00000000000E+00 0. -1.
          2   -1    0    0  501    0 -0.00000000000E+00 -0.00000000000E+00 -0.10429201140E+03  0.10429201140E+03  0.00000000000E+00 0. -1.
    9000006    2    1    2  501    0  0.00000000000E+00  0.00000000000E+00  0.89570798860E+03  0.11042920114E+04  0.64588547406E+03 0.  0.
         13    1    3    3    0    0  0.21270628392E+03  0.17572100098E+03  0.73481521335E+03  0.78490460005E+03  0.00000000000E+00 0. -1.
          2    1    3    3  501    0 -0.21270628392E+03 -0.17572100098E+03  0.16089277525E+03  0.31938741135E+03  0.00000000000E+00 0. -1.
<mgrwt>
<rscale>  0 0.64588547E+03</rscale>
<asrwt>0</asrwt>
<pdfrwt beam="1">0</pdfrwt>
<pdfrwt beam="2">  1        2 0.37924448E+00 0.64588547E+03</pdfrwt>
<totfact> 0.47589792E+00</totfact>
</mgrwt>
</event>
<event>
 5    1  0.2349912E-004  0.6136664E+03  0.7818608E-02  0.9877451E-01
         13   -1    0    0    0    0  0.00000000000E+00  0.00000000000E+00  0.10000000000E+04  0.10000000000E+04  0.00000000000E+00 0. -1.
          2   -1    0    0  501    0 -0.00000000000E+00 -0.00000000000E+00 -0.94146623787E+02  0.94146623787E+02  0.00000000000E+00 0. -1.
    9000006    2    1    2  501    0  0.00000000000E+00  0.00000000000E+00  0.90585337621E+03  0.10941466238E+04  0.61366643639E+03 0.  0.
         13    1    3    3    0    0  0.27270327298E+03  0.10896974073E+03  0.29440158123E+03  0.41582901597E+03  0.00000000000E+00 0. -1.
          2    1    3    3  501    0 -0.27270327298E+03 -0.10896974073E+03  0.61145179498E+03  0.67831760782E+03  0.00000000000E+00 0. -1.
<mgrwt>
<rscale>  0 0.61366644E+03</rscale>
<asrwt>0</asrwt>
<pdfrwt beam="1">0</pdfrwt>
<pdfrwt beam="2">  1        2 0.34235208E+00 0.61366644E+03</pdfrwt>
<totfact> 0.64998043E+00</totfact>
</mgrwt>
</event>
<event>
 5    1  0.2349912E-004  0.6605212E+03  0.7818608E-02  0.9787235E-01
         13   -1    0    0    0    0  0.00000000000E+00  0.00000000000E+00  0.10000000000E+04  0.10000000000E+04  0.00000000000E+00 0. -1.
          2   -1    0    0  501    0 -0.00000000000E+00 -0.00000000000E+00 -0.10907206672E+03  0.10907206672E+03  0.00000000000E+00 0. -1.
    9000006    2    1    2  501    0  0.00000000000E+00  0.00000000000E+00  0.89092793328E+03  0.11090720667E+04  0.66052120851E+03 0.  0.
         13    1    3    3    0    0  0.18570801105E+03 -0.27082709055E+03  0.38640192337E+03  0.50709094325E+03  0.00000000000E+00 0. -1.
          2    1    3    3  501    0 -0.18570801105E+03  0.27082709055E+03  0.50452600990E+03  0.60198112347E+03  0.00000000000E+00 0. -1.
<mgrwt>
<rscale>  0 0.66052121E+03</rscale>
<asrwt>0</asrwt>
<pdfrwt beam="1">0</pdfrwt>
<pdfrwt beam="2">  1        2 0.39662653E+00 0.66052121E+03</pdfrwt>
<totfact> 0.40970356E+00</totfact>
</mgrwt>
</event>
<event>
 5    1  0.2349912E-004  0.6533349E+03  0.7818608E-02  0.9800542E-01
         13   -1    0    0    0    0  0.00000000000E+00  0.00000000000E+00  0.10000000000E+04  0.10000000000E+04  0.00000000000E+00 0. -1.
          2   -1    0    0  501    0 -0.00000000000E+00 -0.00000000000E+00 -0.10671160687E+03  0.10671160687E+03  0.00000000000E+00 0. -1.
    9000006    2    1    2  501    0  0.00000000000E+00  0.00000000000E+00  0.89328839313E+03  0.11067116069E+04  0.65333485097E+03 0.  0.
         13    1    3    3    0    0 -0.28468219705E+02 -0.28649904072E+03  0.70807975638E+03  0.76437496117E+03  0.00000000000E+00 0. -1.
          2    1    3    3  501    0  0.28468219705E+02  0.28649904072E+03  0.18520863675E+03  0.34233664571E+03  0.00000000000E+00 0. -1.
<mgrwt>
<rscale>  0 0.65333485E+03</rscale>
<asrwt>0</asrwt>
<pdfrwt beam="1">0</pdfrwt>
<pdfrwt beam="2">  1        2 0.38804303E+00 0.65333485E+03</pdfrwt>
<totfact> 0.44127026E+00</totfact>
</mgrwt>
</event>
<event>
 5    1  0.2349912E-004  0.5643745E+03  0.7818608E-02  0.9982205E-01
         13   -1    0    0    0    0  0.00000000000E+00  0.00000000000E+00  0.10000000000E+04  0.10000000000E+04  0.00000000000E+00 0. -1.
          2   -1    0    0  501    0 -0.00000000000E+00 -0.00000000000E+00 -0.79629633206E+02  0.79629633206E+02  0.00000000000E+00 0. -1.
    9000006    2    1    2  501    0  0.00000000000E+00  0.00000000000E+00  0.92037036679E+03  0.10796296332E+04  0.56437446153E+03 0.  0.
         13    1    3    3    0    0  0.17251462822E+03 -0.20722075086E+03  0.30096132498E+03  0.40407852661E+03  0.00000000000E+00 0. -1.
          2    1    3    3  501    0 -0.17251462822E+03  0.20722075086E+03  0.61940904181E+03  0.67555110659E+03  0.00000000000E+00 0. -1.
<mgrwt>
<rscale>  0 0.56437446E+03</rscale>
<asrwt>0</asrwt>
<pdfrwt beam="1">0</pdfrwt>
<pdfrwt beam="2">  1        2 0.28956291E+00 0.56437446E+03</pdfrwt>
<totfact> 0.10061149E+01</totfact>
</mgrwt>
</event>
<event>
 5    1  0.2349912E-004  0.6497661E+03  0.7818608E-02  0.9807218E-01
         13   -1    0    0    0    0  0.00000000000E+00  0.00000000000E+00  0.10000000000E+04  0.10000000000E+04  0.00000000000E+00 0. -1.
          2   -1    0    0  501    0 -0.00000000000E+00 -0.00000000000E+00 -0.10554899063E+03  0.10554899063E+03  0.00000000000E+00 0. -1.
    9000006    2    1    2  501    0  0.00000000000E+00  0.00000000000E+00  0.89445100937E+03  0.11055489906E+04  0.64976608292E+03 0.  0.
         13    1    3    3    0    0  0.17078152774E+03  0.24499802624E+03  0.22960771908E+03  0.37670952701E+03  0.00000000000E+00 0. -1.
          2    1    3    3  501    0 -0.17078152774E+03 -0.24499802624E+03  0.66484329029E+03  0.72883946362E+03  0.00000000000E+00 0. -1.
<mgrwt>
<rscale>  0 0.64976608E+03</rscale>
<asrwt>0</asrwt>
<pdfrwt beam="1">0</pdfrwt>
<pdfrwt beam="2">  1        2 0.38381532E+00 0.64976608E+03</pdfrwt>
<totfact> 0.45761269E+00</totfact>
</mgrwt>
</event>
<event>
 5    1  0.2349912E-004  0.6455593E+03  0.7818608E-02  0.9815148E-01
         13   -1    0    0    0    0  0.00000000000E+00  0.00000000000E+00  0.10000000000E+04  0.10000000000E+04  0.00000000000E+00 0. -1.
          2   -1    0    0  501    0 -0.00000000000E+00 -0.00000000000E+00 -0.10418668805E+03  0.10418668805E+03  0.00000000000E+00 0. -1.
    9000006    2    1    2  501    0  0.00000000000E+00  0.00000000000E+00  0.89581331195E+03  0.11041866880E+04  0.64555925536E+03 0.  0.
         13    1    3    3    0    0  0.28092745181E+03 -0.15752192214E+03  0.48432320046E+03  0.58163764633E+03  0.00000000000E+00 0. -1.
          4    1    3    3  501    0 -0.28092745181E+03  0.15752192214E+03  0.41149011150E+03  0.52254904171E+03  0.00000000000E+00 0. -1.
<mgrwt>
<rscale>  0 0.64555926E+03</rscale>
<asrwt>0</asrwt>
<pdfrwt beam="1">0</pdfrwt>
<pdfrwt beam="2">  1        2 0.37886148E+00 0.64555926E+03</pdfrwt>
<totfact> 0.47745983E+00</totfact>
</mgrwt>
</event>
<event>
 5    1  0.2349912E-004  0.6407213E+03  0.7818608E-02  0.9824348E-01
         13   -1    0    0    0    0  0.00000000000E+00  0.00000000000E+00  0.10000000000E+04  0.10000000000E+04  0.00000000000E+00 0. -1.
          2   -1    0    0  501    0 -0.00000000000E+00 -0.00000000000E+00 -0.10263093278E+03  0.10263093278E+03  0.00000000000E+00 0. -1.
    9000006    2    1    2  501    0  0.00000000000E+00  0.00000000000E+00  0.89736906722E+03  0.11026309328E+04  0.64072125851E+03 0.  0.
         13    1    3    3    0    0  0.10144810673E+03  0.26997920479E+03  0.68869257410E+03  0.74664446091E+03  0.00000000000E+00 0. -1.
          2    1    3    3  501    0 -0.10144810673E+03 -0.26997920479E+03  0.20867649312E+03  0.35598647187E+03  0.00000000000E+00 0. -1.
<mgrwt>
<rscale>  0 0.64072126E+03</rscale>
<asrwt>0</asrwt>
<pdfrwt beam="1">0</pdfrwt>
<pdfrwt beam="2">  1        2 0.37320418E+00 0.64072126E+03</pdfrwt>
<totfact> 0.50108328E+00</totfact>
</mgrwt>
</event>
<event>
 5    1  0.2349912E-004  0.6382094E+03  0.7818608E-02  0.9829158E-01
         13   -1    0    0    0    0  0.00000000000E+00  0.00000000000E+00  0.10000000000E+04  0.10000000000E+04  0.00000000000E+00 0. -1.
          2   -1    0    0  501    0 -0.00000000000E+00 -0.00000000000E+00 -0.10182780358E+03  0.10182780358E+03  0.00000000000E+00 0. -1.
    9000006    2    1    2  501    0  0.00000000000E+00  0.00000000000E+00  0.89817219642E+03  0.11018278036E+04  0.63820938126E+03 0.  0.
         13    1    3    3    0    0 -0.20496795626E+03 -0.14456854039E+03  0.10851016294E+03  0.27328809236E+03  0.00000000000E+00 0. -1.
          4    1    3    3  501    0  0.20496795626E+03  0.14456854039E+03  0.78966203348E+03  0.82853971122E+03  0.00000000000E+00 0. -1.
<mgrwt>
<rscale>  0 0.63820938E+03</rscale>
<asrwt>0</asrwt>
<pdfrwt beam="1">0</pdfrwt>
<pdfrwt beam="2">  1        2 0.37028370E+00 0.63820938E+03</pdfrwt>
<totfact> 0.51369274E+00</totfact>
</mgrwt>
</event>
<event>
 5    1  0.2349912E-004  0.6552470E+03  0.7818608E-02  0.9796983E-01
         13   -1    0    0    0    0  0.00000000000E+00  0.00000000000E+00  0.10000000000E+04  0.10000000000E+04  0.00000000000E+00 0. -1.
          2   -1    0    0  501    0 -0.00000000000E+00 -0.00000000000E+00 -0.10733714825E+03  0.10733714825E+03  0.00000000000E+00 0. -1.
    9000006    2    1    2  501    0  0.00000000000E+00  0.00000000000E+00  0.89266285175E+03  0.11073371482E+04  0.65524697099E+03 0.  0.
         13    1    3    3    0    0  0.96813046207E+02 -0.24702719569E+03  0.12151742751E+03  0.29182475309E+03  0.00000000000E+00 0. -1.
          2    1    3    3  501    0 -0.96813046207E+02  0.24702719569E+03  0.77114542424E+03  0.81551239516E+03  0.00000000000E+00 0. -1.
<mgrwt>
<rscale>  0 0.65524697E+03</rscale>
<asrwt>0</asrwt>
<pdfrwt beam="1">0</pdfrwt>
<pdfrwt beam="2">  1        2 0.39031773E+00 0.65524697E+03</pdfrwt>
<totfact> 0.43269763E+00</totfact>
</mgrwt>
</event>
<event>
 5    1  0.2349912E-004  0.6576467E+03  0.7818608E-02  0.9792536E-01
         13   -1    0    0    0    0  0.00000000000E+00  0.00000000000E+00  0.10000000000E+04  0.10000000000E+04  0.00000000000E+00 0. -1.
          2   -1    0    0  501    0 -0.00000000000E+00 -0.00000000000E+00 -0.10812478478E+03  0.10812478478E+03  0.00000000000E+00 0. -1.
    9000006    2    1    2  501    0  0.00000000000E+00  0.00000000000E+00  0.89187521522E+03  0.11081247848E+04  0.65764666738E+03 0.  0.
         13    1    3    3    0    0 -0.57289349451E+02 -0.23597951489E+03  0.72355551517E+02  0.25338454342E+03  0.00000000000E+00 0. -1.
          2    1    3    3  501    0  0.57289349451E+02  0.23597951489E+03  0.81951966370E+03  0.85474024136E+03  0.00000000000E+00 0. -1.
<mgrwt>
<rscale>  0 0.65764667E+03</rscale>
<asrwt>0</asrwt>
<pdfrwt beam="1">0</pdfrwt>
<pdfrwt beam="2">  1        2 0.39318186E+00 0.65764667E+03</pdfrwt>
<totfact> 0.42211771E+00</totfact>
</mgrwt>
</event>
<event>
 5    1  0.2349912E-004  0.6465185E+03  0.7818608E-02  0.9813334E-01
         13   -1    0    0    0    0  0.00000000000E+00  0.00000000000E+00  0.10000000000E+04  0.10000000000E+04  0.00000000000E+00 0. -1.
          2   -1    0    0  501    0 -0.00000000000E+00 -0.00000000000E+00 -0.10449654721E+03  0.10449654721E+03  0.00000000000E+00 0. -1.
    9000006    2    1    2  501    0  0.00000000000E+00  0.00000000000E+00  0.89550345279E+03  0.11044965472E+04  0.64651851393E+03 0.  0.
         13    1    3    3    0    0 -0.13472406518E+02  0.32286883309E+03  0.46212221267E+03  0.56389957312E+03  0.00000000000E+00 0. -1.
          4    1    3    3  501    0  0.13472406518E+02 -0.32286883309E+03  0.43338124011E+03  0.54059697409E+03  0.00000000000E+00 0. -1.
<mgrwt>
<rscale>  0 0.64651851E+03</rscale>
<asrwt>0</asrwt>
<pdfrwt beam="1">0</pdfrwt>
<pdfrwt beam="2">  1        2 0.37998825E+00 0.64651851E+03</pdfrwt>
<totfact> 0.47287801E+00</totfact>
</mgrwt>
</event>
<event>
 5    1  0.2349912E-004  0.5999320E+03  0.7818608E-02  0.9905547E-01
         13   -1    0    0    0    0  0.00000000000E+00  0.00000000000E+00  0.10000000000E+04  0.10000000000E+04  0.00000000000E+00 0. -1.
          2   -1    0    0  501    0 -0.00000000000E+00 -0.00000000000E+00 -0.89979587214E+02  0.89979587214E+02  0.00000000000E+00 0. -1.
    9000006    2    1    2  501    0  0.00000000000E+00  0.00000000000E+00  0.91002041279E+03  0.10899795872E+04  0.59993195352E+03 0.  0.
         13    1    3    3    0    0 -0.93837824126E+02  0.17729355551E+03  0.49806113013E+02  0.20668621375E+03  0.00000000000E+00 0. -1.
          4    1    3    3  501    0  0.93837824126E+02 -0.17729355551E+03  0.86021429977E+03  0.88329337346E+03  0.00000000000E+00 0. -1.
<mgrwt>
<rscale>  0 0.59993195E+03</rscale>
<asrwt>0</asrwt>
<pdfrwt beam="1">0</pdfrwt>
<pdfrwt beam="2">  1        2 0.32719919E+00 0.59993195E+03</pdfrwt>
<totfact> 0.73738459E+00</totfact>
</mgrwt>
</event>
<event>
 5    1  0.2349912E-004  0.6484759E+03  0.7818608E-02  0.9809643E-01
         13   -1    0    0    0    0  0.00000000000E+00  0.00000000000E+00  0.10000000000E+04  0.10000000000E+04  0.00000000000E+00 0. -1.
          2   -1    0    0  501    0 -0.00000000000E+00 -0.00000000000E+00 -0.10513026206E+03  0.10513026206E+03  0.00000000000E+00 0. -1.
    9000006    2    1    2  501    0  0.00000000000E+00  0.00000000000E+00  0.89486973794E+03  0.11051302621E+04  0.64847594267E+03 0.  0.
         13    1    3    3    0    0 -0.19996668344E+03 -0.25103055273E+03  0.52603599790E+03  0.61621172009E+03  0.00000000000E+00 0. -1.
          4    1    3    3  501    0  0.19996668344E+03  0.25103055273E+03  0.36883374004E+03  0.48891854197E+03  0.00000000000E+00 0. -1.
<mgrwt>
<rscale>  0 0.64847594E+03</rscale>
<asrwt>0</asrwt>
<pdfrwt beam="1">0</pdfrwt>
<pdfrwt beam="2">  1        2 0.38229267E+00 0.64847594E+03</pdfrwt>
<totfact> 0.46363173E+00</totfact>
</mgrwt>
</event>
<event>
 5    1  0.2349912E-004  0.6640430E+03  0.7818608E-02  0.9780779E-01
         13   -1    0    0    0    0  0.00000000000E+00  0.00000000000E+00  0.10000000000E+04  0.10000000000E+04  0.00000000000E+00 0. -1.
          2   -1    0    0  501    0 -0.00000000000E+00 -0.00000000000E+00 -0.11023828556E+03  0.11023828556E+03  0.00000000000E+00 0. -1.
    9000006    2    1    2  501    0  0.00000000000E+00  0.00000000000E+00  0.88976171444E+03  0.11102382856E+04  0.66404302741E+03 0.  0.
         13    1    3    3    0    0  0.18509365592E+03 -0.66159193567E+02 -0.25040175414E+01  0.19657815356E+03  0.00000000000E+00 0. -1.
          4    1    3    3  501    0 -0.18509365592E+03  0.66159193567E+02  0.89226573198E+03  0.91366013200E+03  0.00000000000E+00 0. -1.
<mgrwt>
<rscale>  0 0.66404303E+03</rscale>
<asrwt>0</asrwt>
<pdfrwt beam="1">0</pdfrwt>
<pdfrwt beam="2">  1        2 0.40086734E+00 0.66404303E+03</pdfrwt>
<totfact> 0.39487218E+00</totfact>
</mgrwt>
</event>
<event>
 5    1  0.2349912E-004  0.6186755E+03  0.7818608E-02  0.9867400E-01
         13   -1    0    0    0    0  0.00000000000E+00  0.00000000000E+00  0.10000000000E+04  0.10000000000E+04  0.00000000000E+00 0. -1.
          2   -1    0    0  501    0 -0.00000000000E+00 -0.00000000000E+00 -0.95689835650E+02  0.95689835650E+02  0.00000000000E+00 0. -1.
    9000006    2    1    2  501    0  0.00000000000E+00  0.00000000000E+00  0.90431016435E+03  0.10956898356E+04  0.61867547438E+03 0.  0.
         13    1    3    3    0    0 -0.54783682520E+02 -0.28647922477E+03  0.63465007433E+03  0.69846425459E+03  0.00000000000E+00 0. -1.
          4    1    3    3  501    0  0.54783682520E+02  0.28647922477E+03  0.26966009002E+03  0.39722558106E+03  0.00000000000E+00 0. -1.
<mgrwt>
<rscale>  0 0.61867547E+03</rscale>
<asrwt>0</asrwt>
<pdfrwt beam="1">0</pdfrwt>
<pdfrwt beam="2">  1        2 0.34796377E+00 0.61867547E+03</pdfrwt>
<totfact> 0.62016097E+00</totfact>
</mgrwt>
</event>
<event>
 5    1  0.2349912E-004  0.6378155E+03  0.7818608E-02  0.9829915E-01
         13   -1    0    0    0    0  0.00000000000E+00  0.00000000000E+00  0.10000000000E+04  0.10000000000E+04  0.00000000000E+00 0. -1.
          2   -1    0    0  501    0 -0.00000000000E+00 -0.00000000000E+00 -0.10170215226E+03  0.10170215226E+03  0.00000000000E+00 0. -1.
    9000006    2    1    2  501    0  0.00000000000E+00  0.00000000000E+00  0.89829784774E+03  0.11017021523E+04  0.63781549766E+03 0.  0.
         13    1    3    3    0    0  0.26533502580E+03  0.72962271963E+02  0.17075796438E+03  0.32385869055E+03  0.00000000000E+00 0. -1.
          4    1    3    3  501    0 -0.26533502580E+03 -0.72962271963E+02  0.72753988336E+03  0.77784346171E+03  0.00000000000E+00 0. -1.
<mgrwt>
<rscale>  0 0.63781550E+03</rscale>
<asrwt>0</asrwt>
<pdfrwt beam="1">0</pdfrwt>
<pdfrwt beam="2">  1        2 0.36982679E+00 0.63781550E+03</pdfrwt>
<totfact> 0.51569160E+00</totfact>
</mgrwt>
</event>
<event>
 5    1  0.2349912E-004  0.6546512E+03  0.7818608E-02  0.9798091E-01
         13   -1    0    0    0    0  0.00000000000E+00  0.00000000000E+00  0.10000000000E+04  0.10000000000E+04  0.00000000000E+00 0. -1.
          2   -1    0    0  501    0 -0.00000000000E+00 -0.00000000000E+00 -0.10714203888E+03  0.10714203888E+03  0.00000000000E+00 0. -1.
    9000006    2    1    2  501    0  0.00000000000E+00  0.00000000000E+00  0.89285796112E+03  0.11071420389E+04  0.65465117088E+03 0.  0.
         13    1    3    3    0    0 -0.27885821696E+03  0.85276099070E+02  0.69788920885E+03  0.75636186186E+03  0.00000000000E+00 0. -1.
          2    1    3    3  501    0  0.27885821696E+03 -0.85276099070E+02  0.19496875226E+03  0.35078017703E+03  0.00000000000E+00 0. -1.
<mgrwt>
<rscale>  0 0.65465117E+03</rscale>
<asrwt>0</asrwt>
<pdfrwt beam="1">0</pdfrwt>
<pdfrwt beam="2">  1        2 0.38960824E+00 0.65465117E+03</pdfrwt>
<totfact> 0.43535518E+00</totfact>
</mgrwt>
</event>
<event>
 5    1  0.2349912E-004  0.6495941E+03  0.7818608E-02  0.9807541E-01
         13   -1    0    0    0    0  0.00000000000E+00  0.00000000000E+00  0.10000000000E+04  0.10000000000E+04  0.00000000000E+00 0. -1.
          2   -1    0    0  501    0 -0.00000000000E+00 -0.00000000000E+00 -0.10549311938E+03  0.10549311938E+03  0.00000000000E+00 0. -1.
    9000006    2    1    2  501    0  0.00000000000E+00  0.00000000000E+00  0.89450688062E+03  0.11054931194E+04  0.64959408674E+03 0.  0.
         13    1    3    3    0    0  0.18117978783E+03 -0.26134282726E+03  0.33479239363E+03  0.46174899644E+03  0.00000000000E+00 0. -1.
          2    1    3    3  501    0 -0.18117978783E+03  0.26134282726E+03  0.55971448699E+03  0.64374412294E+03  0.00000000000E+00 0. -1.
<mgrwt>
<rscale>  0 0.64959409E+03</rscale>
<asrwt>0</asrwt>
<pdfrwt beam="1">0</pdfrwt>
<pdfrwt beam="2">  1        2 0.38361215E+00 0.64959409E+03</pdfrwt>
<totfact> 0.45841169E+00</totfact>
</mgrwt>
</event>
<event>
 5    1  0.2349912E-004  0.6306940E+03  0.7818608E-02  0.9843695E-01
         13   -1    0    0    0    0  0.00000000000E+00  0.00000000000E+00  0.10000000000E+04  0.10000000000E+04  0.00000000000E+00 0. -1.
          2   -1    0    0  501    0 -0.00000000000E+00 -0.00000000000E+00 -0.99443736202E+02  0.99443736202E+02  0.00000000000E+00 0. -1.
    9000006    2    1    2  501    0  0.00000000000E+00  0.00000000000E+00  0.90055626380E+03  0.10994437362E+04  0.63069401837E+03 0.  0.
         13    1    3    3    0    0 -0.24609166757E+03 -0.10903346349E+03  0.73668971860E+03  0.78432209359E+03  0.00000000000E+00 0. -1.
          4    1    3    3  501    0  0.24609166757E+03  0.10903346349E+03  0.16386654520E+03  0.31512164261E+03  0.00000000000E+00 0. -1.
<mgrwt>
<rscale>  0 0.63069402E+03</rscale>
<asrwt>0</asrwt>
<pdfrwt beam="1">0</pdfrwt>
<pdfrwt beam="2">  1        2 0.36161435E+00 0.63069402E+03</pdfrwt>
<totfact> 0.55285888E+00</totfact>
</mgrwt>
</event>
<event>
 5    1  0.2349912E-004  0.6465680E+03  0.7818608E-02  0.9813241E-01
         13   -1    0    0    0    0  0.00000000000E+00  0.00000000000E+00  0.10000000000E+04  0.10000000000E+04  0.00000000000E+00 0. -1.
          2   -1    0    0  501    0 -0.00000000000E+00 -0.00000000000E+00 -0.10451253004E+03  0.10451253004E+03  0.00000000000E+00 0. -1.
    9000006    2    1    2  501    0  0.00000000000E+00  0.00000000000E+00  0.89548746996E+03  0.11045125300E+04  0.64656795480E+03 0.  0.
         13    1    3    3    0    0 -0.91138236495E+02 -0.11444677300E+03  0.94021244155E+03  0.95152702392E+03  0.00000000000E+00 0. -1.
          4    1    3    3  501    0  0.91138236495E+02  0.11444677300E+03 -0.44724971592E+02  0.15298550613E+03  0.00000000000E+00 0. -1.
<mgrwt>
<rscale>  0 0.64656795E+03</rscale>
<asrwt>0</asrwt>
<pdfrwt beam="1">0</pdfrwt>
<pdfrwt beam="2">  1        2 0.38004637E+00 0.64656795E+03</pdfrwt>
<totfact> 0.47264276E+00</totfact>
</mgrwt>
</event>
<event>
 5    1  0.2349912E-004  0.6560086E+03  0.7818608E-02  0.9795569E-01
         13   -1    0    0    0    0  0.00000000000E+00  0.00000000000E+00  0.10000000000E+04  0.10000000000E+04  0.00000000000E+00 0. -1.
          2   -1    0    0  501    0 -0.00000000000E+00 -0.00000000000E+00 -0.10758683578E+03  0.10758683578E+03  0.00000000000E+00 0. -1.
    9000006    2    1    2  501    0  0.00000000000E+00  0.00000000000E+00  0.89241316422E+03  0.11075868358E+04  0.65600864563E+03 0.  0.
         13    1    3    3    0    0 -0.14216069582E+03  0.28941847945E+03  0.54770733698E+03  0.63557536663E+03  0.00000000000E+00 0. -1.
          4    1    3    3  501    0  0.14216069582E+03 -0.28941847945E+03  0.34470582723E+03  0.47201146915E+03  0.00000000000E+00 0. -1.
<mgrwt>
<rscale>  0 0.65600865E+03</rscale>
<asrwt>0</asrwt>
<pdfrwt beam="1">0</pdfrwt>
<pdfrwt beam="2">  1        2 0.39122568E+00 0.65600865E+03</pdfrwt>
<totfact> 0.42931808E+00</totfact>
</mgrwt>
</event>
<event>
 5    1  0.2349912E-004  0.6531779E+03  0.7818608E-02  0.9800834E-01
         13   -1    0    0    0    0  0.00000000000E+00  0.00000000000E+00  0.10000000000E+04  0.10000000000E+04  0.00000000000E+00 0. -1.
          2   -1    0    0  501    0 -0.00000000000E+00 -0.00000000000E+00 -0.10666035464E+03  0.10666035464E+03  0.00000000000E+00 0. -1.
    9000006    2    1    2  501    0  0.00000000000E+00  0.00000000000E+00  0.89333964536E+03  0.11066603546E+04  0.65317793789E+03 0.  0.
         13    1    3    3    0    0  0.13233414182E+03  0.95068731628E+02  0.92621123475E+03  0.94043481444E+03  0.00000000000E+00 0. -1.
          4    1    3    3  501    0 -0.13233414182E+03 -0.95068731628E+02 -0.32871589391E+02  0.16622554020E+03  0.00000000000E+00 0. -1.
<mgrwt>
<rscale>  0 0.65317794E+03</rscale>
<asrwt>0</asrwt>
<pdfrwt beam="1">0</pdfrwt>
<pdfrwt beam="2">  1        2 0.38785665E+00 0.65317794E+03</pdfrwt>
<totfact> 0.44197940E+00</totfact>
</mgrwt>
</event>
<event>
 5    1  0.2349912E-004  0.6439818E+03  0.7818608E-02  0.9818138E-01
         13   -1    0    0    0    0  0.00000000000E+00  0.00000000000E+00  0.10000000000E+04  0.10000000000E+04  0.00000000000E+00 0. -1.
          2   -1    0    0  501    0 -0.00000000000E+00 -0.00000000000E+00 -0.10367812860E+03  0.10367812860E+03  0.00000000000E+00 0. -1.
    9000006    2    1    2  501    0  0.00000000000E+00  0.00000000000E+00  0.89632187140E+03  0.11036781286E+04  0.64398176557E+03 0.  0.
         13    1    3    3    0    0  0.14255003002E+03  0.22286266780E+03  0.76273172864E+03  0.80730909175E+03  0.00000000000E+00 0. -1.
          4    1    3    3  501    0 -0.14255003002E+03 -0.22286266780E+03  0.13359014276E+03  0.29636903684E+03  0.00000000000E+00 0. -1.
<mgrwt>
<rscale>  0 0.64398177E+03</rscale>
<asrwt>0</asrwt>
<pdfrwt beam="1">0</pdfrwt>
<pdfrwt beam="2">  1        2 0.37701217E+00 0.64398177E+03</pdfrwt>
<totfact> 0.48506753E+00</totfact>
</mgrwt>
</event>
<event>
 5    1  0.2349912E-004  0.5822472E+03  0.7818608E-02  0.9942938E-01
         13   -1    0    0    0    0  0.00000000000E+00  0.00000000000E+00  0.10000000000E+04  0.10000000000E+04  0.00000000000E+00 0. -1.
          2   -1    0    0  501    0 -0.00000000000E+00 -0.00000000000E+00 -0.84752940037E+02  0.84752940037E+02  0.00000000000E+00 0. -1.
    9000006    2    1    2  501    0  0.00000000000E+00  0.00000000000E+00  0.91524705996E+03  0.10847529400E+04  0.58224716414E+03 0.  0.
         13    1    3    3    0    0  0.27834729836E+03 -0.62698879107E+02  0.56536768876E+03  0.63328428959E+03  0.00000000000E+00 0. -1.
          2    1    3    3  501    0 -0.27834729836E+03  0.62698879107E+02  0.34987937120E+03  0.45146865045E+03  0.00000000000E+00 0. -1.
<mgrwt>
<rscale>  0 0.58224716E+03</rscale>
<asrwt>0</asrwt>
<pdfrwt beam="1">0</pdfrwt>
<pdfrwt beam="2">  1        2 0.30819316E+00 0.58224716E+03</pdfrwt>
<totfact> 0.86296964E+00</totfact>
</mgrwt>
</event>
<event>
 5    1  0.2349912E-004  0.6531377E+03  0.7818608E-02  0.9800909E-01
         13   -1    0    0    0    0  0.00000000000E+00  0.00000000000E+00  0.10000000000E+04  0.10000000000E+04  0.00000000000E+00 0. -1.
          2   -1    0    0  501    0 -0.00000000000E+00 -0.00000000000E+00 -0.10664721896E+03  0.10664721896E+03  0.00000000000E+00 0. -1.
    9000006    2    1    2  501    0  0.00000000000E+00  0.00000000000E+00  0.89335278104E+03  0.11066472190E+04  0.65313771582E+03 0.  0.
         13    1    3    3    0    0 -0.26964765606E+02 -0.20924599767E+03  0.86903066478E+03  0.89427360603E+03  0.00000000000E+00 0. -1.
          2    1    3    3  501    0  0.26964765606E+02  0.20924599767E+03  0.24322116266E+02  0.21237361292E+03  0.00000000000E+00 0. -1.
<mgrwt>
<rscale>  0 0.65313772E+03</rscale>
<asrwt>0</asrwt>
<pdfrwt beam="1">0</pdfrwt>
<pdfrwt beam="2">  1        2 0.38780889E+00 0.65313772E+03</pdfrwt>
<totfact> 0.44216132E+00</totfact>
</mgrwt>
</event>
<event>
 5    1  0.2349912E-004  0.6559332E+03  0.7818608E-02  0.9795709E-01
         13   -1    0    0    0    0  0.00000000000E+00  0.00000000000E+00  0.10000000000E+04  0.10000000000E+04  0.00000000000E+00 0. -1.
          2   -1    0    0  501    0 -0.00000000000E+00 -0.00000000000E+00 -0.10756208727E+03  0.10756208727E+03  0.00000000000E+00 0. -1.
    9000006    2    1    2  501    0  0.00000000000E+00  0.00000000000E+00  0.89243791273E+03  0.11075620873E+04  0.65593318951E+03 0.  0.
         13    1    3    3    0    0 -0.80538723631E+02  0.30295726657E+03  0.60898906897E+03  0.68493596598E+03  0.00000000000E+00 0. -1.
          2    1    3    3  501    0  0.80538723631E+02 -0.30295726657E+03  0.28344884376E+03  0.42262612130E+03  0.00000000000E+00 0. -1.
<mgrwt>
<rscale>  0 0.65593319E+03</rscale>
<asrwt>0</asrwt>
<pdfrwt beam="1">0</pdfrwt>
<pdfrwt beam="2">  1        2 0.39113569E+00 0.65593319E+03</pdfrwt>
<totfact> 0.42965198E+00</totfact>
</mgrwt>
</event>
<event>
 5    1  0.2349912E-004  0.6487022E+03  0.7818608E-02  0.9809217E-01
         13   -1    0    0    0    0  0.00000000000E+00  0.00000000000E+00  0.10000000000E+04  0.10000000000E+04  0.00000000000E+00 0. -1.
          2   -1    0    0  501    0 -0.00000000000E+00 -0.00000000000E+00 -0.10520364132E+03  0.10520364132E+03  0.00000000000E+00 0. -1.
    9000006    2    1    2  501    0  0.00000000000E+00  0.00000000000E+00  0.89479635868E+03  0.11052036413E+04  0.64870221617E+03 0.  0.
         13    1    3    3    0    0 -0.24684876125E+03  0.89040457050E+02  0.77218329909E+03  0.81555475679E+03  0.00000000000E+00 0. -1.
          4    1    3    3  501    0  0.24684876125E+03 -0.89040457050E+02  0.12261305959E+03  0.28964888452E+03  0.00000000000E+00 0. -1.
<mgrwt>
<rscale>  0 0.64870222E+03</rscale>
<asrwt>0</asrwt>
<pdfrwt beam="1">0</pdfrwt>
<pdfrwt beam="2">  1        2 0.38255950E+00 0.64870222E+03</pdfrwt>
<totfact> 0.46257177E+00</totfact>
</mgrwt>
</event>
<event>
 5    1  0.2349912E-004  0.6447729E+03  0.7818608E-02  0.9816637E-01
         13   -1    0    0    0    0  0.00000000000E+00  0.00000000000E+00  0.10000000000E+04  0.10000000000E+04  0.00000000000E+00 0. -1.
          2   -1    0    0  501    0 -0.00000000000E+00 -0.00000000000E+00 -0.10393302567E+03  0.10393302567E+03  0.00000000000E+00 0. -1.
    9000006    2    1    2  501    0  0.00000000000E+00  0.00000000000E+00  0.89606697433E+03  0.11039330257E+04  0.64477290785E+03 0.  0.
         13    1    3    3    0    0  0.66069987843E+02  0.29956777884E+03  0.61775810440E+03  0.68973268225E+03  0.00000000000E+00 0. -1.
          2    1    3    3  501    0 -0.66069987843E+02 -0.29956777884E+03  0.27830886992E+03  0.41420034342E+03  0.00000000000E+00 0. -1.
<mgrwt>
<rscale>  0 0.64477291E+03</rscale>
<asrwt>0</asrwt>
<pdfrwt beam="1">0</pdfrwt>
<pdfrwt beam="2">  1        2 0.37793907E+00 0.64477291E+03</pdfrwt>
<totfact> 0.48124075E+00</totfact>
</mgrwt>
</event>
<event>
 5    1  0.2349912E-004  0.6490777E+03  0.7818608E-02  0.9808511E-01
         13   -1    0    0    0    0  0.00000000000E+00  0.00000000000E+00  0.10000000000E+04  0.10000000000E+04  0.00000000000E+00 0. -1.
          2   -1    0    0  501    0 -0.00000000000E+00 -0.00000000000E+00 -0.10532546903E+03  0.10532546903E+03  0.00000000000E+00 0. -1.
    9000006    2    1    2  501    0  0.00000000000E+00  0.00000000000E+00  0.89467453097E+03  0.11053254690E+04  0.64907771194E+03 0.  0.
         13    1    3    3    0    0 -0.36957518702E+02 -0.28097937039E+03  0.71664702989E+03  0.77064792884E+03  0.00000000000E+00 0. -1.
          4    1    3    3  501    0  0.36957518702E+02  0.28097937039E+03  0.17802750107E+03  0.33467754019E+03  0.00000000000E+00 0. -1.
<mgrwt>
<rscale>  0 0.64907771E+03</rscale>
<asrwt>0</asrwt>
<pdfrwt beam="1">0</pdfrwt>
<pdfrwt beam="2">  1        2 0.38300251E+00 0.64907771E+03</pdfrwt>
<totfact> 0.46081683E+00</totfact>
</mgrwt>
</event>
<event>
 5    1  0.2349912E-004  0.6531289E+03  0.7818608E-02  0.9800926E-01
         13   -1    0    0    0    0  0.00000000000E+00  0.00000000000E+00  0.10000000000E+04  0.10000000000E+04  0.00000000000E+00 0. -1.
          2   -1    0    0  501    0 -0.00000000000E+00 -0.00000000000E+00 -0.10664432729E+03  0.10664432729E+03  0.00000000000E+00 0. -1.
    9000006    2    1    2  501    0  0.00000000000E+00  0.00000000000E+00  0.89335567271E+03  0.11066443273E+04  0.65312886107E+03 0.  0.
         13    1    3    3    0    0 -0.77697578013E+02  0.26910289446E+03  0.16218929342E+03  0.32366440696E+03  0.00000000000E+00 0. -1.
          4    1    3    3  501    0  0.77697578013E+02 -0.26910289446E+03  0.73116637929E+03  0.78297992033E+03  0.00000000000E+00 0. -1.
<mgrwt>
<rscale>  0 0.65312886E+03</rscale>
<asrwt>0</asrwt>
<pdfrwt beam="1">0</pdfrwt>
<pdfrwt beam="2">  1        2 0.38779837E+00 0.65312886E+03</pdfrwt>
<totfact> 0.44220137E+00</totfact>
</mgrwt>
</event>
<event>
 5    1  0.2349912E-004  0.6363410E+03  0.7818608E-02  0.9832752E-01
         13   -1    0    0    0    0  0.00000000000E+00  0.00000000000E+00  0.10000000000E+04  0.10000000000E+04  0.00000000000E+00 0. -1.
          2   -1    0    0  501    0 -0.00000000000E+00 -0.00000000000E+00 -0.10123247752E+03  0.10123247752E+03  0.00000000000E+00 0. -1.
    9000006    2    1    2  501    0  0.00000000000E+00  0.00000000000E+00  0.89876752248E+03  0.11012324775E+04  0.63634103286E+03 0.  0.
         13    1    3    3    0    0  0.51655146258E+02  0.30810651944E+03  0.55371567140E+03  0.63576640853E+03  0.00000000000E+00 0. -1.
          4    1    3    3  501    0 -0.51655146258E+02 -0.30810651944E+03  0.34505185108E+03  0.46546606900E+03  0.00000000000E+00 0. -1.
<mgrwt>
<rscale>  0 0.63634103E+03</rscale>
<asrwt>0</asrwt>
<pdfrwt beam="1">0</pdfrwt>
<pdfrwt beam="2">  1        2 0.36811888E+00 0.63634103E+03</pdfrwt>
<totfact> 0.52322650E+00</totfact>
</mgrwt>
</event>
<event>
 5    1  0.2349912E-004  0.6652889E+03  0.7818608E-02  0.9778506E-01
         13   -1    0    0    0    0  0.00000000000E+00  0.00000000000E+00  0.10000000000E+04  0.10000000000E+04  0.00000000000E+00 0. -1.
          2   -1    0    0  501    0 -0.00000000000E+00 -0.00000000000E+00 -0.11065232149E+03  0.11065232149E+03  0.00000000000E+00 0. -1.
    9000006    2    1    2  501    0  0.00000000000E+00  0.00000000000E+00  0.88934767851E+03  0.11106523215E+04  0.66528887406E+03 0.  0.
         13    1    3    3    0    0 -0.24685780444E+02  0.19056606046E+03 -0.86229599413E+01  0.19235167427E+03  0.00000000000E+00 0. -1.
          2    1    3    3  501    0  0.24685780444E+02 -0.19056606046E+03  0.89797063846E+03  0.91830064722E+03  0.00000000000E+00 0. -1.
<mgrwt>
<rscale>  0 0.66528887E+03</rscale>
<asrwt>0</asrwt>
<pdfrwt beam="1">0</pdfrwt>
<pdfrwt beam="2">  1        2 0.40237293E+00 0.66528887E+03</pdfrwt>
<totfact> 0.38972380E+00</totfact>
</mgrwt>
</event>
<event>
 5    1  0.2349912E-004  0.6374196E+03  0.7818608E-02  0.9830676E-01
         13   -1    0    0    0    0  0.00000000000E+00  0.00000000000E+00  0.10000000000E+04  0.10000000000E+04  0.00000000000E+00 0. -1.
          4   -1    0    0  501    0 -0.00000000000E+00 -0.00000000000E+00 -0.10157593503E+03  0.10157593503E+03  0.00000000000E+00 0. -1.
    9000006    2    1    2  501    0  0.00000000000E+00  0.00000000000E+00  0.89842406497E+03  0.11015759350E+04  0.63741959502E+03 0.  0.
         13    1    3    3    0    0 -0.27694620838E+03 -0.14288752734E+03  0.33380003217E+03  0.45666016827E+03  0.00000000000E+00 0. -1.
          4    1    3    3  501    0  0.27694620838E+03  0.14288752734E+03  0.56462403280E+03  0.64491576676E+03  0.00000000000E+00 0. -1.
<mgrwt>
<rscale>  0 0.63741960E+03</rscale>
<asrwt>0</asrwt>
<pdfrwt beam="1">0</pdfrwt>
<pdfrwt beam="2">  1        4 0.36936782E+00 0.63741960E+03</pdfrwt>
<totfact> 0.51658214E-02</totfact>
</mgrwt>
</event>
<event>
 5    1  0.2349912E-004  0.6519838E+03  0.7818608E-02  0.9803064E-01
         13   -1    0    0    0    0  0.00000000000E+00  0.00000000000E+00  0.10000000000E+04  0.10000000000E+04  0.00000000000E+00 0. -1.
          2   -1    0    0  501    0 -0.00000000000E+00 -0.00000000000E+00 -0.10627072803E+03  0.10627072803E+03  0.00000000000E+00 0. -1.
    9000006    2    1    2  501    0  0.00000000000E+00  0.00000000000E+00  0.89372927197E+03  0.11062707280E+04  0.65198382812E+03 0.  0.
         13    1    3    3    0    0  0.11466330010E+03 -0.28136183497E+03  0.64733266288E+03  0.71508861759E+03  0.00000000000E+00 0. -1.
          4    1    3    3  501    0 -0.11466330010E+03  0.28136183497E+03  0.24639660908E+03  0.39118211045E+03  0.00000000000E+00 0. -1.
<mgrwt>
<rscale>  0 0.65198383E+03</rscale>
<asrwt>0</asrwt>
<pdfrwt beam="1">0</pdfrwt>
<pdfrwt beam="2">  1        2 0.38643983E+00 0.65198383E+03</pdfrwt>
<totfact> 0.44740421E+00</totfact>
</mgrwt>
</event>
<event>
 5    1  0.2349912E-004  0.6489036E+03  0.7818608E-02  0.9808839E-01
         13   -1    0    0    0    0  0.00000000000E+00  0.00000000000E+00  0.10000000000E+04  0.10000000000E+04  0.00000000000E+00 0. -1.
          2   -1    0    0  501    0 -0.00000000000E+00 -0.00000000000E+00 -0.10526898376E+03  0.10526898376E+03  0.00000000000E+00 0. -1.
    9000006    2    1    2  501    0  0.00000000000E+00  0.00000000000E+00  0.89473101624E+03  0.11052689838E+04  0.64890364080E+03 0.  0.
         13    1    3    3    0    0 -0.57986392667E+02 -0.21628358593E+03  0.47444901820E+02  0.22889305360E+03  0.00000000000E+00 0. -1.
          2    1    3    3  501    0  0.57986392667E+02  0.21628358593E+03  0.84728611442E+03  0.87637593016E+03  0.00000000000E+00 0. -1.
<mgrwt>
<rscale>  0 0.64890364E+03</rscale>
<asrwt>0</asrwt>
<pdfrwt beam="1">0</pdfrwt>
<pdfrwt beam="2">  1        2 0.38279711E+00 0.64890364E+03</pdfrwt>
<totfact> 0.46162975E+00</totfact>
</mgrwt>
</event>
<event>
 5    1  0.2349912E-004  0.6679723E+03  0.7818608E-02  0.9773628E-01
         13   -1    0    0    0    0  0.00000000000E+00  0.00000000000E+00  0.10000000000E+04  0.10000000000E+04  0.00000000000E+00 0. -1.
          2   -1    0    0  501    0 -0.00000000000E+00 -0.00000000000E+00 -0.11154674508E+03  0.11154674508E+03  0.00000000000E+00 0. -1.
    9000006    2    1    2  501    0  0.00000000000E+00  0.00000000000E+00  0.88845325492E+03  0.11115467451E+04  0.66797229007E+03 0.  0.
         13    1    3    3    0    0  0.28654291998E+03  0.16913187476E+03  0.39616120602E+03  0.51735494316E+03  0.00000000000E+00 0. -1.
          2    1    3    3  501    0 -0.28654291998E+03 -0.16913187476E+03  0.49229204890E+03  0.59419180192E+03  0.00000000000E+00 0. -1.
<mgrwt>
<rscale>  0 0.66797229E+03</rscale>
<asrwt>0</asrwt>
<pdfrwt beam="1">0</pdfrwt>
<pdfrwt beam="2">  1        2 0.40562538E+00 0.66797229E+03</pdfrwt>
<totfact> 0.37880678E+00</totfact>
</mgrwt>
</event>
<event>
 5    1  0.2349912E-004  0.6492659E+03  0.7818608E-02  0.9808158E-01
         13   -1    0    0    0    0  0.00000000000E+00  0.00000000000E+00  0.10000000000E+04  0.10000000000E+04  0.00000000000E+00 0. -1.
          2   -1    0    0  501    0 -0.00000000000E+00 -0.00000000000E+00 -0.10538655622E+03  0.10538655622E+03  0.00000000000E+00 0. -1.
    9000006    2    1    2  501    0  0.00000000000E+00  0.00000000000E+00  0.89461344378E+03  0.11053865562E+04  0.64926591231E+03 0.  0.
         13    1    3    3    0    0 -0.34715579595E+02  0.21042661919E+03  0.86399599436E+03  0.88992899256E+03  0.00000000000E+00 0. -1.
          4    1    3    3  501    0  0.34715579595E+02 -0.21042661919E+03  0.30617449414E+02  0.21545756366E+03  0.00000000000E+00 0. -1.
<mgrwt>
<rscale>  0 0.64926591E+03</rscale>
<asrwt>0</asrwt>
<pdfrwt beam="1">0</pdfrwt>
<pdfrwt beam="2">  1        2 0.38322465E+00 0.64926591E+03</pdfrwt>
<totfact> 0.45993914E+00</totfact>
</mgrwt>
</event>
<event>
 5    1  0.2349912E-004  0.6539064E+03  0.7818608E-02  0.9799477E-01
         13   -1    0    0    0    0  0.00000000000E+00  0.00000000000E+00  0.10000000000E+04  0.10000000000E+04  0.00000000000E+00 0. -1.
          2   -1    0    0  501    0 -0.00000000000E+00 -0.00000000000E+00 -0.10689837923E+03  0.10689837923E+03  0.00000000000E+00 0. -1.
    9000006    2    1    2  501    0  0.00000000000E+00  0.00000000000E+00  0.89310162077E+03  0.11068983792E+04  0.65390635181E+03 0.  0.
         13    1    3    3    0    0  0.18159863157E+03 -0.17654151451E+03  0.96543129582E+02  0.27104528257E+03  0.00000000000E+00 0. -1.
          4    1    3    3  501    0 -0.18159863157E+03  0.17654151451E+03  0.79655849118E+03  0.83585309667E+03  0.00000000000E+00 0. -1.
<mgrwt>
<rscale>  0 0.65390635E+03</rscale>
<asrwt>0</asrwt>
<pdfrwt beam="1">0</pdfrwt>
<pdfrwt beam="2">  1        2 0.38872220E+00 0.65390635E+03</pdfrwt>
<totfact> 0.43869473E+00</totfact>
</mgrwt>
</event>
<event>
 5    1  0.2349912E-004  0.6466046E+03  0.7818608E-02  0.9813171E-01
         13   -1    0    0    0    0  0.00000000000E+00  0.00000000000E+00  0.10000000000E+04  0.10000000000E+04  0.00000000000E+00 0. -1.
          2   -1    0    0  501    0 -0.00000000000E+00 -0.00000000000E+00 -0.10452437766E+03  0.10452437766E+03  0.00000000000E+00 0. -1.
    9000006    2    1    2  501    0  0.00000000000E+00  0.00000000000E+00  0.89547562234E+03  0.11045243777E+04  0.64660460148E+03 0.  0.
         13    1    3    3    0    0  0.28872634245E+03  0.45095959111E+01  0.69610871611E+03  0.75362496105E+03  0.00000000000E+00 0. -1.
          2    1    3    3  501    0 -0.28872634245E+03 -0.45095959111E+01  0.19936690623E+03  0.35089941661E+03  0.00000000000E+00 0. -1.
<mgrwt>
<rscale>  0 0.64660460E+03</rscale>
<asrwt>0</asrwt>
<pdfrwt beam="1">0</pdfrwt>
<pdfrwt beam="2">  1        2 0.38008945E+00 0.64660460E+03</pdfrwt>
<totfact> 0.47246845E+00</totfact>
</mgrwt>
</event>
<event>
 5    1  0.2349912E-004  0.6507593E+03  0.7818608E-02  0.9805355E-01
         13   -1    0    0    0    0  0.00000000000E+00  0.00000000000E+00  0.10000000000E+04  0.10000000000E+04  0.00000000000E+00 0. -1.
          2   -1    0    0  501    0 -0.00000000000E+00 -0.00000000000E+00 -0.10587191935E+03  0.10587191935E+03  0.00000000000E+00 0. -1.
    9000006    2    1    2  501    0  0.00000000000E+00  0.00000000000E+00  0.89412808065E+03  0.11058719194E+04  0.65075930835E+03 0.  0.
         13    1    3    3    0    0 -0.24408944751E+03  0.20777170707E+03  0.54203325770E+03  0.62972120267E+03  0.00000000000E+00 0. -1.
          2    1    3    3  501    0  0.24408944751E+03 -0.20777170707E+03  0.35209482295E+03  0.47615071668E+03  0.00000000000E+00 0. -1.
<mgrwt>
<rscale>  0 0.65075931E+03</rscale>
<asrwt>0</asrwt>
<pdfrwt beam="1">0</pdfrwt>
<pdfrwt beam="2">  1        2 0.38498961E+00 0.65075931E+03</pdfrwt>
<totfact> 0.45301926E+00</totfact>
</mgrwt>
</event>
<event>
 5    1  0.2349912E-004  0.6517095E+03  0.7818608E-02  0.9803577E-01
         13   -1    0    0    0    0  0.00000000000E+00  0.00000000000E+00  0.10000000000E+04  0.10000000000E+04  0.00000000000E+00 0. -1.
          2   -1    0    0  501    0 -0.00000000000E+00 -0.00000000000E+00 -0.10618132650E+03  0.10618132650E+03  0.00000000000E+00 0. -1.
    9000006    2    1    2  501    0  0.00000000000E+00  0.00000000000E+00  0.89381867350E+03  0.11061813265E+04  0.65170952580E+03 0.  0.
         13    1    3    3    0    0  0.10359891786E+03  0.22446196346E+03  0.80723397075E+03  0.84424083789E+03  0.00000000000E+00 0. -1.
          4    1    3    3  501    0 -0.10359891786E+03 -0.22446196346E+03  0.86584702742E+02  0.26194048861E+03  0.00000000000E+00 0. -1.
<mgrwt>
<rscale>  0 0.65170953E+03</rscale>
<asrwt>0</asrwt>
<pdfrwt beam="1">0</pdfrwt>
<pdfrwt beam="2">  1        2 0.38611473E+00 0.65170953E+03</pdfrwt>
<totfact> 0.44865743E+00</totfact>
</mgrwt>
</event>
<event>
 5    1  0.2349912E-004  0.6521292E+03  0.7818608E-02  0.9802792E-01
         13   -1    0    0    0    0  0.00000000000E+00  0.00000000000E+00  0.10000000000E+04  0.10000000000E+04  0.00000000000E+00 0. -1.
          2   -1    0    0  501    0 -0.00000000000E+00 -0.00000000000E+00 -0.10631811397E+03  0.10631811397E+03  0.00000000000E+00 0. -1.
    9000006    2    1    2  501    0  0.00000000000E+00  0.00000000000E+00  0.89368188603E+03  0.11063181140E+04  0.65212917117E+03 0.  0.
         13    1    3    3    0    0  0.11407825542E+02  0.30203554236E+03  0.65435550294E+03  0.72078896466E+03  0.00000000000E+00 0. -1.
          4    1    3    3  501    0 -0.11407825542E+02 -0.30203554236E+03  0.23932638308E+03  0.38552914932E+03  0.00000000000E+00 0. -1.
<mgrwt>
<rscale>  0 0.65212917E+03</rscale>
<asrwt>0</asrwt>
<pdfrwt beam="1">0</pdfrwt>
<pdfrwt beam="2">  1        2 0.38661214E+00 0.65212917E+03</pdfrwt>
<totfact> 0.44674125E+00</totfact>
</mgrwt>
</event>
<event>
 5    1  0.2349912E-004  0.6239467E+03  0.7818608E-02  0.9856933E-01
         13   -1    0    0    0    0  0.00000000000E+00  0.00000000000E+00  0.10000000000E+04  0.10000000000E+04  0.00000000000E+00 0. -1.
          2   -1    0    0  501    0 -0.00000000000E+00 -0.00000000000E+00 -0.97327372308E+02  0.97327372308E+02  0.00000000000E+00 0. -1.
    9000006    2    1    2  501    0  0.00000000000E+00  0.00000000000E+00  0.90267262769E+03  0.10973273723E+04  0.62394670384E+03 0.  0.
         13    1    3    3    0    0  0.17670460159E+03 -0.22934400865E+03  0.24696362655E+03  0.38054464044E+03  0.00000000000E+00 0. -1.
          2    1    3    3  501    0 -0.17670460159E+03  0.22934400865E+03  0.65570900114E+03  0.71678273187E+03  0.00000000000E+00 0. -1.
<mgrwt>
<rscale>  0 0.62394670E+03</rscale>
<asrwt>0</asrwt>
<pdfrwt beam="1">0</pdfrwt>
<pdfrwt beam="2">  1        2 0.35391846E+00 0.62394670E+03</pdfrwt>
<totfact> 0.58991758E+00</totfact>
</mgrwt>
</event>
<event>
 5    1  0.2349912E-004  0.6788408E+03  0.7818608E-02  0.9754118E-01
         13   -1    0    0    0    0  0.00000000000E+00  0.00000000000E+00  0.10000000000E+04  0.10000000000E+04  0.00000000000E+00 0. -1.
          2   -1    0    0  501    0 -0.00000000000E+00 -0.00000000000E+00 -0.11520619802E+03  0.11520619802E+03  0.00000000000E+00 0. -1.
    9000006    2    1    2  501    0  0.00000000000E+00  0.00000000000E+00  0.88479380198E+03  0.11152061980E+04  0.67884077078E+03 0.  0.
         13    1    3    3    0    0 -0.26906683381E+03  0.18522773368E+02  0.10385793008E+03  0.28900955664E+03  0.00000000000E+00 0. -1.
          4    1    3    3  501    0  0.26906683381E+03 -0.18522773368E+02  0.78093587191E+03  0.82619664138E+03  0.00000000000E+00 0. -1.
<mgrwt>
<rscale>  0 0.67884077E+03</rscale>
<asrwt>0</asrwt>
<pdfrwt beam="1">0</pdfrwt>
<pdfrwt beam="2">  1        2 0.41893251E+00 0.67884077E+03</pdfrwt>
<totfact> 0.33693082E+00</totfact>
</mgrwt>
</event>
<event>
 5    1  0.2349912E-004  0.6447227E+03  0.7818608E-02  0.9816732E-01
         13   -1    0    0    0    0  0.00000000000E+00  0.00000000000E+00  0.10000000000E+04  0.10000000000E+04  0.00000000000E+00 0. -1.
          2   -1    0    0  501    0 -0.00000000000E+00 -0.00000000000E+00 -0.10391684111E+03  0.10391684111E+03  0.00000000000E+00 0. -1.
    9000006    2    1    2  501    0  0.00000000000E+00  0.00000000000E+00  0.89608315889E+03  0.11039168411E+04  0.64472270353E+03 0.  0.
         13    1    3    3    0    0  0.26039355513E+03  0.18560917904E+03  0.51783002654E+03  0.60860784359E+03  0.00000000000E+00 0. -1.
          2    1    3    3  501    0 -0.26039355513E+03 -0.18560917904E+03  0.37825313234E+03  0.49530899752E+03  0.00000000000E+00 0. -1.
<mgrwt>
<rscale>  0 0.64472270E+03</rscale>
<asrwt>0</asrwt>
<pdfrwt beam="1">0</pdfrwt>
<pdfrwt beam="2">  1        2 0.37788022E+00 0.64472270E+03</pdfrwt>
<totfact> 0.48148291E+00</totfact>
</mgrwt>
</event>
<event>
 5    1  0.2349912E-004  0.6478954E+03  0.7818608E-02  0.9810736E-01
         13   -1    0    0    0    0  0.00000000000E+00  0.00000000000E+00  0.10000000000E+04  0.10000000000E+04  0.00000000000E+00 0. -1.
          2   -1    0    0  501    0 -0.00000000000E+00 -0.00000000000E+00 -0.10494210636E+03  0.10494210636E+03  0.00000000000E+00 0. -1.
    9000006    2    1    2  501    0  0.00000000000E+00  0.00000000000E+00  0.89505789364E+03  0.11049421064E+04  0.64789538157E+03 0.  0.
         13    1    3    3    0    0 -0.29555758719E+03 -0.10492280325E+03  0.58585863160E+03  0.66452495680E+03  0.00000000000E+00 0. -1.
          2    1    3    3  501    0  0.29555758719E+03  0.10492280325E+03  0.30919926204E+03  0.44041714957E+03  0.00000000000E+00 0. -1.
<mgrwt>
<rscale>  0 0.64789538E+03</rscale>
<asrwt>0</asrwt>
<pdfrwt beam="1">0</pdfrwt>
<pdfrwt beam="2">  1        2 0.38160846E+00 0.64789538E+03</pdfrwt>
<totfact> 0.46635973E+00</totfact>
</mgrwt>
</event>
<event>
 5    1  0.2349912E-004  0.6407674E+03  0.7818608E-02  0.9824259E-01
         13   -1    0    0    0    0  0.00000000000E+00  0.00000000000E+00  0.10000000000E+04  0.10000000000E+04  0.00000000000E+00 0. -1.
          2   -1    0    0  501    0 -0.00000000000E+00 -0.00000000000E+00 -0.10264569966E+03  0.10264569966E+03  0.00000000000E+00 0. -1.
    9000006    2    1    2  501    0  0.00000000000E+00  0.00000000000E+00  0.89735430034E+03  0.11026456997E+04  0.64076735141E+03 0.  0.
         13    1    3    3    0    0 -0.19901717584E+03 -0.13930346467E+03  0.80812857057E+03  0.84385133650E+03  0.00000000000E+00 0. -1.
          2    1    3    3  501    0  0.19901717584E+03  0.13930346467E+03  0.89225729771E+02  0.25879436315E+03  0.00000000000E+00 0. -1.
<mgrwt>
<rscale>  0 0.64076735E+03</rscale>
<asrwt>0</asrwt>
<pdfrwt beam="1">0</pdfrwt>
<pdfrwt beam="2">  1        2 0.37325788E+00 0.64076735E+03</pdfrwt>
<totfact> 0.50085411E+00</totfact>
</mgrwt>
</event>
<event>
 5    1  0.2349912E-004  0.6479716E+03  0.7818608E-02  0.9810593E-01
         13   -1    0    0    0    0  0.00000000000E+00  0.00000000000E+00  0.10000000000E+04  0.10000000000E+04  0.00000000000E+00 0. -1.
          2   -1    0    0  501    0 -0.00000000000E+00 -0.00000000000E+00 -0.10496678425E+03  0.10496678425E+03  0.00000000000E+00 0. -1.
    9000006    2    1    2  501    0  0.00000000000E+00  0.00000000000E+00  0.89503321575E+03  0.11049667842E+04  0.64797155570E+03 0.  0.
         13    1    3    3    0    0  0.23414104916E+03 -0.66254268159E+02  0.82751611546E+02  0.25702040418E+03  0.00000000000E+00 0. -1.
          2    1    3    3  501    0 -0.23414104916E+03  0.66254268159E+02  0.81228160420E+03  0.84794638007E+03  0.00000000000E+00 0. -1.
<mgrwt>
<rscale>  0 0.64797156E+03</rscale>
<asrwt>0</asrwt>
<pdfrwt beam="1">0</pdfrwt>
<pdfrwt beam="2">  1        2 0.38169820E+00 0.64797156E+03</pdfrwt>
<totfact> 0.46600110E+00</totfact>
</mgrwt>
</event>
<event>
 5    1  0.2349912E-004  0.6470973E+03  0.7818608E-02  0.9812241E-01
         13   -1    0    0    0    0  0.00000000000E+00  0.00000000000E+00  0.10000000000E+04  0.10000000000E+04  0.00000000000E+00 0. -1.
          2   -1    0    0  501    0 -0.00000000000E+00 -0.00000000000E+00 -0.10468371438E+03  0.10468371438E+03  0.00000000000E+00 0. -1.
    9000006    2    1    2  501    0  0.00000000000E+00  0.00000000000E+00  0.89531628562E+03  0.11046837144E+04  0.64709725506E+03 0.  0.
         13    1    3    3    0    0 -0.18119709972E+03  0.24951933813E+03  0.61484801626E+03  0.68784472968E+03  0.00000000000E+00 0. -1.
          2    1    3    3  501    0  0.18119709972E+03 -0.24951933813E+03  0.28046826936E+03  0.41683898470E+03  0.00000000000E+00 0. -1.
<mgrwt>
<rscale>  0 0.64709726E+03</rscale>
<asrwt>0</asrwt>
<pdfrwt beam="1">0</pdfrwt>
<pdfrwt beam="2">  1        2 0.38066886E+00 0.64709726E+03</pdfrwt>
<totfact> 0.47012983E+00</totfact>
</mgrwt>
</event>
<event>
 5    1  0.2349912E-004  0.6525368E+03  0.7818608E-02  0.9802031E-01
         13   -1    0    0    0    0  0.00000000000E+00  0.00000000000E+00  0.10000000000E+04  0.10000000000E+04  0.00000000000E+00 0. -1.
          2   -1    0    0  501    0 -0.00000000000E+00 -0.00000000000E+00 -0.10645108439E+03  0.10645108439E+03  0.00000000000E+00 0. -1.
    9000006    2    1    2  501    0  0.00000000000E+00  0.00000000000E+00  0.89354891561E+03  0.11064510844E+04  0.65253684767E+03 0.  0.
         13    1    3    3    0    0 -0.20590927930E+02 -0.32104613006E+03  0.53897101082E+03  0.62768173021E+03  0.00000000000E+00 0. -1.
          2    1    3    3  501    0  0.20590927930E+02  0.32104613006E+03  0.35457790479E+03  0.47876935418E+03  0.00000000000E+00 0. -1.
<mgrwt>
<rscale>  0 0.65253685E+03</rscale>
<asrwt>0</asrwt>
<pdfrwt beam="1">0</pdfrwt>
<pdfrwt beam="2">  1        2 0.38709567E+00 0.65253685E+03</pdfrwt>
<totfact> 0.44488564E+00</totfact>
</mgrwt>
</event>
<event>
 5    1  0.2349912E-004  0.6510539E+03  0.7818608E-02  0.9804804E-01
         13   -1    0    0    0    0  0.00000000000E+00  0.00000000000E+00  0.10000000000E+04  0.10000000000E+04  0.00000000000E+00 0. -1.
          2   -1    0    0  501    0 -0.00000000000E+00 -0.00000000000E+00 -0.10596779365E+03  0.10596779365E+03  0.00000000000E+00 0. -1.
    9000006    2    1    2  501    0  0.00000000000E+00  0.00000000000E+00  0.89403220635E+03  0.11059677937E+04  0.65105389531E+03 0.  0.
         13    1    3    3    0    0  0.12565313360E+03 -0.32223588250E+02 -0.60165646069E+02  0.14299291797E+03  0.00000000000E+00 0. -1.
          4    1    3    3  501    0 -0.12565313360E+03  0.32223588250E+02  0.95419785242E+03  0.96297487568E+03  0.00000000000E+00 0. -1.
<mgrwt>
<rscale>  0 0.65105390E+03</rscale>
<asrwt>0</asrwt>
<pdfrwt beam="1">0</pdfrwt>
<pdfrwt beam="2">  1        2 0.38533824E+00 0.65105390E+03</pdfrwt>
<totfact> 0.45166360E+00</totfact>
</mgrwt>
</event>
<event>
 5    1  0.2349912E-004  0.6716455E+03  0.7818608E-02  0.9766990E-01
         13   -1    0    0    0    0  0.00000000000E+00  0.00000000000E+00  0.10000000000E+04  0.10000000000E+04  0.00000000000E+00 0. -1.
          2   -1    0    0  501    0 -0.00000000000E+00 -0.00000000000E+00 -0.11277690670E+03  0.11277690670E+03  0.00000000000E+00 0. -1.
    9000006    2    1    2  501    0  0.00000000000E+00  0.00000000000E+00  0.88722309330E+03  0.11127769067E+04  0.67164546214E+03 0.  0.
         13    1    3    3    0    0 -0.77906208950E+02  0.11074373015E+02 -0.97287025604E+02  0.12512707334E+03  0.00000000000E+00 0. -1.
          4    1    3    3  501    0  0.77906208950E+02 -0.11074373015E+02  0.98451011890E+03  0.98764983337E+03  0.00000000000E+00 0. -1.
<mgrwt>
<rscale>  0 0.67164546E+03</rscale>
<asrwt>0</asrwt>
<pdfrwt beam="1">0</pdfrwt>
<pdfrwt beam="2">  1        2 0.41009871E+00 0.67164546E+03</pdfrwt>
<totfact> 0.36423877E+00</totfact>
</mgrwt>
</event>
<event>
 5    1  0.2349912E-004  0.6522637E+03  0.7818608E-02  0.9802541E-01
         13   -1    0    0    0    0  0.00000000000E+00  0.00000000000E+00  0.10000000000E+04  0.10000000000E+04  0.00000000000E+00 0. -1.
          2   -1    0    0  501    0 -0.00000000000E+00 -0.00000000000E+00 -0.10636198437E+03  0.10636198437E+03  0.00000000000E+00 0. -1.
    9000006    2    1    2  501    0  0.00000000000E+00  0.00000000000E+00  0.89363801563E+03  0.11063619844E+04  0.65226370241E+03 0.  0.
         13    1    3    3    0    0 -0.59869036712E+02  0.31809760036E+03  0.37914982606E+03  0.49852279337E+03  0.00000000000E+00 0. -1.
          4    1    3    3  501    0  0.59869036712E+02 -0.31809760036E+03  0.51448818957E+03  0.60783919100E+03  0.00000000000E+00 0. -1.
<mgrwt>
<rscale>  0 0.65226370E+03</rscale>
<asrwt>0</asrwt>
<pdfrwt beam="1">0</pdfrwt>
<pdfrwt beam="2">  1        2 0.38677167E+00 0.65226370E+03</pdfrwt>
<totfact> 0.44612826E+00</totfact>
</mgrwt>
</event>
<event>
 5    1  0.2349912E-004  0.5921869E+03  0.7818608E-02  0.9921750E-01
         13   -1    0    0    0    0  0.00000000000E+00  0.00000000000E+00  0.10000000000E+04  0.10000000000E+04  0.00000000000E+00 0. -1.
          2   -1    0    0  501    0 -0.00000000000E+00 -0.00000000000E+00 -0.87671339943E+02  0.87671339943E+02  0.00000000000E+00 0. -1.
    9000006    2    1    2  501    0  0.00000000000E+00  0.00000000000E+00  0.91232866006E+03  0.10876713399E+04  0.59218692976E+03 0.  0.
         13    1    3    3    0    0  0.83358091506E+02 -0.28411739628E+03  0.45566586113E+03  0.54341755887E+03  0.00000000000E+00 0. -1.
          2    1    3    3  501    0 -0.83358091506E+02  0.28411739628E+03  0.45666279892E+03  0.54425378107E+03  0.00000000000E+00 0. -1.
<mgrwt>
<rscale>  0 0.59218693E+03</rscale>
<asrwt>0</asrwt>
<pdfrwt beam="1">0</pdfrwt>
<pdfrwt beam="2">  1        2 0.31880554E+00 0.59218693E+03</pdfrwt>
<totfact> 0.79050694E+00</totfact>
</mgrwt>
</event>
<event>
 5    1  0.2349912E-004  0.6540978E+03  0.7818608E-02  0.9799120E-01
         13   -1    0    0    0    0  0.00000000000E+00  0.00000000000E+00  0.10000000000E+04  0.10000000000E+04  0.00000000000E+00 0. -1.
          2   -1    0    0  501    0 -0.00000000000E+00 -0.00000000000E+00 -0.10696097593E+03  0.10696097593E+03  0.00000000000E+00 0. -1.
    9000006    2    1    2  501    0  0.00000000000E+00  0.00000000000E+00  0.89303902407E+03  0.11069609759E+04  0.65409777840E+03 0.  0.
         13    1    3    3    0    0 -0.25099123480E+03 -0.19296856291E+03  0.58532824928E+03  0.66546421814E+03  0.00000000000E+00 0. -1.
          2    1    3    3  501    0  0.25099123480E+03  0.19296856291E+03  0.30771077479E+03  0.44149675779E+03  0.00000000000E+00 0. -1.
<mgrwt>
<rscale>  0 0.65409778E+03</rscale>
<asrwt>0</asrwt>
<pdfrwt beam="1">0</pdfrwt>
<pdfrwt beam="2">  1        2 0.38894982E+00 0.65409778E+03</pdfrwt>
<totfact> 0.43783459E+00</totfact>
</mgrwt>
</event>
<event>
 5    1  0.2349912E-004  0.6474895E+03  0.7818608E-02  0.9811501E-01
         13   -1    0    0    0    0  0.00000000000E+00  0.00000000000E+00  0.10000000000E+04  0.10000000000E+04  0.00000000000E+00 0. -1.
          2   -1    0    0  501    0 -0.00000000000E+00 -0.00000000000E+00 -0.10481065754E+03  0.10481065754E+03  0.00000000000E+00 0. -1.
    9000006    2    1    2  501    0  0.00000000000E+00  0.00000000000E+00  0.89518934246E+03  0.11048106575E+04  0.64748948266E+03 0.  0.
         13    1    3    3    0    0  0.27620033046E+03  0.92738442568E+00  0.73576818994E+03  0.78590222796E+03  0.00000000000E+00 0. -1.
          2    1    3    3  501    0 -0.27620033046E+03 -0.92738442568E+00  0.15942115252E+03  0.31890842958E+03  0.00000000000E+00 0. -1.
<mgrwt>
<rscale>  0 0.64748948E+03</rscale>
<asrwt>0</asrwt>
<pdfrwt beam="1">0</pdfrwt>
<pdfrwt beam="2">  1        2 0.38113047E+00 0.64748948E+03</pdfrwt>
<totfact> 0.46827420E+00</totfact>
</mgrwt>
</event>
<event>
 5    1  0.2349912E-004  0.6708959E+03  0.7818608E-02  0.9768341E-01
         13   -1    0    0    0    0  0.00000000000E+00  0.00000000000E+00  0.10000000000E+04  0.10000000000E+04  0.00000000000E+00 0. -1.
          2   -1    0    0  501    0 -0.00000000000E+00 -0.00000000000E+00 -0.11252532972E+03  0.11252532972E+03  0.00000000000E+00 0. -1.
    9000006    2    1    2  501    0  0.00000000000E+00  0.00000000000E+00  0.88747467028E+03  0.11125253297E+04  0.67089590763E+03 0.  0.
         13    1    3    3    0    0 -0.10348854812E+03 -0.73745616533E+02 -0.71066227463E+02  0.14559774805E+03  0.00000000000E+00 0. -1.
          2    1    3    3  501    0  0.10348854812E+03  0.73745616533E+02  0.95854089774E+03  0.96692758167E+03  0.00000000000E+00 0. -1.
<mgrwt>
<rscale>  0 0.67089591E+03</rscale>
<asrwt>0</asrwt>
<pdfrwt beam="1">0</pdfrwt>
<pdfrwt beam="2">  1        2 0.40918388E+00 0.67089591E+03</pdfrwt>
<totfact> 0.36717665E+00</totfact>
</mgrwt>
</event>
<event>
 5    1  0.2349912E-004  0.6521151E+03  0.7818608E-02  0.9802818E-01
         13   -1    0    0    0    0  0.00000000000E+00  0.00000000000E+00  0.10000000000E+04  0.10000000000E+04  0.00000000000E+00 0. -1.
          2   -1    0    0  501    0 -0.00000000000E+00 -0.00000000000E+00 -0.10631353695E+03  0.10631353695E+03  0.00000000000E+00 0. -1.
    9000006    2    1    2  501    0  0.00000000000E+00  0.00000000000E+00  0.89368646305E+03  0.11063135370E+04  0.65211513386E+03 0.  0.
         13    1    3    3    0    0 -0.20378024716E+03 -0.27563048310E+02  0.87611958819E+03  0.89992868805E+03  0.00000000000E+00 0. -1.
          2    1    3    3  501    0  0.20378024716E+03  0.27563048310E+02  0.17566874858E+02  0.20638484891E+03  0.00000000000E+00 0. -1.
<mgrwt>
<rscale>  0 0.65211513E+03</rscale>
<asrwt>0</asrwt>
<pdfrwt beam="1">0</pdfrwt>
<pdfrwt beam="2">  1        2 0.38659550E+00 0.65211513E+03</pdfrwt>
<totfact> 0.44680525E+00</totfact>
</mgrwt>
</event>
<event>
 5    1  0.2349912E-004  0.6498537E+03  0.7818608E-02  0.9807054E-01
         13   -1    0    0    0    0  0.00000000000E+00  0.00000000000E+00  0.10000000000E+04  0.10000000000E+04  0.00000000000E+00 0. -1.
          2   -1    0    0  501    0 -0.00000000000E+00 -0.00000000000E+00 -0.10557746416E+03  0.10557746416E+03  0.00000000000E+00 0. -1.
    9000006    2    1    2  501    0  0.00000000000E+00  0.00000000000E+00  0.89442253584E+03  0.11055774642E+04  0.64985371943E+03 0.  0.
         13    1    3    3    0    0 -0.15191170545E+03 -0.19676479329E+03  0.91226955518E+02  0.26479408518E+03  0.00000000000E+00 0. -1.
          2    1    3    3  501    0  0.15191170545E+03  0.19676479329E+03  0.80319558032E+03  0.84078337898E+03  0.00000000000E+00 0. -1.
<mgrwt>
<rscale>  0 0.64985372E+03</rscale>
<asrwt>0</asrwt>
<pdfrwt beam="1">0</pdfrwt>
<pdfrwt beam="2">  1        2 0.38391886E+00 0.64985372E+03</pdfrwt>
<totfact> 0.45720598E+00</totfact>
</mgrwt>
</event>
<event>
 5    1  0.2349912E-004  0.6372250E+03  0.7818608E-02  0.9831050E-01
         13   -1    0    0    0    0  0.00000000000E+00  0.00000000000E+00  0.10000000000E+04  0.10000000000E+04  0.00000000000E+00 0. -1.
          2   -1    0    0  501    0 -0.00000000000E+00 -0.00000000000E+00 -0.10151393909E+03  0.10151393909E+03  0.00000000000E+00 0. -1.
    9000006    2    1    2  501    0  0.00000000000E+00  0.00000000000E+00  0.89848606091E+03  0.11015139391E+04  0.63722504374E+03 0.  0.
         13    1    3    3    0    0 -0.48292935955E+02  0.22769534490E+03  0.73149801429E+02  0.24398416179E+03  0.00000000000E+00 0. -1.
          2    1    3    3  501    0  0.48292935955E+02 -0.22769534490E+03  0.82533625948E+03  0.85752977731E+03  0.00000000000E+00 0. -1.
<mgrwt>
<rscale>  0 0.63722504E+03</rscale>
<asrwt>0</asrwt>
<pdfrwt beam="1">0</pdfrwt>
<pdfrwt beam="2">  1        2 0.36914238E+00 0.63722504E+03</pdfrwt>
<totfact> 0.51869904E+00</totfact>
</mgrwt>
</event>
<event>
 5    1  0.2349912E-004  0.6432215E+03  0.7818608E-02  0.9819582E-01
         13   -1    0    0    0    0  0.00000000000E+00  0.00000000000E+00  0.10000000000E+04  0.10000000000E+04  0.00000000000E+00 0. -1.
          2   -1    0    0  501    0 -0.00000000000E+00 -0.00000000000E+00 -0.10343347251E+03  0.10343347251E+03  0.00000000000E+00 0. -1.
    9000006    2    1    2  501    0  0.00000000000E+00  0.00000000000E+00  0.89656652749E+03  0.11034334725E+04  0.64322149375E+03 0.  0.
         13    1    3    3    0    0 -0.15585464215E+03  0.23183393532E+03  0.17490322117E+03  0.32958880415E+03  0.00000000000E+00 0. -1.
          2    1    3    3  501    0  0.15585464215E+03 -0.23183393532E+03  0.72166330633E+03  0.77384466836E+03  0.00000000000E+00 0. -1.
<mgrwt>
<rscale>  0 0.64322149E+03</rscale>
<asrwt>0</asrwt>
<pdfrwt beam="1">0</pdfrwt>
<pdfrwt beam="2">  1        2 0.37612251E+00 0.64322149E+03</pdfrwt>
<totfact> 0.48876666E+00</totfact>
</mgrwt>
</event>
<event>
 5    1  0.2349912E-004  0.5468020E+03  0.7818608E-02  0.1002237E+00
         13   -1    0    0    0    0  0.00000000000E+00  0.00000000000E+00  0.10000000000E+04  0.10000000000E+04  0.00000000000E+00 0. -1.
          2   -1    0    0  501    0 -0.00000000000E+00 -0.00000000000E+00 -0.74748101136E+02  0.74748101136E+02  0.00000000000E+00 0. -1.
    9000006    2    1    2  501    0  0.00000000000E+00  0.00000000000E+00  0.92525189886E+03  0.10747481011E+04  0.54680197928E+03 0.  0.
         13    1    3    3    0    0 -0.80201809640E+02 -0.12661772006E+03  0.13198220074E+02  0.15046119206E+03  0.00000000000E+00 0. -1.
          4    1    3    3  501    0  0.80201809640E+02  0.12661772006E+03  0.91205367879E+03  0.92428690908E+03  0.00000000000E+00 0. -1.
<mgrwt>
<rscale>  0 0.54680198E+03</rscale>
<asrwt>0</asrwt>
<pdfrwt beam="1">0</pdfrwt>
<pdfrwt beam="2">  1        2 0.27181185E+00 0.54680198E+03</pdfrwt>
<totfact> 0.11643326E+01</totfact>
</mgrwt>
</event>
<event>
 5    1  0.2349912E-004  0.6486059E+03  0.7818608E-02  0.9809399E-01
         13   -1    0    0    0    0  0.00000000000E+00  0.00000000000E+00  0.10000000000E+04  0.10000000000E+04  0.00000000000E+00 0. -1.
          2   -1    0    0  501    0 -0.00000000000E+00 -0.00000000000E+00 -0.10517238934E+03  0.10517238934E+03  0.00000000000E+00 0. -1.
    9000006    2    1    2  501    0  0.00000000000E+00  0.00000000000E+00  0.89482761066E+03  0.11051723893E+04  0.64860585673E+03 0.  0.
         13    1    3    3    0    0  0.24426305747E+03 -0.20960768022E+03  0.37984380118E+03  0.49787662543E+03  0.00000000000E+00 0. -1.
          4    1    3    3  501    0 -0.24426305747E+03  0.20960768022E+03  0.51498380947E+03  0.60729576392E+03  0.00000000000E+00 0. -1.
<mgrwt>
<rscale>  0 0.64860586E+03</rscale>
<asrwt>0</asrwt>
<pdfrwt beam="1">0</pdfrwt>
<pdfrwt beam="2">  1        2 0.38244586E+00 0.64860586E+03</pdfrwt>
<totfact> 0.46302293E+00</totfact>
</mgrwt>
</event>
<event>
 5    1  0.2349912E-004  0.6452564E+03  0.7818608E-02  0.9815721E-01
         13   -1    0    0    0    0  0.00000000000E+00  0.00000000000E+00  0.10000000000E+04  0.10000000000E+04  0.00000000000E+00 0. -1.
          2   -1    0    0  501    0 -0.00000000000E+00 -0.00000000000E+00 -0.10408894452E+03  0.10408894452E+03  0.00000000000E+00 0. -1.
    9000006    2    1    2  501    0  0.00000000000E+00  0.00000000000E+00  0.89591105548E+03  0.11040889445E+04  0.64525636618E+03 0.  0.
         13    1    3    3    0    0  0.16835126891E+03 -0.27456889904E+03  0.48036307821E+03  0.57834152278E+03  0.00000000000E+00 0. -1.
          2    1    3    3  501    0 -0.16835126891E+03  0.27456889904E+03  0.41554797727E+03  0.52574742175E+03  0.00000000000E+00 0. -1.
<mgrwt>
<rscale>  0 0.64525637E+03</rscale>
<asrwt>0</asrwt>
<pdfrwt beam="1">0</pdfrwt>
<pdfrwt beam="2">  1        2 0.37850605E+00 0.64525637E+03</pdfrwt>
<totfact> 0.47891351E+00</totfact>
</mgrwt>
</event>
<event>
 5    1  0.2349912E-004  0.6453247E+03  0.7818608E-02  0.9815592E-01
         13   -1    0    0    0    0  0.00000000000E+00  0.00000000000E+00  0.10000000000E+04  0.10000000000E+04  0.00000000000E+00 0. -1.
          2   -1    0    0  501    0 -0.00000000000E+00 -0.00000000000E+00 -0.10411099829E+03  0.10411099829E+03  0.00000000000E+00 0. -1.
    9000006    2    1    2  501    0  0.00000000000E+00  0.00000000000E+00  0.89588900171E+03  0.11041109983E+04  0.64532471917E+03 0.  0.
         13    1    3    3    0    0 -0.24303215692E+03 -0.19527532169E+03  0.59020899982E+03  0.66749063217E+03  0.00000000000E+00 0. -1.
          2    1    3    3  501    0  0.24303215692E+03  0.19527532169E+03  0.30568000189E+03  0.43662036612E+03  0.00000000000E+00 0. -1.
<mgrwt>
<rscale>  0 0.64532472E+03</rscale>
<asrwt>0</asrwt>
<pdfrwt beam="1">0</pdfrwt>
<pdfrwt beam="2">  1        2 0.37858625E+00 0.64532472E+03</pdfrwt>
<totfact> 0.47858517E+00</totfact>
</mgrwt>
</event>
<event>
 5    1  0.2349912E-004  0.6116273E+03  0.7818608E-02  0.9881572E-01
         13   -1    0    0    0    0  0.00000000000E+00  0.00000000000E+00  0.10000000000E+04  0.10000000000E+04  0.00000000000E+00 0. -1.
          2   -1    0    0  501    0 -0.00000000000E+00 -0.00000000000E+00 -0.93521987139E+02  0.93521987139E+02  0.00000000000E+00 0. -1.
    9000006    2    1    2  501    0  0.00000000000E+00  0.00000000000E+00  0.90647801286E+03  0.10935219871E+04  0.61162729546E+03 0.  0.
         13    1    3    3    0    0 -0.70516867795E+02  0.26528710414E+03  0.69425360545E+03  0.74655069817E+03  0.00000000000E+00 0. -1.
          4    1    3    3  501    0  0.70516867795E+02 -0.26528710414E+03  0.21222440741E+03  0.34697128897E+03  0.00000000000E+00 0. -1.
<mgrwt>
<rscale>  0 0.61162730E+03</rscale>
<asrwt>0</asrwt>
<pdfrwt beam="1">0</pdfrwt>
<pdfrwt beam="2">  1        2 0.34008067E+00 0.61162730E+03</pdfrwt>
<totfact> 0.66242784E+00</totfact>
</mgrwt>
</event>
<event>
 5    1  0.2349912E-004  0.6554805E+03  0.7818608E-02  0.9796549E-01
         13   -1    0    0    0    0  0.00000000000E+00  0.00000000000E+00  0.10000000000E+04  0.10000000000E+04  0.00000000000E+00 0. -1.
          2   -1    0    0  501    0 -0.00000000000E+00 -0.00000000000E+00 -0.10741367329E+03  0.10741367329E+03  0.00000000000E+00 0. -1.
    9000006    2    1    2  501    0  0.00000000000E+00  0.00000000000E+00  0.89258632671E+03  0.11074136733E+04  0.65548050557E+03 0.  0.
         13    1    3    3    0    0 -0.63792165298E+02 -0.24664040982E+03  0.97948103496E+02  0.27293728783E+03  0.00000000000E+00 0. -1.
          2    1    3    3  501    0  0.63792165298E+02  0.24664040982E+03  0.79463822321E+03  0.83447638546E+03  0.00000000000E+00 0. -1.
<mgrwt>
<rscale>  0 0.65548051E+03</rscale>
<asrwt>0</asrwt>
<pdfrwt beam="1">0</pdfrwt>
<pdfrwt beam="2">  1        2 0.39059600E+00 0.65548051E+03</pdfrwt>
<totfact> 0.43165931E+00</totfact>
</mgrwt>
</event>
<event>
 5    1  0.2349912E-004  0.6422471E+03  0.7818608E-02  0.9821437E-01
         13   -1    0    0    0    0  0.00000000000E+00  0.00000000000E+00  0.10000000000E+04  0.10000000000E+04  0.00000000000E+00 0. -1.
          2   -1    0    0  501    0 -0.00000000000E+00 -0.00000000000E+00 -0.10312034186E+03  0.10312034186E+03  0.00000000000E+00 0. -1.
    9000006    2    1    2  501    0  0.00000000000E+00  0.00000000000E+00  0.89687965814E+03  0.11031203419E+04  0.64224712335E+03 0.  0.
         13    1    3    3    0    0  0.65366980404E+02 -0.76201262508E+02  0.97235092994E+03  0.97752023278E+03  0.00000000000E+00 0. -1.
          4    1    3    3  501    0 -0.65366980404E+02  0.76201262508E+02 -0.75471271803E+02  0.12560010909E+03  0.00000000000E+00 0. -1.
<mgrwt>
<rscale>  0 0.64224712E+03</rscale>
<asrwt>0</asrwt>
<pdfrwt beam="1">0</pdfrwt>
<pdfrwt beam="2">  1        2 0.37498385E+00 0.64224712E+03</pdfrwt>
<totfact> 0.49353886E+00</totfact>
</mgrwt>
</event>
<event>
 5    1  0.2349912E-004  0.6115802E+03  0.7818608E-02  0.9881668E-01
         13   -1    0    0    0    0  0.00000000000E+00  0.00000000000E+00  0.10000000000E+04  0.10000000000E+04  0.00000000000E+00 0. -1.
          2   -1    0    0  501    0 -0.00000000000E+00 -0.00000000000E+00 -0.93507600395E+02  0.93507600395E+02  0.00000000000E+00 0. -1.
    9000006    2    1    2  501    0  0.00000000000E+00  0.00000000000E+00  0.90649239960E+03  0.10935076004E+04  0.61158024950E+03 0.  0.
         13    1    3    3    0    0 -0.68744930179E+02  0.22572041021E+03  0.80102106009E+03  0.83505108090E+03  0.00000000000E+00 0. -1.
          2    1    3    3  501    0  0.68744930179E+02 -0.22572041021E+03  0.10547133952E+03  0.25845651949E+03  0.00000000000E+00 0. -1.
<mgrwt>
<rscale>  0 0.61158025E+03</rscale>
<asrwt>0</asrwt>
<pdfrwt beam="1">0</pdfrwt>
<pdfrwt beam="2">  1        2 0.34002835E+00 0.61158025E+03</pdfrwt>
<totfact> 0.66271715E+00</totfact>
</mgrwt>
</event>
<event>
 5    1  0.2349912E-004  0.6486711E+03  0.7818608E-02  0.9809276E-01
         13   -1    0    0    0    0  0.00000000000E+00  0.00000000000E+00  0.10000000000E+04  0.10000000000E+04  0.00000000000E+00 0. -1.
          2   -1    0    0  501    0 -0.00000000000E+00 -0.00000000000E+00 -0.10519355196E+03  0.10519355196E+03  0.00000000000E+00 0. -1.
    9000006    2    1    2  501    0  0.00000000000E+00  0.00000000000E+00  0.89480644804E+03  0.11051935520E+04  0.64867110916E+03 0.  0.
         13    1    3    3    0    0  0.20184144945E+03  0.25305916233E+03  0.48209689272E+03  0.58068608071E+03  0.00000000000E+00 0. -1.
          2    1    3    3  501    0 -0.20184144945E+03 -0.25305916233E+03  0.41270955531E+03  0.52450747125E+03  0.00000000000E+00 0. -1.
<mgrwt>
<rscale>  0 0.64867111E+03</rscale>
<asrwt>0</asrwt>
<pdfrwt beam="1">0</pdfrwt>
<pdfrwt beam="2">  1        2 0.38252281E+00 0.64867111E+03</pdfrwt>
<totfact> 0.46271738E+00</totfact>
</mgrwt>
</event>
<event>
 5    1  0.2349912E-004  0.6583761E+03  0.7818608E-02  0.9791188E-01
         13   -1    0    0    0    0  0.00000000000E+00  0.00000000000E+00  0.10000000000E+04  0.10000000000E+04  0.00000000000E+00 0. -1.
          2   -1    0    0  501    0 -0.00000000000E+00 -0.00000000000E+00 -0.10836475765E+03  0.10836475765E+03  0.00000000000E+00 0. -1.
    9000006    2    1    2  501    0  0.00000000000E+00  0.00000000000E+00  0.89163524235E+03  0.11083647576E+04  0.65837605560E+03 0.  0.
         13    1    3    3    0    0 -0.75599354326E+02 -0.15188246245E+03 -0.29095268956E+02  0.17213389977E+03  0.00000000000E+00 0. -1.
          2    1    3    3  501    0  0.75599354326E+02  0.15188246245E+03  0.92073051131E+03  0.93623085787E+03  0.00000000000E+00 0. -1.
<mgrwt>
<rscale>  0 0.65837606E+03</rscale>
<asrwt>0</asrwt>
<pdfrwt beam="1">0</pdfrwt>
<pdfrwt beam="2">  1        2 0.39405450E+00 0.65837606E+03</pdfrwt>
<totfact> 0.41894106E+00</totfact>
</mgrwt>
</event>
<event>
 5    1  0.2349912E-004  0.6541632E+03  0.7818608E-02  0.9798998E-01
         13   -1    0    0    0    0  0.00000000000E+00  0.00000000000E+00  0.10000000000E+04  0.10000000000E+04  0.00000000000E+00 0. -1.
          2   -1    0    0  501    0 -0.00000000000E+00 -0.00000000000E+00 -0.10698236482E+03  0.10698236482E+03  0.00000000000E+00 0. -1.
    9000006    2    1    2  501    0  0.00000000000E+00  0.00000000000E+00  0.89301763518E+03  0.11069823648E+04  0.65416317482E+03 0.  0.
         13    1    3    3    0    0 -0.13772649233E+03 -0.19490746804E+03  0.68024806312E+02  0.24816301510E+03  0.00000000000E+00 0. -1.
          2    1    3    3  501    0  0.13772649233E+03  0.19490746804E+03  0.82499282886E+03  0.85881934973E+03  0.00000000000E+00 0. -1.
<mgrwt>
<rscale>  0 0.65416317E+03</rscale>
<asrwt>0</asrwt>
<pdfrwt beam="1">0</pdfrwt>
<pdfrwt beam="2">  1        2 0.38902760E+00 0.65416317E+03</pdfrwt>
<totfact> 0.43754103E+00</totfact>
</mgrwt>
</event>
<event>
 5    1  0.2349912E-004  0.6572940E+03  0.7818608E-02  0.9793188E-01
         13   -1    0    0    0    0  0.00000000000E+00  0.00000000000E+00  0.10000000000E+04  0.10000000000E+04  0.00000000000E+00 0. -1.
          2   -1    0    0  501    0 -0.00000000000E+00 -0.00000000000E+00 -0.10800885252E+03  0.10800885252E+03  0.00000000000E+00 0. -1.
    9000006    2    1    2  501    0  0.00000000000E+00  0.00000000000E+00  0.89199114748E+03  0.11080088525E+04  0.65729400582E+03 0.  0.
         13    1    3    3    0    0  0.30724443415E+03  0.48644627498E+02  0.62474003388E+03  0.69790081819E+03  0.00000000000E+00 0. -1.
          2    1    3    3  501    0 -0.30724443415E+03 -0.48644627498E+02  0.26725111360E+03  0.41010803433E+03  0.00000000000E+00 0. -1.
<mgrwt>
<rscale>  0 0.65729401E+03</rscale>
<asrwt>0</asrwt>
<pdfrwt beam="1">0</pdfrwt>
<pdfrwt beam="2">  1        2 0.39276029E+00 0.65729401E+03</pdfrwt>
<totfact> 0.42366017E+00</totfact>
</mgrwt>
</event>
<event>
 5    1  0.2349912E-004  0.6388999E+03  0.7818608E-02  0.9827834E-01
         13   -1    0    0    0    0  0.00000000000E+00  0.00000000000E+00  0.10000000000E+04  0.10000000000E+04  0.00000000000E+00 0. -1.
          2   -1    0    0  501    0 -0.00000000000E+00 -0.00000000000E+00 -0.10204827218E+03  0.10204827218E+03  0.00000000000E+00 0. -1.
    9000006    2    1    2  501    0  0.00000000000E+00  0.00000000000E+00  0.89795172782E+03  0.11020482722E+04  0.63889990508E+03 0.  0.
         13    1    3    3    0    0 -0.32102252319E+02 -0.18845697853E+03  0.75131489298E+01  0.19131919603E+03  0.00000000000E+00 0. -1.
          4    1    3    3  501    0  0.32102252319E+02  0.18845697853E+03  0.89043857889E+03  0.91072907615E+03  0.00000000000E+00 0. -1.
<mgrwt>
<rscale>  0 0.63889991E+03</rscale>
<asrwt>0</asrwt>
<pdfrwt beam="1">0</pdfrwt>
<pdfrwt beam="2">  1        2 0.37108541E+00 0.63889991E+03</pdfrwt>
<totfact> 0.51020268E+00</totfact>
</mgrwt>
</event>
<event>
 5    1  0.2349912E-004  0.6436597E+03  0.7818608E-02  0.9818750E-01
         13   -1    0    0    0    0  0.00000000000E+00  0.00000000000E+00  0.10000000000E+04  0.10000000000E+04  0.00000000000E+00 0. -1.
          2   -1    0    0  501    0 -0.00000000000E+00 -0.00000000000E+00 -0.10357443929E+03  0.10357443929E+03  0.00000000000E+00 0. -1.
    9000006    2    1    2  501    0  0.00000000000E+00  0.00000000000E+00  0.89642556071E+03  0.11035744393E+04  0.64365965941E+03 0.  0.
         13    1    3    3    0    0 -0.99718878918E+02 -0.27428006844E+03  0.21563598016E+03  0.36286676163E+03  0.00000000000E+00 0. -1.
          2    1    3    3  501    0  0.99718878918E+02  0.27428006844E+03  0.68078958056E+03  0.74070767766E+03  0.00000000000E+00 0. -1.
<mgrwt>
<rscale>  0 0.64365966E+03</rscale>
<asrwt>0</asrwt>
<pdfrwt beam="1">0</pdfrwt>
<pdfrwt beam="2">  1        2 0.37663512E+00 0.64365966E+03</pdfrwt>
<totfact> 0.48663215E+00</totfact>
</mgrwt>
</event>
<event>
 5    1  0.2349912E-004  0.6389042E+03  0.7818608E-02  0.9827825E-01
         13   -1    0    0    0    0  0.00000000000E+00  0.00000000000E+00  0.10000000000E+04  0.10000000000E+04  0.00000000000E+00 0. -1.
          2   -1    0    0  501    0 -0.00000000000E+00 -0.00000000000E+00 -0.10204965426E+03  0.10204965426E+03  0.00000000000E+00 0. -1.
    9000006    2    1    2  501    0  0.00000000000E+00  0.00000000000E+00  0.89795034574E+03  0.11020496543E+04  0.63890423151E+03 0.  0.
         13    1    3    3    0    0 -0.26955102728E+03 -0.23136247713E+02  0.15596137729E+03  0.31227711007E+03  0.00000000000E+00 0. -1.
          4    1    3    3  501    0  0.26955102728E+03  0.23136247713E+02  0.74198896845E+03  0.78977254420E+03  0.00000000000E+00 0. -1.
<mgrwt>
<rscale>  0 0.63890423E+03</rscale>
<asrwt>0</asrwt>
<pdfrwt beam="1">0</pdfrwt>
<pdfrwt beam="2">  1        2 0.37109043E+00 0.63890423E+03</pdfrwt>
<totfact> 0.51018087E+00</totfact>
</mgrwt>
</event>
<event>
 5    1  0.2349912E-004  0.6671966E+03  0.7818608E-02  0.9775035E-01
         13   -1    0    0    0    0  0.00000000000E+00  0.00000000000E+00  0.10000000000E+04  0.10000000000E+04  0.00000000000E+00 0. -1.
          2   -1    0    0  501    0 -0.00000000000E+00 -0.00000000000E+00 -0.11128783983E+03  0.11128783983E+03  0.00000000000E+00 0. -1.
    9000006    2    1    2  501    0  0.00000000000E+00  0.00000000000E+00  0.88871216017E+03  0.11112878398E+04  0.66719664215E+03 0.  0.
         13    1    3    3    0    0  0.13930513586E+03 -0.18790853783E+03  0.84051973477E+03  0.87246143984E+03  0.00000000000E+00 0. -1.
          4    1    3    3  501    0 -0.13930513586E+03  0.18790853783E+03  0.48192425406E+02  0.23882639999E+03  0.00000000000E+00 0. -1.
<mgrwt>
<rscale>  0 0.66719664E+03</rscale>
<asrwt>0</asrwt>
<pdfrwt beam="1">0</pdfrwt>
<pdfrwt beam="2">  1        2 0.40468391E+00 0.66719664E+03</pdfrwt>
<totfact> 0.38193837E+00</totfact>
</mgrwt>
</event>
<event>
 5    1  0.2349912E-004  0.6174534E+03  0.7818608E-02  0.9869843E-01
         13   -1    0    0    0    0  0.00000000000E+00  0.00000000000E+00  0.10000000000E+04  0.10000000000E+04  0.00000000000E+00 0. -1.
          2   -1    0    0  501    0 -0.00000000000E+00 -0.00000000000E+00 -0.95312170638E+02  0.95312170638E+02  0.00000000000E+00 0. -1.
    9000006    2    1    2  501    0  0.00000000000E+00  0.00000000000E+00  0.90468782936E+03  0.10953121706E+04  0.61745338492E+03 0.  0.
         13    1    3    3    0    0 -0.29552547785E+02 -0.75009526446E+02  0.98099668525E+03  0.98430395641E+03  0.00000000000E+00 0. -1.
          2    1    3    3  501    0  0.29552547785E+02  0.75009526446E+02 -0.76308855889E+02  0.11100821422E+03  0.00000000000E+00 0. -1.
<mgrwt>
<rscale>  0 0.61745338E+03</rscale>
<asrwt>0</asrwt>
<pdfrwt beam="1">0</pdfrwt>
<pdfrwt beam="2">  1        2 0.34659044E+00 0.61745338E+03</pdfrwt>
<totfact> 0.62733802E+00</totfact>
</mgrwt>
</event>
<event>
 5    1  0.2349912E-004  0.6454084E+03  0.7818608E-02  0.9815433E-01
         13   -1    0    0    0    0  0.00000000000E+00  0.00000000000E+00  0.10000000000E+04  0.10000000000E+04  0.00000000000E+00 0. -1.
          2   -1    0    0  501    0 -0.00000000000E+00 -0.00000000000E+00 -0.10413801229E+03  0.10413801229E+03  0.00000000000E+00 0. -1.
    9000006    2    1    2  501    0  0.00000000000E+00  0.00000000000E+00  0.89586198771E+03  0.11041380123E+04  0.64540843591E+03 0.  0.
         13    1    3    3    0    0 -0.79685699873E+02  0.74354910245E+02  0.96756119832E+03  0.97368020208E+03  0.00000000000E+00 0. -1.
          2    1    3    3  501    0  0.79685699873E+02 -0.74354910245E+02 -0.71699210603E+02  0.13045781020E+03  0.00000000000E+00 0. -1.
<mgrwt>
<rscale>  0 0.64540844E+03</rscale>
<asrwt>0</asrwt>
<pdfrwt beam="1">0</pdfrwt>
<pdfrwt beam="2">  1        2 0.37868448E+00 0.64540844E+03</pdfrwt>
<totfact> 0.47818325E+00</totfact>
</mgrwt>
</event>
<event>
 5    1  0.2349912E-004  0.7021741E+03  0.7818608E-02  0.9713521E-01
         13   -1    0    0    0    0  0.00000000000E+00  0.00000000000E+00  0.10000000000E+04  0.10000000000E+04  0.00000000000E+00 0. -1.
          2   -1    0    0  501    0 -0.00000000000E+00 -0.00000000000E+00 -0.12326212796E+03  0.12326212796E+03  0.00000000000E+00 0. -1.
    9000006    2    1    2  501    0  0.00000000000E+00  0.00000000000E+00  0.87673787204E+03  0.11232621280E+04  0.70217413213E+03 0.  0.
         13    1    3    3    0    0  0.33877449004E+03 -0.22479556208E+02  0.58134810909E+03  0.67323035396E+03  0.00000000000E+00 0. -1.
          2    1    3    3  501    0 -0.33877449004E+03  0.22479556208E+02  0.29538976295E+03  0.45003177400E+03  0.00000000000E+00 0. -1.
<mgrwt>
<rscale>  0 0.70217413E+03</rscale>
<asrwt>0</asrwt>
<pdfrwt beam="1">0</pdfrwt>
<pdfrwt beam="2">  1        2 0.44822687E+00 0.70217413E+03</pdfrwt>
<totfact> 0.25886757E+00</totfact>
</mgrwt>
</event>
<event>
 5    1  0.2349912E-004  0.6593729E+03  0.7818608E-02  0.9789349E-01
         13   -1    0    0    0    0  0.00000000000E+00  0.00000000000E+00  0.10000000000E+04  0.10000000000E+04  0.00000000000E+00 0. -1.
          2   -1    0    0  501    0 -0.00000000000E+00 -0.00000000000E+00 -0.10869314457E+03  0.10869314457E+03  0.00000000000E+00 0. -1.
    9000006    2    1    2  501    0  0.00000000000E+00  0.00000000000E+00  0.89130685543E+03  0.11086931446E+04  0.65937286743E+03 0.  0.
         13    1    3    3    0    0  0.17513039400E+03 -0.27421527079E+02 -0.21745046352E+02  0.17859295084E+03  0.00000000000E+00 0. -1.
          2    1    3    3  501    0 -0.17513039400E+03  0.27421527079E+02  0.91305190178E+03  0.93010019374E+03  0.00000000000E+00 0. -1.
<mgrwt>
<rscale>  0 0.65937287E+03</rscale>
<asrwt>0</asrwt>
<pdfrwt beam="1">0</pdfrwt>
<pdfrwt beam="2">  1        2 0.39524863E+00 0.65937287E+03</pdfrwt>
<totfact> 0.41462923E+00</totfact>
</mgrwt>
</event>
<event>
 5    1  0.2349912E-004  0.6498945E+03  0.7818608E-02  0.9806977E-01
         13   -1    0    0    0    0  0.00000000000E+00  0.00000000000E+00  0.10000000000E+04  0.10000000000E+04  0.00000000000E+00 0. -1.
          2   -1    0    0  501    0 -0.00000000000E+00 -0.00000000000E+00 -0.10559071054E+03  0.10559071054E+03  0.00000000000E+00 0. -1.
    9000006    2    1    2  501    0  0.00000000000E+00  0.00000000000E+00  0.89440928946E+03  0.11055907105E+04  0.64989448540E+03 0.  0.
         13    1    3    3    0    0 -0.11777431153E+03  0.29378213521E+03  0.32205501039E+03  0.45155084004E+03  0.00000000000E+00 0. -1.
          2    1    3    3  501    0  0.11777431153E+03 -0.29378213521E+03  0.57235427907E+03  0.65403987049E+03  0.00000000000E+00 0. -1.
<mgrwt>
<rscale>  0 0.64989449E+03</rscale>
<asrwt>0</asrwt>
<pdfrwt beam="1">0</pdfrwt>
<pdfrwt beam="2">  1        2 0.38396703E+00 0.64989449E+03</pdfrwt>
<totfact> 0.45701689E+00</totfact>
</mgrwt>
</event>
<event>
 5    1  0.2349912E-004  0.6603219E+03  0.7818608E-02  0.9787601E-01
         13   -1    0    0    0    0  0.00000000000E+00  0.00000000000E+00  0.10000000000E+04  0.10000000000E+04  0.00000000000E+00 0. -1.
          2   -1    0    0  501    0 -0.00000000000E+00 -0.00000000000E+00 -0.10900625462E+03  0.10900625462E+03  0.00000000000E+00 0. -1.
    9000006    2    1    2  501    0  0.00000000000E+00  0.00000000000E+00  0.89099374538E+03  0.11090062546E+04  0.66032190521E+03 0.  0.
         13    1    3    3    0    0  0.25204911175E+03  0.26638991563E+02  0.80085109309E+03  0.84000051423E+03  0.00000000000E+00 0. -1.
          2    1    3    3  501    0 -0.25204911175E+03 -0.26638991563E+02  0.90142652285E+02  0.26900574039E+03  0.00000000000E+00 0. -1.
<mgrwt>
<rscale>  0 0.66032191E+03</rscale>
<asrwt>0</asrwt>
<pdfrwt beam="1">0</pdfrwt>
<pdfrwt beam="2">  1        2 0.39638722E+00 0.66032191E+03</pdfrwt>
<totfact> 0.41055526E+00</totfact>
</mgrwt>
</event>
<event>
 5    1  0.2349912E-004  0.6513980E+03  0.7818608E-02  0.9804160E-01
         13   -1    0    0    0    0  0.00000000000E+00  0.00000000000E+00  0.10000000000E+04  0.10000000000E+04  0.00000000000E+00 0. -1.
          2   -1    0    0  501    0 -0.00000000000E+00 -0.00000000000E+00 -0.10607983253E+03  0.10607983253E+03  0.00000000000E+00 0. -1.
    9000006    2    1    2  501    0  0.00000000000E+00  0.00000000000E+00  0.89392016747E+03  0.11060798325E+04  0.65139798136E+03 0.  0.
         13    1    3    3    0    0 -0.19132369360E+03  0.19053446530E+03  0.13769998314E+03  0.30309969244E+03  0.00000000000E+00 0. -1.
          2    1    3    3  501    0  0.19132369360E+03 -0.19053446530E+03  0.75622018432E+03  0.80298014009E+03  0.00000000000E+00 0. -1.
<mgrwt>
<rscale>  0 0.65139798E+03</rscale>
<asrwt>0</asrwt>
<pdfrwt beam="1">0</pdfrwt>
<pdfrwt beam="2">  1        2 0.38574566E+00 0.65139798E+03</pdfrwt>
<totfact> 0.45008402E+00</totfact>
</mgrwt>
</event>
<event>
 5    1  0.2349912E-004  0.6519150E+03  0.7818608E-02  0.9803192E-01
         13   -1    0    0    0    0  0.00000000000E+00  0.00000000000E+00  0.10000000000E+04  0.10000000000E+04  0.00000000000E+00 0. -1.
          2   -1    0    0  501    0 -0.00000000000E+00 -0.00000000000E+00 -0.10624828957E+03  0.10624828957E+03  0.00000000000E+00 0. -1.
    9000006    2    1    2  501    0  0.00000000000E+00  0.00000000000E+00  0.89375171043E+03  0.11062482896E+04  0.65191499313E+03 0.  0.
         13    1    3    3    0    0 -0.15031925276E+02  0.12513952576E+03 -0.63224461614E+02  0.14100777366E+03  0.00000000000E+00 0. -1.
          2    1    3    3  501    0  0.15031925276E+02 -0.12513952576E+03  0.95697617205E+03  0.96524051591E+03  0.00000000000E+00 0. -1.
<mgrwt>
<rscale>  0 0.65191499E+03</rscale>
<asrwt>0</asrwt>
<pdfrwt beam="1">0</pdfrwt>
<pdfrwt beam="2">  1        2 0.38635823E+00 0.65191499E+03</pdfrwt>
<totfact> 0.44771846E+00</totfact>
</mgrwt>
</event>
<event>
 5    1  0.2349912E-004  0.6540861E+03  0.7818608E-02  0.9799142E-01
         13   -1    0    0    0    0  0.00000000000E+00  0.00000000000E+00  0.10000000000E+04  0.10000000000E+04  0.00000000000E+00 0. -1.
          2   -1    0    0  501    0 -0.00000000000E+00 -0.00000000000E+00 -0.10695715259E+03  0.10695715259E+03  0.00000000000E+00 0. -1.
    9000006    2    1    2  501    0  0.00000000000E+00  0.00000000000E+00  0.89304284741E+03  0.11069571526E+04  0.65408608788E+03 0.  0.
         13    1    3    3    0    0  0.21110574459E+03  0.24512748211E+03  0.36528694327E+03  0.48794228020E+03  0.00000000000E+00 0. -1.
          4    1    3    3  501    0 -0.21110574459E+03 -0.24512748211E+03  0.52775590414E+03  0.61901487239E+03  0.00000000000E+00 0. -1.
<mgrwt>
<rscale>  0 0.65408609E+03</rscale>
<asrwt>0</asrwt>
<pdfrwt beam="1">0</pdfrwt>
<pdfrwt beam="2">  1        2 0.38893592E+00 0.65408609E+03</pdfrwt>
<totfact> 0.43788708E+00</totfact>
</mgrwt>
</event>
<event>
 5    1  0.2349912E-004  0.6423365E+03  0.7818608E-02  0.9821266E-01
         13   -1    0    0    0    0  0.00000000000E+00  0.00000000000E+00  0.10000000000E+04  0.10000000000E+04  0.00000000000E+00 0. -1.
          2   -1    0    0  501    0 -0.00000000000E+00 -0.00000000000E+00 -0.10314904828E+03  0.10314904828E+03  0.00000000000E+00 0. -1.
    9000006    2    1    2  501    0  0.00000000000E+00  0.00000000000E+00  0.89685095172E+03  0.11031490483E+04  0.64233651082E+03 0.  0.
         13    1    3    3    0    0 -0.14579804185E+03 -0.21582976626E+03  0.12571183986E+03  0.28921103661E+03  0.00000000000E+00 0. -1.
          2    1    3    3  501    0  0.14579804185E+03  0.21582976626E+03  0.77113911186E+03  0.81393801168E+03  0.00000000000E+00 0. -1.
<mgrwt>
<rscale>  0 0.64233651E+03</rscale>
<asrwt>0</asrwt>
<pdfrwt beam="1">0</pdfrwt>
<pdfrwt beam="2">  1        2 0.37508824E+00 0.64233651E+03</pdfrwt>
<totfact> 0.49309958E+00</totfact>
</mgrwt>
</event>
<event>
 5    1  0.2349912E-004  0.6353794E+03  0.7818608E-02  0.9834607E-01
         13   -1    0    0    0    0  0.00000000000E+00  0.00000000000E+00  0.10000000000E+04  0.10000000000E+04  0.00000000000E+00 0. -1.
          2   -1    0    0  501    0 -0.00000000000E+00 -0.00000000000E+00 -0.10092675269E+03  0.10092675269E+03  0.00000000000E+00 0. -1.
    9000006    2    1    2  501    0  0.00000000000E+00  0.00000000000E+00  0.89907324731E+03  0.11009267527E+04  0.63537942269E+03 0.  0.
         13    1    3    3    0    0  0.12315968712E+03 -0.60287472428E+02 -0.47009926975E+02  0.14495799770E+03  0.00000000000E+00 0. -1.
          4    1    3    3  501    0 -0.12315968712E+03  0.60287472428E+02  0.94608317428E+03  0.95596875499E+03  0.00000000000E+00 0. -1.
<mgrwt>
<rscale>  0 0.63537942E+03</rscale>
<asrwt>0</asrwt>
<pdfrwt beam="1">0</pdfrwt>
<pdfrwt beam="2">  1        2 0.36700715E+00 0.63537942E+03</pdfrwt>
<totfact> 0.52818534E+00</totfact>
</mgrwt>
</event>
<event>
 5    1  0.2349912E-004  0.6488450E+03  0.7818608E-02  0.9808949E-01
         13   -1    0    0    0    0  0.00000000000E+00  0.00000000000E+00  0.10000000000E+04  0.10000000000E+04  0.00000000000E+00 0. -1.
          2   -1    0    0  501    0 -0.00000000000E+00 -0.00000000000E+00 -0.10524996743E+03  0.10524996743E+03  0.00000000000E+00 0. -1.
    9000006    2    1    2  501    0  0.00000000000E+00  0.00000000000E+00  0.89475003257E+03  0.11052499674E+04  0.64884502751E+03 0.  0.
         13    1    3    3    0    0 -0.14116308601E+01  0.32337438882E+03  0.49169578172E+03  0.58850465572E+03  0.00000000000E+00 0. -1.
          4    1    3    3  501    0  0.14116308601E+01 -0.32337438882E+03  0.40305425085E+03  0.51674531171E+03  0.00000000000E+00 0. -1.
<mgrwt>
<rscale>  0 0.64884503E+03</rscale>
<asrwt>0</asrwt>
<pdfrwt beam="1">0</pdfrwt>
<pdfrwt beam="2">  1        2 0.38272796E+00 0.64884503E+03</pdfrwt>
<totfact> 0.46190372E+00</totfact>
</mgrwt>
</event>
<event>
 5    1  0.2349912E-004  0.6441527E+03  0.7818608E-02  0.9817813E-01
         13   -1    0    0    0    0  0.00000000000E+00  0.00000000000E+00  0.10000000000E+04  0.10000000000E+04  0.00000000000E+00 0. -1.
          2   -1    0    0  501    0 -0.00000000000E+00 -0.00000000000E+00 -0.10373318796E+03  0.10373318796E+03  0.00000000000E+00 0. -1.
    9000006    2    1    2  501    0  0.00000000000E+00  0.00000000000E+00  0.89626681204E+03  0.11037331880E+04  0.64415273953E+03 0.  0.
         13    1    3    3    0    0 -0.24471225633E+03 -0.79280657800E+02  0.78022607708E+03  0.82153651316E+03  0.00000000000E+00 0. -1.
          2    1    3    3  501    0  0.24471225633E+03  0.79280657800E+02  0.11604073496E+03  0.28219667480E+03  0.00000000000E+00 0. -1.
<mgrwt>
<rscale>  0 0.64415274E+03</rscale>
<asrwt>0</asrwt>
<pdfrwt beam="1">0</pdfrwt>
<pdfrwt beam="2">  1        2 0.37721239E+00 0.64415274E+03</pdfrwt>
<totfact> 0.48423858E+00</totfact>
</mgrwt>
</event>
<event>
 5    1  0.2349912E-004  0.6092558E+03  0.7818608E-02  0.9886387E-01
         13   -1    0    0    0    0  0.00000000000E+00  0.00000000000E+00  0.10000000000E+04  0.10000000000E+04  0.00000000000E+00 0. -1.
          2   -1    0    0  501    0 -0.00000000000E+00 -0.00000000000E+00 -0.92798164963E+02  0.92798164963E+02  0.00000000000E+00 0. -1.
    9000006    2    1    2  501    0  0.00000000000E+00  0.00000000000E+00  0.90720183504E+03  0.10927981650E+04  0.60925582464E+03 0.  0.
         13    1    3    3    0    0 -0.15237312744E+03  0.57512967286E+01 -0.19420803327E+02  0.15371341836E+03  0.00000000000E+00 0. -1.
          4    1    3    3  501    0  0.15237312744E+03 -0.57512967286E+01  0.92662263836E+03  0.93908474661E+03  0.00000000000E+00 0. -1.
<mgrwt>
<rscale>  0 0.60925582E+03</rscale>
<asrwt>0</asrwt>
<pdfrwt beam="1">0</pdfrwt>
<pdfrwt beam="2">  1        2 0.33744858E+00 0.60925582E+03</pdfrwt>
<totfact> 0.67713258E+00</totfact>
</mgrwt>
</event>
<event>
 5    1  0.2349912E-004  0.6459288E+03  0.7818608E-02  0.9814449E-01
         13   -1    0    0    0    0  0.00000000000E+00  0.00000000000E+00  0.10000000000E+04  0.10000000000E+04  0.00000000000E+00 0. -1.
          2   -1    0    0  501    0 -0.00000000000E+00 -0.00000000000E+00 -0.10430599602E+03  0.10430599602E+03  0.00000000000E+00 0. -1.
    9000006    2    1    2  501    0  0.00000000000E+00  0.00000000000E+00  0.89569400398E+03  0.11043059960E+04  0.64592877632E+03 0.  0.
         13    1    3    3    0    0 -0.71926311374E+02 -0.28847314890E+03  0.66353184951E+03  0.72709330022E+03  0.00000000000E+00 0. -1.
          4    1    3    3  501    0  0.71926311374E+02  0.28847314890E+03  0.23216215447E+03  0.37721269580E+03  0.00000000000E+00 0. -1.
<mgrwt>
<rscale>  0 0.64592878E+03</rscale>
<asrwt>0</asrwt>
<pdfrwt beam="1">0</pdfrwt>
<pdfrwt beam="2">  1        2 0.37929533E+00 0.64592878E+03</pdfrwt>
<totfact> 0.47569089E+00</totfact>
</mgrwt>
</event>
<event>
 5    1  0.2349912E-004  0.6476859E+03  0.7818608E-02  0.9811131E-01
         13   -1    0    0    0    0  0.00000000000E+00  0.00000000000E+00  0.10000000000E+04  0.10000000000E+04  0.00000000000E+00 0. -1.
          2   -1    0    0  501    0 -0.00000000000E+00 -0.00000000000E+00 -0.10487425293E+03  0.10487425293E+03  0.00000000000E+00 0. -1.
    9000006    2    1    2  501    0  0.00000000000E+00  0.00000000000E+00  0.89512574707E+03  0.11048742529E+04  0.64768588972E+03 0.  0.
         13    1    3    3    0    0 -0.25373496229E+02 -0.21443022034E+03  0.35847743750E+02  0.21888169050E+03  0.00000000000E+00 0. -1.
          2    1    3    3  501    0  0.25373496229E+02  0.21443022034E+03  0.85927800332E+03  0.88599256243E+03  0.00000000000E+00 0. -1.
<mgrwt>
<rscale>  0 0.64768589E+03</rscale>
<asrwt>0</asrwt>
<pdfrwt beam="1">0</pdfrwt>
<pdfrwt beam="2">  1        2 0.38136172E+00 0.64768589E+03</pdfrwt>
<totfact> 0.46734708E+00</totfact>
</mgrwt>
</event>
<event>
 5    1  0.2349912E-004  0.6980783E+03  0.7818608E-02  0.9720524E-01
         13   -1    0    0    0    0  0.00000000000E+00  0.00000000000E+00  0.10000000000E+04  0.10000000000E+04  0.00000000000E+00 0. -1.
          2   -1    0    0  501    0 -0.00000000000E+00 -0.00000000000E+00 -0.12182831274E+03  0.12182831274E+03  0.00000000000E+00 0. -1.
    9000006    2    1    2  501    0  0.00000000000E+00  0.00000000000E+00  0.87817168726E+03  0.11218283127E+04  0.69807825562E+03 0.  0.
         13    1    3    3    0    0 -0.34274167755E+03 -0.45991490954E+02  0.51516510230E+03  0.62046930415E+03  0.00000000000E+00 0. -1.
          4    1    3    3  501    0  0.34274167755E+03  0.45991490954E+02  0.36300658496E+03  0.50135900859E+03  0.00000000000E+00 0. -1.
<mgrwt>
<rscale>  0 0.69807826E+03</rscale>
<asrwt>0</asrwt>
<pdfrwt beam="1">0</pdfrwt>
<pdfrwt beam="2">  1        2 0.44301298E+00 0.69807826E+03</pdfrwt>
<totfact> 0.27146764E+00</totfact>
</mgrwt>
</event>
<event>
 5    1  0.2349912E-004  0.6482703E+03  0.7818608E-02  0.9810030E-01
         13   -1    0    0    0    0  0.00000000000E+00  0.00000000000E+00  0.10000000000E+04  0.10000000000E+04  0.00000000000E+00 0. -1.
          2   -1    0    0  501    0 -0.00000000000E+00 -0.00000000000E+00 -0.10506360197E+03  0.10506360197E+03  0.00000000000E+00 0. -1.
    9000006    2    1    2  501    0  0.00000000000E+00  0.00000000000E+00  0.89493639803E+03  0.11050636020E+04  0.64827032007E+03 0.  0.
         13    1    3    3    0    0  0.11996002224E+03 -0.29949033795E+03  0.50079716248E+03  0.59572029293E+03  0.00000000000E+00 0. -1.
          4    1    3    3  501    0 -0.11996002224E+03  0.29949033795E+03  0.39413923555E+03  0.50934330904E+03  0.00000000000E+00 0. -1.
<mgrwt>
<rscale>  0 0.64827032E+03</rscale>
<asrwt>0</asrwt>
<pdfrwt beam="1">0</pdfrwt>
<pdfrwt beam="2">  1        2 0.38205027E+00 0.64827032E+03</pdfrwt>
<totfact> 0.46459654E+00</totfact>
</mgrwt>
</event>
<event>
 5    1  0.2349912E-004  0.6454341E+03  0.7818608E-02  0.9815385E-01
         13   -1    0    0    0    0  0.00000000000E+00  0.00000000000E+00  0.10000000000E+04  0.10000000000E+04  0.00000000000E+00 0. -1.
          2   -1    0    0  501    0 -0.00000000000E+00 -0.00000000000E+00 -0.10414628072E+03  0.10414628072E+03  0.00000000000E+00 0. -1.
    9000006    2    1    2  501    0  0.00000000000E+00  0.00000000000E+00  0.89585371928E+03  0.11041462807E+04  0.64543405774E+03 0.  0.
         13    1    3    3    0    0 -0.54501626650E+02 -0.13453467642E+03 -0.45148433290E+02  0.15201443187E+03  0.00000000000E+00 0. -1.
          2    1    3    3  501    0  0.54501626650E+02  0.13453467642E+03  0.94100215257E+03  0.95213184885E+03  0.00000000000E+00 0. -1.
<mgrwt>
<rscale>  0 0.64543406E+03</rscale>
<asrwt>0</asrwt>
<pdfrwt beam="1">0</pdfrwt>
<pdfrwt beam="2">  1        2 0.37871455E+00 0.64543406E+03</pdfrwt>
<totfact> 0.47806030E+00</totfact>
</mgrwt>
</event>
<event>
 5    1  0.2349912E-004  0.6403229E+03  0.7818608E-02  0.9825109E-01
         13   -1    0    0    0    0  0.00000000000E+00  0.00000000000E+00  0.10000000000E+04  0.10000000000E+04  0.00000000000E+00 0. -1.
          2   -1    0    0  501    0 -0.00000000000E+00 -0.00000000000E+00 -0.10250334703E+03  0.10250334703E+03  0.00000000000E+00 0. -1.
    9000006    2    1    2  501    0  0.00000000000E+00  0.00000000000E+00  0.89749665297E+03  0.11025033470E+04  0.64032287803E+03 0.  0.
         13    1    3    3    0    0 -0.64714715734E+02  0.20541292376E+03  0.85663840976E+03  0.88329600291E+03  0.00000000000E+00 0. -1.
          4    1    3    3  501    0  0.64714715734E+02 -0.20541292376E+03  0.40858243202E+02  0.21920734412E+03  0.00000000000E+00 0. -1.
<mgrwt>
<rscale>  0 0.64032288E+03</rscale>
<asrwt>0</asrwt>
<pdfrwt beam="1">0</pdfrwt>
<pdfrwt beam="2">  1        2 0.37274023E+00 0.64032288E+03</pdfrwt>
<totfact> 0.50306731E+00</totfact>
</mgrwt>
</event>
<event>
 5    1  0.2349912E-004  0.6679699E+03  0.7818608E-02  0.9773632E-01
         13   -1    0    0    0    0  0.00000000000E+00  0.00000000000E+00  0.10000000000E+04  0.10000000000E+04  0.00000000000E+00 0. -1.
          2   -1    0    0  501    0 -0.00000000000E+00 -0.00000000000E+00 -0.11154593078E+03  0.11154593078E+03  0.00000000000E+00 0. -1.
    9000006    2    1    2  501    0  0.00000000000E+00  0.00000000000E+00  0.88845406922E+03  0.11115459308E+04  0.66796985194E+03 0.  0.
         13    1    3    3    0    0  0.18811587191E+03  0.19183236003E+03  0.11409254536E+03  0.29189783234E+03  0.00000000000E+00 0. -1.
          4    1    3    3  501    0 -0.18811587191E+03 -0.19183236003E+03  0.77436152387E+03  0.81964809843E+03  0.00000000000E+00 0. -1.
<mgrwt>
<rscale>  0 0.66796985E+03</rscale>
<asrwt>0</asrwt>
<pdfrwt beam="1">0</pdfrwt>
<pdfrwt beam="2">  1        2 0.40562242E+00 0.66796985E+03</pdfrwt>
<totfact> 0.37881660E+00</totfact>
</mgrwt>
</event>
<event>
 5    1  0.2349912E-004  0.6470812E+03  0.7818608E-02  0.9812272E-01
         13   -1    0    0    0    0  0.00000000000E+00  0.00000000000E+00  0.10000000000E+04  0.10000000000E+04  0.00000000000E+00 0. -1.
          2   -1    0    0  501    0 -0.00000000000E+00 -0.00000000000E+00 -0.10467851119E+03  0.10467851119E+03  0.00000000000E+00 0. -1.
    9000006    2    1    2  501    0  0.00000000000E+00  0.00000000000E+00  0.89532148881E+03  0.11046785112E+04  0.64708117325E+03 0.  0.
         13    1    3    3    0    0  0.13792197357E+03 -0.25858220926E+03  0.21363946979E+03  0.36266934360E+03  0.00000000000E+00 0. -1.
          2    1    3    3  501    0 -0.13792197357E+03  0.25858220926E+03  0.68168201902E+03  0.74200916759E+03  0.00000000000E+00 0. -1.
<mgrwt>
<rscale>  0 0.64708117E+03</rscale>
<asrwt>0</asrwt>
<pdfrwt beam="1">0</pdfrwt>
<pdfrwt beam="2">  1        2 0.38064993E+00 0.64708117E+03</pdfrwt>
<totfact> 0.47020603E+00</totfact>
</mgrwt>
</event>
<event>
 5    1  0.2349912E-004  0.6559422E+03  0.7818608E-02  0.9795693E-01
         13   -1    0    0    0    0  0.00000000000E+00  0.00000000000E+00  0.10000000000E+04  0.10000000000E+04  0.00000000000E+00 0. -1.
          2   -1    0    0  501    0 -0.00000000000E+00 -0.00000000000E+00 -0.10756503110E+03  0.10756503110E+03  0.00000000000E+00 0. -1.
    9000006    2    1    2  501    0  0.00000000000E+00  0.00000000000E+00  0.89243496890E+03  0.11075650311E+04  0.65594216544E+03 0.  0.
         13    1    3    3    0    0 -0.93174658662E+02  0.27449538560E+03  0.70525826757E+03  0.76250800502E+03  0.00000000000E+00 0. -1.
          4    1    3    3  501    0  0.93174658662E+02 -0.27449538560E+03  0.18717670132E+03  0.34505702608E+03  0.00000000000E+00 0. -1.
<mgrwt>
<rscale>  0 0.65594217E+03</rscale>
<asrwt>0</asrwt>
<pdfrwt beam="1">0</pdfrwt>
<pdfrwt beam="2">  1        2 0.39114639E+00 0.65594217E+03</pdfrwt>
<totfact> 0.42961225E+00</totfact>
</mgrwt>
</event>
<event>
 5    1  0.2349912E-004  0.6428380E+03  0.7818608E-02  0.9820312E-01
         13   -1    0    0    0    0  0.00000000000E+00  0.00000000000E+00  0.10000000000E+04  0.10000000000E+04  0.00000000000E+00 0. -1.
          2   -1    0    0  501    0 -0.00000000000E+00 -0.00000000000E+00 -0.10331018045E+03  0.10331018045E+03  0.00000000000E+00 0. -1.
    9000006    2    1    2  501    0  0.00000000000E+00  0.00000000000E+00  0.89668981955E+03  0.11033101804E+04  0.64283802142E+03 0.  0.
         13    1    3    3    0    0 -0.16364001126E+03  0.13931929538E+02 -0.25860538773E+02  0.16625558460E+03  0.00000000000E+00 0. -1.
          2    1    3    3  501    0  0.16364001126E+03 -0.13931929538E+02  0.92255035833E+03  0.93705459585E+03  0.00000000000E+00 0. -1.
<mgrwt>
<rscale>  0 0.64283802E+03</rscale>
<asrwt>0</asrwt>
<pdfrwt beam="1">0</pdfrwt>
<pdfrwt beam="2">  1        2 0.37567418E+00 0.64283802E+03</pdfrwt>
<totfact> 0.49064054E+00</totfact>
</mgrwt>
</event>
<event>
 5    1  0.2349912E-004  0.6512717E+03  0.7818608E-02  0.9804396E-01
         13   -1    0    0    0    0  0.00000000000E+00  0.00000000000E+00  0.10000000000E+04  0.10000000000E+04  0.00000000000E+00 0. -1.
          2   -1    0    0  501    0 -0.00000000000E+00 -0.00000000000E+00 -0.10603870705E+03  0.10603870705E+03  0.00000000000E+00 0. -1.
    9000006    2    1    2  501    0  0.00000000000E+00  0.00000000000E+00  0.89396129295E+03  0.11060387070E+04  0.65127170075E+03 0.  0.
         13    1    3    3    0    0  0.27715898448E+03  0.17093231758E+03  0.45026810451E+03  0.55567645785E+03  0.00000000000E+00 0. -1.
          2    1    3    3  501    0 -0.27715898448E+03 -0.17093231758E+03  0.44369318844E+03  0.55036224920E+03  0.00000000000E+00 0. -1.
<mgrwt>
<rscale>  0 0.65127170E+03</rscale>
<asrwt>0</asrwt>
<pdfrwt beam="1">0</pdfrwt>
<pdfrwt beam="2">  1        2 0.38559611E+00 0.65127170E+03</pdfrwt>
<totfact> 0.45066324E+00</totfact>
</mgrwt>
</event>
<event>
 5    1  0.2349912E-004  0.6552809E+03  0.7818608E-02  0.9796920E-01
         13   -1    0    0    0    0  0.00000000000E+00  0.00000000000E+00  0.10000000000E+04  0.10000000000E+04  0.00000000000E+00 0. -1.
          2   -1    0    0  501    0 -0.00000000000E+00 -0.00000000000E+00 -0.10734827071E+03  0.10734827071E+03  0.00000000000E+00 0. -1.
    9000006    2    1    2  501    0  0.00000000000E+00  0.00000000000E+00  0.89265172929E+03  0.11073482707E+04  0.65528091902E+03 0.  0.
         13    1    3    3    0    0  0.19878254916E+03  0.20804334413E+03  0.18153816240E+03  0.34022439551E+03  0.00000000000E+00 0. -1.
          4    1    3    3  501    0 -0.19878254916E+03 -0.20804334413E+03  0.71111356689E+03  0.76712387520E+03  0.00000000000E+00 0. -1.
<mgrwt>
<rscale>  0 0.65528092E+03</rscale>
<asrwt>0</asrwt>
<pdfrwt beam="1">0</pdfrwt>
<pdfrwt beam="2">  1        2 0.39035817E+00 0.65528092E+03</pdfrwt>
<totfact> 0.43254658E+00</totfact>
</mgrwt>
</event>
<event>
 5    1  0.2349912E-004  0.6526000E+03  0.7818608E-02  0.9801913E-01
         13   -1    0    0    0    0  0.00000000000E+00  0.00000000000E+00  0.10000000000E+04  0.10000000000E+04  0.00000000000E+00 0. -1.
          2   -1    0    0  501    0 -0.00000000000E+00 -0.00000000000E+00 -0.10647167620E+03  0.10647167620E+03  0.00000000000E+00 0. -1.
    9000006    2    1    2  501    0  0.00000000000E+00  0.00000000000E+00  0.89352832380E+03  0.11064716762E+04  0.65259995772E+03 0.  0.
         13    1    3    3    0    0  0.12072124378E+03 -0.16371676779E+03  0.87934439143E+03  0.90256487717E+03  0.00000000000E+00 0. -1.
          4    1    3    3  501    0 -0.12072124378E+03  0.16371676779E+03  0.14183932364E+02  0.20390679904E+03  0.00000000000E+00 0. -1.
<mgrwt>
<rscale>  0 0.65259996E+03</rscale>
<asrwt>0</asrwt>
<pdfrwt beam="1">0</pdfrwt>
<pdfrwt beam="2">  1        2 0.38717055E+00 0.65259996E+03</pdfrwt>
<totfact> 0.44459891E+00</totfact>
</mgrwt>
</event>
<event>
 5    1  0.2349912E-004  0.6398442E+03  0.7818608E-02  0.9826025E-01
         13   -1    0    0    0    0  0.00000000000E+00  0.00000000000E+00  0.10000000000E+04  0.10000000000E+04  0.00000000000E+00 0. -1.
          2   -1    0    0  501    0 -0.00000000000E+00 -0.00000000000E+00 -0.10235013526E+03  0.10235013526E+03  0.00000000000E+00 0. -1.
    9000006    2    1    2  501    0  0.00000000000E+00  0.00000000000E+00  0.89764986474E+03  0.11023501353E+04  0.63984415371E+03 0.  0.
         13    1    3    3    0    0  0.14918687727E+03  0.11348249592E+03  0.89548681087E+03  0.91489432705E+03  0.00000000000E+00 0. -1.
          4    1    3    3  501    0 -0.14918687727E+03 -0.11348249592E+03  0.21630538691E+01  0.18745580821E+03  0.00000000000E+00 0. -1.
<mgrwt>
<rscale>  0 0.63984415E+03</rscale>
<asrwt>0</asrwt>
<pdfrwt beam="1">0</pdfrwt>
<pdfrwt beam="2">  1        2 0.37218309E+00 0.63984415E+03</pdfrwt>
<totfact> 0.50545934E+00</totfact>
</mgrwt>
</event>
<event>
 5    1  0.2349912E-004  0.5151892E+03  0.7818608E-02  0.1009889E+00
         13   -1    0    0    0    0  0.00000000000E+00  0.00000000000E+00  0.10000000000E+04  0.10000000000E+04  0.00000000000E+00 0. -1.
          2   -1    0    0  501    0 -0.00000000000E+00 -0.00000000000E+00 -0.66354986410E+02  0.66354986410E+02  0.00000000000E+00 0. -1.
    9000006    2    1    2  501    0  0.00000000000E+00  0.00000000000E+00  0.93364501359E+03  0.10663549864E+04  0.51518923285E+03 0.  0.
         13    1    3    3    0    0 -0.21317918330E+03 -0.74489021119E+02  0.72335647738E+03  0.75778530721E+03  0.00000000000E+00 0. -1.
          2    1    3    3  501    0  0.21317918330E+03  0.74489021119E+02  0.21028853621E+03  0.30856967920E+03  0.00000000000E+00 0. -1.
<mgrwt>
<rscale>  0 0.51518923E+03</rscale>
<asrwt>0</asrwt>
<pdfrwt beam="1">0</pdfrwt>
<pdfrwt beam="2">  1        2 0.24129137E+00 0.51518923E+03</pdfrwt>
<totfact> 0.14984085E+01</totfact>
</mgrwt>
</event>
<event>
 5    1  0.2349912E-004  0.6435678E+03  0.7818608E-02  0.9818924E-01
         13   -1    0    0    0    0  0.00000000000E+00  0.00000000000E+00  0.10000000000E+04  0.10000000000E+04  0.00000000000E+00 0. -1.
          2   -1    0    0  501    0 -0.00000000000E+00 -0.00000000000E+00 -0.10354488020E+03  0.10354488020E+03  0.00000000000E+00 0. -1.
    9000006    2    1    2  501    0  0.00000000000E+00  0.00000000000E+00  0.89645511980E+03  0.11035448802E+04  0.64356780592E+03 0.  0.
         13    1    3    3    0    0 -0.70060554489E+02  0.24323648866E+03  0.10755079979E+03  0.27502662643E+03  0.00000000000E+00 0. -1.
          2    1    3    3  501    0  0.70060554489E+02 -0.24323648866E+03  0.78890432001E+03  0.82851825377E+03  0.00000000000E+00 0. -1.
<mgrwt>
<rscale>  0 0.64356781E+03</rscale>
<asrwt>0</asrwt>
<pdfrwt beam="1">0</pdfrwt>
<pdfrwt beam="2">  1        2 0.37652763E+00 0.64356781E+03</pdfrwt>
<totfact> 0.48707903E+00</totfact>
</mgrwt>
</event>
<event>
 5    1  0.2349912E-004  0.6292054E+03  0.7818608E-02  0.9846601E-01
         13   -1    0    0    0    0  0.00000000000E+00  0.00000000000E+00  0.10000000000E+04  0.10000000000E+04  0.00000000000E+00 0. -1.
          4   -1    0    0  501    0 -0.00000000000E+00 -0.00000000000E+00 -0.98974860703E+02  0.98974860703E+02  0.00000000000E+00 0. -1.
    9000006    2    1    2  501    0  0.00000000000E+00  0.00000000000E+00  0.90102513930E+03  0.10989748607E+04  0.62920540590E+03 0.  0.
         13    1    3    3    0    0 -0.30854709390E+03 -0.54087078400E+02  0.39964640919E+03  0.50778339238E+03  0.00000000000E+00 0. -1.
          2    1    3    3  501    0  0.30854709390E+03  0.54087078400E+02  0.50137873011E+03  0.59119146832E+03  0.00000000000E+00 0. -1.
<mgrwt>
<rscale>  0 0.62920541E+03</rscale>
<asrwt>0</asrwt>
<pdfrwt beam="1">0</pdfrwt>
<pdfrwt beam="2">  1        4 0.35990934E+00 0.62920541E+03</pdfrwt>
<totfact> 0.59617894E-02</totfact>
</mgrwt>
</event>
<event>
 5    1  0.2349912E-004  0.6318258E+03  0.7818608E-02  0.9841492E-01
         13   -1    0    0    0    0  0.00000000000E+00  0.00000000000E+00  0.10000000000E+04  0.10000000000E+04  0.00000000000E+00 0. -1.
          2   -1    0    0  501    0 -0.00000000000E+00 -0.00000000000E+00 -0.99800967121E+02  0.99800967121E+02  0.00000000000E+00 0. -1.
    9000006    2    1    2  501    0  0.00000000000E+00  0.00000000000E+00  0.90019903288E+03  0.10998009671E+04  0.63182582132E+03 0.  0.
         13    1    3    3    0    0  0.24449281666E+03  0.10114462633E+03  0.75055566214E+03  0.79582710107E+03  0.00000000000E+00 0. -1.
          2    1    3    3  501    0 -0.24449281666E+03 -0.10114462633E+03  0.14964337074E+03  0.30397386605E+03  0.00000000000E+00 0. -1.
<mgrwt>
<rscale>  0 0.63182582E+03</rscale>
<asrwt>0</asrwt>
<pdfrwt beam="1">0</pdfrwt>
<pdfrwt beam="2">  1        2 0.36291337E+00 0.63182582E+03</pdfrwt>
<totfact> 0.54682033E+00</totfact>
</mgrwt>
</event>
<event>
 5    1  0.2349912E-004  0.6470391E+03  0.7818608E-02  0.9812351E-01
         13   -1    0    0    0    0  0.00000000000E+00  0.00000000000E+00  0.10000000000E+04  0.10000000000E+04  0.00000000000E+00 0. -1.
          2   -1    0    0  501    0 -0.00000000000E+00 -0.00000000000E+00 -0.10466489657E+03  0.10466489657E+03  0.00000000000E+00 0. -1.
    9000006    2    1    2  501    0  0.00000000000E+00  0.00000000000E+00  0.89533510343E+03  0.11046648966E+04  0.64703909178E+03 0.  0.
         13    1    3    3    0    0 -0.19565944047E+03 -0.11277551230E+02  0.82173382261E+01  0.19615637755E+03  0.00000000000E+00 0. -1.
          2    1    3    3  501    0  0.19565944047E+03  0.11277551230E+02  0.88711776520E+03  0.90850851902E+03  0.00000000000E+00 0. -1.
<mgrwt>
<rscale>  0 0.64703909E+03</rscale>
<asrwt>0</asrwt>
<pdfrwt beam="1">0</pdfrwt>
<pdfrwt beam="2">  1        2 0.38060043E+00 0.64703909E+03</pdfrwt>
<totfact> 0.47040547E+00</totfact>
</mgrwt>
</event>
<event>
 5    1  0.2349912E-004  0.5992390E+03  0.7818608E-02  0.9906986E-01
         13   -1    0    0    0    0  0.00000000000E+00  0.00000000000E+00  0.10000000000E+04  0.10000000000E+04  0.00000000000E+00 0. -1.
          2   -1    0    0  501    0 -0.00000000000E+00 -0.00000000000E+00 -0.89771840693E+02  0.89771840693E+02  0.00000000000E+00 0. -1.
    9000006    2    1    2  501    0  0.00000000000E+00  0.00000000000E+00  0.91022815931E+03  0.10897718407E+04  0.59923898636E+03 0.  0.
         13    1    3    3    0    0 -0.68520174399E+02  0.20517377281E+03  0.78087904746E+02  0.22997611227E+03  0.00000000000E+00 0. -1.
          2    1    3    3  501    0  0.68520174399E+02 -0.20517377281E+03  0.83214025456E+03  0.85979572842E+03  0.00000000000E+00 0. -1.
<mgrwt>
<rscale>  0 0.59923899E+03</rscale>
<asrwt>0</asrwt>
<pdfrwt beam="1">0</pdfrwt>
<pdfrwt beam="2">  1        2 0.32644375E+00 0.59923899E+03</pdfrwt>
<totfact> 0.74202100E+00</totfact>
</mgrwt>
</event>
<event>
 5    1  0.2349912E-004  0.6552883E+03  0.7818608E-02  0.9796906E-01
         13   -1    0    0    0    0  0.00000000000E+00  0.00000000000E+00  0.10000000000E+04  0.10000000000E+04  0.00000000000E+00 0. -1.
          2   -1    0    0  501    0 -0.00000000000E+00 -0.00000000000E+00 -0.10735068927E+03  0.10735068927E+03  0.00000000000E+00 0. -1.
    9000006    2    1    2  501    0  0.00000000000E+00  0.00000000000E+00  0.89264931073E+03  0.11073506893E+04  0.65528830073E+03 0.  0.
         13    1    3    3    0    0  0.29080931672E+03  0.89097080040E+02  0.65219982369E+03  0.71963390580E+03  0.00000000000E+00 0. -1.
          2    1    3    3  501    0 -0.29080931672E+03 -0.89097080040E+02  0.24044948704E+03  0.38771678346E+03  0.00000000000E+00 0. -1.
<mgrwt>
<rscale>  0 0.65528830E+03</rscale>
<asrwt>0</asrwt>
<pdfrwt beam="1">0</pdfrwt>
<pdfrwt beam="2">  1        2 0.39036697E+00 0.65528830E+03</pdfrwt>
<totfact> 0.43251374E+00</totfact>
</mgrwt>
</event>
<event>
 5    1  0.2349912E-004  0.6577816E+03  0.7818608E-02  0.9792286E-01
         13   -1    0    0    0    0  0.00000000000E+00  0.00000000000E+00  0.10000000000E+04  0.10000000000E+04  0.00000000000E+00 0. -1.
          2   -1    0    0  501    0 -0.00000000000E+00 -0.00000000000E+00 -0.10816914989E+03  0.10816914989E+03  0.00000000000E+00 0. -1.
    9000006    2    1    2  501    0  0.00000000000E+00  0.00000000000E+00  0.89183085011E+03  0.11081691499E+04  0.65778157435E+03 0.  0.
         13    1    3    3    0    0  0.28458767576E+03  0.12287277719E+03  0.26074103519E+03  0.40506018318E+03  0.00000000000E+00 0. -1.
          4    1    3    3  501    0 -0.28458767576E+03 -0.12287277719E+03  0.63108981492E+03  0.70310896671E+03  0.00000000000E+00 0. -1.
<mgrwt>
<rscale>  0 0.65778157E+03</rscale>
<asrwt>0</asrwt>
<pdfrwt beam="1">0</pdfrwt>
<pdfrwt beam="2">  1        2 0.39334319E+00 0.65778157E+03</pdfrwt>
<totfact> 0.42152879E+00</totfact>
</mgrwt>
</event>
<event>
 5    1  0.2349912E-004  0.6507162E+03  0.7818608E-02  0.9805436E-01
         13   -1    0    0    0    0  0.00000000000E+00  0.00000000000E+00  0.10000000000E+04  0.10000000000E+04  0.00000000000E+00 0. -1.
          2   -1    0    0  501    0 -0.00000000000E+00 -0.00000000000E+00 -0.10585789532E+03  0.10585789532E+03  0.00000000000E+00 0. -1.
    9000006    2    1    2  501    0  0.00000000000E+00  0.00000000000E+00  0.89414210468E+03  0.11058578953E+04  0.65071620642E+03 0.  0.
         13    1    3    3    0    0 -0.22408484067E+03 -0.10687637866E+03  0.89696563794E+02  0.26397357763E+03  0.00000000000E+00 0. -1.
          4    1    3    3  501    0  0.22408484067E+03  0.10687637866E+03  0.80444554088E+03  0.84188431769E+03  0.00000000000E+00 0. -1.
<mgrwt>
<rscale>  0 0.65071621E+03</rscale>
<asrwt>0</asrwt>
<pdfrwt beam="1">0</pdfrwt>
<pdfrwt beam="2">  1        2 0.38493861E+00 0.65071621E+03</pdfrwt>
<totfact> 0.45321787E+00</totfact>
</mgrwt>
</event>
<event>
 5    1  0.2349912E-004  0.6461059E+03  0.7818608E-02  0.9814114E-01
         13   -1    0    0    0    0  0.00000000000E+00  0.00000000000E+00  0.10000000000E+04  0.10000000000E+04  0.00000000000E+00 0. -1.
          2   -1    0    0  501    0 -0.00000000000E+00 -0.00000000000E+00 -0.10436321310E+03  0.10436321310E+03  0.00000000000E+00 0. -1.
    9000006    2    1    2  501    0  0.00000000000E+00  0.00000000000E+00  0.89563678690E+03  0.11043632131E+04  0.64610591423E+03 0.  0.
         13    1    3    3    0    0 -0.29651113265E+03  0.12462435340E+03  0.39616784202E+03  0.51029309254E+03  0.00000000000E+00 0. -1.
          2    1    3    3  501    0  0.29651113265E+03 -0.12462435340E+03  0.49946894488E+03  0.59407012056E+03  0.00000000000E+00 0. -1.
<mgrwt>
<rscale>  0 0.64610591E+03</rscale>
<asrwt>0</asrwt>
<pdfrwt beam="1">0</pdfrwt>
<pdfrwt beam="2">  1        2 0.37950339E+00 0.64610591E+03</pdfrwt>
<totfact> 0.47484466E+00</totfact>
</mgrwt>
</event>
<event>
 5    1  0.2349912E-004  0.6544855E+03  0.7818608E-02  0.9798399E-01
         13   -1    0    0    0    0  0.00000000000E+00  0.00000000000E+00  0.10000000000E+04  0.10000000000E+04  0.00000000000E+00 0. -1.
          2   -1    0    0  501    0 -0.00000000000E+00 -0.00000000000E+00 -0.10708783278E+03  0.10708783278E+03  0.00000000000E+00 0. -1.
    9000006    2    1    2  501    0  0.00000000000E+00  0.00000000000E+00  0.89291216722E+03  0.11070878328E+04  0.65448554690E+03 0.  0.
         13    1    3    3    0    0 -0.27144382839E+03 -0.99811790898E+02  0.70545322842E+03  0.76243583537E+03  0.00000000000E+00 0. -1.
          4    1    3    3  501    0  0.27144382839E+03  0.99811790898E+02  0.18745893881E+03  0.34465199740E+03  0.00000000000E+00 0. -1.
<mgrwt>
<rscale>  0 0.65448555E+03</rscale>
<asrwt>0</asrwt>
<pdfrwt beam="1">0</pdfrwt>
<pdfrwt beam="2">  1        2 0.38941112E+00 0.65448555E+03</pdfrwt>
<totfact> 0.43609612E+00</totfact>
</mgrwt>
</event>
<event>
 5    1  0.2349912E-004  0.6565804E+03  0.7818608E-02  0.9794509E-01
         13   -1    0    0    0    0  0.00000000000E+00  0.00000000000E+00  0.10000000000E+04  0.10000000000E+04  0.00000000000E+00 0. -1.
          2   -1    0    0  501    0 -0.00000000000E+00 -0.00000000000E+00 -0.10777446415E+03  0.10777446415E+03  0.00000000000E+00 0. -1.
    9000006    2    1    2  501    0  0.00000000000E+00  0.00000000000E+00  0.89222553585E+03  0.11077744642E+04  0.65658042661E+03 0.  0.
         13    1    3    3    0    0 -0.30187355308E+03  0.10196067204E+03  0.31271986327E+03  0.44644969882E+03  0.00000000000E+00 0. -1.
          4    1    3    3  501    0  0.30187355308E+03 -0.10196067204E+03  0.57950567258E+03  0.66132476534E+03  0.00000000000E+00 0. -1.
<mgrwt>
<rscale>  0 0.65658043E+03</rscale>
<asrwt>0</asrwt>
<pdfrwt beam="1">0</pdfrwt>
<pdfrwt beam="2">  1        2 0.39190797E+00 0.65658043E+03</pdfrwt>
<totfact> 0.42679421E+00</totfact>
</mgrwt>
</event>
<event>
 5    1  0.2349912E-004  0.6337205E+03  0.7818608E-02  0.9837815E-01
         13   -1    0    0    0    0  0.00000000000E+00  0.00000000000E+00  0.10000000000E+04  0.10000000000E+04  0.00000000000E+00 0. -1.
          2   -1    0    0  501    0 -0.00000000000E+00 -0.00000000000E+00 -0.10040041818E+03  0.10040041818E+03  0.00000000000E+00 0. -1.
    9000006    2    1    2  501    0  0.00000000000E+00  0.00000000000E+00  0.89959958182E+03  0.11004004182E+04  0.63372050047E+03 0.  0.
         13    1    3    3    0    0  0.34824143429E+02 -0.16889150454E+03 -0.11783546315E+02  0.17284650195E+03  0.00000000000E+00 0. -1.
          4    1    3    3  501    0 -0.34824143429E+02  0.16889150454E+03  0.91138312814E+03  0.92755391623E+03  0.00000000000E+00 0. -1.
<mgrwt>
<rscale>  0 0.63372050E+03</rscale>
<asrwt>0</asrwt>
<pdfrwt beam="1">0</pdfrwt>
<pdfrwt beam="2">  1        2 0.36509320E+00 0.63372050E+03</pdfrwt>
<totfact> 0.53682372E+00</totfact>
</mgrwt>
</event>
<event>
 5    1  0.2349912E-004  0.6567899E+03  0.7818608E-02  0.9794121E-01
         13   -1    0    0    0    0  0.00000000000E+00  0.00000000000E+00  0.10000000000E+04  0.10000000000E+04  0.00000000000E+00 0. -1.
          2   -1    0    0  501    0 -0.00000000000E+00 -0.00000000000E+00 -0.10784323337E+03  0.10784323337E+03  0.00000000000E+00 0. -1.
    9000006    2    1    2  501    0  0.00000000000E+00  0.00000000000E+00  0.89215676663E+03  0.11078432334E+04  0.65678987011E+03 0.  0.
         13    1    3    3    0    0  0.28173226959E+03  0.24456562907E+02  0.16447606390E+03  0.32714457171E+03  0.00000000000E+00 0. -1.
          4    1    3    3  501    0 -0.28173226959E+03 -0.24456562907E+02  0.72768070273E+03  0.78069866166E+03  0.00000000000E+00 0. -1.
<mgrwt>
<rscale>  0 0.65678987E+03</rscale>
<asrwt>0</asrwt>
<pdfrwt beam="1">0</pdfrwt>
<pdfrwt beam="2">  1        2 0.39215804E+00 0.65678987E+03</pdfrwt>
<totfact> 0.42587252E+00</totfact>
</mgrwt>
</event>
<event>
 5    1  0.2349912E-004  0.6506686E+03  0.7818608E-02  0.9805525E-01
         13   -1    0    0    0    0  0.00000000000E+00  0.00000000000E+00  0.10000000000E+04  0.10000000000E+04  0.00000000000E+00 0. -1.
          2   -1    0    0  501    0 -0.00000000000E+00 -0.00000000000E+00 -0.10584242124E+03  0.10584242124E+03  0.00000000000E+00 0. -1.
    9000006    2    1    2  501    0  0.00000000000E+00  0.00000000000E+00  0.89415757876E+03  0.11058424212E+04  0.65066864452E+03 0.  0.
         13    1    3    3    0    0  0.89965111429E+02 -0.24986625815E+03  0.12769242353E+03  0.29467307862E+03  0.00000000000E+00 0. -1.
          2    1    3    3  501    0 -0.89965111429E+02  0.24986625815E+03  0.76646515523E+03  0.81116934262E+03  0.00000000000E+00 0. -1.
<mgrwt>
<rscale>  0 0.65066864E+03</rscale>
<asrwt>0</asrwt>
<pdfrwt beam="1">0</pdfrwt>
<pdfrwt beam="2">  1        2 0.38488234E+00 0.65066864E+03</pdfrwt>
<totfact> 0.45343711E+00</totfact>
</mgrwt>
</event>
<event>
 5    1  0.2349912E-004  0.6502482E+03  0.7818608E-02  0.9806314E-01
         13   -1    0    0    0    0  0.00000000000E+00  0.00000000000E+00  0.10000000000E+04  0.10000000000E+04  0.00000000000E+00 0. -1.
          2   -1    0    0  501    0 -0.00000000000E+00 -0.00000000000E+00 -0.10570567370E+03  0.10570567370E+03  0.00000000000E+00 0. -1.
    9000006    2    1    2  501    0  0.00000000000E+00  0.00000000000E+00  0.89429432630E+03  0.11057056737E+04  0.65024817937E+03 0.  0.
         13    1    3    3    0    0  0.29875043260E+03 -0.92488814107E+02  0.29601220770E+03  0.43061494264E+03  0.00000000000E+00 0. -1.
          2    1    3    3  501    0 -0.29875043260E+03  0.92488814107E+02  0.59828211861E+03  0.67509073106E+03  0.00000000000E+00 0. -1.
<mgrwt>
<rscale>  0 0.65024818E+03</rscale>
<asrwt>0</asrwt>
<pdfrwt beam="1">0</pdfrwt>
<pdfrwt beam="2">  1        2 0.38438508E+00 0.65024818E+03</pdfrwt>
<totfact> 0.45537874E+00</totfact>
</mgrwt>
</event>
<event>
 5    1  0.2349912E-004  0.6510423E+03  0.7818608E-02  0.9804825E-01
         13   -1    0    0    0    0  0.00000000000E+00  0.00000000000E+00  0.10000000000E+04  0.10000000000E+04  0.00000000000E+00 0. -1.
          2   -1    0    0  501    0 -0.00000000000E+00 -0.00000000000E+00 -0.10596401740E+03  0.10596401740E+03  0.00000000000E+00 0. -1.
    9000006    2    1    2  501    0  0.00000000000E+00  0.00000000000E+00  0.89403598260E+03  0.11059640174E+04  0.65104229477E+03 0.  0.
         13    1    3    3    0    0  0.19476558536E+03 -0.21332339560E+03  0.19207101899E+03  0.34688871514E+03  0.00000000000E+00 0. -1.
          2    1    3    3  501    0 -0.19476558536E+03  0.21332339560E+03  0.70196496362E+03  0.75907530226E+03  0.00000000000E+00 0. -1.
<mgrwt>
<rscale>  0 0.65104229E+03</rscale>
<asrwt>0</asrwt>
<pdfrwt beam="1">0</pdfrwt>
<pdfrwt beam="2">  1        2 0.38532451E+00 0.65104229E+03</pdfrwt>
<totfact> 0.45171692E+00</totfact>
</mgrwt>
</event>
<event>
 5    1  0.2349912E-004  0.6495208E+03  0.7818608E-02  0.9807679E-01
         13   -1    0    0    0    0  0.00000000000E+00  0.00000000000E+00  0.10000000000E+04  0.10000000000E+04  0.00000000000E+00 0. -1.
          2   -1    0    0  501    0 -0.00000000000E+00 -0.00000000000E+00 -0.10546931122E+03  0.10546931122E+03  0.00000000000E+00 0. -1.
    9000006    2    1    2  501    0  0.00000000000E+00  0.00000000000E+00  0.89453068878E+03  0.11054693112E+04  0.64952078095E+03 0.  0.
         13    1    3    3    0    0  0.10241642829E+03 -0.44905759980E+02  0.96619709662E+03  0.97264715164E+03  0.00000000000E+00 0. -1.
          2    1    3    3  501    0 -0.10241642829E+03  0.44905759980E+02 -0.71666407844E+02  0.13282215959E+03  0.00000000000E+00 0. -1.
<mgrwt>
<rscale>  0 0.64952078E+03</rscale>
<asrwt>0</asrwt>
<pdfrwt beam="1">0</pdfrwt>
<pdfrwt beam="2">  1        2 0.38352558E+00 0.64952078E+03</pdfrwt>
<totfact> 0.45875255E+00</totfact>
</mgrwt>
</event>
<event>
 5    1  0.2349912E-004  0.7138308E+03  0.7818608E-02  0.9693868E-01
         13   -1    0    0    0    0  0.00000000000E+00  0.00000000000E+00  0.10000000000E+04  0.10000000000E+04  0.00000000000E+00 0. -1.
          2   -1    0    0  501    0 -0.00000000000E+00 -0.00000000000E+00 -0.12738859089E+03  0.12738859089E+03  0.00000000000E+00 0. -1.
    9000006    2    1    2  501    0  0.00000000000E+00  0.00000000000E+00  0.87261140911E+03  0.11273885909E+04  0.71383076676E+03 0.  0.
         13    1    3    3    0    0  0.67884318135E+02 -0.27481758400E+03  0.92981011589E+02  0.29795713390E+03  0.00000000000E+00 0. -1.
          4    1    3    3  501    0 -0.67884318135E+02  0.27481758400E+03  0.77963039752E+03  0.82943145700E+03  0.00000000000E+00 0. -1.
<mgrwt>
<rscale>  0 0.71383077E+03</rscale>
<asrwt>0</asrwt>
<pdfrwt beam="1">0</pdfrwt>
<pdfrwt beam="2">  1        2 0.46323222E+00 0.71383077E+03</pdfrwt>
<totfact> 0.22540949E+00</totfact>
</mgrwt>
</event>
<event>
 5    1  0.2349912E-004  0.6391608E+03  0.7818608E-02  0.9827333E-01
         13   -1    0    0    0    0  0.00000000000E+00  0.00000000000E+00  0.10000000000E+04  0.10000000000E+04  0.00000000000E+00 0. -1.
          2   -1    0    0  501    0 -0.00000000000E+00 -0.00000000000E+00 -0.10213164175E+03  0.10213164175E+03  0.00000000000E+00 0. -1.
    9000006    2    1    2  501    0  0.00000000000E+00  0.00000000000E+00  0.89786835825E+03  0.11021316417E+04  0.63916083031E+03 0.  0.
         13    1    3    3    0    0  0.25368868419E+03 -0.56759938175E+02  0.76945771947E+03  0.81218521356E+03  0.00000000000E+00 0. -1.
          2    1    3    3  501    0 -0.25368868419E+03  0.56759938175E+02  0.12841063878E+03  0.28994642819E+03  0.00000000000E+00 0. -1.
<mgrwt>
<rscale>  0 0.63916083E+03</rscale>
<asrwt>0</asrwt>
<pdfrwt beam="1">0</pdfrwt>
<pdfrwt beam="2">  1        2 0.37138857E+00 0.63916083E+03</pdfrwt>
<totfact> 0.50888859E+00</totfact>
</mgrwt>
</event>
<event>
 5    1  0.2349912E-004  0.6553540E+03  0.7818608E-02  0.9796784E-01
         13   -1    0    0    0    0  0.00000000000E+00  0.00000000000E+00  0.10000000000E+04  0.10000000000E+04  0.00000000000E+00 0. -1.
          2   -1    0    0  501    0 -0.00000000000E+00 -0.00000000000E+00 -0.10737220676E+03  0.10737220676E+03  0.00000000000E+00 0. -1.
    9000006    2    1    2  501    0  0.00000000000E+00  0.00000000000E+00  0.89262779324E+03  0.11073722068E+04  0.65535397080E+03 0.  0.
         13    1    3    3    0    0 -0.16192330353E+02 -0.20934592564E+03  0.21238792727E+02  0.21104263659E+03  0.00000000000E+00 0. -1.
          2    1    3    3  501    0  0.16192330353E+02  0.20934592564E+03  0.87138900051E+03  0.89632957017E+03  0.00000000000E+00 0. -1.
<mgrwt>
<rscale>  0 0.65535397E+03</rscale>
<asrwt>0</asrwt>
<pdfrwt beam="1">0</pdfrwt>
<pdfrwt beam="2">  1        2 0.39044521E+00 0.65535397E+03</pdfrwt>
<totfact> 0.43222167E+00</totfact>
</mgrwt>
</event>
<event>
 5    1  0.2349912E-004  0.6438268E+03  0.7818608E-02  0.9818432E-01
         13   -1    0    0    0    0  0.00000000000E+00  0.00000000000E+00  0.10000000000E+04  0.10000000000E+04  0.00000000000E+00 0. -1.
          2   -1    0    0  501    0 -0.00000000000E+00 -0.00000000000E+00 -0.10362822608E+03  0.10362822608E+03  0.00000000000E+00 0. -1.
    9000006    2    1    2  501    0  0.00000000000E+00  0.00000000000E+00  0.89637177392E+03  0.11036282261E+04  0.64382676576E+03 0.  0.
         13    1    3    3    0    0 -0.24429155694E+03 -0.51988068048E+02  0.10004863860E+03  0.26905548517E+03  0.00000000000E+00 0. -1.
          2    1    3    3  501    0  0.24429155694E+03  0.51988068048E+02  0.79632313533E+03  0.83457274091E+03  0.00000000000E+00 0. -1.
<mgrwt>
<rscale>  0 0.64382677E+03</rscale>
<asrwt>0</asrwt>
<pdfrwt beam="1">0</pdfrwt>
<pdfrwt beam="2">  1        2 0.37683071E+00 0.64382677E+03</pdfrwt>
<totfact> 0.48581996E+00</totfact>
</mgrwt>
</event>
<event>
 5    1  0.2349912E-004  0.6527259E+03  0.7818608E-02  0.9801678E-01
         13   -1    0    0    0    0  0.00000000000E+00  0.00000000000E+00  0.10000000000E+04  0.10000000000E+04  0.00000000000E+00 0. -1.
          2   -1    0    0  501    0 -0.00000000000E+00 -0.00000000000E+00 -0.10651278040E+03  0.10651278040E+03  0.00000000000E+00 0. -1.
    9000006    2    1    2  501    0  0.00000000000E+00  0.00000000000E+00  0.89348721960E+03  0.11065127804E+04  0.65272591615E+03 0.  0.
         13    1    3    3    0    0 -0.24533669401E+03 -0.43619782258E+02  0.89458544548E+02  0.26475575541E+03  0.00000000000E+00 0. -1.
          2    1    3    3  501    0  0.24533669401E+03  0.43619782258E+02  0.80402867505E+03  0.84175702499E+03  0.00000000000E+00 0. -1.
<mgrwt>
<rscale>  0 0.65272592E+03</rscale>
<asrwt>0</asrwt>
<pdfrwt beam="1">0</pdfrwt>
<pdfrwt beam="2">  1        2 0.38732002E+00 0.65272592E+03</pdfrwt>
<totfact> 0.44402705E+00</totfact>
</mgrwt>
</event>
<event>
 5    1  0.2349912E-004  0.6654270E+03  0.7818608E-02  0.9778254E-01
         13   -1    0    0    0    0  0.00000000000E+00  0.00000000000E+00  0.10000000000E+04  0.10000000000E+04  0.00000000000E+00 0. -1.
          2   -1    0    0  501    0 -0.00000000000E+00 -0.00000000000E+00 -0.11069828263E+03  0.11069828263E+03  0.00000000000E+00 0. -1.
    9000006    2    1    2  501    0  0.00000000000E+00  0.00000000000E+00  0.88930171737E+03  0.11106982826E+04  0.66542702869E+03 0.  0.
         13    1    3    3    0    0 -0.96222823373E+02 -0.30477507829E+03  0.29029631544E+03  0.43176223879E+03  0.00000000000E+00 0. -1.
          4    1    3    3  501    0  0.96222823373E+02  0.30477507829E+03  0.59900540193E+03  0.67893604384E+03  0.00000000000E+00 0. -1.
<mgrwt>
<rscale>  0 0.66542703E+03</rscale>
<asrwt>0</asrwt>
<pdfrwt beam="1">0</pdfrwt>
<pdfrwt beam="2">  1        2 0.40254006E+00 0.66542703E+03</pdfrwt>
<totfact> 0.38915602E+00</totfact>
</mgrwt>
</event>
<event>
 5    1  0.2349912E-004  0.6260782E+03  0.7818608E-02  0.9852732E-01
         13   -1    0    0    0    0  0.00000000000E+00  0.00000000000E+00  0.10000000000E+04  0.10000000000E+04  0.00000000000E+00 0. -1.
          2   -1    0    0  501    0 -0.00000000000E+00 -0.00000000000E+00 -0.97993465572E+02  0.97993465572E+02  0.00000000000E+00 0. -1.
    9000006    2    1    2  501    0  0.00000000000E+00  0.00000000000E+00  0.90200653443E+03  0.10979934656E+04  0.62607815989E+03 0.  0.
         13    1    3    3    0    0 -0.16265201462E+03 -0.75169469808E+02  0.90116874188E+03  0.91880968018E+03  0.00000000000E+00 0. -1.
          2    1    3    3  501    0  0.16265201462E+03  0.75169469808E+02  0.83779255116E+00  0.17918378539E+03  0.00000000000E+00 0. -1.
<mgrwt>
<rscale>  0 0.62607816E+03</rscale>
<asrwt>0</asrwt>
<pdfrwt beam="1">0</pdfrwt>
<pdfrwt beam="2">  1        2 0.35634063E+00 0.62607816E+03</pdfrwt>
<totfact> 0.57801242E+00</totfact>
</mgrwt>
</event>
<event>
 5    1  0.2349912E-004  0.6327606E+03  0.7818608E-02  0.9839676E-01
         13   -1    0    0    0    0  0.00000000000E+00  0.00000000000E+00  0.10000000000E+04  0.10000000000E+04  0.00000000000E+00 0. -1.
          2   -1    0    0  501    0 -0.00000000000E+00 -0.00000000000E+00 -0.10009650613E+03  0.10009650613E+03  0.00000000000E+00 0. -1.
    9000006    2    1    2  501    0  0.00000000000E+00  0.00000000000E+00  0.89990349387E+03  0.11000965061E+04  0.63276063761E+03 0.  0.
         13    1    3    3    0    0  0.62119354670E+02 -0.29278338347E+03  0.27166954350E+03  0.40420943176E+03  0.00000000000E+00 0. -1.
          4    1    3    3  501    0 -0.62119354670E+02  0.29278338347E+03  0.62823395037E+03  0.69588707436E+03  0.00000000000E+00 0. -1.
<mgrwt>
<rscale>  0 0.63276064E+03</rscale>
<asrwt>0</asrwt>
<pdfrwt beam="1">0</pdfrwt>
<pdfrwt beam="2">  1        2 0.36398806E+00 0.63276064E+03</pdfrwt>
<totfact> 0.54187061E+00</totfact>
</mgrwt>
</event>
<event>
 5    1  0.2349912E-004  0.6528328E+03  0.7818608E-02  0.9801478E-01
         13   -1    0    0    0    0  0.00000000000E+00  0.00000000000E+00  0.10000000000E+04  0.10000000000E+04  0.00000000000E+00 0. -1.
          2   -1    0    0  501    0 -0.00000000000E+00 -0.00000000000E+00 -0.10654765769E+03  0.10654765769E+03  0.00000000000E+00 0. -1.
    9000006    2    1    2  501    0  0.00000000000E+00  0.00000000000E+00  0.89345234231E+03  0.11065476577E+04  0.65283277396E+03 0.  0.
         13    1    3    3    0    0  0.13126740095E+03  0.22810733726E+03  0.77401178690E+03  0.81753185511E+03  0.00000000000E+00 0. -1.
          2    1    3    3  501    0 -0.13126740095E+03 -0.22810733726E+03  0.11944055541E+03  0.28901580257E+03  0.00000000000E+00 0. -1.
<mgrwt>
<rscale>  0 0.65283277E+03</rscale>
<asrwt>0</asrwt>
<pdfrwt beam="1">0</pdfrwt>
<pdfrwt beam="2">  1        2 0.38744684E+00 0.65283277E+03</pdfrwt>
<totfact> 0.44354234E+00</totfact>
</mgrwt>
</event>
<event>
 5    1  0.2349912E-004  0.6611702E+03  0.7818608E-02  0.9786042E-01
         13   -1    0    0    0    0  0.00000000000E+00  0.00000000000E+00  0.10000000000E+04  0.10000000000E+04  0.00000000000E+00 0. -1.
          2   -1    0    0  501    0 -0.00000000000E+00 -0.00000000000E+00 -0.10928650183E+03  0.10928650183E+03  0.00000000000E+00 0. -1.
    9000006    2    1    2  501    0  0.00000000000E+00  0.00000000000E+00  0.89071349817E+03  0.11092865018E+04  0.66117018029E+03 0.  0.
         13    1    3    3    0    0  0.29848173859E+03 -0.12711478781E+03  0.55195718956E+03  0.64023921831E+03  0.00000000000E+00 0. -1.
          4    1    3    3  501    0 -0.29848173859E+03  0.12711478781E+03  0.33875630861E+03  0.46904728352E+03  0.00000000000E+00 0. -1.
<mgrwt>
<rscale>  0 0.66117018E+03</rscale>
<asrwt>0</asrwt>
<pdfrwt beam="1">0</pdfrwt>
<pdfrwt beam="2">  1        2 0.39740630E+00 0.66117018E+03</pdfrwt>
<totfact> 0.40693949E+00</totfact>
</mgrwt>
</event>
<event>
 5    1  0.2349912E-004  0.7068937E+03  0.7818608E-02  0.9705515E-01
         13   -1    0    0    0    0  0.00000000000E+00  0.00000000000E+00  0.10000000000E+04  0.10000000000E+04  0.00000000000E+00 0. -1.
          2   -1    0    0  501    0 -0.00000000000E+00 -0.00000000000E+00 -0.12492466324E+03  0.12492466324E+03  0.00000000000E+00 0. -1.
    9000006    2    1    2  501    0  0.00000000000E+00  0.00000000000E+00  0.87507533676E+03  0.11249246632E+04  0.70689366452E+03 0.  0.
         13    1    3    3    0    0 -0.39274788623E+02 -0.18814356095E+03 -0.34494484618E+02  0.19527001310E+03  0.00000000000E+00 0. -1.
          2    1    3    3  501    0  0.39274788623E+02  0.18814356095E+03  0.90956982138E+03  0.92965465013E+03  0.00000000000E+00 0. -1.
<mgrwt>
<rscale>  0 0.70689366E+03</rscale>
<asrwt>0</asrwt>
<pdfrwt beam="1">0</pdfrwt>
<pdfrwt beam="2">  1        2 0.45427246E+00 0.70689366E+03</pdfrwt>
<totfact> 0.24490085E+00</totfact>
</mgrwt>
</event>
<event>
 5    1  0.2349912E-004  0.6284061E+03  0.7818608E-02  0.9848164E-01
         13   -1    0    0    0    0  0.00000000000E+00  0.00000000000E+00  0.10000000000E+04  0.10000000000E+04  0.00000000000E+00 0. -1.
          2   -1    0    0  501    0 -0.00000000000E+00 -0.00000000000E+00 -0.98723547144E+02  0.98723547144E+02  0.00000000000E+00 0. -1.
    9000006    2    1    2  501    0  0.00000000000E+00  0.00000000000E+00  0.90127645286E+03  0.10987235471E+04  0.62840606981E+03 0.  0.
         13    1    3    3    0    0  0.17938587654E+03 -0.37562741747E+02  0.44176581187E+01  0.18332967019E+03  0.00000000000E+00 0. -1.
          4    1    3    3  501    0 -0.17938587654E+03  0.37562741747E+02  0.89685879474E+03  0.91539387695E+03  0.00000000000E+00 0. -1.
<mgrwt>
<rscale>  0 0.62840607E+03</rscale>
<asrwt>0</asrwt>
<pdfrwt beam="1">0</pdfrwt>
<pdfrwt beam="2">  1        2 0.35899547E+00 0.62840607E+03</pdfrwt>
<totfact> 0.56522035E+00</totfact>
</mgrwt>
</event>
<event>
 5    1  0.2349912E-004  0.6435690E+03  0.7818608E-02  0.9818922E-01
         13   -1    0    0    0    0  0.00000000000E+00  0.00000000000E+00  0.10000000000E+04  0.10000000000E+04  0.00000000000E+00 0. -1.
          2   -1    0    0  501    0 -0.00000000000E+00 -0.00000000000E+00 -0.10354525301E+03  0.10354525301E+03  0.00000000000E+00 0. -1.
    9000006    2    1    2  501    0  0.00000000000E+00  0.00000000000E+00  0.89645474699E+03  0.11035452530E+04  0.64356896448E+03 0.  0.
         13    1    3    3    0    0 -0.27283159652E+03  0.13801205969E+03  0.27623378052E+03  0.41205522710E+03  0.00000000000E+00 0. -1.
          2    1    3    3  501    0  0.27283159652E+03 -0.13801205969E+03  0.62022096647E+03  0.69149002591E+03  0.00000000000E+00 0. -1.
<mgrwt>
<rscale>  0 0.64356896E+03</rscale>
<asrwt>0</asrwt>
<pdfrwt beam="1">0</pdfrwt>
<pdfrwt beam="2">  1        2 0.37652899E+00 0.64356896E+03</pdfrwt>
<totfact> 0.48707339E+00</totfact>
</mgrwt>
</event>
<event>
 5    1  0.2349912E-004  0.6443940E+03  0.7818608E-02  0.9817356E-01
         13   -1    0    0    0    0  0.00000000000E+00  0.00000000000E+00  0.10000000000E+04  0.10000000000E+04  0.00000000000E+00 0. -1.
          2   -1    0    0  501    0 -0.00000000000E+00 -0.00000000000E+00 -0.10381090063E+03  0.10381090063E+03  0.00000000000E+00 0. -1.
    9000006    2    1    2  501    0  0.00000000000E+00  0.00000000000E+00  0.89618909937E+03  0.11038109006E+04  0.64439398082E+03 0.  0.
         13    1    3    3    0    0 -0.18531245274E+03 -0.94007733673E+02  0.26304037801E+02  0.20945181197E+03  0.00000000000E+00 0. -1.
          4    1    3    3  501    0  0.18531245274E+03  0.94007733673E+02  0.86988506157E+03  0.89435908866E+03  0.00000000000E+00 0. -1.
<mgrwt>
<rscale>  0 0.64439398E+03</rscale>
<asrwt>0</asrwt>
<pdfrwt beam="1">0</pdfrwt>
<pdfrwt beam="2">  1        2 0.37749498E+00 0.64439398E+03</pdfrwt>
<totfact> 0.48307077E+00</totfact>
</mgrwt>
</event>
<event>
 5    1  0.2349912E-004  0.6355144E+03  0.7818608E-02  0.9834347E-01
         13   -1    0    0    0    0  0.00000000000E+00  0.00000000000E+00  0.10000000000E+04  0.10000000000E+04  0.00000000000E+00 0. -1.
          2   -1    0    0  501    0 -0.00000000000E+00 -0.00000000000E+00 -0.10096963074E+03  0.10096963074E+03  0.00000000000E+00 0. -1.
    9000006    2    1    2  501    0  0.00000000000E+00  0.00000000000E+00  0.89903036926E+03  0.11009696307E+04  0.63551437667E+03 0.  0.
         13    1    3    3    0    0 -0.25131508278E+03  0.16271984511E+03  0.63393813610E+03  0.70108100761E+03  0.00000000000E+00 0. -1.
          4    1    3    3  501    0  0.25131508278E+03 -0.16271984511E+03  0.26509223316E+03  0.39988862313E+03  0.00000000000E+00 0. -1.
<mgrwt>
<rscale>  0 0.63551438E+03</rscale>
<asrwt>0</asrwt>
<pdfrwt beam="1">0</pdfrwt>
<pdfrwt beam="2">  1        2 0.36716307E+00 0.63551438E+03</pdfrwt>
<totfact> 0.52748726E+00</totfact>
</mgrwt>
</event>
<event>
 5    1  0.2349912E-004  0.6401589E+03  0.7818608E-02  0.9825423E-01
         13   -1    0    0    0    0  0.00000000000E+00  0.00000000000E+00  0.10000000000E+04  0.10000000000E+04  0.00000000000E+00 0. -1.
          2   -1    0    0  501    0 -0.00000000000E+00 -0.00000000000E+00 -0.10245085740E+03  0.10245085740E+03  0.00000000000E+00 0. -1.
    9000006    2    1    2  501    0  0.00000000000E+00  0.00000000000E+00  0.89754914260E+03  0.11024508574E+04  0.64015890965E+03 0.  0.
         13    1    3    3    0    0 -0.30717232765E+03 -0.89857963456E+02  0.45677191017E+03  0.55773638073E+03  0.00000000000E+00 0. -1.
          2    1    3    3  501    0  0.30717232765E+03  0.89857963456E+02  0.44077723243E+03  0.54471447668E+03  0.00000000000E+00 0. -1.
<mgrwt>
<rscale>  0 0.64015891E+03</rscale>
<asrwt>0</asrwt>
<pdfrwt beam="1">0</pdfrwt>
<pdfrwt beam="2">  1        2 0.37254936E+00 0.64015891E+03</pdfrwt>
<totfact> 0.50388564E+00</totfact>
</mgrwt>
</event>
<event>
 5    1  0.2349912E-004  0.6550792E+03  0.7818608E-02  0.9797295E-01
         13   -1    0    0    0    0  0.00000000000E+00  0.00000000000E+00  0.10000000000E+04  0.10000000000E+04  0.00000000000E+00 0. -1.
          2   -1    0    0  501    0 -0.00000000000E+00 -0.00000000000E+00 -0.10728218800E+03  0.10728218800E+03  0.00000000000E+00 0. -1.
    9000006    2    1    2  501    0  0.00000000000E+00  0.00000000000E+00  0.89271781200E+03  0.11072821880E+04  0.65507919521E+03 0.  0.
         13    1    3    3    0    0 -0.30121836011E+03 -0.11718930937E+03  0.53606213455E+03  0.62596201706E+03  0.00000000000E+00 0. -1.
          2    1    3    3  501    0  0.30121836011E+03  0.11718930937E+03  0.35665567745E+03  0.48132017094E+03  0.00000000000E+00 0. -1.
<mgrwt>
<rscale>  0 0.65507920E+03</rscale>
<asrwt>0</asrwt>
<pdfrwt beam="1">0</pdfrwt>
<pdfrwt beam="2">  1        2 0.39011787E+00 0.65507920E+03</pdfrwt>
<totfact> 0.43344475E+00</totfact>
</mgrwt>
</event>
<event>
 5    1  0.2349912E-004  0.6401958E+03  0.7818608E-02  0.9825352E-01
         13   -1    0    0    0    0  0.00000000000E+00  0.00000000000E+00  0.10000000000E+04  0.10000000000E+04  0.00000000000E+00 0. -1.
          2   -1    0    0  501    0 -0.00000000000E+00 -0.00000000000E+00 -0.10246267018E+03  0.10246267018E+03  0.00000000000E+00 0. -1.
    9000006    2    1    2  501    0  0.00000000000E+00  0.00000000000E+00  0.89753732982E+03  0.11024626702E+04  0.64019581436E+03 0.  0.
         13    1    3    3    0    0 -0.11792109403E+02 -0.89647704111E+02  0.97755077531E+03  0.98172362863E+03  0.00000000000E+00 0. -1.
          4    1    3    3  501    0  0.11792109403E+02  0.89647704111E+02 -0.80013445490E+02  0.12073904156E+03  0.00000000000E+00 0. -1.
<mgrwt>
<rscale>  0 0.64019581E+03</rscale>
<asrwt>0</asrwt>
<pdfrwt beam="1">0</pdfrwt>
<pdfrwt beam="2">  1        2 0.37259231E+00 0.64019581E+03</pdfrwt>
<totfact> 0.50370137E+00</totfact>
</mgrwt>
</event>
<event>
 5    1  0.2349912E-004  0.6148745E+03  0.7818608E-02  0.9875018E-01
         13   -1    0    0    0    0  0.00000000000E+00  0.00000000000E+00  0.10000000000E+04  0.10000000000E+04  0.00000000000E+00 0. -1.
          2   -1    0    0  501    0 -0.00000000000E+00 -0.00000000000E+00 -0.94517659868E+02  0.94517659868E+02  0.00000000000E+00 0. -1.
    9000006    2    1    2  501    0  0.00000000000E+00  0.00000000000E+00  0.90548234013E+03  0.10945176599E+04  0.61487449083E+03 0.  0.
         13    1    3    3    0    0  0.17966504511E+03 -0.65648524630E+02  0.88117334037E+03  0.90169602029E+03  0.00000000000E+00 0. -1.
          2    1    3    3  501    0 -0.17966504511E+03  0.65648524630E+02  0.24308999762E+02  0.19282163958E+03  0.00000000000E+00 0. -1.
<mgrwt>
<rscale>  0 0.61487449E+03</rscale>
<asrwt>0</asrwt>
<pdfrwt beam="1">0</pdfrwt>
<pdfrwt beam="2">  1        2 0.34370131E+00 0.61487449E+03</pdfrwt>
<totfact> 0.64269084E+00</totfact>
</mgrwt>
</event>
<event>
 5    1  0.2349912E-004  0.6636994E+03  0.7818608E-02  0.9781408E-01
         13   -1    0    0    0    0  0.00000000000E+00  0.00000000000E+00  0.10000000000E+04  0.10000000000E+04  0.00000000000E+00 0. -1.
          2   -1    0    0  501    0 -0.00000000000E+00 -0.00000000000E+00 -0.11012421254E+03  0.11012421254E+03  0.00000000000E+00 0. -1.
    9000006    2    1    2  501    0  0.00000000000E+00  0.00000000000E+00  0.88987578746E+03  0.11101242125E+04  0.66369936731E+03 0.  0.
         13    1    3    3    0    0  0.21712784940E+03 -0.67390766343E+02  0.84927962372E+03  0.87918251668E+03  0.00000000000E+00 0. -1.
          4    1    3    3  501    0 -0.21712784940E+03  0.67390766343E+02  0.40596163738E+02  0.23094169586E+03  0.00000000000E+00 0. -1.
<mgrwt>
<rscale>  0 0.66369937E+03</rscale>
<asrwt>0</asrwt>
<pdfrwt beam="1">0</pdfrwt>
<pdfrwt beam="2">  1        2 0.40045253E+00 0.66369937E+03</pdfrwt>
<totfact> 0.39630131E+00</totfact>
</mgrwt>
</event>
<event>
 5    1  0.2349912E-004  0.6388019E+03  0.7818608E-02  0.9828022E-01
         13   -1    0    0    0    0  0.00000000000E+00  0.00000000000E+00  0.10000000000E+04  0.10000000000E+04  0.00000000000E+00 0. -1.
          2   -1    0    0  501    0 -0.00000000000E+00 -0.00000000000E+00 -0.10201695394E+03  0.10201695394E+03  0.00000000000E+00 0. -1.
    9000006    2    1    2  501    0  0.00000000000E+00  0.00000000000E+00  0.89798304606E+03  0.11020169539E+04  0.63880185955E+03 0.  0.
         13    1    3    3    0    0 -0.12523590842E+03  0.24813945701E+03  0.17753826046E+03  0.32981366984E+03  0.00000000000E+00 0. -1.
          4    1    3    3  501    0  0.12523590842E+03 -0.24813945701E+03  0.72044478560E+03  0.77220328410E+03  0.00000000000E+00 0. -1.
<mgrwt>
<rscale>  0 0.63880186E+03</rscale>
<asrwt>0</asrwt>
<pdfrwt beam="1">0</pdfrwt>
<pdfrwt beam="2">  1        2 0.37097152E+00 0.63880186E+03</pdfrwt>
<totfact> 0.51069712E+00</totfact>
</mgrwt>
</event>
<event>
 5    1  0.2349912E-004  0.6724064E+03  0.7818608E-02  0.9765620E-01
         13   -1    0    0    0    0  0.00000000000E+00  0.00000000000E+00  0.10000000000E+04  0.10000000000E+04  0.00000000000E+00 0. -1.
          2   -1    0    0  501    0 -0.00000000000E+00 -0.00000000000E+00 -0.11303258831E+03  0.11303258831E+03  0.00000000000E+00 0. -1.
    9000006    2    1    2  501    0  0.00000000000E+00  0.00000000000E+00  0.88696741169E+03  0.11130325883E+04  0.67240638995E+03 0.  0.
         13    1    3    3    0    0  0.22974726825E+03  0.13756467647E+03  0.77998064451E+03  0.82466820800E+03  0.00000000000E+00 0. -1.
          4    1    3    3  501    0 -0.22974726825E+03 -0.13756467647E+03  0.10698676718E+03  0.28836438031E+03  0.00000000000E+00 0. -1.
<mgrwt>
<rscale>  0 0.67240639E+03</rscale>
<asrwt>0</asrwt>
<pdfrwt beam="1">0</pdfrwt>
<pdfrwt beam="2">  1        2 0.41102846E+00 0.67240639E+03</pdfrwt>
<totfact> 0.36127448E+00</totfact>
</mgrwt>
</event>
<event>
 5    1  0.2349912E-004  0.6483635E+03  0.7818608E-02  0.9809855E-01
         13   -1    0    0    0    0  0.00000000000E+00  0.00000000000E+00  0.10000000000E+04  0.10000000000E+04  0.00000000000E+00 0. -1.
          2   -1    0    0  501    0 -0.00000000000E+00 -0.00000000000E+00 -0.10509379580E+03  0.10509379580E+03  0.00000000000E+00 0. -1.
    9000006    2    1    2  501    0  0.00000000000E+00  0.00000000000E+00  0.89490620420E+03  0.11050937958E+04  0.64836346534E+03 0.  0.
         13    1    3    3    0    0  0.23136190701E+03  0.10897231236E+03  0.10788734745E+03  0.27756616619E+03  0.00000000000E+00 0. -1.
          2    1    3    3  501    0 -0.23136190701E+03 -0.10897231236E+03  0.78701885675E+03  0.82752762960E+03  0.00000000000E+00 0. -1.
<mgrwt>
<rscale>  0 0.64836347E+03</rscale>
<asrwt>0</asrwt>
<pdfrwt beam="1">0</pdfrwt>
<pdfrwt beam="2">  1        2 0.38216006E+00 0.64836347E+03</pdfrwt>
<totfact> 0.46415930E+00</totfact>
</mgrwt>
</event>
<event>
 5    1  0.2349912E-004  0.6512961E+03  0.7818608E-02  0.9804350E-01
         13   -1    0    0    0    0  0.00000000000E+00  0.00000000000E+00  0.10000000000E+04  0.10000000000E+04  0.00000000000E+00 0. -1.
          2   -1    0    0  501    0 -0.00000000000E+00 -0.00000000000E+00 -0.10604666090E+03  0.10604666090E+03  0.00000000000E+00 0. -1.
    9000006    2    1    2  501    0  0.00000000000E+00  0.00000000000E+00  0.89395333910E+03  0.11060466609E+04  0.65129612588E+03 0.  0.
         13    1    3    3    0    0  0.17674917878E+03  0.26938556770E+03  0.52731189863E+03  0.61795363476E+03  0.00000000000E+00 0. -1.
          4    1    3    3  501    0 -0.17674917878E+03 -0.26938556770E+03  0.36664144048E+03  0.48809302613E+03  0.00000000000E+00 0. -1.
<mgrwt>
<rscale>  0 0.65129613E+03</rscale>
<asrwt>0</asrwt>
<pdfrwt beam="1">0</pdfrwt>
<pdfrwt beam="2">  1        2 0.38562503E+00 0.65129613E+03</pdfrwt>
<totfact> 0.45055117E+00</totfact>
</mgrwt>
</event>
<event>
 5    1  0.2349912E-004  0.6142091E+03  0.7818608E-02  0.9876357E-01
         13   -1    0    0    0    0  0.00000000000E+00  0.00000000000E+00  0.10000000000E+04  0.10000000000E+04  0.00000000000E+00 0. -1.
          2   -1    0    0  501    0 -0.00000000000E+00 -0.00000000000E+00 -0.94313214155E+02  0.94313214155E+02  0.00000000000E+00 0. -1.
    9000006    2    1    2  501    0  0.00000000000E+00  0.00000000000E+00  0.90568678584E+03  0.10943132142E+04  0.61420913101E+03 0.  0.
         13    1    3    3    0    0  0.24854473750E+03  0.10679139050E+03  0.19383157413E+03  0.33279057492E+03  0.00000000000E+00 0. -1.
          2    1    3    3  501    0 -0.24854473750E+03 -0.10679139050E+03  0.71185521171E+03  0.76152263924E+03  0.00000000000E+00 0. -1.
<mgrwt>
<rscale>  0 0.61420913E+03</rscale>
<asrwt>0</asrwt>
<pdfrwt beam="1">0</pdfrwt>
<pdfrwt beam="2">  1        2 0.34295787E+00 0.61420913E+03</pdfrwt>
<totfact> 0.64669797E+00</totfact>
</mgrwt>
</event>
<event>
 5    1  0.2349912E-004  0.6199417E+03  0.7818608E-02  0.9864876E-01
         13   -1    0    0    0    0  0.00000000000E+00  0.00000000000E+00  0.10000000000E+04  0.10000000000E+04  0.00000000000E+00 0. -1.
          2   -1    0    0  501    0 -0.00000000000E+00 -0.00000000000E+00 -0.96081927386E+02  0.96081927386E+02  0.00000000000E+00 0. -1.
    9000006    2    1    2  501    0  0.00000000000E+00  0.00000000000E+00  0.90391807261E+03  0.10960819274E+04  0.61994169850E+03 0.  0.
         13    1    3    3    0    0  0.30284447927E+02 -0.38801627991E+02 -0.89128363667E+02  0.10181640011E+03  0.00000000000E+00 0. -1.
          4    1    3    3  501    0 -0.30284447927E+02  0.38801627991E+02  0.99304643628E+03  0.99426552728E+03  0.00000000000E+00 0. -1.
<mgrwt>
<rscale>  0 0.61994170E+03</rscale>
<asrwt>0</asrwt>
<pdfrwt beam="1">0</pdfrwt>
<pdfrwt beam="2">  1        2 0.34938956E+00 0.61994170E+03</pdfrwt>
<totfact> 0.61279085E+00</totfact>
</mgrwt>
</event>
<event>
 5    1  0.2349912E-004  0.6446438E+03  0.7818608E-02  0.9816882E-01
         13   -1    0    0    0    0  0.00000000000E+00  0.00000000000E+00  0.10000000000E+04  0.10000000000E+04  0.00000000000E+00 0. -1.
          2   -1    0    0  501    0 -0.00000000000E+00 -0.00000000000E+00 -0.10389141533E+03  0.10389141533E+03  0.00000000000E+00 0. -1.
    9000006    2    1    2  501    0  0.00000000000E+00  0.00000000000E+00  0.89610858467E+03  0.11038914153E+04  0.64464382516E+03 0.  0.
         13    1    3    3    0    0 -0.20429988345E+03  0.66872328213E+02  0.36787955502E+02  0.21809104596E+03  0.00000000000E+00 0. -1.
          4    1    3    3  501    0  0.20429988345E+03 -0.66872328213E+02  0.85932062917E+03  0.88580036937E+03  0.00000000000E+00 0. -1.
<mgrwt>
<rscale>  0 0.64464383E+03</rscale>
<asrwt>0</asrwt>
<pdfrwt beam="1">0</pdfrwt>
<pdfrwt beam="2">  1        2 0.37778776E+00 0.64464383E+03</pdfrwt>
<totfact> 0.48186356E+00</totfact>
</mgrwt>
</event>
<event>
 5    1  0.2349912E-004  0.6537967E+03  0.7818608E-02  0.9799681E-01
         13   -1    0    0    0    0  0.00000000000E+00  0.00000000000E+00  0.10000000000E+04  0.10000000000E+04  0.00000000000E+00 0. -1.
          2   -1    0    0  501    0 -0.00000000000E+00 -0.00000000000E+00 -0.10686252196E+03  0.10686252196E+03  0.00000000000E+00 0. -1.
    9000006    2    1    2  501    0  0.00000000000E+00  0.00000000000E+00  0.89313747804E+03  0.11068625220E+04  0.65379667165E+03 0.  0.
         13    1    3    3    0    0  0.31212909024E+03  0.24770103583E+02  0.60560400740E+03  0.68175827152E+03  0.00000000000E+00 0. -1.
          2    1    3    3  501    0 -0.31212909024E+03 -0.24770103583E+02  0.28753347063E+03  0.42510425044E+03  0.00000000000E+00 0. -1.
<mgrwt>
<rscale>  0 0.65379667E+03</rscale>
<asrwt>0</asrwt>
<pdfrwt beam="1">0</pdfrwt>
<pdfrwt beam="2">  1        2 0.38859181E+00 0.65379667E+03</pdfrwt>
<totfact> 0.43918813E+00</totfact>
</mgrwt>
</event>
<event>
 5    1  0.2349912E-004  0.6849047E+03  0.7818608E-02  0.9743401E-01
         13   -1    0    0    0    0  0.00000000000E+00  0.00000000000E+00  0.10000000000E+04  0.10000000000E+04  0.00000000000E+00 0. -1.
          2   -1    0    0  501    0 -0.00000000000E+00 -0.00000000000E+00 -0.11727362030E+03  0.11727362030E+03  0.00000000000E+00 0. -1.
    9000006    2    1    2  501    0  0.00000000000E+00  0.00000000000E+00  0.88272637970E+03  0.11172736203E+04  0.68490472418E+03 0.  0.
         13    1    3    3    0    0 -0.33379506795E+03 -0.71651921770E+02  0.39757682954E+03  0.52404244166E+03  0.00000000000E+00 0. -1.
          2    1    3    3  501    0  0.33379506795E+03  0.71651921770E+02  0.48514955016E+03  0.59323117864E+03  0.00000000000E+00 0. -1.
<mgrwt>
<rscale>  0 0.68490472E+03</rscale>
<asrwt>0</asrwt>
<pdfrwt beam="1">0</pdfrwt>
<pdfrwt beam="2">  1        2 0.42645043E+00 0.68490472E+03</pdfrwt>
<totfact> 0.31513957E+00</totfact>
</mgrwt>
</event>
<event>
 5    1  0.2349912E-004  0.6494646E+03  0.7818608E-02  0.9807784E-01
         13   -1    0    0    0    0  0.00000000000E+00  0.00000000000E+00  0.10000000000E+04  0.10000000000E+04  0.00000000000E+00 0. -1.
          2   -1    0    0  501    0 -0.00000000000E+00 -0.00000000000E+00 -0.10545106329E+03  0.10545106329E+03  0.00000000000E+00 0. -1.
    9000006    2    1    2  501    0  0.00000000000E+00  0.00000000000E+00  0.89454893671E+03  0.11054510633E+04  0.64946458962E+03 0.  0.
         13    1    3    3    0    0  0.24275123494E+02 -0.72131834007E+02 -0.90056446556E+02  0.11790863694E+03  0.00000000000E+00 0. -1.
          2    1    3    3  501    0 -0.24275123494E+02  0.72131834007E+02  0.98460538326E+03  0.98754242636E+03  0.00000000000E+00 0. -1.
<mgrwt>
<rscale>  0 0.64946459E+03</rscale>
<asrwt>0</asrwt>
<pdfrwt beam="1">0</pdfrwt>
<pdfrwt beam="2">  1        2 0.38345922E+00 0.64946459E+03</pdfrwt>
<totfact> 0.45901396E+00</totfact>
</mgrwt>
</event>
<event>
 5    1  0.2349912E-004  0.6484545E+03  0.7818608E-02  0.9809683E-01
         13   -1    0    0    0    0  0.00000000000E+00  0.00000000000E+00  0.10000000000E+04  0.10000000000E+04  0.00000000000E+00 0. -1.
          2   -1    0    0  501    0 -0.00000000000E+00 -0.00000000000E+00 -0.10512332321E+03  0.10512332321E+03  0.00000000000E+00 0. -1.
    9000006    2    1    2  501    0  0.00000000000E+00  0.00000000000E+00  0.89487667679E+03  0.11051233232E+04  0.64845454183E+03 0.  0.
         13    1    3    3    0    0 -0.23503263466E+03 -0.19099161112E+03  0.25011990072E+03  0.39278250929E+03  0.00000000000E+00 0. -1.
          4    1    3    3  501    0  0.23503263466E+03  0.19099161112E+03  0.64475677608E+03  0.71234081391E+03  0.00000000000E+00 0. -1.
<mgrwt>
<rscale>  0 0.64845454E+03</rscale>
<asrwt>0</asrwt>
<pdfrwt beam="1">0</pdfrwt>
<pdfrwt beam="2">  1        2 0.38226744E+00 0.64845454E+03</pdfrwt>
<totfact> 0.46373207E+00</totfact>
</mgrwt>
</event>
<event>
 5    1  0.2349912E-004  0.6430988E+03  0.7818608E-02  0.9819816E-01
         13   -1    0    0    0    0  0.00000000000E+00  0.00000000000E+00  0.10000000000E+04  0.10000000000E+04  0.00000000000E+00 0. -1.
          2   -1    0    0  501    0 -0.00000000000E+00 -0.00000000000E+00 -0.10339402971E+03  0.10339402971E+03  0.00000000000E+00 0. -1.
    9000006    2    1    2  501    0  0.00000000000E+00  0.00000000000E+00  0.89660597029E+03  0.11033940297E+04  0.64309884065E+03 0.  0.
         13    1    3    3    0    0  0.65594417515E+02  0.26343584609E+03  0.74395417316E+03  0.79193994998E+03  0.00000000000E+00 0. -1.
          4    1    3    3  501    0 -0.65594417515E+02 -0.26343584609E+03  0.15265179713E+03  0.31145407973E+03  0.00000000000E+00 0. -1.
<mgrwt>
<rscale>  0 0.64309884E+03</rscale>
<asrwt>0</asrwt>
<pdfrwt beam="1">0</pdfrwt>
<pdfrwt beam="2">  1        2 0.37597908E+00 0.64309884E+03</pdfrwt>
<totfact> 0.48936543E+00</totfact>
</mgrwt>
</event>
<event>
 5    1  0.2349912E-004  0.6432329E+03  0.7818608E-02  0.9819561E-01
         13   -1    0    0    0    0  0.00000000000E+00  0.00000000000E+00  0.10000000000E+04  0.10000000000E+04  0.00000000000E+00 0. -1.
          2   -1    0    0  501    0 -0.00000000000E+00 -0.00000000000E+00 -0.10343712643E+03  0.10343712643E+03  0.00000000000E+00 0. -1.
    9000006    2    1    2  501    0  0.00000000000E+00  0.00000000000E+00  0.89656287357E+03  0.11034371264E+04  0.64323285497E+03 0.  0.
         13    1    3    3    0    0  0.29629446176E+03  0.11737515918E+03  0.52245955843E+03  0.61198964555E+03  0.00000000000E+00 0. -1.
          4    1    3    3  501    0 -0.29629446176E+03 -0.11737515918E+03  0.37410331514E+03  0.49144748088E+03  0.00000000000E+00 0. -1.
<mgrwt>
<rscale>  0 0.64323285E+03</rscale>
<asrwt>0</asrwt>
<pdfrwt beam="1">0</pdfrwt>
<pdfrwt beam="2">  1        2 0.37613580E+00 0.64323285E+03</pdfrwt>
<totfact> 0.48871122E+00</totfact>
</mgrwt>
</event>
<event>
 5    1  0.2349912E-004  0.6324462E+03  0.7818608E-02  0.9840287E-01
         13   -1    0    0    0    0  0.00000000000E+00  0.00000000000E+00  0.10000000000E+04  0.10000000000E+04  0.00000000000E+00 0. -1.
          2   -1    0    0  501    0 -0.00000000000E+00 -0.00000000000E+00 -0.99997040159E+02  0.99997040159E+02  0.00000000000E+00 0. -1.
    9000006    2    1    2  501    0  0.00000000000E+00  0.00000000000E+00  0.90000295984E+03  0.10999970402E+04  0.63244617213E+03 0.  0.
         13    1    3    3    0    0 -0.10115696805E+03  0.18890613099E+03  0.45536059638E+02  0.21907028835E+03  0.00000000000E+00 0. -1.
          4    1    3    3  501    0  0.10115696805E+03 -0.18890613099E+03  0.85446690020E+03  0.88092675181E+03  0.00000000000E+00 0. -1.
<mgrwt>
<rscale>  0 0.63244617E+03</rscale>
<asrwt>0</asrwt>
<pdfrwt beam="1">0</pdfrwt>
<pdfrwt beam="2">  1        2 0.36362637E+00 0.63244617E+03</pdfrwt>
<totfact> 0.54353185E+00</totfact>
</mgrwt>
</event>
<event>
 5    1  0.2349912E-004  0.6523328E+03  0.7818608E-02  0.9802412E-01
         13   -1    0    0    0    0  0.00000000000E+00  0.00000000000E+00  0.10000000000E+04  0.10000000000E+04  0.00000000000E+00 0. -1.
          2   -1    0    0  501    0 -0.00000000000E+00 -0.00000000000E+00 -0.10638451397E+03  0.10638451397E+03  0.00000000000E+00 0. -1.
    9000006    2    1    2  501    0  0.00000000000E+00  0.00000000000E+00  0.89361548603E+03  0.11063845140E+04  0.65233278001E+03 0.  0.
         13    1    3    3    0    0  0.26262066683E+03 -0.18451611604E+03  0.54524697093E+03  0.63270061722E+03  0.00000000000E+00 0. -1.
          2    1    3    3  501    0 -0.26262066683E+03  0.18451611604E+03  0.34836851510E+03  0.47368389675E+03  0.00000000000E+00 0. -1.
<mgrwt>
<rscale>  0 0.65233278E+03</rscale>
<asrwt>0</asrwt>
<pdfrwt beam="1">0</pdfrwt>
<pdfrwt beam="2">  1        2 0.38685359E+00 0.65233278E+03</pdfrwt>
<totfact> 0.44581376E+00</totfact>
</mgrwt>
</event>
<event>
 5    1  0.2349912E-004  0.6458283E+03  0.7818608E-02  0.9814639E-01
         13   -1    0    0    0    0  0.00000000000E+00  0.00000000000E+00  0.10000000000E+04  0.10000000000E+04  0.00000000000E+00 0. -1.
          2   -1    0    0  501    0 -0.00000000000E+00 -0.00000000000E+00 -0.10427355151E+03  0.10427355151E+03  0.00000000000E+00 0. -1.
    9000006    2    1    2  501    0  0.00000000000E+00  0.00000000000E+00  0.89572644849E+03  0.11042735515E+04  0.64582831005E+03 0.  0.
         13    1    3    3    0    0  0.53435785103E+02 -0.29942446224E+03  0.26241546490E+03  0.40171167264E+03  0.00000000000E+00 0. -1.
          4    1    3    3  501    0 -0.53435785103E+02  0.29942446224E+03  0.63331098359E+03  0.70256187888E+03  0.00000000000E+00 0. -1.
<mgrwt>
<rscale>  0 0.64582831E+03</rscale>
<asrwt>0</asrwt>
<pdfrwt beam="1">0</pdfrwt>
<pdfrwt beam="2">  1        2 0.37917735E+00 0.64582831E+03</pdfrwt>
<totfact> 0.47617134E+00</totfact>
</mgrwt>
</event>
<event>
 5    1  0.2349912E-004  0.6398386E+03  0.7818608E-02  0.9826035E-01
         13   -1    0    0    0    0  0.00000000000E+00  0.00000000000E+00  0.10000000000E+04  0.10000000000E+04  0.00000000000E+00 0. -1.
          2   -1    0    0  501    0 -0.00000000000E+00 -0.00000000000E+00 -0.10234837020E+03  0.10234837020E+03  0.00000000000E+00 0. -1.
    9000006    2    1    2  501    0  0.00000000000E+00  0.00000000000E+00  0.89765162980E+03  0.11023483702E+04  0.63983863652E+03 0.  0.
         13    1    3    3    0    0 -0.28650745831E+03 -0.14067840838E+03  0.48623324790E+03  0.58163537514E+03  0.00000000000E+00 0. -1.
          2    1    3    3  501    0  0.28650745831E+03  0.14067840838E+03  0.41141838190E+03  0.52071299506E+03  0.00000000000E+00 0. -1.
<mgrwt>
<rscale>  0 0.63983864E+03</rscale>
<asrwt>0</asrwt>
<pdfrwt beam="1">0</pdfrwt>
<pdfrwt beam="2">  1        2 0.37217668E+00 0.63983864E+03</pdfrwt>
<totfact> 0.50548695E+00</totfact>
</mgrwt>
</event>
<event>
 5    1  0.2349912E-004  0.6564711E+03  0.7818608E-02  0.9794712E-01
         13   -1    0    0    0    0  0.00000000000E+00  0.00000000000E+00  0.10000000000E+04  0.10000000000E+04  0.00000000000E+00 0. -1.
          2   -1    0    0  501    0 -0.00000000000E+00 -0.00000000000E+00 -0.10773857856E+03  0.10773857856E+03  0.00000000000E+00 0. -1.
    9000006    2    1    2  501    0  0.00000000000E+00  0.00000000000E+00  0.89226142144E+03  0.11077385786E+04  0.65647110692E+03 0.  0.
         13    1    3    3    0    0 -0.31287065146E+02 -0.18360520035E+03  0.90219733636E+03  0.92122189714E+03  0.00000000000E+00 0. -1.
          4    1    3    3  501    0  0.31287065146E+02  0.18360520035E+03 -0.99359149187E+01  0.18651668141E+03  0.00000000000E+00 0. -1.
<mgrwt>
<rscale>  0 0.65647111E+03</rscale>
<asrwt>0</asrwt>
<pdfrwt beam="1">0</pdfrwt>
<pdfrwt beam="2">  1        2 0.39177748E+00 0.65647111E+03</pdfrwt>
<totfact> 0.42727588E+00</totfact>
</mgrwt>
</event>
<event>
 5    1  0.2349912E-004  0.6322969E+03  0.7818608E-02  0.9840577E-01
         13   -1    0    0    0    0  0.00000000000E+00  0.00000000000E+00  0.10000000000E+04  0.10000000000E+04  0.00000000000E+00 0. -1.
          2   -1    0    0  501    0 -0.00000000000E+00 -0.00000000000E+00 -0.99949832532E+02  0.99949832532E+02  0.00000000000E+00 0. -1.
    9000006    2    1    2  501    0  0.00000000000E+00  0.00000000000E+00  0.90005016747E+03  0.10999498325E+04  0.63229686867E+03 0.  0.
         13    1    3    3    0    0 -0.28449040937E+03  0.10593252769E+03  0.29645252043E+03  0.42431190216E+03  0.00000000000E+00 0. -1.
          4    1    3    3  501    0  0.28449040937E+03 -0.10593252769E+03  0.60359764704E+03  0.67563793037E+03  0.00000000000E+00 0. -1.
<mgrwt>
<rscale>  0 0.63229687E+03</rscale>
<asrwt>0</asrwt>
<pdfrwt beam="1">0</pdfrwt>
<pdfrwt beam="2">  1        2 0.36345470E+00 0.63229687E+03</pdfrwt>
<totfact> 0.54432193E+00</totfact>
</mgrwt>
</event>
<event>
 5    1  0.2349912E-004  0.6009961E+03  0.7818608E-02  0.9903342E-01
         13   -1    0    0    0    0  0.00000000000E+00  0.00000000000E+00  0.10000000000E+04  0.10000000000E+04  0.00000000000E+00 0. -1.
          2   -1    0    0  501    0 -0.00000000000E+00 -0.00000000000E+00 -0.90299078083E+02  0.90299078083E+02  0.00000000000E+00 0. -1.
    9000006    2    1    2  501    0  0.00000000000E+00  0.00000000000E+00  0.90970092192E+03  0.10902990781E+04  0.60099610010E+03 0.  0.
         13    1    3    3    0    0 -0.17224821296E+03  0.10746702606E+03  0.85676002906E+03  0.88048643144E+03  0.00000000000E+00 0. -1.
          2    1    3    3  501    0  0.17224821296E+03 -0.10746702606E+03  0.52940892860E+02  0.20981264665E+03  0.00000000000E+00 0. -1.
<mgrwt>
<rscale>  0 0.60099610E+03</rscale>
<asrwt>0</asrwt>
<pdfrwt beam="1">0</pdfrwt>
<pdfrwt beam="2">  1        2 0.32836098E+00 0.60099610E+03</pdfrwt>
<totfact> 0.73030801E+00</totfact>
</mgrwt>
</event>
<event>
 5    1  0.2349912E-004  0.6596321E+03  0.7818608E-02  0.9788871E-01
         13   -1    0    0    0    0  0.00000000000E+00  0.00000000000E+00  0.10000000000E+04  0.10000000000E+04  0.00000000000E+00 0. -1.
          2   -1    0    0  501    0 -0.00000000000E+00 -0.00000000000E+00 -0.10877864046E+03  0.10877864046E+03  0.00000000000E+00 0. -1.
    9000006    2    1    2  501    0  0.00000000000E+00  0.00000000000E+00  0.89122135954E+03  0.11087786405E+04  0.65963214131E+03 0.  0.
         13    1    3    3    0    0  0.22766461866E+03  0.22133726825E+03  0.59555335014E+03  0.67491122214E+03  0.00000000000E+00 0. -1.
          4    1    3    3  501    0 -0.22766461866E+03 -0.22133726825E+03  0.29566800940E+03  0.43386741832E+03  0.00000000000E+00 0. -1.
<mgrwt>
<rscale>  0 0.65963214E+03</rscale>
<asrwt>0</asrwt>
<pdfrwt beam="1">0</pdfrwt>
<pdfrwt beam="2">  1        2 0.39555953E+00 0.65963214E+03</pdfrwt>
<totfact> 0.41351322E+00</totfact>
</mgrwt>
</event>
<event>
 5    1  0.2349912E-004  0.6524116E+03  0.7818608E-02  0.9802265E-01
         13   -1    0    0    0    0  0.00000000000E+00  0.00000000000E+00  0.10000000000E+04  0.10000000000E+04  0.00000000000E+00 0. -1.
          2   -1    0    0  501    0 -0.00000000000E+00 -0.00000000000E+00 -0.10641021000E+03  0.10641021000E+03  0.00000000000E+00 0. -1.
    9000006    2    1    2  501    0  0.00000000000E+00  0.00000000000E+00  0.89358979000E+03  0.11064102100E+04  0.65241155721E+03 0.  0.
         13    1    3    3    0    0  0.37086259613E+01 -0.32126498304E+03  0.35108266520E+03  0.47590333161E+03  0.00000000000E+00 0. -1.
          4    1    3    3  501    0 -0.37086259613E+01  0.32126498304E+03  0.54250712480E+03  0.63050687839E+03  0.00000000000E+00 0. -1.
<mgrwt>
<rscale>  0 0.65241156E+03</rscale>
<asrwt>0</asrwt>
<pdfrwt beam="1">0</pdfrwt>
<pdfrwt beam="2">  1        2 0.38694703E+00 0.65241156E+03</pdfrwt>
<totfact> 0.44545530E+00</totfact>
</mgrwt>
</event>
<event>
 5    1  0.2349912E-004  0.6518545E+03  0.7818608E-02  0.9803306E-01
         13   -1    0    0    0    0  0.00000000000E+00  0.00000000000E+00  0.10000000000E+04  0.10000000000E+04  0.00000000000E+00 0. -1.
          2   -1    0    0  501    0 -0.00000000000E+00 -0.00000000000E+00 -0.10622856574E+03  0.10622856574E+03  0.00000000000E+00 0. -1.
    9000006    2    1    2  501    0  0.00000000000E+00  0.00000000000E+00  0.89377143426E+03  0.11062285657E+04  0.65185447989E+03 0.  0.
         13    1    3    3    0    0 -0.29735438610E+03 -0.68389924787E+02  0.64135703931E+03  0.71023634420E+03  0.00000000000E+00 0. -1.
          4    1    3    3  501    0  0.29735438610E+03  0.68389924787E+02  0.25241439495E+03  0.39599222154E+03  0.00000000000E+00 0. -1.
<mgrwt>
<rscale>  0 0.65185448E+03</rscale>
<asrwt>0</asrwt>
<pdfrwt beam="1">0</pdfrwt>
<pdfrwt beam="2">  1        2 0.38628651E+00 0.65185448E+03</pdfrwt>
<totfact> 0.44799484E+00</totfact>
</mgrwt>
</event>
<event>
 5    1  0.2349912E-004  0.6551775E+03  0.7818608E-02  0.9797112E-01
         13   -1    0    0    0    0  0.00000000000E+00  0.00000000000E+00  0.10000000000E+04  0.10000000000E+04  0.00000000000E+00 0. -1.
          2   -1    0    0  501    0 -0.00000000000E+00 -0.00000000000E+00 -0.10731439591E+03  0.10731439591E+03  0.00000000000E+00 0. -1.
    9000006    2    1    2  501    0  0.00000000000E+00  0.00000000000E+00  0.89268560409E+03  0.11073143959E+04  0.65517752069E+03 0.  0.
         13    1    3    3    0    0 -0.31508744323E+02 -0.27296532134E+03  0.74778512287E+03  0.79667148663E+03  0.00000000000E+00 0. -1.
          4    1    3    3  501    0  0.31508744323E+02  0.27296532134E+03  0.14490048123E+03  0.31064290928E+03  0.00000000000E+00 0. -1.
<mgrwt>
<rscale>  0 0.65517752E+03</rscale>
<asrwt>0</asrwt>
<pdfrwt beam="1">0</pdfrwt>
<pdfrwt beam="2">  1        2 0.39023499E+00 0.65517752E+03</pdfrwt>
<totfact> 0.43300678E+00</totfact>
</mgrwt>
</event>
<event>
 5    1  0.2349912E-004  0.6485533E+03  0.7818608E-02  0.9809498E-01
         13   -1    0    0    0    0  0.00000000000E+00  0.00000000000E+00  0.10000000000E+04  0.10000000000E+04  0.00000000000E+00 0. -1.
          4   -1    0    0  501    0 -0.00000000000E+00 -0.00000000000E+00 -0.10515534455E+03  0.10515534455E+03  0.00000000000E+00 0. -1.
    9000006    2    1    2  501    0  0.00000000000E+00  0.00000000000E+00  0.89484465545E+03  0.11051553446E+04  0.64855329635E+03 0.  0.
         13    1    3    3    0    0 -0.13871796569E+03  0.19701627137E+03  0.81722962370E+03  0.85201076463E+03  0.00000000000E+00 0. -1.
          4    1    3    3  501    0  0.13871796569E+03 -0.19701627137E+03  0.77615031746E+02  0.25314457992E+03  0.00000000000E+00 0. -1.
<mgrwt>
<rscale>  0 0.64855330E+03</rscale>
<asrwt>0</asrwt>
<pdfrwt beam="1">0</pdfrwt>
<pdfrwt beam="2">  1        4 0.38238388E+00 0.64855330E+03</pdfrwt>
<totfact> 0.42281476E-02</totfact>
</mgrwt>
</event>
<event>
 5    1  0.2349912E-004  0.6639868E+03  0.7818608E-02  0.9780882E-01
         13   -1    0    0    0    0  0.00000000000E+00  0.00000000000E+00  0.10000000000E+04  0.10000000000E+04  0.00000000000E+00 0. -1.
          2   -1    0    0  501    0 -0.00000000000E+00 -0.00000000000E+00 -0.11021962883E+03  0.11021962883E+03  0.00000000000E+00 0. -1.
    9000006    2    1    2  501    0  0.00000000000E+00  0.00000000000E+00  0.88978037117E+03  0.11102196288E+04  0.66398683368E+03 0.  0.
         13    1    3    3    0    0  0.27154870380E+02 -0.28629057046E+03  0.16751138705E+03  0.33280586310E+03  0.00000000000E+00 0. -1.
          2    1    3    3  501    0 -0.27154870380E+02  0.28629057046E+03  0.72226898412E+03  0.77741376573E+03  0.00000000000E+00 0. -1.
<mgrwt>
<rscale>  0 0.66398683E+03</rscale>
<asrwt>0</asrwt>
<pdfrwt beam="1">0</pdfrwt>
<pdfrwt beam="2">  1        2 0.40079950E+00 0.66398683E+03</pdfrwt>
<totfact> 0.39510560E+00</totfact>
</mgrwt>
</event>
<event>
 5    1  0.2349912E-004  0.6018036E+03  0.7818608E-02  0.9901671E-01
         13   -1    0    0    0    0  0.00000000000E+00  0.00000000000E+00  0.10000000000E+04  0.10000000000E+04  0.00000000000E+00 0. -1.
          2   -1    0    0  501    0 -0.00000000000E+00 -0.00000000000E+00 -0.90541885321E+02  0.90541885321E+02  0.00000000000E+00 0. -1.
    9000006    2    1    2  501    0  0.00000000000E+00  0.00000000000E+00  0.90945811468E+03  0.10905418853E+04  0.60180357367E+03 0.  0.
         13    1    3    3    0    0 -0.79428093512E+02  0.25786002725E+03  0.21336092147E+03  0.34398182874E+03  0.00000000000E+00 0. -1.
          2    1    3    3  501    0  0.79428093512E+02 -0.25786002725E+03  0.69609719321E+03  0.74656005658E+03  0.00000000000E+00 0. -1.
<mgrwt>
<rscale>  0 0.60180357E+03</rscale>
<asrwt>0</asrwt>
<pdfrwt beam="1">0</pdfrwt>
<pdfrwt beam="2">  1        2 0.32924391E+00 0.60180357E+03</pdfrwt>
<totfact> 0.72497314E+00</totfact>
</mgrwt>
</event>
<event>
 5    1  0.2349912E-004  0.6243672E+03  0.7818608E-02  0.9856103E-01
         13   -1    0    0    0    0  0.00000000000E+00  0.00000000000E+00  0.10000000000E+04  0.10000000000E+04  0.00000000000E+00 0. -1.
          2   -1    0    0  501    0 -0.00000000000E+00 -0.00000000000E+00 -0.97458604259E+02  0.97458604259E+02  0.00000000000E+00 0. -1.
    9000006    2    1    2  501    0  0.00000000000E+00  0.00000000000E+00  0.90254139574E+03  0.10974586043E+04  0.62436721329E+03 0.  0.
         13    1    3    3    0    0 -0.22081143195E+03  0.16076485577E+03  0.18553851651E+03  0.33019322894E+03  0.00000000000E+00 0. -1.
          4    1    3    3  501    0  0.22081143195E+03 -0.16076485577E+03  0.71700287923E+03  0.76726537531E+03  0.00000000000E+00 0. -1.
<mgrwt>
<rscale>  0 0.62436721E+03</rscale>
<asrwt>0</asrwt>
<pdfrwt beam="1">0</pdfrwt>
<pdfrwt beam="2">  1        2 0.35439567E+00 0.62436721E+03</pdfrwt>
<totfact> 0.58755421E+00</totfact>
</mgrwt>
</event>
<event>
 5    1  0.2349912E-004  0.6307165E+03  0.7818608E-02  0.9843652E-01
         13   -1    0    0    0    0  0.00000000000E+00  0.00000000000E+00  0.10000000000E+04  0.10000000000E+04  0.00000000000E+00 0. -1.
          2   -1    0    0  501    0 -0.00000000000E+00 -0.00000000000E+00 -0.99450837645E+02  0.99450837645E+02  0.00000000000E+00 0. -1.
    9000006    2    1    2  501    0  0.00000000000E+00  0.00000000000E+00  0.90054916236E+03  0.10994508376E+04  0.63071653742E+03 0.  0.
         13    1    3    3    0    0  0.15170164023E+03 -0.15320445617E+03  0.49094328900E+02  0.22112269483E+03  0.00000000000E+00 0. -1.
          4    1    3    3  501    0 -0.15170164023E+03  0.15320445617E+03  0.85145483346E+03  0.87832814281E+03  0.00000000000E+00 0. -1.
<mgrwt>
<rscale>  0 0.63071654E+03</rscale>
<asrwt>0</asrwt>
<pdfrwt beam="1">0</pdfrwt>
<pdfrwt beam="2">  1        2 0.36164017E+00 0.63071654E+03</pdfrwt>
<totfact> 0.55273824E+00</totfact>
</mgrwt>
</event>
<event>
 5    1  0.2349912E-004  0.6345942E+03  0.7818608E-02  0.9836124E-01
         13   -1    0    0    0    0  0.00000000000E+00  0.00000000000E+00  0.10000000000E+04  0.10000000000E+04  0.00000000000E+00 0. -1.
          2   -1    0    0  501    0 -0.00000000000E+00 -0.00000000000E+00 -0.10067745533E+03  0.10067745533E+03  0.00000000000E+00 0. -1.
    9000006    2    1    2  501    0  0.00000000000E+00  0.00000000000E+00  0.89932254467E+03  0.11006774553E+04  0.63459421783E+03 0.  0.
         13    1    3    3    0    0 -0.14089350150E+03 -0.57395633621E+02 -0.33291945450E+02  0.15573564510E+03  0.00000000000E+00 0. -1.
          4    1    3    3  501    0  0.14089350150E+03  0.57395633621E+02  0.93261449012E+03  0.94494181022E+03  0.00000000000E+00 0. -1.
<mgrwt>
<rscale>  0 0.63459422E+03</rscale>
<asrwt>0</asrwt>
<pdfrwt beam="1">0</pdfrwt>
<pdfrwt beam="2">  1        2 0.36610061E+00 0.63459422E+03</pdfrwt>
<totfact> 0.53226083E+00</totfact>
</mgrwt>
</event>
<event>
 5    1  0.2349912E-004  0.6723094E+03  0.7818608E-02  0.9765795E-01
         13   -1    0    0    0    0  0.00000000000E+00  0.00000000000E+00  0.10000000000E+04  0.10000000000E+04  0.00000000000E+00 0. -1.
          2   -1    0    0  501    0 -0.00000000000E+00 -0.00000000000E+00 -0.11299997476E+03  0.11299997476E+03  0.00000000000E+00 0. -1.
    9000006    2    1    2  501    0  0.00000000000E+00  0.00000000000E+00  0.88700002524E+03  0.11129999748E+04  0.67230937748E+03 0.  0.
         13    1    3    3    0    0 -0.11636658888E+03 -0.45516896887E+02 -0.73126259856E+02  0.14477714181E+03  0.00000000000E+00 0. -1.
          2    1    3    3  501    0  0.11636658888E+03  0.45516896887E+02  0.96012628510E+03  0.96822283295E+03  0.00000000000E+00 0. -1.
<mgrwt>
<rscale>  0 0.67230938E+03</rscale>
<asrwt>0</asrwt>
<pdfrwt beam="1">0</pdfrwt>
<pdfrwt beam="2">  1        2 0.41090987E+00 0.67230938E+03</pdfrwt>
<totfact> 0.36165139E+00</totfact>
</mgrwt>
</event>
<event>
 5    1  0.2349912E-004  0.6475375E+03  0.7818608E-02  0.9811411E-01
         13   -1    0    0    0    0  0.00000000000E+00  0.00000000000E+00  0.10000000000E+04  0.10000000000E+04  0.00000000000E+00 0. -1.
          2   -1    0    0  501    0 -0.00000000000E+00 -0.00000000000E+00 -0.10482618779E+03  0.10482618779E+03  0.00000000000E+00 0. -1.
    9000006    2    1    2  501    0  0.00000000000E+00  0.00000000000E+00  0.89517381221E+03  0.11048261878E+04  0.64753745155E+03 0.  0.
         13    1    3    3    0    0  0.27359558950E+03 -0.17070182729E+03  0.39835707741E+03  0.51252514236E+03  0.00000000000E+00 0. -1.
          4    1    3    3  501    0 -0.27359558950E+03  0.17070182729E+03  0.49681673480E+03  0.59230104543E+03  0.00000000000E+00 0. -1.
<mgrwt>
<rscale>  0 0.64753745E+03</rscale>
<asrwt>0</asrwt>
<pdfrwt beam="1">0</pdfrwt>
<pdfrwt beam="2">  1        2 0.38118694E+00 0.64753745E+03</pdfrwt>
<totfact> 0.46804764E+00</totfact>
</mgrwt>
</event>
<event>
 5    1  0.2349912E-004  0.6514645E+03  0.7818608E-02  0.9804035E-01
         13   -1    0    0    0    0  0.00000000000E+00  0.00000000000E+00  0.10000000000E+04  0.10000000000E+04  0.00000000000E+00 0. -1.
          2   -1    0    0  501    0 -0.00000000000E+00 -0.00000000000E+00 -0.10610149840E+03  0.10610149840E+03  0.00000000000E+00 0. -1.
    9000006    2    1    2  501    0  0.00000000000E+00  0.00000000000E+00  0.89389850160E+03  0.11061014984E+04  0.65146449910E+03 0.  0.
         13    1    3    3    0    0  0.21517227797E+02 -0.28907578290E+03  0.69920541347E+03  0.75691215447E+03  0.00000000000E+00 0. -1.
          4    1    3    3  501    0 -0.21517227797E+02  0.28907578290E+03  0.19469308813E+03  0.34918934393E+03  0.00000000000E+00 0. -1.
<mgrwt>
<rscale>  0 0.65146450E+03</rscale>
<asrwt>0</asrwt>
<pdfrwt beam="1">0</pdfrwt>
<pdfrwt beam="2">  1        2 0.38582444E+00 0.65146450E+03</pdfrwt>
<totfact> 0.44977914E+00</totfact>
</mgrwt>
</event>
<event>
 5    1  0.2349912E-004  0.6548634E+03  0.7818608E-02  0.9797696E-01
         13   -1    0    0    0    0  0.00000000000E+00  0.00000000000E+00  0.10000000000E+04  0.10000000000E+04  0.00000000000E+00 0. -1.
          2   -1    0    0  501    0 -0.00000000000E+00 -0.00000000000E+00 -0.10721152122E+03  0.10721152122E+03  0.00000000000E+00 0. -1.
    9000006    2    1    2  501    0  0.00000000000E+00  0.00000000000E+00  0.89278847878E+03  0.11072115212E+04  0.65486340932E+03 0.  0.
         13    1    3    3    0    0 -0.21165645029E+03 -0.23289690747E+03  0.59923763403E+03  0.67684944005E+03  0.00000000000E+00 0. -1.
          2    1    3    3  501    0  0.21165645029E+03  0.23289690747E+03  0.29355084475E+03  0.43036208117E+03  0.00000000000E+00 0. -1.
<mgrwt>
<rscale>  0 0.65486341E+03</rscale>
<asrwt>0</asrwt>
<pdfrwt beam="1">0</pdfrwt>
<pdfrwt beam="2">  1        2 0.38986090E+00 0.65486341E+03</pdfrwt>
<totfact> 0.43440709E+00</totfact>
</mgrwt>
</event>
<event>
 5    1  0.2349912E-004  0.6472931E+03  0.7818608E-02  0.9811872E-01
         13   -1    0    0    0    0  0.00000000000E+00  0.00000000000E+00  0.10000000000E+04  0.10000000000E+04  0.00000000000E+00 0. -1.
          2   -1    0    0  501    0 -0.00000000000E+00 -0.00000000000E+00 -0.10474709532E+03  0.10474709532E+03  0.00000000000E+00 0. -1.
    9000006    2    1    2  501    0  0.00000000000E+00  0.00000000000E+00  0.89525290468E+03  0.11047470953E+04  0.64729311852E+03 0.  0.
         13    1    3    3    0    0  0.11104589965E+03  0.29269789777E+03  0.58778372582E+03  0.66595267063E+03  0.00000000000E+00 0. -1.
          2    1    3    3  501    0 -0.11104589965E+03 -0.29269789777E+03  0.30746917886E+03  0.43879442469E+03  0.00000000000E+00 0. -1.
<mgrwt>
<rscale>  0 0.64729312E+03</rscale>
<asrwt>0</asrwt>
<pdfrwt beam="1">0</pdfrwt>
<pdfrwt beam="2">  1        2 0.38089933E+00 0.64729312E+03</pdfrwt>
<totfact> 0.46920251E+00</totfact>
</mgrwt>
</event>
<event>
 5    1  0.2349912E-004  0.6544928E+03  0.7818608E-02  0.9798385E-01
         13   -1    0    0    0    0  0.00000000000E+00  0.00000000000E+00  0.10000000000E+04  0.10000000000E+04  0.00000000000E+00 0. -1.
          2   -1    0    0  501    0 -0.00000000000E+00 -0.00000000000E+00 -0.10709020912E+03  0.10709020912E+03  0.00000000000E+00 0. -1.
    9000006    2    1    2  501    0  0.00000000000E+00  0.00000000000E+00  0.89290979088E+03  0.11070902091E+04  0.65449280857E+03 0.  0.
         13    1    3    3    0    0  0.14649051225E+02 -0.14353041267E+03  0.94329849148E+03  0.95426810597E+03  0.00000000000E+00 0. -1.
          2    1    3    3  501    0 -0.14649051225E+02  0.14353041267E+03 -0.50388700594E+02  0.15282210314E+03  0.00000000000E+00 0. -1.
<mgrwt>
<rscale>  0 0.65449281E+03</rscale>
<asrwt>0</asrwt>
<pdfrwt beam="1">0</pdfrwt>
<pdfrwt beam="2">  1        2 0.38941976E+00 0.65449281E+03</pdfrwt>
<totfact> 0.43606361E+00</totfact>
</mgrwt>
</event>
<event>
 5    1  0.2349912E-004  0.6436418E+03  0.7818608E-02  0.9818784E-01
         13   -1    0    0    0    0  0.00000000000E+00  0.00000000000E+00  0.10000000000E+04  0.10000000000E+04  0.00000000000E+00 0. -1.
          2   -1    0    0  501    0 -0.00000000000E+00 -0.00000000000E+00 -0.10356869480E+03  0.10356869480E+03  0.00000000000E+00 0. -1.
    9000006    2    1    2  501    0  0.00000000000E+00  0.00000000000E+00  0.89643130520E+03  0.11035686948E+04  0.64364180969E+03 0.  0.
         13    1    3    3    0    0 -0.28188059708E+03  0.58700245657E+02  0.20173289639E+03  0.35156585633E+03  0.00000000000E+00 0. -1.
          4    1    3    3  501    0  0.28188059708E+03 -0.58700245657E+02  0.69469840881E+03  0.75200283846E+03  0.00000000000E+00 0. -1.
<mgrwt>
<rscale>  0 0.64364181E+03</rscale>
<asrwt>0</asrwt>
<pdfrwt beam="1">0</pdfrwt>
<pdfrwt beam="2">  1        2 0.37661423E+00 0.64364181E+03</pdfrwt>
<totfact> 0.48671897E+00</totfact>
</mgrwt>
</event>
<event>
 5    1  0.2349912E-004  0.6419914E+03  0.7818608E-02  0.9821924E-01
         13   -1    0    0    0    0  0.00000000000E+00  0.00000000000E+00  0.10000000000E+04  0.10000000000E+04  0.00000000000E+00 0. -1.
          2   -1    0    0  501    0 -0.00000000000E+00 -0.00000000000E+00 -0.10303822880E+03  0.10303822880E+03  0.00000000000E+00 0. -1.
    9000006    2    1    2  501    0  0.00000000000E+00  0.00000000000E+00  0.89696177120E+03  0.11030382288E+04  0.64199136691E+03 0.  0.
         13    1    3    3    0    0  0.90988014421E+02 -0.24658551712E+03  0.76508255285E+03  0.80897129040E+03  0.00000000000E+00 0. -1.
          4    1    3    3  501    0 -0.90988014421E+02  0.24658551712E+03  0.13187921836E+03  0.29406693840E+03  0.00000000000E+00 0. -1.
<mgrwt>
<rscale>  0 0.64199137E+03</rscale>
<asrwt>0</asrwt>
<pdfrwt beam="1">0</pdfrwt>
<pdfrwt beam="2">  1        2 0.37468526E+00 0.64199137E+03</pdfrwt>
<totfact> 0.49479737E+00</totfact>
</mgrwt>
</event>
<event>
 5    1  0.2349912E-004  0.6742265E+03  0.7818608E-02  0.9762353E-01
         13   -1    0    0    0    0  0.00000000000E+00  0.00000000000E+00  0.10000000000E+04  0.10000000000E+04  0.00000000000E+00 0. -1.
          2   -1    0    0  501    0 -0.00000000000E+00 -0.00000000000E+00 -0.11364533300E+03  0.11364533300E+03  0.00000000000E+00 0. -1.
    9000006    2    1    2  501    0  0.00000000000E+00  0.00000000000E+00  0.88635466700E+03  0.11136453330E+04  0.67422646936E+03 0.  0.
         13    1    3    3    0    0  0.14032430617E+03 -0.25268658011E+03  0.15659290617E+03  0.32872900227E+03  0.00000000000E+00 0. -1.
          2    1    3    3  501    0 -0.14032430617E+03  0.25268658011E+03  0.72976176083E+03  0.78491633073E+03  0.00000000000E+00 0. -1.
<mgrwt>
<rscale>  0 0.67422647E+03</rscale>
<asrwt>0</asrwt>
<pdfrwt beam="1">0</pdfrwt>
<pdfrwt beam="2">  1        2 0.41325663E+00 0.67422647E+03</pdfrwt>
<totfact> 0.35425812E+00</totfact>
</mgrwt>
</event>
<event>
 5    1  0.2349912E-004  0.6478325E+03  0.7818608E-02  0.9810855E-01
         13   -1    0    0    0    0  0.00000000000E+00  0.00000000000E+00  0.10000000000E+04  0.10000000000E+04  0.00000000000E+00 0. -1.
          2   -1    0    0  501    0 -0.00000000000E+00 -0.00000000000E+00 -0.10492173958E+03  0.10492173958E+03  0.00000000000E+00 0. -1.
    9000006    2    1    2  501    0  0.00000000000E+00  0.00000000000E+00  0.89507826042E+03  0.11049217396E+04  0.64783250792E+03 0.  0.
         13    1    3    3    0    0 -0.11314030846E+03 -0.28860673404E+03  0.28729602182E+03  0.42265066010E+03  0.00000000000E+00 0. -1.
          4    1    3    3  501    0  0.11314030846E+03  0.28860673404E+03  0.60778223860E+03  0.68227107948E+03  0.00000000000E+00 0. -1.
<mgrwt>
<rscale>  0 0.64783251E+03</rscale>
<asrwt>0</asrwt>
<pdfrwt beam="1">0</pdfrwt>
<pdfrwt beam="2">  1        2 0.38153440E+00 0.64783251E+03</pdfrwt>
<totfact> 0.46665589E+00</totfact>
</mgrwt>
</event>
<event>
 5    1  0.2349912E-004  0.6562548E+03  0.7818608E-02  0.9795113E-01
         13   -1    0    0    0    0  0.00000000000E+00  0.00000000000E+00  0.10000000000E+04  0.10000000000E+04  0.00000000000E+00 0. -1.
          2   -1    0    0  501    0 -0.00000000000E+00 -0.00000000000E+00 -0.10766758517E+03  0.10766758517E+03  0.00000000000E+00 0. -1.
    9000006    2    1    2  501    0  0.00000000000E+00  0.00000000000E+00  0.89233241483E+03  0.11076675852E+04  0.65625478336E+03 0.  0.
         13    1    3    3    0    0  0.21803242567E+03  0.53303918665E+02  0.42177411089E+02  0.22838209298E+03  0.00000000000E+00 0. -1.
          4    1    3    3  501    0 -0.21803242567E+03 -0.53303918665E+02  0.85015500374E+03  0.87928549219E+03  0.00000000000E+00 0. -1.
<mgrwt>
<rscale>  0 0.65625478E+03</rscale>
<asrwt>0</asrwt>
<pdfrwt beam="1">0</pdfrwt>
<pdfrwt beam="2">  1        2 0.39151932E+00 0.65625478E+03</pdfrwt>
<totfact> 0.42823024E+00</totfact>
</mgrwt>
</event>
<event>
 5    1  0.2349912E-004  0.6415082E+03  0.7818608E-02  0.9822845E-01
         13   -1    0    0    0    0  0.00000000000E+00  0.00000000000E+00  0.10000000000E+04  0.10000000000E+04  0.00000000000E+00 0. -1.
          2   -1    0    0  501    0 -0.00000000000E+00 -0.00000000000E+00 -0.10288319285E+03  0.10288319285E+03  0.00000000000E+00 0. -1.
    9000006    2    1    2  501    0  0.00000000000E+00  0.00000000000E+00  0.89711680715E+03  0.11028831929E+04  0.64150820058E+03 0.  0.
         13    1    3    3    0    0 -0.10475918660E+03 -0.10686735915E+03 -0.39186872150E+02  0.15469560620E+03  0.00000000000E+00 0. -1.
          2    1    3    3  501    0  0.10475918660E+03  0.10686735915E+03  0.93630367930E+03  0.94818758666E+03  0.00000000000E+00 0. -1.
<mgrwt>
<rscale>  0 0.64150820E+03</rscale>
<asrwt>0</asrwt>
<pdfrwt beam="1">0</pdfrwt>
<pdfrwt beam="2">  1        2 0.37412149E+00 0.64150820E+03</pdfrwt>
<totfact> 0.49718154E+00</totfact>
</mgrwt>
</event>
<event>
 5    1  0.2349912E-004  0.6570652E+03  0.7818608E-02  0.9793611E-01
         13   -1    0    0    0    0  0.00000000000E+00  0.00000000000E+00  0.10000000000E+04  0.10000000000E+04  0.00000000000E+00 0. -1.
          2   -1    0    0  501    0 -0.00000000000E+00 -0.00000000000E+00 -0.10793366720E+03  0.10793366720E+03  0.00000000000E+00 0. -1.
    9000006    2    1    2  501    0  0.00000000000E+00  0.00000000000E+00  0.89206633280E+03  0.11079336672E+04  0.65706519371E+03 0.  0.
         13    1    3    3    0    0 -0.18713849854E+03  0.26908597992E+03  0.40811892469E+03  0.52343971852E+03  0.00000000000E+00 0. -1.
          4    1    3    3  501    0  0.18713849854E+03 -0.26908597992E+03  0.48394740811E+03  0.58449394868E+03  0.00000000000E+00 0. -1.
<mgrwt>
<rscale>  0 0.65706519E+03</rscale>
<asrwt>0</asrwt>
<pdfrwt beam="1">0</pdfrwt>
<pdfrwt beam="2">  1        2 0.39248689E+00 0.65706519E+03</pdfrwt>
<totfact> 0.42466321E+00</totfact>
</mgrwt>
</event>
