<event>
 6    1  0.6458647E-003  0.6540103E+03  0.7818608E-02  0.9799283E-01
          1   -1    0    0  502    0  0.00000000000E+00  0.00000000000E+00  0.11129841751E+03  0.11129841751E+03  0.00000000000E+00 0.  1.
         13   -1    0    0    0    0 -0.00000000000E+00 -0.00000000000E+00 -0.10000000000E+04  0.10000000000E+04  0.00000000000E+00 0.  1.
    9000005    2    1    2  501    0  0.99889866053E-01 -0.20348584127E+00 -0.89306438261E+03  0.11069297324E+04  0.65401023665E+03 0.  0.
         13    1    3    3    0    0  0.17160603220E+03 -0.81580258578E+02  0.39469219525E+01  0.19005143269E+03  0.00000000000E+00 0.  1.
          1    1    3    3  501    0 -0.17150614233E+03  0.81376772737E+02 -0.89701130457E+03  0.91687829973E+03  0.00000000000E+00 0.  1.
         21    1    1    2  502  501 -0.99889866053E-01  0.20348584127E+00  0.43628001234E+01  0.43686850870E+01  0.00000000000E+00 0.  1.
<mgrwt>
<rscale>  1 0.65401028E+03</rscale>
<asrwt>0</asrwt>
<pdfrwt beam="1">  1        1 0.40472237E+00 0.65401028E+03</pdfrwt>
<pdfrwt beam="2">0</pdfrwt>
<totfact> 0.12735178E+00</totfact>
</mgrwt>
</event>
<event>
 6    1  0.6458647E-003  0.6552480E+03  0.7818608E-02  0.9796981E-01
          1   -1    0    0  502    0  0.00000000000E+00  0.00000000000E+00  0.11392100346E+03  0.11392100346E+03  0.00000000000E+00 0.  1.
         13   -1    0    0    0    0 -0.00000000000E+00 -0.00000000000E+00 -0.10000000000E+04  0.10000000000E+04  0.00000000000E+00 0.  1.
    9000005    2    1    2  501    0  0.92936354798E+01 -0.34671661442E+01 -0.88823366455E+03  0.11037703633E+04  0.65517293836E+03 0.  0.
         13    1    3    3    0    0  0.13876154294E+03  0.19587123846E+03 -0.82299559554E+03  0.85728761692E+03  0.00000000000E+00 0.  1.
          3    1    3    3  501    0 -0.12946790746E+03 -0.19933840460E+03 -0.65238069008E+02  0.24648274637E+03  0.00000000000E+00 0.  1.
         21    1    1    2  502  501 -0.92936354798E+01  0.34671661442E+01  0.21546680071E+01  0.10150640163E+02  0.00000000000E+00 0.  1.
<mgrwt>
<rscale>  1 0.65524802E+03</rscale>
<asrwt>0</asrwt>
<pdfrwt beam="1">  1        1 0.41425907E+00 0.65524802E+03</pdfrwt>
<pdfrwt beam="2">0</pdfrwt>
<totfact> 0.11538718E+00</totfact>
</mgrwt>
</event>
<event>
 6    1  0.6458647E-003  0.6504125E+03  0.7818608E-02  0.9806005E-01
          1   -1    0    0  502    0  0.00000000000E+00  0.00000000000E+00  0.10600219821E+03  0.10600219821E+03  0.00000000000E+00 0.  1.
         13   -1    0    0    0    0 -0.00000000000E+00 -0.00000000000E+00 -0.10000000000E+04  0.10000000000E+04  0.00000000000E+00 0.  1.
    9000005    2    1    2  501    0 -0.41871478564E+00  0.54062671936E+00 -0.89348295655E+03  0.11051462397E+04  0.65041213851E+03 0.  0.
         13    1    3    3    0    0 -0.31103607343E+03  0.46865383466E+02 -0.58897320234E+03  0.66770445274E+03  0.00000000000E+00 0.  1.
          3    1    3    3  501    0  0.31061735865E+03 -0.46324756746E+02 -0.30450975422E+03  0.43744178698E+03  0.00000000000E+00 0.  1.
         21    1    1    2  502  501  0.41871478564E+00 -0.54062671936E+00 -0.51484523685E+00  0.85595849158E+00  0.00000000000E+00 0. -1.
<mgrwt>
<rscale>  1 0.65041250E+03</rscale>
<asrwt>0</asrwt>
<pdfrwt beam="1">  1        1 0.38546335E+00 0.65041250E+03</pdfrwt>
<pdfrwt beam="2">0</pdfrwt>
<totfact> 0.15521347E+00</totfact>
</mgrwt>
</event>
<event>
 6    1  0.6458647E-003  0.6460407E+03  0.7818608E-02  0.9814237E-01
          1   -1    0    0  502    0  0.00000000000E+00  0.00000000000E+00  0.10796311444E+03  0.10796311444E+03  0.00000000000E+00 0.  1.
         13   -1    0    0    0    0 -0.00000000000E+00 -0.00000000000E+00 -0.10000000000E+04  0.10000000000E+04  0.00000000000E+00 0.  1.
    9000005    2    1    2  501    0 -0.37370235829E+00 -0.14330441225E+00 -0.89564562300E+03  0.11043322501E+04  0.64604061522E+03 0.  0.
         13    1    3    3    0    0  0.47030257824E+01 -0.80999621199E+02 -0.98233447692E+03  0.98567950249E+03  0.00000000000E+00 0.  1.
          3    1    3    3  501    0 -0.50767281407E+01  0.80856316787E+02  0.86688853914E+02  0.11865274765E+03  0.00000000000E+00 0.  1.
         21    1    1    2  502  501  0.37370235829E+00  0.14330441225E+00  0.36087374483E+01  0.36308643018E+01  0.00000000000E+00 0. -1.
<mgrwt>
<rscale>  1 0.64604074E+03</rscale>
<asrwt>0</asrwt>
<pdfrwt beam="1">  1        1 0.39259397E+00 0.64604074E+03</pdfrwt>
<pdfrwt beam="2">0</pdfrwt>
<totfact> 0.14443873E+00</totfact>
</mgrwt>
</event>
<event>
 6    1  0.6458647E-003  0.6553513E+03  0.7818608E-02  0.9796789E-01
          1   -1    0    0  502    0  0.00000000000E+00  0.00000000000E+00  0.10737760418E+03  0.10737760418E+03  0.00000000000E+00 0.  1.
         13   -1    0    0    0    0 -0.00000000000E+00 -0.00000000000E+00 -0.10000000000E+04  0.10000000000E+04  0.00000000000E+00 0.  1.
    9000005    2    1    2  501    0 -0.77163351901E-03  0.27708776398E-02 -0.89262831826E+03  0.11073710202E+04  0.65535125076E+03 0.  0.
         13    1    3    3    0    0  0.16282960738E+03  0.28369320761E+03 -0.47910943359E+03  0.58012168244E+03  0.00000000000E+00 0.  1.
          1    1    3    3  501    0 -0.16283037901E+03 -0.28369043673E+03 -0.41351888467E+03  0.52724933779E+03  0.00000000000E+00 0.  1.
         21    1    1    2  502  501  0.77163351901E-03 -0.27708776398E-02  0.59224416198E-02  0.65839574666E-02  0.00000000000E+00 0.  1.
<mgrwt>
<rscale>  1 0.65535125E+03</rscale>
<asrwt>0</asrwt>
<pdfrwt beam="1">  1        1 0.39046484E+00 0.65535125E+03</pdfrwt>
<pdfrwt beam="2">0</pdfrwt>
<totfact> 0.14735866E+00</totfact>
</mgrwt>
</event>
<event>
 6    1  0.6458647E-003  0.6637119E+03  0.7818608E-02  0.9781385E-01
          1   -1    0    0  502    0  0.00000000000E+00  0.00000000000E+00  0.11281562063E+03  0.11281562063E+03  0.00000000000E+00 0.  1.
         13   -1    0    0    0    0 -0.00000000000E+00 -0.00000000000E+00 -0.10000000000E+04  0.10000000000E+04  0.00000000000E+00 0.  1.
    9000005    2    1    2  501    0  0.49383778408E+01  0.63555179170E+01 -0.87664866898E+03  0.10995573637E+04  0.66366311260E+03 0.  0.
         13    1    3    3    0    0  0.87267199080E+02  0.31855770626E+03 -0.34555292130E+03  0.47801819806E+03  0.00000000000E+00 0.  1.
          1    1    3    3  501    0 -0.82328821239E+02 -0.31220218834E+03 -0.53109574768E+03  0.62153916563E+03  0.00000000000E+00 0.  1.
         21    1    1    2  502  501 -0.49383778408E+01 -0.63555179170E+01 -0.10535710387E+02  0.13258256939E+02  0.00000000000E+00 0.  1.
<mgrwt>
<rscale>  1 0.66371192E+03</rscale>
<asrwt>0</asrwt>
<pdfrwt beam="1">  1        1 0.41023949E+00 0.66371192E+03</pdfrwt>
<pdfrwt beam="2">0</pdfrwt>
<totfact> 0.12008774E+00</totfact>
</mgrwt>
</event>
<event>
 6    1  0.6458647E-003  0.6468953E+03  0.7818608E-02  0.9812622E-01
          1   -1    0    0  502    0  0.00000000000E+00  0.00000000000E+00  0.10462980526E+03  0.10462980526E+03  0.00000000000E+00 0.  1.
         13   -1    0    0    0    0 -0.00000000000E+00 -0.00000000000E+00 -0.10000000000E+04  0.10000000000E+04  0.00000000000E+00 0.  1.
    9000005    2    1    2  501    0 -0.14258542280E-01  0.54736771605E-02 -0.89537569773E+03  0.11046135710E+04  0.64689527823E+03 0.  0.
         13    1    3    3    0    0 -0.20679519351E+03 -0.22313867268E+03 -0.63525134043E+03  0.70434322942E+03  0.00000000000E+00 0.  1.
          1    1    3    3  501    0  0.20678093497E+03  0.22314414636E+03 -0.26012435730E+03  0.40027034162E+03  0.00000000000E+00 0.  1.
         21    1    1    2  502  501  0.14258542280E-01 -0.54736771605E-02  0.55029885119E-02  0.16234224717E-01  0.00000000000E+00 0.  1.
<mgrwt>
<rscale>  1 0.64689528E+03</rscale>
<asrwt>0</asrwt>
<pdfrwt beam="1">  1        1 0.38047282E+00 0.64689528E+03</pdfrwt>
<pdfrwt beam="2">0</pdfrwt>
<totfact> 0.16340399E+00</totfact>
</mgrwt>
</event>
<event>
 6    1  0.6458647E-003  0.6377824E+03  0.7818608E-02  0.9829979E-01
          1   -1    0    0  502    0  0.00000000000E+00  0.00000000000E+00  0.10171898422E+03  0.10171898422E+03  0.00000000000E+00 0.  1.
         13   -1    0    0    0    0 -0.00000000000E+00 -0.00000000000E+00 -0.10000000000E+04  0.10000000000E+04  0.00000000000E+00 0.  1.
    9000005    2    1    2  501    0 -0.32638079830E-02 -0.10668206605E-01 -0.89830712937E+03  0.11016905873E+04  0.63778244835E+03 0.  0.
         13    1    3    3    0    0  0.21548586059E+03  0.18862443318E+03 -0.69144603888E+03  0.74840561034E+03  0.00000000000E+00 0.  1.
          1    1    3    3  501    0 -0.21548912440E+03 -0.18863510139E+03 -0.20686109050E+03  0.35328497700E+03  0.00000000000E+00 0.  1.
         21    1    1    2  502  501  0.32638079830E-02  0.10668206605E-01  0.26113594136E-01  0.28396881404E-01  0.00000000000E+00 0.  1.
<mgrwt>
<rscale>  1 0.63778245E+03</rscale>
<asrwt>0</asrwt>
<pdfrwt beam="1">  1        1 0.36988800E+00 0.63778245E+03</pdfrwt>
<pdfrwt beam="2">0</pdfrwt>
<totfact> 0.18221494E+00</totfact>
</mgrwt>
</event>
<event>
 6    1  0.6458647E-003  0.6475319E+03  0.7818608E-02  0.9811421E-01
          1   -1    0    0  502    0  0.00000000000E+00  0.00000000000E+00  0.10540717357E+03  0.10540717357E+03  0.00000000000E+00 0.  1.
         13   -1    0    0    0    0 -0.00000000000E+00 -0.00000000000E+00 -0.10000000000E+04  0.10000000000E+04  0.00000000000E+00 0.  1.
    9000005    2    1    2  501    0  0.11082746636E-01  0.95092384701E-02 -0.89517551493E+03  0.11048243021E+04  0.64753188014E+03 0.  0.
         13    1    3    3    0    0 -0.72782964750E+02  0.63396359889E+02  0.79704828076E+02  0.12517714657E+03  0.00000000000E+00 0.  1.
          1    1    3    3  501    0  0.72794047496E+02 -0.63386850651E+02 -0.97488034300E+03  0.97964715554E+03  0.00000000000E+00 0.  1.
         21    1    1    2  502  501 -0.11082746636E-01 -0.95092384701E-02  0.58268849228E+00  0.58287145403E+00  0.00000000000E+00 0.  1.
<mgrwt>
<rscale>  1 0.64753188E+03</rscale>
<asrwt>0</asrwt>
<pdfrwt beam="1">  1        1 0.38329962E+00 0.64753188E+03</pdfrwt>
<pdfrwt beam="2">0</pdfrwt>
<totfact> 0.15875519E+00</totfact>
</mgrwt>
</event>
<event>
 6    1  0.6458647E-003  0.6649759E+03  0.7818608E-02  0.9779077E-01
          1   -1    0    0  502    0  0.00000000000E+00  0.00000000000E+00  0.12595945147E+03  0.12595945147E+03  0.00000000000E+00 0.  1.
         13   -1    0    0    0    0 -0.00000000000E+00 -0.00000000000E+00 -0.10000000000E+04  0.10000000000E+04  0.00000000000E+00 0.  1.
    9000005    2    1    2  501    0  0.10586004797E+02 -0.39086767634E+01 -0.88712207029E+03  0.11086832406E+04  0.66488015392E+03 0.  0.
         13    1    3    3    0    0 -0.31814810642E+03 -0.18894269853E+02 -0.56204415275E+03  0.64611828692E+03  0.00000000000E+00 0.  1.
          1    1    3    3  501    0  0.32873411121E+03  0.14985593090E+02 -0.32507791753E+03  0.46256495365E+03  0.00000000000E+00 0.  1.
         21    1    1    2  502  501 -0.10586004797E+02  0.39086767634E+01  0.13081521759E+02  0.17276210902E+02  0.00000000000E+00 0. -1.
<mgrwt>
<rscale>  1 0.66497591E+03</rscale>
<asrwt>0</asrwt>
<pdfrwt beam="1">  1        1 0.45803533E+00 0.66497591E+03</pdfrwt>
<pdfrwt beam="2">0</pdfrwt>
<totfact> 0.72711338E-01</totfact>
</mgrwt>
</event>
<event>
 6    1  0.6458647E-003  0.6515528E+03  0.7818608E-02  0.9803870E-01
          1   -1    0    0  502    0  0.00000000000E+00  0.00000000000E+00  0.10613028076E+03  0.10613028076E+03  0.00000000000E+00 0.  1.
         13   -1    0    0    0    0 -0.00000000000E+00 -0.00000000000E+00 -0.10000000000E+04  0.10000000000E+04  0.00000000000E+00 0.  1.
    9000005    2    1    2  501    0 -0.11147165509E-04  0.11193623095E-05 -0.89386971820E+03  0.11061302695E+04  0.65155283746E+03 0.  0.
         13    1    3    3    0    0  0.11859661937E+03  0.29912292837E+03 -0.53334325362E+03  0.62289221426E+03  0.00000000000E+00 0.  1.
          1    1    3    3  501    0 -0.11859663052E+03 -0.29912292725E+03 -0.36052646458E+03  0.48323805525E+03  0.00000000000E+00 0.  1.
         21    1    1    2  502  501  0.11147165515E-04 -0.11193623315E-05 -0.10432744594E-05  0.11251697323E-04  0.00000000000E+00 0.  1.
<mgrwt>
<rscale>  1 0.65155284E+03</rscale>
<asrwt>0</asrwt>
<pdfrwt beam="1">  1        1 0.38592911E+00 0.65155284E+03</pdfrwt>
<pdfrwt beam="2">0</pdfrwt>
<totfact> 0.15444613E+00</totfact>
</mgrwt>
</event>
<event>
 6    1  0.6458647E-003  0.6622187E+03  0.7818608E-02  0.9784118E-01
          1   -1    0    0  502    0  0.00000000000E+00  0.00000000000E+00  0.10964192660E+03  0.10964192660E+03  0.00000000000E+00 0.  1.
         13   -1    0    0    0    0 -0.00000000000E+00 -0.00000000000E+00 -0.10000000000E+04  0.10000000000E+04  0.00000000000E+00 0.  1.
    9000005    2    1    2  501    0  0.15632408125E-02 -0.43629516315E-02 -0.89036590549E+03  0.11096328260E+04  0.66221866697E+03 0.  0.
         13    1    3    3    0    0 -0.22568168049E+03  0.23663294038E+03 -0.35803718191E+03  0.48488967097E+03  0.00000000000E+00 0.  1.
          3    1    3    3  501    0  0.22568324373E+03 -0.23663730333E+03 -0.53232872358E+03  0.62474315505E+03  0.00000000000E+00 0.  1.
         21    1    1    2  502  501 -0.15632408125E-02  0.43629516315E-02  0.78320906000E-02  0.91005885492E-02  0.00000000000E+00 0.  1.
<mgrwt>
<rscale>  1 0.66221867E+03</rscale>
<asrwt>0</asrwt>
<pdfrwt beam="1">  1        1 0.39869876E+00 0.66221867E+03</pdfrwt>
<pdfrwt beam="2">0</pdfrwt>
<totfact> 0.13527379E+00</totfact>
</mgrwt>
</event>
<event>
 6    1  0.6458647E-003  0.6474242E+03  0.7818608E-02  0.9811624E-01
          1   -1    0    0  502    0  0.00000000000E+00  0.00000000000E+00  0.10479121835E+03  0.10479121835E+03  0.00000000000E+00 0.  1.
         13   -1    0    0    0    0 -0.00000000000E+00 -0.00000000000E+00 -0.10000000000E+04  0.10000000000E+04  0.00000000000E+00 0.  1.
    9000005    2    1    2  501    0  0.89637382160E-04  0.89442439304E-05 -0.89521047017E+03  0.11047895274E+04  0.64742421487E+03 0.  0.
         13    1    3    3    0    0  0.10549742924E+03 -0.95138754803E+02 -0.94396604844E+03  0.95459572115E+03  0.00000000000E+00 0.  1.
          3    1    3    3  501    0 -0.10549733960E+03  0.95138763747E+02  0.48755578265E+02  0.15019380627E+03  0.00000000000E+00 0.  1.
         21    1    1    2  502  501 -0.89637382149E-04 -0.89442439243E-05  0.16885194005E-02  0.16909206444E-02  0.00000000000E+00 0. -1.
<mgrwt>
<rscale>  1 0.64742421E+03</rscale>
<asrwt>0</asrwt>
<pdfrwt beam="1">  1        1 0.38105978E+00 0.64742421E+03</pdfrwt>
<pdfrwt beam="2">0</pdfrwt>
<totfact> 0.16241630E+00</totfact>
</mgrwt>
</event>
<event>
 6    1  0.6458647E-003  0.6501903E+03  0.7818608E-02  0.9806422E-01
          1   -1    0    0  502    0  0.00000000000E+00  0.00000000000E+00  0.10683610460E+03  0.10683610460E+03  0.00000000000E+00 0.  1.
         13   -1    0    0    0    0 -0.00000000000E+00 -0.00000000000E+00 -0.10000000000E+04  0.10000000000E+04  0.00000000000E+00 0.  1.
    9000005    2    1    2  501    0 -0.12536600974E+01 -0.32565285959E+00 -0.89389503617E+03  0.11053487310E+04  0.65018905229E+03 0.  0.
         13    1    3    3    0    0  0.70789408351E+02 -0.31714960066E+03 -0.42951010229E+03  0.53858512559E+03  0.00000000000E+00 0.  1.
          3    1    3    3  501    0 -0.72043068449E+02  0.31682394780E+03 -0.46438493387E+03  0.56676360541E+03  0.00000000000E+00 0.  1.
         21    1    1    2  502  501  0.12536600974E+01  0.32565285959E+00  0.73114076883E+00  0.14873736076E+01  0.00000000000E+00 0. -1.
<mgrwt>
<rscale>  1 0.65019034E+03</rscale>
<asrwt>0</asrwt>
<pdfrwt beam="1">  1        1 0.38849575E+00 0.65019034E+03</pdfrwt>
<pdfrwt beam="2">0</pdfrwt>
<totfact> 0.15049481E+00</totfact>
</mgrwt>
</event>
<event>
 6    1  0.6458647E-003  0.6502846E+03  0.7818608E-02  0.9806245E-01
          1   -1    0    0  502    0  0.00000000000E+00  0.00000000000E+00  0.10805383989E+03  0.10805383989E+03  0.00000000000E+00 0.  1.
         13   -1    0    0    0    0 -0.00000000000E+00 -0.00000000000E+00 -0.10000000000E+04  0.10000000000E+04  0.00000000000E+00 0.  1.
    9000005    2    1    2  501    0 -0.12208080925E+00  0.19214530782E+00 -0.89427634485E+03  0.11057125615E+04  0.65028458071E+03 0.  0.
         13    1    3    3    0    0 -0.95152343935E+02  0.23762951723E+03 -0.78840345990E+03  0.82891602204E+03  0.00000000000E+00 0.  1.
          3    1    3    3  501    0  0.95030263125E+02 -0.23743737192E+03 -0.10587288495E+03  0.27679653947E+03  0.00000000000E+00 0.  1.
         21    1    1    2  502  501  0.12208080925E+00 -0.19214530782E+00  0.23301847424E+01  0.23412783852E+01  0.00000000000E+00 0.  1.
<mgrwt>
<rscale>  1 0.65028462E+03</rscale>
<asrwt>0</asrwt>
<pdfrwt beam="1">  1        1 0.39292388E+00 0.65028462E+03</pdfrwt>
<pdfrwt beam="2">0</pdfrwt>
<totfact> 0.14383752E+00</totfact>
</mgrwt>
</event>
<event>
 6    1  0.6458647E-003  0.6497345E+03  0.7818608E-02  0.9807278E-01
          1   -1    0    0  502    0  0.00000000000E+00  0.00000000000E+00  0.10553955542E+03  0.10553955542E+03  0.00000000000E+00 0.  1.
         13   -1    0    0    0    0 -0.00000000000E+00 -0.00000000000E+00 -0.10000000000E+04  0.10000000000E+04  0.00000000000E+00 0.  1.
    9000005    2    1    2  501    0 -0.26416594321E-03  0.55237475038E-04 -0.89446126061E+03  0.11055386959E+04  0.64973445457E+03 0.  0.
         13    1    3    3    0    0  0.17483214529E+03 -0.20292041259E+03 -0.76003190155E+03  0.80584828861E+03  0.00000000000E+00 0.  1.
          3    1    3    3  501    0 -0.17483240945E+03  0.20292046783E+03 -0.13442935905E+03  0.29969040731E+03  0.00000000000E+00 0.  1.
         21    1    1    2  502  501  0.26416594322E-03 -0.55237475031E-04  0.81602334285E-03  0.85949340910E-03  0.00000000000E+00 0.  1.
<mgrwt>
<rscale>  1 0.64973445E+03</rscale>
<asrwt>0</asrwt>
<pdfrwt beam="1">  1        1 0.38378101E+00 0.64973445E+03</pdfrwt>
<pdfrwt beam="2">0</pdfrwt>
<totfact> 0.15791512E+00</totfact>
</mgrwt>
</event>
<event>
 6    1  0.6458647E-003  0.6486107E+03  0.7818608E-02  0.9809390E-01
          1   -1    0    0  502    0  0.00000000000E+00  0.00000000000E+00  0.10557188358E+03  0.10557188358E+03  0.00000000000E+00 0.  1.
         13   -1    0    0    0    0 -0.00000000000E+00 -0.00000000000E+00 -0.10000000000E+04  0.10000000000E+04  0.00000000000E+00 0.  1.
    9000005    2    1    2  501    0  0.21884164724E+00 -0.25806477205E+00 -0.89474496582E+03  0.11051083292E+04  0.64861063126E+03 0.  0.
         13    1    3    3    0    0 -0.21297220399E+02  0.29692547270E+02  0.10165664860E+03  0.10802450261E+03  0.00000000000E+00 0.  1.
          1    1    3    3  501    0  0.21516062047E+02 -0.29950612042E+02 -0.99640161442E+03  0.99708382662E+03  0.00000000000E+00 0.  1.
         21    1    1    2  502  501 -0.21884164724E+00  0.25806477205E+00  0.31684939593E+00  0.46355434724E+00  0.00000000000E+00 0.  1.
<mgrwt>
<rscale>  1 0.64861072E+03</rscale>
<asrwt>0</asrwt>
<pdfrwt beam="1">  1        1 0.38389857E+00 0.64861072E+03</pdfrwt>
<pdfrwt beam="2">0</pdfrwt>
<totfact> 0.15775898E+00</totfact>
</mgrwt>
</event>
<event>
 6    1  0.6458647E-003  0.6502129E+03  0.7818608E-02  0.9806380E-01
          1   -1    0    0  502    0  0.00000000000E+00  0.00000000000E+00  0.10571495138E+03  0.10571495138E+03  0.00000000000E+00 0.  1.
         13   -1    0    0    0    0 -0.00000000000E+00 -0.00000000000E+00 -0.10000000000E+04  0.10000000000E+04  0.00000000000E+00 0.  1.
    9000005    2    1    2  501    0 -0.68142525846E-03  0.23513599288E-03 -0.89430579839E+03  0.11056941891E+04  0.65021287189E+03 0.  0.
         13    1    3    3    0    0  0.99035350543E+02  0.18377571947E+03 -0.87096119893E+03  0.89563102099E+03  0.00000000000E+00 0.  1.
          1    1    3    3  501    0 -0.99036031968E+02 -0.18377548433E+03 -0.23344599462E+02  0.21006316811E+03  0.00000000000E+00 0.  1.
         21    1    1    2  502  501  0.68142525847E-03 -0.23513599289E-03  0.20749769357E-01  0.20762286909E-01  0.00000000000E+00 0. -1.
<mgrwt>
<rscale>  1 0.65021287E+03</rscale>
<asrwt>0</asrwt>
<pdfrwt beam="1">  1        1 0.38441882E+00 0.65021287E+03</pdfrwt>
<pdfrwt beam="2">0</pdfrwt>
<totfact> 0.15687925E+00</totfact>
</mgrwt>
</event>
<event>
 6    1  0.6458647E-003  0.6470941E+03  0.7818608E-02  0.9812247E-01
          1   -1    0    0  502    0  0.00000000000E+00  0.00000000000E+00  0.10468754161E+03  0.10468754161E+03  0.00000000000E+00 0.  1.
         13   -1    0    0    0    0 -0.00000000000E+00 -0.00000000000E+00 -0.10000000000E+04  0.10000000000E+04  0.00000000000E+00 0.  1.
    9000005    2    1    2  501    0  0.23079164356E-03  0.39085915986E-04 -0.89531730176E+03  0.11046826926E+04  0.64709410479E+03 0.  0.
         13    1    3    3    0    0 -0.29413268499E+03  0.19735733757E+02 -0.67528609745E+03  0.73682755715E+03  0.00000000000E+00 0.  1.
          1    1    3    3  501    0  0.29413291578E+03 -0.19735694671E+02 -0.22003120432E+03  0.36785513543E+03  0.00000000000E+00 0.  1.
         21    1    1    2  502  501 -0.23079164354E-03 -0.39085915985E-04  0.48433694036E-02  0.48490225481E-02  0.00000000000E+00 0.  1.
<mgrwt>
<rscale>  1 0.64709410E+03</rscale>
<asrwt>0</asrwt>
<pdfrwt beam="1">  1        1 0.38068277E+00 0.64709410E+03</pdfrwt>
<pdfrwt beam="2">0</pdfrwt>
<totfact> 0.16304976E+00</totfact>
</mgrwt>
</event>
<event>
 6    1  0.6458647E-003  0.6499960E+03  0.7818608E-02  0.9806787E-01
          1   -1    0    0  502    0  0.00000000000E+00  0.00000000000E+00  0.10578596477E+03  0.10578596477E+03  0.00000000000E+00 0.  1.
         13   -1    0    0    0    0 -0.00000000000E+00 -0.00000000000E+00 -0.10000000000E+04  0.10000000000E+04  0.00000000000E+00 0.  1.
    9000005    2    1    2  501    0  0.82405453341E-03 -0.22079646781E-02 -0.89437627520E+03  0.11056237077E+04  0.64999604717E+03 0.  0.
         13    1    3    3    0    0 -0.14245053673E+03 -0.98871112261E+02 -0.91474213648E+03  0.93103213076E+03  0.00000000000E+00 0.  1.
          3    1    3    3  501    0  0.14245136078E+03  0.98868904297E+02  0.20365861282E+02  0.17459157692E+03  0.00000000000E+00 0.  1.
         21    1    1    2  502  501 -0.82405453343E-03  0.22079646781E-02  0.16223996773E+00  0.16225708398E+00  0.00000000000E+00 0. -1.
<mgrwt>
<rscale>  1 0.64999605E+03</rscale>
<asrwt>0</asrwt>
<pdfrwt beam="1">  1        1 0.38467705E+00 0.64999605E+03</pdfrwt>
<pdfrwt beam="2">0</pdfrwt>
<totfact> 0.15647355E+00</totfact>
</mgrwt>
</event>
<event>
 6    1  0.6458647E-003  0.6044842E+03  0.7818608E-02  0.9896146E-01
          1   -1    0    0  502    0  0.00000000000E+00  0.00000000000E+00  0.91351534488E+02  0.91351534488E+02  0.00000000000E+00 0.  1.
         13   -1    0    0    0    0 -0.00000000000E+00 -0.00000000000E+00 -0.10000000000E+04  0.10000000000E+04  0.00000000000E+00 0.  1.
    9000005    2    1    2  501    0  0.16280974800E-02 -0.16697447340E-02 -0.90864842618E+03  0.10913492020E+04  0.60448417547E+03 0.  0.
         13    1    3    3    0    0 -0.14269936943E+02  0.30159123626E+03 -0.47913336636E+03  0.56633001655E+03  0.00000000000E+00 0.  1.
          1    1    3    3  501    0  0.14271565040E+02 -0.30159290601E+03 -0.42951505982E+03  0.52501918549E+03  0.00000000000E+00 0.  1.
         21    1    1    2  502  501 -0.16280974800E-02  0.16697447341E-02 -0.39332336258E-04  0.23324441931E-02  0.00000000000E+00 0. -1.
<mgrwt>
<rscale>  1 0.60448418E+03</rscale>
<asrwt>0</asrwt>
<pdfrwt beam="1">  1        1 0.33218810E+00 0.60448418E+03</pdfrwt>
<pdfrwt beam="2">0</pdfrwt>
<totfact> 0.26764113E+00</totfact>
</mgrwt>
</event>
<event>
 6    1  0.6458647E-003  0.6614668E+03  0.7818608E-02  0.9785497E-01
          1   -1    0    0  502    0  0.00000000000E+00  0.00000000000E+00  0.10987942436E+03  0.10987942436E+03  0.00000000000E+00 0.  1.
         13   -1    0    0    0    0 -0.00000000000E+00 -0.00000000000E+00 -0.10000000000E+04  0.10000000000E+04  0.00000000000E+00 0.  1.
    9000005    2    1    2  501    0  0.20218100490E-01 -0.22498553752E-01 -0.89061490794E+03  0.11093841675E+04  0.66146679121E+03 0.  0.
         13    1    3    3    0    0 -0.78120761657E+02 -0.26953349177E+03 -0.15175213086E+03  0.31902956887E+03  0.00000000000E+00 0.  1.
          1    1    3    3  501    0  0.78140979758E+02  0.26951099322E+03 -0.73886277708E+03  0.79035459861E+03  0.00000000000E+00 0.  1.
         21    1    1    2  502  501 -0.20218100490E-01  0.22498553752E-01  0.49433230421E+00  0.49525688637E+00  0.00000000000E+00 0.  1.
<mgrwt>
<rscale>  1 0.66146679E+03</rscale>
<asrwt>0</asrwt>
<pdfrwt beam="1">  1        1 0.39956239E+00 0.66146679E+03</pdfrwt>
<pdfrwt beam="2">0</pdfrwt>
<totfact> 0.13409898E+00</totfact>
</mgrwt>
</event>
<event>
 6    1  0.6458647E-003  0.6513977E+03  0.7818608E-02  0.9804160E-01
          1   -1    0    0  502    0  0.00000000000E+00  0.00000000000E+00  0.10608065131E+03  0.10608065131E+03  0.00000000000E+00 0.  1.
         13   -1    0    0    0    0 -0.00000000000E+00 -0.00000000000E+00 -0.10000000000E+04  0.10000000000E+04  0.00000000000E+00 0.  1.
    9000005    2    1    2  501    0  0.72658421907E-04 -0.18250699611E-03 -0.89392024371E+03  0.11060797350E+04  0.65139771111E+03 0.  0.
         13    1    3    3    0    0 -0.62229136987E+02  0.25706262073E+03 -0.12422181825E+03  0.29220663339E+03  0.00000000000E+00 0.  1.
          1    1    3    3  501    0  0.62229209646E+02 -0.25706280324E+03 -0.76969842546E+03  0.81387310160E+03  0.00000000000E+00 0.  1.
         21    1    1    2  502  501 -0.72658421902E-04  0.18250699610E-03  0.89502323372E-03  0.91632670964E-03  0.00000000000E+00 0. -1.
<mgrwt>
<rscale>  1 0.65139771E+03</rscale>
<asrwt>0</asrwt>
<pdfrwt beam="1">  1        1 0.38574864E+00 0.65139771E+03</pdfrwt>
<pdfrwt beam="2">0</pdfrwt>
<totfact> 0.15473484E+00</totfact>
</mgrwt>
</event>
<event>
 6    1  0.6458647E-003  0.6781506E+03  0.7818608E-02  0.9755345E-01
          1   -1    0    0  502    0  0.00000000000E+00  0.00000000000E+00  0.11497261107E+03  0.11497261107E+03  0.00000000000E+00 0.  1.
         13   -1    0    0    0    0 -0.00000000000E+00 -0.00000000000E+00 -0.10000000000E+04  0.10000000000E+04  0.00000000000E+00 0.  1.
    9000005    2    1    2  501    0 -0.52755944500E-03 -0.63851423090E-03 -0.88502759294E+03  0.11149717581E+04  0.67815055924E+03 0.  0.
         13    1    3    3    0    0 -0.26864775388E+03 -0.19775300129E+03 -0.34258048376E+03  0.47816237100E+03  0.00000000000E+00 0.  1.
          1    1    3    3  501    0  0.26864722632E+03  0.19775236278E+03 -0.54244710918E+03  0.63680938706E+03  0.00000000000E+00 0.  1.
         21    1    1    2  502  501  0.52755944500E-03  0.63851423090E-03  0.20401189875E-03  0.85301831511E-03  0.00000000000E+00 0. -1.
<mgrwt>
<rscale>  1 0.67815056E+03</rscale>
<asrwt>0</asrwt>
<pdfrwt beam="1">  1        1 0.41808310E+00 0.67815056E+03</pdfrwt>
<pdfrwt beam="2">0</pdfrwt>
<totfact> 0.11041611E+00</totfact>
</mgrwt>
</event>
<event>
 6    1  0.6458647E-003  0.6451756E+03  0.7818608E-02  0.9815874E-01
          1   -1    0    0  502    0  0.00000000000E+00  0.00000000000E+00  0.10462522933E+03  0.10462522933E+03  0.00000000000E+00 0.  1.
         13   -1    0    0    0    0 -0.00000000000E+00 -0.00000000000E+00 -0.10000000000E+04  0.10000000000E+04  0.00000000000E+00 0.  1.
    9000005    2    1    2  501    0  0.85797427979E-02  0.34136678368E-01 -0.89593649947E+03  0.11040623988E+04  0.64517561034E+03 0.  0.
         13    1    3    3    0    0 -0.94442942151E+02 -0.10713506374E+03  0.47009557106E+02  0.15035720689E+03  0.00000000000E+00 0.  1.
          3    1    3    3  501    0  0.94451521894E+02  0.10716920042E+03 -0.94294605658E+03  0.95370519194E+03  0.00000000000E+00 0.  1.
         21    1    1    2  502  501 -0.85797427979E-02 -0.34136678368E-01  0.56172880644E+00  0.56283050449E+00  0.00000000000E+00 0. -1.
<mgrwt>
<rscale>  1 0.64517561E+03</rscale>
<asrwt>0</asrwt>
<pdfrwt beam="1">  1        1 0.38045618E+00 0.64517561E+03</pdfrwt>
<pdfrwt beam="2">0</pdfrwt>
<totfact> 0.16348335E+00</totfact>
</mgrwt>
</event>
<event>
 6    1  0.6458647E-003  0.6417823E+03  0.7818608E-02  0.9822322E-01
          1   -1    0    0  502    0  0.00000000000E+00  0.00000000000E+00  0.10302381895E+03  0.10302381895E+03  0.00000000000E+00 0.  1.
         13   -1    0    0    0    0 -0.00000000000E+00 -0.00000000000E+00 -0.10000000000E+04  0.10000000000E+04  0.00000000000E+00 0.  1.
    9000005    2    1    2  501    0 -0.12272414004E-01  0.40098481557E-02 -0.89702799281E+03  0.11029704228E+04  0.64178231005E+03 0.  0.
         13    1    3    3    0    0 -0.45045251044E+02 -0.11143794825E+03  0.62821363287E+02  0.13562453553E+03  0.00000000000E+00 0.  1.
          3    1    3    3  501    0  0.45032978630E+02  0.11144195810E+03 -0.95984935610E+03  0.96734588726E+03  0.00000000000E+00 0.  1.
         21    1    1    2  502  501  0.12272414004E-01 -0.40098481557E-02  0.51811758574E-01  0.53396154864E-01  0.00000000000E+00 0.  1.
<mgrwt>
<rscale>  1 0.64178231E+03</rscale>
<asrwt>0</asrwt>
<pdfrwt beam="1">  1        1 0.37463286E+00 0.64178231E+03</pdfrwt>
<pdfrwt beam="2">0</pdfrwt>
<totfact> 0.17354298E+00</totfact>
</mgrwt>
</event>
<event>
 6    1  0.6458647E-003  0.6693408E+03  0.7818608E-02  0.9771149E-01
          1   -1    0    0  502    0  0.00000000000E+00  0.00000000000E+00  0.11249819373E+03  0.11249819373E+03  0.00000000000E+00 0.  1.
         13   -1    0    0    0    0 -0.00000000000E+00 -0.00000000000E+00 -0.10000000000E+04  0.10000000000E+04  0.00000000000E+00 0.  1.
    9000005    2    1    2  501    0  0.40611128592E-02 -0.13811075364E-01 -0.88799559687E+03  0.11120041933E+04  0.66934082926E+03 0.  0.
         13    1    3    3    0    0  0.21833109172E+03 -0.21611112599E+03 -0.22338026399E+03  0.37983052369E+03  0.00000000000E+00 0.  1.
          1    1    3    3  501    0 -0.21832703060E+03  0.21609731492E+03 -0.66461533288E+03  0.73217366964E+03  0.00000000000E+00 0.  1.
         21    1    1    2  502  501 -0.40611128592E-02  0.13811075364E-01  0.49379060257E+00  0.49400040246E+00  0.00000000000E+00 0. -1.
<mgrwt>
<rscale>  1 0.66934083E+03</rscale>
<asrwt>0</asrwt>
<pdfrwt beam="1">  1        1 0.40908520E+00 0.66934083E+03</pdfrwt>
<pdfrwt beam="2">0</pdfrwt>
<totfact> 0.12139789E+00</totfact>
</mgrwt>
</event>
<event>
 6    1  0.6458647E-003  0.7729327E+03  0.7818608E-02  0.9600044E-01
          1   -1    0    0  502    0  0.00000000000E+00  0.00000000000E+00  0.14935631541E+03  0.14935631541E+03  0.00000000000E+00 0.  1.
         13   -1    0    0    0    0 -0.00000000000E+00 -0.00000000000E+00 -0.10000000000E+04  0.10000000000E+04  0.00000000000E+00 0.  1.
    9000005    2    1    2  501    0 -0.43676527355E-05 -0.35071718486E-04 -0.85064377544E+03  0.11493562179E+04  0.77293265102E+03 0.  0.
         13    1    3    3    0    0  0.15670803455E+03  0.25148036598E+03 -0.79425674345E+03  0.84772846896E+03  0.00000000000E+00 0.  1.
          3    1    3    3  501    0 -0.15670803891E+03 -0.25148040106E+03 -0.56387031988E+02  0.30162774897E+03  0.00000000000E+00 0.  1.
         21    1    1    2  502  501  0.43676527398E-05  0.35071718493E-04  0.90841700060E-04  0.97474695682E-04  0.00000000000E+00 0. -1.
<mgrwt>
<rscale>  1 0.77293265E+03</rscale>
<asrwt>0</asrwt>
<pdfrwt beam="1">  1        1 0.54311502E+00 0.77293265E+03</pdfrwt>
<pdfrwt beam="2">0</pdfrwt>
<totfact> 0.27608787E-01</totfact>
</mgrwt>
</event>
<event>
 6    1  0.6458647E-003  0.5831440E+03  0.7818608E-02  0.9941007E-01
          1   -1    0    0  502    0  0.00000000000E+00  0.00000000000E+00  0.91718112991E+02  0.91718112991E+02  0.00000000000E+00 0.  1.
         13   -1    0    0    0    0 -0.00000000000E+00 -0.00000000000E+00 -0.10000000000E+04  0.10000000000E+04  0.00000000000E+00 0.  1.
    9000005    2    1    2  501    0 -0.10419060735E+01 -0.17128885623E+00 -0.91494064194E+03  0.10849761604E+04  0.58314301450E+03 0.  0.
         13    1    3    3    0    0 -0.34245996698E+02  0.21373822576E+03 -0.94032482797E+02  0.23600619751E+03  0.00000000000E+00 0.  1.
          1    1    3    3  501    0  0.33204090625E+02 -0.21390951461E+03 -0.82090815914E+03  0.84896996285E+03  0.00000000000E+00 0.  1.
         21    1    1    2  502  501  0.10419060735E+01  0.17128885623E+00  0.66587549290E+01  0.67419526358E+01  0.00000000000E+00 0.  1.
<mgrwt>
<rscale>  1 0.58314397E+03</rscale>
<asrwt>0</asrwt>
<pdfrwt beam="1">  1        1 0.33352111E+00 0.58314397E+03</pdfrwt>
<pdfrwt beam="2">0</pdfrwt>
<totfact> 0.26513937E+00</totfact>
</mgrwt>
</event>
<event>
 6    1  0.6458647E-003  0.6421235E+03  0.7818608E-02  0.9821672E-01
          1   -1    0    0  502    0  0.00000000000E+00  0.00000000000E+00  0.10308757236E+03  0.10308757236E+03  0.00000000000E+00 0.  1.
         13   -1    0    0    0    0 -0.00000000000E+00 -0.00000000000E+00 -0.10000000000E+04  0.10000000000E+04  0.00000000000E+00 0.  1.
    9000005    2    1    2  501    0 -0.98828922709E-02 -0.17088943576E-01 -0.89689736446E+03  0.11030627409E+04  0.64212345195E+03 0.  0.
         13    1    3    3    0    0 -0.11628345072E+03 -0.28556594152E+03 -0.29465154777E+03  0.42648479747E+03  0.00000000000E+00 0.  1.
          1    1    3    3  501    0  0.11627356783E+03  0.28554885258E+03 -0.60224581669E+03  0.67657794340E+03  0.00000000000E+00 0.  1.
         21    1    1    2  502  501  0.98828922709E-02  0.17088943576E-01 -0.15063178255E-01  0.24831489914E-01  0.00000000000E+00 0. -1.
<mgrwt>
<rscale>  1 0.64212345E+03</rscale>
<asrwt>0</asrwt>
<pdfrwt beam="1">  1        1 0.37486469E+00 0.64212345E+03</pdfrwt>
<pdfrwt beam="2">0</pdfrwt>
<totfact> 0.17312492E+00</totfact>
</mgrwt>
</event>
<event>
 6    1  0.6458647E-003  0.4818561E+03  0.7818608E-02  0.1018626E+00
          1   -1    0    0  502    0  0.00000000000E+00  0.00000000000E+00  0.58165663095E+02  0.58165663095E+02  0.00000000000E+00 0.  1.
         13   -1    0    0    0    0 -0.00000000000E+00 -0.00000000000E+00 -0.10000000000E+04  0.10000000000E+04  0.00000000000E+00 0.  1.
    9000005    2    1    2  501    0  0.10680876243E+00  0.64996965509E-01 -0.94191846299E+03  0.10580149650E+04  0.48185605695E+03 0.  0.
         13    1    3    3    0    0 -0.60468405929E+02 -0.19898030527E+03 -0.73779522065E+03  0.76654509171E+03  0.00000000000E+00 0.  1.
          1    1    3    3  501    0  0.60575214691E+02  0.19904530224E+03 -0.20412324234E+03  0.29146987330E+03  0.00000000000E+00 0.  1.
         21    1    1    2  502  501 -0.10680876243E+00 -0.64996965509E-01  0.84126082781E-01  0.15069809243E+00  0.00000000000E+00 0.  1.
<mgrwt>
<rscale>  1 0.48185607E+03</rscale>
<asrwt>0</asrwt>
<pdfrwt beam="1">  1        1 0.21151195E+00 0.48185607E+03</pdfrwt>
<pdfrwt beam="2">0</pdfrwt>
<totfact> 0.91500713E+00</totfact>
</mgrwt>
</event>
<event>
 6    1  0.6458647E-003  0.6682000E+03  0.7818608E-02  0.9773215E-01
          1   -1    0    0  502    0  0.00000000000E+00  0.00000000000E+00  0.11266393118E+03  0.11266393118E+03  0.00000000000E+00 0.  1.
         13   -1    0    0    0    0 -0.00000000000E+00 -0.00000000000E+00 -0.10000000000E+04  0.10000000000E+04  0.00000000000E+00 0.  1.
    9000005    2    1    2  501    0 -0.28441759981E-01 -0.57817915441E-01 -0.88837606556E+03  0.11116219403E+04  0.66820004496E+03 0.  0.
         13    1    3    3    0    0  0.20422946064E+03 -0.25256493110E+03 -0.57448727932E+03  0.65995026412E+03  0.00000000000E+00 0.  1.
          3    1    3    3  501    0 -0.20425790240E+03  0.25250711319E+03 -0.31388878624E+03  0.45167167615E+03  0.00000000000E+00 0.  1.
         21    1    1    2  502  501  0.28441759981E-01  0.57817915441E-01  0.10399967373E+01  0.10419909110E+01  0.00000000000E+00 0.  1.
<mgrwt>
<rscale>  1 0.66820005E+03</rscale>
<asrwt>0</asrwt>
<pdfrwt beam="1">  1        1 0.40968789E+00 0.66820005E+03</pdfrwt>
<pdfrwt beam="2">0</pdfrwt>
<totfact> 0.12067086E+00</totfact>
</mgrwt>
</event>
<event>
 6    1  0.6458647E-003  0.6429445E+03  0.7818608E-02  0.9820109E-01
          1   -1    0    0  502    0  0.00000000000E+00  0.00000000000E+00  0.10334700872E+03  0.10334700872E+03  0.00000000000E+00 0.  1.
         13   -1    0    0    0    0 -0.00000000000E+00 -0.00000000000E+00 -0.10000000000E+04  0.10000000000E+04  0.00000000000E+00 0.  1.
    9000005    2    1    2  501    0 -0.11789124803E-02 -0.20467326112E-03 -0.89665543421E+03  0.11033442885E+04  0.64294451646E+03 0.  0.
         13    1    3    3    0    0 -0.65355282808E+02 -0.24124593393E+03 -0.79527179527E+03  0.83362350133E+03  0.00000000000E+00 0.  1.
          3    1    3    3  501    0  0.65354103895E+02  0.24124572926E+03 -0.10138363895E+03  0.26972078716E+03  0.00000000000E+00 0.  1.
         21    1    1    2  502  501  0.11789124803E-02  0.20467326114E-03  0.24429353760E-02  0.27202314297E-02  0.00000000000E+00 0. -1.
<mgrwt>
<rscale>  1 0.64294452E+03</rscale>
<asrwt>0</asrwt>
<pdfrwt beam="1">  1        1 0.37580810E+00 0.64294452E+03</pdfrwt>
<pdfrwt beam="2">0</pdfrwt>
<totfact> 0.17145138E+00</totfact>
</mgrwt>
</event>
<event>
 6    1  0.6458647E-003  0.6550364E+03  0.7818608E-02  0.9797374E-01
          1   -1    0    0  502    0  0.00000000000E+00  0.00000000000E+00  0.11088667467E+03  0.11088667467E+03  0.00000000000E+00 0.  1.
         13   -1    0    0    0    0 -0.00000000000E+00 -0.00000000000E+00 -0.10000000000E+04  0.10000000000E+04  0.00000000000E+00 0.  1.
    9000005    2    1    2  501    0  0.50039975457E+01 -0.50728452538E+01 -0.88832409427E+03  0.11037175299E+04  0.65499764558E+03 0.  0.
         13    1    3    3    0    0 -0.80072965518E+02 -0.31556947348E+03 -0.36318591483E+03  0.48774971157E+03  0.00000000000E+00 0.  1.
          3    1    3    3  501    0  0.85076963063E+02  0.31049662823E+03 -0.52513817943E+03  0.61596781838E+03  0.00000000000E+00 0.  1.
         21    1    1    2  502  501 -0.50039975457E+01  0.50728452538E+01 -0.78923106216E+00  0.71691447241E+01  0.00000000000E+00 0.  1.
<mgrwt>
<rscale>  1 0.65503640E+03</rscale>
<asrwt>0</asrwt>
<pdfrwt beam="1">  1        1 0.40322512E+00 0.65503640E+03</pdfrwt>
<pdfrwt beam="2">0</pdfrwt>
<totfact> 0.12930326E+00</totfact>
</mgrwt>
</event>
<event>
 6    1  0.6458647E-003  0.6497168E+03  0.7818608E-02  0.9807311E-01
          1   -1    0    0  502    0  0.00000000000E+00  0.00000000000E+00  0.10832259029E+03  0.10832259029E+03  0.00000000000E+00 0.  1.
         13   -1    0    0    0    0 -0.00000000000E+00 -0.00000000000E+00 -0.10000000000E+04  0.10000000000E+04  0.00000000000E+00 0.  1.
    9000005    2    1    2  501    0  0.19148677233E-01  0.62980126228E-01 -0.89446658632E+03  0.11055326370E+04  0.64971680994E+03 0.  0.
         13    1    3    3    0    0 -0.10374418478E+03  0.10954810762E+03 -0.93679148710E+03  0.94886349602E+03  0.00000000000E+00 0.  1.
          1    1    3    3  501    0  0.10376333346E+03 -0.10948512749E+03  0.42324900788E+02  0.15666914099E+03  0.00000000000E+00 0.  1.
         21    1    1    2  502  501 -0.19148677233E-01 -0.62980126228E-01  0.27891766079E+01  0.27899532824E+01  0.00000000000E+00 0.  1.
<mgrwt>
<rscale>  1 0.64971681E+03</rscale>
<asrwt>0</asrwt>
<pdfrwt beam="1">  1        1 0.39390116E+00 0.64971681E+03</pdfrwt>
<pdfrwt beam="2">0</pdfrwt>
<totfact> 0.14242222E+00</totfact>
</mgrwt>
</event>
<event>
 6    1  0.6458647E-003  0.6493541E+03  0.7818608E-02  0.9807992E-01
          1   -1    0    0  502    0  0.00000000000E+00  0.00000000000E+00  0.10938966077E+03  0.10938966077E+03  0.00000000000E+00 0.  1.
         13   -1    0    0    0    0 -0.00000000000E+00 -0.00000000000E+00 -0.10000000000E+04  0.10000000000E+04  0.00000000000E+00 0.  1.
    9000005    2    1    2  501    0 -0.13588277507E+00  0.35782362813E-01 -0.89458345058E+03  0.11054140654E+04  0.64935405309E+03 0.  0.
         13    1    3    3    0    0  0.16599195840E+03 -0.21993031800E+03 -0.15503063512E+03  0.31616004310E+03  0.00000000000E+00 0.  1.
          1    1    3    3  501    0 -0.16612784117E+03  0.21996610036E+03 -0.73955281546E+03  0.78925402233E+03  0.00000000000E+00 0.  1.
         21    1    1    2  502  501  0.13588277507E+00 -0.35782362813E-01  0.39731113468E+01  0.39755953366E+01  0.00000000000E+00 0.  1.
<mgrwt>
<rscale>  1 0.64935407E+03</rscale>
<asrwt>0</asrwt>
<pdfrwt beam="1">  1        1 0.39778142E+00 0.64935407E+03</pdfrwt>
<pdfrwt beam="2">0</pdfrwt>
<totfact> 0.13688343E+00</totfact>
</mgrwt>
</event>
<event>
 6    1  0.6458647E-003  0.6485423E+03  0.7818608E-02  0.9809518E-01
          1   -1    0    0  502    0  0.00000000000E+00  0.00000000000E+00  0.10545541346E+03  0.10545541346E+03  0.00000000000E+00 0.  1.
         13   -1    0    0    0    0 -0.00000000000E+00 -0.00000000000E+00 -0.10000000000E+04  0.10000000000E+04  0.00000000000E+00 0.  1.
    9000005    2    1    2  501    0  0.61177472562E-01  0.19960777957E+00 -0.89480806465E+03  0.11051192488E+04  0.64854224069E+03 0.  0.
         13    1    3    3    0    0 -0.19295956193E+03 -0.23278572739E+03 -0.64651674054E+03  0.71372717702E+03  0.00000000000E+00 0.  1.
          1    1    3    3  501    0  0.19302073940E+03  0.23298533517E+03 -0.24829132411E+03  0.39139207180E+03  0.00000000000E+00 0.  1.
         21    1    1    2  502  501 -0.61177472562E-01 -0.19960777957E+00  0.26347810893E+00  0.33616463630E+00  0.00000000000E+00 0.  1.
<mgrwt>
<rscale>  1 0.64854227E+03</rscale>
<asrwt>0</asrwt>
<pdfrwt beam="1">  1        1 0.38347504E+00 0.64854227E+03</pdfrwt>
<pdfrwt beam="2">0</pdfrwt>
<totfact> 0.15844249E+00</totfact>
</mgrwt>
</event>
<event>
 6    1  0.6458647E-003  0.7190266E+03  0.7818608E-02  0.9685236E-01
          1   -1    0    0  502    0  0.00000000000E+00  0.00000000000E+00  0.13221141495E+03  0.13221141495E+03  0.00000000000E+00 0.  1.
         13   -1    0    0    0    0 -0.00000000000E+00 -0.00000000000E+00 -0.10000000000E+04  0.10000000000E+04  0.00000000000E+00 0.  1.
    9000005    2    1    2  501    0  0.40184238427E-02 -0.74240555867E-01 -0.87074967071E+03  0.11292493960E+04  0.71902656685E+03 0.  0.
         13    1    3    3    0    0 -0.19858781181E+03 -0.12319737612E+03 -0.63064553778E+01  0.23378298454E+03  0.00000000000E+00 0.  1.
          1    1    3    3  501    0  0.19859183024E+03  0.12312313556E+03 -0.86444321534E+03  0.89546641148E+03  0.00000000000E+00 0.  1.
         21    1    1    2  502  501 -0.40184238427E-02  0.74240555867E-01  0.29610856628E+01  0.29620189247E+01  0.00000000000E+00 0.  1.
<mgrwt>
<rscale>  1 0.71902657E+03</rscale>
<asrwt>0</asrwt>
<pdfrwt beam="1">  1        1 0.48076980E+00 0.71902657E+03</pdfrwt>
<pdfrwt beam="2">0</pdfrwt>
<totfact> 0.56275097E-01</totfact>
</mgrwt>
</event>
<event>
 6    1  0.6458647E-003  0.6477447E+03  0.7818608E-02  0.9811020E-01
          1   -1    0    0  502    0  0.00000000000E+00  0.00000000000E+00  0.11323810958E+03  0.11323810958E+03  0.00000000000E+00 0.  1.
         13   -1    0    0    0    0 -0.00000000000E+00 -0.00000000000E+00 -0.10000000000E+04  0.10000000000E+04  0.00000000000E+00 0.  1.
    9000005    2    1    2  501    0 -0.45870848417E+00  0.31504061088E-01 -0.89509969654E+03  0.11048876355E+04  0.64774455535E+03 0.  0.
         13    1    3    3    0    0 -0.14776309904E+03  0.24696924014E+02  0.42295350728E+02  0.15566877717E+03  0.00000000000E+00 0.  1.
          3    1    3    3  501    0  0.14730439055E+03 -0.24665419953E+02 -0.93739504727E+03  0.94921885836E+03  0.00000000000E+00 0.  1.
         21    1    1    2  502  501  0.45870848417E+00 -0.31504061088E-01  0.83378061223E+01  0.83504740531E+01  0.00000000000E+00 0. -1.
<mgrwt>
<rscale>  1 0.64774472E+03</rscale>
<asrwt>0</asrwt>
<pdfrwt beam="1">  1        1 0.41177581E+00 0.64774472E+03</pdfrwt>
<pdfrwt beam="2">0</pdfrwt>
<totfact> 0.11856162E+00</totfact>
</mgrwt>
</event>
<event>
 6    1  0.6458647E-003  0.6511846E+03  0.7818608E-02  0.9804559E-01
          1   -1    0    0  502    0  0.00000000000E+00  0.00000000000E+00  0.10601718353E+03  0.10601718353E+03  0.00000000000E+00 0.  1.
         13   -1    0    0    0    0 -0.00000000000E+00 -0.00000000000E+00 -0.10000000000E+04  0.10000000000E+04  0.00000000000E+00 0.  1.
    9000005    2    1    2  501    0  0.43524827867E-02  0.10511491362E-02 -0.89398882488E+03  0.11060096902E+04  0.65118462495E+03 0.  0.
         13    1    3    3    0    0  0.11273006687E+03  0.25966309788E+03 -0.72022150291E+03  0.77385528727E+03  0.00000000000E+00 0.  1.
          1    1    3    3  501    0 -0.11272571439E+03 -0.25966204673E+03 -0.17376732197E+03  0.33215440292E+03  0.00000000000E+00 0.  1.
         21    1    1    2  502  501 -0.43524827867E-02 -0.10511491362E-02  0.60084140778E-02  0.74933344143E-02  0.00000000000E+00 0.  1.
<mgrwt>
<rscale>  1 0.65118462E+03</rscale>
<asrwt>0</asrwt>
<pdfrwt beam="1">  1        1 0.38551784E+00 0.65118462E+03</pdfrwt>
<pdfrwt beam="2">0</pdfrwt>
<totfact> 0.15510521E+00</totfact>
</mgrwt>
</event>
<event>
 6    1  0.6458647E-003  0.6551416E+03  0.7818608E-02  0.9797179E-01
          1   -1    0    0  502    0  0.00000000000E+00  0.00000000000E+00  0.10745362019E+03  0.10745362019E+03  0.00000000000E+00 0.  1.
         13   -1    0    0    0    0 -0.00000000000E+00 -0.00000000000E+00 -0.10000000000E+04  0.10000000000E+04  0.00000000000E+00 0.  1.
    9000005    2    1    2  501    0  0.87978683797E-02 -0.11081318769E-01 -0.89269701711E+03  0.11073023198E+04  0.65514155948E+03 0.  0.
         13    1    3    3    0    0  0.25422877664E+03  0.32743579374E+02 -0.10162316318E+03  0.27573842706E+03  0.00000000000E+00 0.  1.
          1    1    3    3  501    0 -0.25421997877E+03 -0.32754660693E+02 -0.79107385393E+03  0.83156389278E+03  0.00000000000E+00 0.  1.
         21    1    1    2  502  501 -0.87978683797E-02  0.11081318769E-01  0.15063730312E+00  0.15130034767E+00  0.00000000000E+00 0.  1.
<mgrwt>
<rscale>  1 0.65514156E+03</rscale>
<asrwt>0</asrwt>
<pdfrwt beam="1">  1        1 0.39074126E+00 0.65514156E+03</pdfrwt>
<pdfrwt beam="2">0</pdfrwt>
<totfact> 0.14694888E+00</totfact>
</mgrwt>
</event>
<event>
 6    1  0.6458647E-003  0.6629107E+03  0.7818608E-02  0.9782850E-01
          1   -1    0    0  502    0  0.00000000000E+00  0.00000000000E+00  0.10987666823E+03  0.10987666823E+03  0.00000000000E+00 0.  1.
         13   -1    0    0    0    0 -0.00000000000E+00 -0.00000000000E+00 -0.10000000000E+04  0.10000000000E+04  0.00000000000E+00 0.  1.
    9000005    2    1    2  501    0  0.33758499562E-02 -0.28755758368E-02 -0.89013695070E+03  0.11098623455E+04  0.66291072923E+03 0.  0.
         13    1    3    3    0    0  0.67712866383E+02  0.26848044446E+03 -0.14003032603E+03  0.31028257047E+03  0.00000000000E+00 0.  1.
          1    1    3    3  501    0 -0.67709490533E+02 -0.26848332004E+03 -0.75010662467E+03  0.79957977502E+03  0.00000000000E+00 0.  1.
         21    1    1    2  502  501 -0.33758499562E-02  0.28755758368E-02  0.13618935099E-01  0.14322733417E-01  0.00000000000E+00 0. -1.
<mgrwt>
<rscale>  1 0.66291073E+03</rscale>
<asrwt>0</asrwt>
<pdfrwt beam="1">  1        1 0.39955236E+00 0.66291073E+03</pdfrwt>
<pdfrwt beam="2">0</pdfrwt>
<totfact> 0.13407656E+00</totfact>
</mgrwt>
</event>
<event>
 6    1  0.6458647E-003  0.6492575E+03  0.7818608E-02  0.9808173E-01
          1   -1    0    0  502    0  0.00000000000E+00  0.00000000000E+00  0.10538382579E+03  0.10538382579E+03  0.00000000000E+00 0.  1.
         13   -1    0    0    0    0 -0.00000000000E+00 -0.00000000000E+00 -0.10000000000E+04  0.10000000000E+04  0.00000000000E+00 0.  1.
    9000005    2    1    2  501    0  0.59714612632E-05 -0.26861347067E-05 -0.89461617541E+03  0.11053838191E+04  0.64925748844E+03 0.  0.
         13    1    3    3    0    0 -0.17618064133E+03 -0.20670003177E+03 -0.14456637772E+03  0.30767508687E+03  0.00000000000E+00 0.  1.
          3    1    3    3  501    0  0.17618064730E+03  0.20670002909E+03 -0.75004979769E+03  0.79770873226E+03  0.00000000000E+00 0.  1.
         21    1    1    2  502  501 -0.59714612693E-05  0.26861347101E-05  0.11947026157E-05  0.66558984151E-05  0.00000000000E+00 0. -1.
<mgrwt>
<rscale>  1 0.64925749E+03</rscale>
<asrwt>0</asrwt>
<pdfrwt beam="1">  1        1 0.38321472E+00 0.64925749E+03</pdfrwt>
<pdfrwt beam="2">0</pdfrwt>
<totfact> 0.15884182E+00</totfact>
</mgrwt>
</event>
<event>
 6    1  0.6458647E-003  0.6091679E+03  0.7818608E-02  0.9886566E-01
          1   -1    0    0  502    0  0.00000000000E+00  0.00000000000E+00  0.92771379136E+02  0.92771379136E+02  0.00000000000E+00 0.  1.
         13   -1    0    0    0    0 -0.00000000000E+00 -0.00000000000E+00 -0.10000000000E+04  0.10000000000E+04  0.00000000000E+00 0.  1.
    9000005    2    1    2  501    0 -0.91729661023E-06 -0.15056386644E-05 -0.90722862159E+03  0.10927713772E+04  0.60916788414E+03 0.  0.
         13    1    3    3    0    0  0.30778267989E+02  0.10188484951E+03  0.58327581096E+02  0.12136692735E+03  0.00000000000E+00 0.  1.
          1    1    3    3  501    0 -0.30778268907E+02 -0.10188485101E+03 -0.96555620268E+03  0.97140444988E+03  0.00000000000E+00 0.  1.
         21    1    1    2  502  501  0.91729661293E-06  0.15056386764E-05  0.72130420778E-06  0.19049043703E-05  0.00000000000E+00 0.  1.
<mgrwt>
<rscale>  1 0.60916788E+03</rscale>
<asrwt>0</asrwt>
<pdfrwt beam="1">  1        1 0.33735118E+00 0.60916788E+03</pdfrwt>
<pdfrwt beam="2">0</pdfrwt>
<totfact> 0.25398075E+00</totfact>
</mgrwt>
</event>
<event>
 6    1  0.6458647E-003  0.6623443E+03  0.7818608E-02  0.9783888E-01
          1   -1    0    0  502    0  0.00000000000E+00  0.00000000000E+00  0.11384092131E+03  0.11384092131E+03  0.00000000000E+00 0.  1.
         13   -1    0    0    0    0 -0.00000000000E+00 -0.00000000000E+00 -0.10000000000E+04  0.10000000000E+04  0.00000000000E+00 0.  1.
    9000005    2    1    2  501    0  0.53689424362E+01 -0.14158828568E+01 -0.88816017549E+03  0.11079388322E+04  0.66232101609E+03 0.  0.
         13    1    3    3    0    0 -0.31040116672E+03 -0.10765883530E+03 -0.46531072327E+03  0.56960809186E+03  0.00000000000E+00 0.  1.
          3    1    3    3  501    0  0.31577010915E+03  0.10624295245E+03 -0.42284945222E+03  0.53833074036E+03  0.00000000000E+00 0.  1.
         21    1    1    2  502  501 -0.53689424362E+01  0.14158828568E+01  0.20010967963E+01  0.59020890823E+01  0.00000000000E+00 0. -1.
<mgrwt>
<rscale>  1 0.66234429E+03</rscale>
<asrwt>0</asrwt>
<pdfrwt beam="1">  1        1 0.41396786E+00 0.66234429E+03</pdfrwt>
<pdfrwt beam="2">0</pdfrwt>
<totfact> 0.11557690E+00</totfact>
</mgrwt>
</event>
<event>
 6    1  0.6458647E-003  0.6276433E+03  0.7818608E-02  0.9849658E-01
          1   -1    0    0  502    0  0.00000000000E+00  0.00000000000E+00  0.98503272588E+02  0.98503272588E+02  0.00000000000E+00 0.  1.
         13   -1    0    0    0    0 -0.00000000000E+00 -0.00000000000E+00 -0.10000000000E+04  0.10000000000E+04  0.00000000000E+00 0.  1.
    9000005    2    1    2  501    0  0.21292481181E-02  0.13193934911E-02 -0.90151587309E+03  0.10984839637E+04  0.62764332959E+03 0.  0.
         13    1    3    3    0    0  0.21309177102E+03  0.55303525332E+02 -0.59338357329E+02  0.22800794601E+03  0.00000000000E+00 0.  1.
          3    1    3    3  501    0 -0.21308964178E+03 -0.55302205939E+02 -0.84217751576E+03  0.87047601774E+03  0.00000000000E+00 0.  1.
         21    1    1    2  502  501 -0.21292481181E-02 -0.13193934911E-02  0.19145673591E-01  0.19308840306E-01  0.00000000000E+00 0. -1.
<mgrwt>
<rscale>  1 0.62764333E+03</rscale>
<asrwt>0</asrwt>
<pdfrwt beam="1">  1        1 0.35819447E+00 0.62764333E+03</pdfrwt>
<pdfrwt beam="2">0</pdfrwt>
<totfact> 0.20540351E+00</totfact>
</mgrwt>
</event>
<event>
 6    1  0.6458647E-003  0.6522200E+03  0.7818608E-02  0.9802622E-01
          1   -1    0    0  502    0  0.00000000000E+00  0.00000000000E+00  0.10677168822E+03  0.10677168822E+03  0.00000000000E+00 0.  1.
         13   -1    0    0    0    0 -0.00000000000E+00 -0.00000000000E+00 -0.10000000000E+04  0.10000000000E+04  0.00000000000E+00 0.  1.
    9000005    2    1    2  501    0 -0.47656383284E+00  0.12069708115E+01 -0.89154181097E+03  0.11046437370E+04  0.65221875241E+03 0.  0.
         13    1    3    3    0    0  0.17750696135E+02  0.17452158086E+03 -0.91241709824E+03  0.92912745657E+03  0.00000000000E+00 0.  1.
          1    1    3    3  501    0 -0.18227259968E+02 -0.17331461004E+03  0.20875287268E+02  0.17551628038E+03  0.00000000000E+00 0.  1.
         21    1    1    2  502  501  0.47656383284E+00 -0.12069708115E+01 -0.16865008080E+01  0.21279512687E+01  0.00000000000E+00 0.  1.
<mgrwt>
<rscale>  1 0.65222004E+03</rscale>
<asrwt>0</asrwt>
<pdfrwt beam="1">  1        1 0.38826150E+00 0.65222004E+03</pdfrwt>
<pdfrwt beam="2">0</pdfrwt>
<totfact> 0.15079803E+00</totfact>
</mgrwt>
</event>
<event>
 6    1  0.6458647E-003  0.6434157E+03  0.7818608E-02  0.9819213E-01
          1   -1    0    0  502    0  0.00000000000E+00  0.00000000000E+00  0.10349595203E+03  0.10349595203E+03  0.00000000000E+00 0.  1.
         13   -1    0    0    0    0 -0.00000000000E+00 -0.00000000000E+00 -0.10000000000E+04  0.10000000000E+04  0.00000000000E+00 0.  1.
    9000005    2    1    2  501    0  0.25480778163E-05  0.66257427989E-06 -0.89650404956E+03  0.11034959490E+04  0.64341572757E+03 0.  0.
         13    1    3    3    0    0 -0.11190520962E+03  0.23859734637E+03 -0.13180397565E+03  0.29465871383E+03  0.00000000000E+00 0.  1.
          1    1    3    3  501    0  0.11190521217E+03 -0.23859734571E+03 -0.76470007391E+03  0.80883723513E+03  0.00000000000E+00 0.  1.
         21    1    1    2  502  501 -0.25480778170E-05 -0.66257425767E-06  0.15808833003E-05  0.30709765902E-05  0.00000000000E+00 0.  1.
<mgrwt>
<rscale>  1 0.64341573E+03</rscale>
<asrwt>0</asrwt>
<pdfrwt beam="1">  1        1 0.37634971E+00 0.64341573E+03</pdfrwt>
<pdfrwt beam="2">0</pdfrwt>
<totfact> 0.17049759E+00</totfact>
</mgrwt>
</event>
<event>
 6    1  0.6458647E-003  0.6507654E+03  0.7818608E-02  0.9805344E-01
          1   -1    0    0  502    0  0.00000000000E+00  0.00000000000E+00  0.10587403756E+03  0.10587403756E+03  0.00000000000E+00 0.  1.
         13   -1    0    0    0    0 -0.00000000000E+00 -0.00000000000E+00 -0.10000000000E+04  0.10000000000E+04  0.00000000000E+00 0.  1.
    9000005    2    1    2  501    0 -0.14848797996E-05 -0.12692036279E-03 -0.89412604788E+03  0.11058738846E+04  0.65076544088E+03 0.  0.
         13    1    3    3    0    0  0.20098505806E+02 -0.11995399249E+03  0.65792497611E+02  0.13828073977E+03  0.00000000000E+00 0.  1.
          1    1    3    3  501    0 -0.20098507291E+02  0.11995386557E+03 -0.95991854549E+03  0.96759314479E+03  0.00000000000E+00 0.  1.
         21    1    1    2  502  501  0.14848797998E-05  0.12692036279E-03  0.85441713105E-04  0.15300741713E-03  0.00000000000E+00 0. -1.
<mgrwt>
<rscale>  1 0.65076544E+03</rscale>
<asrwt>0</asrwt>
<pdfrwt beam="1">  1        1 0.38499731E+00 0.65076544E+03</pdfrwt>
<pdfrwt beam="2">0</pdfrwt>
<totfact> 0.15594187E+00</totfact>
</mgrwt>
</event>
<event>
 6    1  0.6458647E-003  0.6532983E+03  0.7818608E-02  0.9800610E-01
          1   -1    0    0  502    0  0.00000000000E+00  0.00000000000E+00  0.10670107746E+03  0.10670107746E+03  0.00000000000E+00 0.  1.
         13   -1    0    0    0    0 -0.00000000000E+00 -0.00000000000E+00 -0.10000000000E+04  0.10000000000E+04  0.00000000000E+00 0.  1.
    9000005    2    1    2  501    0  0.29050125242E-04 -0.53866524638E-04 -0.89330034319E+03  0.11066996555E+04  0.65329826598E+03 0.  0.
         13    1    3    3    0    0 -0.32551233223E+02 -0.29500580079E+03 -0.21554437816E+03  0.36680701226E+03  0.00000000000E+00 0.  1.
          1    1    3    3  501    0  0.32551262273E+02  0.29500574692E+03 -0.67775596502E+03  0.73989264324E+03  0.00000000000E+00 0.  1.
         21    1    1    2  502  501 -0.29050125242E-04  0.53866524631E-04  0.14206514225E-02  0.14219690490E-02  0.00000000000E+00 0. -1.
<mgrwt>
<rscale>  1 0.65329827E+03</rscale>
<asrwt>0</asrwt>
<pdfrwt beam="1">  1        1 0.38800474E+00 0.65329827E+03</pdfrwt>
<pdfrwt beam="2">0</pdfrwt>
<totfact> 0.15116335E+00</totfact>
</mgrwt>
</event>
<event>
 6    1  0.6458647E-003  0.6510094E+03  0.7818608E-02  0.9804887E-01
          1   -1    0    0  502    0  0.00000000000E+00  0.00000000000E+00  0.10683475654E+03  0.10683475654E+03  0.00000000000E+00 0.  1.
         13   -1    0    0    0    0 -0.00000000000E+00 -0.00000000000E+00 -0.10000000000E+04  0.10000000000E+04  0.00000000000E+00 0.  1.
    9000005    2    1    2  501    0 -0.34770131761E+00  0.64340658675E+00 -0.89387572642E+03  0.11058151222E+04  0.65100901319E+03 0.  0.
         13    1    3    3    0    0 -0.71529032226E+02 -0.31438175702E+03 -0.51909679354E+03  0.61107591399E+03  0.00000000000E+00 0.  1.
          3    1    3    3  501    0  0.71181330908E+02  0.31502516360E+03 -0.37477893288E+03  0.49473920817E+03  0.00000000000E+00 0.  1.
         21    1    1    2  502  501  0.34770131761E+00 -0.64340658675E+00  0.71048296039E+00  0.10196343850E+01  0.00000000000E+00 0. -1.
<mgrwt>
<rscale>  1 0.65100942E+03</rscale>
<asrwt>0</asrwt>
<pdfrwt beam="1">  1        1 0.38849084E+00 0.65100942E+03</pdfrwt>
<pdfrwt beam="2">0</pdfrwt>
<totfact> 0.15047942E+00</totfact>
</mgrwt>
</event>
<event>
 6    1  0.6458647E-003  0.7330569E+03  0.7818608E-02  0.9662313E-01
          1   -1    0    0  502    0  0.00000000000E+00  0.00000000000E+00  0.13459300378E+03  0.13459300378E+03  0.00000000000E+00 0.  1.
         13   -1    0    0    0    0 -0.00000000000E+00 -0.00000000000E+00 -0.10000000000E+04  0.10000000000E+04  0.00000000000E+00 0.  1.
    9000005    2    1    2  501    0 -0.98650293028E-02  0.31387002355E-03 -0.86565678331E+03  0.11343430218E+04  0.73305690395E+03 0.  0.
         13    1    3    3    0    0  0.36679574242E+02  0.33489099195E+03 -0.65624316055E+03  0.73766689869E+03  0.00000000000E+00 0.  1.
          3    1    3    3  501    0 -0.36689439271E+02 -0.33489067808E+03 -0.20941362276E+03  0.39667612307E+03  0.00000000000E+00 0.  1.
         21    1    1    2  502  501  0.98650293028E-02 -0.31387002359E-03  0.24978709491E+00  0.24998201956E+00  0.00000000000E+00 0. -1.
<mgrwt>
<rscale>  1 0.73305690E+03</rscale>
<asrwt>0</asrwt>
<pdfrwt beam="1">  1        1 0.48943014E+00 0.73305690E+03</pdfrwt>
<pdfrwt beam="2">0</pdfrwt>
<totfact> 0.51047571E-01</totfact>
</mgrwt>
</event>
<event>
 6    1  0.6458647E-003  0.6482290E+03  0.7818608E-02  0.9810108E-01
          1   -1    0    0  502    0  0.00000000000E+00  0.00000000000E+00  0.10760658083E+03  0.10760658083E+03  0.00000000000E+00 0.  1.
         13   -1    0    0    0    0 -0.00000000000E+00 -0.00000000000E+00 -0.10000000000E+04  0.10000000000E+04  0.00000000000E+00 0.  1.
    9000005    2    1    2  501    0 -0.13556801250E+00  0.30147277717E+00 -0.89493797206E+03  0.11050406475E+04  0.64822893294E+03 0.  0.
         13    1    3    3    0    0 -0.31337215278E+03 -0.82752283555E+02 -0.45466799456E+03  0.55836639570E+03  0.00000000000E+00 0.  1.
          3    1    3    3  501    0  0.31323658477E+03  0.83053756333E+02 -0.44026997750E+03  0.54667425178E+03  0.00000000000E+00 0.  1.
         21    1    1    2  502  501  0.13556801250E+00 -0.30147277717E+00  0.25445528917E+01  0.25659333468E+01  0.00000000000E+00 0. -1.
<mgrwt>
<rscale>  1 0.64822902E+03</rscale>
<asrwt>0</asrwt>
<pdfrwt beam="1">  1        1 0.39129748E+00 0.64822902E+03</pdfrwt>
<pdfrwt beam="2">0</pdfrwt>
<totfact> 0.14630483E+00</totfact>
</mgrwt>
</event>
<event>
 6    1  0.6458647E-003  0.6532750E+03  0.7818608E-02  0.9800653E-01
          1   -1    0    0  502    0  0.00000000000E+00  0.00000000000E+00  0.10669225627E+03  0.10669225627E+03  0.00000000000E+00 0.  1.
         13   -1    0    0    0    0 -0.00000000000E+00 -0.00000000000E+00 -0.10000000000E+04  0.10000000000E+04  0.00000000000E+00 0.  1.
    9000005    2    1    2  501    0 -0.62595179056E-04 -0.25031224883E-04 -0.89330794528E+03  0.11066920437E+04  0.65327497624E+03 0.  0.
         13    1    3    3    0    0 -0.10414366121E+02 -0.16268964017E+01  0.10640385578E+03  0.10692467600E+03  0.00000000000E+00 0.  1.
          1    1    3    3  501    0  0.10414303526E+02  0.16268713705E+01 -0.99971180106E+03  0.99976736774E+03  0.00000000000E+00 0.  1.
         21    1    1    2  502  501  0.62595179056E-04  0.25031224883E-04  0.20154887895E-03  0.21252451450E-03  0.00000000000E+00 0.  1.
<mgrwt>
<rscale>  1 0.65327498E+03</rscale>
<asrwt>0</asrwt>
<pdfrwt beam="1">  1        1 0.38797266E+00 0.65327498E+03</pdfrwt>
<pdfrwt beam="2">0</pdfrwt>
<totfact> 0.15121347E+00</totfact>
</mgrwt>
</event>
<event>
 6    1  0.6458647E-003  0.6487049E+03  0.7818608E-02  0.9809212E-01
          1   -1    0    0  502    0  0.00000000000E+00  0.00000000000E+00  0.11496740180E+03  0.11496740180E+03  0.00000000000E+00 0.  1.
         13   -1    0    0    0    0 -0.00000000000E+00 -0.00000000000E+00 -0.10000000000E+04  0.10000000000E+04  0.00000000000E+00 0.  1.
    9000005    2    1    2  501    0  0.59246928258E+01 -0.39488948475E+01 -0.89333986946E+03  0.11040263547E+04  0.64866584138E+03 0.  0.
         13    1    3    3    0    0 -0.18583033591E+03  0.26173825311E+03 -0.44886335301E+03  0.55183161975E+03  0.00000000000E+00 0.  1.
          3    1    3    3  501    0  0.19175502874E+03 -0.26568714796E+03 -0.44447651646E+03  0.55219473496E+03  0.00000000000E+00 0.  1.
         21    1    1    2  502  501 -0.59246928258E+01  0.39488948475E+01  0.83072712646E+01  0.10941047092E+02  0.00000000000E+00 0. -1.
<mgrwt>
<rscale>  1 0.64870492E+03</rscale>
<asrwt>0</asrwt>
<pdfrwt beam="1">  1        1 0.41806416E+00 0.64870492E+03</pdfrwt>
<pdfrwt beam="2">0</pdfrwt>
<totfact> 0.11106891E+00</totfact>
</mgrwt>
</event>
<event>
 6    1  0.6458647E-003  0.6499369E+03  0.7818608E-02  0.9806898E-01
          1   -1    0    0  502    0  0.00000000000E+00  0.00000000000E+00  0.10570497952E+03  0.10570497952E+03  0.00000000000E+00 0.  1.
         13   -1    0    0    0    0 -0.00000000000E+00 -0.00000000000E+00 -0.10000000000E+04  0.10000000000E+04  0.00000000000E+00 0.  1.
    9000005    2    1    2  501    0 -0.24368217422E-02  0.28410989747E-02 -0.89439545641E+03  0.11056044739E+04  0.64993693553E+03 0.  0.
         13    1    3    3    0    0  0.20072496740E+03 -0.11988582056E+03 -0.63258592363E+02  0.24220811715E+03  0.00000000000E+00 0.  1.
          3    1    3    3  501    0 -0.20072740422E+03  0.11988866166E+03 -0.83113686405E+03  0.86339635671E+03  0.00000000000E+00 0.  1.
         21    1    1    2  502  501  0.24368217422E-02 -0.28410989747E-02  0.10043593619E+00  0.10050565766E+00  0.00000000000E+00 0.  1.
<mgrwt>
<rscale>  1 0.64993694E+03</rscale>
<asrwt>0</asrwt>
<pdfrwt beam="1">  1        1 0.38438255E+00 0.64993694E+03</pdfrwt>
<pdfrwt beam="2">0</pdfrwt>
<totfact> 0.15694517E+00</totfact>
</mgrwt>
</event>
<event>
 6    1  0.6458647E-003  0.6332306E+03  0.7818608E-02  0.9838765E-01
          1   -1    0    0  502    0  0.00000000000E+00  0.00000000000E+00  0.10027945579E+03  0.10027945579E+03  0.00000000000E+00 0.  1.
         13   -1    0    0    0    0 -0.00000000000E+00 -0.00000000000E+00 -0.10000000000E+04  0.10000000000E+04  0.00000000000E+00 0.  1.
    9000005    2    1    2  501    0 -0.33812307457E-01 -0.65029294545E-01 -0.89970498057E+03  0.11002045271E+04  0.63323056150E+03 0.  0.
         13    1    3    3    0    0 -0.19521416406E+03  0.24993985020E+02 -0.88079582441E+03  0.90251568044E+03  0.00000000000E+00 0.  1.
          1    1    3    3  501    0  0.19518035175E+03 -0.25059014315E+02 -0.18909156161E+02  0.19768884666E+03  0.00000000000E+00 0.  1.
         21    1    1    2  502  501  0.33812307457E-01  0.65029294545E-01 -0.15563636137E-01  0.74928686458E-01  0.00000000000E+00 0.  1.
<mgrwt>
<rscale>  1 0.63323057E+03</rscale>
<asrwt>0</asrwt>
<pdfrwt beam="1">  1        1 0.36465334E+00 0.63323057E+03</pdfrwt>
<pdfrwt beam="2">0</pdfrwt>
<totfact> 0.19226739E+00</totfact>
</mgrwt>
</event>
<event>
 6    1  0.6458647E-003  0.6469493E+03  0.7818608E-02  0.9812521E-01
          1   -1    0    0  502    0  0.00000000000E+00  0.00000000000E+00  0.10463586861E+03  0.10463586861E+03  0.00000000000E+00 0.  1.
         13   -1    0    0    0    0 -0.00000000000E+00 -0.00000000000E+00 -0.10000000000E+04  0.10000000000E+04  0.00000000000E+00 0.  1.
    9000005    2    1    2  501    0  0.12168902089E-04 -0.87791866576E-06 -0.89536415034E+03  0.11046358461E+04  0.64694929531E+03 0.  0.
         13    1    3    3    0    0 -0.12270809727E+03  0.22893502317E+03 -0.11850503211E+03  0.28550300279E+03  0.00000000000E+00 0.  1.
          3    1    3    3  501    0  0.12270810944E+03 -0.22893502404E+03 -0.77685911823E+03  0.81913284328E+03  0.00000000000E+00 0.  1.
         21    1    1    2  502  501 -0.12168902091E-04  0.87791863996E-06  0.18953835030E-04  0.22541090959E-04  0.00000000000E+00 0. -1.
<mgrwt>
<rscale>  1 0.64694930E+03</rscale>
<asrwt>0</asrwt>
<pdfrwt beam="1">  1        1 0.38049487E+00 0.64694930E+03</pdfrwt>
<pdfrwt beam="2">0</pdfrwt>
<totfact> 0.16336576E+00</totfact>
</mgrwt>
</event>
<event>
 6    1  0.6458647E-003  0.6538845E+03  0.7818608E-02  0.9799517E-01
          1   -1    0    0  502    0  0.00000000000E+00  0.00000000000E+00  0.10689877686E+03  0.10689877686E+03  0.00000000000E+00 0.  1.
         13   -1    0    0    0    0 -0.00000000000E+00 -0.00000000000E+00 -0.10000000000E+04  0.10000000000E+04  0.00000000000E+00 0.  1.
    9000005    2    1    2  501    0  0.22624995379E-01  0.18355549392E-02 -0.89306288399E+03  0.11068542218E+04  0.65388451054E+03 0.  0.
         13    1    3    3    0    0 -0.20870634345E+03  0.11098191240E+03 -0.64205553402E+02  0.24494422991E+03  0.00000000000E+00 0.  1.
          3    1    3    3  501    0  0.20872896845E+03 -0.11098007684E+03 -0.82885733059E+03  0.86190999194E+03  0.00000000000E+00 0.  1.
         21    1    1    2  502  501 -0.22624995379E-01 -0.18355549392E-02 -0.38339144982E-01  0.44555018974E-01  0.00000000000E+00 0.  1.
<mgrwt>
<rscale>  1 0.65388451E+03</rscale>
<asrwt>0</asrwt>
<pdfrwt beam="1">  1        1 0.38872364E+00 0.65388451E+03</pdfrwt>
<pdfrwt beam="2">0</pdfrwt>
<totfact> 0.15004237E+00</totfact>
</mgrwt>
</event>
<event>
 6    1  0.6458647E-003  0.6660989E+03  0.7818608E-02  0.9777031E-01
          3   -1    0    0  502    0  0.00000000000E+00  0.00000000000E+00  0.11092320370E+03  0.11092320370E+03  0.00000000000E+00 0.  1.
         13   -1    0    0    0    0 -0.00000000000E+00 -0.00000000000E+00 -0.10000000000E+04  0.10000000000E+04  0.00000000000E+00 0.  1.
    9000005    2    1    2  501    0 -0.22393202812E-04  0.43625229438E-04 -0.88907805463E+03  0.11109219444E+04  0.66609892609E+03 0.  0.
         13    1    3    3    0    0 -0.25694525378E+03 -0.15824589068E+03 -0.67957101664E+03  0.74355860026E+03  0.00000000000E+00 0.  1.
          1    1    3    3  501    0  0.25694523139E+03  0.15824593431E+03 -0.20950703799E+03  0.36736334415E+03  0.00000000000E+00 0.  1.
         21    1    1    2  502  501  0.22393202780E-04 -0.43625229454E-04  0.12583334430E-02  0.12592885571E-02  0.00000000000E+00 0.  1.
<mgrwt>
<rscale>  1 0.66609893E+03</rscale>
<asrwt>0</asrwt>
<pdfrwt beam="1">  1        3 0.40335795E+00 0.66609893E+03</pdfrwt>
<pdfrwt beam="2">0</pdfrwt>
<totfact> 0.56732682E-02</totfact>
</mgrwt>
</event>
<event>
 6    1  0.6458647E-003  0.6451275E+03  0.7818608E-02  0.9815965E-01
          1   -1    0    0  502    0  0.00000000000E+00  0.00000000000E+00  0.10407572800E+03  0.10407572800E+03  0.00000000000E+00 0.  1.
         13   -1    0    0    0    0 -0.00000000000E+00 -0.00000000000E+00 -0.10000000000E+04  0.10000000000E+04  0.00000000000E+00 0.  1.
    9000005    2    1    2  501    0 -0.71874359159E-02  0.79319294547E-02 -0.89595152118E+03  0.11040464519E+04  0.64512745983E+03 0.  0.
         13    1    3    3    0    0  0.25809309666E+03 -0.19340051642E+03 -0.45705070125E+03  0.55938461706E+03  0.00000000000E+00 0.  1.
          3    1    3    3  501    0 -0.25810028409E+03  0.19340844835E+03 -0.43890081993E+03  0.54466183479E+03  0.00000000000E+00 0.  1.
         21    1    1    2  502  501  0.71874359159E-02 -0.79319294547E-02  0.27249182788E-01  0.29276145623E-01  0.00000000000E+00 0. -1.
<mgrwt>
<rscale>  1 0.64512746E+03</rscale>
<asrwt>0</asrwt>
<pdfrwt beam="1">  1        1 0.37845799E+00 0.64512746E+03</pdfrwt>
<pdfrwt beam="2">0</pdfrwt>
<totfact> 0.16683659E+00</totfact>
</mgrwt>
</event>
<event>
 6    1  0.6458647E-003  0.6350047E+03  0.7818608E-02  0.9835331E-01
          1   -1    0    0  502    0  0.00000000000E+00  0.00000000000E+00  0.10080803405E+03  0.10080803405E+03  0.00000000000E+00 0.  1.
         13   -1    0    0    0    0 -0.00000000000E+00 -0.00000000000E+00 -0.10000000000E+04  0.10000000000E+04  0.00000000000E+00 0.  1.
    9000005    2    1    2  501    0 -0.50908284265E-04 -0.36827392421E-04 -0.89919226343E+03  0.11008077300E+04  0.63500467072E+03 0.  0.
         13    1    3    3    0    0 -0.18539001912E+03  0.13668220180E+03 -0.82843077607E+03  0.85985407728E+03  0.00000000000E+00 0.  1.
          3    1    3    3  501    0  0.18538996821E+03 -0.13668223863E+03 -0.70761487356E+02  0.24095365273E+03  0.00000000000E+00 0.  1.
         21    1    1    2  502  501  0.50908284286E-04  0.36827392423E-04  0.29747521601E-03  0.30403850806E-03  0.00000000000E+00 0. -1.
<mgrwt>
<rscale>  1 0.63500467E+03</rscale>
<asrwt>0</asrwt>
<pdfrwt beam="1">  1        1 0.36657544E+00 0.63500467E+03</pdfrwt>
<pdfrwt beam="2">0</pdfrwt>
<totfact> 0.18851256E+00</totfact>
</mgrwt>
</event>
<event>
 6    1  0.6458647E-003  0.6192310E+03  0.7818608E-02  0.9866292E-01
          1   -1    0    0  502    0  0.00000000000E+00  0.00000000000E+00  0.95872278088E+02  0.95872278088E+02  0.00000000000E+00 0.  1.
         13   -1    0    0    0    0 -0.00000000000E+00 -0.00000000000E+00 -0.10000000000E+04  0.10000000000E+04  0.00000000000E+00 0.  1.
    9000005    2    1    2  501    0  0.10162607226E-01 -0.27773306337E-01 -0.90410772990E+03  0.10958365805E+04  0.61923099332E+03 0.  0.
         13    1    3    3    0    0  0.22811697102E+03  0.18115598077E+03 -0.63768780877E+03  0.70107102585E+03  0.00000000000E+00 0.  1.
          3    1    3    3  501    0 -0.22810680841E+03 -0.18118375408E+03 -0.26641992113E+03  0.39476555468E+03  0.00000000000E+00 0.  1.
         21    1    1    2  502  501 -0.10162607226E-01  0.27773306337E-01 -0.19992013311E-01  0.35697559115E-01  0.00000000000E+00 0. -1.
<mgrwt>
<rscale>  1 0.61923099E+03</rscale>
<asrwt>0</asrwt>
<pdfrwt beam="1">  1        1 0.34862720E+00 0.61923099E+03</pdfrwt>
<pdfrwt beam="2">0</pdfrwt>
<totfact> 0.22646571E+00</totfact>
</mgrwt>
</event>
<event>
 6    1  0.6458647E-003  0.6552747E+03  0.7818608E-02  0.9796932E-01
          1   -1    0    0  502    0  0.00000000000E+00  0.00000000000E+00  0.10753746639E+03  0.10753746639E+03  0.00000000000E+00 0.  1.
         13   -1    0    0    0    0 -0.00000000000E+00 -0.00000000000E+00 -0.10000000000E+04  0.10000000000E+04  0.00000000000E+00 0.  1.
    9000005    2    1    2  501    0  0.50523903098E-01  0.42225717759E-01 -0.89264746366E+03  0.11073411636E+04  0.65527471629E+03 0.  0.
         13    1    3    3    0    0  0.15832425667E+02 -0.24691091604E+03 -0.83386866790E+02  0.26109200623E+03  0.00000000000E+00 0.  1.
          3    1    3    3  501    0 -0.15781901764E+02  0.24695314176E+03 -0.80926059687E+03  0.84624915734E+03  0.00000000000E+00 0.  1.
         21    1    1    2  502  501 -0.50523903098E-01 -0.42225717759E-01  0.18493005235E+00  0.19630282802E+00  0.00000000000E+00 0. -1.
<mgrwt>
<rscale>  1 0.65527472E+03</rscale>
<asrwt>0</asrwt>
<pdfrwt beam="1">  1        1 0.39104616E+00 0.65527472E+03</pdfrwt>
<pdfrwt beam="2">0</pdfrwt>
<totfact> 0.14648825E+00</totfact>
</mgrwt>
</event>
<event>
 6    1  0.6458647E-003  0.6242031E+03  0.7818608E-02  0.9856427E-01
          1   -1    0    0  502    0  0.00000000000E+00  0.00000000000E+00  0.97413667245E+02  0.97413667245E+02  0.00000000000E+00 0.  1.
         13   -1    0    0    0    0 -0.00000000000E+00 -0.00000000000E+00 -0.10000000000E+04  0.10000000000E+04  0.00000000000E+00 0.  1.
    9000005    2    1    2  501    0 -0.51722861743E-02  0.77848095652E-02 -0.90258858818E+03  0.10974040525E+04  0.62420308787E+03 0.  0.
         13    1    3    3    0    0  0.19583316485E+03 -0.14192450154E+03 -0.79809233337E+03  0.83393318987E+03  0.00000000000E+00 0.  1.
          1    1    3    3  501    0 -0.19583833714E+03  0.14193228635E+03 -0.10449625482E+03  0.26347086266E+03  0.00000000000E+00 0.  1.
         21    1    1    2  502  501  0.51722861744E-02 -0.77848095652E-02  0.22554256733E-02  0.96147152430E-02  0.00000000000E+00 0.  1.
<mgrwt>
<rscale>  1 0.62420309E+03</rscale>
<asrwt>0</asrwt>
<pdfrwt beam="1">  1        1 0.35423226E+00 0.62420309E+03</pdfrwt>
<pdfrwt beam="2">0</pdfrwt>
<totfact> 0.21388492E+00</totfact>
</mgrwt>
</event>
<event>
 6    1  0.6458647E-003  0.6474593E+03  0.7818608E-02  0.9811558E-01
          1   -1    0    0  502    0  0.00000000000E+00  0.00000000000E+00  0.10480149077E+03  0.10480149077E+03  0.00000000000E+00 0.  1.
         13   -1    0    0    0    0 -0.00000000000E+00 -0.00000000000E+00 -0.10000000000E+04  0.10000000000E+04  0.00000000000E+00 0.  1.
    9000005    2    1    2  501    0  0.10461742450E-02  0.20732712881E-03 -0.89519856204E+03  0.11048004229E+04  0.64745927212E+03 0.  0.
         13    1    3    3    0    0 -0.77801158582E+02 -0.30426114652E+03 -0.58166379735E+03  0.66102998321E+03  0.00000000000E+00 0.  1.
          1    1    3    3  501    0  0.77802204757E+02  0.30426135385E+03 -0.31353476469E+03  0.44377043973E+03  0.00000000000E+00 0.  1.
         21    1    1    2  502  501 -0.10461742450E-02 -0.20732712882E-03  0.52809789144E-04  0.10678267477E-02  0.00000000000E+00 0.  1.
<mgrwt>
<rscale>  1 0.64745927E+03</rscale>
<asrwt>0</asrwt>
<pdfrwt beam="1">  1        1 0.38109713E+00 0.64745927E+03</pdfrwt>
<pdfrwt beam="2">0</pdfrwt>
<totfact> 0.16235360E+00</totfact>
</mgrwt>
</event>
<event>
 6    1  0.6458647E-003  0.6493403E+03  0.7818608E-02  0.9808018E-01
          1   -1    0    0  502    0  0.00000000000E+00  0.00000000000E+00  0.10543052898E+03  0.10543052898E+03  0.00000000000E+00 0.  1.
         13   -1    0    0    0    0 -0.00000000000E+00 -0.00000000000E+00 -0.10000000000E+04  0.10000000000E+04  0.00000000000E+00 0.  1.
    9000005    2    1    2  501    0 -0.16569204165E-02  0.10445381763E-01 -0.89458772735E+03  0.11054094305E+04  0.64934028601E+03 0.  0.
         13    1    3    3    0    0  0.14695028779E+03  0.28580771326E+03 -0.36867715030E+03  0.48908412077E+03  0.00000000000E+00 0.  1.
          3    1    3    3  501    0 -0.14695194471E+03 -0.28579726787E+03 -0.52591057705E+03  0.61632530974E+03  0.00000000000E+00 0.  1.
         21    1    1    2  502  501  0.16569204165E-02 -0.10445381763E-01  0.18256327644E-01  0.21098456922E-01  0.00000000000E+00 0.  1.
<mgrwt>
<rscale>  1 0.64934029E+03</rscale>
<asrwt>0</asrwt>
<pdfrwt beam="1">  1        1 0.38338455E+00 0.64934029E+03</pdfrwt>
<pdfrwt beam="2">0</pdfrwt>
<totfact> 0.15856512E+00</totfact>
</mgrwt>
</event>
<event>
 6    1  0.7463202E-003  0.7044617E+03  0.7818608E-02  0.9709632E-01
          1   -1    0    0  502    0  0.00000000000E+00  0.00000000000E+00  0.12406666371E+03  0.12406666371E+03  0.00000000000E+00 0.  1.
         13   -1    0    0    0    0 -0.00000000000E+00 -0.00000000000E+00 -0.10000000000E+04  0.10000000000E+04  0.00000000000E+00 0.  1.
    9000005    2    1    2  501    0  0.51375131136E-04 -0.15182871081E-03 -0.87593335039E+03  0.11240665028E+04  0.70446168697E+03 0.  0.
         13    1    3    3    0    0  0.29657893046E+03 -0.30196594276E+01 -0.74113139417E+03  0.79827559387E+03  0.00000000000E+00 0.  1.
          1    1    3    3  501    0 -0.29657887909E+03  0.30195075989E+01 -0.13480195622E+03  0.32579090894E+03  0.00000000000E+00 0.  1.
         21    1    1    2  502  501 -0.51375131137E-04  0.15182871081E-03  0.14098847633E-04  0.16090412993E-03  0.00000000000E+00 0. -1.
<mgrwt>
<rscale>  1 0.70446169E+03</rscale>
<asrwt>0</asrwt>
<pdfrwt beam="1">  1        1 0.45115246E+00 0.70446169E+03</pdfrwt>
<pdfrwt beam="2">0</pdfrwt>
<totfact> 0.77624332E-01</totfact>
</mgrwt>
</event>
<event>
 6    1  0.6458647E-003  0.6478957E+03  0.7818608E-02  0.9810736E-01
          1   -1    0    0  502    0  0.00000000000E+00  0.00000000000E+00  0.10509451189E+03  0.10509451189E+03  0.00000000000E+00 0.  1.
         13   -1    0    0    0    0 -0.00000000000E+00 -0.00000000000E+00 -0.10000000000E+04  0.10000000000E+04  0.00000000000E+00 0.  1.
    9000005    2    1    2  501    0 -0.14628112329E+00 -0.21837848125E-01 -0.89501707160E+03  0.11049092393E+04  0.64789570670E+03 0.  0.
         13    1    3    3    0    0 -0.71108358266E+02  0.31163812625E+03 -0.53728927512E+03  0.62518356145E+03  0.00000000000E+00 0.  1.
          1    1    3    3  501    0  0.70962077143E+02 -0.31165996410E+03 -0.35772779647E+03  0.47972567784E+03  0.00000000000E+00 0.  1.
         21    1    1    2  502  501  0.14628112329E+00  0.21837848125E-01  0.11158348924E+00  0.18527259299E+00  0.00000000000E+00 0.  1.
<mgrwt>
<rscale>  1 0.64789572E+03</rscale>
<asrwt>0</asrwt>
<pdfrwt beam="1">  1        1 0.38216267E+00 0.64789572E+03</pdfrwt>
<pdfrwt beam="2">0</pdfrwt>
<totfact> 0.16059125E+00</totfact>
</mgrwt>
</event>
<event>
 6    1  0.6458647E-003  0.6560745E+03  0.7818608E-02  0.9795447E-01
          1   -1    0    0  502    0  0.00000000000E+00  0.00000000000E+00  0.15804852725E+03  0.15804852725E+03  0.00000000000E+00 0.  1.
         13   -1    0    0    0    0 -0.00000000000E+00 -0.00000000000E+00 -0.10000000000E+04  0.10000000000E+04  0.00000000000E+00 0.  1.
    9000005    2    1    2  501    0  0.42820422786E+01  0.13683346980E+01 -0.89228058999E+03  0.11075190481E+04  0.65605913018E+03 0.  0.
         13    1    3    3    0    0 -0.85896610617E+02 -0.23628982880E+03 -0.91808281092E+02  0.26765625602E+03  0.00000000000E+00 0.  1.
          1    1    3    3  501    0  0.90178652896E+02  0.23765816350E+03 -0.80047230890E+03  0.83986279203E+03  0.00000000000E+00 0.  1.
         21    1    1    2  502  501 -0.42820422786E+01 -0.13683346980E+01  0.50329117240E+02  0.50529479199E+02  0.00000000000E+00 0.  1.
<mgrwt>
<rscale>  1 0.65607453E+03</rscale>
<asrwt>0</asrwt>
<pdfrwt beam="1">  1        1 0.57472313E+00 0.65607453E+03</pdfrwt>
<pdfrwt beam="2">0</pdfrwt>
<totfact> 0.19482400E-01</totfact>
</mgrwt>
</event>
<event>
 6    1  0.6458647E-003  0.6454354E+03  0.7818608E-02  0.9815382E-01
          1   -1    0    0  502    0  0.00000000000E+00  0.00000000000E+00  0.10463728476E+03  0.10463728476E+03  0.00000000000E+00 0.  1.
         13   -1    0    0    0    0 -0.00000000000E+00 -0.00000000000E+00 -0.10000000000E+04  0.10000000000E+04  0.00000000000E+00 0.  1.
    9000005    2    1    2  501    0 -0.46140359910E-01 -0.15367871051E-01 -0.89585195137E+03  0.11041456374E+04  0.64543540926E+03 0.  0.
         13    1    3    3    0    0 -0.17004070432E+03 -0.24996763359E+03 -0.25470462920E+03  0.39531267005E+03  0.00000000000E+00 0.  1.
          1    1    3    3  501    0  0.16999456396E+03  0.24995226572E+03 -0.64114732217E+03  0.70883296738E+03  0.00000000000E+00 0.  1.
         21    1    1    2  502  501  0.46140359910E-01  0.15367871051E-01  0.48923613119E+00  0.49164732923E+00  0.00000000000E+00 0. -1.
<mgrwt>
<rscale>  1 0.64543541E+03</rscale>
<asrwt>0</asrwt>
<pdfrwt beam="1">  1        1 0.38050002E+00 0.64543541E+03</pdfrwt>
<pdfrwt beam="2">0</pdfrwt>
<totfact> 0.16340272E+00</totfact>
</mgrwt>
</event>
<event>
 6    1  0.6458647E-003  0.6127536E+03  0.7818608E-02  0.9879294E-01
          1   -1    0    0  502    0  0.00000000000E+00  0.00000000000E+00  0.93946914307E+02  0.93946914307E+02  0.00000000000E+00 0.  1.
         13   -1    0    0    0    0 -0.00000000000E+00 -0.00000000000E+00 -0.10000000000E+04  0.10000000000E+04  0.00000000000E+00 0.  1.
    9000005    2    1    2  501    0 -0.88001285446E-01 -0.66939352549E-01 -0.90608952189E+03  0.10938304982E+04  0.61275355976E+03 0.  0.
         13    1    3    3    0    0  0.27221461803E+03  0.13280089029E+03 -0.53471112116E+03  0.61453466772E+03  0.00000000000E+00 0.  1.
          3    1    3    3  501    0 -0.27230261932E+03 -0.13286782964E+03 -0.37137840072E+03  0.47929583053E+03  0.00000000000E+00 0.  1.
         21    1    1    2  502  501  0.88001285446E-01  0.66939352549E-01  0.36436192493E-01  0.11641606111E+00  0.00000000000E+00 0.  1.
<mgrwt>
<rscale>  1 0.61275357E+03</rscale>
<asrwt>0</asrwt>
<pdfrwt beam="1">  1        1 0.34162586E+00 0.61275357E+03</pdfrwt>
<pdfrwt beam="2">0</pdfrwt>
<totfact> 0.24319855E+00</totfact>
</mgrwt>
</event>
<event>
 6    1  0.6458647E-003  0.6515254E+03  0.7818608E-02  0.9803921E-01
          1   -1    0    0  502    0  0.00000000000E+00  0.00000000000E+00  0.10664054366E+03  0.10664054366E+03  0.00000000000E+00 0.  1.
         13   -1    0    0    0    0 -0.00000000000E+00 -0.00000000000E+00 -0.10000000000E+04  0.10000000000E+04  0.00000000000E+00 0.  1.
    9000005    2    1    2  501    0 -0.21545596118E+00  0.33359886560E-01 -0.89385322156E+03  0.11061007861E+04  0.65152537921E+03 0.  0.
         13    1    3    3    0    0 -0.32223417086E+03 -0.40786557334E+02 -0.49169709530E+03  0.58929147089E+03  0.00000000000E+00 0.  1.
          1    1    3    3  501    0  0.32201871490E+03  0.40819917220E+02 -0.40215612626E+03  0.51680931520E+03  0.00000000000E+00 0.  1.
         21    1    1    2  502  501  0.21545596118E+00 -0.33359886560E-01  0.49376521405E+00  0.53975757507E+00  0.00000000000E+00 0. -1.
<mgrwt>
<rscale>  1 0.65152542E+03</rscale>
<asrwt>0</asrwt>
<pdfrwt beam="1">  1        1 0.38778461E+00 0.65152542E+03</pdfrwt>
<pdfrwt beam="2">0</pdfrwt>
<totfact> 0.15155289E+00</totfact>
</mgrwt>
</event>
<event>
 6    1  0.6458647E-003  0.4833775E+03  0.7818608E-02  0.1018211E+00
          1   -1    0    0  502    0  0.00000000000E+00  0.00000000000E+00  0.58414318992E+02  0.58414318992E+02  0.00000000000E+00 0.  1.
         13   -1    0    0    0    0 -0.00000000000E+00 -0.00000000000E+00 -0.10000000000E+04  0.10000000000E+04  0.00000000000E+00 0.  1.
    9000005    2    1    2  501    0  0.30361298656E-04 -0.18714460750E-03 -0.94158653291E+03  0.10584134462E+04  0.48337751729E+03 0.  0.
         13    1    3    3    0    0  0.24098167334E+03 -0.68459479358E+01 -0.50836497087E+03  0.56263129801E+03  0.00000000000E+00 0.  1.
          1    1    3    3  501    0 -0.24098164298E+03  0.68457607912E+01 -0.43322156204E+03  0.49578214824E+03  0.00000000000E+00 0.  1.
         21    1    1    2  502  501 -0.30361298631E-04  0.18714460750E-03  0.85190571136E-03  0.87274753144E-03  0.00000000000E+00 0. -1.
<mgrwt>
<rscale>  1 0.48337752E+03</rscale>
<asrwt>0</asrwt>
<pdfrwt beam="1">  1        1 0.21241615E+00 0.48337752E+03</pdfrwt>
<pdfrwt beam="2">0</pdfrwt>
<totfact> 0.90630876E+00</totfact>
</mgrwt>
</event>
<event>
 6    1  0.6458647E-003  0.6566801E+03  0.7818608E-02  0.9794325E-01
          1   -1    0    0  502    0  0.00000000000E+00  0.00000000000E+00  0.10801776308E+03  0.10801776308E+03  0.00000000000E+00 0.  1.
         13   -1    0    0    0    0 -0.00000000000E+00 -0.00000000000E+00 -0.10000000000E+04  0.10000000000E+04  0.00000000000E+00 0.  1.
    9000005    2    1    2  501    0  0.21346469127E-01 -0.11502799994E-01 -0.89219205402E+03  0.11078065494E+04  0.65668005081E+03 0.  0.
         13    1    3    3    0    0 -0.96620430440E+02 -0.17099157807E+03 -0.88997839584E+03  0.91139188739E+03  0.00000000000E+00 0.  1.
          3    1    3    3  501    0  0.96641776909E+02  0.17098007527E+03 -0.22136581832E+01  0.19641466204E+03  0.00000000000E+00 0.  1.
         21    1    1    2  502  501 -0.21346469127E-01  0.11502799994E-01  0.20981710518E+00  0.21121364487E+00  0.00000000000E+00 0.  1.
<mgrwt>
<rscale>  1 0.65668005E+03</rscale>
<asrwt>0</asrwt>
<pdfrwt beam="1">  1        1 0.39279269E+00 0.65668005E+03</pdfrwt>
<pdfrwt beam="2">0</pdfrwt>
<totfact> 0.14385866E+00</totfact>
</mgrwt>
</event>
<event>
 6    1  0.6458647E-003  0.6402241E+03  0.7818608E-02  0.9825298E-01
          1   -1    0    0  502    0  0.00000000000E+00  0.00000000000E+00  0.10247177326E+03  0.10247177326E+03  0.00000000000E+00 0.  1.
         13   -1    0    0    0    0 -0.00000000000E+00 -0.00000000000E+00 -0.10000000000E+04  0.10000000000E+04  0.00000000000E+00 0.  1.
    9000005    2    1    2  501    0 -0.10780716934E-04  0.51682653277E-04 -0.89752826154E+03  0.11024717100E+04  0.64022409449E+03 0.  0.
         13    1    3    3    0    0  0.59817469084E+02 -0.50030849393E+01 -0.99022184487E+03  0.99203954685E+03  0.00000000000E+00 0.  1.
          1    1    3    3  501    0 -0.59817479864E+02  0.50031366220E+01  0.92693583331E+02  0.11043216318E+03  0.00000000000E+00 0.  1.
         21    1    1    2  502  501  0.10780716932E-04 -0.51682653276E-04  0.34801834034E-04  0.63233599924E-04  0.00000000000E+00 0.  1.
<mgrwt>
<rscale>  1 0.64022409E+03</rscale>
<asrwt>0</asrwt>
<pdfrwt beam="1">  1        1 0.37262542E+00 0.64022409E+03</pdfrwt>
<pdfrwt beam="2">0</pdfrwt>
<totfact> 0.17715832E+00</totfact>
</mgrwt>
</event>
<event>
 6    1  0.6458647E-003  0.6460870E+03  0.7818608E-02  0.9814149E-01
          1   -1    0    0  502    0  0.00000000000E+00  0.00000000000E+00  0.10435870794E+03  0.10435870794E+03  0.00000000000E+00 0.  1.
         13   -1    0    0    0    0 -0.00000000000E+00 -0.00000000000E+00 -0.10000000000E+04  0.10000000000E+04  0.00000000000E+00 0.  1.
    9000005    2    1    2  501    0 -0.13718629987E-03  0.17710957229E-03 -0.89564288152E+03  0.11043571028E+04  0.64608702141E+03 0.  0.
         13    1    3    3    0    0  0.17584978528E+03  0.26557659761E+03 -0.35572432550E+03  0.47748703850E+03  0.00000000000E+00 0.  1.
          3    1    3    3  501    0 -0.17584992246E+03 -0.26557642050E+03 -0.53991855601E+03  0.62687006428E+03  0.00000000000E+00 0.  1.
         21    1    1    2  502  501  0.13718629985E-03 -0.17710957228E-03  0.15894575363E-02  0.16051676364E-02  0.00000000000E+00 0.  1.
<mgrwt>
<rscale>  1 0.64608702E+03</rscale>
<asrwt>0</asrwt>
<pdfrwt beam="1">  1        1 0.37948701E+00 0.64608702E+03</pdfrwt>
<pdfrwt beam="2">0</pdfrwt>
<totfact> 0.16507327E+00</totfact>
</mgrwt>
</event>
<event>
 6    1  0.6458647E-003  0.6464754E+03  0.7818608E-02  0.9813415E-01
          1   -1    0    0  502    0  0.00000000000E+00  0.00000000000E+00  0.10502146124E+03  0.10502146124E+03  0.00000000000E+00 0.  1.
         13   -1    0    0    0    0 -0.00000000000E+00 -0.00000000000E+00 -0.10000000000E+04  0.10000000000E+04  0.00000000000E+00 0.  1.
    9000005    2    1    2  501    0  0.18852261272E-01 -0.17848367411E-01 -0.89551705163E+03  0.11044823230E+04  0.64647537563E+03 0.  0.
         13    1    3    3    0    0  0.27939047055E+03 -0.10895051816E+03 -0.65392993178E+03  0.71941198636E+03  0.00000000000E+00 0.  1.
          3    1    3    3  501    0 -0.27937161829E+03  0.10893266979E+03 -0.24158711985E+03  0.38507033660E+03  0.00000000000E+00 0.  1.
         21    1    1    2  502  501 -0.18852261272E-01  0.17848367411E-01  0.53851287437E+00  0.53913828266E+00  0.00000000000E+00 0. -1.
<mgrwt>
<rscale>  1 0.64647538E+03</rscale>
<asrwt>0</asrwt>
<pdfrwt beam="1">  1        1 0.38189703E+00 0.64647538E+03</pdfrwt>
<pdfrwt beam="2">0</pdfrwt>
<totfact> 0.16106782E+00</totfact>
</mgrwt>
</event>
<event>
 6    1  0.6458647E-003  0.6511154E+03  0.7818608E-02  0.9804689E-01
          1   -1    0    0  502    0  0.00000000000E+00  0.00000000000E+00  0.10599993395E+03  0.10599993395E+03  0.00000000000E+00 0.  1.
         13   -1    0    0    0    0 -0.00000000000E+00 -0.00000000000E+00 -0.10000000000E+04  0.10000000000E+04  0.00000000000E+00 0.  1.
    9000005    2    1    2  501    0 -0.27758685394E-03  0.21432254484E-02 -0.89401209089E+03  0.11059877164E+04  0.65111535865E+03 0.  0.
         13    1    3    3    0    0 -0.24353507948E+03 -0.63848288129E+02 -0.79760137753E+03  0.83639338608E+03  0.00000000000E+00 0.  1.
          1    1    3    3  501    0  0.24353480189E+03  0.63850431354E+02 -0.96410713361E+02  0.26959433037E+03  0.00000000000E+00 0.  1.
         21    1    1    2  502  501  0.27758685393E-03 -0.21432254484E-02  0.12024843183E-01  0.12217500700E-01  0.00000000000E+00 0. -1.
<mgrwt>
<rscale>  1 0.65111536E+03</rscale>
<asrwt>0</asrwt>
<pdfrwt beam="1">  1        1 0.38545512E+00 0.65111536E+03</pdfrwt>
<pdfrwt beam="2">0</pdfrwt>
<totfact> 0.15520634E+00</totfact>
</mgrwt>
</event>
<event>
 6    1  0.6458647E-003  0.6495132E+03  0.7818608E-02  0.9807693E-01
          1   -1    0    0  502    0  0.00000000000E+00  0.00000000000E+00  0.10546710192E+03  0.10546710192E+03  0.00000000000E+00 0.  1.
         13   -1    0    0    0    0 -0.00000000000E+00 -0.00000000000E+00 -0.10000000000E+04  0.10000000000E+04  0.00000000000E+00 0.  1.
    9000005    2    1    2  501    0  0.39371629802E-03  0.58601206482E-03 -0.89453233967E+03  0.11054662018E+04  0.64951321508E+03 0.  0.
         13    1    3    3    0    0  0.13965480636E+03 -0.26108008874E+02  0.49767242958E+02  0.15053860481E+03  0.00000000000E+00 0.  1.
          3    1    3    3  501    0 -0.13965441265E+03  0.26108594886E+02 -0.94429958263E+03  0.95492759697E+03  0.00000000000E+00 0.  1.
         21    1    1    2  502  501 -0.39371629804E-03 -0.58601206481E-03 -0.55841122190E-03  0.90013652086E-03  0.00000000000E+00 0.  1.
<mgrwt>
<rscale>  1 0.64951322E+03</rscale>
<asrwt>0</asrwt>
<pdfrwt beam="1">  1        1 0.38351754E+00 0.64951322E+03</pdfrwt>
<pdfrwt beam="2">0</pdfrwt>
<totfact> 0.15834561E+00</totfact>
</mgrwt>
</event>
<event>
 6    1  0.6458647E-003  0.6544009E+03  0.7818608E-02  0.9798556E-01
          1   -1    0    0  502    0  0.00000000000E+00  0.00000000000E+00  0.10706130356E+03  0.10706130356E+03  0.00000000000E+00 0.  1.
         13   -1    0    0    0    0 -0.00000000000E+00 -0.00000000000E+00 -0.10000000000E+04  0.10000000000E+04  0.00000000000E+00 0.  1.
    9000005    2    1    2  501    0  0.33912462520E-03 -0.13272834622E-03 -0.89293982332E+03  0.11070601193E+04  0.65440093190E+03 0.  0.
         13    1    3    3    0    0  0.54342885947E+02  0.30123520015E+03 -0.25090048408E+03  0.39578636659E+03  0.00000000000E+00 0.  1.
          3    1    3    3  501    0 -0.54342546823E+02 -0.30123533288E+03 -0.64203933924E+03  0.71127375271E+03  0.00000000000E+00 0.  1.
         21    1    1    2  502  501 -0.33912462520E-03  0.13272834624E-03  0.11268768463E-02  0.11842608463E-02  0.00000000000E+00 0.  1.
<mgrwt>
<rscale>  1 0.65440093E+03</rscale>
<asrwt>0</asrwt>
<pdfrwt beam="1">  1        1 0.38931465E+00 0.65440093E+03</pdfrwt>
<pdfrwt beam="2">0</pdfrwt>
<totfact> 0.14912578E+00</totfact>
</mgrwt>
</event>
<event>
 6    1  0.6458647E-003  0.6439529E+03  0.7818608E-02  0.9818193E-01
          1   -1    0    0  502    0  0.00000000000E+00  0.00000000000E+00  0.10367112533E+03  0.10367112533E+03  0.00000000000E+00 0.  1.
         13   -1    0    0    0    0 -0.00000000000E+00 -0.00000000000E+00 -0.10000000000E+04  0.10000000000E+04  0.00000000000E+00 0.  1.
    9000005    2    1    2  501    0 -0.17950041977E-03 -0.95673595439E-04 -0.89633114487E+03  0.11036688460E+04  0.64395294895E+03 0.  0.
         13    1    3    3    0    0  0.13506374203E+02  0.15271071726E+03  0.37099881576E+02  0.15773200856E+03  0.00000000000E+00 0.  1.
          1    1    3    3  501    0 -0.13506553704E+02 -0.15271081293E+03 -0.93343102644E+03  0.94593683748E+03  0.00000000000E+00 0.  1.
         21    1    1    2  502  501  0.17950041977E-03  0.95673595436E-04  0.22701991987E-02  0.22792933640E-02  0.00000000000E+00 0.  1.
<mgrwt>
<rscale>  1 0.64395295E+03</rscale>
<asrwt>0</asrwt>
<pdfrwt beam="1">  1        1 0.37698671E+00 0.64395295E+03</pdfrwt>
<pdfrwt beam="2">0</pdfrwt>
<totfact> 0.16938284E+00</totfact>
</mgrwt>
</event>
