<event>
 6    1  0.3247781E-002  0.6531107E+03  0.7818608E-02  0.9800960E-01
          1   -1    0    0  502    0  0.00000000000E+00  0.00000000000E+00  0.11594100824E+03  0.11594100824E+03  0.00000000000E+00 0.  1.
         13   -1    0    0    0    0 -0.00000000000E+00 -0.00000000000E+00 -0.10000000000E+04  0.10000000000E+04  0.00000000000E+00 0.  1.
    9000005    2    1    2  501    0  0.12072033318E+01  0.11620974755E+00 -0.89331785310E+03  0.11066030557E+04  0.65310953548E+03 0.  0.
         13    1    3    3    0    0 -0.13377897684E+03  0.89128267344E+02  0.34826588209E+02  0.16447964595E+03  0.00000000000E+00 0.  1.
          3    1    3    3  501    0  0.13498618017E+03 -0.89012057597E+02 -0.92814444131E+03  0.94212340974E+03  0.00000000000E+00 0.  1.
         21    1    1    2  502  501 -0.12072033318E+01 -0.11620974755E+00  0.92588613435E+01  0.93379525576E+01  0.00000000000E+00 0.  1.
<mgrwt>
<rscale>  1 0.65311066E+03</rscale>
<asrwt>0</asrwt>
<pdfrwt beam="1">  1        1 0.42160456E+00 0.65311066E+03</pdfrwt>
<pdfrwt beam="2">0</pdfrwt>
<totfact> 0.10696675E+00</totfact>
</mgrwt>
</event>
<event>
 6    1  0.3247781E-002  0.6451228E+03  0.7818608E-02  0.9815974E-01
          1   -1    0    0  502    0  0.00000000000E+00  0.00000000000E+00  0.10406209825E+03  0.10406209825E+03  0.00000000000E+00 0.  1.
         13   -1    0    0    0    0 -0.00000000000E+00 -0.00000000000E+00 -0.10000000000E+04  0.10000000000E+04  0.00000000000E+00 0.  1.
    9000005    2    1    2  501    0  0.49753774132E-01 -0.38083017317E-02 -0.89585662844E+03  0.11039667290E+04  0.64512280812E+03 0.  0.
         13    1    3    3    0    0 -0.13995668019E+03 -0.25520100666E+03 -0.21003041368E+03  0.35892645598E+03  0.00000000000E+00 0.  1.
          3    1    3    3  501    0  0.14000643396E+03  0.25519719835E+03 -0.68582621476E+03  0.74504027304E+03  0.00000000000E+00 0.  1.
         21    1    1    2  502  501 -0.49753774132E-01  0.38083017317E-02 -0.81273311007E-01  0.95369241816E-01  0.00000000000E+00 0.  1.
<mgrwt>
<rscale>  1 0.64512281E+03</rscale>
<asrwt>0</asrwt>
<pdfrwt beam="1">  1        1 0.37840843E+00 0.64512281E+03</pdfrwt>
<pdfrwt beam="2">0</pdfrwt>
<totfact> 0.16692070E+00</totfact>
</mgrwt>
</event>
<event>
 6    1  0.3247781E-002  0.6490975E+03  0.7818608E-02  0.9808474E-01
          1   -1    0    0  502    0  0.00000000000E+00  0.00000000000E+00  0.10533200827E+03  0.10533200827E+03  0.00000000000E+00 0.  1.
         13   -1    0    0    0    0 -0.00000000000E+00 -0.00000000000E+00 -0.10000000000E+04  0.10000000000E+04  0.00000000000E+00 0.  1.
    9000005    2    1    2  501    0  0.28798072613E-04  0.23658378240E-04 -0.89466812116E+03  0.11053318736E+04  0.64909745319E+03 0.  0.
         13    1    3    3    0    0  0.60732629602E+02 -0.78007471626E+02 -0.97373529635E+03  0.97874105119E+03  0.00000000000E+00 0.  1.
          3    1    3    3  501    0 -0.60732600804E+02  0.78007495285E+02  0.79067175190E+02  0.12659082239E+03  0.00000000000E+00 0.  1.
         21    1    1    2  502  501 -0.28798072616E-04 -0.23658378234E-04  0.12942540063E-03  0.13468475109E-03  0.00000000000E+00 0. -1.
<mgrwt>
<rscale>  1 0.64909745E+03</rscale>
<asrwt>0</asrwt>
<pdfrwt beam="1">  1        1 0.38302629E+00 0.64909745E+03</pdfrwt>
<pdfrwt beam="2">0</pdfrwt>
<totfact> 0.15915136E+00</totfact>
</mgrwt>
</event>
<event>
 6    1  0.3247781E-002  0.5653116E+03  0.7818608E-02  0.9980107E-01
          1   -1    0    0  502    0  0.00000000000E+00  0.00000000000E+00  0.79894431317E+02  0.79894431317E+02  0.00000000000E+00 0.  1.
         13   -1    0    0    0    0 -0.00000000000E+00 -0.00000000000E+00 -0.10000000000E+04  0.10000000000E+04  0.00000000000E+00 0.  1.
    9000005    2    1    2  501    0  0.38553018385E-04  0.13031199458E-04 -0.92010570163E+03  0.10798942923E+04  0.56531157808E+03 0.  0.
         13    1    3    3    0    0 -0.21533003099E+03  0.98119178834E+02 -0.16473386422E+03  0.28832558249E+03  0.00000000000E+00 0.  1.
          1    1    3    3  501    0  0.21533006954E+03 -0.98119165803E+02 -0.75537183742E+03  0.79156870979E+03  0.00000000000E+00 0.  1.
         21    1    1    2  502  501 -0.38553018386E-04 -0.13031199462E-04  0.13295068676E-03  0.13903967958E-03  0.00000000000E+00 0. -1.
<mgrwt>
<rscale>  1 0.56531158E+03</rscale>
<asrwt>0</asrwt>
<pdfrwt beam="1">  1        1 0.29052582E+00 0.56531158E+03</pdfrwt>
<pdfrwt beam="2">0</pdfrwt>
<totfact> 0.40788208E+00</totfact>
</mgrwt>
</event>
<event>
 6    1  0.3247781E-002  0.6467929E+03  0.7818608E-02  0.9812816E-01
          1   -1    0    0  502    0  0.00000000000E+00  0.00000000000E+00  0.10702920592E+03  0.10702920592E+03  0.00000000000E+00 0.  1.
         13   -1    0    0    0    0 -0.00000000000E+00 -0.00000000000E+00 -0.10000000000E+04  0.10000000000E+04  0.00000000000E+00 0.  1.
    9000005    2    1    2  501    0 -0.76299687753E-01  0.20185293430E+00 -0.89540948124E+03  0.11045809900E+04  0.64679283992E+03 0.  0.
         13    1    3    3    0    0 -0.17313639153E+03 -0.10948305527E+02  0.18405927430E+02  0.17445587875E+03  0.00000000000E+00 0.  1.
          1    1    3    3  501    0  0.17306009184E+03  0.11150158461E+02 -0.91381540867E+03  0.93012511123E+03  0.00000000000E+00 0.  1.
         21    1    1    2  502  501  0.76299687753E-01 -0.20185293430E+00  0.24386871566E+01  0.24482159417E+01  0.00000000000E+00 0.  1.
<mgrwt>
<rscale>  1 0.64679288E+03</rscale>
<asrwt>0</asrwt>
<pdfrwt beam="1">  1        1 0.38919793E+00 0.64679288E+03</pdfrwt>
<pdfrwt beam="2">0</pdfrwt>
<totfact> 0.14951517E+00</totfact>
</mgrwt>
</event>
<event>
 6    1  0.3247781E-002  0.5905575E+03  0.7818608E-02  0.9925192E-01
          1   -1    0    0  502    0  0.00000000000E+00  0.00000000000E+00  0.87189566734E+02  0.87189566734E+02  0.00000000000E+00 0.  1.
         13   -1    0    0    0    0 -0.00000000000E+00 -0.00000000000E+00 -0.10000000000E+04  0.10000000000E+04  0.00000000000E+00 0.  1.
    9000005    2    1    2  501    0 -0.23737363506E-05 -0.42744887310E-05 -0.91281046229E+03  0.10871895373E+04  0.59055749080E+03 0.  0.
         13    1    3    3    0    0 -0.22510269083E+03 -0.18933236930E+03 -0.50411300936E+03  0.58365048932E+03  0.00000000000E+00 0.  1.
          1    1    3    3  501    0  0.22510268846E+03  0.18933236502E+03 -0.40869745294E+03  0.50353904797E+03  0.00000000000E+00 0.  1.
         21    1    1    2  502  501  0.23737363473E-05  0.42744887400E-05  0.29028238105E-04  0.29437127674E-04  0.00000000000E+00 0.  1.
<mgrwt>
<rscale>  1 0.59055749E+03</rscale>
<asrwt>0</asrwt>
<pdfrwt beam="1">  1        1 0.31705364E+00 0.59055749E+03</pdfrwt>
<pdfrwt beam="2">0</pdfrwt>
<totfact> 0.31197062E+00</totfact>
</mgrwt>
</event>
<event>
 6    1  0.3247781E-002  0.6479864E+03  0.7818608E-02  0.9810565E-01
          1   -1    0    0  502    0  0.00000000000E+00  0.00000000000E+00  0.10511197600E+03  0.10511197600E+03  0.00000000000E+00 0.  1.
         13   -1    0    0    0    0 -0.00000000000E+00 -0.00000000000E+00 -0.10000000000E+04  0.10000000000E+04  0.00000000000E+00 0.  1.
    9000005    2    1    2  501    0 -0.24325724635E-01 -0.10169544173E-01 -0.89502702181E+03  0.11049704997E+04  0.64798644636E+03 0.  0.
         13    1    3    3    0    0 -0.72728152213E+02  0.74515602952E+02 -0.97069467933E+03  0.97626334546E+03  0.00000000000E+00 0.  1.
          1    1    3    3  501    0  0.72703826488E+02 -0.74525772496E+02  0.75667657514E+02  0.12870715421E+03  0.00000000000E+00 0.  1.
         21    1    1    2  502  501  0.24325724635E-01  0.10169544173E-01  0.13899780753E+00  0.14147632666E+00  0.00000000000E+00 0. -1.
<mgrwt>
<rscale>  1 0.64798645E+03</rscale>
<asrwt>0</asrwt>
<pdfrwt beam="1">  1        1 0.38222617E+00 0.64798645E+03</pdfrwt>
<pdfrwt beam="2">0</pdfrwt>
<totfact> 0.16048488E+00</totfact>
</mgrwt>
</event>
<event>
 6    1  0.3247781E-002  0.6485052E+03  0.7818608E-02  0.9809588E-01
          1   -1    0    0  502    0  0.00000000000E+00  0.00000000000E+00  0.11792269492E+03  0.11792269492E+03  0.00000000000E+00 0.  1.
         13   -1    0    0    0    0 -0.00000000000E+00 -0.00000000000E+00 -0.10000000000E+04  0.10000000000E+04  0.00000000000E+00 0.  1.
    9000005    2    1    2  501    0  0.14135041723E+02 -0.14997169588E+02 -0.88493331177E+03  0.10971171362E+04  0.64817769918E+03 0.  0.
         13    1    3    3    0    0  0.23141208248E+02 -0.85720225363E+02 -0.97680248661E+03  0.98082953177E+03  0.00000000000E+00 0.  1.
          3    1    3    3  501    0 -0.90061665246E+01  0.70723055776E+02  0.91869174836E+02  0.11628760441E+03  0.00000000000E+00 0.  1.
         21    1    1    2  502  501 -0.14135041723E+02  0.14997169588E+02  0.28560066882E+01  0.20805558737E+02  0.00000000000E+00 0. -1.
<mgrwt>
<rscale>  1 0.64850524E+03</rscale>
<asrwt>0</asrwt>
<pdfrwt beam="1">  1        1 0.42881070E+00 0.64850524E+03</pdfrwt>
<pdfrwt beam="2">0</pdfrwt>
<totfact> 0.99320347E-01</totfact>
</mgrwt>
</event>
<event>
 6    1  0.3247781E-002  0.6545483E+03  0.7818608E-02  0.9798282E-01
          1   -1    0    0  502    0  0.00000000000E+00  0.00000000000E+00  0.11622271872E+03  0.11622271872E+03  0.00000000000E+00 0.  1.
         13   -1    0    0    0    0 -0.00000000000E+00 -0.00000000000E+00 -0.10000000000E+04  0.10000000000E+04  0.00000000000E+00 0.  1.
    9000005    2    1    2  501    0  0.20369804825E+01 -0.11325374939E+02 -0.88868019694E+03  0.11037146418E+04  0.65444717482E+03 0.  0.
         13    1    3    3    0    0  0.60839909047E+02 -0.53820765634E+02  0.90639344055E+02  0.12171138006E+03  0.00000000000E+00 0.  1.
          3    1    3    3  501    0 -0.58802928565E+02  0.42495390695E+02 -0.97931954099E+03  0.98200326171E+03  0.00000000000E+00 0.  1.
         21    1    1    2  502  501 -0.20369804825E+01  0.11325374939E+02  0.49029156545E+01  0.12508076947E+02  0.00000000000E+00 0.  1.
<mgrwt>
<rscale>  1 0.65454833E+03</rscale>
<asrwt>0</asrwt>
<pdfrwt beam="1">  1        1 0.42262896E+00 0.65454833E+03</pdfrwt>
<pdfrwt beam="2">0</pdfrwt>
<totfact> 0.10580317E+00</totfact>
</mgrwt>
</event>
<event>
 6    1  0.3247781E-002  0.6498080E+03  0.7818608E-02  0.9807139E-01
          1   -1    0    0  502    0  0.00000000000E+00  0.00000000000E+00  0.10556284639E+03  0.10556284639E+03  0.00000000000E+00 0.  1.
         13   -1    0    0    0    0 -0.00000000000E+00 -0.00000000000E+00 -0.10000000000E+04  0.10000000000E+04  0.00000000000E+00 0.  1.
    9000005    2    1    2  501    0 -0.43642650432E-03  0.25850998998E-03 -0.89443702136E+03  0.11055623222E+04  0.64980802016E+03 0.  0.
         13    1    3    3    0    0  0.20872808730E+02  0.28476903445E+03 -0.71097784010E+03  0.76617136872E+03  0.00000000000E+00 0.  1.
          1    1    3    3  501    0 -0.20873245157E+02 -0.28476877594E+03 -0.18345918125E+03  0.33939095347E+03  0.00000000000E+00 0.  1.
         21    1    1    2  502  501  0.43642650432E-03 -0.25850999001E-03 -0.13225280845E-03  0.52420064283E-03  0.00000000000E+00 0.  1.
<mgrwt>
<rscale>  1 0.64980802E+03</rscale>
<asrwt>0</asrwt>
<pdfrwt beam="1">  1        1 0.38386571E+00 0.64980802E+03</pdfrwt>
<pdfrwt beam="2">0</pdfrwt>
<totfact> 0.15777690E+00</totfact>
</mgrwt>
</event>
<event>
 6    1  0.3247781E-002  0.6780263E+03  0.7818608E-02  0.9755566E-01
          1   -1    0    0  502    0  0.00000000000E+00  0.00000000000E+00  0.11492991813E+03  0.11492991813E+03  0.00000000000E+00 0.  1.
         13   -1    0    0    0    0 -0.00000000000E+00 -0.00000000000E+00 -0.10000000000E+04  0.10000000000E+04  0.00000000000E+00 0.  1.
    9000005    2    1    2  501    0  0.13962620109E-05 -0.42085928840E-05 -0.88507009071E+03  0.11149299082E+04  0.67802627885E+03 0.  0.
         13    1    3    3    0    0 -0.17267054172E+02  0.32965293062E+03 -0.31558006747E+03  0.45668368135E+03  0.00000000000E+00 0.  1.
          3    1    3    3  501    0  0.17267055569E+02 -0.32965293482E+03 -0.56949002324E+03  0.65824622689E+03  0.00000000000E+00 0.  1.
         21    1    1    2  502  501 -0.13962620135E-05  0.42085929046E-05  0.88460591710E-05  0.98951788616E-05  0.00000000000E+00 0. -1.
<mgrwt>
<rscale>  1 0.67802628E+03</rscale>
<asrwt>0</asrwt>
<pdfrwt beam="1">  1        1 0.41792786E+00 0.67802628E+03</pdfrwt>
<pdfrwt beam="2">0</pdfrwt>
<totfact> 0.11059683E+00</totfact>
</mgrwt>
</event>
<event>
 6    1  0.3247782E-002  0.6646997E+03  0.7818608E-02  0.9779581E-01
          1   -1    0    0  502    0  0.00000000000E+00  0.00000000000E+00  0.11045641896E+03  0.11045641896E+03  0.00000000000E+00 0.  1.
         13   -1    0    0    0    0 -0.00000000000E+00 -0.00000000000E+00 -0.10000000000E+04  0.10000000000E+04  0.00000000000E+00 0.  1.
    9000005    2    1    2  501    0 -0.12288285234E-06 -0.12003352481E-05 -0.88954358105E+03  0.11104564178E+04  0.66469968645E+03 0.  0.
         13    1    3    3    0    0  0.31707292027E+02 -0.71632997090E+02 -0.98435617821E+03  0.98746834087E+03  0.00000000000E+00 0.  1.
          3    1    3    3  501    0 -0.31707292150E+02  0.71632995890E+02  0.94812597165E+02  0.12298807689E+03  0.00000000000E+00 0.  1.
         21    1    1    2  502  501  0.12288285024E-06  0.12003352457E-05  0.94071852566E-08  0.12066455122E-05  0.00000000000E+00 0.  1.
<mgrwt>
<rscale>  1 0.66469969E+03</rscale>
<asrwt>0</asrwt>
<pdfrwt beam="1">  1        1 0.40166055E+00 0.66469969E+03</pdfrwt>
<pdfrwt beam="2">0</pdfrwt>
<totfact> 0.13116049E+00</totfact>
</mgrwt>
</event>
<event>
 6    1  0.3247781E-002  0.6529169E+03  0.7818608E-02  0.9801321E-01
          1   -1    0    0  502    0  0.00000000000E+00  0.00000000000E+00  0.10657984420E+03  0.10657984420E+03  0.00000000000E+00 0.  1.
         13   -1    0    0    0    0 -0.00000000000E+00 -0.00000000000E+00 -0.10000000000E+04  0.10000000000E+04  0.00000000000E+00 0.  1.
    9000005    2    1    2  501    0  0.50469718579E-02 -0.50267654597E-02 -0.89342173087E+03  0.11065725489E+04  0.65291685288E+03 0.  0.
         13    1    3    3    0    0  0.12566683615E+03  0.28112292548E+03 -0.63043888046E+03  0.70162342815E+03  0.00000000000E+00 0.  1.
          1    1    3    3  501    0 -0.12566178918E+03 -0.28112795225E+03 -0.26298285041E+03  0.40494912076E+03  0.00000000000E+00 0.  1.
         21    1    1    2  502  501 -0.50469718579E-02  0.50267654596E-02  0.15750692021E-02  0.72952819624E-02  0.00000000000E+00 0.  1.
<mgrwt>
<rscale>  1 0.65291685E+03</rscale>
<asrwt>0</asrwt>
<pdfrwt beam="1">  1        1 0.38756389E+00 0.65291685E+03</pdfrwt>
<pdfrwt beam="2">0</pdfrwt>
<totfact> 0.15185530E+00</totfact>
</mgrwt>
</event>
<event>
 6    1  0.3247781E-002  0.6509900E+03  0.7818608E-02  0.9804923E-01
          1   -1    0    0  502    0  0.00000000000E+00  0.00000000000E+00  0.10594972938E+03  0.10594972938E+03  0.00000000000E+00 0.  1.
         13   -1    0    0    0    0 -0.00000000000E+00 -0.00000000000E+00 -0.10000000000E+04  0.10000000000E+04  0.00000000000E+00 0.  1.
    9000005    2    1    2  501    0  0.24171168540E-02 -0.79736825648E-02 -0.89404003108E+03  0.11059365282E+04  0.65099003620E+03 0.  0.
         13    1    3    3    0    0  0.27859224887E+03 -0.65191586058E+02 -0.18337377810E+03  0.33983750017E+03  0.00000000000E+00 0.  1.
          3    1    3    3  501    0 -0.27858983176E+03  0.65183612375E+02 -0.71066625298E+03  0.76609902806E+03  0.00000000000E+00 0.  1.
         21    1    1    2  502  501 -0.24171168540E-02  0.79736825648E-02 -0.10239544596E-01  0.13201149233E-01  0.00000000000E+00 0.  1.
<mgrwt>
<rscale>  1 0.65099004E+03</rscale>
<asrwt>0</asrwt>
<pdfrwt beam="1">  1        1 0.38527256E+00 0.65099004E+03</pdfrwt>
<pdfrwt beam="2">0</pdfrwt>
<totfact> 0.15549885E+00</totfact>
</mgrwt>
</event>
<event>
 6    1  0.3247781E-002  0.6437460E+03  0.7818608E-02  0.9818586E-01
          3   -1    0    0  502    0  0.00000000000E+00  0.00000000000E+00  0.10808654785E+03  0.10808654785E+03  0.00000000000E+00 0.  1.
         13   -1    0    0    0    0 -0.00000000000E+00 -0.00000000000E+00 -0.10000000000E+04  0.10000000000E+04  0.00000000000E+00 0.  1.
    9000005    2    1    2  501    0  0.13235396506E+00  0.30745655878E+00 -0.89639087502E+03  0.11035966300E+04  0.64374591943E+03 0.  0.
         13    1    3    3    0    0 -0.11775731538E+03  0.21129362920E+03 -0.84072292605E+02  0.25608579314E+03  0.00000000000E+00 0.  1.
          3    1    3    3  501    0  0.11788966934E+03 -0.21098617264E+03 -0.81231858242E+03  0.84751083682E+03  0.00000000000E+00 0.  1.
         21    1    1    2  502  501 -0.13235396506E+00 -0.30745655878E+00  0.44774228759E+01  0.44899178965E+01  0.00000000000E+00 0.  1.
<mgrwt>
<rscale>  1 0.64374601E+03</rscale>
<asrwt>0</asrwt>
<pdfrwt beam="1">  1        3 0.39304282E+00 0.64374601E+03</pdfrwt>
<pdfrwt beam="2">0</pdfrwt>
<totfact> 0.64501993E-02</totfact>
</mgrwt>
</event>
<event>
 6    1  0.3247781E-002  0.5142723E+03  0.7818608E-02  0.1010119E+00
          1   -1    0    0  502    0  0.00000000000E+00  0.00000000000E+00  0.66137851909E+02  0.66137851909E+02  0.00000000000E+00 0.  1.
         13   -1    0    0    0    0 -0.00000000000E+00 -0.00000000000E+00 -0.10000000000E+04  0.10000000000E+04  0.00000000000E+00 0.  1.
    9000005    2    1    2  501    0 -0.32601170085E-03  0.12828715445E-02 -0.93388096643E+03  0.10661189871E+04  0.51427233558E+03 0.  0.
         13    1    3    3    0    0 -0.17501601311E+03 -0.50785807470E+02 -0.90868314198E+02  0.20363411701E+03  0.00000000000E+00 0.  1.
          1    1    3    3  501    0  0.17501568710E+03  0.50787090341E+02 -0.84301265223E+03  0.86248487007E+03  0.00000000000E+00 0.  1.
         21    1    1    2  502  501  0.32601170085E-03 -0.12828715445E-02  0.18818338202E-01  0.18864832247E-01  0.00000000000E+00 0.  1.
<mgrwt>
<rscale>  1 0.51427234E+03</rscale>
<asrwt>0</asrwt>
<pdfrwt beam="1">  1        1 0.24050179E+00 0.51427234E+03</pdfrwt>
<pdfrwt beam="2">0</pdfrwt>
<totfact> 0.67776483E+00</totfact>
</mgrwt>
</event>
<event>
 6    1  0.3247781E-002  0.6441152E+03  0.7818608E-02  0.9817885E-01
          1   -1    0    0  502    0  0.00000000000E+00  0.00000000000E+00  0.10858644895E+03  0.10858644895E+03  0.00000000000E+00 0.  1.
         13   -1    0    0    0    0 -0.00000000000E+00 -0.00000000000E+00 -0.10000000000E+04  0.10000000000E+04  0.00000000000E+00 0.  1.
    9000005    2    1    2  501    0 -0.51033396719E+00  0.78697787801E-01 -0.89626378233E+03  0.11037088084E+04  0.64411497385E+03 0.  0.
         13    1    3    3    0    0 -0.24239064851E+02 -0.32101945416E+03 -0.43407343447E+03  0.54042646931E+03  0.00000000000E+00 0.  1.
          3    1    3    3  501    0  0.23728730884E+02  0.32109815195E+03 -0.46219034786E+03  0.56328233907E+03  0.00000000000E+00 0.  1.
         21    1    1    2  502  501  0.51033396719E+00 -0.78697787801E-01  0.48502312785E+01  0.48776405725E+01  0.00000000000E+00 0. -1.
<mgrwt>
<rscale>  1 0.64411518E+03</rscale>
<asrwt>0</asrwt>
<pdfrwt beam="1">  1        1 0.39486065E+00 0.64411518E+03</pdfrwt>
<pdfrwt beam="2">0</pdfrwt>
<totfact> 0.14118032E+00</totfact>
</mgrwt>
</event>
<event>
 6    1  0.3247781E-002  0.6565339E+03  0.7818608E-02  0.9794595E-01
          3   -1    0    0  502    0  0.00000000000E+00  0.00000000000E+00  0.10804142824E+03  0.10804142824E+03  0.00000000000E+00 0.  1.
         13   -1    0    0    0    0 -0.00000000000E+00 -0.00000000000E+00 -0.10000000000E+04  0.10000000000E+04  0.00000000000E+00 0.  1.
    9000005    2    1    2  501    0 -0.34333368989E-01  0.10761228971E-01 -0.89223953785E+03  0.11077581677E+04  0.65653390158E+03 0.  0.
         13    1    3    3    0    0 -0.29155598060E+03 -0.73566807708E+02 -0.66839593669E+03  0.73291888583E+03  0.00000000000E+00 0.  1.
          1    1    3    3  501    0  0.29152164723E+03  0.73577568937E+02 -0.22384360116E+03  0.37483928188E+03  0.00000000000E+00 0.  1.
         21    1    1    2  502  501  0.34333368989E-01 -0.10761228971E-01  0.28096609516E+00  0.28326053538E+00  0.00000000000E+00 0. -1.
<mgrwt>
<rscale>  1 0.65653390E+03</rscale>
<asrwt>0</asrwt>
<pdfrwt beam="1">  1        3 0.39287875E+00 0.65653390E+03</pdfrwt>
<pdfrwt beam="2">0</pdfrwt>
<totfact> 0.64490296E-02</totfact>
</mgrwt>
</event>
