<event>
 6    1  0.7058193E-003  0.6465760E+03  0.7818608E-02  0.9813225E-01
          1   -1    0    0  502    0  0.00000000000E+00  0.00000000000E+00  0.10451637656E+03  0.10451637656E+03  0.00000000000E+00 0.  1.
         13   -1    0    0    0    0 -0.00000000000E+00 -0.00000000000E+00 -0.10000000000E+04  0.10000000000E+04  0.00000000000E+00 0.  1.
    9000005    2    1    2  501    0 -0.27484391126E-04 -0.55363158683E-03 -0.89548480908E+03  0.11045150677E+04  0.64657597511E+03 0.  0.
         13    1    3    3    0    0  0.56770101242E+02 -0.94781184732E+02 -0.96675017262E+03  0.97304276044E+03  0.00000000000E+00 0.  1.
          3    1    3    3  501    0 -0.56770128726E+02  0.94780631101E+02  0.71265363547E+02  0.13147230731E+03  0.00000000000E+00 0.  1.
         21    1    1    2  502  501  0.27484391127E-04  0.55363158682E-03  0.11856388656E-02  0.13088173460E-02  0.00000000000E+00 0. -1.
<mgrwt>
<rscale>  1 0.64657598E+03</rscale>
<asrwt>0</asrwt>
<pdfrwt beam="1">  1        1 0.38006035E+00 0.64657598E+03</pdfrwt>
<pdfrwt beam="2">0</pdfrwt>
<totfact> 0.16409989E+00</totfact>
</mgrwt>
</event>
<event>
 6    1  0.7058193E-003  0.6522386E+03  0.7818608E-02  0.9802588E-01
          1   -1    0    0  502    0  0.00000000000E+00  0.00000000000E+00  0.10636972603E+03  0.10636972603E+03  0.00000000000E+00 0.  1.
         13   -1    0    0    0    0 -0.00000000000E+00 -0.00000000000E+00 -0.10000000000E+04  0.10000000000E+04  0.00000000000E+00 0.  1.
    9000005    2    1    2  501    0 -0.47533836502E-03  0.81117939260E-04 -0.89364620591E+03  0.11063537868E+04  0.65223857616E+03 0.  0.
         13    1    3    3    0    0  0.51190809712E+02  0.18421460192E+03  0.13129340264E+01  0.19119948315E+03  0.00000000000E+00 0.  1.
          1    1    3    3  501    0 -0.51191285050E+02 -0.18421452080E+03 -0.89495913993E+03  0.91515430365E+03  0.00000000000E+00 0.  1.
         21    1    1    2  502  501  0.47533836502E-03 -0.81117939279E-04  0.15931933674E-01  0.15939229507E-01  0.00000000000E+00 0.  1.
<mgrwt>
<rscale>  1 0.65223858E+03</rscale>
<asrwt>0</asrwt>
<pdfrwt beam="1">  1        1 0.38679982E+00 0.65223858E+03</pdfrwt>
<pdfrwt beam="2">0</pdfrwt>
<totfact> 0.15306219E+00</totfact>
</mgrwt>
</event>
<event>
 6    1  0.7058193E-003  0.6382638E+03  0.7818608E-02  0.9829054E-01
          1   -1    0    0  502    0  0.00000000000E+00  0.00000000000E+00  0.10386556909E+03  0.10386556909E+03  0.00000000000E+00 0.  1.
         13   -1    0    0    0    0 -0.00000000000E+00 -0.00000000000E+00 -0.10000000000E+04  0.10000000000E+04  0.00000000000E+00 0.  1.
    9000005    2    1    2  501    0 -0.22030703436E+00  0.97757614443E-01 -0.89814691811E+03  0.11018387005E+04  0.63826372074E+03 0.  0.
         13    1    3    3    0    0  0.29971835320E+03  0.46947554597E+02 -0.61938420504E+03  0.68968975458E+03  0.00000000000E+00 0.  1.
          1    1    3    3  501    0 -0.29993866024E+03 -0.46849796983E+02 -0.27876271307E+03  0.41214894587E+03  0.00000000000E+00 0.  1.
         21    1    1    2  502  501  0.22030703436E+00 -0.97757614443E-01  0.20124871992E+01  0.20268686360E+01  0.00000000000E+00 0.  1.
<mgrwt>
<rscale>  1 0.63826377E+03</rscale>
<asrwt>0</asrwt>
<pdfrwt beam="1">  1        1 0.37769377E+00 0.63826377E+03</pdfrwt>
<pdfrwt beam="2">0</pdfrwt>
<totfact> 0.16834836E+00</totfact>
</mgrwt>
</event>
<event>
 6    1  0.7058193E-003  0.6620391E+03  0.7818608E-02  0.9784447E-01
          1   -1    0    0  502    0  0.00000000000E+00  0.00000000000E+00  0.10959162945E+03  0.10959162945E+03  0.00000000000E+00 0.  1.
         13   -1    0    0    0    0 -0.00000000000E+00 -0.00000000000E+00 -0.10000000000E+04  0.10000000000E+04  0.00000000000E+00 0.  1.
    9000005    2    1    2  501    0 -0.26882417004E-02 -0.10061816992E-02 -0.89042593531E+03  0.11095738317E+04  0.66203907870E+03 0.  0.
         13    1    3    3    0    0  0.24227740432E+02  0.11104666000E+03 -0.96627013521E+03  0.97293181585E+03  0.00000000000E+00 0.  1.
          3    1    3    3  501    0 -0.24230428673E+02 -0.11104766618E+03  0.75844199901E+02  0.13664201585E+03  0.00000000000E+00 0.  1.
         21    1    1    2  502  501  0.26882417004E-02  0.10061816992E-02  0.17564757341E-01  0.17797745517E-01  0.00000000000E+00 0. -1.
<mgrwt>
<rscale>  1 0.66203908E+03</rscale>
<asrwt>0</asrwt>
<pdfrwt beam="1">  1        1 0.39851586E+00 0.66203908E+03</pdfrwt>
<pdfrwt beam="2">0</pdfrwt>
<totfact> 0.13553242E+00</totfact>
</mgrwt>
</event>
<event>
 6    1  0.7058193E-003  0.6604304E+03  0.7818608E-02  0.9787402E-01
          1   -1    0    0  502    0  0.00000000000E+00  0.00000000000E+00  0.10904211000E+03  0.10904211000E+03  0.00000000000E+00 0.  1.
         13   -1    0    0    0    0 -0.00000000000E+00 -0.00000000000E+00 -0.10000000000E+04  0.10000000000E+04  0.00000000000E+00 0.  1.
    9000005    2    1    2  501    0 -0.45965295527E-04 -0.20440375579E-04 -0.89095790751E+03  0.11090420567E+04  0.66043038289E+03 0.  0.
         13    1    3    3    0    0 -0.60986629279E+02  0.31551774431E+03 -0.57305114222E+03  0.65700717464E+03  0.00000000000E+00 0.  1.
          3    1    3    3  501    0  0.60986583313E+02 -0.31551776475E+03 -0.31790676529E+03  0.45203488210E+03  0.00000000000E+00 0.  1.
         21    1    1    2  502  501  0.45965295533E-04  0.20440375585E-04  0.17516372015E-04  0.53267632161E-04  0.00000000000E+00 0.  1.
<mgrwt>
<rscale>  1 0.66043038E+03</rscale>
<asrwt>0</asrwt>
<pdfrwt beam="1">  1        1 0.39651760E+00 0.66043038E+03</pdfrwt>
<pdfrwt beam="2">0</pdfrwt>
<totfact> 0.13837957E+00</totfact>
</mgrwt>
</event>
<event>
 6    1  0.7058193E-003  0.6412943E+03  0.7818608E-02  0.9823253E-01
          1   -1    0    0  502    0  0.00000000000E+00  0.00000000000E+00  0.10281602969E+03  0.10281602969E+03  0.00000000000E+00 0.  1.
         13   -1    0    0    0    0 -0.00000000000E+00 -0.00000000000E+00 -0.10000000000E+04  0.10000000000E+04  0.00000000000E+00 0.  1.
    9000005    2    1    2  501    0  0.51704636007E-04  0.22451362564E-02 -0.89718438354E+03  0.11028137463E+04  0.64129427011E+03 0.  0.
         13    1    3    3    0    0  0.29344424415E+03  0.12917181698E+03 -0.45628492525E+03  0.55766550524E+03  0.00000000000E+00 0.  1.
          1    1    3    3  501    0 -0.29344419244E+03 -0.12916957185E+03 -0.44089945829E+03  0.54514824102E+03  0.00000000000E+00 0.  1.
         21    1    1    2  502  501 -0.51704636000E-04 -0.22451362564E-02  0.41323067676E-03  0.22834337677E-02  0.00000000000E+00 0.  1.
<mgrwt>
<rscale>  1 0.64129427E+03</rscale>
<asrwt>0</asrwt>
<pdfrwt beam="1">  1        1 0.37387726E+00 0.64129427E+03</pdfrwt>
<pdfrwt beam="2">0</pdfrwt>
<totfact> 0.17489229E+00</totfact>
</mgrwt>
</event>
<event>
 6    1  0.7058193E-003  0.5801588E+03  0.7818608E-02  0.9947447E-01
          1   -1    0    0  502    0  0.00000000000E+00  0.00000000000E+00  0.84146423997E+02  0.84146423997E+02  0.00000000000E+00 0.  1.
         13   -1    0    0    0    0 -0.00000000000E+00 -0.00000000000E+00 -0.10000000000E+04  0.10000000000E+04  0.00000000000E+00 0.  1.
    9000005    2    1    2  501    0 -0.85783282174E-04  0.10202606876E-03 -0.91585393002E+03  0.10841460457E+04  0.58015879492E+03 0.  0.
         13    1    3    3    0    0 -0.74189791232E+02  0.12723530554E+03 -0.92492822959E+03  0.93658164513E+03  0.00000000000E+00 0.  1.
          3    1    3    3  501    0  0.74189705449E+02 -0.12723520352E+03  0.90742995735E+01  0.14756440059E+03  0.00000000000E+00 0.  1.
         21    1    1    2  502  501  0.85783282174E-04 -0.10202606876E-03  0.35401451144E-03  0.37827815759E-03  0.00000000000E+00 0. -1.
<mgrwt>
<rscale>  1 0.58015879E+03</rscale>
<asrwt>0</asrwt>
<pdfrwt beam="1">  1        1 0.30598764E+00 0.58015879E+03</pdfrwt>
<pdfrwt beam="2">0</pdfrwt>
<totfact> 0.34890018E+00</totfact>
</mgrwt>
</event>
<event>
 6    1  0.7058193E-003  0.6464476E+03  0.7818608E-02  0.9813468E-01
          1   -1    0    0  502    0  0.00000000000E+00  0.00000000000E+00  0.10457486553E+03  0.10457486553E+03  0.00000000000E+00 0.  1.
         13   -1    0    0    0    0 -0.00000000000E+00 -0.00000000000E+00 -0.10000000000E+04  0.10000000000E+04  0.00000000000E+00 0.  1.
    9000005    2    1    2  501    0 -0.36963666264E-03  0.33456284049E-02 -0.89552634917E+03  0.11044735949E+04  0.64644758466E+03 0.  0.
         13    1    3    3    0    0  0.14398500347E+03  0.19782860440E+03 -0.86919586862E+02  0.25965910830E+03  0.00000000000E+00 0.  1.
          1    1    3    3  501    0 -0.14398537311E+03 -0.19782525877E+03 -0.80860676231E+03  0.84481448658E+03  0.00000000000E+00 0.  1.
         21    1    1    2  502  501  0.36963666263E-03 -0.33456284049E-02  0.10121469677E+00  0.10127065075E+00  0.00000000000E+00 0.  1.
<mgrwt>
<rscale>  1 0.64644758E+03</rscale>
<asrwt>0</asrwt>
<pdfrwt beam="1">  1        1 0.38027304E+00 0.64644758E+03</pdfrwt>
<pdfrwt beam="2">0</pdfrwt>
<totfact> 0.16374952E+00</totfact>
</mgrwt>
</event>
<event>
 6    1  0.7058193E-003  0.6541660E+03  0.7818608E-02  0.9798993E-01
          1   -1    0    0  502    0  0.00000000000E+00  0.00000000000E+00  0.11389982618E+03  0.11389982618E+03  0.00000000000E+00 0.  1.
         13   -1    0    0    0    0 -0.00000000000E+00 -0.00000000000E+00 -0.10000000000E+04  0.10000000000E+04  0.00000000000E+00 0.  1.
    9000005    2    1    2  501    0  0.12450607833E+00  0.17375286039E+00 -0.89301487004E+03  0.11069818268E+04  0.65416600419E+03 0.  0.
         13    1    3    3    0    0 -0.62204710614E+02 -0.23134100908E+03 -0.69736248099E+02  0.24950196954E+03  0.00000000000E+00 0.  1.
          3    1    3    3  501    0  0.62329216692E+02  0.23151476194E+03 -0.82327862194E+03  0.85747985725E+03  0.00000000000E+00 0.  1.
         21    1    1    2  502  501 -0.12450607833E+00 -0.17375286039E+00  0.69146962166E+01  0.69179993920E+01  0.00000000000E+00 0.  1.
<mgrwt>
<rscale>  1 0.65416604E+03</rscale>
<asrwt>0</asrwt>
<pdfrwt beam="1">  1        1 0.41418206E+00 0.65416604E+03</pdfrwt>
<pdfrwt beam="2">0</pdfrwt>
<totfact> 0.11550346E+00</totfact>
</mgrwt>
</event>
<event>
 6    1  0.7058193E-003  0.6493238E+03  0.7818608E-02  0.9808049E-01
          1   -1    0    0  502    0  0.00000000000E+00  0.00000000000E+00  0.10544609270E+03  0.10544609270E+03  0.00000000000E+00 0.  1.
         13   -1    0    0    0    0 -0.00000000000E+00 -0.00000000000E+00 -0.10000000000E+04  0.10000000000E+04  0.00000000000E+00 0.  1.
    9000005    2    1    2  501    0 -0.43778551134E-03  0.83259705140E-03 -0.89459465223E+03  0.11054053369E+04  0.64932377675E+03 0.  0.
         13    1    3    3    0    0  0.25754586112E+03 -0.68718552079E+02 -0.76282865033E+03  0.80805919322E+03  0.00000000000E+00 0.  1.
          3    1    3    3  501    0 -0.25754629890E+03  0.68719384676E+02 -0.13176600190E+03  0.29734614369E+03  0.00000000000E+00 0.  1.
         21    1    1    2  502  501  0.43778551133E-03 -0.83259705141E-03  0.40744937143E-01  0.40755794396E-01  0.00000000000E+00 0.  1.
<mgrwt>
<rscale>  1 0.64932378E+03</rscale>
<asrwt>0</asrwt>
<pdfrwt beam="1">  1        1 0.38344115E+00 0.64932378E+03</pdfrwt>
<pdfrwt beam="2">0</pdfrwt>
<totfact> 0.15847431E+00</totfact>
</mgrwt>
</event>
<event>
 6    1  0.7058193E-003  0.6322515E+03  0.7818608E-02  0.9840665E-01
          1   -1    0    0  502    0  0.00000000000E+00  0.00000000000E+00  0.99945807761E+02  0.99945807761E+02  0.00000000000E+00 0.  1.
         13   -1    0    0    0    0 -0.00000000000E+00 -0.00000000000E+00 -0.10000000000E+04  0.10000000000E+04  0.00000000000E+00 0.  1.
    9000005    2    1    2  501    0 -0.65931590589E-03 -0.22160248344E-03 -0.90006450231E+03  0.10999354743E+04  0.63225148413E+03 0.  0.
         13    1    3    3    0    0  0.20001205481E+03 -0.18254487883E+03 -0.73381281714E+03  0.78218201555E+03  0.00000000000E+00 0.  1.
          3    1    3    3  501    0 -0.20001271412E+03  0.18254465722E+03 -0.16625168517E+03  0.31775345870E+03  0.00000000000E+00 0.  1.
         21    1    1    2  502  501  0.65931590591E-03  0.22160248344E-03  0.10310074052E-01  0.10333510153E-01  0.00000000000E+00 0. -1.
<mgrwt>
<rscale>  1 0.63225148E+03</rscale>
<asrwt>0</asrwt>
<pdfrwt beam="1">  1        1 0.36344007E+00 0.63225148E+03</pdfrwt>
<pdfrwt beam="2">0</pdfrwt>
<totfact> 0.19466933E+00</totfact>
</mgrwt>
</event>
<event>
 6    1  0.7058193E-003  0.6492741E+03  0.7818608E-02  0.9808142E-01
          1   -1    0    0  502    0  0.00000000000E+00  0.00000000000E+00  0.11129861320E+03  0.11129861320E+03  0.00000000000E+00 0.  1.
         13   -1    0    0    0    0 -0.00000000000E+00 -0.00000000000E+00 -0.10000000000E+04  0.10000000000E+04  0.00000000000E+00 0.  1.
    9000005    2    1    2  501    0  0.17981367634E+01  0.17518266135E+01 -0.89431464536E+03  0.11051495593E+04  0.64926925179E+03 0.  0.
         13    1    3    3    0    0 -0.11624443725E+03 -0.98228021998E+02 -0.93329382205E+03  0.94562089221E+03  0.00000000000E+00 0.  1.
          1    1    3    3  501    0  0.11804257401E+03  0.99979848611E+02  0.38979176693E+02  0.15952866709E+03  0.00000000000E+00 0.  1.
         21    1    1    2  502  501 -0.17981367634E+01 -0.17518266135E+01  0.56132585594E+01  0.61490539075E+01  0.00000000000E+00 0. -1.
<mgrwt>
<rscale>  1 0.64927411E+03</rscale>
<asrwt>0</asrwt>
<pdfrwt beam="1">  1        1 0.40472308E+00 0.64927411E+03</pdfrwt>
<pdfrwt beam="2">0</pdfrwt>
<totfact> 0.12746649E+00</totfact>
</mgrwt>
</event>
<event>
 6    1  0.7058193E-003  0.6419749E+03  0.7818608E-02  0.9821955E-01
          1   -1    0    0  502    0  0.00000000000E+00  0.00000000000E+00  0.10304543172E+03  0.10304543172E+03  0.00000000000E+00 0.  1.
         13   -1    0    0    0    0 -0.00000000000E+00 -0.00000000000E+00 -0.10000000000E+04  0.10000000000E+04  0.00000000000E+00 0.  1.
    9000005    2    1    2  501    0 -0.28525911604E-01  0.13411308716E-02 -0.89694566140E+03  0.11030155175E+04  0.64197485276E+03 0.  0.
         13    1    3    3    0    0 -0.85297071576E+02 -0.25477483209E+03 -0.75025404684E+03  0.79691087349E+03  0.00000000000E+00 0.  1.
          1    1    3    3  501    0  0.85268545664E+02  0.25477617322E+03 -0.14669161456E+03  0.30610464404E+03  0.00000000000E+00 0.  1.
         21    1    1    2  502  501  0.28525911604E-01 -0.13411308716E-02 -0.89068783513E-02  0.29914189724E-01  0.00000000000E+00 0. -1.
<mgrwt>
<rscale>  1 0.64197485E+03</rscale>
<asrwt>0</asrwt>
<pdfrwt beam="1">  1        1 0.37471145E+00 0.64197485E+03</pdfrwt>
<pdfrwt beam="2">0</pdfrwt>
<totfact> 0.17339871E+00</totfact>
</mgrwt>
</event>
<event>
 6    1  0.8714398E-003  0.6494230E+03  0.7818608E-02  0.9807862E-01
          1   -1    0    0  502    0  0.00000000000E+00  0.00000000000E+00  0.10543757315E+03  0.10543757315E+03  0.00000000000E+00 0.  1.
         13   -1    0    0    0    0 -0.00000000000E+00 -0.00000000000E+00 -0.10000000000E+04  0.10000000000E+04  0.00000000000E+00 0.  1.
    9000005    2    1    2  501    0  0.91405945568E-06  0.41480362256E-07 -0.89456242731E+03  0.11054375721E+04  0.64942304357E+03 0.  0.
         13    1    3    3    0    0 -0.29733039898E+03 -0.48555450820E+02 -0.65348150711E+03  0.71958396181E+03  0.00000000000E+00 0.  1.
          1    1    3    3  501    0  0.29733039990E+03  0.48555450862E+02 -0.24108092020E+03  0.38585361032E+03  0.00000000000E+00 0.  1.
         21    1    1    2  502  501 -0.91405942333E-06 -0.41480362328E-07  0.45674237450E-06  0.10226626259E-05  0.00000000000E+00 0.  1.
<mgrwt>
<rscale>  1 0.64942304E+03</rscale>
<asrwt>0</asrwt>
<pdfrwt beam="1">  1        1 0.38341017E+00 0.64942304E+03</pdfrwt>
<pdfrwt beam="2">0</pdfrwt>
<totfact> 0.15852138E+00</totfact>
</mgrwt>
</event>
<event>
 6    1  0.8002957E-003  0.6437847E+03  0.7818608E-02  0.9818512E-01
          1   -1    0    0  502    0  0.00000000000E+00  0.00000000000E+00  0.10361469157E+03  0.10361469157E+03  0.00000000000E+00 0.  1.
         13   -1    0    0    0    0 -0.00000000000E+00 -0.00000000000E+00 -0.10000000000E+04  0.10000000000E+04  0.00000000000E+00 0.  1.
    9000005    2    1    2  501    0 -0.19413245695E-05  0.81295448240E-06 -0.89638530498E+03  0.11036146875E+04  0.64378471833E+03 0.  0.
         13    1    3    3    0    0  0.12235461550E+03  0.10705001585E+03 -0.92444966718E+03  0.93863600238E+03  0.00000000000E+00 0.  1.
          1    1    3    3  501    0 -0.12235461744E+03 -0.10705001504E+03  0.28064362193E+02  0.16497868515E+03  0.00000000000E+00 0.  1.
         21    1    1    2  502  501  0.19413245622E-05 -0.81295448340E-06 -0.34440541846E-05  0.40362290909E-05  0.00000000000E+00 0. -1.
<mgrwt>
<rscale>  1 0.64378472E+03</rscale>
<asrwt>0</asrwt>
<pdfrwt beam="1">  1        1 0.37678149E+00 0.64378472E+03</pdfrwt>
<pdfrwt beam="2">0</pdfrwt>
<totfact> 0.16974106E+00</totfact>
</mgrwt>
</event>
<event>
 6    1  0.7058193E-003  0.6540978E+03  0.7818608E-02  0.9799120E-01
          1   -1    0    0  502    0  0.00000000000E+00  0.00000000000E+00  0.10697074358E+03  0.10697074358E+03  0.00000000000E+00 0.  1.
         13   -1    0    0    0    0 -0.00000000000E+00 -0.00000000000E+00 -0.10000000000E+04  0.10000000000E+04  0.00000000000E+00 0.  1.
    9000005    2    1    2  501    0  0.15825658490E-01  0.21367916464E-01 -0.89296557326E+03  0.11069017321E+04  0.65409779757E+03 0.  0.
         13    1    3    3    0    0  0.20211615431E+03 -0.74888238103E+02 -0.30234208548E+02  0.21765407280E+03  0.00000000000E+00 0.  1.
          1    1    3    3  501    0 -0.20210032865E+03  0.74909606019E+02 -0.86273136472E+03  0.88924765931E+03  0.00000000000E+00 0.  1.
         21    1    1    2  502  501 -0.15825658490E-01 -0.21367916464E-01 -0.63683157653E-01  0.69011476504E-01  0.00000000000E+00 0. -1.
<mgrwt>
<rscale>  1 0.65409780E+03</rscale>
<asrwt>0</asrwt>
<pdfrwt beam="1">  1        1 0.38898534E+00 0.65409780E+03</pdfrwt>
<pdfrwt beam="2">0</pdfrwt>
<totfact> 0.14963627E+00</totfact>
</mgrwt>
</event>
<event>
 6    1  0.7058193E-003  0.6433686E+03  0.7818608E-02  0.9819303E-01
          1   -1    0    0  502    0  0.00000000000E+00  0.00000000000E+00  0.10348770597E+03  0.10348770597E+03  0.00000000000E+00 0.  1.
         13   -1    0    0    0    0 -0.00000000000E+00 -0.00000000000E+00 -0.10000000000E+04  0.10000000000E+04  0.00000000000E+00 0.  1.
    9000005    2    1    2  501    0  0.10372056623E-01  0.31520303738E-02 -0.89651418847E+03  0.11034767013E+04  0.64336858794E+03 0.  0.
         13    1    3    3    0    0  0.81816697096E+02  0.28694589029E+03 -0.65444091598E+03  0.71925296550E+03  0.00000000000E+00 0.  1.
          1    1    3    3  501    0 -0.81806325040E+02 -0.28694273826E+03 -0.24207327250E+03  0.38422373575E+03  0.00000000000E+00 0.  1.
         21    1    1    2  502  501 -0.10372056623E-01 -0.31520303738E-02  0.18944408016E-02  0.11004715354E-01  0.00000000000E+00 0. -1.
<mgrwt>
<rscale>  1 0.64336859E+03</rscale>
<asrwt>0</asrwt>
<pdfrwt beam="1">  1        1 0.37631972E+00 0.64336859E+03</pdfrwt>
<pdfrwt beam="2">0</pdfrwt>
<totfact> 0.17055092E+00</totfact>
</mgrwt>
</event>
<event>
 6    1  0.7058193E-003  0.6275037E+03  0.7818608E-02  0.9849932E-01
          1   -1    0    0  502    0  0.00000000000E+00  0.00000000000E+00  0.98461028444E+02  0.98461028444E+02  0.00000000000E+00 0.  1.
         13   -1    0    0    0    0 -0.00000000000E+00 -0.00000000000E+00 -0.10000000000E+04  0.10000000000E+04  0.00000000000E+00 0.  1.
    9000005    2    1    2  501    0 -0.29429712088E-01 -0.52218921182E-01 -0.90149326980E+03  0.10983856522E+04  0.62750372264E+03 0.  0.
         13    1    3    3    0    0  0.18193958635E+03 -0.13506738952E+03 -0.70881520366E+02  0.23742241411E+03  0.00000000000E+00 0.  1.
          1    1    3    3  501    0 -0.18196901606E+03  0.13501517060E+03 -0.83061174943E+03  0.86096323812E+03  0.00000000000E+00 0.  1.
         21    1    1    2  502  501  0.29429712088E-01  0.52218921182E-01 -0.45701760286E-01  0.75376220230E-01  0.00000000000E+00 0.  1.
<mgrwt>
<rscale>  1 0.62750373E+03</rscale>
<asrwt>0</asrwt>
<pdfrwt beam="1">  1        1 0.35804086E+00 0.62750373E+03</pdfrwt>
<pdfrwt beam="2">0</pdfrwt>
<totfact> 0.20572645E+00</totfact>
</mgrwt>
</event>
<event>
 6    1  0.7058193E-003  0.6528892E+03  0.7818608E-02  0.9801373E-01
          1   -1    0    0  502    0  0.00000000000E+00  0.00000000000E+00  0.10656636544E+03  0.10656636544E+03  0.00000000000E+00 0.  1.
         13   -1    0    0    0    0 -0.00000000000E+00 -0.00000000000E+00 -0.10000000000E+04  0.10000000000E+04  0.00000000000E+00 0.  1.
    9000005    2    1    2  501    0  0.28716438587E-03 -0.10574880093E-03 -0.89343382586E+03  0.11065660045E+04  0.65288921053E+03 0.  0.
         13    1    3    3    0    0 -0.15038314526E+03 -0.27741572469E+03 -0.58843414745E+03  0.66770451591E+03  0.00000000000E+00 0.  1.
          3    1    3    3  501    0  0.15038343242E+03  0.27741561894E+03 -0.30499967842E+03  0.43886148864E+03  0.00000000000E+00 0.  1.
         21    1    1    2  502  501 -0.28716438585E-03  0.10574880092E-03  0.19130941207E-03  0.36089539280E-03  0.00000000000E+00 0.  1.
<mgrwt>
<rscale>  1 0.65288921E+03</rscale>
<asrwt>0</asrwt>
<pdfrwt beam="1">  1        1 0.38751487E+00 0.65288921E+03</pdfrwt>
<pdfrwt beam="2">0</pdfrwt>
<totfact> 0.15193200E+00</totfact>
</mgrwt>
</event>
<event>
 6    1  0.7058193E-003  0.6448981E+03  0.7818608E-02  0.9816400E-01
          1   -1    0    0  502    0  0.00000000000E+00  0.00000000000E+00  0.10397339928E+03  0.10397339928E+03  0.00000000000E+00 0.  1.
         13   -1    0    0    0    0 -0.00000000000E+00 -0.00000000000E+00 -0.10000000000E+04  0.10000000000E+04  0.00000000000E+00 0.  1.
    9000005    2    1    2  501    0  0.98065363474E-05 -0.77560760587E-05 -0.89602661347E+03  0.11039733814E+04  0.64489808096E+03 0.  0.
         13    1    3    3    0    0 -0.25845171038E+02 -0.22921002910E+03 -0.83372543650E+03  0.86504526689E+03  0.00000000000E+00 0.  1.
          1    1    3    3  501    0  0.25845180845E+02  0.22921002135E+03 -0.62301176978E+02  0.23892811453E+03  0.00000000000E+00 0.  1.
         21    1    1    2  502  501 -0.98065363475E-05  0.77560760790E-05  0.12750084397E-04  0.17857478081E-04  0.00000000000E+00 0.  1.
<mgrwt>
<rscale>  1 0.64489808E+03</rscale>
<asrwt>0</asrwt>
<pdfrwt beam="1">  1        1 0.37808589E+00 0.64489808E+03</pdfrwt>
<pdfrwt beam="2">0</pdfrwt>
<totfact> 0.16747502E+00</totfact>
</mgrwt>
</event>
<event>
 6    1  0.7058193E-003  0.6515256E+03  0.7818608E-02  0.9803921E-01
          1   -1    0    0  502    0  0.00000000000E+00  0.00000000000E+00  0.10635868929E+03  0.10635868929E+03  0.00000000000E+00 0.  1.
         13   -1    0    0    0    0 -0.00000000000E+00 -0.00000000000E+00 -0.10000000000E+04  0.10000000000E+04  0.00000000000E+00 0.  1.
    9000005    2    1    2  501    0 -0.53101186933E+00 -0.42998802980E-01 -0.89180290497E+03  0.11044446469E+04  0.65152534333E+03 0.  0.
         13    1    3    3    0    0  0.21454545032E+03  0.23466949651E+03 -0.32700623418E+03  0.45610590879E+03  0.00000000000E+00 0.  1.
          1    1    3    3  501    0 -0.21507646218E+03 -0.23471249531E+03 -0.56479667079E+03  0.64833873814E+03  0.00000000000E+00 0.  1.
         21    1    1    2  502  501  0.53101186933E+00  0.42998802980E-01 -0.18384057382E+01  0.19140423612E+01  0.00000000000E+00 0.  1.
<mgrwt>
<rscale>  1 0.65152556E+03</rscale>
<asrwt>0</asrwt>
<pdfrwt beam="1">  1        1 0.38675969E+00 0.65152556E+03</pdfrwt>
<pdfrwt beam="2">0</pdfrwt>
<totfact> 0.15314501E+00</totfact>
</mgrwt>
</event>
<event>
 6    1  0.7058193E-003  0.6458889E+03  0.7818608E-02  0.9814524E-01
          1   -1    0    0  502    0  0.00000000000E+00  0.00000000000E+00  0.10429322384E+03  0.10429322384E+03  0.00000000000E+00 0.  1.
         13   -1    0    0    0    0 -0.00000000000E+00 -0.00000000000E+00 -0.10000000000E+04  0.10000000000E+04  0.00000000000E+00 0.  1.
    9000005    2    1    2  501    0  0.13483783917E-04  0.29344901407E-05 -0.89570689411E+03  0.11042931051E+04  0.64588886178E+03 0.  0.
         13    1    3    3    0    0  0.94168648476E+02 -0.18560022190E+03 -0.87004827001E+03  0.89459441585E+03  0.00000000000E+00 0.  1.
          1    1    3    3  501    0 -0.94168634992E+02  0.18560022484E+03 -0.25658624108E+02  0.20969868923E+03  0.00000000000E+00 0.  1.
         21    1    1    2  502  501 -0.13483783918E-04 -0.29344901335E-05  0.11795822972E-03  0.11876265247E-03  0.00000000000E+00 0. -1.
<mgrwt>
<rscale>  1 0.64588886E+03</rscale>
<asrwt>0</asrwt>
<pdfrwt beam="1">  1        1 0.37924889E+00 0.64588886E+03</pdfrwt>
<pdfrwt beam="2">0</pdfrwt>
<totfact> 0.16547901E+00</totfact>
</mgrwt>
</event>
<event>
 6    1  0.7058193E-003  0.6557551E+03  0.7818608E-02  0.9796040E-01
          1   -1    0    0  502    0  0.00000000000E+00  0.00000000000E+00  0.10774709900E+03  0.10774709900E+03  0.00000000000E+00 0.  1.
         13   -1    0    0    0    0 -0.00000000000E+00 -0.00000000000E+00 -0.10000000000E+04  0.10000000000E+04  0.00000000000E+00 0.  1.
    9000005    2    1    2  501    0 -0.17692005340E+00 -0.15240073954E+00 -0.89243267998E+03  0.11074524006E+04  0.65575504321E+03 0.  0.
         13    1    3    3    0    0 -0.22311327583E+03 -0.24035408584E+03 -0.43710078370E+03  0.54644918844E+03  0.00000000000E+00 0.  1.
          3    1    3    3  501    0  0.22293635578E+03  0.24020168510E+03 -0.45533189627E+03  0.56100321212E+03  0.00000000000E+00 0.  1.
         21    1    1    2  502  501  0.17692005340E+00  0.15240073954E+00  0.17977897608E+00  0.29469844069E+00  0.00000000000E+00 0.  1.
<mgrwt>
<rscale>  1 0.65575508E+03</rscale>
<asrwt>0</asrwt>
<pdfrwt beam="1">  1        1 0.39180846E+00 0.65575508E+03</pdfrwt>
<pdfrwt beam="2">0</pdfrwt>
<totfact> 0.14533856E+00</totfact>
</mgrwt>
</event>
<event>
 6    1  0.7058193E-003  0.6515303E+03  0.7818608E-02  0.9803912E-01
          1   -1    0    0  502    0  0.00000000000E+00  0.00000000000E+00  0.10617499807E+03  0.10617499807E+03  0.00000000000E+00 0.  1.
         13   -1    0    0    0    0 -0.00000000000E+00 -0.00000000000E+00 -0.10000000000E+04  0.10000000000E+04  0.00000000000E+00 0.  1.
    9000005    2    1    2  501    0 -0.15172102057E-02  0.16893650020E-02 -0.89387703577E+03  0.11061229147E+04  0.65153031194E+03 0.  0.
         13    1    3    3    0    0  0.26242698029E+03  0.30622918014E+02 -0.12340135579E+03  0.29160517434E+03  0.00000000000E+00 0.  1.
          3    1    3    3  501    0 -0.26242849750E+03 -0.30621228649E+02 -0.77047567997E+03  0.81451774037E+03  0.00000000000E+00 0.  1.
         21    1    1    2  502  501  0.15172102057E-02 -0.16893650020E-02  0.52033839876E-01  0.52083359849E-01  0.00000000000E+00 0.  1.
<mgrwt>
<rscale>  1 0.65153031E+03</rscale>
<asrwt>0</asrwt>
<pdfrwt beam="1">  1        1 0.38609172E+00 0.65153031E+03</pdfrwt>
<pdfrwt beam="2">0</pdfrwt>
<totfact> 0.15419107E+00</totfact>
</mgrwt>
</event>
<event>
 6    1  0.7058193E-003  0.6467684E+03  0.7818608E-02  0.9812862E-01
          1   -1    0    0  502    0  0.00000000000E+00  0.00000000000E+00  0.10458084357E+03  0.10458084357E+03  0.00000000000E+00 0.  1.
         13   -1    0    0    0    0 -0.00000000000E+00 -0.00000000000E+00 -0.10000000000E+04  0.10000000000E+04  0.00000000000E+00 0.  1.
    9000005    2    1    2  501    0  0.12269483138E-02  0.19767928215E-02 -0.89542222933E+03  0.11045769892E+04  0.64676839470E+03 0.  0.
         13    1    3    3    0    0  0.12649041592E+03  0.12376413802E+03 -0.90996706081E+03  0.92701533911E+03  0.00000000000E+00 0.  1.
          1    1    3    3  501    0 -0.12648918897E+03 -0.12376216122E+03  0.14544831480E+02  0.17756165014E+03  0.00000000000E+00 0.  1.
         21    1    1    2  502  501 -0.12269483138E-02 -0.19767928215E-02  0.30728998291E-02  0.38543255419E-02  0.00000000000E+00 0. -1.
<mgrwt>
<rscale>  1 0.64676839E+03</rscale>
<asrwt>0</asrwt>
<pdfrwt beam="1">  1        1 0.38029478E+00 0.64676839E+03</pdfrwt>
<pdfrwt beam="2">0</pdfrwt>
<totfact> 0.16370370E+00</totfact>
</mgrwt>
</event>
<event>
 6    1  0.7058193E-003  0.6573842E+03  0.7818608E-02  0.9793021E-01
          1   -1    0    0  502    0  0.00000000000E+00  0.00000000000E+00  0.10805168666E+03  0.10805168666E+03  0.00000000000E+00 0.  1.
         13   -1    0    0    0    0 -0.00000000000E+00 -0.00000000000E+00 -0.10000000000E+04  0.10000000000E+04  0.00000000000E+00 0.  1.
    9000005    2    1    2  501    0  0.23423873412E-01  0.43352973703E-02 -0.89194831867E+03  0.11080278650E+04  0.65738416913E+03 0.  0.
         13    1    3    3    0    0 -0.42440582395E+02 -0.29140919856E+03 -0.19988668260E+03  0.35591461043E+03  0.00000000000E+00 0.  1.
          3    1    3    3  501    0  0.42464006269E+02  0.29141353386E+03 -0.69206163607E+03  0.75211325454E+03  0.00000000000E+00 0.  1.
         21    1    1    2  502  501 -0.23423873412E-01 -0.43352973703E-02  0.53320006599E-05  0.23821685023E-01  0.00000000000E+00 0. -1.
<mgrwt>
<rscale>  1 0.65738417E+03</rscale>
<asrwt>0</asrwt>
<pdfrwt beam="1">  1        1 0.39291605E+00 0.65738417E+03</pdfrwt>
<pdfrwt beam="2">0</pdfrwt>
<totfact> 0.14365847E+00</totfact>
</mgrwt>
</event>
<event>
 6    1  0.7058193E-003  0.6444877E+03  0.7818608E-02  0.9817178E-01
          1   -1    0    0  502    0  0.00000000000E+00  0.00000000000E+00  0.10508325691E+03  0.10508325691E+03  0.00000000000E+00 0.  1.
         13   -1    0    0    0    0 -0.00000000000E+00 -0.00000000000E+00 -0.10000000000E+04  0.10000000000E+04  0.00000000000E+00 0.  1.
    9000005    2    1    2  501    0  0.92568083869E+00 -0.31877172434E+00 -0.89594239206E+03  0.11036653513E+04  0.64448698927E+03 0.  0.
         13    1    3    3    0    0 -0.18071783661E+03  0.24013364861E+03 -0.25014700419E+03  0.39101998590E+03  0.00000000000E+00 0.  1.
          1    1    3    3  501    0  0.18164351745E+03 -0.24045242034E+03 -0.64579538787E+03  0.71264536543E+03  0.00000000000E+00 0.  1.
         21    1    1    2  502  501 -0.92568083869E+00  0.31877172434E+00  0.10256489610E+01  0.14179055746E+01  0.00000000000E+00 0.  1.
<mgrwt>
<rscale>  1 0.64448773E+03</rscale>
<asrwt>0</asrwt>
<pdfrwt beam="1">  1        1 0.38212174E+00 0.64448773E+03</pdfrwt>
<pdfrwt beam="2">0</pdfrwt>
<totfact> 0.16075923E+00</totfact>
</mgrwt>
</event>
<event>
 6    1  0.7058193E-003  0.6489474E+03  0.7818608E-02  0.9808756E-01
          1   -1    0    0  502    0  0.00000000000E+00  0.00000000000E+00  0.10528319161E+03  0.10528319161E+03  0.00000000000E+00 0.  1.
         13   -1    0    0    0    0 -0.00000000000E+00 -0.00000000000E+00 -0.10000000000E+04  0.10000000000E+04  0.00000000000E+00 0.  1.
    9000005    2    1    2  501    0 -0.93691274117E-06 -0.44190211383E-05 -0.89471682350E+03  0.11052831758E+04  0.64894738194E+03 0.  0.
         13    1    3    3    0    0  0.71035188946E+02  0.31638621207E+03 -0.42742729933E+03  0.53650752974E+03  0.00000000000E+00 0.  1.
          3    1    3    3  501    0 -0.71035189883E+02 -0.31638621649E+03 -0.46728952417E+03  0.56877564609E+03  0.00000000000E+00 0.  1.
         21    1    1    2  502  501  0.93691274001E-06  0.44190211306E-05  0.15117479202E-04  0.15777950775E-04  0.00000000000E+00 0.  1.
<mgrwt>
<rscale>  1 0.64894738E+03</rscale>
<asrwt>0</asrwt>
<pdfrwt beam="1">  1        1 0.38284878E+00 0.64894738E+03</pdfrwt>
<pdfrwt beam="2">0</pdfrwt>
<totfact> 0.15944347E+00</totfact>
</mgrwt>
</event>
<event>
 6    1  0.7058193E-003  0.6539118E+03  0.7818608E-02  0.9799467E-01
          1   -1    0    0  502    0  0.00000000000E+00  0.00000000000E+00  0.10804933312E+03  0.10804933312E+03  0.00000000000E+00 0.  1.
         13   -1    0    0    0    0 -0.00000000000E+00 -0.00000000000E+00 -0.10000000000E+04  0.10000000000E+04  0.00000000000E+00 0.  1.
    9000005    2    1    2  501    0  0.37389039509E+00 -0.28168580977E+00 -0.89304683971E+03  0.11068573869E+04  0.65391161320E+03 0.  0.
         13    1    3    3    0    0  0.17570044617E+03  0.25619612445E+03 -0.27400276388E+03  0.41422773396E+03  0.00000000000E+00 0.  1.
          3    1    3    3  501    0 -0.17532655577E+03 -0.25647781026E+03 -0.61904407583E+03  0.69262965294E+03  0.00000000000E+00 0.  1.
         21    1    1    2  502  501 -0.37389039509E+00  0.28168580977E+00  0.10961728324E+01  0.11919462242E+01  0.00000000000E+00 0.  1.
<mgrwt>
<rscale>  1 0.65391178E+03</rscale>
<asrwt>0</asrwt>
<pdfrwt beam="1">  1        1 0.39290749E+00 0.65391178E+03</pdfrwt>
<pdfrwt beam="2">0</pdfrwt>
<totfact> 0.14376400E+00</totfact>
</mgrwt>
</event>
<event>
 6    1  0.7058193E-003  0.6652372E+03  0.7818608E-02  0.9778600E-01
          1   -1    0    0  502    0  0.00000000000E+00  0.00000000000E+00  0.11063519668E+03  0.11063519668E+03  0.00000000000E+00 0.  1.
         13   -1    0    0    0    0 -0.00000000000E+00 -0.00000000000E+00 -0.10000000000E+04  0.10000000000E+04  0.00000000000E+00 0.  1.
    9000005    2    1    2  501    0 -0.37316818577E-05  0.50641438065E-05 -0.88936485271E+03  0.11106351469E+04  0.66523724210E+03 0.  0.
         13    1    3    3    0    0  0.20906022512E+03 -0.30029032837E+02 -0.87368152639E+03  0.89884777916E+03  0.00000000000E+00 0.  1.
          1    1    3    3  501    0 -0.20906022886E+03  0.30029037901E+02 -0.15683326320E+02  0.21178736773E+03  0.00000000000E+00 0.  1.
         21    1    1    2  502  501  0.37316818483E-05 -0.50641438082E-05  0.49393583792E-04  0.49792540824E-04  0.00000000000E+00 0. -1.
<mgrwt>
<rscale>  1 0.66523724E+03</rscale>
<asrwt>0</asrwt>
<pdfrwt beam="1">  1        1 0.40231065E+00 0.66523724E+03</pdfrwt>
<pdfrwt beam="2">0</pdfrwt>
<totfact> 0.13027375E+00</totfact>
</mgrwt>
</event>
<event>
 6    1  0.7058193E-003  0.6568003E+03  0.7818608E-02  0.9794102E-01
          3   -1    0    0  502    0  0.00000000000E+00  0.00000000000E+00  0.10789134957E+03  0.10789134957E+03  0.00000000000E+00 0.  1.
         13   -1    0    0    0    0 -0.00000000000E+00 -0.00000000000E+00 -0.10000000000E+04  0.10000000000E+04  0.00000000000E+00 0.  1.
    9000005    2    1    2  501    0  0.13477491107E-02  0.11868602364E-01 -0.89215243992E+03  0.11078459601E+04  0.65680034655E+03 0.  0.
         13    1    3    3    0    0 -0.22647339023E+03 -0.16863914951E+03 -0.72889469970E+03  0.78167566322E+03  0.00000000000E+00 0.  1.
          1    1    3    3  501    0  0.22647473798E+03  0.16865101811E+03 -0.16325774022E+03  0.32617029693E+03  0.00000000000E+00 0.  1.
         21    1    1    2  502  501 -0.13477491108E-02 -0.11868602364E-01  0.43789485411E-01  0.45389417074E-01  0.00000000000E+00 0.  1.
<mgrwt>
<rscale>  1 0.65680035E+03</rscale>
<asrwt>0</asrwt>
<pdfrwt beam="1">  1        3 0.39233301E+00 0.65680035E+03</pdfrwt>
<pdfrwt beam="2">0</pdfrwt>
<totfact> 0.64914733E-02</totfact>
</mgrwt>
</event>
<event>
 6    1  0.7058193E-003  0.5702506E+03  0.7818608E-02  0.9969124E-01
          1   -1    0    0  502    0  0.00000000000E+00  0.00000000000E+00  0.81527085307E+02  0.81527085307E+02  0.00000000000E+00 0.  1.
         13   -1    0    0    0    0 -0.00000000000E+00 -0.00000000000E+00 -0.10000000000E+04  0.10000000000E+04  0.00000000000E+00 0.  1.
    9000005    2    1    2  501    0  0.33362283143E-02  0.14689923725E-02 -0.91870354288E+03  0.10812964283E+04  0.57025061700E+03 0.  0.
         13    1    3    3    0    0  0.16405782050E+03 -0.13392519512E+03 -0.82134823572E+03  0.84821214957E+03  0.00000000000E+00 0.  1.
          3    1    3    3  501    0 -0.16405448427E+03  0.13392666411E+03 -0.97355307154E+02  0.23308427875E+03  0.00000000000E+00 0.  1.
         21    1    1    2  502  501 -0.33362283143E-02 -0.14689923725E-02  0.23062818265E+00  0.23065698990E+00  0.00000000000E+00 0.  1.
<mgrwt>
<rscale>  1 0.57025062E+03</rscale>
<asrwt>0</asrwt>
<pdfrwt beam="1">  1        1 0.29646275E+00 0.57025062E+03</pdfrwt>
<pdfrwt beam="2">0</pdfrwt>
<totfact> 0.38419467E+00</totfact>
</mgrwt>
</event>
<event>
 6    1  0.7058193E-003  0.6502437E+03  0.7818608E-02  0.9806322E-01
          1   -1    0    0  502    0  0.00000000000E+00  0.00000000000E+00  0.10570474144E+03  0.10570474144E+03  0.00000000000E+00 0.  1.
         13   -1    0    0    0    0 -0.00000000000E+00 -0.00000000000E+00 -0.10000000000E+04  0.10000000000E+04  0.00000000000E+00 0.  1.
    9000005    2    1    2  501    0 -0.34538909688E-05  0.11433924215E-04 -0.89429577221E+03  0.11057042276E+04  0.65024373187E+03 0.  0.
         13    1    3    3    0    0  0.20289111060E+03  0.23414418959E+03 -0.61475980281E+03  0.68841696626E+03  0.00000000000E+00 0.  1.
          1    1    3    3  501    0 -0.20289111406E+03 -0.23414417816E+03 -0.27953596941E+03  0.41728726139E+03  0.00000000000E+00 0.  1.
         21    1    1    2  502  501  0.34538909501E-05 -0.11433924202E-04  0.51365865823E-03  0.51379750988E-03  0.00000000000E+00 0.  1.
<mgrwt>
<rscale>  1 0.65024373E+03</rscale>
<asrwt>0</asrwt>
<pdfrwt beam="1">  1        1 0.38438169E+00 0.65024373E+03</pdfrwt>
<pdfrwt beam="2">0</pdfrwt>
<totfact> 0.15693767E+00</totfact>
</mgrwt>
</event>
<event>
 6    1  0.7058193E-003  0.6320640E+03  0.7818608E-02  0.9841029E-01
          1   -1    0    0  502    0  0.00000000000E+00  0.00000000000E+00  0.11554736025E+03  0.11554736025E+03  0.00000000000E+00 0.  1.
         13   -1    0    0    0    0 -0.00000000000E+00 -0.00000000000E+00 -0.10000000000E+04  0.10000000000E+04  0.00000000000E+00 0.  1.
    9000005    2    1    2  501    0  0.13837647308E+01 -0.40158388529E+02 -0.86384413247E+03  0.10703885123E+04  0.63078543985E+03 0.  0.
         13    1    3    3    0    0 -0.54783276854E+02  0.77471651960E+02 -0.92255752323E+03  0.92742409282E+03  0.00000000000E+00 0.  1.
          1    1    3    3  501    0  0.56167041585E+02 -0.11763004049E+03  0.58713390765E+02  0.14296441949E+03  0.00000000000E+00 0.  1.
         21    1    1    2  502  501 -0.13837647308E+01  0.40158388529E+02 -0.20608507283E+02  0.45158847932E+02  0.00000000000E+00 0.  1.
<mgrwt>
<rscale>  1 0.63206399E+03</rscale>
<asrwt>0</asrwt>
<pdfrwt beam="1">  1        1 0.42017311E+00 0.63206399E+03</pdfrwt>
<pdfrwt beam="2">0</pdfrwt>
<totfact> 0.10902715E+00</totfact>
</mgrwt>
</event>
<event>
 6    1  0.7058193E-003  0.6426379E+03  0.7818608E-02  0.9820693E-01
          1   -1    0    0  502    0  0.00000000000E+00  0.00000000000E+00  0.10478749467E+03  0.10478749467E+03  0.00000000000E+00 0.  1.
         13   -1    0    0    0    0 -0.00000000000E+00 -0.00000000000E+00 -0.10000000000E+04  0.10000000000E+04  0.00000000000E+00 0.  1.
    9000005    2    1    2  501    0 -0.36900486201E-01  0.34451162544E+00 -0.89673263522E+03  0.11032283780E+04  0.64263777892E+03 0.  0.
         13    1    3    3    0    0 -0.29085613081E+03  0.75679073251E+02 -0.25302654431E+03  0.39287026241E+03  0.00000000000E+00 0.  1.
          1    1    3    3  501    0  0.29081923033E+03 -0.75334561625E+02 -0.64370609092E+03  0.71035811559E+03  0.00000000000E+00 0.  1.
         21    1    1    2  502  501  0.36900486201E-01 -0.34451162544E+00  0.15201298975E+01  0.15591166766E+01  0.00000000000E+00 0. -1.
<mgrwt>
<rscale>  1 0.64263787E+03</rscale>
<asrwt>0</asrwt>
<pdfrwt beam="1">  1        1 0.38104624E+00 0.64263787E+03</pdfrwt>
<pdfrwt beam="2">0</pdfrwt>
<totfact> 0.16258218E+00</totfact>
</mgrwt>
</event>
<event>
 6    1  0.7058193E-003  0.6417279E+03  0.7818608E-02  0.9822426E-01
          1   -1    0    0  502    0  0.00000000000E+00  0.00000000000E+00  0.10472680600E+03  0.10472680600E+03  0.00000000000E+00 0.  1.
         13   -1    0    0    0    0 -0.00000000000E+00 -0.00000000000E+00 -0.10000000000E+04  0.10000000000E+04  0.00000000000E+00 0.  1.
    9000005    2    1    2  501    0  0.27166894757E+00 -0.16124964412E+01 -0.89662097654E+03  0.11026077339E+04  0.64172577114E+03 0.  0.
         13    1    3    3    0    0  0.11415076086E+03  0.17346930600E+02  0.66063853837E+02  0.13302535469E+03  0.00000000000E+00 0.  1.
          3    1    3    3  501    0 -0.11387909191E+03 -0.18959427041E+02 -0.96268483037E+03  0.96958237921E+03  0.00000000000E+00 0.  1.
         21    1    1    2  502  501 -0.27166894757E+00  0.16124964412E+01  0.13477825392E+01  0.21190720995E+01  0.00000000000E+00 0. -1.
<mgrwt>
<rscale>  1 0.64172785E+03</rscale>
<asrwt>0</asrwt>
<pdfrwt beam="1">  1        1 0.38082555E+00 0.64172785E+03</pdfrwt>
<pdfrwt beam="2">0</pdfrwt>
<totfact> 0.16297468E+00</totfact>
</mgrwt>
</event>
<event>
 6    1  0.7058193E-003  0.6499517E+03  0.7818608E-02  0.9806870E-01
          1   -1    0    0  502    0  0.00000000000E+00  0.00000000000E+00  0.10560932228E+03  0.10560932228E+03  0.00000000000E+00 0.  1.
         13   -1    0    0    0    0 -0.00000000000E+00 -0.00000000000E+00 -0.10000000000E+04  0.10000000000E+04  0.00000000000E+00 0.  1.
    9000005    2    1    2  501    0 -0.51896257673E-05  0.10450181946E-04 -0.89439069098E+03  0.11056093046E+04  0.64995171079E+03 0.  0.
         13    1    3    3    0    0 -0.31839831630E+02  0.14679976407E+03  0.43010271891E+02  0.15624925311E+03  0.00000000000E+00 0.  1.
          1    1    3    3  501    0  0.31839826440E+02 -0.14679975362E+03 -0.93740096287E+03  0.94936005151E+03  0.00000000000E+00 0.  1.
         21    1    1    2  502  501  0.51896257677E-05 -0.10450181946E-04  0.13257288246E-04  0.17660526887E-04  0.00000000000E+00 0. -1.
<mgrwt>
<rscale>  1 0.64995171E+03</rscale>
<asrwt>0</asrwt>
<pdfrwt beam="1">  1        1 0.38403471E+00 0.64995171E+03</pdfrwt>
<pdfrwt beam="2">0</pdfrwt>
<totfact> 0.15750153E+00</totfact>
</mgrwt>
</event>
<event>
 6    1  0.7058193E-003  0.6609608E+03  0.7818608E-02  0.9786427E-01
          1   -1    0    0  502    0  0.00000000000E+00  0.00000000000E+00  0.11441160680E+03  0.11441160680E+03  0.00000000000E+00 0.  1.
         13   -1    0    0    0    0 -0.00000000000E+00 -0.00000000000E+00 -0.10000000000E+04  0.10000000000E+04  0.00000000000E+00 0.  1.
    9000005    2    1    2  501    0 -0.51933231475E+01 -0.11947881556E+02 -0.87910069239E+03  0.10998578190E+04  0.66083240847E+03 0.  0.
         13    1    3    3    0    0  0.67831810257E+02  0.14937296180E+03 -0.90601232686E+03  0.92074522677E+03  0.00000000000E+00 0.  1.
          1    1    3    3  501    0 -0.73025133405E+02 -0.16132084335E+03  0.26911634472E+02  0.17911259218E+03  0.00000000000E+00 0.  1.
         21    1    1    2  502  501  0.51933231475E+01  0.11947881556E+02 -0.64877008033E+01  0.14553787847E+02  0.00000000000E+00 0.  1.
<mgrwt>
<rscale>  1 0.66096081E+03</rscale>
<asrwt>0</asrwt>
<pdfrwt beam="1">  1        1 0.41604308E+00 0.66096081E+03</pdfrwt>
<pdfrwt beam="2">0</pdfrwt>
<totfact> 0.11314951E+00</totfact>
</mgrwt>
</event>
<event>
 6    1  0.7058193E-003  0.6518858E+03  0.7818608E-02  0.9803247E-01
          1   -1    0    0  502    0  0.00000000000E+00  0.00000000000E+00  0.10623889490E+03  0.10623889490E+03  0.00000000000E+00 0.  1.
         13   -1    0    0    0    0 -0.00000000000E+00 -0.00000000000E+00 -0.10000000000E+04  0.10000000000E+04  0.00000000000E+00 0.  1.
    9000005    2    1    2  501    0  0.91268903333E-05  0.10720564447E-04 -0.89376121006E+03  0.11062387890E+04  0.65188584713E+03 0.  0.
         13    1    3    3    0    0 -0.50806409685E+02  0.10465984925E+03  0.69804725961E+02  0.13567488742E+03  0.00000000000E+00 0.  1.
          3    1    3    3  501    0  0.50806418812E+02 -0.10465983853E+03 -0.96356593602E+03  0.97056390158E+03  0.00000000000E+00 0.  1.
         21    1    1    2  502  501 -0.91268903317E-05 -0.10720564444E-04  0.10496213966E-03  0.10590222562E-03  0.00000000000E+00 0. -1.
<mgrwt>
<rscale>  1 0.65188585E+03</rscale>
<asrwt>0</asrwt>
<pdfrwt beam="1">  1        1 0.38632407E+00 0.65188585E+03</pdfrwt>
<pdfrwt beam="2">0</pdfrwt>
<totfact> 0.15381627E+00</totfact>
</mgrwt>
</event>
<event>
 6    1  0.7058193E-003  0.6277141E+03  0.7818608E-02  0.9849520E-01
          1   -1    0    0  502    0  0.00000000000E+00  0.00000000000E+00  0.98725780564E+02  0.98725780564E+02  0.00000000000E+00 0.  1.
         13   -1    0    0    0    0 -0.00000000000E+00 -0.00000000000E+00 -0.10000000000E+04  0.10000000000E+04  0.00000000000E+00 0.  1.
    9000005    2    1    2  501    0  0.18226258997E-01  0.41572296278E-01 -0.90149117491E+03  0.10985041274E+04  0.62771408887E+03 0.  0.
         13    1    3    3    0    0 -0.22342894636E+03  0.16290610073E+03 -0.71061486972E+03  0.76251713737E+03  0.00000000000E+00 0.  1.
          3    1    3    3  501    0  0.22344717262E+03 -0.16286452843E+03 -0.19087630520E+03  0.33598699001E+03  0.00000000000E+00 0.  1.
         21    1    1    2  502  501 -0.18226258997E-01 -0.41572296278E-01  0.21695547811E+00  0.22165317913E+00  0.00000000000E+00 0.  1.
<mgrwt>
<rscale>  1 0.62771409E+03</rscale>
<asrwt>0</asrwt>
<pdfrwt beam="1">  1        1 0.35900360E+00 0.62771409E+03</pdfrwt>
<pdfrwt beam="2">0</pdfrwt>
<totfact> 0.20373501E+00</totfact>
</mgrwt>
</event>
<event>
 6    1  0.7058193E-003  0.6239792E+03  0.7818608E-02  0.9856869E-01
          1   -1    0    0  502    0  0.00000000000E+00  0.00000000000E+00  0.97337524139E+02  0.97337524139E+02  0.00000000000E+00 0.  1.
         13   -1    0    0    0    0 -0.00000000000E+00 -0.00000000000E+00 -0.10000000000E+04  0.10000000000E+04  0.00000000000E+00 0.  1.
    9000005    2    1    2  501    0  0.51658187772E-05  0.95865733485E-06 -0.90266249247E+03  0.10973375067E+04  0.62397918904E+03 0.  0.
         13    1    3    3    0    0 -0.29453552286E+03 -0.17525036673E+02 -0.62963063764E+03  0.69533663861E+03  0.00000000000E+00 0.  1.
          1    1    3    3  501    0  0.29453552803E+03  0.17525037631E+02 -0.27303185483E+03  0.40200086812E+03  0.00000000000E+00 0.  1.
         21    1    1    2  502  501 -0.51658187480E-05 -0.95865733264E-06  0.16605724702E-04  0.17417083571E-04  0.00000000000E+00 0.  1.
<mgrwt>
<rscale>  1 0.62397919E+03</rscale>
<asrwt>0</asrwt>
<pdfrwt beam="1">  1        1 0.35395538E+00 0.62397919E+03</pdfrwt>
<pdfrwt beam="2">0</pdfrwt>
<totfact> 0.21448942E+00</totfact>
</mgrwt>
</event>
<event>
 6    1  0.7058193E-003  0.6398031E+03  0.7818608E-02  0.9826103E-01
          1   -1    0    0  502    0  0.00000000000E+00  0.00000000000E+00  0.10267139716E+03  0.10267139716E+03  0.00000000000E+00 0.  1.
         13   -1    0    0    0    0 -0.00000000000E+00 -0.00000000000E+00 -0.10000000000E+04  0.10000000000E+04  0.00000000000E+00 0.  1.
    9000005    2    1    2  501    0 -0.41643076094E-01 -0.32539127785E-01 -0.89766069323E+03  0.11023351280E+04  0.63980310361E+03 0.  0.
         13    1    3    3    0    0 -0.17043277346E+03  0.22183072203E+03 -0.71619331696E+03  0.76888820173E+03  0.00000000000E+00 0.  1.
          3    1    3    3  501    0  0.17039113038E+03 -0.22186326116E+03 -0.18146737627E+03  0.33344692624E+03  0.00000000000E+00 0.  1.
         21    1    1    2  502  501  0.41643076094E-01  0.32539127785E-01  0.33209039385E+00  0.33626919323E+00  0.00000000000E+00 0.  1.
<mgrwt>
<rscale>  1 0.63980311E+03</rscale>
<asrwt>0</asrwt>
<pdfrwt beam="1">  1        1 0.37335132E+00 0.63980311E+03</pdfrwt>
<pdfrwt beam="2">0</pdfrwt>
<totfact> 0.17587441E+00</totfact>
</mgrwt>
</event>
<event>
 6    1  0.7058193E-003  0.6464297E+03  0.7818608E-02  0.9813502E-01
          1   -1    0    0  502    0  0.00000000000E+00  0.00000000000E+00  0.10456250373E+03  0.10456250373E+03  0.00000000000E+00 0.  1.
         13   -1    0    0    0    0 -0.00000000000E+00 -0.00000000000E+00 -0.10000000000E+04  0.10000000000E+04  0.00000000000E+00 0.  1.
    9000005    2    1    2  501    0 -0.23758423338E-01 -0.29310473894E-01 -0.89552800381E+03  0.11044644467E+04  0.64642966130E+03 0.  0.
         13    1    3    3    0    0 -0.21157196438E+03  0.45569956990E+02 -0.85794112759E+03  0.88481766230E+03  0.00000000000E+00 0.  1.
          1    1    3    3  501    0  0.21154820596E+03 -0.45599267464E+02 -0.37586876211E+02  0.21964678441E+03  0.00000000000E+00 0.  1.
         21    1    1    2  502  501  0.23758423338E-01  0.29310473894E-01  0.90507537138E-01  0.98057028500E-01  0.00000000000E+00 0. -1.
<mgrwt>
<rscale>  1 0.64642966E+03</rscale>
<asrwt>0</asrwt>
<pdfrwt beam="1">  1        1 0.38022809E+00 0.64642966E+03</pdfrwt>
<pdfrwt beam="2">0</pdfrwt>
<totfact> 0.16382487E+00</totfact>
</mgrwt>
</event>
<event>
 6    1  0.7058193E-003  0.6372515E+03  0.7818608E-02  0.9830999E-01
          1   -1    0    0  502    0  0.00000000000E+00  0.00000000000E+00  0.10152238809E+03  0.10152238809E+03  0.00000000000E+00 0.  1.
         13   -1    0    0    0    0 -0.00000000000E+00 -0.00000000000E+00 -0.10000000000E+04  0.10000000000E+04  0.00000000000E+00 0.  1.
    9000005    2    1    2  501    0 -0.18116037381E-05 -0.60453372441E-06 -0.89847761595E+03  0.11015223836E+04  0.63725154787E+03 0.  0.
         13    1    3    3    0    0 -0.29506921078E+03 -0.11780087598E+03 -0.49084986468E+03  0.58470203967E+03  0.00000000000E+00 0.  1.
          1    1    3    3  501    0  0.29506920897E+03  0.11780087537E+03 -0.40762775127E+03  0.51682034395E+03  0.00000000000E+00 0.  1.
         21    1    1    2  502  501  0.18116037457E-05  0.60453372447E-06  0.40410833483E-05  0.44696447044E-05  0.00000000000E+00 0.  1.
<mgrwt>
<rscale>  1 0.63725155E+03</rscale>
<asrwt>0</asrwt>
<pdfrwt beam="1">  1        1 0.36917310E+00 0.63725155E+03</pdfrwt>
<pdfrwt beam="2">0</pdfrwt>
<totfact> 0.18355449E+00</totfact>
</mgrwt>
</event>
<event>
 6    1  0.7058193E-003  0.6527518E+03  0.7818608E-02  0.9801629E-01
          1   -1    0    0  502    0  0.00000000000E+00  0.00000000000E+00  0.10652142098E+03  0.10652142098E+03  0.00000000000E+00 0.  1.
         13   -1    0    0    0    0 -0.00000000000E+00 -0.00000000000E+00 -0.10000000000E+04  0.10000000000E+04  0.00000000000E+00 0.  1.
    9000005    2    1    2  501    0  0.29111471235E-04  0.31354671819E-04 -0.89347878386E+03  0.11065212117E+04  0.65275175587E+03 0.  0.
         13    1    3    3    0    0  0.14679119330E+03  0.15114917798E+03 -0.24213239920E+02  0.21208491087E+03  0.00000000000E+00 0.  1.
          3    1    3    3  501    0 -0.14679116419E+03 -0.15114914662E+03 -0.86926554394E+03  0.89443630085E+03  0.00000000000E+00 0.  1.
         21    1    1    2  502  501 -0.29111471223E-04 -0.31354671830E-04  0.20483865002E-03  0.20925932654E-03  0.00000000000E+00 0.  1.
<mgrwt>
<rscale>  1 0.65275176E+03</rscale>
<asrwt>0</asrwt>
<pdfrwt beam="1">  1        1 0.38735144E+00 0.65275176E+03</pdfrwt>
<pdfrwt beam="2">0</pdfrwt>
<totfact> 0.15218930E+00</totfact>
</mgrwt>
</event>
<event>
 6    1  0.7058193E-003  0.6501561E+03  0.7818608E-02  0.9806486E-01
          1   -1    0    0  502    0  0.00000000000E+00  0.00000000000E+00  0.10567723551E+03  0.10567723551E+03  0.00000000000E+00 0.  1.
         13   -1    0    0    0    0 -0.00000000000E+00 -0.00000000000E+00 -0.10000000000E+04  0.10000000000E+04  0.00000000000E+00 0.  1.
    9000005    2    1    2  501    0  0.74855571008E-03  0.26504584134E-02 -0.89432273841E+03  0.11056744813E+04  0.65015605670E+03 0.  0.
         13    1    3    3    0    0 -0.64815416221E+02 -0.30512361647E+03 -0.29154120984E+03  0.42696339017E+03  0.00000000000E+00 0.  1.
          1    1    3    3  501    0  0.64816164776E+02  0.30512626693E+03 -0.60278152856E+03  0.67871109109E+03  0.00000000000E+00 0.  1.
         21    1    1    2  502  501 -0.74855571008E-03 -0.26504584134E-02 -0.26082614628E-04  0.27542595657E-02  0.00000000000E+00 0.  1.
<mgrwt>
<rscale>  1 0.65015606E+03</rscale>
<asrwt>0</asrwt>
<pdfrwt beam="1">  1        1 0.38428167E+00 0.65015606E+03</pdfrwt>
<pdfrwt beam="2">0</pdfrwt>
<totfact> 0.15710011E+00</totfact>
</mgrwt>
</event>
<event>
 6    1  0.7058193E-003  0.6506869E+03  0.7818608E-02  0.9805491E-01
          1   -1    0    0  502    0  0.00000000000E+00  0.00000000000E+00  0.10611083016E+03  0.10611083016E+03  0.00000000000E+00 0.  1.
         13   -1    0    0    0    0 -0.00000000000E+00 -0.00000000000E+00 -0.10000000000E+04  0.10000000000E+04  0.00000000000E+00 0.  1.
    9000005    2    1    2  501    0  0.57882802901E-02  0.74124723055E-02 -0.89415153188E+03  0.11058482996E+04  0.65068694448E+03 0.  0.
         13    1    3    3    0    0 -0.14390471676E+03 -0.28752223442E+03 -0.53149607448E+03  0.62118087541E+03  0.00000000000E+00 0.  1.
          3    1    3    3  501    0  0.14391050504E+03  0.28752964689E+03 -0.36265545740E+03  0.48466742421E+03  0.00000000000E+00 0.  1.
         21    1    1    2  502  501 -0.57882802900E-02 -0.74124723055E-02  0.26236203908E+00  0.26253054771E+00  0.00000000000E+00 0. -1.
<mgrwt>
<rscale>  1 0.65068694E+03</rscale>
<asrwt>0</asrwt>
<pdfrwt beam="1">  1        1 0.38585838E+00 0.65068694E+03</pdfrwt>
<pdfrwt beam="2">0</pdfrwt>
<totfact> 0.15458222E+00</totfact>
</mgrwt>
</event>
<event>
 6    1  0.7058193E-003  0.6619092E+03  0.7818608E-02  0.9784685E-01
          1   -1    0    0  502    0  0.00000000000E+00  0.00000000000E+00  0.11414449924E+03  0.11414449924E+03  0.00000000000E+00 0.  1.
         13   -1    0    0    0    0 -0.00000000000E+00 -0.00000000000E+00 -0.10000000000E+04  0.10000000000E+04  0.00000000000E+00 0.  1.
    9000005    2    1    2  501    0  0.10439389578E+02  0.10660265400E+01 -0.88246327466E+03  0.11031161510E+04  0.66182603014E+03 0.  0.
         13    1    3    3    0    0 -0.20620941011E+03  0.12052677442E+03 -0.81123346224E+03  0.84566468203E+03  0.00000000000E+00 0.  1.
          1    1    3    3  501    0  0.21664879968E+03 -0.11946074788E+03 -0.71229812412E+02  0.25745146895E+03  0.00000000000E+00 0.  1.
         21    1    1    2  502  501 -0.10439389578E+02 -0.10660265400E+01 -0.33922261034E+01  0.11028348257E+02  0.00000000000E+00 0.  1.
<mgrwt>
<rscale>  1 0.66190922E+03</rscale>
<asrwt>0</asrwt>
<pdfrwt beam="1">  1        1 0.41507178E+00 0.66190922E+03</pdfrwt>
<pdfrwt beam="2">0</pdfrwt>
<totfact> 0.11427295E+00</totfact>
</mgrwt>
</event>
<event>
 6    1  0.7058193E-003  0.6118071E+03  0.7818608E-02  0.9881208E-01
          1   -1    0    0  502    0  0.00000000000E+00  0.00000000000E+00  0.98845413609E+02  0.98845413609E+02  0.00000000000E+00 0.  1.
         13   -1    0    0    0    0 -0.00000000000E+00 -0.00000000000E+00 -0.10000000000E+04  0.10000000000E+04  0.00000000000E+00 0.  1.
    9000005    2    1    2  501    0  0.74617183109E+00 -0.72526485710E+00 -0.90636676886E+03  0.10935303757E+04  0.61180624398E+03 0.  0.
         13    1    3    3    0    0  0.66274774979E+02  0.22352865634E+03 -0.80636928803E+03  0.83939790009E+03  0.00000000000E+00 0.  1.
          1    1    3    3  501    0 -0.65528603148E+02 -0.22425392120E+03 -0.99997480834E+02  0.25413247564E+03  0.00000000000E+00 0.  1.
         21    1    1    2  502  501 -0.74617183109E+00  0.72526485710E+00  0.52121824687E+01  0.53150378740E+01  0.00000000000E+00 0.  1.
<mgrwt>
<rscale>  1 0.61180713E+03</rscale>
<asrwt>0</asrwt>
<pdfrwt beam="1">  1        1 0.35943863E+00 0.61180713E+03</pdfrwt>
<pdfrwt beam="2">0</pdfrwt>
<totfact> 0.20343509E+00</totfact>
</mgrwt>
</event>
<event>
 6    1  0.7058193E-003  0.6343554E+03  0.7818608E-02  0.9836586E-01
          1   -1    0    0  502    0  0.00000000000E+00  0.00000000000E+00  0.10086670441E+03  0.10086670441E+03  0.00000000000E+00 0.  1.
         13   -1    0    0    0    0 -0.00000000000E+00 -0.00000000000E+00 -0.10000000000E+04  0.10000000000E+04  0.00000000000E+00 0.  1.
    9000005    2    1    2  501    0 -0.22863447347E-01 -0.86416100676E-01 -0.89938999538E+03  0.11005948860E+04  0.63435536668E+03 0.  0.
         13    1    3    3    0    0 -0.41863009186E+02 -0.29974461293E+03 -0.61461660058E+03  0.68509335877E+03  0.00000000000E+00 0.  1.
          3    1    3    3  501    0  0.41840145739E+02  0.29965819683E+03 -0.28477339480E+03  0.41550152720E+03  0.00000000000E+00 0.  1.
         21    1    1    2  502  501  0.22863447347E-01  0.86416100676E-01  0.25669979126E+00  0.27181843667E+00  0.00000000000E+00 0. -1.
<mgrwt>
<rscale>  1 0.63435537E+03</rscale>
<asrwt>0</asrwt>
<pdfrwt beam="1">  1        1 0.36678879E+00 0.63435537E+03</pdfrwt>
<pdfrwt beam="2">0</pdfrwt>
<totfact> 0.18812907E+00</totfact>
</mgrwt>
</event>
<event>
 6    1  0.7058193E-003  0.6474598E+03  0.7818608E-02  0.9811557E-01
          1   -1    0    0  502    0  0.00000000000E+00  0.00000000000E+00  0.10487174554E+03  0.10487174554E+03  0.00000000000E+00 0.  1.
         13   -1    0    0    0    0 -0.00000000000E+00 -0.00000000000E+00 -0.10000000000E+04  0.10000000000E+04  0.00000000000E+00 0.  1.
    9000005    2    1    2  501    0  0.24506834355E-01  0.59688184157E-02 -0.89519645262E+03  0.11047990324E+04  0.64745981542E+03 0.  0.
         13    1    3    3    0    0  0.45449925030E+02 -0.15863485551E+03 -0.92284492167E+03  0.93748251318E+03  0.00000000000E+00 0.  1.
          3    1    3    3  501    0 -0.45425418195E+02  0.15864082433E+03  0.27648469058E+02  0.16731651922E+03  0.00000000000E+00 0.  1.
         21    1    1    2  502  501 -0.24506834355E-01 -0.59688184157E-02  0.68198153476E-01  0.72713134033E-01  0.00000000000E+00 0. -1.
<mgrwt>
<rscale>  1 0.64745982E+03</rscale>
<asrwt>0</asrwt>
<pdfrwt beam="1">  1        1 0.38135261E+00 0.64745982E+03</pdfrwt>
<pdfrwt beam="2">0</pdfrwt>
<totfact> 0.16193249E+00</totfact>
</mgrwt>
</event>
<event>
 6    1  0.7058193E-003  0.6373637E+03  0.7818608E-02  0.9830784E-01
          1   -1    0    0  502    0  0.00000000000E+00  0.00000000000E+00  0.10156495695E+03  0.10156495695E+03  0.00000000000E+00 0.  1.
         13   -1    0    0    0    0 -0.00000000000E+00 -0.00000000000E+00 -0.10000000000E+04  0.10000000000E+04  0.00000000000E+00 0.  1.
    9000005    2    1    2  501    0  0.12338034713E-02 -0.97153155691E-03 -0.89844179162E+03  0.11015580281E+04  0.63736366092E+03 0.  0.
         13    1    3    3    0    0 -0.29914241894E+03  0.10967393033E+03 -0.43787663585E+03  0.54152608988E+03  0.00000000000E+00 0.  1.
          1    1    3    3  501    0  0.29914365274E+03 -0.10967490186E+03 -0.46056515578E+03  0.56003193819E+03  0.00000000000E+00 0.  1.
         21    1    1    2  502  501 -0.12338034713E-02  0.97153155691E-03  0.67485758234E-02  0.69288830424E-02  0.00000000000E+00 0. -1.
<mgrwt>
<rscale>  1 0.63736366E+03</rscale>
<asrwt>0</asrwt>
<pdfrwt beam="1">  1        1 0.36932790E+00 0.63736366E+03</pdfrwt>
<pdfrwt beam="2">0</pdfrwt>
<totfact> 0.18326374E+00</totfact>
</mgrwt>
</event>
<event>
 6    1  0.7058193E-003  0.6421451E+03  0.7818608E-02  0.9821631E-01
          1   -1    0    0  502    0  0.00000000000E+00  0.00000000000E+00  0.10374481273E+03  0.10374481273E+03  0.00000000000E+00 0.  1.
         13   -1    0    0    0    0 -0.00000000000E+00 -0.00000000000E+00 -0.10000000000E+04  0.10000000000E+04  0.00000000000E+00 0.  1.
    9000005    2    1    2  501    0 -0.82389707445E-01  0.34854477692E-02 -0.89690957736E+03  0.11030852473E+04  0.64214505057E+03 0.  0.
         13    1    3    3    0    0 -0.24243094993E+03 -0.16111651539E+03 -0.21563552483E+03  0.36225678266E+03  0.00000000000E+00 0.  1.
          3    1    3    3  501    0  0.24234856023E+03  0.16112000084E+03 -0.68127405253E+03  0.74082846460E+03  0.00000000000E+00 0.  1.
         21    1    1    2  502  501  0.82389707445E-01 -0.34854477692E-02  0.65439009199E+00  0.65956546660E+00  0.00000000000E+00 0. -1.
<mgrwt>
<rscale>  1 0.64214506E+03</rscale>
<asrwt>0</asrwt>
<pdfrwt beam="1">  1        1 0.37725466E+00 0.64214506E+03</pdfrwt>
<pdfrwt beam="2">0</pdfrwt>
<totfact> 0.16897907E+00</totfact>
</mgrwt>
</event>
<event>
 6    1  0.7058193E-003  0.6215409E+03  0.7818608E-02  0.9861696E-01
          1   -1    0    0  502    0  0.00000000000E+00  0.00000000000E+00  0.97478948111E+02  0.97478948111E+02  0.00000000000E+00 0.  1.
         13   -1    0    0    0    0 -0.00000000000E+00 -0.00000000000E+00 -0.10000000000E+04  0.10000000000E+04  0.00000000000E+00 0.  1.
    9000005    2    1    2  501    0  0.13009082555E+01 -0.10210812385E+01 -0.90250737318E+03  0.10958251173E+04  0.62153873100E+03 0.  0.
         13    1    3    3    0    0 -0.65539018348E+02  0.16490101099E+03 -0.17278164311E+01  0.17745616840E+03  0.00000000000E+00 0.  1.
          1    1    3    3  501    0  0.66839926604E+02 -0.16592209223E+03 -0.90077955675E+03  0.91836894892E+03  0.00000000000E+00 0.  1.
         21    1    1    2  502  501 -0.13009082555E+01  0.10210812385E+01 -0.13678707212E-01  0.16538307930E+01  0.00000000000E+00 0. -1.
<mgrwt>
<rscale>  1 0.62154093E+03</rscale>
<asrwt>0</asrwt>
<pdfrwt beam="1">  1        1 0.35446965E+00 0.62154093E+03</pdfrwt>
<pdfrwt beam="2">0</pdfrwt>
<totfact> 0.21347755E+00</totfact>
</mgrwt>
</event>
<event>
 6    1  0.7058193E-003  0.6455212E+03  0.7818608E-02  0.9815220E-01
          1   -1    0    0  502    0  0.00000000000E+00  0.00000000000E+00  0.12616712997E+03  0.12616712997E+03  0.00000000000E+00 0.  1.
         13   -1    0    0    0    0 -0.00000000000E+00 -0.00000000000E+00 -0.10000000000E+04  0.10000000000E+04  0.00000000000E+00 0.  1.
    9000005    2    1    2  501    0 -0.13324352501E+01  0.32770517675E+00 -0.89580196849E+03  0.11041552227E+04  0.64551971797E+03 0.  0.
         13    1    3    3    0    0  0.30873957267E+03  0.74737451270E+02 -0.35525502390E+03  0.47656263215E+03  0.00000000000E+00 0.  1.
          3    1    3    3  501    0 -0.31007200792E+03 -0.74409746094E+02 -0.54054694459E+03  0.62759259055E+03  0.00000000000E+00 0.  1.
         21    1    1    2  502  501  0.13324352501E+01 -0.32770517675E+00  0.21969098463E+02  0.22011907270E+02  0.00000000000E+00 0.  1.
<mgrwt>
<rscale>  1 0.64552118E+03</rscale>
<asrwt>0</asrwt>
<pdfrwt beam="1">  1        1 0.45879053E+00 0.64552118E+03</pdfrwt>
<pdfrwt beam="2">0</pdfrwt>
<totfact> 0.72423183E-01</totfact>
</mgrwt>
</event>
<event>
 6    1  0.7058193E-003  0.6470316E+03  0.7818608E-02  0.9812365E-01
          1   -1    0    0  502    0  0.00000000000E+00  0.00000000000E+00  0.10466497780E+03  0.10466497780E+03  0.00000000000E+00 0.  1.
         13   -1    0    0    0    0 -0.00000000000E+00 -0.00000000000E+00 -0.10000000000E+04  0.10000000000E+04  0.00000000000E+00 0.  1.
    9000005    2    1    2  501    0  0.21854015326E-02  0.24717152304E-02 -0.89533625181E+03  0.11046614568E+04  0.64703163011E+03 0.  0.
         13    1    3    3    0    0  0.31927605556E+03 -0.29597211503E+01 -0.53666459369E+03  0.62446364644E+03  0.00000000000E+00 0.  1.
          3    1    3    3  501    0 -0.31927387016E+03  0.29621928656E+01 -0.35867165812E+03  0.48019781038E+03  0.00000000000E+00 0.  1.
         21    1    1    2  502  501 -0.21854015326E-02 -0.24717152304E-02  0.12296136519E-02  0.35209807969E-02  0.00000000000E+00 0.  1.
<mgrwt>
<rscale>  1 0.64703163E+03</rscale>
<asrwt>0</asrwt>
<pdfrwt beam="1">  1        1 0.38060072E+00 0.64703163E+03</pdfrwt>
<pdfrwt beam="2">0</pdfrwt>
<totfact> 0.16318765E+00</totfact>
</mgrwt>
</event>
<event>
 6    1  0.7058193E-003  0.6313997E+03  0.7818608E-02  0.9842321E-01
          1   -1    0    0  502    0  0.00000000000E+00  0.00000000000E+00  0.10075172392E+03  0.10075172392E+03  0.00000000000E+00 0.  1.
         13   -1    0    0    0    0 -0.00000000000E+00 -0.00000000000E+00 -0.10000000000E+04  0.10000000000E+04  0.00000000000E+00 0.  1.
    9000005    2    1    2  501    0 -0.40372174515E+00 -0.80491474835E+00 -0.90012454218E+03  0.10994952522E+04  0.63139908712E+03 0.  0.
         13    1    3    3    0    0 -0.98983668476E+02  0.28788454124E+03 -0.30604200721E+03  0.43166767992E+03  0.00000000000E+00 0.  1.
          3    1    3    3  501    0  0.98579946731E+02 -0.28868945599E+03 -0.59408253497E+03  0.66782757225E+03  0.00000000000E+00 0.  1.
         21    1    1    2  502  501  0.40372174515E+00  0.80491474835E+00  0.87626609658E+00  0.12564717552E+01  0.00000000000E+00 0. -1.
<mgrwt>
<rscale>  1 0.63139973E+03</rscale>
<asrwt>0</asrwt>
<pdfrwt beam="1">  1        1 0.36637068E+00 0.63139973E+03</pdfrwt>
<pdfrwt beam="2">0</pdfrwt>
<totfact> 0.18902665E+00</totfact>
</mgrwt>
</event>
<event>
 6    1  0.7058193E-003  0.6409063E+03  0.7818608E-02  0.9823994E-01
          1   -1    0    0  502    0  0.00000000000E+00  0.00000000000E+00  0.10269022902E+03  0.10269022902E+03  0.00000000000E+00 0.  1.
         13   -1    0    0    0    0 -0.00000000000E+00 -0.00000000000E+00 -0.10000000000E+04  0.10000000000E+04  0.00000000000E+00 0.  1.
    9000005    2    1    2  501    0 -0.80584507600E-06 -0.24257035420E-05 -0.89730976849E+03  0.11026902255E+04  0.64090632129E+03 0.  0.
         13    1    3    3    0    0  0.72852562617E+02  0.30710959055E+03 -0.35338062795E+03  0.47381606632E+03  0.00000000000E+00 0.  1.
          1    1    3    3  501    0 -0.72852563422E+02 -0.30710959298E+03 -0.54392914054E+03  0.62887415913E+03  0.00000000000E+00 0.  1.
         21    1    1    2  502  501  0.80584506735E-06  0.24257034998E-05 -0.24864075382E-05  0.35659004736E-05  0.00000000000E+00 0. -1.
<mgrwt>
<rscale>  1 0.64090632E+03</rscale>
<asrwt>0</asrwt>
<pdfrwt beam="1">  1        1 0.37341980E+00 0.64090632E+03</pdfrwt>
<pdfrwt beam="2">0</pdfrwt>
<totfact> 0.17571703E+00</totfact>
</mgrwt>
</event>
<event>
 6    1  0.7058193E-003  0.6446092E+03  0.7818608E-02  0.9816948E-01
          1   -1    0    0  502    0  0.00000000000E+00  0.00000000000E+00  0.10719244620E+03  0.10719244620E+03  0.00000000000E+00 0.  1.
         13   -1    0    0    0    0 -0.00000000000E+00 -0.00000000000E+00 -0.10000000000E+04  0.10000000000E+04  0.00000000000E+00 0.  1.
    9000005    2    1    2  501    0 -0.43656220082E-01  0.89542767655E-01 -0.89611892107E+03  0.11038795808E+04  0.64460918265E+03 0.  0.
         13    1    3    3    0    0  0.47754342823E+02  0.13208445127E+02  0.97319021026E+02  0.10920591621E+03  0.00000000000E+00 0.  1.
          1    1    3    3  501    0 -0.47797999043E+02 -0.13118902359E+02 -0.99343794209E+03  0.99467366463E+03  0.00000000000E+00 0.  1.
         21    1    1    2  502  501  0.43656220082E-01 -0.89542767655E-01  0.33113672636E+01  0.33128653651E+01  0.00000000000E+00 0. -1.
<mgrwt>
<rscale>  1 0.64460919E+03</rscale>
<asrwt>0</asrwt>
<pdfrwt beam="1">  1        1 0.38979154E+00 0.64460919E+03</pdfrwt>
<pdfrwt beam="2">0</pdfrwt>
<totfact> 0.14867300E+00</totfact>
</mgrwt>
</event>
<event>
 6    1  0.7058193E-003  0.6576314E+03  0.7818608E-02  0.9792564E-01
          1   -1    0    0  502    0  0.00000000000E+00  0.00000000000E+00  0.10814071351E+03  0.10814071351E+03  0.00000000000E+00 0.  1.
         13   -1    0    0    0    0 -0.00000000000E+00 -0.00000000000E+00 -0.10000000000E+04  0.10000000000E+04  0.00000000000E+00 0.  1.
    9000005    2    1    2  501    0 -0.33497983236E-03 -0.12304501963E-03 -0.89188023545E+03  0.11081197615E+04  0.65763139482E+03 0.  0.
         13    1    3    3    0    0 -0.29525499601E+03  0.45458029088E+02 -0.67745637403E+03  0.74039792261E+03  0.00000000000E+00 0.  1.
          1    1    3    3  501    0  0.29525466103E+03 -0.45458152133E+02 -0.21442386142E+03  0.36772183890E+03  0.00000000000E+00 0.  1.
         21    1    1    2  502  501  0.33497983235E-03  0.12304501962E-03  0.20948965540E-01  0.20952004886E-01  0.00000000000E+00 0. -1.
<mgrwt>
<rscale>  1 0.65763139E+03</rscale>
<asrwt>0</asrwt>
<pdfrwt beam="1">  1        1 0.39323979E+00 0.65763139E+03</pdfrwt>
<pdfrwt beam="2">0</pdfrwt>
<totfact> 0.14317698E+00</totfact>
</mgrwt>
</event>
<event>
 6    1  0.7058193E-003  0.4971347E+03  0.7818608E-02  0.1014530E+00
          1   -1    0    0  502    0  0.00000000000E+00  0.00000000000E+00  0.61785737127E+02  0.61785737127E+02  0.00000000000E+00 0.  1.
         13   -1    0    0    0    0 -0.00000000000E+00 -0.00000000000E+00 -0.10000000000E+04  0.10000000000E+04  0.00000000000E+00 0.  1.
    9000005    2    1    2  501    0  0.34395943942E-05 -0.13046488476E-05 -0.93821427005E+03  0.10617857291E+04  0.49713470801E+03 0.  0.
         13    1    3    3    0    0 -0.21076722227E+03 -0.10595132147E+03 -0.63642749654E+03  0.67874035010E+03  0.00000000000E+00 0.  1.
          3    1    3    3  501    0  0.21076722570E+03  0.10595132016E+03 -0.30178677352E+03  0.38304537896E+03  0.00000000000E+00 0.  1.
         21    1    1    2  502  501 -0.34395944066E-05  0.13046488489E-05  0.71795320687E-05  0.80671307803E-05  0.00000000000E+00 0. -1.
<mgrwt>
<rscale>  1 0.49713471E+03</rscale>
<asrwt>0</asrwt>
<pdfrwt beam="1">  1        1 0.22467588E+00 0.49713471E+03</pdfrwt>
<pdfrwt beam="2">0</pdfrwt>
<totfact> 0.79769552E+00</totfact>
</mgrwt>
</event>
<event>
 6    1  0.7058193E-003  0.6592242E+03  0.7818608E-02  0.9789623E-01
          1   -1    0    0  502    0  0.00000000000E+00  0.00000000000E+00  0.10864428477E+03  0.10864428477E+03  0.00000000000E+00 0.  1.
         13   -1    0    0    0    0 -0.00000000000E+00 -0.00000000000E+00 -0.10000000000E+04  0.10000000000E+04  0.00000000000E+00 0.  1.
    9000005    2    1    2  501    0 -0.28730193804E-04 -0.13991961373E-03 -0.89135581060E+03  0.11086441130E+04  0.65922423213E+03 0.  0.
         13    1    3    3    0    0  0.50522632395E+02 -0.26275666447E+03 -0.12196768758E+03  0.29405733781E+03  0.00000000000E+00 0.  1.
          3    1    3    3  501    0 -0.50522661126E+02  0.26275652455E+03 -0.76938812303E+03  0.81458677520E+03  0.00000000000E+00 0.  1.
         21    1    1    2  502  501  0.28730193805E-04  0.13991961371E-03  0.95375632301E-04  0.17175399143E-03  0.00000000000E+00 0.  1.
<mgrwt>
<rscale>  1 0.65922423E+03</rscale>
<asrwt>0</asrwt>
<pdfrwt beam="1">  1        1 0.39507096E+00 0.65922423E+03</pdfrwt>
<pdfrwt beam="2">0</pdfrwt>
<totfact> 0.14047705E+00</totfact>
</mgrwt>
</event>
<event>
 6    1  0.7058193E-003  0.6124454E+03  0.7818608E-02  0.9879917E-01
          1   -1    0    0  502    0  0.00000000000E+00  0.00000000000E+00  0.93772887438E+02  0.93772887438E+02  0.00000000000E+00 0.  1.
         13   -1    0    0    0    0 -0.00000000000E+00 -0.00000000000E+00 -0.10000000000E+04  0.10000000000E+04  0.00000000000E+00 0.  1.
    9000005    2    1    2  501    0  0.35191562955E-03  0.75260969049E-03 -0.90622729187E+03  0.10937720375E+04  0.61244539794E+03 0.  0.
         13    1    3    3    0    0 -0.11096755407E+03 -0.28485474279E+03 -0.48486333884E+03  0.57319148624E+03  0.00000000000E+00 0.  1.
          1    1    3    3  501    0  0.11096790598E+03  0.28485549540E+03 -0.42136395303E+03  0.52058055124E+03  0.00000000000E+00 0.  1.
         21    1    1    2  502  501 -0.35191562956E-03 -0.75260969049E-03  0.17930957715E-03  0.84995169334E-03  0.00000000000E+00 0. -1.
<mgrwt>
<rscale>  1 0.61244540E+03</rscale>
<asrwt>0</asrwt>
<pdfrwt beam="1">  1        1 0.34099304E+00 0.61244540E+03</pdfrwt>
<pdfrwt beam="2">0</pdfrwt>
<totfact> 0.24475659E+00</totfact>
</mgrwt>
</event>
<event>
 6    1  0.7058193E-003  0.6156056E+03  0.7818608E-02  0.9873548E-01
          1   -1    0    0  502    0  0.00000000000E+00  0.00000000000E+00  0.94742872375E+02  0.94742872375E+02  0.00000000000E+00 0.  1.
         13   -1    0    0    0    0 -0.00000000000E+00 -0.00000000000E+00 -0.10000000000E+04  0.10000000000E+04  0.00000000000E+00 0.  1.
    9000005    2    1    2  501    0  0.19412753829E-04 -0.38709880215E-04 -0.90525743973E+03  0.10947425573E+04  0.61560558357E+03 0.  0.
         13    1    3    3    0    0  0.21364406403E+03  0.21881306157E+03 -0.51473282043E+03  0.59872599613E+03  0.00000000000E+00 0.  1.
          1    1    3    3  501    0 -0.21364404462E+03 -0.21881310028E+03 -0.39052461930E+03  0.49601656115E+03  0.00000000000E+00 0.  1.
         21    1    1    2  502  501 -0.19412753846E-04  0.38709880211E-04  0.31210727812E-03  0.31509722768E-03  0.00000000000E+00 0. -1.
<mgrwt>
<rscale>  1 0.61560558E+03</rscale>
<asrwt>0</asrwt>
<pdfrwt beam="1">  1        1 0.34452026E+00 0.61560558E+03</pdfrwt>
<pdfrwt beam="2">0</pdfrwt>
<totfact> 0.23613359E+00</totfact>
</mgrwt>
</event>
<event>
 6    1  0.7058193E-003  0.6531624E+03  0.7818608E-02  0.9800863E-01
          1   -1    0    0  502    0  0.00000000000E+00  0.00000000000E+00  0.10814859934E+03  0.10814859934E+03  0.00000000000E+00 0.  1.
         13   -1    0    0    0    0 -0.00000000000E+00 -0.00000000000E+00 -0.10000000000E+04  0.10000000000E+04  0.00000000000E+00 0.  1.
    9000005    2    1    2  501    0 -0.23360606439E+01  0.18463724025E+01 -0.89147615829E+03  0.11051474200E+04  0.65315558097E+03 0.  0.
         13    1    3    3    0    0 -0.26186894888E+03 -0.14412173529E+03 -0.67124027423E+03  0.73478563318E+03  0.00000000000E+00 0.  1.
          1    1    3    3  501    0  0.25953288824E+03  0.14596810769E+03 -0.22023588405E+03  0.37036178686E+03  0.00000000000E+00 0.  1.
         21    1    1    2  502  501  0.23360606439E+01 -0.18463724025E+01 -0.37524236682E+00  0.30011793039E+01  0.00000000000E+00 0. -1.
<mgrwt>
<rscale>  1 0.65316237E+03</rscale>
<asrwt>0</asrwt>
<pdfrwt beam="1">  1        1 0.39326846E+00 0.65316237E+03</pdfrwt>
<pdfrwt beam="2">0</pdfrwt>
<totfact> 0.14325432E+00</totfact>
</mgrwt>
</event>
<event>
 6    1  0.7058193E-003  0.6543184E+03  0.7818608E-02  0.9798710E-01
          1   -1    0    0  502    0  0.00000000000E+00  0.00000000000E+00  0.10703345033E+03  0.10703345033E+03  0.00000000000E+00 0.  1.
         13   -1    0    0    0    0 -0.00000000000E+00 -0.00000000000E+00 -0.10000000000E+04  0.10000000000E+04  0.00000000000E+00 0.  1.
    9000005    2    1    2  501    0 -0.54054339358E-04 -0.17534834939E-04 -0.89296686722E+03  0.11070331277E+04  0.65431836285E+03 0.  0.
         13    1    3    3    0    0  0.14397113354E+03 -0.17683508878E+03 -0.49575139997E+02  0.23335815910E+03  0.00000000000E+00 0.  1.
          3    1    3    3  501    0 -0.14397118759E+03  0.17683507124E+03 -0.84339172722E+03  0.87367496864E+03  0.00000000000E+00 0.  1.
         21    1    1    2  502  501  0.54054339344E-04  0.17534834943E-04  0.31754545125E-03  0.32259022870E-03  0.00000000000E+00 0. -1.
<mgrwt>
<rscale>  1 0.65431836E+03</rscale>
<asrwt>0</asrwt>
<pdfrwt beam="1">  1        1 0.38921337E+00 0.65431836E+03</pdfrwt>
<pdfrwt beam="2">0</pdfrwt>
<totfact> 0.14928232E+00</totfact>
</mgrwt>
</event>
<event>
 6    1  0.7058193E-003  0.6526419E+03  0.7818608E-02  0.9801834E-01
          1   -1    0    0  502    0  0.00000000000E+00  0.00000000000E+00  0.10648797037E+03  0.10648797037E+03  0.00000000000E+00 0.  1.
         13   -1    0    0    0    0 -0.00000000000E+00 -0.00000000000E+00 -0.10000000000E+04  0.10000000000E+04  0.00000000000E+00 0.  1.
    9000005    2    1    2  501    0 -0.49025376991E-02 -0.37914423721E-02 -0.89350967926E+03  0.11064813421E+04  0.65264187224E+03 0.  0.
         13    1    3    3    0    0 -0.10536507310E+03 -0.29518482319E+03 -0.60075991796E+03  0.67760486827E+03  0.00000000000E+00 0.  1.
          1    1    3    3  501    0  0.10536017057E+03  0.29518103175E+03 -0.29274976131E+03  0.42887647382E+03  0.00000000000E+00 0.  1.
         21    1    1    2  502  501  0.49025376991E-02  0.37914423720E-02 -0.23503708004E-02  0.66282843973E-02  0.00000000000E+00 0. -1.
<mgrwt>
<rscale>  1 0.65264187E+03</rscale>
<asrwt>0</asrwt>
<pdfrwt beam="1">  1        1 0.38722980E+00 0.65264187E+03</pdfrwt>
<pdfrwt beam="2">0</pdfrwt>
<totfact> 0.15238129E+00</totfact>
</mgrwt>
</event>
<event>
 6    1  0.7058193E-003  0.6584374E+03  0.7818608E-02  0.9791075E-01
          1   -1    0    0  502    0  0.00000000000E+00  0.00000000000E+00  0.10838499185E+03  0.10838499185E+03  0.00000000000E+00 0.  1.
         13   -1    0    0    0    0 -0.00000000000E+00 -0.00000000000E+00 -0.10000000000E+04  0.10000000000E+04  0.00000000000E+00 0.  1.
    9000005    2    1    2  501    0  0.48153790885E-04 -0.26471714072E-04 -0.89161502766E+03  0.11083849335E+04  0.65843739515E+03 0.  0.
         13    1    3    3    0    0  0.31908771406E+03 -0.41062144408E+02 -0.32819044135E+03  0.45957810517E+03  0.00000000000E+00 0.  1.
          1    1    3    3  501    0 -0.31908766590E+03  0.41062117936E+02 -0.56342458632E+03  0.64880682836E+03  0.00000000000E+00 0.  1.
         21    1    1    2  502  501 -0.48153790880E-04  0.26471714073E-04  0.19511496722E-04  0.58311557400E-04  0.00000000000E+00 0. -1.
<mgrwt>
<rscale>  1 0.65843740E+03</rscale>
<asrwt>0</asrwt>
<pdfrwt beam="1">  1        1 0.39412807E+00 0.65843740E+03</pdfrwt>
<pdfrwt beam="2">0</pdfrwt>
<totfact> 0.14186031E+00</totfact>
</mgrwt>
</event>
<event>
 6    1  0.7058193E-003  0.6564688E+03  0.7818608E-02  0.9794716E-01
          1   -1    0    0  502    0  0.00000000000E+00  0.00000000000E+00  0.10774049150E+03  0.10774049150E+03  0.00000000000E+00 0.  1.
         13   -1    0    0    0    0 -0.00000000000E+00 -0.00000000000E+00 -0.10000000000E+04  0.10000000000E+04  0.00000000000E+00 0.  1.
    9000005    2    1    2  501    0  0.59305331965E-02 -0.13607339524E-03 -0.89225782024E+03  0.11077343238E+04  0.65646882212E+03 0.  0.
         13    1    3    3    0    0 -0.23948956076E+03  0.85089830572E+02 -0.95643761729E+02  0.27155709922E+03  0.00000000000E+00 0.  1.
          3    1    3    3  501    0  0.23949549129E+03 -0.85089966645E+02 -0.79661405851E+03  0.83617722463E+03  0.00000000000E+00 0.  1.
         21    1    1    2  502  501 -0.59305331965E-02  0.13607339524E-03 -0.16882596430E-02  0.61676543828E-02  0.00000000000E+00 0. -1.
<mgrwt>
<rscale>  1 0.65646882E+03</rscale>
<asrwt>0</asrwt>
<pdfrwt beam="1">  1        1 0.39178443E+00 0.65646882E+03</pdfrwt>
<pdfrwt beam="2">0</pdfrwt>
<totfact> 0.14535499E+00</totfact>
</mgrwt>
</event>
<event>
 6    1  0.7058193E-003  0.6517563E+03  0.7818608E-02  0.9803489E-01
          3   -1    0    0  502    0  0.00000000000E+00  0.00000000000E+00  0.10629795542E+03  0.10629795542E+03  0.00000000000E+00 0.  1.
         13   -1    0    0    0    0 -0.00000000000E+00 -0.00000000000E+00 -0.10000000000E+04  0.10000000000E+04  0.00000000000E+00 0.  1.
    9000005    2    1    2  501    0 -0.41397491754E-02  0.18619139822E-02 -0.89380338030E+03  0.11061965181E+04  0.65175628418E+03 0.  0.
         13    1    3    3    0    0 -0.21948033854E+03  0.12065659091E+03 -0.93043472022E+02  0.26718293287E+03  0.00000000000E+00 0.  1.
          3    1    3    3  501    0  0.21947619879E+03 -0.12065472899E+03 -0.80075990828E+03  0.83901358521E+03  0.00000000000E+00 0.  1.
         21    1    1    2  502  501  0.41397491754E-02 -0.18619139822E-02  0.10133572082E+00  0.10143733317E+00  0.00000000000E+00 0.  1.
<mgrwt>
<rscale>  1 0.65175628E+03</rscale>
<asrwt>0</asrwt>
<pdfrwt beam="1">  1        3 0.38653883E+00 0.65175628E+03</pdfrwt>
<pdfrwt beam="2">0</pdfrwt>
<totfact> 0.69695223E-02</totfact>
</mgrwt>
</event>
<event>
 6    1  0.7058193E-003  0.6371983E+03  0.7818608E-02  0.9831102E-01
          3   -1    0    0  502    0  0.00000000000E+00  0.00000000000E+00  0.10150548076E+03  0.10150548076E+03  0.00000000000E+00 0.  1.
         13   -1    0    0    0    0 -0.00000000000E+00 -0.00000000000E+00 -0.10000000000E+04  0.10000000000E+04  0.00000000000E+00 0.  1.
    9000005    2    1    2  501    0 -0.10949342304E-04 -0.15425890751E-05 -0.89849457392E+03  0.11015054250E+04  0.63719832225E+03 0.  0.
         13    1    3    3    0    0 -0.24676083632E+01 -0.29783130267E+03 -0.64479224545E+03  0.71025813176E+03  0.00000000000E+00 0.  1.
          3    1    3    3  501    0  0.24675974139E+01  0.29783130113E+03 -0.25370232847E+03  0.39124729321E+03  0.00000000000E+00 0.  1.
         21    1    1    2  502  501  0.10949342304E-04  0.15425890682E-05  0.54686379672E-04  0.55793080212E-04  0.00000000000E+00 0.  1.
<mgrwt>
<rscale>  1 0.63719832E+03</rscale>
<asrwt>0</asrwt>
<pdfrwt beam="1">  1        3 0.36911162E+00 0.63719832E+03</pdfrwt>
<pdfrwt beam="2">0</pdfrwt>
<totfact> 0.86366938E-02</totfact>
</mgrwt>
</event>
<event>
 6    1  0.7058193E-003  0.6500757E+03  0.7818608E-02  0.9806637E-01
          1   -1    0    0  502    0  0.00000000000E+00  0.00000000000E+00  0.10564972540E+03  0.10564972540E+03  0.00000000000E+00 0.  1.
         13   -1    0    0    0    0 -0.00000000000E+00 -0.00000000000E+00 -0.10000000000E+04  0.10000000000E+04  0.00000000000E+00 0.  1.
    9000005    2    1    2  501    0  0.51261658598E-05 -0.73413559676E-05 -0.89435040741E+03  0.11056495923E+04  0.65007566459E+03 0.  0.
         13    1    3    3    0    0 -0.23455734905E+03 -0.19892443175E+03 -0.62605482739E+03  0.69751897927E+03  0.00000000000E+00 0.  1.
          1    1    3    3  501    0  0.23455735418E+03  0.19892442441E+03 -0.26829558002E+03  0.40813061302E+03  0.00000000000E+00 0.  1.
         21    1    1    2  502  501 -0.51261658705E-05  0.73413559517E-05  0.13280974789E-03  0.13311124002E-03  0.00000000000E+00 0. -1.
<mgrwt>
<rscale>  1 0.65007566E+03</rscale>
<asrwt>0</asrwt>
<pdfrwt beam="1">  1        1 0.38418163E+00 0.65007566E+03</pdfrwt>
<pdfrwt beam="2">0</pdfrwt>
<totfact> 0.15726253E+00</totfact>
</mgrwt>
</event>
<event>
 6    1  0.7058193E-003  0.6524045E+03  0.7818608E-02  0.9802278E-01
          1   -1    0    0  502    0  0.00000000000E+00  0.00000000000E+00  0.10641525442E+03  0.10641525442E+03  0.00000000000E+00 0.  1.
         13   -1    0    0    0    0 -0.00000000000E+00 -0.00000000000E+00 -0.10000000000E+04  0.10000000000E+04  0.00000000000E+00 0.  1.
    9000005    2    1    2  501    0  0.11203203881E-01  0.18549075066E-01 -0.89354385042E+03  0.11063689727E+04  0.65240454531E+03 0.  0.
         13    1    3    3    0    0  0.31137254186E+02 -0.31670270768E+02 -0.99480397578E+03  0.99579490101E+03  0.00000000000E+00 0.  1.
          1    1    3    3  501    0 -0.31126050982E+02  0.31688819843E+02  0.10126012535E+03  0.11057407173E+03  0.00000000000E+00 0.  1.
         21    1    1    2  502  501 -0.11203203881E-01 -0.18549075066E-01 -0.40895158183E-01  0.46281680240E-01  0.00000000000E+00 0.  1.
<mgrwt>
<rscale>  1 0.65240455E+03</rscale>
<asrwt>0</asrwt>
<pdfrwt beam="1">  1        1 0.38696538E+00 0.65240455E+03</pdfrwt>
<pdfrwt beam="2">0</pdfrwt>
<totfact> 0.15279937E+00</totfact>
</mgrwt>
</event>
<event>
 6    1  0.7058193E-003  0.6844068E+03  0.7818608E-02  0.9744277E-01
          3   -1    0    0  502    0  0.00000000000E+00  0.00000000000E+00  0.11710317874E+03  0.11710317874E+03  0.00000000000E+00 0.  1.
         13   -1    0    0    0    0 -0.00000000000E+00 -0.00000000000E+00 -0.10000000000E+04  0.10000000000E+04  0.00000000000E+00 0.  1.
    9000005    2    1    2  501    0 -0.63937970083E-05 -0.32378419803E-05 -0.88289683285E+03  0.11171031651E+04  0.68440679720E+03 0.  0.
         13    1    3    3    0    0  0.25118854412E+03  0.23239197128E+03 -0.44341429960E+03  0.56010530627E+03  0.00000000000E+00 0.  1.
          3    1    3    3  501    0 -0.25118855052E+03 -0.23239197452E+03 -0.43948253325E+03  0.55699785885E+03  0.00000000000E+00 0.  1.
         21    1    1    2  502  501  0.63937970297E-05  0.32378419687E-05  0.11594382287E-04  0.13630625873E-04  0.00000000000E+00 0.  1.
<mgrwt>
<rscale>  1 0.68440680E+03</rscale>
<asrwt>0</asrwt>
<pdfrwt beam="1">  1        3 0.42583064E+00 0.68440680E+03</pdfrwt>
<pdfrwt beam="2">0</pdfrwt>
<totfact> 0.43210646E-02</totfact>
</mgrwt>
</event>
<event>
 6    1  0.7058193E-003  0.6592121E+03  0.7818608E-02  0.9789645E-01
          1   -1    0    0  502    0  0.00000000000E+00  0.00000000000E+00  0.10864018258E+03  0.10864018258E+03  0.00000000000E+00 0.  1.
         13   -1    0    0    0    0 -0.00000000000E+00 -0.00000000000E+00 -0.10000000000E+04  0.10000000000E+04  0.00000000000E+00 0.  1.
    9000005    2    1    2  501    0  0.21618324126E-05 -0.45914301197E-05 -0.89135984625E+03  0.11086401533E+04  0.65921211610E+03 0.  0.
         13    1    3    3    0    0 -0.18788485522E+03  0.63874596992E+02 -0.30864492072E+01  0.19846966803E+03  0.00000000000E+00 0.  1.
          3    1    3    3  501    0  0.18788485738E+03 -0.63874601584E+02 -0.88827339705E+03  0.91017048527E+03  0.00000000000E+00 0.  1.
         21    1    1    2  502  501 -0.21618323899E-05  0.45914301226E-05  0.28831536726E-04  0.29274771730E-04  0.00000000000E+00 0.  1.
<mgrwt>
<rscale>  1 0.65921212E+03</rscale>
<asrwt>0</asrwt>
<pdfrwt beam="1">  1        1 0.39505604E+00 0.65921212E+03</pdfrwt>
<pdfrwt beam="2">0</pdfrwt>
<totfact> 0.14049882E+00</totfact>
</mgrwt>
</event>
<event>
 6    1  0.7058193E-003  0.6510844E+03  0.7818608E-02  0.9804747E-01
          1   -1    0    0  502    0  0.00000000000E+00  0.00000000000E+00  0.10608112157E+03  0.10608112157E+03  0.00000000000E+00 0.  1.
         13   -1    0    0    0    0 -0.00000000000E+00 -0.00000000000E+00 -0.10000000000E+04  0.10000000000E+04  0.00000000000E+00 0.  1.
    9000005    2    1    2  501    0  0.20734387867E-02 -0.20565259291E-03 -0.89402226389E+03  0.11059777151E+04  0.65108440160E+03 0.  0.
         13    1    3    3    0    0  0.25789974636E+03  0.15183118749E+03 -0.22938847031E+03  0.37707301545E+03  0.00000000000E+00 0.  1.
          3    1    3    3  501    0 -0.25789767292E+03 -0.15183139314E+03 -0.66463379357E+03  0.72890469967E+03  0.00000000000E+00 0.  1.
         21    1    1    2  502  501 -0.20734387867E-02  0.20565259293E-03  0.10338545379E+00  0.10340644804E+00  0.00000000000E+00 0. -1.
<mgrwt>
<rscale>  1 0.65108440E+03</rscale>
<asrwt>0</asrwt>
<pdfrwt beam="1">  1        1 0.38575035E+00 0.65108440E+03</pdfrwt>
<pdfrwt beam="2">0</pdfrwt>
<totfact> 0.15474110E+00</totfact>
</mgrwt>
</event>
<event>
 6    1  0.7058193E-003  0.6492596E+03  0.7818608E-02  0.9808170E-01
          1   -1    0    0  502    0  0.00000000000E+00  0.00000000000E+00  0.10538451332E+03  0.10538451332E+03  0.00000000000E+00 0.  1.
         13   -1    0    0    0    0 -0.00000000000E+00 -0.00000000000E+00 -0.10000000000E+04  0.10000000000E+04  0.00000000000E+00 0.  1.
    9000005    2    1    2  501    0 -0.84280752475E-05  0.92287052667E-07 -0.89461549914E+03  0.11053844983E+04  0.64925957654E+03 0.  0.
         13    1    3    3    0    0  0.40563699462E+02 -0.17996920286E+03 -0.90207849048E+03  0.92074965690E+03  0.00000000000E+00 0.  1.
          1    1    3    3  501    0 -0.40563707890E+02  0.17996920296E+03  0.74629913389E+01  0.18463484138E+03  0.00000000000E+00 0.  1.
         21    1    1    2  502  501  0.84280752467E-05 -0.92287041615E-07  0.12462876416E-04  0.15045406536E-04  0.00000000000E+00 0. -1.
<mgrwt>
<rscale>  1 0.64925958E+03</rscale>
<asrwt>0</asrwt>
<pdfrwt beam="1">  1        1 0.38321722E+00 0.64925958E+03</pdfrwt>
<pdfrwt beam="2">0</pdfrwt>
<totfact> 0.15883772E+00</totfact>
</mgrwt>
</event>
<event>
 6    1  0.7058193E-003  0.6499592E+03  0.7818608E-02  0.9806856E-01
          1   -1    0    0  502    0  0.00000000000E+00  0.00000000000E+00  0.10636067606E+03  0.10636067606E+03  0.00000000000E+00 0.  1.
         13   -1    0    0    0    0 -0.00000000000E+00 -0.00000000000E+00 -0.10000000000E+04  0.10000000000E+04  0.00000000000E+00 0.  1.
    9000005    2    1    2  501    0  0.36030977847E+00  0.86957323549E+00 -0.89404637087E+03  0.11053351674E+04  0.64995848567E+03 0.  0.
         13    1    3    3    0    0  0.85370836317E+02  0.23767575412E+03 -0.79634274031E+03  0.83542785675E+03  0.00000000000E+00 0.  1.
          3    1    3    3  501    0 -0.85010526538E+02 -0.23680618089E+03 -0.97703630563E+02  0.26990731067E+03  0.00000000000E+00 0.  1.
         21    1    1    2  502  501 -0.36030977847E+00 -0.86957323549E+00  0.40704692904E+00  0.10255086303E+01  0.00000000000E+00 0.  1.
<mgrwt>
<rscale>  1 0.64995917E+03</rscale>
<asrwt>0</asrwt>
<pdfrwt beam="1">  1        1 0.38676691E+00 0.64995917E+03</pdfrwt>
<pdfrwt beam="2">0</pdfrwt>
<totfact> 0.15317817E+00</totfact>
</mgrwt>
</event>
<event>
 6    1  0.7058193E-003  0.7691739E+03  0.7818608E-02  0.9605741E-01
          1   -1    0    0  502    0  0.00000000000E+00  0.00000000000E+00  0.14812594636E+03  0.14812594636E+03  0.00000000000E+00 0.  1.
         13   -1    0    0    0    0 -0.00000000000E+00 -0.00000000000E+00 -0.10000000000E+04  0.10000000000E+04  0.00000000000E+00 0.  1.
    9000005    2    1    2  501    0  0.26121450873E-01  0.24996096337E-01 -0.85209117597E+03  0.11479058345E+04  0.76917386290E+03 0.  0.
         13    1    3    3    0    0 -0.30713205913E+02 -0.24542855890E+03  0.13450981844E+02  0.24770831124E+03  0.00000000000E+00 0.  1.
          3    1    3    3  501    0  0.30739327364E+02  0.24545355500E+03 -0.86554215781E+03  0.90019752324E+03  0.00000000000E+00 0.  1.
         21    1    1    2  502  501 -0.26121450873E-01 -0.24996096337E-01  0.21712232696E+00  0.22011188040E+00  0.00000000000E+00 0. -1.
<mgrwt>
<rscale>  1 0.76917386E+03</rscale>
<asrwt>0</asrwt>
<pdfrwt beam="1">  1        1 0.53864094E+00 0.76917386E+03</pdfrwt>
<pdfrwt beam="2">0</pdfrwt>
<totfact> 0.29103613E-01</totfact>
</mgrwt>
</event>
<event>
 6    1  0.7058193E-003  0.6423442E+03  0.7818608E-02  0.9821252E-01
          1   -1    0    0  502    0  0.00000000000E+00  0.00000000000E+00  0.10315270396E+03  0.10315270396E+03  0.00000000000E+00 0.  1.
         13   -1    0    0    0    0 -0.00000000000E+00 -0.00000000000E+00 -0.10000000000E+04  0.10000000000E+04  0.00000000000E+00 0.  1.
    9000005    2    1    2  501    0  0.26150970371E-04 -0.16654030773E-04 -0.89684849394E+03  0.11031515057E+04  0.64234416270E+03 0.  0.
         13    1    3    3    0    0  0.89985201898E+02  0.10091047528E+03 -0.94874402406E+03  0.95832952776E+03  0.00000000000E+00 0.  1.
          1    1    3    3  501    0 -0.89985175747E+02 -0.10091049194E+03  0.51895530121E+02  0.14482197790E+03  0.00000000000E+00 0.  1.
         21    1    1    2  502  501 -0.26150970375E-04  0.16654030776E-04  0.11978970919E-02  0.11982982404E-02  0.00000000000E+00 0. -1.
<mgrwt>
<rscale>  1 0.64234416E+03</rscale>
<asrwt>0</asrwt>
<pdfrwt beam="1">  1        1 0.37510153E+00 0.64234416E+03</pdfrwt>
<pdfrwt beam="2">0</pdfrwt>
<totfact> 0.17270286E+00</totfact>
</mgrwt>
</event>
<event>
 6    1  0.7058193E-003  0.6759645E+03  0.7818608E-02  0.9759243E-01
          1   -1    0    0  502    0  0.00000000000E+00  0.00000000000E+00  0.11425171215E+03  0.11425171215E+03  0.00000000000E+00 0.  1.
         13   -1    0    0    0    0 -0.00000000000E+00 -0.00000000000E+00 -0.10000000000E+04  0.10000000000E+04  0.00000000000E+00 0.  1.
    9000005    2    1    2  501    0  0.14533328016E-02  0.10488365615E-01 -0.88576641790E+03  0.11142307165E+04  0.67596445353E+03 0.  0.
         13    1    3    3    0    0  0.21400111890E+03 -0.13186896959E+03 -0.81529677151E+03  0.85316746871E+03  0.00000000000E+00 0.  1.
          3    1    3    3  501    0 -0.21399966557E+03  0.13187945795E+03 -0.70469646393E+02  0.26106324781E+03  0.00000000000E+00 0.  1.
         21    1    1    2  502  501 -0.14533328015E-02 -0.10488365615E-01  0.18130054050E-01  0.20995638818E-01  0.00000000000E+00 0.  1.
<mgrwt>
<rscale>  1 0.67596445E+03</rscale>
<asrwt>0</asrwt>
<pdfrwt beam="1">  1        1 0.41546165E+00 0.67596445E+03</pdfrwt>
<pdfrwt beam="2">0</pdfrwt>
<totfact> 0.11350700E+00</totfact>
</mgrwt>
</event>
<event>
 6    1  0.7058193E-003  0.4981623E+03  0.7818608E-02  0.1014260E+00
          1   -1    0    0  502    0  0.00000000000E+00  0.00000000000E+00  0.62047599405E+02  0.62047599405E+02  0.00000000000E+00 0.  1.
         13   -1    0    0    0    0 -0.00000000000E+00 -0.00000000000E+00 -0.10000000000E+04  0.10000000000E+04  0.00000000000E+00 0.  1.
    9000005    2    1    2  501    0  0.33861637919E-02  0.33335864710E-02 -0.93795761335E+03  0.10620405459E+04  0.49816225940E+03 0.  0.
         13    1    3    3    0    0 -0.18858842172E+03  0.16268670230E+03 -0.47528725788E+03  0.53659158903E+03  0.00000000000E+00 0.  1.
          1    1    3    3  501    0  0.18859180789E+03 -0.16268336871E+03 -0.46267035548E+03  0.52544895689E+03  0.00000000000E+00 0.  1.
         21    1    1    2  502  501 -0.33861637919E-02 -0.33335864710E-02  0.52127599862E-02  0.70534935074E-02  0.00000000000E+00 0. -1.
<mgrwt>
<rscale>  1 0.49816226E+03</rscale>
<asrwt>0</asrwt>
<pdfrwt beam="1">  1        1 0.22562811E+00 0.49816226E+03</pdfrwt>
<pdfrwt beam="2">0</pdfrwt>
<totfact> 0.78987556E+00</totfact>
</mgrwt>
</event>
<event>
 6    1  0.7058193E-003  0.6586949E+03  0.7818608E-02  0.9790599E-01
          1   -1    0    0  502    0  0.00000000000E+00  0.00000000000E+00  0.10863805342E+03  0.10863805342E+03  0.00000000000E+00 0.  1.
         13   -1    0    0    0    0 -0.00000000000E+00 -0.00000000000E+00 -0.10000000000E+04  0.10000000000E+04  0.00000000000E+00 0.  1.
    9000005    2    1    2  501    0 -0.32568932687E-01  0.22077585161E-02 -0.89152850935E+03  0.11084683220E+04  0.65869487380E+03 0.  0.
         13    1    3    3    0    0  0.85203839715E+02  0.20122201831E+03 -0.31096149990E+02  0.22071920057E+03  0.00000000000E+00 0.  1.
          1    1    3    3  501    0 -0.85236408648E+02 -0.20121981056E+03 -0.86043235936E+03  0.88774912140E+03  0.00000000000E+00 0.  1.
         21    1    1    2  502  501  0.32568932687E-01 -0.22077585160E-02  0.16656276697E+00  0.16973144940E+00  0.00000000000E+00 0. -1.
<mgrwt>
<rscale>  1 0.65869487E+03</rscale>
<asrwt>0</asrwt>
<pdfrwt beam="1">  1        1 0.39504830E+00 0.65869487E+03</pdfrwt>
<pdfrwt beam="2">0</pdfrwt>
<totfact> 0.14052350E+00</totfact>
</mgrwt>
</event>
