<event>
 6    1  0.1007353E-011  0.3000000E+03  0.7818608E-02  0.1093470E+00
          1   -1    0    0  502    0  0.00000000000E+00  0.00000000000E+00  0.21992480837E+03  0.21992480837E+03  0.00000000000E+00 0.  1.
         13   -1    0    0    0    0 -0.00000000000E+00 -0.00000000000E+00 -0.27500000000E+03  0.27500000000E+03  0.00000000000E+00 0.  1.
    9000005    2    1    2  501    0 -0.27299528790E+02 -0.13962916125E+02 -0.55326729161E+02  0.46426065063E+03  0.45993116601E+03 0.  0.
         13    1    3    3    0    0  0.76450016086E+02 -0.13111003948E+03 -0.20005392793E+03  0.25110958064E+03  0.00000000000E+00 0.  1.
          1    1    3    3  501    0 -0.10374954488E+03  0.11714712335E+03  0.14472719877E+03  0.21315106998E+03  0.00000000000E+00 0.  1.
         21    1    1    2  502  501  0.27299528790E+02  0.13962916125E+02  0.25153753112E+00  0.30664157742E+02  0.00000000000E+00 0.  1.
<scales pt_clust_4="550.00000" pt_clust_5="550.00000" pt_clust_6="30.66313"></scales>
<mgrwt>
<rscale>  0 0.30000000E+03</rscale>
<asrwt>  1 0.30663126E+02</asrwt>
<pdfrwt beam="1">  1        1 0.79972658E+00 0.30000000E+03</pdfrwt>
<pdfrwt beam="2">0</pdfrwt>
<totfact> 0.10681846E-03</totfact>
</mgrwt>
<clustering>
<clus scale="   30.663">  1  6  2 -1</clus>
<clus scale="  459.931">  4  5 -1 -1</clus>
<clus scale="  300.000">  1  4  2 -1</clus>
</clustering>
</event>
<event>
 6    1  0.1007353E-011  0.3000000E+03  0.7818608E-02  0.1093470E+00
          1   -1    0    0  502    0  0.00000000000E+00  0.00000000000E+00  0.23124386623E+03  0.23124386623E+03  0.00000000000E+00 0.  1.
         13   -1    0    0    0    0 -0.00000000000E+00 -0.00000000000E+00 -0.27500000000E+03  0.27500000000E+03  0.00000000000E+00 0.  1.
    9000005    2    1    2  501    0 -0.79509804729E+01 -0.37727732604E+02 -0.60946900968E+02  0.46402867495E+03  0.45839010301E+03 0.  0.
         13    1    3    3    0    0 -0.48511527860E+02  0.12513029848E+03  0.14551699396E+03  0.19795493291E+03  0.00000000000E+00 0.  1.
          3    1    3    3  501    0  0.40560547387E+02 -0.16285803108E+03 -0.20646389493E+03  0.26607374204E+03  0.00000000000E+00 0.  1.
         21    1    1    2  502  501  0.79509804729E+01  0.37727732604E+02  0.17190767195E+02  0.42215191278E+02  0.00000000000E+00 0. -1.
<scales pt_clust_4="550.00000" pt_clust_5="550.00000" pt_clust_6="38.55645"></scales>
<mgrwt>
<rscale>  0 0.30000000E+03</rscale>
<asrwt>  1 0.38556451E+02</asrwt>
<pdfrwt beam="1">  1        1 0.84088679E+00 0.30000000E+03</pdfrwt>
<pdfrwt beam="2">0</pdfrwt>
<totfact> 0.48050430E-04</totfact>
</mgrwt>
<clustering>
<clus scale="   38.556">  1  6  2 -1</clus>
<clus scale="  458.390">  4  5 -1 -1</clus>
<clus scale="  300.000">  1  4  2 -1</clus>
</clustering>
</event>
<event>
 6    1  0.1007353E-011  0.3000000E+03  0.7818608E-02  0.1093470E+00
          1   -1    0    0  502    0  0.00000000000E+00  0.00000000000E+00  0.25269185696E+03  0.25269185696E+03  0.00000000000E+00 0.  1.
         13   -1    0    0    0    0 -0.00000000000E+00 -0.00000000000E+00 -0.27500000000E+03  0.27500000000E+03  0.00000000000E+00 0.  1.
    9000005    2    1    2  501    0  0.36006985787E+02  0.39537059850E+01 -0.59236100185E+02  0.47596363608E+03  0.47087188543E+03 0.  0.
         13    1    3    3    0    0  0.15306429541E+03 -0.17917299848E+03 -0.97954243033E+02  0.25519928613E+03  0.00000000000E+00 0.  1.
          3    1    3    3  501    0 -0.11705730962E+03  0.18312670446E+03  0.38718142848E+02  0.22076434995E+03  0.00000000000E+00 0.  1.
         21    1    1    2  502  501 -0.36006985787E+02 -0.39537059850E+01  0.36927957144E+02  0.51728220879E+02  0.00000000000E+00 0.  1.
<scales pt_clust_4="550.00000" pt_clust_5="550.00000" pt_clust_6="36.22340"></scales>
<mgrwt>
<rscale>  0 0.30000000E+03</rscale>
<asrwt>  1 0.36223402E+02</asrwt>
<pdfrwt beam="1">  1        1 0.91887948E+00 0.30000000E+03</pdfrwt>
<pdfrwt beam="2">0</pdfrwt>
<totfact> 0.43945096E-05</totfact>
</mgrwt>
<clustering>
<clus scale="   36.223">  1  6  2 -1</clus>
<clus scale="  470.872">  4  5 -1 -1</clus>
<clus scale="  300.000">  1  4  2 -1</clus>
</clustering>
</event>
<event>
 6    1  0.1007353E-011  0.3000000E+03  0.7818608E-02  0.1093470E+00
          1   -1    0    0  502    0  0.00000000000E+00  0.00000000000E+00  0.23369060855E+03  0.23369060855E+03  0.00000000000E+00 0.  1.
         13   -1    0    0    0    0 -0.00000000000E+00 -0.00000000000E+00 -0.27500000000E+03  0.27500000000E+03  0.00000000000E+00 0.  1.
    9000005    2    1    2  501    0 -0.37131978629E+02 -0.27728415188E+02 -0.41569689934E+02  0.46234714513E+03  0.45813665499E+03 0.  0.
         13    1    3    3    0    0  0.11545808506E+03 -0.11147822902E+03  0.13843496811E+03  0.21194859128E+03  0.00000000000E+00 0.  1.
          3    1    3    3  501    0 -0.15259006369E+03  0.83749813836E+02 -0.18000465804E+03  0.25039855385E+03  0.00000000000E+00 0.  1.
         21    1    1    2  502  501  0.37131978629E+02  0.27728415188E+02  0.26029847967E+00  0.46343463412E+02  0.00000000000E+00 0.  1.
<scales pt_clust_4="550.00000" pt_clust_5="550.00000" pt_clust_6="46.34273"></scales>
<mgrwt>
<rscale>  0 0.30000000E+03</rscale>
<asrwt>  1 0.46342732E+02</asrwt>
<pdfrwt beam="1">  1        1 0.84978403E+00 0.30000000E+03</pdfrwt>
<pdfrwt beam="2">0</pdfrwt>
<totfact> 0.38848890E-04</totfact>
</mgrwt>
<clustering>
<clus scale="   46.343">  1  6  2 -1</clus>
<clus scale="  458.137">  4  5 -1 -1</clus>
<clus scale="  300.000">  1  4  2 -1</clus>
</clustering>
</event>
<event>
 6    1  0.1007353E-011  0.3000000E+03  0.7818608E-02  0.1093470E+00
          1   -1    0    0  502    0  0.00000000000E+00  0.00000000000E+00  0.23290860200E+03  0.23290860200E+03  0.00000000000E+00 0.  1.
         13   -1    0    0    0    0 -0.00000000000E+00 -0.00000000000E+00 -0.27500000000E+03  0.27500000000E+03  0.00000000000E+00 0.  1.
    9000005    2    1    2  501    0 -0.37567041106E+02 -0.80398889256E+01 -0.48484346721E+02  0.46896258571E+03  0.46486476800E+03 0.  0.
         13    1    3    3    0    0  0.49336316432E+02  0.98430025897E+02  0.17490978717E+03  0.20667843566E+03  0.00000000000E+00 0.  1.
          3    1    3    3  501    0 -0.86903357539E+02 -0.10646991482E+03 -0.22339413389E+03  0.26228415006E+03  0.00000000000E+00 0.  1.
         21    1    1    2  502  501  0.37567041106E+02  0.80398889256E+01  0.63929487224E+01  0.38946016289E+02  0.00000000000E+00 0. -1.
<scales pt_clust_4="550.00000" pt_clust_5="550.00000" pt_clust_6="38.41774"></scales>
<mgrwt>
<rscale>  0 0.30000000E+03</rscale>
<asrwt>  1 0.38417735E+02</asrwt>
<pdfrwt beam="1">  1        1 0.84694037E+00 0.30000000E+03</pdfrwt>
<pdfrwt beam="2">0</pdfrwt>
<totfact> 0.42681450E-04</totfact>
</mgrwt>
<clustering>
<clus scale="   38.418">  1  6  2 -1</clus>
<clus scale="  464.865">  4  5 -1 -1</clus>
<clus scale="  300.000">  1  4  2 -1</clus>
</clustering>
</event>
<event>
 6    1  0.1007353E-011  0.3000000E+03  0.7818608E-02  0.1093470E+00
          1   -1    0    0  502    0  0.00000000000E+00  0.00000000000E+00  0.22350069400E+03  0.22350069400E+03  0.00000000000E+00 0.  1.
         13   -1    0    0    0    0 -0.00000000000E+00 -0.00000000000E+00 -0.27500000000E+03  0.27500000000E+03  0.00000000000E+00 0.  1.
    9000005    2    1    2  501    0 -0.20125648613E+02  0.23635644838E+02 -0.56838287213E+02  0.46700164386E+03  0.46248919883E+03 0.  0.
         13    1    3    3    0    0 -0.17343866599E+03  0.81000622706E+02  0.12008293647E+03  0.22596898763E+03  0.00000000000E+00 0.  1.
          3    1    3    3  501    0  0.15331301738E+03 -0.57364977868E+02 -0.17692122368E+03  0.24103265623E+03  0.00000000000E+00 0.  1.
         21    1    1    2  502  501  0.20125648613E+02 -0.23635644838E+02  0.53389812096E+01  0.31499050134E+02  0.00000000000E+00 0. -1.
<scales pt_clust_4="550.00000" pt_clust_5="550.00000" pt_clust_6="31.04328"></scales>
<mgrwt>
<rscale>  0 0.30000000E+03</rscale>
<asrwt>  1 0.31043283E+02</asrwt>
<pdfrwt beam="1">  1        1 0.81272980E+00 0.30000000E+03</pdfrwt>
<pdfrwt beam="2">0</pdfrwt>
<totfact> 0.84912595E-04</totfact>
</mgrwt>
<clustering>
<clus scale="   31.043">  1  6  2 -1</clus>
<clus scale="  462.489">  4  5 -1 -1</clus>
<clus scale="  300.000">  1  4  2 -1</clus>
</clustering>
</event>
<event>
 6    1  0.1007353E-011  0.3000000E+03  0.7818608E-02  0.1093470E+00
          1   -1    0    0  502    0  0.00000000000E+00  0.00000000000E+00  0.23168583079E+03  0.23168583079E+03  0.00000000000E+00 0.  1.
         13   -1    0    0    0    0 -0.00000000000E+00 -0.00000000000E+00 -0.27500000000E+03  0.27500000000E+03  0.00000000000E+00 0.  1.
    9000005    2    1    2  501    0 -0.22742553972E+02 -0.23264116239E+02 -0.15881562575E+02  0.46413009355E+03  0.46271597859E+03 0.  0.
         13    1    3    3    0    0  0.21043013176E+03 -0.68957939117E+02 -0.40978915569E+02  0.22520059778E+03  0.00000000000E+00 0.  1.
          3    1    3    3  501    0 -0.23317268573E+03  0.45693822878E+02  0.25097352995E+02  0.23892949577E+03  0.00000000000E+00 0.  1.
         21    1    1    2  502  501  0.22742553972E+02  0.23264116239E+02 -0.27432606631E+02  0.42555737241E+02  0.00000000000E+00 0.  1.
<scales pt_clust_4="550.00000" pt_clust_5="550.00000" pt_clust_6="32.53374"></scales>
<mgrwt>
<rscale>  0 0.30000000E+03</rscale>
<asrwt>  1 0.32533735E+02</asrwt>
<pdfrwt beam="1">  1        1 0.84249393E+00 0.30000000E+03</pdfrwt>
<pdfrwt beam="2">0</pdfrwt>
<totfact> 0.48123701E-04</totfact>
</mgrwt>
<clustering>
<clus scale="   32.534">  1  6  2 -1</clus>
<clus scale="  462.716">  4  5 -1 -1</clus>
<clus scale="  300.000">  1  4  2 -1</clus>
</clustering>
</event>
<event>
 6    1  0.1007353E-011  0.3000000E+03  0.7818608E-02  0.1093470E+00
          1   -1    0    0  502    0  0.00000000000E+00  0.00000000000E+00  0.26774498211E+03  0.26774498211E+03  0.00000000000E+00 0.  1.
         13   -1    0    0    0    0 -0.00000000000E+00 -0.00000000000E+00 -0.27500000000E+03  0.27500000000E+03  0.00000000000E+00 0.  1.
    9000005    2    1    2  501    0  0.13862118538E+02  0.39652957354E+02 -0.47272811997E+02  0.48472826726E+03  0.48058532954E+03 0.  0.
         13    1    3    3    0    0  0.19238937380E+03  0.14587634821E+03 -0.11336318529E+03  0.26672981066E+03  0.00000000000E+00 0.  1.
          1    1    3    3  501    0 -0.17852725526E+03 -0.10622339085E+03  0.66090373297E+02  0.21799845659E+03  0.00000000000E+00 0.  1.
         21    1    1    2  502  501 -0.13862118538E+02 -0.39652957354E+02  0.40017794111E+02  0.58016714857E+02  0.00000000000E+00 0. -1.
<scales pt_clust_4="550.00000" pt_clust_5="550.00000" pt_clust_6="42.00613"></scales>
<mgrwt>
<rscale>  0 0.30000000E+03</rscale>
<asrwt>  1 0.42006135E+02</asrwt>
<pdfrwt beam="1">  1        1 0.97361812E+00 0.30000000E+03</pdfrwt>
<pdfrwt beam="2">0</pdfrwt>
<totfact> 0.42027462E-06</totfact>
</mgrwt>
<clustering>
<clus scale="   42.006">  1  6  2 -1</clus>
<clus scale="  480.585">  4  5 -1 -1</clus>
<clus scale="  300.000">  1  4  2 -1</clus>
</clustering>
</event>
<event>
 6    1  0.1007353E-011  0.3000000E+03  0.7818608E-02  0.1093470E+00
          1   -1    0    0  502    0  0.00000000000E+00  0.00000000000E+00  0.23911523392E+03  0.23911523392E+03  0.00000000000E+00 0.  1.
         13   -1    0    0    0    0 -0.00000000000E+00 -0.00000000000E+00 -0.27500000000E+03  0.27500000000E+03  0.00000000000E+00 0.  1.
    9000005    2    1    2  501    0 -0.23619217043E+02 -0.32481426535E+02 -0.42143186951E+02  0.47346946766E+03  0.46987698189E+03 0.  0.
         13    1    3    3    0    0  0.15704373709E+03  0.90321770228E+02  0.10565173495E+03  0.20972135474E+03  0.00000000000E+00 0.  1.
          3    1    3    3  501    0 -0.18066295413E+03 -0.12280319676E+03 -0.14779492190E+03  0.26374811292E+03  0.00000000000E+00 0.  1.
         21    1    1    2  502  501  0.23619217043E+02  0.32481426535E+02  0.62584208732E+01  0.40645766265E+02  0.00000000000E+00 0.  1.
<scales pt_clust_4="550.00000" pt_clust_5="550.00000" pt_clust_6="40.16106"></scales>
<mgrwt>
<rscale>  0 0.30000000E+03</rscale>
<asrwt>  1 0.40161057E+02</asrwt>
<pdfrwt beam="1">  1        1 0.86950994E+00 0.30000000E+03</pdfrwt>
<pdfrwt beam="2">0</pdfrwt>
<totfact> 0.24976792E-04</totfact>
</mgrwt>
<clustering>
<clus scale="   40.161">  1  6  2 -1</clus>
<clus scale="  469.877">  4  5 -1 -1</clus>
<clus scale="  300.000">  1  4  2 -1</clus>
</clustering>
</event>
<event>
 6    1  0.1007353E-011  0.3000000E+03  0.7818608E-02  0.1093470E+00
          1   -1    0    0  502    0  0.00000000000E+00  0.00000000000E+00  0.22198295286E+03  0.22198295286E+03  0.00000000000E+00 0.  1.
         13   -1    0    0    0    0 -0.00000000000E+00 -0.00000000000E+00 -0.27500000000E+03  0.27500000000E+03  0.00000000000E+00 0.  1.
    9000005    2    1    2  501    0  0.81614030981E+01  0.30363111319E+02 -0.60897164615E+02  0.46456963336E+03  0.45948661847E+03 0.  0.
         13    1    3    3    0    0  0.15049812351E+03  0.12931386821E+03 -0.16868861547E+03  0.26043734502E+03  0.00000000000E+00 0.  1.
          1    1    3    3  501    0 -0.14233672041E+03 -0.98950756891E+02  0.10779145086E+03  0.20413228834E+03  0.00000000000E+00 0.  1.
         21    1    1    2  502  501 -0.81614030981E+01 -0.30363111319E+02  0.78801174767E+01  0.32413319499E+02  0.00000000000E+00 0. -1.
<scales pt_clust_4="550.00000" pt_clust_5="550.00000" pt_clust_6="31.44085"></scales>
<mgrwt>
<rscale>  0 0.30000000E+03</rscale>
<asrwt>  1 0.31440850E+02</asrwt>
<pdfrwt beam="1">  1        1 0.80721074E+00 0.30000000E+03</pdfrwt>
<pdfrwt beam="2">0</pdfrwt>
<totfact> 0.93534373E-04</totfact>
</mgrwt>
<clustering>
<clus scale="   31.441">  1  6  2 -1</clus>
<clus scale="  459.487">  4  5 -1 -1</clus>
<clus scale="  300.000">  1  4  2 -1</clus>
</clustering>
</event>
<event>
 6    1  0.1007353E-011  0.3000000E+03  0.7818608E-02  0.1093470E+00
          1   -1    0    0  502    0  0.00000000000E+00  0.00000000000E+00  0.22615445255E+03  0.22615445255E+03  0.00000000000E+00 0.  1.
         13   -1    0    0    0    0 -0.00000000000E+00 -0.00000000000E+00 -0.27500000000E+03  0.27500000000E+03  0.00000000000E+00 0.  1.
    9000005    2    1    2  501    0 -0.25882044453E+02 -0.16554470560E+02 -0.55685039617E+02  0.46967891643E+03  0.46535312418E+03 0.  0.
         13    1    3    3    0    0 -0.67285148846E+02  0.21705864710E+03 -0.62749963915E+01  0.22733482600E+03  0.00000000000E+00 0.  1.
          3    1    3    3  501    0  0.41403104393E+02 -0.23361311766E+03 -0.49410043226E+02  0.24234409043E+03  0.00000000000E+00 0.  1.
         21    1    1    2  502  501  0.25882044453E+02  0.16554470560E+02  0.68394921639E+01  0.31475536114E+02  0.00000000000E+00 0.  1.
<scales pt_clust_4="550.00000" pt_clust_5="550.00000" pt_clust_6="30.72346"></scales>
<mgrwt>
<rscale>  0 0.30000000E+03</rscale>
<asrwt>  1 0.30723456E+02</asrwt>
<pdfrwt beam="1">  1        1 0.82237983E+00 0.30000000E+03</pdfrwt>
<pdfrwt beam="2">0</pdfrwt>
<totfact> 0.70652041E-04</totfact>
</mgrwt>
<clustering>
<clus scale="   30.723">  1  6  2 -1</clus>
<clus scale="  465.353">  4  5 -1 -1</clus>
<clus scale="  300.000">  1  4  2 -1</clus>
</clustering>
</event>
<event>
 6    1  0.1007353E-011  0.3000000E+03  0.7818608E-02  0.1093470E+00
          1   -1    0    0  502    0  0.00000000000E+00  0.00000000000E+00  0.22964466901E+03  0.22964466901E+03  0.00000000000E+00 0.  1.
         13   -1    0    0    0    0 -0.00000000000E+00 -0.00000000000E+00 -0.27500000000E+03  0.27500000000E+03  0.00000000000E+00 0.  1.
    9000005    2    1    2  501    0 -0.18315363086E+02 -0.30367763113E+02 -0.68151031501E+02  0.46248666238E+03  0.45606106633E+03 0.  0.
         13    1    3    3    0    0  0.95230233692E+02  0.10626770368E+03  0.13233481598E+03  0.19461275851E+03  0.00000000000E+00 0.  1.
          3    1    3    3  501    0 -0.11354559678E+03 -0.13663546680E+03 -0.20048584748E+03  0.26787390387E+03  0.00000000000E+00 0.  1.
         21    1    1    2  502  501  0.18315363086E+02  0.30367763113E+02  0.22795700506E+02  0.42158006630E+02  0.00000000000E+00 0. -1.
<scales pt_clust_4="550.00000" pt_clust_5="550.00000" pt_clust_6="35.46341"></scales>
<mgrwt>
<rscale>  0 0.30000000E+03</rscale>
<asrwt>  1 0.35463412E+02</asrwt>
<pdfrwt beam="1">  1        1 0.83507152E+00 0.30000000E+03</pdfrwt>
<pdfrwt beam="2">0</pdfrwt>
<totfact> 0.53901469E-04</totfact>
</mgrwt>
<clustering>
<clus scale="   35.463">  1  6  2 -1</clus>
<clus scale="  456.061">  4  5 -1 -1</clus>
<clus scale="  300.000">  1  4  2 -1</clus>
</clustering>
</event>
<event>
 6    1  0.1007353E-011  0.3000000E+03  0.7818608E-02  0.1093470E+00
          1   -1    0    0  502    0  0.00000000000E+00  0.00000000000E+00  0.23110585200E+03  0.23110585200E+03  0.00000000000E+00 0.  1.
         13   -1    0    0    0    0 -0.00000000000E+00 -0.00000000000E+00 -0.27500000000E+03  0.27500000000E+03  0.00000000000E+00 0.  1.
    9000005    2    1    2  501    0  0.33139803960E+02  0.19812967380E+02 -0.50335662178E+02  0.46696133275E+03  0.46263204289E+03 0.  0.
         13    1    3    3    0    0  0.99015090087E+02 -0.11438305938E+02  0.19067927886E+03  0.21515903489E+03  0.00000000000E+00 0.  1.
          3    1    3    3  501    0 -0.65875286127E+02  0.31251273318E+02 -0.24101494103E+03  0.25180229786E+03  0.00000000000E+00 0.  1.
         21    1    1    2  502  501 -0.33139803960E+02 -0.19812967380E+02  0.64415141809E+01  0.39144519257E+02  0.00000000000E+00 0. -1.
<scales pt_clust_4="550.00000" pt_clust_5="550.00000" pt_clust_6="38.61088"></scales>
<mgrwt>
<rscale>  0 0.30000000E+03</rscale>
<asrwt>  1 0.38610883E+02</asrwt>
<pdfrwt beam="1">  1        1 0.84038492E+00 0.30000000E+03</pdfrwt>
<pdfrwt beam="2">0</pdfrwt>
<totfact> 0.48474970E-04</totfact>
</mgrwt>
<clustering>
<clus scale="   38.611">  1  6  2 -1</clus>
<clus scale="  462.632">  4  5 -1 -1</clus>
<clus scale="  300.000">  1  4  2 -1</clus>
</clustering>
</event>
<event>
 6    1  0.1007353E-011  0.3000000E+03  0.7818608E-02  0.1093470E+00
          1   -1    0    0  502    0  0.00000000000E+00  0.00000000000E+00  0.22699466432E+03  0.22699466432E+03  0.00000000000E+00 0.  1.
         13   -1    0    0    0    0 -0.00000000000E+00 -0.00000000000E+00 -0.27500000000E+03  0.27500000000E+03  0.00000000000E+00 0.  1.
    9000005    2    1    2  501    0  0.20255964273E+02  0.27241348521E+02 -0.64697279420E+02  0.46416589030E+03  0.45837958135E+03 0.  0.
         13    1    3    3    0    0  0.16816475900E+03  0.54730304727E+02  0.12900835928E+03  0.21890168841E+03  0.00000000000E+00 0.  1.
          1    1    3    3  501    0 -0.14790879472E+03 -0.27488956206E+02 -0.19370563870E+03  0.24526420190E+03  0.00000000000E+00 0.  1.
         21    1    1    2  502  501 -0.20255964273E+02 -0.27241348521E+02  0.16691943744E+02  0.37828774020E+02  0.00000000000E+00 0. -1.
<scales pt_clust_4="550.00000" pt_clust_5="550.00000" pt_clust_6="33.94695"></scales>
<mgrwt>
<rscale>  0 0.30000000E+03</rscale>
<asrwt>  1 0.33946946E+02</asrwt>
<pdfrwt beam="1">  1        1 0.82543514E+00 0.30000000E+03</pdfrwt>
<pdfrwt beam="2">0</pdfrwt>
<totfact> 0.65108139E-04</totfact>
</mgrwt>
<clustering>
<clus scale="   33.947">  1  6  2 -1</clus>
<clus scale="  458.380">  4  5 -1 -1</clus>
<clus scale="  300.000">  1  4  2 -1</clus>
</clustering>
</event>
<event>
 6    1  0.1007353E-011  0.3000000E+03  0.7818608E-02  0.1093470E+00
          1   -1    0    0  502    0  0.00000000000E+00  0.00000000000E+00  0.22808570862E+03  0.22808570862E+03  0.00000000000E+00 0.  1.
         13   -1    0    0    0    0 -0.00000000000E+00 -0.00000000000E+00 -0.27500000000E+03  0.27500000000E+03  0.00000000000E+00 0.  1.
    9000005    2    1    2  501    0  0.25059733381E+02 -0.29147082421E+02 -0.46455941375E+02  0.46464415902E+03  0.46071520202E+03 0.  0.
         13    1    3    3    0    0  0.19057806690E+03  0.97436077706E+02 -0.11789743495E+03  0.24436365112E+03  0.00000000000E+00 0.  1.
          1    1    3    3  501    0 -0.16551833351E+03 -0.12658316013E+03  0.71441493578E+02  0.22028050790E+03  0.00000000000E+00 0.  1.
         21    1    1    2  502  501 -0.25059733381E+02  0.29147082421E+02 -0.45835000359E+00  0.38441549599E+02  0.00000000000E+00 0. -1.
<scales pt_clust_4="550.00000" pt_clust_5="550.00000" pt_clust_6="38.43882"></scales>
<mgrwt>
<rscale>  0 0.30000000E+03</rscale>
<asrwt>  1 0.38438817E+02</asrwt>
<pdfrwt beam="1">  1        1 0.82940258E+00 0.30000000E+03</pdfrwt>
<pdfrwt beam="2">0</pdfrwt>
<totfact> 0.58752414E-04</totfact>
</mgrwt>
<clustering>
<clus scale="   38.439">  1  6  2 -1</clus>
<clus scale="  460.715">  4  5 -1 -1</clus>
<clus scale="  300.000">  1  4  2 -1</clus>
</clustering>
</event>
<event>
 6    1  0.1007353E-011  0.3000000E+03  0.7818608E-02  0.1093470E+00
          1   -1    0    0  502    0  0.00000000000E+00  0.00000000000E+00  0.22075200016E+03  0.22075200016E+03  0.00000000000E+00 0.  1.
         13   -1    0    0    0    0 -0.00000000000E+00 -0.00000000000E+00 -0.27500000000E+03  0.27500000000E+03  0.00000000000E+00 0.  1.
    9000005    2    1    2  501    0  0.29468622615E+02 -0.10297090035E+02 -0.48617145789E+02  0.46403234853E+03  0.46042150670E+03 0.  0.
         13    1    3    3    0    0  0.18408392621E+03  0.35372914246E+02 -0.17709804746E+03  0.25787953266E+03  0.00000000000E+00 0.  1.
          3    1    3    3  501    0 -0.15461530359E+03 -0.45670004280E+02  0.12848090168E+03  0.20615281587E+03  0.00000000000E+00 0.  1.
         21    1    1    2  502  501 -0.29468622615E+02  0.10297090035E+02 -0.56308540530E+01  0.31719651628E+02  0.00000000000E+00 0.  1.
<scales pt_clust_4="550.00000" pt_clust_5="550.00000" pt_clust_6="31.21587"></scales>
<mgrwt>
<rscale>  0 0.30000000E+03</rscale>
<asrwt>  1 0.31215873E+02</asrwt>
<pdfrwt beam="1">  1        1 0.80273455E+00 0.30000000E+03</pdfrwt>
<pdfrwt beam="2">0</pdfrwt>
<totfact> 0.10123070E-03</totfact>
</mgrwt>
<clustering>
<clus scale="   31.216">  1  6  2 -1</clus>
<clus scale="  460.422">  4  5 -1 -1</clus>
<clus scale="  300.000">  1  4  2 -1</clus>
</clustering>
</event>
<event>
 6    1  0.1007353E-011  0.3000000E+03  0.7818608E-02  0.1093470E+00
          1   -1    0    0  502    0  0.00000000000E+00  0.00000000000E+00  0.25545479967E+03  0.25545479967E+03  0.00000000000E+00 0.  1.
         13   -1    0    0    0    0 -0.00000000000E+00 -0.00000000000E+00 -0.27500000000E+03  0.27500000000E+03  0.00000000000E+00 0.  1.
    9000005    2    1    2  501    0 -0.36905420729E+01 -0.35899198879E+02 -0.31115186716E+02  0.49255707987E+03  0.49024682509E+03 0.  0.
         13    1    3    3    0    0 -0.31764224611E+01 -0.22416919996E+02  0.22999090833E+03  0.23110263062E+03  0.00000000000E+00 0.  1.
          1    1    3    3  501    0 -0.51411961174E+00 -0.13482278882E+02 -0.26110609505E+03  0.26145444926E+03  0.00000000000E+00 0.  1.
         21    1    1    2  502  501  0.36905420729E+01  0.35899198879E+02  0.11569986386E+02  0.37897719798E+02  0.00000000000E+00 0.  1.
<scales pt_clust_4="550.00000" pt_clust_5="550.00000" pt_clust_6="36.08840"></scales>
<mgrwt>
<rscale>  0 0.30000000E+03</rscale>
<asrwt>  1 0.36088400E+02</asrwt>
<pdfrwt beam="1">  1        1 0.92892654E+00 0.30000000E+03</pdfrwt>
<pdfrwt beam="2">0</pdfrwt>
<totfact> 0.27245136E-05</totfact>
</mgrwt>
<clustering>
<clus scale="   36.088">  1  6  2 -1</clus>
<clus scale="  490.247">  4  5 -1 -1</clus>
<clus scale="  300.000">  1  4  2 -1</clus>
</clustering>
</event>
<event>
 6    1  0.1007353E-011  0.3000000E+03  0.7818608E-02  0.1093470E+00
          1   -1    0    0  502    0  0.00000000000E+00  0.00000000000E+00  0.24127852520E+03  0.24127852520E+03  0.00000000000E+00 0.  1.
         13   -1    0    0    0    0 -0.00000000000E+00 -0.00000000000E+00 -0.27500000000E+03  0.27500000000E+03  0.00000000000E+00 0.  1.
    9000005    2    1    2  501    0  0.23912419630E+02 -0.20688372289E+02 -0.33343834514E+02  0.48465645739E+03  0.48247306436E+03 0.  0.
         13    1    3    3    0    0 -0.15366969004E+03 -0.18301921447E+03  0.14231605393E+02  0.23940122200E+03  0.00000000000E+00 0.  1.
          1    1    3    3  501    0  0.17758210968E+03  0.16233084219E+03 -0.47575439907E+02  0.24525523538E+03  0.00000000000E+00 0.  1.
         21    1    1    2  502  501 -0.23912419630E+02  0.20688372289E+02 -0.37764028428E+00  0.31622067813E+02  0.00000000000E+00 0.  1.
<scales pt_clust_4="550.00000" pt_clust_5="550.00000" pt_clust_6="31.61981"></scales>
<mgrwt>
<rscale>  0 0.30000000E+03</rscale>
<asrwt>  1 0.31619813E+02</asrwt>
<pdfrwt beam="1">  1        1 0.87737646E+00 0.30000000E+03</pdfrwt>
<pdfrwt beam="2">0</pdfrwt>
<totfact> 0.21603169E-04</totfact>
</mgrwt>
<clustering>
<clus scale="   31.620">  1  6  2 -1</clus>
<clus scale="  482.473">  4  5 -1 -1</clus>
<clus scale="  300.000">  1  4  2 -1</clus>
</clustering>
</event>
<event>
 6    1  0.1007353E-011  0.3000000E+03  0.7818608E-02  0.1093470E+00
          1   -1    0    0  502    0  0.00000000000E+00  0.00000000000E+00  0.21981989988E+03  0.21981989988E+03  0.00000000000E+00 0.  1.
         13   -1    0    0    0    0 -0.00000000000E+00 -0.00000000000E+00 -0.27500000000E+03  0.27500000000E+03  0.00000000000E+00 0.  1.
    9000005    2    1    2  501    0  0.31395709600E+02  0.11016885004E+02 -0.59620960545E+02  0.46125230274E+03  0.45617098276E+03 0.  0.
         13    1    3    3    0    0  0.14568957046E+03 -0.39402997318E+02  0.15283341261E+03  0.21479315433E+03  0.00000000000E+00 0.  1.
          3    1    3    3  501    0 -0.11429386086E+03  0.50419882322E+02 -0.21245437315E+03  0.24645914841E+03  0.00000000000E+00 0.  1.
         21    1    1    2  502  501 -0.31395709600E+02 -0.11016885004E+02  0.44408604254E+01  0.33567597140E+02  0.00000000000E+00 0. -1.
<scales pt_clust_4="550.00000" pt_clust_5="550.00000" pt_clust_6="33.27255"></scales>
<mgrwt>
<rscale>  0 0.30000000E+03</rscale>
<asrwt>  1 0.33272546E+02</asrwt>
<pdfrwt beam="1">  1        1 0.79934509E+00 0.30000000E+03</pdfrwt>
<pdfrwt beam="2">0</pdfrwt>
<totfact> 0.10584154E-03</totfact>
</mgrwt>
<clustering>
<clus scale="   33.273">  1  6  2 -1</clus>
<clus scale="  456.171">  4  5 -1 -1</clus>
<clus scale="  300.000">  1  4  2 -1</clus>
</clustering>
</event>
<event>
 6    1  0.1007353E-011  0.3000000E+03  0.7818608E-02  0.1093470E+00
          1   -1    0    0  502    0  0.00000000000E+00  0.00000000000E+00  0.22933081172E+03  0.22933081172E+03  0.00000000000E+00 0.  1.
         13   -1    0    0    0    0 -0.00000000000E+00 -0.00000000000E+00 -0.27500000000E+03  0.27500000000E+03  0.00000000000E+00 0.  1.
    9000005    2    1    2  501    0  0.31437831247E+02 -0.12700787907E+02 -0.33333271862E+02  0.46825004009E+03  0.46582973906E+03 0.  0.
         13    1    3    3    0    0  0.24907152428E+03 -0.29342734159E+01 -0.12473747541E+02  0.24940093934E+03  0.00000000000E+00 0.  1.
          3    1    3    3  501    0 -0.21763369303E+03 -0.97665144909E+01 -0.20859524321E+02  0.21884910076E+03  0.00000000000E+00 0.  1.
         21    1    1    2  502  501 -0.31437831247E+02  0.12700787907E+02 -0.12335916421E+02  0.36080771623E+02  0.00000000000E+00 0.  1.
<scales pt_clust_4="550.00000" pt_clust_5="550.00000" pt_clust_6="33.90647"></scales>
<mgrwt>
<rscale>  0 0.30000000E+03</rscale>
<asrwt>  1 0.33906465E+02</asrwt>
<pdfrwt beam="1">  1        1 0.83393022E+00 0.30000000E+03</pdfrwt>
<pdfrwt beam="2">0</pdfrwt>
<totfact> 0.55416038E-04</totfact>
</mgrwt>
<clustering>
<clus scale="   33.906">  1  6  2 -1</clus>
<clus scale="  465.830">  4  5 -1 -1</clus>
<clus scale="  300.000">  1  4  2 -1</clus>
</clustering>
</event>
<event>
 6    1  0.1007353E-011  0.3000000E+03  0.7818608E-02  0.1093470E+00
          1   -1    0    0  502    0  0.00000000000E+00  0.00000000000E+00  0.23321191983E+03  0.23321191983E+03  0.00000000000E+00 0.  1.
         13   -1    0    0    0    0 -0.00000000000E+00 -0.00000000000E+00 -0.27500000000E+03  0.27500000000E+03  0.00000000000E+00 0.  1.
    9000005    2    1    2  501    0 -0.18396002873E+02 -0.33324586883E+02 -0.63946742424E+02  0.46416708670E+03  0.45816258849E+03 0.  0.
         13    1    3    3    0    0 -0.19382469283E+01  0.20682651176E+03  0.23267668608E+02  0.20814021037E+03  0.00000000000E+00 0.  1.
          3    1    3    3  501    0 -0.16457755945E+02 -0.24015109865E+03 -0.87214411031E+02  0.25602687633E+03  0.00000000000E+00 0.  1.
         21    1    1    2  502  501  0.18396002873E+02  0.33324586883E+02  0.22158662250E+02  0.44044833128E+02  0.00000000000E+00 0.  1.
<scales pt_clust_4="550.00000" pt_clust_5="550.00000" pt_clust_6="38.06496"></scales>
<mgrwt>
<rscale>  0 0.30000000E+03</rscale>
<asrwt>  1 0.38064958E+02</asrwt>
<pdfrwt beam="1">  1        1 0.84804334E+00 0.30000000E+03</pdfrwt>
<pdfrwt beam="2">0</pdfrwt>
<totfact> 0.41778771E-04</totfact>
</mgrwt>
<clustering>
<clus scale="   38.065">  1  6  2 -1</clus>
<clus scale="  458.163">  4  5 -1 -1</clus>
<clus scale="  300.000">  1  4  2 -1</clus>
</clustering>
</event>
<event>
 6    1  0.1007353E-011  0.3000000E+03  0.7818608E-02  0.1093470E+00
          1   -1    0    0  502    0  0.00000000000E+00  0.00000000000E+00  0.24247869756E+03  0.24247869756E+03  0.00000000000E+00 0.  1.
         13   -1    0    0    0    0 -0.00000000000E+00 -0.00000000000E+00 -0.27500000000E+03  0.27500000000E+03  0.00000000000E+00 0.  1.
    9000005    2    1    2  501    0  0.96663467107E+01  0.39819309200E+02 -0.13942833104E+02  0.47248786331E+03  0.47050118250E+03 0.  0.
         13    1    3    3    0    0  0.16691328738E+03 -0.21743088748E+02  0.15844832416E+03  0.23116807487E+03  0.00000000000E+00 0.  1.
          3    1    3    3  501    0 -0.15724694067E+03  0.61562397949E+02 -0.17239115726E+03  0.24131978844E+03  0.00000000000E+00 0.  1.
         21    1    1    2  502  501 -0.96663467107E+01 -0.39819309200E+02 -0.18578469332E+02  0.44990834252E+02  0.00000000000E+00 0.  1.
<scales pt_clust_4="550.00000" pt_clust_5="550.00000" pt_clust_6="40.97581"></scales>
<mgrwt>
<rscale>  0 0.30000000E+03</rscale>
<asrwt>  1 0.40975814E+02</asrwt>
<pdfrwt beam="1">  1        1 0.88174072E+00 0.30000000E+03</pdfrwt>
<pdfrwt beam="2">0</pdfrwt>
<totfact> 0.18224985E-04</totfact>
</mgrwt>
<clustering>
<clus scale="   40.976">  1  6  2 -1</clus>
<clus scale="  470.501">  4  5 -1 -1</clus>
<clus scale="  300.000">  1  4  2 -1</clus>
</clustering>
</event>
<event>
 6    1  0.1007353E-011  0.3000000E+03  0.7818608E-02  0.1093470E+00
          1   -1    0    0  502    0  0.00000000000E+00  0.00000000000E+00  0.22482454856E+03  0.22482454856E+03  0.00000000000E+00 0.  1.
         13   -1    0    0    0    0 -0.00000000000E+00 -0.00000000000E+00 -0.27500000000E+03  0.27500000000E+03  0.00000000000E+00 0.  1.
    9000005    2    1    2  501    0 -0.28448360522E+02  0.10575863252E+02 -0.42062302177E+02  0.46840829018E+03  0.46552758344E+03 0.  0.
         13    1    3    3    0    0  0.21610446279E+03  0.26118150280E+02 -0.49559218570E+02  0.22324742497E+03  0.00000000000E+00 0.  1.
          1    1    3    3  501    0 -0.24455282331E+03 -0.15542287028E+02  0.74969163930E+01  0.24516086521E+03  0.00000000000E+00 0.  1.
         21    1    1    2  502  501  0.28448360522E+02 -0.10575863252E+02 -0.81131492597E+01  0.31416258383E+02  0.00000000000E+00 0.  1.
<scales pt_clust_4="550.00000" pt_clust_5="550.00000" pt_clust_6="30.35060"></scales>
<mgrwt>
<rscale>  0 0.30000000E+03</rscale>
<asrwt>  1 0.30350602E+02</asrwt>
<pdfrwt beam="1">  1        1 0.81754381E+00 0.30000000E+03</pdfrwt>
<pdfrwt beam="2">0</pdfrwt>
<totfact> 0.77959854E-04</totfact>
</mgrwt>
<clustering>
<clus scale="   30.351">  1  6  2 -1</clus>
<clus scale="  465.528">  4  5 -1 -1</clus>
<clus scale="  300.000">  1  4  2 -1</clus>
</clustering>
</event>
<event>
 6    1  0.1007353E-011  0.3000000E+03  0.7818608E-02  0.1093470E+00
          1   -1    0    0  502    0  0.00000000000E+00  0.00000000000E+00  0.23583124149E+03  0.23583124149E+03  0.00000000000E+00 0.  1.
         13   -1    0    0    0    0 -0.00000000000E+00 -0.00000000000E+00 -0.27500000000E+03  0.27500000000E+03  0.00000000000E+00 0.  1.
    9000005    2    1    2  501    0  0.13115671296E+02  0.27596352116E+02 -0.15934519750E+01  0.46240105313E+03  0.46138770613E+03 0.  0.
         13    1    3    3    0    0  0.22442827001E+03  0.35967366969E+02 -0.73740415622E+02  0.23895470023E+03  0.00000000000E+00 0.  1.
          3    1    3    3  501    0 -0.21131259871E+03 -0.83710148527E+01  0.72146963647E+02  0.22344635291E+03  0.00000000000E+00 0.  1.
         21    1    1    2  502  501 -0.13115671296E+02 -0.27596352116E+02 -0.37575306531E+02  0.48430188360E+02  0.00000000000E+00 0.  1.
<scales pt_clust_4="550.00000" pt_clust_5="550.00000" pt_clust_6="30.55455"></scales>
<mgrwt>
<rscale>  0 0.30000000E+03</rscale>
<asrwt>  1 0.30554548E+02</asrwt>
<pdfrwt beam="1">  1        1 0.85756815E+00 0.30000000E+03</pdfrwt>
<pdfrwt beam="2">0</pdfrwt>
<totfact> 0.35205234E-04</totfact>
</mgrwt>
<clustering>
<clus scale="   30.555">  1  6  2 -1</clus>
<clus scale="  461.388">  4  5 -1 -1</clus>
<clus scale="  300.000">  1  4  2 -1</clus>
</clustering>
</event>
<event>
 6    1  0.1007353E-011  0.3000000E+03  0.7818608E-02  0.1093470E+00
          1   -1    0    0  502    0  0.00000000000E+00  0.00000000000E+00  0.25245008227E+03  0.25245008227E+03  0.00000000000E+00 0.  1.
         13   -1    0    0    0    0 -0.00000000000E+00 -0.00000000000E+00 -0.27500000000E+03  0.27500000000E+03  0.00000000000E+00 0.  1.
    9000005    2    1    2  501    0 -0.25635416967E+02  0.58884316919E+02 -0.19639314073E+02  0.46316159966E+03  0.45826676441E+03 0.  0.
         13    1    3    3    0    0  0.18291020390E+03  0.90910486332E+02  0.92495837366E+02  0.22422385945E+03  0.00000000000E+00 0.  1.
          3    1    3    3  501    0 -0.20854562087E+03 -0.32026169413E+02 -0.11213515144E+03  0.23893774022E+03  0.00000000000E+00 0.  1.
         21    1    1    2  502  501  0.25635416967E+02 -0.58884316919E+02 -0.29106036562E+01  0.64288482606E+02  0.00000000000E+00 0. -1.
<scales pt_clust_4="550.00000" pt_clust_5="550.00000" pt_clust_6="64.22259"></scales>
<mgrwt>
<rscale>  0 0.30000000E+03</rscale>
<asrwt>  1 0.64222593E+02</asrwt>
<pdfrwt beam="1">  1        1 0.91800030E+00 0.30000000E+03</pdfrwt>
<pdfrwt beam="2">0</pdfrwt>
<totfact> 0.41542929E-05</totfact>
</mgrwt>
<clustering>
<clus scale="   64.223">  1  6  2 -1</clus>
<clus scale="  458.267">  4  5 -1 -1</clus>
<clus scale="  300.000">  1  4  2 -1</clus>
</clustering>
</event>
<event>
 6    1  0.1007353E-011  0.3000000E+03  0.7818608E-02  0.1093470E+00
          1   -1    0    0  502    0  0.00000000000E+00  0.00000000000E+00  0.24573434357E+03  0.24573434357E+03  0.00000000000E+00 0.  1.
         13   -1    0    0    0    0 -0.00000000000E+00 -0.00000000000E+00 -0.27500000000E+03  0.27500000000E+03  0.00000000000E+00 0.  1.
    9000005    2    1    2  501    0  0.34029109300E+02 -0.15013738567E+02 -0.46750845529E+02  0.47963538417E+03  0.47590027061E+03 0.  0.
         13    1    3    3    0    0 -0.99912454140E+02  0.18809047178E+03  0.48377677760E+02  0.21840541150E+03  0.00000000000E+00 0.  1.
          3    1    3    3  501    0  0.13394156344E+03 -0.20310421035E+03 -0.95128523289E+02  0.26122997267E+03  0.00000000000E+00 0.  1.
         21    1    1    2  502  501 -0.34029109300E+02  0.15013738567E+02  0.17485189095E+02  0.41098959393E+02  0.00000000000E+00 0. -1.
<scales pt_clust_4="550.00000" pt_clust_5="550.00000" pt_clust_6="37.19399"></scales>
<mgrwt>
<rscale>  0 0.30000000E+03</rscale>
<asrwt>  1 0.37193986E+02</asrwt>
<pdfrwt beam="1">  1        1 0.89357943E+00 0.30000000E+03</pdfrwt>
<pdfrwt beam="2">0</pdfrwt>
<totfact> 0.12939917E-04</totfact>
</mgrwt>
<clustering>
<clus scale="   37.194">  1  6  2 -1</clus>
<clus scale="  475.900">  4  5 -1 -1</clus>
<clus scale="  300.000">  1  4  2 -1</clus>
</clustering>
</event>
<event>
 6    1  0.1007353E-011  0.3000000E+03  0.7818608E-02  0.1093470E+00
          1   -1    0    0  502    0  0.00000000000E+00  0.00000000000E+00  0.23718323279E+03  0.23718323279E+03  0.00000000000E+00 0.  1.
         13   -1    0    0    0    0 -0.00000000000E+00 -0.00000000000E+00 -0.27500000000E+03  0.27500000000E+03  0.00000000000E+00 0.  1.
    9000005    2    1    2  501    0 -0.13596559341E+02 -0.34736385079E+02 -0.45337924154E+02  0.47412997174E+03  0.47048083900E+03 0.  0.
         13    1    3    3    0    0 -0.62700272333E+02 -0.50237507624E+02  0.20414622454E+03  0.21938735678E+03  0.00000000000E+00 0.  1.
          1    1    3    3  501    0  0.49103712993E+02  0.15501122545E+02 -0.24948414869E+03  0.25474261496E+03  0.00000000000E+00 0.  1.
         21    1    1    2  502  501  0.13596559341E+02  0.34736385079E+02  0.75211569414E+01  0.38053261043E+02  0.00000000000E+00 0.  1.
<scales pt_clust_4="550.00000" pt_clust_5="550.00000" pt_clust_6="37.30259"></scales>
<mgrwt>
<rscale>  0 0.30000000E+03</rscale>
<asrwt>  1 0.37302585E+02</asrwt>
<pdfrwt beam="1">  1        1 0.86248448E+00 0.30000000E+03</pdfrwt>
<pdfrwt beam="2">0</pdfrwt>
<totfact> 0.30057471E-04</totfact>
</mgrwt>
<clustering>
<clus scale="   37.303">  1  6  2 -1</clus>
<clus scale="  470.481">  4  5 -1 -1</clus>
<clus scale="  300.000">  1  4  2 -1</clus>
</clustering>
</event>
<event>
 6    1  0.1007353E-011  0.3000000E+03  0.7818608E-02  0.1093470E+00
          1   -1    0    0  502    0  0.00000000000E+00  0.00000000000E+00  0.24321895650E+03  0.24321895650E+03  0.00000000000E+00 0.  1.
         13   -1    0    0    0    0 -0.00000000000E+00 -0.00000000000E+00 -0.27500000000E+03  0.27500000000E+03  0.00000000000E+00 0.  1.
    9000005    2    1    2  501    0  0.77716588623E+01 -0.35381243772E+02 -0.53547036278E+02  0.47595798711E+03  0.47154691104E+03 0.  0.
         13    1    3    3    0    0 -0.22246042350E+03  0.26736473820E+02  0.23657751651E+02  0.22530683138E+03  0.00000000000E+00 0.  1.
          3    1    3    3  501    0  0.23023208236E+03 -0.62117717592E+02 -0.77204787929E+02  0.25065115572E+03  0.00000000000E+00 0.  1.
         21    1    1    2  502  501 -0.77716588623E+01  0.35381243772E+02  0.21765992780E+02  0.42260969393E+02  0.00000000000E+00 0.  1.
<scales pt_clust_4="550.00000" pt_clust_5="550.00000" pt_clust_6="36.22473"></scales>
<mgrwt>
<rscale>  0 0.30000000E+03</rscale>
<asrwt>  1 0.36224730E+02</asrwt>
<pdfrwt beam="1">  1        1 0.88443257E+00 0.30000000E+03</pdfrwt>
<pdfrwt beam="2">0</pdfrwt>
<totfact> 0.17165928E-04</totfact>
</mgrwt>
<clustering>
<clus scale="   36.225">  1  6  2 -1</clus>
<clus scale="  471.547">  4  5 -1 -1</clus>
<clus scale="  300.000">  1  4  2 -1</clus>
</clustering>
</event>
<event>
 6    1  0.1007353E-011  0.3000000E+03  0.7818608E-02  0.1093470E+00
          1   -1    0    0  502    0  0.00000000000E+00  0.00000000000E+00  0.25756569122E+03  0.25756569122E+03  0.00000000000E+00 0.  1.
         13   -1    0    0    0    0 -0.00000000000E+00 -0.00000000000E+00 -0.27500000000E+03  0.27500000000E+03  0.00000000000E+00 0.  1.
    9000005    2    1    2  501    0 -0.43602874756E+02  0.26885254519E+02 -0.46343006569E+02  0.47374613320E+03  0.46868293853E+03 0.  0.
         13    1    3    3    0    0  0.19137801119E+03 -0.83289792687E+02  0.68249557541E+01  0.20882842899E+03  0.00000000000E+00 0.  1.
          3    1    3    3  501    0 -0.23498088595E+03  0.11017504721E+03 -0.53167962323E+02  0.26491770421E+03  0.00000000000E+00 0.  1.
         21    1    1    2  502  501  0.43602874756E+02 -0.26885254519E+02  0.28908697788E+02  0.58819558018E+02  0.00000000000E+00 0. -1.
<scales pt_clust_4="550.00000" pt_clust_5="550.00000" pt_clust_6="51.22526"></scales>
<mgrwt>
<rscale>  0 0.30000000E+03</rscale>
<asrwt>  1 0.51225263E+02</asrwt>
<pdfrwt beam="1">  1        1 0.93660251E+00 0.30000000E+03</pdfrwt>
<pdfrwt beam="2">0</pdfrwt>
<totfact> 0.20088448E-05</totfact>
</mgrwt>
<clustering>
<clus scale="   51.225">  1  6  2 -1</clus>
<clus scale="  468.683">  4  5 -1 -1</clus>
<clus scale="  300.000">  1  4  2 -1</clus>
</clustering>
</event>
<event>
 6    1  0.1007353E-011  0.3000000E+03  0.7818608E-02  0.1093470E+00
          1   -1    0    0  502    0  0.00000000000E+00  0.00000000000E+00  0.24440542528E+03  0.24440542528E+03  0.00000000000E+00 0.  1.
         13   -1    0    0    0    0 -0.00000000000E+00 -0.00000000000E+00 -0.27500000000E+03  0.27500000000E+03  0.00000000000E+00 0.  1.
    9000005    2    1    2  501    0 -0.46785213920E+02 -0.67550100404E+01 -0.45562804442E+02  0.46982181606E+03  0.46521186926E+03 0.  0.
         13    1    3    3    0    0  0.12929197455E+03 -0.11083009440E+03  0.11862639928E+03  0.20753782093E+03  0.00000000000E+00 0.  1.
          1    1    3    3  501    0 -0.17607718847E+03  0.10407508436E+03 -0.16418920372E+03  0.26228399514E+03  0.00000000000E+00 0.  1.
         21    1    1    2  502  501  0.46785213920E+02  0.67550100404E+01  0.14968229724E+02  0.49583609219E+02  0.00000000000E+00 0. -1.
<scales pt_clust_4="550.00000" pt_clust_5="550.00000" pt_clust_6="47.27035"></scales>
<mgrwt>
<rscale>  0 0.30000000E+03</rscale>
<asrwt>  1 0.47270354E+02</asrwt>
<pdfrwt beam="1">  1        1 0.88874700E+00 0.30000000E+03</pdfrwt>
<pdfrwt beam="2">0</pdfrwt>
<totfact> 0.14268347E-04</totfact>
</mgrwt>
<clustering>
<clus scale="   47.270">  1  6  2 -1</clus>
<clus scale="  465.212">  4  5 -1 -1</clus>
<clus scale="  300.000">  1  4  2 -1</clus>
</clustering>
</event>
<event>
 6    1  0.1007353E-011  0.3000000E+03  0.7818608E-02  0.1093470E+00
          1   -1    0    0  502    0  0.00000000000E+00  0.00000000000E+00  0.22504697863E+03  0.22504697863E+03  0.00000000000E+00 0.  1.
         13   -1    0    0    0    0 -0.00000000000E+00 -0.00000000000E+00 -0.27500000000E+03  0.27500000000E+03  0.00000000000E+00 0.  1.
    9000005    2    1    2  501    0 -0.11361864059E+02  0.31096000859E+02 -0.44925251009E+02  0.46656068742E+03  0.46321112210E+03 0.  0.
         13    1    3    3    0    0  0.42913074134E+02  0.13492601721E+03 -0.21656837500E+03  0.25874393346E+03  0.00000000000E+00 0.  1.
          3    1    3    3  501    0 -0.54274938193E+02 -0.10383001635E+03  0.17164312399E+03  0.20781675396E+03  0.00000000000E+00 0.  1.
         21    1    1    2  502  501  0.11361864059E+02 -0.31096000859E+02 -0.50277703635E+01  0.33486291212E+02  0.00000000000E+00 0.  1.
<scales pt_clust_4="550.00000" pt_clust_5="550.00000" pt_clust_6="33.10671"></scales>
<mgrwt>
<rscale>  0 0.30000000E+03</rscale>
<asrwt>  1 0.33106711E+02</asrwt>
<pdfrwt beam="1">  1        1 0.81835265E+00 0.30000000E+03</pdfrwt>
<pdfrwt beam="2">0</pdfrwt>
<totfact> 0.75496448E-04</totfact>
</mgrwt>
<clustering>
<clus scale="   33.107">  1  6  2 -1</clus>
<clus scale="  463.211">  4  5 -1 -1</clus>
<clus scale="  300.000">  1  4  2 -1</clus>
</clustering>
</event>
<event>
 6    1  0.1007353E-011  0.3000000E+03  0.7818608E-02  0.1093470E+00
          1   -1    0    0  502    0  0.00000000000E+00  0.00000000000E+00  0.22449104889E+03  0.22449104889E+03  0.00000000000E+00 0.  1.
         13   -1    0    0    0    0 -0.00000000000E+00 -0.00000000000E+00 -0.27500000000E+03  0.27500000000E+03  0.00000000000E+00 0.  1.
    9000005    2    1    2  501    0  0.11882429704E+02 -0.28239458156E+02 -0.62872836594E+02  0.46645281654E+03  0.46117955001E+03 0.  0.
         13    1    3    3    0    0 -0.20551667873E+03 -0.96848457819E+02  0.91514128381E+01  0.22737738976E+03  0.00000000000E+00 0.  1.
          1    1    3    3  501    0  0.21739910843E+03  0.68608999663E+02 -0.72024249432E+02  0.23907542678E+03  0.00000000000E+00 0.  1.
         21    1    1    2  502  501 -0.11882429704E+02  0.28239458156E+02  0.12363885484E+02  0.33038232351E+02  0.00000000000E+00 0. -1.
<scales pt_clust_4="550.00000" pt_clust_5="550.00000" pt_clust_6="30.63754"></scales>
<mgrwt>
<rscale>  0 0.30000000E+03</rscale>
<asrwt>  1 0.30637544E+02</asrwt>
<pdfrwt beam="1">  1        1 0.81633109E+00 0.30000000E+03</pdfrwt>
<pdfrwt beam="2">0</pdfrwt>
<totfact> 0.79627519E-04</totfact>
</mgrwt>
<clustering>
<clus scale="   30.638">  1  6  2 -1</clus>
<clus scale="  461.180">  4  5 -1 -1</clus>
<clus scale="  300.000">  1  4  2 -1</clus>
</clustering>
</event>
<event>
 6    1  0.1007353E-011  0.3000000E+03  0.7818608E-02  0.1093470E+00
          1   -1    0    0  502    0  0.00000000000E+00  0.00000000000E+00  0.22217900991E+03  0.22217900991E+03  0.00000000000E+00 0.  1.
         13   -1    0    0    0    0 -0.00000000000E+00 -0.00000000000E+00 -0.27500000000E+03  0.27500000000E+03  0.00000000000E+00 0.  1.
    9000005    2    1    2  501    0 -0.10278260055E+02  0.30722809848E+02 -0.56139220122E+02  0.46461301038E+03  0.46006967267E+03 0.  0.
         13    1    3    3    0    0  0.14970848918E+03  0.30725080629E+02  0.14291105597E+03  0.20923726301E+03  0.00000000000E+00 0.  1.
          1    1    3    3  501    0 -0.15998674923E+03 -0.22707817191E-02 -0.19905027610E+03  0.25537574738E+03  0.00000000000E+00 0.  1.
         21    1    1    2  502  501  0.10278260055E+02 -0.30722809848E+02  0.33182300339E+01  0.32565999528E+02  0.00000000000E+00 0. -1.
<scales pt_clust_4="550.00000" pt_clust_5="550.00000" pt_clust_6="32.39651"></scales>
<mgrwt>
<rscale>  0 0.30000000E+03</rscale>
<asrwt>  1 0.32396507E+02</asrwt>
<pdfrwt beam="1">  1        1 0.80792367E+00 0.30000000E+03</pdfrwt>
<pdfrwt beam="2">0</pdfrwt>
<totfact> 0.91835236E-04</totfact>
</mgrwt>
<clustering>
<clus scale="   32.397">  1  6  2 -1</clus>
<clus scale="  460.070">  4  5 -1 -1</clus>
<clus scale="  300.000">  1  4  2 -1</clus>
</clustering>
</event>
<event>
 6    1  0.1007353E-011  0.3000000E+03  0.7818608E-02  0.1093470E+00
          1   -1    0    0  502    0  0.00000000000E+00  0.00000000000E+00  0.22254620880E+03  0.22254620880E+03  0.00000000000E+00 0.  1.
         13   -1    0    0    0    0 -0.00000000000E+00 -0.00000000000E+00 -0.27500000000E+03  0.27500000000E+03  0.00000000000E+00 0.  1.
    9000005    2    1    2  501    0 -0.31156581431E+02 -0.19107813986E+02 -0.49267844623E+02  0.46085845365E+03  0.45675743307E+03 0.  0.
         13    1    3    3    0    0 -0.13044084772E+03  0.95935034193E+02  0.14283578246E+03  0.21591759143E+03  0.00000000000E+00 0.  1.
          3    1    3    3  501    0  0.99284266287E+02 -0.11504284818E+03 -0.19210362708E+03  0.24494086222E+03  0.00000000000E+00 0.  1.
         21    1    1    2  502  501  0.31156581431E+02  0.19107813986E+02 -0.31859465798E+01  0.36687755143E+02  0.00000000000E+00 0.  1.
<scales pt_clust_4="550.00000" pt_clust_5="550.00000" pt_clust_6="36.54916"></scales>
<mgrwt>
<rscale>  0 0.30000000E+03</rscale>
<asrwt>  1 0.36549160E+02</asrwt>
<pdfrwt beam="1">  1        1 0.80925894E+00 0.30000000E+03</pdfrwt>
<pdfrwt beam="2">0</pdfrwt>
<totfact> 0.87669991E-04</totfact>
</mgrwt>
<clustering>
<clus scale="   36.549">  1  6  2 -1</clus>
<clus scale="  456.757">  4  5 -1 -1</clus>
<clus scale="  300.000">  1  4  2 -1</clus>
</clustering>
</event>
<event>
 6    1  0.1007353E-011  0.3000000E+03  0.7818608E-02  0.1093470E+00
          1   -1    0    0  502    0  0.00000000000E+00  0.00000000000E+00  0.23649025381E+03  0.23649025381E+03  0.00000000000E+00 0.  1.
         13   -1    0    0    0    0 -0.00000000000E+00 -0.00000000000E+00 -0.27500000000E+03  0.27500000000E+03  0.00000000000E+00 0.  1.
    9000005    2    1    2  501    0 -0.31245169212E+02  0.10623557829E+02 -0.60582039310E+02  0.47178752464E+03  0.46671636391E+03 0.  0.
         13    1    3    3    0    0  0.16281407375E+03  0.69836429428E+02 -0.16631829315E+03  0.24299655166E+03  0.00000000000E+00 0.  1.
          3    1    3    3  501    0 -0.19405924296E+03 -0.59212871599E+02  0.10573625384E+03  0.22879097298E+03  0.00000000000E+00 0.  1.
         21    1    1    2  502  501  0.31245169212E+02 -0.10623557829E+02  0.22072293118E+02  0.39702729169E+02  0.00000000000E+00 0.  1.
<scales pt_clust_4="550.00000" pt_clust_5="550.00000" pt_clust_6="33.00183"></scales>
<mgrwt>
<rscale>  0 0.30000000E+03</rscale>
<asrwt>  1 0.33001827E+02</asrwt>
<pdfrwt beam="1">  1        1 0.85996456E+00 0.30000000E+03</pdfrwt>
<pdfrwt beam="2">0</pdfrwt>
<totfact> 0.32734386E-04</totfact>
</mgrwt>
<clustering>
<clus scale="   33.002">  1  6  2 -1</clus>
<clus scale="  466.716">  4  5 -1 -1</clus>
<clus scale="  300.000">  1  4  2 -1</clus>
</clustering>
</event>
<event>
 6    1  0.1007353E-011  0.3000000E+03  0.7818608E-02  0.1093470E+00
          1   -1    0    0  502    0  0.00000000000E+00  0.00000000000E+00  0.22811387886E+03  0.22811387886E+03  0.00000000000E+00 0.  1.
         13   -1    0    0    0    0 -0.00000000000E+00 -0.00000000000E+00 -0.27500000000E+03  0.27500000000E+03  0.00000000000E+00 0.  1.
    9000005    2    1    2  501    0 -0.25378452389E+02  0.19388147081E+02 -0.42329212096E+02  0.47085350823E+03  0.46785820279E+03 0.  0.
         13    1    3    3    0    0 -0.96123178733E+02 -0.58248046379E+02 -0.22988500969E+03  0.25588985536E+03  0.00000000000E+00 0.  1.
          3    1    3    3  501    0  0.70744726344E+02  0.77636193460E+02  0.18755579760E+03  0.21496365286E+03  0.00000000000E+00 0.  1.
         21    1    1    2  502  501  0.25378452389E+02 -0.19388147081E+02 -0.45569090479E+01  0.32260370627E+02  0.00000000000E+00 0. -1.
<scales pt_clust_4="550.00000" pt_clust_5="550.00000" pt_clust_6="31.93692"></scales>
<mgrwt>
<rscale>  0 0.30000000E+03</rscale>
<asrwt>  1 0.31936924E+02</asrwt>
<pdfrwt beam="1">  1        1 0.82950501E+00 0.30000000E+03</pdfrwt>
<pdfrwt beam="2">0</pdfrwt>
<totfact> 0.60703917E-04</totfact>
</mgrwt>
<clustering>
<clus scale="   31.937">  1  6  2 -1</clus>
<clus scale="  467.858">  4  5 -1 -1</clus>
<clus scale="  300.000">  1  4  2 -1</clus>
</clustering>
</event>
<event>
 6    1  0.1007353E-011  0.3000000E+03  0.7818608E-02  0.1093470E+00
          1   -1    0    0  502    0  0.00000000000E+00  0.00000000000E+00  0.22872094806E+03  0.22872094806E+03  0.00000000000E+00 0.  1.
         13   -1    0    0    0    0 -0.00000000000E+00 -0.00000000000E+00 -0.27500000000E+03  0.27500000000E+03  0.00000000000E+00 0.  1.
    9000005    2    1    2  501    0 -0.35909031235E+02  0.18155093008E+02 -0.54146868716E+02  0.46272133261E+03  0.45777732833E+03 0.  0.
         13    1    3    3    0    0 -0.60085714446E+02 -0.98448716819E+02  0.17202713481E+03  0.20711295960E+03  0.00000000000E+00 0.  1.
          1    1    3    3  501    0  0.24176683211E+02  0.11660380983E+03 -0.22617400353E+03  0.25560837300E+03  0.00000000000E+00 0.  1.
         21    1    1    2  502  501  0.35909031235E+02 -0.18155093008E+02  0.78678167751E+01  0.40999615452E+02  0.00000000000E+00 0.  1.
<scales pt_clust_4="550.00000" pt_clust_5="550.00000" pt_clust_6="40.23762"></scales>
<mgrwt>
<rscale>  0 0.30000000E+03</rscale>
<asrwt>  1 0.40237618E+02</asrwt>
<pdfrwt beam="1">  1        1 0.83171254E+00 0.30000000E+03</pdfrwt>
<pdfrwt beam="2">0</pdfrwt>
<totfact> 0.55806463E-04</totfact>
</mgrwt>
<clustering>
<clus scale="   40.238">  1  6  2 -1</clus>
<clus scale="  457.777">  4  5 -1 -1</clus>
<clus scale="  300.000">  1  4  2 -1</clus>
</clustering>
</event>
<event>
 6    1  0.1007353E-011  0.3000000E+03  0.7818608E-02  0.1093470E+00
          1   -1    0    0  502    0  0.00000000000E+00  0.00000000000E+00  0.22262484176E+03  0.22262484176E+03  0.00000000000E+00 0.  1.
         13   -1    0    0    0    0 -0.00000000000E+00 -0.00000000000E+00 -0.27500000000E+03  0.27500000000E+03  0.00000000000E+00 0.  1.
    9000005    2    1    2  501    0 -0.13032930720E+02  0.27186344667E+02 -0.57487977355E+02  0.46704550987E+03  0.46251236322E+03 0.  0.
         13    1    3    3    0    0  0.47080772437E+02 -0.14314945665E+03  0.13554138068E+03  0.20268160239E+03  0.00000000000E+00 0.  1.
          1    1    3    3  501    0 -0.60113703157E+02  0.17033580131E+03 -0.19302935803E+03  0.26436390748E+03  0.00000000000E+00 0.  1.
         21    1    1    2  502  501  0.13032930720E+02 -0.27186344667E+02  0.51128191135E+01  0.30579331890E+02  0.00000000000E+00 0.  1.
<scales pt_clust_4="550.00000" pt_clust_5="550.00000" pt_clust_6="30.14887"></scales>
<mgrwt>
<rscale>  0 0.30000000E+03</rscale>
<asrwt>  1 0.30148874E+02</asrwt>
<pdfrwt beam="1">  1        1 0.80954488E+00 0.30000000E+03</pdfrwt>
<pdfrwt beam="2">0</pdfrwt>
<totfact> 0.90453367E-04</totfact>
</mgrwt>
<clustering>
<clus scale="   30.149">  1  6  2 -1</clus>
<clus scale="  462.512">  4  5 -1 -1</clus>
<clus scale="  300.000">  1  4  2 -1</clus>
</clustering>
</event>
<event>
 6    1  0.1007353E-011  0.3000000E+03  0.7818608E-02  0.1093470E+00
          1   -1    0    0  502    0  0.00000000000E+00  0.00000000000E+00  0.23657816068E+03  0.23657816068E+03  0.00000000000E+00 0.  1.
         13   -1    0    0    0    0 -0.00000000000E+00 -0.00000000000E+00 -0.27500000000E+03  0.27500000000E+03  0.00000000000E+00 0.  1.
    9000005    2    1    2  501    0  0.35853104128E+02 -0.18161176826E+02 -0.14990991204E+02  0.46505635867E+03  0.46307387478E+03 0.  0.
         13    1    3    3    0    0 -0.18773245998E+03 -0.34308896064E+02 -0.11146631142E+03  0.22100976327E+03  0.00000000000E+00 0.  1.
          1    1    3    3  501    0  0.22358556411E+03  0.16147719238E+02  0.96475320217E+02  0.24404659540E+03  0.00000000000E+00 0.  1.
         21    1    1    2  502  501 -0.35853104128E+02  0.18161176826E+02 -0.23430848115E+02  0.46521802015E+02  0.00000000000E+00 0.  1.
<scales pt_clust_4="550.00000" pt_clust_5="550.00000" pt_clust_6="40.19048"></scales>
<mgrwt>
<rscale>  0 0.30000000E+03</rscale>
<asrwt>  1 0.40190484E+02</asrwt>
<pdfrwt beam="1">  1        1 0.86028422E+00 0.30000000E+03</pdfrwt>
<pdfrwt beam="2">0</pdfrwt>
<totfact> 0.31311133E-04</totfact>
</mgrwt>
<clustering>
<clus scale="   40.190">  1  6  2 -1</clus>
<clus scale="  463.074">  4  5 -1 -1</clus>
<clus scale="  300.000">  1  4  2 -1</clus>
</clustering>
</event>
<event>
 6    1  0.1007353E-011  0.3000000E+03  0.7818608E-02  0.1093470E+00
          1   -1    0    0  502    0  0.00000000000E+00  0.00000000000E+00  0.22367998145E+03  0.22367998145E+03  0.00000000000E+00 0.  1.
         13   -1    0    0    0    0 -0.00000000000E+00 -0.00000000000E+00 -0.27500000000E+03  0.27500000000E+03  0.00000000000E+00 0.  1.
    9000005    2    1    2  501    0 -0.17697283080E+02  0.29022293297E+02 -0.44630036234E+02  0.46403545518E+03  0.46063171427E+03 0.  0.
         13    1    3    3    0    0  0.44360858842E+02  0.21369099779E+03  0.80358425244E+02  0.23257085983E+03  0.00000000000E+00 0.  1.
          3    1    3    3  501    0 -0.62058141922E+02 -0.18466870450E+03 -0.12498846148E+03  0.23146459535E+03  0.00000000000E+00 0.  1.
         21    1    1    2  502  501  0.17697283080E+02 -0.29022293297E+02 -0.66899823197E+01  0.34644526264E+02  0.00000000000E+00 0.  1.
<scales pt_clust_4="550.00000" pt_clust_5="550.00000" pt_clust_6="33.99248"></scales>
<mgrwt>
<rscale>  0 0.30000000E+03</rscale>
<asrwt>  1 0.33992477E+02</asrwt>
<pdfrwt beam="1">  1        1 0.81338175E+00 0.30000000E+03</pdfrwt>
<pdfrwt beam="2">0</pdfrwt>
<totfact> 0.82472356E-04</totfact>
</mgrwt>
<clustering>
<clus scale="   33.992">  1  6  2 -1</clus>
<clus scale="  460.632">  4  5 -1 -1</clus>
<clus scale="  300.000">  1  4  2 -1</clus>
</clustering>
</event>
<event>
 6    1  0.1007353E-011  0.3000000E+03  0.7818608E-02  0.1093470E+00
          1   -1    0    0  502    0  0.00000000000E+00  0.00000000000E+00  0.22950734052E+03  0.22950734052E+03  0.00000000000E+00 0.  1.
         13   -1    0    0    0    0 -0.00000000000E+00 -0.00000000000E+00 -0.27500000000E+03  0.27500000000E+03  0.00000000000E+00 0.  1.
    9000005    2    1    2  501    0  0.16204840762E+02 -0.27146161119E+02 -0.61035962244E+02  0.46927801767E+03  0.46421649933E+03 0.  0.
         13    1    3    3    0    0  0.67217251720E+02 -0.20179929211E+03  0.91790808702E+02  0.23166066949E+03  0.00000000000E+00 0.  1.
          1    1    3    3  501    0 -0.51012410958E+02  0.17465313100E+03 -0.15282677095E+03  0.23761734818E+03  0.00000000000E+00 0.  1.
         21    1    1    2  502  501 -0.16204840762E+02  0.27146161119E+02  0.15543302763E+02  0.35229322849E+02  0.00000000000E+00 0. -1.
<scales pt_clust_4="550.00000" pt_clust_5="550.00000" pt_clust_6="31.61504"></scales>
<mgrwt>
<rscale>  0 0.30000000E+03</rscale>
<asrwt>  1 0.31615043E+02</asrwt>
<pdfrwt beam="1">  1        1 0.83457215E+00 0.30000000E+03</pdfrwt>
<pdfrwt beam="2">0</pdfrwt>
<totfact> 0.55546931E-04</totfact>
</mgrwt>
<clustering>
<clus scale="   31.615">  1  6  2 -1</clus>
<clus scale="  464.216">  4  5 -1 -1</clus>
<clus scale="  300.000">  1  4  2 -1</clus>
</clustering>
</event>
<event>
 6    1  0.1007353E-011  0.3000000E+03  0.7818608E-02  0.1093470E+00
          1   -1    0    0  502    0  0.00000000000E+00  0.00000000000E+00  0.22684452607E+03  0.22684452607E+03  0.00000000000E+00 0.  1.
         13   -1    0    0    0    0 -0.00000000000E+00 -0.00000000000E+00 -0.27500000000E+03  0.27500000000E+03  0.00000000000E+00 0.  1.
    9000005    2    1    2  501    0  0.93142829120E+01 -0.29914956538E+02 -0.49157418762E+02  0.47049704796E+03  0.46687188802E+03 0.  0.
         13    1    3    3    0    0 -0.93474169877E+02 -0.15045134089E+03 -0.18911885245E+03  0.25911188078E+03  0.00000000000E+00 0.  1.
          1    1    3    3  501    0  0.10278845279E+03  0.12053638436E+03  0.13996143369E+03  0.21138516717E+03  0.00000000000E+00 0.  1.
         21    1    1    2  502  501 -0.93142829120E+01  0.29914956538E+02  0.10019448339E+01  0.31347478117E+02  0.00000000000E+00 0. -1.
<scales pt_clust_4="550.00000" pt_clust_5="550.00000" pt_clust_6="31.33146"></scales>
<mgrwt>
<rscale>  0 0.30000000E+03</rscale>
<asrwt>  1 0.31331462E+02</asrwt>
<pdfrwt beam="1">  1        1 0.82488919E+00 0.30000000E+03</pdfrwt>
<pdfrwt beam="2">0</pdfrwt>
<totfact> 0.66850406E-04</totfact>
</mgrwt>
<clustering>
<clus scale="   31.331">  1  6  2 -1</clus>
<clus scale="  466.872">  4  5 -1 -1</clus>
<clus scale="  300.000">  1  4  2 -1</clus>
</clustering>
</event>
<event>
 6    1  0.1007353E-011  0.3000000E+03  0.7818608E-02  0.1093470E+00
          1   -1    0    0  502    0  0.00000000000E+00  0.00000000000E+00  0.23935731071E+03  0.23935731071E+03  0.00000000000E+00 0.  1.
         13   -1    0    0    0    0 -0.00000000000E+00 -0.00000000000E+00 -0.27500000000E+03  0.27500000000E+03  0.00000000000E+00 0.  1.
    9000005    2    1    2  501    0  0.40558410232E+02 -0.13452328827E+01 -0.32171564024E+02  0.47362841430E+03  0.47078877537E+03 0.  0.
         13    1    3    3    0    0 -0.88376955829E+02  0.92979350620E+02 -0.20274946187E+03  0.23992288397E+03  0.00000000000E+00 0.  1.
          3    1    3    3  501    0  0.12893536606E+03 -0.94324583503E+02  0.17057789785E+03  0.23370553033E+03  0.00000000000E+00 0.  1.
         21    1    1    2  502  501 -0.40558410232E+02  0.13452328827E+01 -0.34711252637E+01  0.40728896408E+02  0.00000000000E+00 0.  1.
<scales pt_clust_4="550.00000" pt_clust_5="550.00000" pt_clust_6="40.58073"></scales>
<mgrwt>
<rscale>  0 0.30000000E+03</rscale>
<asrwt>  1 0.40580734E+02</asrwt>
<pdfrwt beam="1">  1        1 0.87039022E+00 0.30000000E+03</pdfrwt>
<pdfrwt beam="2">0</pdfrwt>
<totfact> 0.24417904E-04</totfact>
</mgrwt>
<clustering>
<clus scale="   40.581">  1  6  2 -1</clus>
<clus scale="  470.789">  4  5 -1 -1</clus>
<clus scale="  300.000">  1  4  2 -1</clus>
</clustering>
</event>
<event>
 6    1  0.1007353E-011  0.3000000E+03  0.7818608E-02  0.1093470E+00
          1   -1    0    0  502    0  0.00000000000E+00  0.00000000000E+00  0.23839689318E+03  0.23839689318E+03  0.00000000000E+00 0.  1.
         13   -1    0    0    0    0 -0.00000000000E+00 -0.00000000000E+00 -0.27500000000E+03  0.27500000000E+03  0.00000000000E+00 0.  1.
    9000005    2    1    2  501    0  0.21033094062E+02  0.42215165925E+02 -0.42254049069E+02  0.46589484661E+03  0.46157132944E+03 0.  0.
         13    1    3    3    0    0  0.16332489575E+03  0.14809569204E+03  0.96539697836E+02  0.24068084434E+03  0.00000000000E+00 0.  1.
          3    1    3    3  501    0 -0.14229180169E+03 -0.10588052612E+03 -0.13879374691E+03  0.22521400227E+03  0.00000000000E+00 0.  1.
         21    1    1    2  502  501 -0.21033094062E+02 -0.42215165925E+02  0.56509422509E+01  0.47502046569E+02  0.00000000000E+00 0. -1.
<scales pt_clust_4="550.00000" pt_clust_5="550.00000" pt_clust_6="47.16472"></scales>
<mgrwt>
<rscale>  0 0.30000000E+03</rscale>
<asrwt>  1 0.47164725E+02</asrwt>
<pdfrwt beam="1">  1        1 0.86689779E+00 0.30000000E+03</pdfrwt>
<pdfrwt beam="2">0</pdfrwt>
<totfact> 0.25828061E-04</totfact>
</mgrwt>
<clustering>
<clus scale="   47.165">  1  6  2 -1</clus>
<clus scale="  461.571">  4  5 -1 -1</clus>
<clus scale="  300.000">  1  4  2 -1</clus>
</clustering>
</event>
<event>
 6    1  0.1007353E-011  0.3000000E+03  0.7818608E-02  0.1093470E+00
          1   -1    0    0  502    0  0.00000000000E+00  0.00000000000E+00  0.21912327799E+03  0.21912327799E+03  0.00000000000E+00 0.  1.
         13   -1    0    0    0    0 -0.00000000000E+00 -0.00000000000E+00 -0.27500000000E+03  0.27500000000E+03  0.00000000000E+00 0.  1.
    9000005    2    1    2  501    0  0.18025665828E+02 -0.27497189787E+02 -0.53279832446E+02  0.46114201194E+03  0.45687218624E+03 0.  0.
         13    1    3    3    0    0  0.21379092824E+03 -0.65022815626E+02  0.60657773671E+02  0.23154674054E+03  0.00000000000E+00 0.  1.
          3    1    3    3  501    0 -0.19576526241E+03  0.37525625839E+02 -0.11393760612E+03  0.22959527140E+03  0.00000000000E+00 0.  1.
         21    1    1    2  502  501 -0.18025665828E+02  0.27497189787E+02 -0.25968895624E+01  0.32981266048E+02  0.00000000000E+00 0. -1.
<scales pt_clust_4="550.00000" pt_clust_5="550.00000" pt_clust_6="32.87887"></scales>
<mgrwt>
<rscale>  0 0.30000000E+03</rscale>
<asrwt>  1 0.32878870E+02</asrwt>
<pdfrwt beam="1">  1        1 0.79681192E+00 0.30000000E+03</pdfrwt>
<pdfrwt beam="2">0</pdfrwt>
<totfact> 0.11067537E-03</totfact>
</mgrwt>
<clustering>
<clus scale="   32.879">  1  6  2 -1</clus>
<clus scale="  456.872">  4  5 -1 -1</clus>
<clus scale="  300.000">  1  4  2 -1</clus>
</clustering>
</event>
<event>
 6    1  0.1007353E-011  0.3000000E+03  0.7818608E-02  0.1093470E+00
          1   -1    0    0  502    0  0.00000000000E+00  0.00000000000E+00  0.22260755791E+03  0.22260755791E+03  0.00000000000E+00 0.  1.
         13   -1    0    0    0    0 -0.00000000000E+00 -0.00000000000E+00 -0.27500000000E+03  0.27500000000E+03  0.00000000000E+00 0.  1.
    9000005    2    1    2  501    0  0.32901739456E+02  0.67724275141E+01 -0.54465098824E+02  0.46395215508E+03  0.45951797025E+03 0.  0.
         13    1    3    3    0    0  0.17227812764E+03 -0.23483152599E+01 -0.19881930942E+03  0.26308627035E+03  0.00000000000E+00 0.  1.
          3    1    3    3  501    0 -0.13937638819E+03  0.91207427740E+01  0.14435421059E+03  0.20086588473E+03  0.00000000000E+00 0.  1.
         21    1    1    2  502  501 -0.32901739456E+02 -0.67724275141E+01  0.20726567323E+01  0.33655402829E+02  0.00000000000E+00 0. -1.
<scales pt_clust_4="550.00000" pt_clust_5="550.00000" pt_clust_6="33.59152"></scales>
<mgrwt>
<rscale>  0 0.30000000E+03</rscale>
<asrwt>  1 0.33591520E+02</asrwt>
<pdfrwt beam="1">  1        1 0.80948203E+00 0.30000000E+03</pdfrwt>
<pdfrwt beam="2">0</pdfrwt>
<totfact> 0.88709695E-04</totfact>
</mgrwt>
<clustering>
<clus scale="   33.592">  1  6  2 -1</clus>
<clus scale="  459.518">  4  5 -1 -1</clus>
<clus scale="  300.000">  1  4  2 -1</clus>
</clustering>
</event>
<event>
 6    1  0.1007353E-011  0.3000000E+03  0.7818608E-02  0.1093470E+00
          1   -1    0    0  502    0  0.00000000000E+00  0.00000000000E+00  0.26053408292E+03  0.26053408292E+03  0.00000000000E+00 0.  1.
         13   -1    0    0    0    0 -0.00000000000E+00 -0.00000000000E+00 -0.27500000000E+03  0.27500000000E+03  0.00000000000E+00 0.  1.
    9000005    2    1    2  501    0  0.36367834810E+02  0.17640576573E+02 -0.18873857986E+01  0.49320172178E+03  0.49153897789E+03 0.  0.
         13    1    3    3    0    0 -0.11322588168E+03  0.21388307675E+03 -0.33933511143E+02  0.24437175365E+03  0.00000000000E+00 0.  1.
          1    1    3    3  501    0  0.14959371649E+03 -0.19624250018E+03  0.32046125344E+02  0.24882996813E+03  0.00000000000E+00 0.  1.
         21    1    1    2  502  501 -0.36367834810E+02 -0.17640576573E+02 -0.12578531283E+02  0.42332361142E+02  0.00000000000E+00 0.  1.
<scales pt_clust_4="550.00000" pt_clust_5="550.00000" pt_clust_6="40.42043"></scales>
<mgrwt>
<rscale>  0 0.30000000E+03</rscale>
<asrwt>  1 0.40420428E+02</asrwt>
<pdfrwt beam="1">  1        1 0.94739667E+00 0.30000000E+03</pdfrwt>
<pdfrwt beam="2">0</pdfrwt>
<totfact> 0.13576973E-05</totfact>
</mgrwt>
<clustering>
<clus scale="   40.420">  1  6  2 -1</clus>
<clus scale="  491.539">  4  5 -1 -1</clus>
<clus scale="  300.000">  1  4  2 -1</clus>
</clustering>
</event>
<event>
 6    1  0.1007353E-011  0.3000000E+03  0.7818608E-02  0.1093470E+00
          1   -1    0    0  502    0  0.00000000000E+00  0.00000000000E+00  0.22260316414E+03  0.22260316414E+03  0.00000000000E+00 0.  1.
         13   -1    0    0    0    0 -0.00000000000E+00 -0.00000000000E+00 -0.27500000000E+03  0.27500000000E+03  0.00000000000E+00 0.  1.
    9000005    2    1    2  501    0  0.31377223693E+02 -0.10129197961E+02 -0.57777368720E+02  0.46419536637E+03  0.45940394317E+03 0.  0.
         13    1    3    3    0    0 -0.12524088057E+03 -0.11462746260E+03  0.11788743152E+03  0.20669344416E+03  0.00000000000E+00 0.  1.
          1    1    3    3  501    0  0.15661810426E+03  0.10449826464E+03 -0.17566480024E+03  0.25750192221E+03  0.00000000000E+00 0.  1.
         21    1    1    2  502  501 -0.31377223693E+02  0.10129197961E+02  0.53805328568E+01  0.33407797770E+02  0.00000000000E+00 0. -1.
<scales pt_clust_4="550.00000" pt_clust_5="550.00000" pt_clust_6="32.97167"></scales>
<mgrwt>
<rscale>  0 0.30000000E+03</rscale>
<asrwt>  1 0.32971667E+02</asrwt>
<pdfrwt beam="1">  1        1 0.80946605E+00 0.30000000E+03</pdfrwt>
<pdfrwt beam="2">0</pdfrwt>
<totfact> 0.89047582E-04</totfact>
</mgrwt>
<clustering>
<clus scale="   32.972">  1  6  2 -1</clus>
<clus scale="  459.404">  4  5 -1 -1</clus>
<clus scale="  300.000">  1  4  2 -1</clus>
</clustering>
</event>
<event>
 6    1  0.1007353E-011  0.3000000E+03  0.7818608E-02  0.1093470E+00
          1   -1    0    0  502    0  0.00000000000E+00  0.00000000000E+00  0.23494001161E+03  0.23494001161E+03  0.00000000000E+00 0.  1.
         13   -1    0    0    0    0 -0.00000000000E+00 -0.00000000000E+00 -0.27500000000E+03  0.27500000000E+03  0.00000000000E+00 0.  1.
    9000005    2    1    2  501    0 -0.25722125361E+02  0.29864800008E+02 -0.47130042365E+02  0.46989603983E+03  0.46586211838E+03 0.  0.
         13    1    3    3    0    0 -0.87136572048E+02  0.19072258395E+03  0.11000604199E+03  0.23678939058E+03  0.00000000000E+00 0.  1.
          3    1    3    3  501    0  0.61414446687E+02 -0.16085778394E+03 -0.15713608436E+03  0.23310664925E+03  0.00000000000E+00 0.  1.
         21    1    1    2  502  501  0.25722125361E+02 -0.29864800008E+02  0.70700539776E+01  0.40043971779E+02  0.00000000000E+00 0.  1.
<scales pt_clust_4="550.00000" pt_clust_5="550.00000" pt_clust_6="39.41490"></scales>
<mgrwt>
<rscale>  0 0.30000000E+03</rscale>
<asrwt>  1 0.39414896E+02</asrwt>
<pdfrwt beam="1">  1        1 0.85432731E+00 0.30000000E+03</pdfrwt>
<pdfrwt beam="2">0</pdfrwt>
<totfact> 0.36189413E-04</totfact>
</mgrwt>
<clustering>
<clus scale="   39.415">  1  6  2 -1</clus>
<clus scale="  465.862">  4  5 -1 -1</clus>
<clus scale="  300.000">  1  4  2 -1</clus>
</clustering>
</event>
<event>
 6    1  0.1007353E-011  0.3000000E+03  0.7818608E-02  0.1093470E+00
          1   -1    0    0  502    0  0.00000000000E+00  0.00000000000E+00  0.23159563349E+03  0.23159563349E+03  0.00000000000E+00 0.  1.
         13   -1    0    0    0    0 -0.00000000000E+00 -0.00000000000E+00 -0.27500000000E+03  0.27500000000E+03  0.00000000000E+00 0.  1.
    9000005    2    1    2  501    0 -0.34008686387E+02  0.58757242749E+01 -0.65633442445E+02  0.46554387710E+03  0.45960008470E+03 0.  0.
         13    1    3    3    0    0  0.24874404424E+02  0.95072438858E+02  0.17586043773E+03  0.20145569782E+03  0.00000000000E+00 0.  1.
          3    1    3    3  501    0 -0.58883090811E+02 -0.89196714584E+02 -0.24149388017E+03  0.26408817928E+03  0.00000000000E+00 0.  1.
         21    1    1    2  502  501  0.34008686387E+02 -0.58757242749E+01  0.22229075934E+02  0.41051756387E+02  0.00000000000E+00 0. -1.
<scales pt_clust_4="550.00000" pt_clust_5="550.00000" pt_clust_6="34.51253"></scales>
<mgrwt>
<rscale>  0 0.30000000E+03</rscale>
<asrwt>  1 0.34512532E+02</asrwt>
<pdfrwt beam="1">  1        1 0.84216594E+00 0.30000000E+03</pdfrwt>
<pdfrwt beam="2">0</pdfrwt>
<totfact> 0.47890906E-04</totfact>
</mgrwt>
<clustering>
<clus scale="   34.513">  1  6  2 -1</clus>
<clus scale="  459.600">  4  5 -1 -1</clus>
<clus scale="  300.000">  1  4  2 -1</clus>
</clustering>
</event>
<event>
 6    1  0.1007353E-011  0.3000000E+03  0.7818608E-02  0.1093470E+00
          1   -1    0    0  502    0  0.00000000000E+00  0.00000000000E+00  0.24132692705E+03  0.24132692705E+03  0.00000000000E+00 0.  1.
         13   -1    0    0    0    0 -0.00000000000E+00 -0.00000000000E+00 -0.27500000000E+03  0.27500000000E+03  0.00000000000E+00 0.  1.
    9000005    2    1    2  501    0 -0.29566168188E+02 -0.16164550568E+02 -0.69285459643E+02  0.46729945432E+03  0.46090438715E+03 0.  0.
         13    1    3    3    0    0  0.17559422141E+03  0.76410197696E+02 -0.13326238645E+03  0.23330390599E+03  0.00000000000E+00 0.  1.
          1    1    3    3  501    0 -0.20516038960E+03 -0.92574748263E+02  0.63976926812E+02  0.23399554834E+03  0.00000000000E+00 0.  1.
         21    1    1    2  502  501  0.29566168188E+02  0.16164550568E+02  0.35612386697E+02  0.49027472734E+02  0.00000000000E+00 0.  1.
<scales pt_clust_4="550.00000" pt_clust_5="550.00000" pt_clust_6="33.69645"></scales>
<mgrwt>
<rscale>  0 0.30000000E+03</rscale>
<asrwt>  1 0.33696454E+02</asrwt>
<pdfrwt beam="1">  1        1 0.87755246E+00 0.30000000E+03</pdfrwt>
<pdfrwt beam="2">0</pdfrwt>
<totfact> 0.21247095E-04</totfact>
</mgrwt>
<clustering>
<clus scale="   33.696">  1  6  2 -1</clus>
<clus scale="  460.904">  4  5 -1 -1</clus>
<clus scale="  300.000">  1  4  2 -1</clus>
</clustering>
</event>
<event>
 6    1  0.1007353E-011  0.3000000E+03  0.7818608E-02  0.1093470E+00
          1   -1    0    0  502    0  0.00000000000E+00  0.00000000000E+00  0.24138987850E+03  0.24138987850E+03  0.00000000000E+00 0.  1.
         13   -1    0    0    0    0 -0.00000000000E+00 -0.00000000000E+00 -0.27500000000E+03  0.27500000000E+03  0.00000000000E+00 0.  1.
    9000005    2    1    2  501    0 -0.48833811405E+02 -0.11938728564E+02 -0.38706455384E+02  0.46586021399E+03  0.46151952821E+03 0.  0.
         13    1    3    3    0    0 -0.14682088568E+03 -0.12381489317E+03  0.13681346512E+03  0.23580590426E+03  0.00000000000E+00 0.  1.
          3    1    3    3  501    0  0.97987074277E+02  0.11187616461E+03 -0.17551992051E+03  0.23005430974E+03  0.00000000000E+00 0.  1.
         21    1    1    2  502  501  0.48833811405E+02  0.11938728564E+02  0.50963338843E+01  0.50529664507E+02  0.00000000000E+00 0. -1.
<scales pt_clust_4="550.00000" pt_clust_5="550.00000" pt_clust_6="50.27200"></scales>
<mgrwt>
<rscale>  0 0.30000000E+03</rscale>
<asrwt>  1 0.50272004E+02</asrwt>
<pdfrwt beam="1">  1        1 0.87778138E+00 0.30000000E+03</pdfrwt>
<pdfrwt beam="2">0</pdfrwt>
<totfact> 0.19640285E-04</totfact>
</mgrwt>
<clustering>
<clus scale="   50.272">  1  6  2 -1</clus>
<clus scale="  461.520">  4  5 -1 -1</clus>
<clus scale="  300.000">  1  4  2 -1</clus>
</clustering>
</event>
<event>
 6    1  0.1007353E-011  0.3000000E+03  0.7818608E-02  0.1093470E+00
          1   -1    0    0  502    0  0.00000000000E+00  0.00000000000E+00  0.24011525765E+03  0.24011525765E+03  0.00000000000E+00 0.  1.
         13   -1    0    0    0    0 -0.00000000000E+00 -0.00000000000E+00 -0.27500000000E+03  0.27500000000E+03  0.00000000000E+00 0.  1.
    9000005    2    1    2  501    0  0.16431451269E+01  0.38776212185E+02 -0.45968876854E+02  0.47475249517E+03  0.47092515273E+03 0.  0.
         13    1    3    3    0    0  0.23422453610E+03  0.60151861837E+01 -0.51141310184E+02  0.23981815899E+03  0.00000000000E+00 0.  1.
          3    1    3    3  501    0 -0.23258139097E+03  0.32761026001E+02  0.51724333297E+01  0.23493433618E+03  0.00000000000E+00 0.  1.
         21    1    1    2  502  501 -0.16431451269E+01 -0.38776212185E+02  0.11084134503E+02  0.40362762480E+02  0.00000000000E+00 0.  1.
<scales pt_clust_4="550.00000" pt_clust_5="550.00000" pt_clust_6="38.81101"></scales>
<mgrwt>
<rscale>  0 0.30000000E+03</rscale>
<asrwt>  1 0.38811011E+02</asrwt>
<pdfrwt beam="1">  1        1 0.87314639E+00 0.30000000E+03</pdfrwt>
<pdfrwt beam="2">0</pdfrwt>
<totfact> 0.23070201E-04</totfact>
</mgrwt>
<clustering>
<clus scale="   38.811">  1  6  2 -1</clus>
<clus scale="  470.925">  4  5 -1 -1</clus>
<clus scale="  300.000">  1  4  2 -1</clus>
</clustering>
</event>
<event>
 6    1  0.1007353E-011  0.3000000E+03  0.7818608E-02  0.1093470E+00
          1   -1    0    0  502    0  0.00000000000E+00  0.00000000000E+00  0.23858099715E+03  0.23858099715E+03  0.00000000000E+00 0.  1.
         13   -1    0    0    0    0 -0.00000000000E+00 -0.00000000000E+00 -0.27500000000E+03  0.27500000000E+03  0.00000000000E+00 0.  1.
    9000005    2    1    2  501    0 -0.14589274696E+02  0.30439671160E+02 -0.58199259888E+02  0.47340886610E+03  0.46860364930E+03 0.  0.
         13    1    3    3    0    0  0.14016321869E+03 -0.15556938794E+03  0.38368635112E+02  0.21288427490E+03  0.00000000000E+00 0.  1.
          3    1    3    3  501    0 -0.15475249339E+03  0.18600905910E+03 -0.96567895001E+02  0.26052459120E+03  0.00000000000E+00 0.  1.
         21    1    1    2  502  501  0.14589274696E+02 -0.30439671160E+02  0.21780257041E+02  0.40172131052E+02  0.00000000000E+00 0.  1.
<scales pt_clust_4="550.00000" pt_clust_5="550.00000" pt_clust_6="33.75530"></scales>
<mgrwt>
<rscale>  0 0.30000000E+03</rscale>
<asrwt>  1 0.33755304E+02</asrwt>
<pdfrwt beam="1">  1        1 0.86756726E+00 0.30000000E+03</pdfrwt>
<pdfrwt beam="2">0</pdfrwt>
<totfact> 0.27014812E-04</totfact>
</mgrwt>
<clustering>
<clus scale="   33.755">  1  6  2 -1</clus>
<clus scale="  468.604">  4  5 -1 -1</clus>
<clus scale="  300.000">  1  4  2 -1</clus>
</clustering>
</event>
<event>
 6    1  0.1007353E-011  0.3000000E+03  0.7818608E-02  0.1093470E+00
          1   -1    0    0  502    0  0.00000000000E+00  0.00000000000E+00  0.23943182273E+03  0.23943182273E+03  0.00000000000E+00 0.  1.
         13   -1    0    0    0    0 -0.00000000000E+00 -0.00000000000E+00 -0.27500000000E+03  0.27500000000E+03  0.00000000000E+00 0.  1.
    9000005    2    1    2  501    0  0.32887151174E+02  0.27439435171E+02 -0.47744303015E+02  0.46990379388E+03  0.46550571395E+03 0.  0.
         13    1    3    3    0    0  0.21713031006E+03  0.48638345485E+02 -0.13987297732E+03  0.26282258271E+03  0.00000000000E+00 0.  1.
          3    1    3    3  501    0 -0.18424315888E+03 -0.21198910315E+02  0.92128674302E+02  0.20708121118E+03  0.00000000000E+00 0.  1.
         21    1    1    2  502  501 -0.32887151174E+02 -0.27439435171E+02  0.12176125742E+02  0.44528028846E+02  0.00000000000E+00 0. -1.
<scales pt_clust_4="550.00000" pt_clust_5="550.00000" pt_clust_6="42.83092"></scales>
<mgrwt>
<rscale>  0 0.30000000E+03</rscale>
<asrwt>  1 0.42830915E+02</asrwt>
<pdfrwt beam="1">  1        1 0.87066117E+00 0.30000000E+03</pdfrwt>
<pdfrwt beam="2">0</pdfrwt>
<totfact> 0.24026915E-04</totfact>
</mgrwt>
<clustering>
<clus scale="   42.831">  1  6  2 -1</clus>
<clus scale="  465.506">  4  5 -1 -1</clus>
<clus scale="  300.000">  1  4  2 -1</clus>
</clustering>
</event>
<event>
 6    1  0.1007353E-011  0.3000000E+03  0.7818608E-02  0.1093470E+00
          1   -1    0    0  502    0  0.00000000000E+00  0.00000000000E+00  0.24355867145E+03  0.24355867145E+03  0.00000000000E+00 0.  1.
         13   -1    0    0    0    0 -0.00000000000E+00 -0.00000000000E+00 -0.27500000000E+03  0.27500000000E+03  0.00000000000E+00 0.  1.
    9000005    2    1    2  501    0 -0.31949494359E+02  0.48672921439E+01 -0.59686996624E+02  0.47563689973E+03  0.47076901140E+03 0.  0.
         13    1    3    3    0    0  0.11584585178E+03  0.18456762538E+03  0.41649198331E+02  0.22185609172E+03  0.00000000000E+00 0.  1.
          1    1    3    3  501    0 -0.14779534614E+03 -0.17970033324E+03 -0.10133619496E+03  0.25378080801E+03  0.00000000000E+00 0.  1.
         21    1    1    2  502  501  0.31949494359E+02 -0.48672921439E+01  0.28245668079E+02  0.42921771723E+02  0.00000000000E+00 0. -1.
<scales pt_clust_4="550.00000" pt_clust_5="550.00000" pt_clust_6="32.31812"></scales>
<mgrwt>
<rscale>  0 0.30000000E+03</rscale>
<asrwt>  1 0.32318118E+02</asrwt>
<pdfrwt beam="1">  1        1 0.88566790E+00 0.30000000E+03</pdfrwt>
<pdfrwt beam="2">0</pdfrwt>
<totfact> 0.16867470E-04</totfact>
</mgrwt>
<clustering>
<clus scale="   32.318">  1  6  2 -1</clus>
<clus scale="  470.769">  4  5 -1 -1</clus>
<clus scale="  300.000">  1  4  2 -1</clus>
</clustering>
</event>
<event>
 6    1  0.1007353E-011  0.3000000E+03  0.7818608E-02  0.1093470E+00
          1   -1    0    0  502    0  0.00000000000E+00  0.00000000000E+00  0.25415856268E+03  0.25415856268E+03  0.00000000000E+00 0.  1.
         13   -1    0    0    0    0 -0.00000000000E+00 -0.00000000000E+00 -0.27500000000E+03  0.27500000000E+03  0.00000000000E+00 0.  1.
    9000005    2    1    2  501    0 -0.25140023840E+02 -0.34214795632E+02 -0.56976651075E+02  0.47340529630E+03  0.46804226600E+03 0.  0.
         13    1    3    3    0    0  0.27147156181E+02 -0.11698779357E+02 -0.26044786596E+03  0.26212004961E+03  0.00000000000E+00 0.  1.
          1    1    3    3  501    0 -0.52287180020E+02 -0.22516016275E+02  0.20347121488E+03  0.21128524669E+03  0.00000000000E+00 0.  1.
         21    1    1    2  502  501  0.25140023840E+02  0.34214795632E+02  0.36135213754E+02  0.55753266378E+02  0.00000000000E+00 0.  1.
<scales pt_clust_4="550.00000" pt_clust_5="550.00000" pt_clust_6="42.45790"></scales>
<mgrwt>
<rscale>  0 0.30000000E+03</rscale>
<asrwt>  1 0.42457897E+02</asrwt>
<pdfrwt beam="1">  1        1 0.92421296E+00 0.30000000E+03</pdfrwt>
<pdfrwt beam="2">0</pdfrwt>
<totfact> 0.32858790E-05</totfact>
</mgrwt>
<clustering>
<clus scale="   42.458">  1  6  2 -1</clus>
<clus scale="  468.042">  4  5 -1 -1</clus>
<clus scale="  300.000">  1  4  2 -1</clus>
</clustering>
</event>
<event>
 6    1  0.1007353E-011  0.3000000E+03  0.7818608E-02  0.1093470E+00
          1   -1    0    0  502    0  0.00000000000E+00  0.00000000000E+00  0.24128171063E+03  0.24128171063E+03  0.00000000000E+00 0.  1.
         13   -1    0    0    0    0 -0.00000000000E+00 -0.00000000000E+00 -0.27500000000E+03  0.27500000000E+03  0.00000000000E+00 0.  1.
    9000005    2    1    2  501    0  0.34474507047E+02  0.92387089408E+01 -0.59191988425E+02  0.47243248347E+03  0.46734881466E+03 0.  0.
         13    1    3    3    0    0  0.13036492587E+03 -0.12299385852E+03  0.13079808322E+03  0.22187979112E+03  0.00000000000E+00 0.  1.
          1    1    3    3  501    0 -0.95890418826E+02  0.13223256746E+03 -0.18999007165E+03  0.25055269235E+03  0.00000000000E+00 0.  1.
         21    1    1    2  502  501 -0.34474507047E+02 -0.92387089408E+01  0.25473699052E+02  0.43849227159E+02  0.00000000000E+00 0. -1.
<scales pt_clust_4="550.00000" pt_clust_5="550.00000" pt_clust_6="35.69097"></scales>
<mgrwt>
<rscale>  0 0.30000000E+03</rscale>
<asrwt>  1 0.35690971E+02</asrwt>
<pdfrwt beam="1">  1        1 0.87738804E+00 0.30000000E+03</pdfrwt>
<pdfrwt beam="2">0</pdfrwt>
<totfact> 0.21109332E-04</totfact>
</mgrwt>
<clustering>
<clus scale="   35.691">  1  6  2 -1</clus>
<clus scale="  467.349">  4  5 -1 -1</clus>
<clus scale="  300.000">  1  4  2 -1</clus>
</clustering>
</event>
<event>
 6    1  0.1007353E-011  0.3000000E+03  0.7818608E-02  0.1093470E+00
          1   -1    0    0  502    0  0.00000000000E+00  0.00000000000E+00  0.23824328072E+03  0.23824328072E+03  0.00000000000E+00 0.  1.
         13   -1    0    0    0    0 -0.00000000000E+00 -0.00000000000E+00 -0.27500000000E+03  0.27500000000E+03  0.00000000000E+00 0.  1.
    9000005    2    1    2  501    0 -0.50545260769E+02  0.66008588498E+01 -0.35346113460E+02  0.46224931507E+03  0.45806843028E+03 0.  0.
         13    1    3    3    0    0  0.40156782770E+02 -0.21153324991E+03  0.29370884202E+02  0.21730515838E+03  0.00000000000E+00 0.  1.
          3    1    3    3  501    0 -0.90702043539E+02  0.21813410876E+03 -0.64716997662E+02  0.24494415669E+03  0.00000000000E+00 0.  1.
         21    1    1    2  502  501  0.50545260769E+02 -0.66008588498E+01 -0.14106058213E+01  0.50993965648E+02  0.00000000000E+00 0.  1.
<scales pt_clust_4="550.00000" pt_clust_5="550.00000" pt_clust_6="50.97445"></scales>
<mgrwt>
<rscale>  0 0.30000000E+03</rscale>
<asrwt>  1 0.50974452E+02</asrwt>
<pdfrwt beam="1">  1        1 0.86633920E+00 0.30000000E+03</pdfrwt>
<pdfrwt beam="2">0</pdfrwt>
<totfact> 0.25826601E-04</totfact>
</mgrwt>
<clustering>
<clus scale="   50.974">  1  6  2 -1</clus>
<clus scale="  458.068">  4  5 -1 -1</clus>
<clus scale="  300.000">  1  4  2 -1</clus>
</clustering>
</event>
<event>
 6    1  0.1007353E-011  0.3000000E+03  0.7818608E-02  0.1093470E+00
          1   -1    0    0  502    0  0.00000000000E+00  0.00000000000E+00  0.23454598562E+03  0.23454598562E+03  0.00000000000E+00 0.  1.
         13   -1    0    0    0    0 -0.00000000000E+00 -0.00000000000E+00 -0.27500000000E+03  0.27500000000E+03  0.00000000000E+00 0.  1.
    9000005    2    1    2  501    0  0.15643733750E+02  0.31205980315E+02 -0.46212406335E+02  0.47416663160E+03  0.47061647698E+03 0.  0.
         13    1    3    3    0    0 -0.25101224445E+02  0.12208882985E+03  0.18462431593E+03  0.22275971780E+03  0.00000000000E+00 0.  1.
          3    1    3    3  501    0  0.40744958195E+02 -0.90882849538E+02 -0.23083672226E+03  0.25140691379E+03  0.00000000000E+00 0.  1.
         21    1    1    2  502  501 -0.15643733750E+02 -0.31205980315E+02  0.57583919540E+01  0.35379354021E+02  0.00000000000E+00 0. -1.
<scales pt_clust_4="550.00000" pt_clust_5="550.00000" pt_clust_6="34.90759"></scales>
<mgrwt>
<rscale>  0 0.30000000E+03</rscale>
<asrwt>  1 0.34907587E+02</asrwt>
<pdfrwt beam="1">  1        1 0.85289449E+00 0.30000000E+03</pdfrwt>
<pdfrwt beam="2">0</pdfrwt>
<totfact> 0.38215077E-04</totfact>
</mgrwt>
<clustering>
<clus scale="   34.908">  1  6  2 -1</clus>
<clus scale="  470.616">  4  5 -1 -1</clus>
<clus scale="  300.000">  1  4  2 -1</clus>
</clustering>
</event>
<event>
 6    1  0.1007353E-011  0.3000000E+03  0.7818608E-02  0.1093470E+00
          1   -1    0    0  502    0  0.00000000000E+00  0.00000000000E+00  0.24700894001E+03  0.24700894001E+03  0.00000000000E+00 0.  1.
         13   -1    0    0    0    0 -0.00000000000E+00 -0.00000000000E+00 -0.27500000000E+03  0.27500000000E+03  0.00000000000E+00 0.  1.
    9000005    2    1    2  501    0 -0.40044655251E+02  0.56818376925E+01 -0.41820341369E+02  0.47926427114E+03  0.47571992069E+03 0.  0.
         13    1    3    3    0    0  0.20704406779E+03  0.74759525908E+02 -0.32663407710E+02  0.22253793143E+03  0.00000000000E+00 0.  1.
          3    1    3    3  501    0 -0.24708872304E+03 -0.69077688216E+02 -0.91569336590E+01  0.25672633971E+03  0.00000000000E+00 0.  1.
         21    1    1    2  502  501  0.40044655251E+02 -0.56818376925E+01  0.13829281383E+02  0.42744668876E+02  0.00000000000E+00 0. -1.
<scales pt_clust_4="550.00000" pt_clust_5="550.00000" pt_clust_6="40.44574"></scales>
<mgrwt>
<rscale>  0 0.30000000E+03</rscale>
<asrwt>  1 0.40445738E+02</asrwt>
<pdfrwt beam="1">  1        1 0.89821433E+00 0.30000000E+03</pdfrwt>
<pdfrwt beam="2">0</pdfrwt>
<totfact> 0.11297077E-04</totfact>
</mgrwt>
<clustering>
<clus scale="   40.446">  1  6  2 -1</clus>
<clus scale="  475.720">  4  5 -1 -1</clus>
<clus scale="  300.000">  1  4  2 -1</clus>
</clustering>
</event>
<event>
 6    1  0.1007353E-011  0.3000000E+03  0.7818608E-02  0.1093470E+00
          1   -1    0    0  502    0  0.00000000000E+00  0.00000000000E+00  0.21945831148E+03  0.21945831148E+03  0.00000000000E+00 0.  1.
         13   -1    0    0    0    0 -0.00000000000E+00 -0.00000000000E+00 -0.27500000000E+03  0.27500000000E+03  0.00000000000E+00 0.  1.
    9000005    2    1    2  501    0 -0.29458886979E+02 -0.14133229892E+02 -0.56800547464E+02  0.46176031559E+03  0.45708720465E+03 0.  0.
         13    1    3    3    0    0  0.70112131510E+02  0.18198604267E+03  0.70800595678E+02  0.20747856531E+03  0.00000000000E+00 0.  1.
          1    1    3    3  501    0 -0.99571018489E+02 -0.19611927257E+03 -0.12760114314E+03  0.25428175028E+03  0.00000000000E+00 0.  1.
         21    1    1    2  502  501  0.29458886979E+02  0.14133229892E+02  0.12588589396E+01  0.32697995887E+02  0.00000000000E+00 0.  1.
<scales pt_clust_4="550.00000" pt_clust_5="550.00000" pt_clust_6="32.67375"></scales>
<mgrwt>
<rscale>  0 0.30000000E+03</rscale>
<asrwt>  1 0.32673754E+02</asrwt>
<pdfrwt beam="1">  1        1 0.79803022E+00 0.30000000E+03</pdfrwt>
<pdfrwt beam="2">0</pdfrwt>
<totfact> 0.10856176E-03</totfact>
</mgrwt>
<clustering>
<clus scale="   32.674">  1  6  2 -1</clus>
<clus scale="  457.087">  4  5 -1 -1</clus>
<clus scale="  300.000">  1  4  2 -1</clus>
</clustering>
</event>
<event>
 6    1  0.1007353E-011  0.3000000E+03  0.7818608E-02  0.1093470E+00
          1   -1    0    0  502    0  0.00000000000E+00  0.00000000000E+00  0.23874770326E+03  0.23874770326E+03  0.00000000000E+00 0.  1.
         13   -1    0    0    0    0 -0.00000000000E+00 -0.00000000000E+00 -0.27500000000E+03  0.27500000000E+03  0.00000000000E+00 0.  1.
    9000005    2    1    2  501    0  0.44219285831E+02 -0.25476522787E+02 -0.30774987360E+02  0.46242130293E+03  0.45856511327E+03 0.  0.
         13    1    3    3    0    0 -0.16958221763E+03  0.10699132582E+03 -0.59797958049E+02  0.20923926047E+03  0.00000000000E+00 0.  1.
          1    1    3    3  501    0  0.21380150346E+03 -0.13246784861E+03  0.29022970690E+02  0.25318204246E+03  0.00000000000E+00 0.  1.
         21    1    1    2  502  501 -0.44219285831E+02  0.25476522787E+02 -0.54773093774E+01  0.51326400329E+02  0.00000000000E+00 0.  1.
<scales pt_clust_4="550.00000" pt_clust_5="550.00000" pt_clust_6="51.03333"></scales>
<mgrwt>
<rscale>  0 0.30000000E+03</rscale>
<asrwt>  1 0.51033333E+02</asrwt>
<pdfrwt beam="1">  1        1 0.86817347E+00 0.30000000E+03</pdfrwt>
<pdfrwt beam="2">0</pdfrwt>
<totfact> 0.24702516E-04</totfact>
</mgrwt>
<clustering>
<clus scale="   51.033">  1  6  2 -1</clus>
<clus scale="  458.565">  4  5 -1 -1</clus>
<clus scale="  300.000">  1  4  2 -1</clus>
</clustering>
</event>
<event>
 6    1  0.1007353E-011  0.3000000E+03  0.7818608E-02  0.1093470E+00
          1   -1    0    0  502    0  0.00000000000E+00  0.00000000000E+00  0.24614617339E+03  0.24614617339E+03  0.00000000000E+00 0.  1.
         13   -1    0    0    0    0 -0.00000000000E+00 -0.00000000000E+00 -0.27500000000E+03  0.27500000000E+03  0.00000000000E+00 0.  1.
    9000005    2    1    2  501    0 -0.10849626581E+02 -0.30875335153E+02 -0.31726458443E+02  0.48829419123E+03  0.48616216256E+03 0.  0.
         13    1    3    3    0    0  0.87865824505E+02 -0.35747175061E+02  0.20820894743E+03  0.22879953984E+03  0.00000000000E+00 0.  1.
          3    1    3    3  501    0 -0.98715451087E+02  0.48718399075E+01 -0.23993540588E+03  0.25949465139E+03  0.00000000000E+00 0.  1.
         21    1    1    2  502  501  0.10849626581E+02  0.30875335153E+02  0.28726318285E+01  0.32851982153E+02  0.00000000000E+00 0. -1.
<scales pt_clust_4="550.00000" pt_clust_5="550.00000" pt_clust_6="32.72615"></scales>
<mgrwt>
<rscale>  0 0.30000000E+03</rscale>
<asrwt>  1 0.32726147E+02</asrwt>
<pdfrwt beam="1">  1        1 0.89507699E+00 0.30000000E+03</pdfrwt>
<pdfrwt beam="2">0</pdfrwt>
<totfact> 0.12744283E-04</totfact>
</mgrwt>
<clustering>
<clus scale="   32.726">  1  6  2 -1</clus>
<clus scale="  486.162">  4  5 -1 -1</clus>
<clus scale="  300.000">  1  4  2 -1</clus>
</clustering>
</event>
<event>
 6    1  0.1007353E-011  0.3000000E+03  0.7818608E-02  0.1093470E+00
          1   -1    0    0  502    0  0.00000000000E+00  0.00000000000E+00  0.22263164587E+03  0.22263164587E+03  0.00000000000E+00 0.  1.
         13   -1    0    0    0    0 -0.00000000000E+00 -0.00000000000E+00 -0.27500000000E+03  0.27500000000E+03  0.00000000000E+00 0.  1.
    9000005    2    1    2  501    0  0.84012868649E+01 -0.33021809402E+02 -0.63264307436E+02  0.46185814569E+03  0.45623409849E+03 0.  0.
         13    1    3    3    0    0 -0.14378757040E+03  0.14805002909E+03 -0.87338398890E+02  0.22410192421E+03  0.00000000000E+00 0.  1.
          1    1    3    3  501    0  0.15218885727E+03 -0.18107183849E+03  0.24074091454E+02  0.23775622147E+03  0.00000000000E+00 0.  1.
         21    1    1    2  502  501 -0.84012868649E+01  0.33021809402E+02  0.10895953310E+02  0.35773500188E+02  0.00000000000E+00 0. -1.
<scales pt_clust_4="550.00000" pt_clust_5="550.00000" pt_clust_6="34.07377"></scales>
<mgrwt>
<rscale>  0 0.30000000E+03</rscale>
<asrwt>  1 0.34073766E+02</asrwt>
<pdfrwt beam="1">  1        1 0.80956962E+00 0.30000000E+03</pdfrwt>
<pdfrwt beam="2">0</pdfrwt>
<totfact> 0.88333417E-04</totfact>
</mgrwt>
<clustering>
<clus scale="   34.074">  1  6  2 -1</clus>
<clus scale="  456.234">  4  5 -1 -1</clus>
<clus scale="  300.000">  1  4  2 -1</clus>
</clustering>
</event>
<event>
 6    1  0.1007353E-011  0.3000000E+03  0.7818608E-02  0.1093470E+00
          1   -1    0    0  502    0  0.00000000000E+00  0.00000000000E+00  0.26968156459E+03  0.26968156459E+03  0.00000000000E+00 0.  1.
         13   -1    0    0    0    0 -0.00000000000E+00 -0.00000000000E+00 -0.27500000000E+03  0.27500000000E+03  0.00000000000E+00 0.  1.
    9000005    2    1    2  501    0 -0.30282962994E+02  0.75774611757E+01 -0.41902752150E+02  0.49658907040E+03  0.49383234852E+03 0.  0.
         13    1    3    3    0    0 -0.10209427784E+03  0.23383663947E+03  0.21120159349E+01  0.25516127476E+03  0.00000000000E+00 0.  1.
          3    1    3    3  501    0  0.71811314847E+02 -0.22625917829E+03 -0.44014768085E+02  0.24142779565E+03  0.00000000000E+00 0.  1.
         21    1    1    2  502  501  0.30282962994E+02 -0.75774611757E+01  0.36584316735E+02  0.48092494181E+02  0.00000000000E+00 0. -1.
<scales pt_clust_4="550.00000" pt_clust_5="550.00000" pt_clust_6="31.21659"></scales>
<mgrwt>
<rscale>  0 0.30000000E+03</rscale>
<asrwt>  1 0.31216594E+02</asrwt>
<pdfrwt beam="1">  1        1 0.98066023E+00 0.30000000E+03</pdfrwt>
<pdfrwt beam="2">0</pdfrwt>
<totfact> 0.27470211E-06</totfact>
</mgrwt>
<clustering>
<clus scale="   31.217">  1  6  2 -1</clus>
<clus scale="  493.832">  4  5 -1 -1</clus>
<clus scale="  300.000">  1  4  2 -1</clus>
</clustering>
</event>
<event>
 6    1  0.1007353E-011  0.3000000E+03  0.7818608E-02  0.1093470E+00
          1   -1    0    0  502    0  0.00000000000E+00  0.00000000000E+00  0.25837052647E+03  0.25837052647E+03  0.00000000000E+00 0.  1.
         13   -1    0    0    0    0 -0.00000000000E+00 -0.00000000000E+00 -0.27500000000E+03  0.27500000000E+03  0.00000000000E+00 0.  1.
    9000005    2    1    2  501    0  0.30628000651E+02 -0.50880092997E+02 -0.12904920957E+02  0.47386648812E+03  0.46995324586E+03 0.  0.
         13    1    3    3    0    0  0.59897920991E+02 -0.61316961437E+02  0.22144973867E+03  0.23746055979E+03  0.00000000000E+00 0.  1.
          3    1    3    3  501    0 -0.29269920340E+02  0.10436868440E+02 -0.23435465963E+03  0.23640592833E+03  0.00000000000E+00 0.  1.
         21    1    1    2  502  501 -0.30628000651E+02  0.50880092997E+02 -0.37245525768E+01  0.59504038343E+02  0.00000000000E+00 0.  1.
<scales pt_clust_4="550.00000" pt_clust_5="550.00000" pt_clust_6="59.38739"></scales>
<mgrwt>
<rscale>  0 0.30000000E+03</rscale>
<asrwt>  1 0.59387388E+02</asrwt>
<pdfrwt beam="1">  1        1 0.93952919E+00 0.30000000E+03</pdfrwt>
<pdfrwt beam="2">0</pdfrwt>
<totfact> 0.17752687E-05</totfact>
</mgrwt>
<clustering>
<clus scale="   59.387">  1  6  2 -1</clus>
<clus scale="  469.953">  4  5 -1 -1</clus>
<clus scale="  300.000">  1  4  2 -1</clus>
</clustering>
</event>
<event>
 6    1  0.1007353E-011  0.3000000E+03  0.7818608E-02  0.1093470E+00
          1   -1    0    0  502    0  0.00000000000E+00  0.00000000000E+00  0.22378235250E+03  0.22378235250E+03  0.00000000000E+00 0.  1.
         13   -1    0    0    0    0 -0.00000000000E+00 -0.00000000000E+00 -0.27500000000E+03  0.27500000000E+03  0.00000000000E+00 0.  1.
    9000005    2    1    2  501    0  0.87172805612E+01  0.31908298611E+02 -0.59609512688E+02  0.46465679167E+03  0.45962866484E+03 0.  0.
         13    1    3    3    0    0  0.41026798768E+02 -0.21118014208E+03 -0.17473669270E+02  0.21583692859E+03  0.00000000000E+00 0.  1.
          3    1    3    3  501    0 -0.32309518207E+02  0.24308844069E+03 -0.42135843418E+02  0.24881986308E+03  0.00000000000E+00 0.  1.
         21    1    1    2  502  501 -0.87172805612E+01 -0.31908298611E+02  0.83918651847E+01  0.34125560829E+02  0.00000000000E+00 0. -1.
<scales pt_clust_4="550.00000" pt_clust_5="550.00000" pt_clust_6="33.07764"></scales>
<mgrwt>
<rscale>  0 0.30000000E+03</rscale>
<asrwt>  1 0.33077644E+02</asrwt>
<pdfrwt beam="1">  1        1 0.81375401E+00 0.30000000E+03</pdfrwt>
<pdfrwt beam="2">0</pdfrwt>
<totfact> 0.82331812E-04</totfact>
</mgrwt>
<clustering>
<clus scale="   33.078">  1  6  2 -1</clus>
<clus scale="  459.629">  4  5 -1 -1</clus>
<clus scale="  300.000">  1  4  2 -1</clus>
</clustering>
</event>
<event>
 6    1  0.1007353E-011  0.3000000E+03  0.7818608E-02  0.1093470E+00
          1   -1    0    0  502    0  0.00000000000E+00  0.00000000000E+00  0.24356234128E+03  0.24356234128E+03  0.00000000000E+00 0.  1.
         13   -1    0    0    0    0 -0.00000000000E+00 -0.00000000000E+00 -0.27500000000E+03  0.27500000000E+03  0.00000000000E+00 0.  1.
    9000005    2    1    2  501    0  0.22199916818E+02  0.22856816672E+02 -0.18251233737E+02  0.48407825540E+03  0.48268351892E+03 0.  0.
         13    1    3    3    0    0 -0.19738410975E+03  0.13206504308E+03  0.65877300269E+01  0.23758169242E+03  0.00000000000E+00 0.  1.
          3    1    3    3  501    0  0.21958402657E+03 -0.10920822641E+03 -0.24838963764E+02  0.24649656298E+03  0.00000000000E+00 0.  1.
         21    1    1    2  502  501 -0.22199916818E+02 -0.22856816672E+02 -0.13186424986E+02  0.34484085880E+02  0.00000000000E+00 0. -1.
<scales pt_clust_4="550.00000" pt_clust_5="550.00000" pt_clust_6="31.86332"></scales>
<mgrwt>
<rscale>  0 0.30000000E+03</rscale>
<asrwt>  1 0.31863324E+02</asrwt>
<pdfrwt beam="1">  1        1 0.88568124E+00 0.30000000E+03</pdfrwt>
<pdfrwt beam="2">0</pdfrwt>
<totfact> 0.16905818E-04</totfact>
</mgrwt>
<clustering>
<clus scale="   31.863">  1  6  2 -1</clus>
<clus scale="  482.684">  4  5 -1 -1</clus>
<clus scale="  300.000">  1  4  2 -1</clus>
</clustering>
</event>
<event>
 6    1  0.1007353E-011  0.3000000E+03  0.7818608E-02  0.1093470E+00
          1   -1    0    0  502    0  0.00000000000E+00  0.00000000000E+00  0.23695485435E+03  0.23695485435E+03  0.00000000000E+00 0.  1.
         13   -1    0    0    0    0 -0.00000000000E+00 -0.00000000000E+00 -0.27500000000E+03  0.27500000000E+03  0.00000000000E+00 0.  1.
    9000005    2    1    2  501    0 -0.23975679634E+02  0.25146012637E+02 -0.41166779689E+02  0.47707076393E+03  0.47401967773E+03 0.  0.
         13    1    3    3    0    0  0.58133250060E+02 -0.32567596461E+02  0.20269346517E+03  0.21336532972E+03  0.00000000000E+00 0.  1.
          1    1    3    3  501    0 -0.82108929694E+02  0.57713609098E+02 -0.24386024486E+03  0.26370543421E+03  0.00000000000E+00 0.  1.
         21    1    1    2  502  501  0.23975679634E+02 -0.25146012637E+02  0.31216340380E+01  0.34884090421E+02  0.00000000000E+00 0.  1.
<scales pt_clust_4="550.00000" pt_clust_5="550.00000" pt_clust_6="34.74414"></scales>
<mgrwt>
<rscale>  0 0.30000000E+03</rscale>
<asrwt>  1 0.34744139E+02</asrwt>
<pdfrwt beam="1">  1        1 0.86165402E+00 0.30000000E+03</pdfrwt>
<pdfrwt beam="2">0</pdfrwt>
<totfact> 0.31093332E-04</totfact>
</mgrwt>
<clustering>
<clus scale="   34.744">  1  6  2 -1</clus>
<clus scale="  474.020">  4  5 -1 -1</clus>
<clus scale="  300.000">  1  4  2 -1</clus>
</clustering>
</event>
<event>
 6    1  0.1007353E-011  0.3000000E+03  0.7818608E-02  0.1093470E+00
          1   -1    0    0  502    0  0.00000000000E+00  0.00000000000E+00  0.24168161100E+03  0.24168161100E+03  0.00000000000E+00 0.  1.
         13   -1    0    0    0    0 -0.00000000000E+00 -0.00000000000E+00 -0.27500000000E+03  0.27500000000E+03  0.00000000000E+00 0.  1.
    9000005    2    1    2  501    0 -0.21586477715E+02  0.28168147292E+02 -0.42811108516E+02  0.47994563047E+03  0.47671332754E+03 0.  0.
         13    1    3    3    0    0 -0.45289405328E+02 -0.22205078431E+03 -0.16168255596E+02  0.22719835725E+03  0.00000000000E+00 0.  1.
          1    1    3    3  501    0  0.23702927613E+02  0.25021893160E+03 -0.26642852919E+02  0.25274727322E+03  0.00000000000E+00 0.  1.
         21    1    1    2  502  501  0.21586477715E+02 -0.28168147292E+02  0.94927195170E+01  0.36735980535E+02  0.00000000000E+00 0.  1.
<scales pt_clust_4="550.00000" pt_clust_5="550.00000" pt_clust_6="35.48832"></scales>
<mgrwt>
<rscale>  0 0.30000000E+03</rscale>
<asrwt>  1 0.35488316E+02</asrwt>
<pdfrwt beam="1">  1        1 0.87884222E+00 0.30000000E+03</pdfrwt>
<pdfrwt beam="2">0</pdfrwt>
<totfact> 0.20331363E-04</totfact>
</mgrwt>
<clustering>
<clus scale="   35.488">  1  6  2 -1</clus>
<clus scale="  476.713">  4  5 -1 -1</clus>
<clus scale="  300.000">  1  4  2 -1</clus>
</clustering>
</event>
<event>
 6    1  0.1007353E-011  0.3000000E+03  0.7818608E-02  0.1093470E+00
          1   -1    0    0  502    0  0.00000000000E+00  0.00000000000E+00  0.24111610365E+03  0.24111610365E+03  0.00000000000E+00 0.  1.
         13   -1    0    0    0    0 -0.00000000000E+00 -0.00000000000E+00 -0.27500000000E+03  0.27500000000E+03  0.00000000000E+00 0.  1.
    9000005    2    1    2  501    0 -0.25282135132E+00  0.38465389434E+02 -0.67782086884E+02  0.46484488927E+03  0.45826489029E+03 0.  0.
         13    1    3    3    0    0 -0.65616937335E+02  0.56721662452E+02 -0.25306925267E+03  0.26752004804E+03  0.00000000000E+00 0.  1.
          1    1    3    3  501    0  0.65364115983E+02 -0.18256273018E+02  0.18528716578E+03  0.19732484123E+03  0.00000000000E+00 0.  1.
         21    1    1    2  502  501  0.25282135132E+00 -0.38465389434E+02  0.33898190532E+02  0.51271214383E+02  0.00000000000E+00 0. -1.
<scales pt_clust_4="550.00000" pt_clust_5="550.00000" pt_clust_6="38.46622"></scales>
<mgrwt>
<rscale>  0 0.30000000E+03</rscale>
<asrwt>  1 0.38466220E+02</asrwt>
<pdfrwt beam="1">  1        1 0.87678583E+00 0.30000000E+03</pdfrwt>
<pdfrwt beam="2">0</pdfrwt>
<totfact> 0.21142797E-04</totfact>
</mgrwt>
<clustering>
<clus scale="   38.466">  1  6  2 -1</clus>
<clus scale="  458.265">  4  5 -1 -1</clus>
<clus scale="  300.000">  1  4  2 -1</clus>
</clustering>
</event>
<event>
 6    1  0.1007353E-011  0.3000000E+03  0.7818608E-02  0.1093470E+00
          1   -1    0    0  502    0  0.00000000000E+00  0.00000000000E+00  0.24002561451E+03  0.24002561451E+03  0.00000000000E+00 0.  1.
         13   -1    0    0    0    0 -0.00000000000E+00 -0.00000000000E+00 -0.27500000000E+03  0.27500000000E+03  0.00000000000E+00 0.  1.
    9000005    2    1    2  501    0 -0.31901301931E+02  0.97416631807E+01 -0.29749363517E+02  0.48126329941E+03  0.47918341547E+03 0.  0.
         13    1    3    3    0    0 -0.16717223887E+03 -0.14608756602E+03 -0.12412698561E+03  0.25435338203E+03  0.00000000000E+00 0.  1.
          1    1    3    3  501    0  0.13527093694E+03  0.15582922920E+03  0.94377622095E+02  0.22690991738E+03  0.00000000000E+00 0.  1.
         21    1    1    2  502  501  0.31901301931E+02 -0.97416631807E+01 -0.52250219705E+01  0.33762315101E+02  0.00000000000E+00 0. -1.
<scales pt_clust_4="550.00000" pt_clust_5="550.00000" pt_clust_6="33.35557"></scales>
<mgrwt>
<rscale>  0 0.30000000E+03</rscale>
<asrwt>  1 0.33355572E+02</asrwt>
<pdfrwt beam="1">  1        1 0.87282042E+00 0.30000000E+03</pdfrwt>
<pdfrwt beam="2">0</pdfrwt>
<totfact> 0.23913794E-04</totfact>
</mgrwt>
<clustering>
<clus scale="   33.356">  1  6  2 -1</clus>
<clus scale="  479.183">  4  5 -1 -1</clus>
<clus scale="  300.000">  1  4  2 -1</clus>
</clustering>
</event>
<event>
 6    1  0.1007353E-011  0.3000000E+03  0.7818608E-02  0.1093470E+00
          1   -1    0    0  502    0  0.00000000000E+00  0.00000000000E+00  0.25851386517E+03  0.25851386517E+03  0.00000000000E+00 0.  1.
         13   -1    0    0    0    0 -0.00000000000E+00 -0.00000000000E+00 -0.27500000000E+03  0.27500000000E+03  0.00000000000E+00 0.  1.
    9000005    2    1    2  501    0 -0.32894042943E+02 -0.17586013914E+02 -0.33474613964E+02  0.49252735068E+03  0.48997076999E+03 0.  0.
         13    1    3    3    0    0  0.17271059103E+03  0.13223363233E+03 -0.83970550465E+02  0.23316460949E+03  0.00000000000E+00 0.  1.
          3    1    3    3  501    0 -0.20560463397E+03 -0.14981964625E+03  0.50495936501E+02  0.25936274119E+03  0.00000000000E+00 0.  1.
         21    1    1    2  502  501  0.32894042943E+02  0.17586013914E+02  0.16988479129E+02  0.40986514485E+02  0.00000000000E+00 0. -1.
<scales pt_clust_4="550.00000" pt_clust_5="550.00000" pt_clust_6="37.29995"></scales>
<mgrwt>
<rscale>  0 0.30000000E+03</rscale>
<asrwt>  1 0.37299946E+02</asrwt>
<pdfrwt beam="1">  1        1 0.94005042E+00 0.30000000E+03</pdfrwt>
<pdfrwt beam="2">0</pdfrwt>
<totfact> 0.18895081E-05</totfact>
</mgrwt>
<clustering>
<clus scale="   37.300">  1  6  2 -1</clus>
<clus scale="  489.971">  4  5 -1 -1</clus>
<clus scale="  300.000">  1  4  2 -1</clus>
</clustering>
</event>
<event>
 6    1  0.1007353E-011  0.3000000E+03  0.7818608E-02  0.1093470E+00
          1   -1    0    0  502    0  0.00000000000E+00  0.00000000000E+00  0.25180816764E+03  0.25180816764E+03  0.00000000000E+00 0.  1.
         13   -1    0    0    0    0 -0.00000000000E+00 -0.00000000000E+00 -0.27500000000E+03  0.27500000000E+03  0.00000000000E+00 0.  1.
    9000005    2    1    2  501    0 -0.35701121030E+02 -0.18583450164E+02 -0.56602446186E+02  0.47449962361E+03  0.46938911494E+03 0.  0.
         13    1    3    3    0    0 -0.65654437547E+01 -0.12931556918E+03 -0.23161958847E+03  0.26535496084E+03  0.00000000000E+00 0.  1.
          3    1    3    3  501    0 -0.29135677275E+02  0.11073211901E+03  0.17501714228E+03  0.20914466276E+03  0.00000000000E+00 0.  1.
         21    1    1    2  502  501  0.35701121030E+02  0.18583450164E+02  0.33410613828E+02  0.52308544036E+02  0.00000000000E+00 0. -1.
<scales pt_clust_4="550.00000" pt_clust_5="550.00000" pt_clust_6="40.24816"></scales>
<mgrwt>
<rscale>  0 0.30000000E+03</rscale>
<asrwt>  1 0.40248163E+02</asrwt>
<pdfrwt beam="1">  1        1 0.91566606E+00 0.30000000E+03</pdfrwt>
<pdfrwt beam="2">0</pdfrwt>
<totfact> 0.50927750E-05</totfact>
</mgrwt>
<clustering>
<clus scale="   40.248">  1  6  2 -1</clus>
<clus scale="  469.389">  4  5 -1 -1</clus>
<clus scale="  300.000">  1  4  2 -1</clus>
</clustering>
</event>
<event>
 6    1  0.1007353E-011  0.3000000E+03  0.7818608E-02  0.1093470E+00
          1   -1    0    0  502    0  0.00000000000E+00  0.00000000000E+00  0.22836302452E+03  0.22836302452E+03  0.00000000000E+00 0.  1.
         13   -1    0    0    0    0 -0.00000000000E+00 -0.00000000000E+00 -0.27500000000E+03  0.27500000000E+03  0.00000000000E+00 0.  1.
    9000005    2    1    2  501    0 -0.34925721829E+02  0.40995790607E+01 -0.54141993527E+02  0.46740557898E+03  0.46292548775E+03 0.  0.
         13    1    3    3    0    0  0.95168462507E+02  0.19466007549E+03  0.36076660967E+02  0.21966134551E+03  0.00000000000E+00 0.  1.
          1    1    3    3  501    0 -0.13009418434E+03 -0.19056049643E+03 -0.90218654495E+02  0.24774423347E+03  0.00000000000E+00 0.  1.
         21    1    1    2  502  501  0.34925721829E+02 -0.40995790607E+01  0.75050180480E+01  0.35957445538E+02  0.00000000000E+00 0.  1.
<scales pt_clust_4="550.00000" pt_clust_5="550.00000" pt_clust_6="35.16550"></scales>
<mgrwt>
<rscale>  0 0.30000000E+03</rscale>
<asrwt>  1 0.35165503E+02</asrwt>
<pdfrwt beam="1">  1        1 0.83041100E+00 0.30000000E+03</pdfrwt>
<pdfrwt beam="2">0</pdfrwt>
<totfact> 0.58593050E-04</totfact>
</mgrwt>
<clustering>
<clus scale="   35.166">  1  6  2 -1</clus>
<clus scale="  462.925">  4  5 -1 -1</clus>
<clus scale="  300.000">  1  4  2 -1</clus>
</clustering>
</event>
<event>
 6    1  0.1007353E-011  0.3000000E+03  0.7818608E-02  0.1093470E+00
          1   -1    0    0  502    0  0.00000000000E+00  0.00000000000E+00  0.23207639541E+03  0.23207639541E+03  0.00000000000E+00 0.  1.
         13   -1    0    0    0    0 -0.00000000000E+00 -0.00000000000E+00 -0.27500000000E+03  0.27500000000E+03  0.00000000000E+00 0.  1.
    9000005    2    1    2  501    0  0.92536408415E+01  0.28769361935E+02 -0.66746279076E+02  0.46859489499E+03  0.46283129085E+03 0.  0.
         13    1    3    3    0    0  0.23581926694E+03  0.42745688368E+01 -0.29790544117E+02  0.23773193962E+03  0.00000000000E+00 0.  1.
          3    1    3    3  501    0 -0.22656562609E+03  0.24494793098E+02 -0.36955734959E+02  0.23086295537E+03  0.00000000000E+00 0.  1.
         21    1    1    2  502  501 -0.92536408415E+01 -0.28769361935E+02  0.23822674490E+02  0.38481500423E+02  0.00000000000E+00 0.  1.
<scales pt_clust_4="550.00000" pt_clust_5="550.00000" pt_clust_6="30.22095"></scales>
<mgrwt>
<rscale>  0 0.30000000E+03</rscale>
<asrwt>  1 0.30220954E+02</asrwt>
<pdfrwt beam="1">  1        1 0.84391417E+00 0.30000000E+03</pdfrwt>
<pdfrwt beam="2">0</pdfrwt>
<totfact> 0.47474483E-04</totfact>
</mgrwt>
<clustering>
<clus scale="   30.221">  1  6  2 -1</clus>
<clus scale="  462.831">  4  5 -1 -1</clus>
<clus scale="  300.000">  1  4  2 -1</clus>
</clustering>
</event>
<event>
 6    1  0.1007353E-011  0.3000000E+03  0.7818608E-02  0.1093470E+00
          1   -1    0    0  502    0  0.00000000000E+00  0.00000000000E+00  0.23351767922E+03  0.23351767922E+03  0.00000000000E+00 0.  1.
         13   -1    0    0    0    0 -0.00000000000E+00 -0.00000000000E+00 -0.27500000000E+03  0.27500000000E+03  0.00000000000E+00 0.  1.
    9000005    2    1    2  501    0 -0.39308583970E+02  0.16294270965E+02 -0.56441998365E+02  0.46341269065E+03  0.45799012505E+03 0.  0.
         13    1    3    3    0    0  0.55829185105E+02  0.41883010105E+02 -0.24279128207E+03  0.25262361548E+03  0.00000000000E+00 0.  1.
          1    1    3    3  501    0 -0.95137769075E+02 -0.25588739140E+02  0.18634928371E+03  0.21078907518E+03  0.00000000000E+00 0.  1.
         21    1    1    2  502  501  0.39308583970E+02 -0.16294270965E+02  0.14959677585E+02  0.45104988565E+02  0.00000000000E+00 0. -1.
<scales pt_clust_4="550.00000" pt_clust_5="550.00000" pt_clust_6="42.55195"></scales>
<mgrwt>
<rscale>  0 0.30000000E+03</rscale>
<asrwt>  1 0.42551945E+02</asrwt>
<pdfrwt beam="1">  1        1 0.84915520E+00 0.30000000E+03</pdfrwt>
<pdfrwt beam="2">0</pdfrwt>
<totfact> 0.39983508E-04</totfact>
</mgrwt>
<clustering>
<clus scale="   42.552">  1  6  2 -1</clus>
<clus scale="  457.990">  4  5 -1 -1</clus>
<clus scale="  300.000">  1  4  2 -1</clus>
</clustering>
</event>
<event>
 6    1  0.1007353E-011  0.3000000E+03  0.7818608E-02  0.1093470E+00
          1   -1    0    0  502    0  0.00000000000E+00  0.00000000000E+00  0.24592176491E+03  0.24592176491E+03  0.00000000000E+00 0.  1.
         13   -1    0    0    0    0 -0.00000000000E+00 -0.00000000000E+00 -0.27500000000E+03  0.27500000000E+03  0.00000000000E+00 0.  1.
    9000005    2    1    2  501    0 -0.37654569944E+02 -0.51591459106E+01 -0.13515151254E+02  0.47985239673E+03  0.47815392910E+03 0.  0.
         13    1    3    3    0    0  0.57359345195E+02  0.10820822168E+03 -0.20444931018E+03  0.23832464025E+03  0.00000000000E+00 0.  1.
          1    1    3    3  501    0 -0.95013915140E+02 -0.11336736759E+03  0.19093415892E+03  0.24152775648E+03  0.00000000000E+00 0.  1.
         21    1    1    2  502  501  0.37654569944E+02  0.51591459106E+01 -0.15563083835E+02  0.41069368180E+02  0.00000000000E+00 0.  1.
<scales pt_clust_4="550.00000" pt_clust_5="550.00000" pt_clust_6="38.00638"></scales>
<mgrwt>
<rscale>  0 0.30000000E+03</rscale>
<asrwt>  1 0.38006379E+02</asrwt>
<pdfrwt beam="1">  1        1 0.89426096E+00 0.30000000E+03</pdfrwt>
<pdfrwt beam="2">0</pdfrwt>
<totfact> 0.12658607E-04</totfact>
</mgrwt>
<clustering>
<clus scale="   38.006">  1  6  2 -1</clus>
<clus scale="  478.154">  4  5 -1 -1</clus>
<clus scale="  300.000">  1  4  2 -1</clus>
</clustering>
</event>
<event>
 6    1  0.1007353E-011  0.3000000E+03  0.7818608E-02  0.1093470E+00
          1   -1    0    0  502    0  0.00000000000E+00  0.00000000000E+00  0.24057549411E+03  0.24057549411E+03  0.00000000000E+00 0.  1.
         13   -1    0    0    0    0 -0.00000000000E+00 -0.00000000000E+00 -0.27500000000E+03  0.27500000000E+03  0.00000000000E+00 0.  1.
    9000005    2    1    2  501    0  0.17775541377E+02 -0.45670752979E+02 -0.41902065266E+02  0.46600028415E+03  0.46151781569E+03 0.  0.
         13    1    3    3    0    0 -0.11528148043E+03 -0.14976716389E+03 -0.16982952013E+03  0.25409071021E+03  0.00000000000E+00 0.  1.
          1    1    3    3  501    0  0.13305702181E+03  0.10409641091E+03  0.12792745486E+03  0.21190957393E+03  0.00000000000E+00 0.  1.
         21    1    1    2  502  501 -0.17775541377E+02  0.45670752979E+02  0.74775593791E+01  0.49575209966E+02  0.00000000000E+00 0. -1.
<scales pt_clust_4="550.00000" pt_clust_5="550.00000" pt_clust_6="49.00804"></scales>
<mgrwt>
<rscale>  0 0.30000000E+03</rscale>
<asrwt>  1 0.49008036E+02</asrwt>
<pdfrwt beam="1">  1        1 0.87481998E+00 0.30000000E+03</pdfrwt>
<pdfrwt beam="2">0</pdfrwt>
<totfact> 0.21253184E-04</totfact>
</mgrwt>
<clustering>
<clus scale="   49.008">  1  6  2 -1</clus>
<clus scale="  461.518">  4  5 -1 -1</clus>
<clus scale="  300.000">  1  4  2 -1</clus>
</clustering>
</event>
<event>
 6    1  0.1007353E-011  0.3000000E+03  0.7818608E-02  0.1093470E+00
          1   -1    0    0  502    0  0.00000000000E+00  0.00000000000E+00  0.24588456611E+03  0.24588456611E+03  0.00000000000E+00 0.  1.
         13   -1    0    0    0    0 -0.00000000000E+00 -0.00000000000E+00 -0.27500000000E+03  0.27500000000E+03  0.00000000000E+00 0.  1.
    9000005    2    1    2  501    0  0.24389004131E+02  0.26691937281E+02 -0.41572989701E+02  0.48264226316E+03  0.47948718197E+03 0.  0.
         13    1    3    3    0    0 -0.86024591455E+02  0.21084122469E+03  0.73182551921E+02  0.23918599095E+03  0.00000000000E+00 0.  1.
          1    1    3    3  501    0  0.11041359559E+03 -0.18414928741E+03 -0.11475554162E+03  0.24345627220E+03  0.00000000000E+00 0.  1.
         21    1    1    2  502  501 -0.24389004131E+02 -0.26691937281E+02  0.12457555811E+02  0.38242302952E+02  0.00000000000E+00 0.  1.
<scales pt_clust_4="550.00000" pt_clust_5="550.00000" pt_clust_6="36.15637"></scales>
<mgrwt>
<rscale>  0 0.30000000E+03</rscale>
<asrwt>  1 0.36156369E+02</asrwt>
<pdfrwt beam="1">  1        1 0.89412569E+00 0.30000000E+03</pdfrwt>
<pdfrwt beam="2">0</pdfrwt>
<totfact> 0.12821472E-04</totfact>
</mgrwt>
<clustering>
<clus scale="   36.156">  1  6  2 -1</clus>
<clus scale="  479.487">  4  5 -1 -1</clus>
<clus scale="  300.000">  1  4  2 -1</clus>
</clustering>
</event>
<event>
 6    1  0.1007353E-011  0.3000000E+03  0.7818608E-02  0.1093470E+00
          1   -1    0    0  502    0  0.00000000000E+00  0.00000000000E+00  0.23606132890E+03  0.23606132890E+03  0.00000000000E+00 0.  1.
         13   -1    0    0    0    0 -0.00000000000E+00 -0.00000000000E+00 -0.27500000000E+03  0.27500000000E+03  0.00000000000E+00 0.  1.
    9000005    2    1    2  501    0  0.59129759293E+01  0.35342371628E+02 -0.36816462638E+02  0.47516494628E+03  0.47237932611E+03 0.  0.
         13    1    3    3    0    0  0.18279712713E+03 -0.11746315841E+03 -0.90426267323E+02  0.23534930018E+03  0.00000000000E+00 0.  1.
          1    1    3    3  501    0 -0.17688415120E+03  0.15280553004E+03  0.53609804685E+02  0.23981564610E+03  0.00000000000E+00 0.  1.
         21    1    1    2  502  501 -0.59129759293E+01 -0.35342371628E+02 -0.21222084587E+01  0.35896382622E+02  0.00000000000E+00 0. -1.
<scales pt_clust_4="550.00000" pt_clust_5="550.00000" pt_clust_6="35.83359"></scales>
<mgrwt>
<rscale>  0 0.30000000E+03</rscale>
<asrwt>  1 0.35833595E+02</asrwt>
<pdfrwt beam="1">  1        1 0.85840483E+00 0.30000000E+03</pdfrwt>
<pdfrwt beam="2">0</pdfrwt>
<totfact> 0.33481055E-04</totfact>
</mgrwt>
<clustering>
<clus scale="   35.834">  1  6  2 -1</clus>
<clus scale="  472.379">  4  5 -1 -1</clus>
<clus scale="  300.000">  1  4  2 -1</clus>
</clustering>
</event>
<event>
 6    1  0.1007353E-011  0.3000000E+03  0.7818608E-02  0.1093470E+00
          1   -1    0    0  502    0  0.00000000000E+00  0.00000000000E+00  0.25269104367E+03  0.25269104367E+03  0.00000000000E+00 0.  1.
         13   -1    0    0    0    0 -0.00000000000E+00 -0.00000000000E+00 -0.27500000000E+03  0.27500000000E+03  0.00000000000E+00 0.  1.
    9000005    2    1    2  501    0  0.44029084109E+02 -0.17803472031E+02 -0.33024509374E+02  0.47900483473E+03  0.47549920043E+03 0.  0.
         13    1    3    3    0    0  0.55624026321E+02 -0.20356465489E+03  0.11578691673E+03  0.24070565243E+03  0.00000000000E+00 0.  1.
          1    1    3    3  501    0 -0.11594942212E+02  0.18576118286E+03 -0.14881142611E+03  0.23829918230E+03  0.00000000000E+00 0.  1.
         21    1    1    2  502  501 -0.44029084109E+02  0.17803472031E+02  0.10715553041E+02  0.48686208938E+02  0.00000000000E+00 0.  1.
<scales pt_clust_4="550.00000" pt_clust_5="550.00000" pt_clust_6="47.49236"></scales>
<mgrwt>
<rscale>  0 0.30000000E+03</rscale>
<asrwt>  1 0.47492356E+02</asrwt>
<pdfrwt beam="1">  1        1 0.91887652E+00 0.30000000E+03</pdfrwt>
<pdfrwt beam="2">0</pdfrwt>
<totfact> 0.41845139E-05</totfact>
</mgrwt>
<clustering>
<clus scale="   47.492">  1  6  2 -1</clus>
<clus scale="  475.499">  4  5 -1 -1</clus>
<clus scale="  300.000">  1  4  2 -1</clus>
</clustering>
</event>
<event>
 6    1  0.1007353E-011  0.3000000E+03  0.7818608E-02  0.1093470E+00
          1   -1    0    0  502    0  0.00000000000E+00  0.00000000000E+00  0.22465793654E+03  0.22465793654E+03  0.00000000000E+00 0.  1.
         13   -1    0    0    0    0 -0.00000000000E+00 -0.00000000000E+00 -0.27500000000E+03  0.27500000000E+03  0.00000000000E+00 0.  1.
    9000005    2    1    2  501    0 -0.23731843986E+02 -0.20217914068E+02 -0.59366594176E+02  0.46720171028E+03  0.46236466249E+03 0.  0.
         13    1    3    3    0    0  0.72758085352E+02 -0.22528305782E+03 -0.27191342488E+02  0.23829721826E+03  0.00000000000E+00 0.  1.
          1    1    3    3  501    0 -0.96489929338E+02  0.20506514375E+03 -0.32175251688E+02  0.22890449202E+03  0.00000000000E+00 0.  1.
         21    1    1    2  502  501  0.23731843986E+02  0.20217914068E+02  0.90245307154E+01  0.32456226258E+02  0.00000000000E+00 0. -1.
<scales pt_clust_4="550.00000" pt_clust_5="550.00000" pt_clust_6="31.17634"></scales>
<mgrwt>
<rscale>  0 0.30000000E+03</rscale>
<asrwt>  1 0.31176345E+02</asrwt>
<pdfrwt beam="1">  1        1 0.81693795E+00 0.30000000E+03</pdfrwt>
<pdfrwt beam="2">0</pdfrwt>
<totfact> 0.78457594E-04</totfact>
</mgrwt>
<clustering>
<clus scale="   31.176">  1  6  2 -1</clus>
<clus scale="  462.365">  4  5 -1 -1</clus>
<clus scale="  300.000">  1  4  2 -1</clus>
</clustering>
</event>
<event>
 6    1  0.1007353E-011  0.3000000E+03  0.7818608E-02  0.1093470E+00
          1   -1    0    0  502    0  0.00000000000E+00  0.00000000000E+00  0.23374455779E+03  0.23374455779E+03  0.00000000000E+00 0.  1.
         13   -1    0    0    0    0 -0.00000000000E+00 -0.00000000000E+00 -0.27500000000E+03  0.27500000000E+03  0.00000000000E+00 0.  1.
    9000005    2    1    2  501    0 -0.19812230276E+02  0.25912247981E+02 -0.47301576396E+02  0.47557039914E+03  0.47208664071E+03 0.  0.
         13    1    3    3    0    0  0.46387177296E+02 -0.21056472965E+03 -0.75360965999E+02  0.22840435807E+03  0.00000000000E+00 0.  1.
          1    1    3    3  501    0 -0.66199407573E+02  0.23647697763E+03  0.28059389603E+02  0.24716604107E+03  0.00000000000E+00 0.  1.
         21    1    1    2  502  501  0.19812230276E+02 -0.25912247981E+02  0.60461341879E+01  0.33174158656E+02  0.00000000000E+00 0. -1.
<scales pt_clust_4="550.00000" pt_clust_5="550.00000" pt_clust_6="32.61854"></scales>
<mgrwt>
<rscale>  0 0.30000000E+03</rscale>
<asrwt>  1 0.32618539E+02</asrwt>
<pdfrwt beam="1">  1        1 0.84998021E+00 0.30000000E+03</pdfrwt>
<pdfrwt beam="2">0</pdfrwt>
<totfact> 0.41259784E-04</totfact>
</mgrwt>
<clustering>
<clus scale="   32.619">  1  6  2 -1</clus>
<clus scale="  472.087">  4  5 -1 -1</clus>
<clus scale="  300.000">  1  4  2 -1</clus>
</clustering>
</event>
<event>
 6    1  0.1007353E-011  0.3000000E+03  0.7818608E-02  0.1093470E+00
          1   -1    0    0  502    0  0.00000000000E+00  0.00000000000E+00  0.24874553415E+03  0.24874553415E+03  0.00000000000E+00 0.  1.
         13   -1    0    0    0    0 -0.00000000000E+00 -0.00000000000E+00 -0.27500000000E+03  0.27500000000E+03  0.00000000000E+00 0.  1.
    9000005    2    1    2  501    0  0.21252914874E+02 -0.22235230112E+02 -0.49130476600E+02  0.48541273205E+03  0.48193944107E+03 0.  0.
         13    1    3    3    0    0 -0.13760203149E+03 -0.86464353229E+02  0.15107901057E+03  0.22189022259E+03  0.00000000000E+00 0.  1.
          1    1    3    3  501    0  0.15885494636E+03  0.64229123117E+02 -0.20020948717E+03  0.26352250946E+03  0.00000000000E+00 0.  1.
         21    1    1    2  502  501 -0.21252914874E+02  0.22235230112E+02  0.22876010747E+02  0.38332802095E+02  0.00000000000E+00 0.  1.
<scales pt_clust_4="550.00000" pt_clust_5="550.00000" pt_clust_6="30.75861"></scales>
<mgrwt>
<rscale>  0 0.30000000E+03</rscale>
<asrwt>  1 0.30758606E+02</asrwt>
<pdfrwt beam="1">  1        1 0.90452922E+00 0.30000000E+03</pdfrwt>
<pdfrwt beam="2">0</pdfrwt>
<totfact> 0.96681357E-05</totfact>
</mgrwt>
<clustering>
<clus scale="   30.759">  1  6  2 -1</clus>
<clus scale="  481.939">  4  5 -1 -1</clus>
<clus scale="  300.000">  1  4  2 -1</clus>
</clustering>
</event>
<event>
 6    1  0.1007353E-011  0.3000000E+03  0.7818608E-02  0.1093470E+00
          1   -1    0    0  502    0  0.00000000000E+00  0.00000000000E+00  0.23568508766E+03  0.23568508766E+03  0.00000000000E+00 0.  1.
         13   -1    0    0    0    0 -0.00000000000E+00 -0.00000000000E+00 -0.27500000000E+03  0.27500000000E+03  0.00000000000E+00 0.  1.
    9000005    2    1    2  501    0 -0.24191340320E+02 -0.31778978503E+02 -0.25122205636E+02  0.46829927229E+03  0.46591625727E+03 0.  0.
         13    1    3    3    0    0  0.18595304188E+03  0.75060277729E+02  0.72371898012E+02  0.21319069093E+03  0.00000000000E+00 0.  1.
          1    1    3    3  501    0 -0.21014438220E+03 -0.10683925623E+03 -0.97494103648E+02  0.25510858137E+03  0.00000000000E+00 0.  1.
         21    1    1    2  502  501  0.24191340320E+02  0.31778978503E+02 -0.14192706701E+02  0.42385815371E+02  0.00000000000E+00 0. -1.
<scales pt_clust_4="550.00000" pt_clust_5="550.00000" pt_clust_6="39.93903"></scales>
<mgrwt>
<rscale>  0 0.30000000E+03</rscale>
<asrwt>  1 0.39939029E+02</asrwt>
<pdfrwt beam="1">  1        1 0.85703668E+00 0.30000000E+03</pdfrwt>
<pdfrwt beam="2">0</pdfrwt>
<totfact> 0.33909899E-04</totfact>
</mgrwt>
<clustering>
<clus scale="   39.939">  1  6  2 -1</clus>
<clus scale="  465.916">  4  5 -1 -1</clus>
<clus scale="  300.000">  1  4  2 -1</clus>
</clustering>
</event>
<event>
 6    1  0.1007353E-011  0.3000000E+03  0.7818608E-02  0.1093470E+00
          1   -1    0    0  502    0  0.00000000000E+00  0.00000000000E+00  0.25655872754E+03  0.25655872754E+03  0.00000000000E+00 0.  1.
         13   -1    0    0    0    0 -0.00000000000E+00 -0.00000000000E+00 -0.27500000000E+03  0.27500000000E+03  0.00000000000E+00 0.  1.
    9000005    2    1    2  501    0  0.56295662058E+02 -0.71482284855E+01 -0.44866258591E+02  0.46896017620E+03  0.46334691859E+03 0.  0.
         13    1    3    3    0    0  0.34974907194E+02  0.22769555824E+03 -0.99623022860E+01  0.23058134972E+03  0.00000000000E+00 0.  1.
          3    1    3    3  501    0  0.21320754863E+02 -0.23484378672E+03 -0.34903956305E+02  0.23837882648E+03  0.00000000000E+00 0.  1.
         21    1    1    2  502  501 -0.56295662058E+02  0.71482284855E+01  0.26424986128E+02  0.62598551332E+02  0.00000000000E+00 0. -1.
<scales pt_clust_4="550.00000" pt_clust_5="550.00000" pt_clust_6="56.74768"></scales>
<mgrwt>
<rscale>  0 0.30000000E+03</rscale>
<asrwt>  1 0.56747676E+02</asrwt>
<pdfrwt beam="1">  1        1 0.93294083E+00 0.30000000E+03</pdfrwt>
<pdfrwt beam="2">0</pdfrwt>
<totfact> 0.21904259E-05</totfact>
</mgrwt>
<clustering>
<clus scale="   56.748">  1  6  2 -1</clus>
<clus scale="  463.347">  4  5 -1 -1</clus>
<clus scale="  300.000">  1  4  2 -1</clus>
</clustering>
</event>
<event>
 6    1  0.1007353E-011  0.3000000E+03  0.7818608E-02  0.1093470E+00
          1   -1    0    0  502    0  0.00000000000E+00  0.00000000000E+00  0.24652895609E+03  0.24652895609E+03  0.00000000000E+00 0.  1.
         13   -1    0    0    0    0 -0.00000000000E+00 -0.00000000000E+00 -0.27500000000E+03  0.27500000000E+03  0.00000000000E+00 0.  1.
    9000005    2    1    2  501    0  0.44594039917E+02 -0.86636440295E+01 -0.31002632919E+02  0.47603064770E+03  0.47284281445E+03 0.  0.
         13    1    3    3    0    0 -0.18566535535E+03  0.11011978391E+03 -0.17917203086E+02  0.21660798035E+03  0.00000000000E+00 0.  1.
          1    1    3    3  501    0  0.23025939527E+03 -0.11878342794E+03 -0.13085429834E+02  0.25942266735E+03  0.00000000000E+00 0.  1.
         21    1    1    2  502  501 -0.44594039917E+02  0.86636440295E+01  0.25315890132E+01  0.45498308396E+02  0.00000000000E+00 0.  1.
<scales pt_clust_4="550.00000" pt_clust_5="550.00000" pt_clust_6="45.42782"></scales>
<mgrwt>
<rscale>  0 0.30000000E+03</rscale>
<asrwt>  1 0.45427823E+02</asrwt>
<pdfrwt beam="1">  1        1 0.89646893E+00 0.30000000E+03</pdfrwt>
<pdfrwt beam="2">0</pdfrwt>
<totfact> 0.11577401E-04</totfact>
</mgrwt>
<clustering>
<clus scale="   45.428">  1  6  2 -1</clus>
<clus scale="  472.843">  4  5 -1 -1</clus>
<clus scale="  300.000">  1  4  2 -1</clus>
</clustering>
</event>
<event>
 6    1  0.1007353E-011  0.3000000E+03  0.7818608E-02  0.1093470E+00
          1   -1    0    0  502    0  0.00000000000E+00  0.00000000000E+00  0.24045351513E+03  0.24045351513E+03  0.00000000000E+00 0.  1.
         13   -1    0    0    0    0 -0.00000000000E+00 -0.00000000000E+00 -0.27500000000E+03  0.27500000000E+03  0.00000000000E+00 0.  1.
    9000005    2    1    2  501    0  0.34065489403E+02 -0.13419385905E+02 -0.39989911745E+02  0.47843772955E+03  0.47535558325E+03 0.  0.
         13    1    3    3    0    0  0.20612980156E+03 -0.37837735169E+02  0.12061357833E+03  0.24180327660E+03  0.00000000000E+00 0.  1.
          3    1    3    3  501    0 -0.17206431216E+03  0.24418349264E+02 -0.16060349007E+03  0.23663445295E+03  0.00000000000E+00 0.  1.
         21    1    1    2  502  501 -0.34065489403E+02  0.13419385905E+02  0.54434268763E+01  0.37015785585E+02  0.00000000000E+00 0.  1.
<scales pt_clust_4="550.00000" pt_clust_5="550.00000" pt_clust_6="36.61335"></scales>
<mgrwt>
<rscale>  0 0.30000000E+03</rscale>
<asrwt>  1 0.36613351E+02</asrwt>
<pdfrwt beam="1">  1        1 0.87437642E+00 0.30000000E+03</pdfrwt>
<pdfrwt beam="2">0</pdfrwt>
<totfact> 0.22644199E-04</totfact>
</mgrwt>
<clustering>
<clus scale="   36.613">  1  6  2 -1</clus>
<clus scale="  475.356">  4  5 -1 -1</clus>
<clus scale="  300.000">  1  4  2 -1</clus>
</clustering>
</event>
<event>
 6    1  0.1007353E-011  0.3000000E+03  0.7818608E-02  0.1093470E+00
          1   -1    0    0  502    0  0.00000000000E+00  0.00000000000E+00  0.26192433725E+03  0.26192433725E+03  0.00000000000E+00 0.  1.
         13   -1    0    0    0    0 -0.00000000000E+00 -0.00000000000E+00 -0.27500000000E+03  0.27500000000E+03  0.00000000000E+00 0.  1.
    9000005    2    1    2  501    0  0.39699009112E+02  0.16333039473E+02 -0.54167234617E+02  0.47749962201E+03  0.47247118453E+03 0.  0.
         13    1    3    3    0    0  0.27577037281E+01  0.17716964582E+03 -0.19288419115E+03  0.26191792517E+03  0.00000000000E+00 0.  1.
          3    1    3    3  501    0  0.36941305383E+02 -0.16083660634E+03  0.13871695653E+03  0.21558169684E+03  0.00000000000E+00 0.  1.
         21    1    1    2  502  501 -0.39699009112E+02 -0.16333039473E+02  0.41091571869E+02  0.59424715241E+02  0.00000000000E+00 0. -1.
<scales pt_clust_4="550.00000" pt_clust_5="550.00000" pt_clust_6="42.92761"></scales>
<mgrwt>
<rscale>  0 0.30000000E+03</rscale>
<asrwt>  1 0.42927608E+02</asrwt>
<pdfrwt beam="1">  1        1 0.95245214E+00 0.30000000E+03</pdfrwt>
<pdfrwt beam="2">0</pdfrwt>
<totfact> 0.10575651E-05</totfact>
</mgrwt>
<clustering>
<clus scale="   42.928">  1  6  2 -1</clus>
<clus scale="  472.471">  4  5 -1 -1</clus>
<clus scale="  300.000">  1  4  2 -1</clus>
</clustering>
</event>
<event>
 6    1  0.1007353E-011  0.3000000E+03  0.7818608E-02  0.1093470E+00
          1   -1    0    0  502    0  0.00000000000E+00  0.00000000000E+00  0.22271524029E+03  0.22271524029E+03  0.00000000000E+00 0.  1.
         13   -1    0    0    0    0 -0.00000000000E+00 -0.00000000000E+00 -0.27500000000E+03  0.27500000000E+03  0.00000000000E+00 0.  1.
    9000005    2    1    2  501    0  0.19035329957E+01 -0.32933992984E+02 -0.61185446976E+02  0.46354663532E+03  0.45830508710E+03 0.  0.
         13    1    3    3    0    0 -0.29068292357E+02  0.16747120009E+03 -0.16399410921E+03  0.23618983114E+03  0.00000000000E+00 0.  1.
          3    1    3    3  501    0  0.30971825352E+02 -0.20040519307E+03  0.10280866223E+03  0.22735680418E+03  0.00000000000E+00 0.  1.
         21    1    1    2  502  501 -0.19035329957E+01  0.32933992984E+02  0.89006872615E+01  0.34168604968E+02  0.00000000000E+00 0.  1.
<scales pt_clust_4="550.00000" pt_clust_5="550.00000" pt_clust_6="32.98896"></scales>
<mgrwt>
<rscale>  0 0.30000000E+03</rscale>
<asrwt>  1 0.32988958E+02</asrwt>
<pdfrwt beam="1">  1        1 0.80987360E+00 0.30000000E+03</pdfrwt>
<pdfrwt beam="2">0</pdfrwt>
<totfact> 0.88390850E-04</totfact>
</mgrwt>
<clustering>
<clus scale="   32.989">  1  6  2 -1</clus>
<clus scale="  458.305">  4  5 -1 -1</clus>
<clus scale="  300.000">  1  4  2 -1</clus>
</clustering>
</event>
<event>
 6    1  0.1007353E-011  0.3000000E+03  0.7818608E-02  0.1093470E+00
          1   -1    0    0  502    0  0.00000000000E+00  0.00000000000E+00  0.23915358950E+03  0.23915358950E+03  0.00000000000E+00 0.  1.
         13   -1    0    0    0    0 -0.00000000000E+00 -0.00000000000E+00 -0.27500000000E+03  0.27500000000E+03  0.00000000000E+00 0.  1.
    9000005    2    1    2  501    0  0.40497535880E+02  0.10609586461E+01 -0.51822014064E+02  0.47060596092E+03  0.46598634451E+03 0.  0.
         13    1    3    3    0    0 -0.17191608102E+03  0.27961395720E+02 -0.15479561676E+03  0.23302073198E+03  0.00000000000E+00 0.  1.
          3    1    3    3  501    0  0.21241361690E+03 -0.26900437074E+02  0.10297360269E+03  0.23758522894E+03  0.00000000000E+00 0.  1.
         21    1    1    2  502  501 -0.40497535880E+02 -0.10609586461E+01  0.15975603562E+02  0.43547628578E+02  0.00000000000E+00 0. -1.
<scales pt_clust_4="550.00000" pt_clust_5="550.00000" pt_clust_6="40.51143"></scales>
<mgrwt>
<rscale>  0 0.30000000E+03</rscale>
<asrwt>  1 0.40511431E+02</asrwt>
<pdfrwt beam="1">  1        1 0.86964942E+00 0.30000000E+03</pdfrwt>
<pdfrwt beam="2">0</pdfrwt>
<totfact> 0.24855357E-04</totfact>
</mgrwt>
<clustering>
<clus scale="   40.511">  1  6  2 -1</clus>
<clus scale="  465.986">  4  5 -1 -1</clus>
<clus scale="  300.000">  1  4  2 -1</clus>
</clustering>
</event>
<event>
 6    1  0.1007353E-011  0.3000000E+03  0.7818608E-02  0.1093470E+00
          1   -1    0    0  502    0  0.00000000000E+00  0.00000000000E+00  0.24798094451E+03  0.24798094451E+03  0.00000000000E+00 0.  1.
         13   -1    0    0    0    0 -0.00000000000E+00 -0.00000000000E+00 -0.27500000000E+03  0.27500000000E+03  0.00000000000E+00 0.  1.
    9000005    2    1    2  501    0 -0.37913952443E+02 -0.26849427597E+02 -0.29195611904E+02  0.47647183841E+03  0.47330187988E+03 0.  0.
         13    1    3    3    0    0 -0.23437956788E+03 -0.10704079130E+03 -0.52613425424E+02  0.26298229100E+03  0.00000000000E+00 0.  1.
          3    1    3    3  501    0  0.19646561544E+03  0.80191363708E+02  0.23417813520E+02  0.21348954741E+03  0.00000000000E+00 0.  1.
         21    1    1    2  502  501  0.37913952443E+02  0.26849427597E+02  0.21765564138E+01  0.46509106097E+02  0.00000000000E+00 0.  1.
<scales pt_clust_4="550.00000" pt_clust_5="550.00000" pt_clust_6="46.45815"></scales>
<mgrwt>
<rscale>  0 0.30000000E+03</rscale>
<asrwt>  1 0.46458148E+02</asrwt>
<pdfrwt beam="1">  1        1 0.90174889E+00 0.30000000E+03</pdfrwt>
<pdfrwt beam="2">0</pdfrwt>
<totfact> 0.99399445E-05</totfact>
</mgrwt>
<clustering>
<clus scale="   46.458">  1  6  2 -1</clus>
<clus scale="  473.302">  4  5 -1 -1</clus>
<clus scale="  300.000">  1  4  2 -1</clus>
</clustering>
</event>
<event>
 6    1  0.1007353E-011  0.3000000E+03  0.7818608E-02  0.1093470E+00
          1   -1    0    0  502    0  0.00000000000E+00  0.00000000000E+00  0.25459258844E+03  0.25459258844E+03  0.00000000000E+00 0.  1.
         13   -1    0    0    0    0 -0.00000000000E+00 -0.00000000000E+00 -0.27500000000E+03  0.27500000000E+03  0.00000000000E+00 0.  1.
    9000005    2    1    2  501    0 -0.79553239560E+01  0.37440076331E+02 -0.31316910094E+02  0.48979229129E+03  0.48728912696E+03 0.  0.
         13    1    3    3    0    0  0.11496160354E+03 -0.19453151329E+03 -0.58851000965E+01  0.22603830285E+03  0.00000000000E+00 0.  1.
          3    1    3    3  501    0 -0.12291692750E+03  0.23197158962E+03 -0.25431809998E+02  0.26375398844E+03  0.00000000000E+00 0.  1.
         21    1    1    2  502  501  0.79553239560E+01 -0.37440076331E+02  0.10909498538E+02  0.39800297151E+02  0.00000000000E+00 0. -1.
<scales pt_clust_4="550.00000" pt_clust_5="550.00000" pt_clust_6="38.27593"></scales>
<mgrwt>
<rscale>  0 0.30000000E+03</rscale>
<asrwt>  1 0.38275926E+02</asrwt>
<pdfrwt beam="1">  1        1 0.92579123E+00 0.30000000E+03</pdfrwt>
<pdfrwt beam="2">0</pdfrwt>
<totfact> 0.31065625E-05</totfact>
</mgrwt>
<clustering>
<clus scale="   38.276">  1  6  2 -1</clus>
<clus scale="  487.289">  4  5 -1 -1</clus>
<clus scale="  300.000">  1  4  2 -1</clus>
</clustering>
</event>
<event>
 6    1  0.1007353E-011  0.3000000E+03  0.7818608E-02  0.1093470E+00
          1   -1    0    0  502    0  0.00000000000E+00  0.00000000000E+00  0.22849722219E+03  0.22849722219E+03  0.00000000000E+00 0.  1.
         13   -1    0    0    0    0 -0.00000000000E+00 -0.00000000000E+00 -0.27500000000E+03  0.27500000000E+03  0.00000000000E+00 0.  1.
    9000005    2    1    2  501    0 -0.21293466613E+02 -0.29139879480E+02 -0.59814965763E+02  0.46502959106E+03  0.45975226605E+03 0.  0.
         13    1    3    3    0    0  0.10821129450E+03 -0.20959468518E+03 -0.35889152924E+01  0.23590781383E+03  0.00000000000E+00 0.  1.
          3    1    3    3  501    0 -0.12950476112E+03  0.18045480570E+03 -0.56226050470E+02  0.22912177723E+03  0.00000000000E+00 0.  1.
         21    1    1    2  502  501  0.21293466613E+02  0.29139879480E+02  0.13312187951E+02  0.38467631127E+02  0.00000000000E+00 0. -1.
<scales pt_clust_4="550.00000" pt_clust_5="550.00000" pt_clust_6="36.09078"></scales>
<mgrwt>
<rscale>  0 0.30000000E+03</rscale>
<asrwt>  1 0.36090779E+02</asrwt>
<pdfrwt beam="1">  1        1 0.83089899E+00 0.30000000E+03</pdfrwt>
<pdfrwt beam="2">0</pdfrwt>
<totfact> 0.57783964E-04</totfact>
</mgrwt>
<clustering>
<clus scale="   36.091">  1  6  2 -1</clus>
<clus scale="  459.752">  4  5 -1 -1</clus>
<clus scale="  300.000">  1  4  2 -1</clus>
</clustering>
</event>
<event>
 6    1  0.1007353E-011  0.3000000E+03  0.7818608E-02  0.1093470E+00
          1   -1    0    0  502    0  0.00000000000E+00  0.00000000000E+00  0.24741632991E+03  0.24741632991E+03  0.00000000000E+00 0.  1.
         13   -1    0    0    0    0 -0.00000000000E+00 -0.00000000000E+00 -0.27500000000E+03  0.27500000000E+03  0.00000000000E+00 0.  1.
    9000005    2    1    2  501    0 -0.20425265109E+02 -0.35683211305E+02 -0.43457124544E+02  0.47834310017E+03  0.47458731207E+03 0.  0.
         13    1    3    3    0    0  0.28939310423E+02 -0.16535278798E+03  0.16011622628E+03  0.23198326254E+03  0.00000000000E+00 0.  1.
          3    1    3    3  501    0 -0.49364575533E+02  0.12966957667E+03 -0.20357335082E+03  0.24635983763E+03  0.00000000000E+00 0.  1.
         21    1    1    2  502  501  0.20425265109E+02  0.35683211305E+02  0.15873454458E+02  0.44073229746E+02  0.00000000000E+00 0.  1.
<scales pt_clust_4="550.00000" pt_clust_5="550.00000" pt_clust_6="41.11548"></scales>
<mgrwt>
<rscale>  0 0.30000000E+03</rscale>
<asrwt>  1 0.41115484E+02</asrwt>
<pdfrwt beam="1">  1        1 0.89969575E+00 0.30000000E+03</pdfrwt>
<pdfrwt beam="2">0</pdfrwt>
<totfact> 0.10815174E-04</totfact>
</mgrwt>
<clustering>
<clus scale="   41.115">  1  6  2 -1</clus>
<clus scale="  474.587">  4  5 -1 -1</clus>
<clus scale="  300.000">  1  4  2 -1</clus>
</clustering>
</event>
<event>
 6    1  0.1007353E-011  0.3000000E+03  0.7818608E-02  0.1093470E+00
          1   -1    0    0  502    0  0.00000000000E+00  0.00000000000E+00  0.26036383736E+03  0.26036383736E+03  0.00000000000E+00 0.  1.
         13   -1    0    0    0    0 -0.00000000000E+00 -0.00000000000E+00 -0.27500000000E+03  0.27500000000E+03  0.00000000000E+00 0.  1.
    9000005    2    1    2  501    0  0.26433036873E+02  0.15741646776E+02 -0.53003080211E+02  0.48618533346E+03  0.48230731602E+03 0.  0.
         13    1    3    3    0    0  0.11569784009E+03 -0.17617214332E+03  0.91637582393E+02  0.22982615341E+03  0.00000000000E+00 0.  1.
          3    1    3    3  501    0 -0.89264803216E+02  0.19191379009E+03 -0.14464066260E+03  0.25635918006E+03  0.00000000000E+00 0.  1.
         21    1    1    2  502  501 -0.26433036873E+02 -0.15741646776E+02  0.38366917571E+02  0.49178503896E+02  0.00000000000E+00 0.  1.
<scales pt_clust_4="550.00000" pt_clust_5="550.00000" pt_clust_6="30.76532"></scales>
<mgrwt>
<rscale>  0 0.30000000E+03</rscale>
<asrwt>  1 0.30765319E+02</asrwt>
<pdfrwt beam="1">  1        1 0.94677759E+00 0.30000000E+03</pdfrwt>
<pdfrwt beam="2">0</pdfrwt>
<totfact> 0.14701450E-05</totfact>
</mgrwt>
<clustering>
<clus scale="   30.765">  1  6  2 -1</clus>
<clus scale="  482.307">  4  5 -1 -1</clus>
<clus scale="  300.000">  1  4  2 -1</clus>
</clustering>
</event>
<event>
 6    1  0.1007353E-011  0.3000000E+03  0.7818608E-02  0.1093470E+00
          1   -1    0    0  502    0  0.00000000000E+00  0.00000000000E+00  0.24009281266E+03  0.24009281266E+03  0.00000000000E+00 0.  1.
         13   -1    0    0    0    0 -0.00000000000E+00 -0.00000000000E+00 -0.27500000000E+03  0.27500000000E+03  0.00000000000E+00 0.  1.
    9000005    2    1    2  501    0  0.82658880635E+01 -0.30160629244E+02 -0.69407123828E+02  0.46852851218E+03  0.46230253019E+03 0.  0.
         13    1    3    3    0    0  0.15216681846E+02 -0.14689160960E+02  0.19873160981E+03  0.19985387560E+03  0.00000000000E+00 0.  1.
          1    1    3    3  501    0 -0.69507937830E+01 -0.15471468284E+02 -0.26813873363E+03  0.26867463658E+03  0.00000000000E+00 0.  1.
         21    1    1    2  502  501 -0.82658880635E+01  0.30160629244E+02  0.34499936491E+02  0.46564300486E+02  0.00000000000E+00 0. -1.
<scales pt_clust_4="550.00000" pt_clust_5="550.00000" pt_clust_6="31.27281"></scales>
<mgrwt>
<rscale>  0 0.30000000E+03</rscale>
<asrwt>  1 0.31272807E+02</asrwt>
<pdfrwt beam="1">  1        1 0.87306477E+00 0.30000000E+03</pdfrwt>
<pdfrwt beam="2">0</pdfrwt>
<totfact> 0.24068642E-04</totfact>
</mgrwt>
<clustering>
<clus scale="   31.273">  1  6  2 -1</clus>
<clus scale="  462.303">  4  5 -1 -1</clus>
<clus scale="  300.000">  1  4  2 -1</clus>
</clustering>
</event>
<event>
 6    1  0.1007353E-011  0.3000000E+03  0.7818608E-02  0.1093470E+00
          1   -1    0    0  502    0  0.00000000000E+00  0.00000000000E+00  0.27085654717E+03  0.27085654717E+03  0.00000000000E+00 0.  1.
         13   -1    0    0    0    0 -0.00000000000E+00 -0.00000000000E+00 -0.27500000000E+03  0.27500000000E+03  0.00000000000E+00 0.  1.
    9000005    2    1    2  501    0  0.39786346925E+02  0.39134139860E+02 -0.86232027495E+01  0.48986991963E+03  0.48660429943E+03 0.  0.
         13    1    3    3    0    0  0.19357767618E+03  0.17433879481E+03  0.71235716963E+02  0.27007565507E+03  0.00000000000E+00 0.  1.
          1    1    3    3  501    0 -0.15379132925E+03 -0.13520465495E+03 -0.79858919713E+02  0.21979426456E+03  0.00000000000E+00 0.  1.
         21    1    1    2  502  501 -0.39786346925E+02 -0.39134139860E+02  0.44797499217E+01  0.55986627543E+02  0.00000000000E+00 0.  1.
<scales pt_clust_4="550.00000" pt_clust_5="550.00000" pt_clust_6="55.80712"></scales>
<mgrwt>
<rscale>  0 0.30000000E+03</rscale>
<asrwt>  1 0.55807117E+02</asrwt>
<pdfrwt beam="1">  1        1 0.98493290E+00 0.30000000E+03</pdfrwt>
<pdfrwt beam="2">0</pdfrwt>
<totfact> 0.14841239E-06</totfact>
</mgrwt>
<clustering>
<clus scale="   55.807">  1  6  2 -1</clus>
<clus scale="  486.604">  4  5 -1 -1</clus>
<clus scale="  300.000">  1  4  2 -1</clus>
</clustering>
</event>
<event>
 6    1  0.1007353E-011  0.3000000E+03  0.7818608E-02  0.1093470E+00
          1   -1    0    0  502    0  0.00000000000E+00  0.00000000000E+00  0.22606477924E+03  0.22606477924E+03  0.00000000000E+00 0.  1.
         13   -1    0    0    0    0 -0.00000000000E+00 -0.00000000000E+00 -0.27500000000E+03  0.27500000000E+03  0.00000000000E+00 0.  1.
    9000005    2    1    2  501    0 -0.28543812446E+02  0.17826831762E+02 -0.45869682122E+02  0.46727213675E+03  0.46379594315E+03 0.  0.
         13    1    3    3    0    0 -0.20108920221E+03  0.44579327990E+02  0.10974512466E+03  0.23338418137E+03  0.00000000000E+00 0.  1.
          1    1    3    3  501    0  0.17254538976E+03 -0.26752496228E+02 -0.15561480678E+03  0.23388795538E+03  0.00000000000E+00 0.  1.
         21    1    1    2  502  501  0.28543812446E+02 -0.17826831762E+02 -0.30655386335E+01  0.33792642494E+02  0.00000000000E+00 0.  1.
<scales pt_clust_4="550.00000" pt_clust_5="550.00000" pt_clust_6="33.65331"></scales>
<mgrwt>
<rscale>  0 0.30000000E+03</rscale>
<asrwt>  1 0.33653308E+02</asrwt>
<pdfrwt beam="1">  1        1 0.82205374E+00 0.30000000E+03</pdfrwt>
<pdfrwt beam="2">0</pdfrwt>
<totfact> 0.69903754E-04</totfact>
</mgrwt>
<clustering>
<clus scale="   33.653">  1  6  2 -1</clus>
<clus scale="  463.796">  4  5 -1 -1</clus>
<clus scale="  300.000">  1  4  2 -1</clus>
</clustering>
</event>
<event>
 6    1  0.1007353E-011  0.3000000E+03  0.7818608E-02  0.1093470E+00
          1   -1    0    0  502    0  0.00000000000E+00  0.00000000000E+00  0.22958400670E+03  0.22958400670E+03  0.00000000000E+00 0.  1.
         13   -1    0    0    0    0 -0.00000000000E+00 -0.00000000000E+00 -0.27500000000E+03  0.27500000000E+03  0.00000000000E+00 0.  1.
    9000005    2    1    2  501    0  0.19186262471E+02 -0.23856911967E+02 -0.46277975915E+02  0.47395709158E+03  0.47069778912E+03 0.  0.
         13    1    3    3    0    0 -0.12239105041E+03  0.27356685181E+02 -0.21433191463E+03  0.24832665397E+03  0.00000000000E+00 0.  1.
          3    1    3    3  501    0  0.14157731288E+03 -0.51213597148E+02  0.16805393871E+03  0.22563043760E+03  0.00000000000E+00 0.  1.
         21    1    1    2  502  501 -0.19186262471E+02  0.23856911967E+02  0.86198261956E+00  0.30626915128E+02  0.00000000000E+00 0.  1.
<scales pt_clust_4="550.00000" pt_clust_5="550.00000" pt_clust_6="30.61478"></scales>
<mgrwt>
<rscale>  0 0.30000000E+03</rscale>
<asrwt>  1 0.30614783E+02</asrwt>
<pdfrwt beam="1">  1        1 0.83485093E+00 0.30000000E+03</pdfrwt>
<pdfrwt beam="2">0</pdfrwt>
<totfact> 0.55627486E-04</totfact>
</mgrwt>
<clustering>
<clus scale="   30.615">  1  6  2 -1</clus>
<clus scale="  470.698">  4  5 -1 -1</clus>
<clus scale="  300.000">  1  4  2 -1</clus>
</clustering>
</event>
<event>
 6    1  0.1007353E-011  0.3000000E+03  0.7818608E-02  0.1093470E+00
          1   -1    0    0  502    0  0.00000000000E+00  0.00000000000E+00  0.24131286314E+03  0.24131286314E+03  0.00000000000E+00 0.  1.
         13   -1    0    0    0    0 -0.00000000000E+00 -0.00000000000E+00 -0.27500000000E+03  0.27500000000E+03  0.00000000000E+00 0.  1.
    9000005    2    1    2  501    0  0.11926873946E+02 -0.33946592799E+02 -0.21697376118E+02  0.47838693734E+03  0.47653820855E+03 0.  0.
         13    1    3    3    0    0 -0.21791496720E+02 -0.24309183313E+03  0.60000587715E+02  0.25133360139E+03  0.00000000000E+00 0.  1.
          1    1    3    3  501    0  0.33718370667E+02  0.20914524033E+03 -0.81697963833E+02  0.22705333595E+03  0.00000000000E+00 0.  1.
         21    1    1    2  502  501 -0.11926873946E+02  0.33946592799E+02 -0.11989760744E+02  0.37925925796E+02  0.00000000000E+00 0.  1.
<scales pt_clust_4="550.00000" pt_clust_5="550.00000" pt_clust_6="35.98087"></scales>
<mgrwt>
<rscale>  0 0.30000000E+03</rscale>
<asrwt>  1 0.35980867E+02</asrwt>
<pdfrwt beam="1">  1        1 0.87750132E+00 0.30000000E+03</pdfrwt>
<pdfrwt beam="2">0</pdfrwt>
<totfact> 0.21015711E-04</totfact>
</mgrwt>
<clustering>
<clus scale="   35.981">  1  6  2 -1</clus>
<clus scale="  476.538">  4  5 -1 -1</clus>
<clus scale="  300.000">  1  4  2 -1</clus>
</clustering>
</event>
<event>
 6    1  0.1007353E-011  0.3000000E+03  0.7818608E-02  0.1093470E+00
          1   -1    0    0  502    0  0.00000000000E+00  0.00000000000E+00  0.22996517046E+03  0.22996517046E+03  0.00000000000E+00 0.  1.
         13   -1    0    0    0    0 -0.00000000000E+00 -0.00000000000E+00 -0.27500000000E+03  0.27500000000E+03  0.00000000000E+00 0.  1.
    9000005    2    1    2  501    0  0.32312022350E+02  0.87364438437E+01 -0.70175238359E+02  0.46310310655E+03  0.45652987961E+03 0.  0.
         13    1    3    3    0    0  0.76944733963E+02  0.22451048971E+03 -0.40812995412E+02  0.24081352261E+03  0.00000000000E+00 0.  1.
          1    1    3    3  501    0 -0.44632711613E+02 -0.21577404587E+03 -0.29362242947E+02  0.22228958394E+03  0.00000000000E+00 0.  1.
         21    1    1    2  502  501 -0.32312022350E+02 -0.87364438437E+01  0.25140408815E+02  0.41862063909E+02  0.00000000000E+00 0.  1.
<scales pt_clust_4="550.00000" pt_clust_5="550.00000" pt_clust_6="33.47226"></scales>
<mgrwt>
<rscale>  0 0.30000000E+03</rscale>
<asrwt>  1 0.33472261E+02</asrwt>
<pdfrwt beam="1">  1        1 0.83623698E+00 0.30000000E+03</pdfrwt>
<pdfrwt beam="2">0</pdfrwt>
<totfact> 0.53436394E-04</totfact>
</mgrwt>
<clustering>
<clus scale="   33.472">  1  6  2 -1</clus>
<clus scale="  456.530">  4  5 -1 -1</clus>
<clus scale="  300.000">  1  4  2 -1</clus>
</clustering>
</event>
<event>
 6    1  0.1007353E-011  0.3000000E+03  0.7818608E-02  0.1093470E+00
          1   -1    0    0  502    0  0.00000000000E+00  0.00000000000E+00  0.24491451439E+03  0.24491451439E+03  0.00000000000E+00 0.  1.
         13   -1    0    0    0    0 -0.00000000000E+00 -0.00000000000E+00 -0.27500000000E+03  0.27500000000E+03  0.00000000000E+00 0.  1.
    9000005    2    1    2  501    0 -0.51600872737E+02  0.11308312362E+02 -0.32343374805E+02  0.46704083418E+03  0.46291523943E+03 0.  0.
         13    1    3    3    0    0 -0.42829857725E+02 -0.76964610122E+02  0.19989364860E+03  0.21843859246E+03  0.00000000000E+00 0.  1.
          3    1    3    3  501    0 -0.87710150117E+01  0.88272922484E+02 -0.23223702340E+03  0.24860224172E+03  0.00000000000E+00 0.  1.
         21    1    1    2  502  501  0.51600872737E+02 -0.11308312362E+02  0.22578891938E+01  0.52873680213E+02  0.00000000000E+00 0. -1.
<scales pt_clust_4="550.00000" pt_clust_5="550.00000" pt_clust_6="52.82545"></scales>
<mgrwt>
<rscale>  0 0.30000000E+03</rscale>
<asrwt>  1 0.52825448E+02</asrwt>
<pdfrwt beam="1">  1        1 0.89059823E+00 0.30000000E+03</pdfrwt>
<pdfrwt beam="2">0</pdfrwt>
<totfact> 0.13216923E-04</totfact>
</mgrwt>
<clustering>
<clus scale="   52.825">  1  6  2 -1</clus>
<clus scale="  462.915">  4  5 -1 -1</clus>
<clus scale="  300.000">  1  4  2 -1</clus>
</clustering>
</event>
<event>
 6    1  0.1007353E-011  0.3000000E+03  0.7818608E-02  0.1093470E+00
          1   -1    0    0  502    0  0.00000000000E+00  0.00000000000E+00  0.23067621616E+03  0.23067621616E+03  0.00000000000E+00 0.  1.
         13   -1    0    0    0    0 -0.00000000000E+00 -0.00000000000E+00 -0.27500000000E+03  0.27500000000E+03  0.00000000000E+00 0.  1.
    9000005    2    1    2  501    0 -0.12986881624E+02  0.29484426817E+02 -0.23186081039E+02  0.46714320436E+03  0.46545374475E+03 0.  0.
         13    1    3    3    0    0  0.22179623954E+03 -0.89725910109E+01 -0.50556473662E+02  0.22766210992E+03  0.00000000000E+00 0.  1.
          1    1    3    3  501    0 -0.23478312116E+03  0.38457017828E+02  0.27370392623E+02  0.23948109444E+03  0.00000000000E+00 0.  1.
         21    1    1    2  502  501  0.12986881624E+02 -0.29484426817E+02 -0.21137702799E+02  0.38533011804E+02  0.00000000000E+00 0.  1.
<scales pt_clust_4="550.00000" pt_clust_5="550.00000" pt_clust_6="32.21788"></scales>
<mgrwt>
<rscale>  0 0.30000000E+03</rscale>
<asrwt>  1 0.32217876E+02</asrwt>
<pdfrwt beam="1">  1        1 0.83882260E+00 0.30000000E+03</pdfrwt>
<pdfrwt beam="2">0</pdfrwt>
<totfact> 0.51530316E-04</totfact>
</mgrwt>
<clustering>
<clus scale="   32.218">  1  6  2 -1</clus>
<clus scale="  465.454">  4  5 -1 -1</clus>
<clus scale="  300.000">  1  4  2 -1</clus>
</clustering>
</event>
<event>
 6    1  0.1007353E-011  0.3000000E+03  0.7818608E-02  0.1093470E+00
          1   -1    0    0  502    0  0.00000000000E+00  0.00000000000E+00  0.24298010616E+03  0.24298010616E+03  0.00000000000E+00 0.  1.
         13   -1    0    0    0    0 -0.00000000000E+00 -0.00000000000E+00 -0.27500000000E+03  0.27500000000E+03  0.00000000000E+00 0.  1.
    9000005    2    1    2  501    0  0.36782566643E+02  0.10837242744E+02 -0.31653856803E+02  0.47963252446E+03  0.47704820389E+03 0.  0.
         13    1    3    3    0    0 -0.23161061412E+02 -0.17652410059E+03 -0.16438762307E+03  0.24232309728E+03  0.00000000000E+00 0.  1.
          1    1    3    3  501    0  0.59943628055E+02  0.18736134334E+03  0.13273376627E+03  0.23730942718E+03  0.00000000000E+00 0.  1.
         21    1    1    2  502  501 -0.36782566643E+02 -0.10837242744E+02 -0.36603703321E+00  0.38347581701E+02  0.00000000000E+00 0. -1.
<scales pt_clust_4="550.00000" pt_clust_5="550.00000" pt_clust_6="38.34583"></scales>
<mgrwt>
<rscale>  0 0.30000000E+03</rscale>
<asrwt>  1 0.38345835E+02</asrwt>
<pdfrwt beam="1">  1        1 0.88356402E+00 0.30000000E+03</pdfrwt>
<pdfrwt beam="2">0</pdfrwt>
<totfact> 0.17452196E-04</totfact>
</mgrwt>
<clustering>
<clus scale="   38.346">  1  6  2 -1</clus>
<clus scale="  477.048">  4  5 -1 -1</clus>
<clus scale="  300.000">  1  4  2 -1</clus>
</clustering>
</event>
<event>
 6    1  0.1007353E-011  0.3000000E+03  0.7818608E-02  0.1093470E+00
          1   -1    0    0  502    0  0.00000000000E+00  0.00000000000E+00  0.24015833274E+03  0.24015833274E+03  0.00000000000E+00 0.  1.
         13   -1    0    0    0    0 -0.00000000000E+00 -0.00000000000E+00 -0.27500000000E+03  0.27500000000E+03  0.00000000000E+00 0.  1.
    9000005    2    1    2  501    0 -0.21344833626E+02 -0.28368589746E+02 -0.63375899527E+02  0.46961076181E+03  0.46395838623E+03 0.  0.
         13    1    3    3    0    0  0.17563535860E+03  0.12137654593E+03  0.26696623540E+01  0.21351152707E+03  0.00000000000E+00 0.  1.
          1    1    3    3  501    0 -0.19698019223E+03 -0.14974513568E+03 -0.66045561881E+02  0.25609923474E+03  0.00000000000E+00 0.  1.
         21    1    1    2  502  501  0.21344833626E+02  0.28368589746E+02  0.28534232263E+02  0.45547570929E+02  0.00000000000E+00 0.  1.
<scales pt_clust_4="550.00000" pt_clust_5="550.00000" pt_clust_6="35.50181"></scales>
<mgrwt>
<rscale>  0 0.30000000E+03</rscale>
<asrwt>  1 0.35501814E+02</asrwt>
<pdfrwt beam="1">  1        1 0.87330303E+00 0.30000000E+03</pdfrwt>
<pdfrwt beam="2">0</pdfrwt>
<totfact> 0.23366761E-04</totfact>
</mgrwt>
<clustering>
<clus scale="   35.502">  1  6  2 -1</clus>
<clus scale="  463.958">  4  5 -1 -1</clus>
<clus scale="  300.000">  1  4  2 -1</clus>
</clustering>
</event>
<event>
 6    1  0.1007353E-011  0.3000000E+03  0.7818608E-02  0.1093470E+00
          1   -1    0    0  502    0  0.00000000000E+00  0.00000000000E+00  0.23446403010E+03  0.23446403010E+03  0.00000000000E+00 0.  1.
         13   -1    0    0    0    0 -0.00000000000E+00 -0.00000000000E+00 -0.27500000000E+03  0.27500000000E+03  0.00000000000E+00 0.  1.
    9000005    2    1    2  501    0  0.16698372251E+02 -0.27833207079E+02 -0.70822436315E+02  0.46507041457E+03  0.45849880040E+03 0.  0.
         13    1    3    3    0    0 -0.86910400830E+02  0.41579873249E+02 -0.23784933348E+03  0.25662152885E+03  0.00000000000E+00 0.  1.
          3    1    3    3  501    0  0.10360877308E+03 -0.69413080328E+02  0.16702689717E+03  0.20844888572E+03  0.00000000000E+00 0.  1.
         21    1    1    2  502  501 -0.16698372251E+02  0.27833207079E+02  0.30286466418E+02  0.44393615534E+02  0.00000000000E+00 0. -1.
<scales pt_clust_4="550.00000" pt_clust_5="550.00000" pt_clust_6="32.45802"></scales>
<mgrwt>
<rscale>  0 0.30000000E+03</rscale>
<asrwt>  1 0.32458020E+02</asrwt>
<pdfrwt beam="1">  1        1 0.85259647E+00 0.30000000E+03</pdfrwt>
<pdfrwt beam="2">0</pdfrwt>
<totfact> 0.38999381E-04</totfact>
</mgrwt>
<clustering>
<clus scale="   32.458">  1  6  2 -1</clus>
<clus scale="  458.499">  4  5 -1 -1</clus>
<clus scale="  300.000">  1  4  2 -1</clus>
</clustering>
</event>
<event>
 6    1  0.1007353E-011  0.3000000E+03  0.7818608E-02  0.1093470E+00
          1   -1    0    0  502    0  0.00000000000E+00  0.00000000000E+00  0.22787482892E+03  0.22787482892E+03  0.00000000000E+00 0.  1.
         13   -1    0    0    0    0 -0.00000000000E+00 -0.00000000000E+00 -0.27500000000E+03  0.27500000000E+03  0.00000000000E+00 0.  1.
    9000005    2    1    2  501    0  0.67801953727E+01 -0.40460789675E+02 -0.45081874655E+02  0.46179902570E+03  0.45775858066E+03 0.  0.
         13    1    3    3    0    0  0.19748143197E+03  0.93367815408E+02  0.21501711655E+02  0.21949667089E+03  0.00000000000E+00 0.  1.
          3    1    3    3  501    0 -0.19070123660E+03 -0.13382860508E+03 -0.66583586310E+02  0.24230235481E+03  0.00000000000E+00 0.  1.
         21    1    1    2  502  501 -0.67801953727E+01  0.40460789675E+02 -0.20432964205E+01  0.41075803226E+02  0.00000000000E+00 0.  1.
<scales pt_clust_4="550.00000" pt_clust_5="550.00000" pt_clust_6="41.02495"></scales>
<mgrwt>
<rscale>  0 0.30000000E+03</rscale>
<asrwt>  1 0.41024950E+02</asrwt>
<pdfrwt beam="1">  1        1 0.82863574E+00 0.30000000E+03</pdfrwt>
<pdfrwt beam="2">0</pdfrwt>
<totfact> 0.58933913E-04</totfact>
</mgrwt>
<clustering>
<clus scale="   41.025">  1  6  2 -1</clus>
<clus scale="  457.759">  4  5 -1 -1</clus>
<clus scale="  300.000">  1  4  2 -1</clus>
</clustering>
</event>
<event>
 6    1  0.1007353E-011  0.3000000E+03  0.7818608E-02  0.1093470E+00
          1   -1    0    0  502    0  0.00000000000E+00  0.00000000000E+00  0.23318626612E+03  0.23318626612E+03  0.00000000000E+00 0.  1.
         13   -1    0    0    0    0 -0.00000000000E+00 -0.00000000000E+00 -0.27500000000E+03  0.27500000000E+03  0.00000000000E+00 0.  1.
    9000005    2    1    2  501    0  0.35956231094E+02  0.26264890960E+01 -0.59632919322E+02  0.46797094106E+03  0.46275367920E+03 0.  0.
         13    1    3    3    0    0  0.15651026379E+02  0.20921404447E+03 -0.13230763163E+03  0.24803382918E+03  0.00000000000E+00 0.  1.
          3    1    3    3  501    0  0.20305204715E+02 -0.20658755538E+03  0.72674712303E+02  0.21993711188E+03  0.00000000000E+00 0.  1.
         21    1    1    2  502  501 -0.35956231094E+02 -0.26264890960E+01  0.17819185443E+02  0.40215325055E+02  0.00000000000E+00 0.  1.
<scales pt_clust_4="550.00000" pt_clust_5="550.00000" pt_clust_6="36.05203"></scales>
<mgrwt>
<rscale>  0 0.30000000E+03</rscale>
<asrwt>  1 0.36052032E+02</asrwt>
<pdfrwt beam="1">  1        1 0.84795006E+00 0.30000000E+03</pdfrwt>
<pdfrwt beam="2">0</pdfrwt>
<totfact> 0.42284164E-04</totfact>
</mgrwt>
<clustering>
<clus scale="   36.052">  1  6  2 -1</clus>
<clus scale="  462.754">  4  5 -1 -1</clus>
<clus scale="  300.000">  1  4  2 -1</clus>
</clustering>
</event>
<event>
 6    1  0.1007353E-011  0.3000000E+03  0.7818608E-02  0.1093470E+00
          1   -1    0    0  502    0  0.00000000000E+00  0.00000000000E+00  0.23535512779E+03  0.23535512779E+03  0.00000000000E+00 0.  1.
         13   -1    0    0    0    0 -0.00000000000E+00 -0.00000000000E+00 -0.27500000000E+03  0.27500000000E+03  0.00000000000E+00 0.  1.
    9000005    2    1    2  501    0 -0.99621392206E+00  0.35149270114E+02 -0.63102189434E+02  0.46808564278E+03  0.46247791194E+03 0.  0.
         13    1    3    3    0    0  0.38870092897E+01  0.68069428299E+02 -0.25979733533E+03  0.26859488334E+03  0.00000000000E+00 0.  1.
          1    1    3    3  501    0 -0.48832232118E+01 -0.32920158185E+02  0.19669514590E+03  0.19949075944E+03  0.00000000000E+00 0.  1.
         21    1    1    2  502  501  0.99621392206E+00 -0.35149270114E+02  0.23457317221E+02  0.42269485009E+02  0.00000000000E+00 0.  1.
<scales pt_clust_4="550.00000" pt_clust_5="550.00000" pt_clust_6="35.16338"></scales>
<mgrwt>
<rscale>  0 0.30000000E+03</rscale>
<asrwt>  1 0.35163385E+02</asrwt>
<pdfrwt beam="1">  1        1 0.85583683E+00 0.30000000E+03</pdfrwt>
<pdfrwt beam="2">0</pdfrwt>
<totfact> 0.35707514E-04</totfact>
</mgrwt>
<clustering>
<clus scale="   35.163">  1  6  2 -1</clus>
<clus scale="  462.478">  4  5 -1 -1</clus>
<clus scale="  300.000">  1  4  2 -1</clus>
</clustering>
</event>
<event>
 6    1  0.1007353E-011  0.3000000E+03  0.7818608E-02  0.1093470E+00
          1   -1    0    0  502    0  0.00000000000E+00  0.00000000000E+00  0.22716105408E+03  0.22716105408E+03  0.00000000000E+00 0.  1.
         13   -1    0    0    0    0 -0.00000000000E+00 -0.00000000000E+00 -0.27500000000E+03  0.27500000000E+03  0.00000000000E+00 0.  1.
    9000005    2    1    2  501    0 -0.56893338273E+01  0.30278149345E+02 -0.25460445035E+02  0.46408307948E+03  0.46235888177E+03 0.  0.
         13    1    3    3    0    0 -0.10173948613E+03 -0.18846772389E+03  0.36527138388E+02  0.21726766401E+03  0.00000000000E+00 0.  1.
          3    1    3    3  501    0  0.96050152302E+02  0.21874587324E+03 -0.61987583423E+02  0.24681541547E+03  0.00000000000E+00 0.  1.
         21    1    1    2  502  501  0.56893338273E+01 -0.30278149345E+02 -0.22378500888E+02  0.38077974594E+02  0.00000000000E+00 0. -1.
<scales pt_clust_4="550.00000" pt_clust_5="550.00000" pt_clust_6="30.80805"></scales>
<mgrwt>
<rscale>  0 0.30000000E+03</rscale>
<asrwt>  1 0.30808048E+02</asrwt>
<pdfrwt beam="1">  1        1 0.82604020E+00 0.30000000E+03</pdfrwt>
<pdfrwt beam="2">0</pdfrwt>
<totfact> 0.65501686E-04</totfact>
</mgrwt>
<clustering>
<clus scale="   30.808">  1  6  2 -1</clus>
<clus scale="  462.359">  4  5 -1 -1</clus>
<clus scale="  300.000">  1  4  2 -1</clus>
</clustering>
</event>
<event>
 6    1  0.1007353E-011  0.3000000E+03  0.7818608E-02  0.1093470E+00
          1   -1    0    0  502    0  0.00000000000E+00  0.00000000000E+00  0.23469204553E+03  0.23469204553E+03  0.00000000000E+00 0.  1.
         13   -1    0    0    0    0 -0.00000000000E+00 -0.00000000000E+00 -0.27500000000E+03  0.27500000000E+03  0.00000000000E+00 0.  1.
    9000005    2    1    2  501    0  0.12712896623E+01  0.47057711978E+02 -0.43423486777E+02  0.46251418022E+03  0.45805864610E+03 0.  0.
         13    1    3    3    0    0  0.85559672327E+02  0.23258912441E+03 -0.68698405365E+02  0.25717237259E+03  0.00000000000E+00 0.  1.
          3    1    3    3  501    0 -0.84288382664E+02 -0.18553141243E+03  0.25274918589E+02  0.20534180763E+03  0.00000000000E+00 0.  1.
         21    1    1    2  502  501 -0.12712896623E+01 -0.47057711978E+02  0.31155323095E+01  0.47177865313E+02  0.00000000000E+00 0. -1.
<scales pt_clust_4="550.00000" pt_clust_5="550.00000" pt_clust_6="47.07488"></scales>
<mgrwt>
<rscale>  0 0.30000000E+03</rscale>
<asrwt>  1 0.47074881E+02</asrwt>
<pdfrwt beam="1">  1        1 0.85342562E+00 0.30000000E+03</pdfrwt>
<pdfrwt beam="2">0</pdfrwt>
<totfact> 0.35764616E-04</totfact>
</mgrwt>
<clustering>
<clus scale="   47.075">  1  6  2 -1</clus>
<clus scale="  458.059">  4  5 -1 -1</clus>
<clus scale="  300.000">  1  4  2 -1</clus>
</clustering>
</event>
<event>
 6    1  0.1007353E-011  0.3000000E+03  0.7818608E-02  0.1093470E+00
          1   -1    0    0  502    0  0.00000000000E+00  0.00000000000E+00  0.24216866117E+03  0.24216866117E+03  0.00000000000E+00 0.  1.
         13   -1    0    0    0    0 -0.00000000000E+00 -0.00000000000E+00 -0.27500000000E+03  0.27500000000E+03  0.00000000000E+00 0.  1.
    9000005    2    1    2  501    0  0.84543810257E+01 -0.33681812728E+02 -0.63371207240E+02  0.47092339515E+03  0.46534610036E+03 0.  0.
         13    1    3    3    0    0 -0.16313667773E+03  0.13264118933E+03 -0.93412698215E+02  0.23007214720E+03  0.00000000000E+00 0.  1.
          3    1    3    3  501    0  0.17159105875E+03 -0.16632300206E+03  0.30041490975E+02  0.24085124795E+03  0.00000000000E+00 0.  1.
         21    1    1    2  502  501 -0.84543810257E+01  0.33681812728E+02  0.30539868411E+02  0.46245266025E+02  0.00000000000E+00 0. -1.
<scales pt_clust_4="550.00000" pt_clust_5="550.00000" pt_clust_6="34.72666"></scales>
<mgrwt>
<rscale>  0 0.30000000E+03</rscale>
<asrwt>  1 0.34726662E+02</asrwt>
<pdfrwt beam="1">  1        1 0.88061331E+00 0.30000000E+03</pdfrwt>
<pdfrwt beam="2">0</pdfrwt>
<totfact> 0.19422473E-04</totfact>
</mgrwt>
<clustering>
<clus scale="   34.727">  1  6  2 -1</clus>
<clus scale="  465.346">  4  5 -1 -1</clus>
<clus scale="  300.000">  1  4  2 -1</clus>
</clustering>
</event>
<event>
 6    1  0.1007353E-011  0.3000000E+03  0.7818608E-02  0.1093470E+00
          1   -1    0    0  502    0  0.00000000000E+00  0.00000000000E+00  0.22397221309E+03  0.22397221309E+03  0.00000000000E+00 0.  1.
         13   -1    0    0    0    0 -0.00000000000E+00 -0.00000000000E+00 -0.27500000000E+03  0.27500000000E+03  0.00000000000E+00 0.  1.
    9000005    2    1    2  501    0  0.28297111876E+01 -0.34048659467E+02 -0.49871137451E+02  0.46478659748E+03  0.46083851008E+03 0.  0.
         13    1    3    3    0    0 -0.21420601637E+03  0.46772877612E+02  0.26672442251E+02  0.22086950606E+03  0.00000000000E+00 0.  1.
          3    1    3    3  501    0  0.21703572756E+03 -0.80821537079E+02 -0.76543579702E+02  0.24391709142E+03  0.00000000000E+00 0.  1.
         21    1    1    2  502  501 -0.28297111876E+01  0.34048659467E+02 -0.11566494552E+01  0.34185615613E+02  0.00000000000E+00 0. -1.
<scales pt_clust_4="550.00000" pt_clust_5="550.00000" pt_clust_6="34.16604"></scales>
<mgrwt>
<rscale>  0 0.30000000E+03</rscale>
<asrwt>  1 0.34166043E+02</asrwt>
<pdfrwt beam="1">  1        1 0.81444441E+00 0.30000000E+03</pdfrwt>
<pdfrwt beam="2">0</pdfrwt>
<totfact> 0.80794109E-04</totfact>
</mgrwt>
<clustering>
<clus scale="   34.166">  1  6  2 -1</clus>
<clus scale="  460.839">  4  5 -1 -1</clus>
<clus scale="  300.000">  1  4  2 -1</clus>
</clustering>
</event>
<event>
 6    1  0.1007353E-011  0.3000000E+03  0.7818608E-02  0.1093470E+00
          1   -1    0    0  502    0  0.00000000000E+00  0.00000000000E+00  0.22618838593E+03  0.22618838593E+03  0.00000000000E+00 0.  1.
         13   -1    0    0    0    0 -0.00000000000E+00 -0.00000000000E+00 -0.27500000000E+03  0.27500000000E+03  0.00000000000E+00 0.  1.
    9000005    2    1    2  501    0  0.29592272349E+02 -0.53953311754E+01 -0.54414619133E+02  0.47059090487E+03  0.46646547224E+03 0.  0.
         13    1    3    3    0    0 -0.21617047873E+03  0.27718943510E+02 -0.44324581520E+02  0.22240207784E+03  0.00000000000E+00 0.  1.
          3    1    3    3  501    0  0.24576275107E+03 -0.33114274685E+02 -0.10090037613E+02  0.24818882703E+03  0.00000000000E+00 0.  1.
         21    1    1    2  502  501 -0.29592272349E+02  0.53953311754E+01  0.56030050623E+01  0.30597481057E+02  0.00000000000E+00 0.  1.
<scales pt_clust_4="550.00000" pt_clust_5="550.00000" pt_clust_6="30.08010"></scales>
<mgrwt>
<rscale>  0 0.30000000E+03</rscale>
<asrwt>  1 0.30080096E+02</asrwt>
<pdfrwt beam="1">  1        1 0.82250322E+00 0.30000000E+03</pdfrwt>
<pdfrwt beam="2">0</pdfrwt>
<totfact> 0.70761108E-04</totfact>
</mgrwt>
<clustering>
<clus scale="   30.080">  1  6  2 -1</clus>
<clus scale="  466.465">  4  5 -1 -1</clus>
<clus scale="  300.000">  1  4  2 -1</clus>
</clustering>
</event>
<event>
 6    1  0.1007353E-011  0.3000000E+03  0.7818608E-02  0.1093470E+00
          1   -1    0    0  502    0  0.00000000000E+00  0.00000000000E+00  0.25130477643E+03  0.25130477643E+03  0.00000000000E+00 0.  1.
         13   -1    0    0    0    0 -0.00000000000E+00 -0.00000000000E+00 -0.27500000000E+03  0.27500000000E+03  0.00000000000E+00 0.  1.
    9000005    2    1    2  501    0  0.27296871313E+02  0.37659366186E+02 -0.64954525553E+02  0.46413020731E+03  0.45720281266E+03 0.  0.
         13    1    3    3    0    0  0.19078580986E+02 -0.12698033047E+03  0.14728131140E+03  0.19539647199E+03  0.00000000000E+00 0.  1.
          1    1    3    3  501    0  0.82182903274E+01  0.16463969665E+03 -0.21223583696E+03  0.26873373532E+03  0.00000000000E+00 0.  1.
         21    1    1    2  502  501 -0.27296871313E+02 -0.37659366186E+02  0.41259301981E+02  0.62174569118E+02  0.00000000000E+00 0.  1.
<scales pt_clust_4="550.00000" pt_clust_5="550.00000" pt_clust_6="46.51179"></scales>
<mgrwt>
<rscale>  0 0.30000000E+03</rscale>
<asrwt>  1 0.46511795E+02</asrwt>
<pdfrwt beam="1">  1        1 0.91383555E+00 0.30000000E+03</pdfrwt>
<pdfrwt beam="2">0</pdfrwt>
<totfact> 0.54801279E-05</totfact>
</mgrwt>
<clustering>
<clus scale="   46.512">  1  6  2 -1</clus>
<clus scale="  457.203">  4  5 -1 -1</clus>
<clus scale="  300.000">  1  4  2 -1</clus>
</clustering>
</event>
<event>
 6    1  0.1007353E-011  0.3000000E+03  0.7818608E-02  0.1093470E+00
          1   -1    0    0  502    0  0.00000000000E+00  0.00000000000E+00  0.22700768758E+03  0.22700768758E+03  0.00000000000E+00 0.  1.
         13   -1    0    0    0    0 -0.00000000000E+00 -0.00000000000E+00 -0.27500000000E+03  0.27500000000E+03  0.00000000000E+00 0.  1.
    9000005    2    1    2  501    0  0.27920315285E+02  0.11102294314E+02 -0.61071719868E+02  0.46923764266E+03  0.46427513974E+03 0.  0.
         13    1    3    3    0    0  0.53075309718E+02 -0.11279684885E+03  0.16704300959E+03  0.20843100697E+03  0.00000000000E+00 0.  1.
          1    1    3    3  501    0 -0.25154994433E+02  0.12389914317E+03 -0.22811472946E+03  0.26080663569E+03  0.00000000000E+00 0.  1.
         21    1    1    2  502  501 -0.27920315285E+02 -0.11102294314E+02  0.13079407447E+02  0.32770044916E+02  0.00000000000E+00 0. -1.
<scales pt_clust_4="550.00000" pt_clust_5="550.00000" pt_clust_6="30.04671"></scales>
<mgrwt>
<rscale>  0 0.30000000E+03</rscale>
<asrwt>  1 0.30046713E+02</asrwt>
<pdfrwt beam="1">  1        1 0.82548250E+00 0.30000000E+03</pdfrwt>
<pdfrwt beam="2">0</pdfrwt>
<totfact> 0.66573302E-04</totfact>
</mgrwt>
<clustering>
<clus scale="   30.047">  1  6  2 -1</clus>
<clus scale="  464.275">  4  5 -1 -1</clus>
<clus scale="  300.000">  1  4  2 -1</clus>
</clustering>
</event>
<event>
 6    1  0.1007353E-011  0.3000000E+03  0.7818608E-02  0.1093470E+00
          1   -1    0    0  502    0  0.00000000000E+00  0.00000000000E+00  0.24934768834E+03  0.24934768834E+03  0.00000000000E+00 0.  1.
         13   -1    0    0    0    0 -0.00000000000E+00 -0.00000000000E+00 -0.27500000000E+03  0.27500000000E+03  0.00000000000E+00 0.  1.
    9000005    2    1    2  501    0 -0.20850845977E+02 -0.32464607252E+02 -0.24555812504E+02  0.48574832549E+03  0.48359046650E+03 0.  0.
         13    1    3    3    0    0  0.85139902854E+02  0.99205072976E+02  0.17868654612E+03  0.22140309692E+03  0.00000000000E+00 0.  1.
          3    1    3    3  501    0 -0.10599074883E+03 -0.13166968023E+03 -0.20324235863E+03  0.26434522857E+03  0.00000000000E+00 0.  1.
         21    1    1    2  502  501  0.20850845977E+02  0.32464607252E+02 -0.10964991531E+01  0.38599362849E+02  0.00000000000E+00 0. -1.
<scales pt_clust_4="550.00000" pt_clust_5="550.00000" pt_clust_6="38.58379"></scales>
<mgrwt>
<rscale>  0 0.30000000E+03</rscale>
<asrwt>  1 0.38583785E+02</asrwt>
<pdfrwt beam="1">  1        1 0.90671887E+00 0.30000000E+03</pdfrwt>
<pdfrwt beam="2">0</pdfrwt>
<totfact> 0.83883611E-05</totfact>
</mgrwt>
<clustering>
<clus scale="   38.584">  1  6  2 -1</clus>
<clus scale="  483.590">  4  5 -1 -1</clus>
<clus scale="  300.000">  1  4  2 -1</clus>
</clustering>
</event>
<event>
 6    1  0.1007353E-011  0.3000000E+03  0.7818608E-02  0.1093470E+00
          1   -1    0    0  502    0  0.00000000000E+00  0.00000000000E+00  0.22806715911E+03  0.22806715911E+03  0.00000000000E+00 0.  1.
         13   -1    0    0    0    0 -0.00000000000E+00 -0.00000000000E+00 -0.27500000000E+03  0.27500000000E+03  0.00000000000E+00 0.  1.
    9000005    2    1    2  501    0 -0.46811441153E+01  0.29837856490E+02 -0.52549759034E+02  0.47234647293E+03  0.46844156789E+03 0.  0.
         13    1    3    3    0    0 -0.11005642876E+03 -0.70301624036E+02 -0.21674502139E+03  0.25304770331E+03  0.00000000000E+00 0.  1.
          1    1    3    3  501    0  0.10537528464E+03  0.10013948053E+03  0.16419526236E+03  0.21929876962E+03  0.00000000000E+00 0.  1.
         21    1    1    2  502  501  0.46811441153E+01 -0.29837856490E+02  0.56169181465E+01  0.30720686184E+02  0.00000000000E+00 0.  1.
<scales pt_clust_4="550.00000" pt_clust_5="550.00000" pt_clust_6="30.20283"></scales>
<mgrwt>
<rscale>  0 0.30000000E+03</rscale>
<asrwt>  1 0.30202828E+02</asrwt>
<pdfrwt beam="1">  1        1 0.82933512E+00 0.30000000E+03</pdfrwt>
<pdfrwt beam="2">0</pdfrwt>
<totfact> 0.61557850E-04</totfact>
</mgrwt>
<clustering>
<clus scale="   30.203">  1  6  2 -1</clus>
<clus scale="  468.442">  4  5 -1 -1</clus>
<clus scale="  300.000">  1  4  2 -1</clus>
</clustering>
</event>
<event>
 6    1  0.1007353E-011  0.3000000E+03  0.7818608E-02  0.1093470E+00
          1   -1    0    0  502    0  0.00000000000E+00  0.00000000000E+00  0.24666148544E+03  0.24666148544E+03  0.00000000000E+00 0.  1.
         13   -1    0    0    0    0 -0.00000000000E+00 -0.00000000000E+00 -0.27500000000E+03  0.27500000000E+03  0.00000000000E+00 0.  1.
    9000005    2    1    2  501    0  0.36131371550E+02  0.32284465956E+01 -0.64091822020E+02  0.47072821663E+03  0.46493160078E+03 0.  0.
         13    1    3    3    0    0  0.13087098278E+03 -0.13262598615E+03 -0.18738223386E+03  0.26425171316E+03  0.00000000000E+00 0.  1.
          3    1    3    3  501    0 -0.94739611230E+02  0.13585443275E+03  0.12329041184E+03  0.20647650347E+03  0.00000000000E+00 0.  1.
         21    1    1    2  502  501 -0.36131371550E+02 -0.32284465956E+01  0.35753307462E+02  0.50933268813E+02  0.00000000000E+00 0.  1.
<scales pt_clust_4="550.00000" pt_clust_5="550.00000" pt_clust_6="36.27532"></scales>
<mgrwt>
<rscale>  0 0.30000000E+03</rscale>
<asrwt>  1 0.36275321E+02</asrwt>
<pdfrwt beam="1">  1        1 0.89695086E+00 0.30000000E+03</pdfrwt>
<pdfrwt beam="2">0</pdfrwt>
<totfact> 0.11912647E-04</totfact>
</mgrwt>
<clustering>
<clus scale="   36.275">  1  6  2 -1</clus>
<clus scale="  464.932">  4  5 -1 -1</clus>
<clus scale="  300.000">  1  4  2 -1</clus>
</clustering>
</event>
<event>
 6    1  0.1007353E-011  0.3000000E+03  0.7818608E-02  0.1093470E+00
          1   -1    0    0  502    0  0.00000000000E+00  0.00000000000E+00  0.25871650142E+03  0.25871650142E+03  0.00000000000E+00 0.  1.
         13   -1    0    0    0    0 -0.00000000000E+00 -0.00000000000E+00 -0.27500000000E+03  0.27500000000E+03  0.00000000000E+00 0.  1.
    9000005    2    1    2  501    0 -0.15303264302E+02 -0.55728291885E+02 -0.61365289003E+01  0.47504117945E+03  0.47147283354E+03 0.  0.
         13    1    3    3    0    0  0.13197100164E+03  0.16083198624E+03 -0.37084736428E+02  0.21132569826E+03  0.00000000000E+00 0.  1.
          3    1    3    3  501    0 -0.14727426594E+03 -0.21656027812E+03  0.30948207527E+02  0.26371548119E+03  0.00000000000E+00 0.  1.
         21    1    1    2  502  501  0.15303264302E+02  0.55728291885E+02 -0.10146969681E+02  0.58675321971E+02  0.00000000000E+00 0. -1.
<scales pt_clust_4="550.00000" pt_clust_5="550.00000" pt_clust_6="57.79131"></scales>
<mgrwt>
<rscale>  0 0.30000000E+03</rscale>
<asrwt>  1 0.57791312E+02</asrwt>
<pdfrwt beam="1">  1        1 0.94078728E+00 0.30000000E+03</pdfrwt>
<pdfrwt beam="2">0</pdfrwt>
<totfact> 0.16980792E-05</totfact>
</mgrwt>
<clustering>
<clus scale="   57.791">  1  6  2 -1</clus>
<clus scale="  471.473">  4  5 -1 -1</clus>
<clus scale="  300.000">  1  4  2 -1</clus>
</clustering>
</event>
<event>
 6    1  0.1007353E-011  0.3000000E+03  0.7818608E-02  0.1093470E+00
          1   -1    0    0  502    0  0.00000000000E+00  0.00000000000E+00  0.24975541455E+03  0.24975541455E+03  0.00000000000E+00 0.  1.
         13   -1    0    0    0    0 -0.00000000000E+00 -0.00000000000E+00 -0.27500000000E+03  0.27500000000E+03  0.00000000000E+00 0.  1.
    9000005    2    1    2  501    0 -0.21561569097E+02  0.22512200659E+02 -0.40803266660E+02  0.48991616942E+03  0.48721786302E+03 0.  0.
         13    1    3    3    0    0 -0.15475953955E+03  0.19994204008E+03 -0.78778161588E+02  0.26482698733E+03  0.00000000000E+00 0.  1.
          3    1    3    3  501    0  0.13319797045E+03 -0.17742983942E+03  0.37974894928E+02  0.22508918209E+03  0.00000000000E+00 0.  1.
         21    1    1    2  502  501  0.21561569097E+02 -0.22512200659E+02  0.15558681211E+02  0.34839245133E+02  0.00000000000E+00 0. -1.
<scales pt_clust_4="550.00000" pt_clust_5="550.00000" pt_clust_6="31.17211"></scales>
<mgrwt>
<rscale>  0 0.30000000E+03</rscale>
<asrwt>  1 0.31172110E+02</asrwt>
<pdfrwt beam="1">  1        1 0.90820151E+00 0.30000000E+03</pdfrwt>
<pdfrwt beam="2">0</pdfrwt>
<totfact> 0.80991062E-05</totfact>
</mgrwt>
<clustering>
<clus scale="   31.172">  1  6  2 -1</clus>
<clus scale="  487.218">  4  5 -1 -1</clus>
<clus scale="  300.000">  1  4  2 -1</clus>
</clustering>
</event>
<event>
 6    1  0.1007353E-011  0.3000000E+03  0.7818608E-02  0.1093470E+00
          1   -1    0    0  502    0  0.00000000000E+00  0.00000000000E+00  0.23983511709E+03  0.23983511709E+03  0.00000000000E+00 0.  1.
         13   -1    0    0    0    0 -0.00000000000E+00 -0.00000000000E+00 -0.27500000000E+03  0.27500000000E+03  0.00000000000E+00 0.  1.
    9000005    2    1    2  501    0 -0.33514091361E+02  0.22564197039E+02 -0.66124105291E+02  0.46393510964E+03  0.45741780830E+03 0.  0.
         13    1    3    3    0    0 -0.84918558175E+02 -0.84974681554E+02 -0.23106861621E+03  0.26043149469E+03  0.00000000000E+00 0.  1.
          3    1    3    3  501    0  0.51404466814E+02  0.10753887859E+03  0.16494451092E+03  0.20350361496E+03  0.00000000000E+00 0.  1.
         21    1    1    2  502  501  0.33514091361E+02 -0.22564197039E+02  0.30959222384E+02  0.50900007450E+02  0.00000000000E+00 0. -1.
<scales pt_clust_4="550.00000" pt_clust_5="550.00000" pt_clust_6="40.40219"></scales>
<mgrwt>
<rscale>  0 0.30000000E+03</rscale>
<asrwt>  1 0.40402194E+02</asrwt>
<pdfrwt beam="1">  1        1 0.87212770E+00 0.30000000E+03</pdfrwt>
<pdfrwt beam="2">0</pdfrwt>
<totfact> 0.23459378E-04</totfact>
</mgrwt>
<clustering>
<clus scale="   40.402">  1  6  2 -1</clus>
<clus scale="  457.418">  4  5 -1 -1</clus>
<clus scale="  300.000">  1  4  2 -1</clus>
</clustering>
</event>
<event>
 6    1  0.1007353E-011  0.3000000E+03  0.7818608E-02  0.1093470E+00
          1   -1    0    0  502    0  0.00000000000E+00  0.00000000000E+00  0.22184955821E+03  0.22184955821E+03  0.00000000000E+00 0.  1.
         13   -1    0    0    0    0 -0.00000000000E+00 -0.00000000000E+00 -0.27500000000E+03  0.27500000000E+03  0.00000000000E+00 0.  1.
    9000005    2    1    2  501    0  0.30667717153E+02 -0.75094006736E+01 -0.56933335681E+02  0.46505002582E+03  0.46047065252E+03 0.  0.
         13    1    3    3    0    0  0.13459570329E+03  0.13451626921E+02  0.16841308396E+03  0.21600906569E+03  0.00000000000E+00 0.  1.
          1    1    3    3  501    0 -0.10392798613E+03 -0.20961027594E+02 -0.22534641964E+03  0.24904096013E+03  0.00000000000E+00 0.  1.
         21    1    1    2  502  501 -0.30667717153E+02  0.75094006736E+01  0.37828938874E+01  0.31799532387E+02  0.00000000000E+00 0.  1.
<scales pt_clust_4="550.00000" pt_clust_5="550.00000" pt_clust_6="31.57372"></scales>
<mgrwt>
<rscale>  0 0.30000000E+03</rscale>
<asrwt>  1 0.31573723E+02</asrwt>
<pdfrwt beam="1">  1        1 0.80672567E+00 0.30000000E+03</pdfrwt>
<pdfrwt beam="2">0</pdfrwt>
<totfact> 0.94263766E-04</totfact>
</mgrwt>
<clustering>
<clus scale="   31.574">  1  6  2 -1</clus>
<clus scale="  460.471">  4  5 -1 -1</clus>
<clus scale="  300.000">  1  4  2 -1</clus>
</clustering>
</event>
<event>
 6    1  0.1007353E-011  0.3000000E+03  0.7818608E-02  0.1093470E+00
          1   -1    0    0  502    0  0.00000000000E+00  0.00000000000E+00  0.25097117588E+03  0.25097117588E+03  0.00000000000E+00 0.  1.
         13   -1    0    0    0    0 -0.00000000000E+00 -0.00000000000E+00 -0.27500000000E+03  0.27500000000E+03  0.00000000000E+00 0.  1.
    9000005    2    1    2  501    0  0.35505863250E+01 -0.38821130729E+02  0.24852639089E+02  0.46344850559E+03  0.46113683089E+03 0.  0.
         13    1    3    3    0    0  0.16454666800E+03  0.13749725795E+03  0.58642224651E+02  0.22230612318E+03  0.00000000000E+00 0.  1.
          3    1    3    3  501    0 -0.16099608167E+03 -0.17631838868E+03 -0.33789585562E+02  0.24114238241E+03  0.00000000000E+00 0.  1.
         21    1    1    2  502  501 -0.35505863250E+01  0.38821130729E+02 -0.48881463212E+02  0.62522670290E+02  0.00000000000E+00 0.  1.
<scales pt_clust_4="550.00000" pt_clust_5="550.00000" pt_clust_6="38.98318"></scales>
<mgrwt>
<rscale>  0 0.30000000E+03</rscale>
<asrwt>  1 0.38983181E+02</asrwt>
<pdfrwt beam="1">  1        1 0.91262246E+00 0.30000000E+03</pdfrwt>
<pdfrwt beam="2">0</pdfrwt>
<totfact> 0.60626254E-05</totfact>
</mgrwt>
<clustering>
<clus scale="   38.983">  1  6  2 -1</clus>
<clus scale="  461.137">  4  5 -1 -1</clus>
<clus scale="  300.000">  1  4  2 -1</clus>
</clustering>
</event>
<event>
 6    1  0.1007353E-011  0.3000000E+03  0.7818608E-02  0.1093470E+00
          1   -1    0    0  502    0  0.00000000000E+00  0.00000000000E+00  0.24590379051E+03  0.24590379051E+03  0.00000000000E+00 0.  1.
         13   -1    0    0    0    0 -0.00000000000E+00 -0.00000000000E+00 -0.27500000000E+03  0.27500000000E+03  0.00000000000E+00 0.  1.
    9000005    2    1    2  501    0  0.33633792033E+02 -0.62255985352E+01 -0.46117887812E+02  0.48269740915E+03  0.47927021520E+03 0.  0.
         13    1    3    3    0    0 -0.17355832309E+03 -0.52701674668E+02  0.11620931511E+03  0.21541718349E+03  0.00000000000E+00 0.  1.
          1    1    3    3  501    0  0.20719211512E+03  0.46476076133E+02 -0.16232720292E+03  0.26728022566E+03  0.00000000000E+00 0.  1.
         21    1    1    2  502  501 -0.33633792033E+02  0.62255985352E+01  0.17021678322E+02  0.38206381359E+02  0.00000000000E+00 0. -1.
<scales pt_clust_4="550.00000" pt_clust_5="550.00000" pt_clust_6="34.20512"></scales>
<mgrwt>
<rscale>  0 0.30000000E+03</rscale>
<asrwt>  1 0.34205117E+02</asrwt>
<pdfrwt beam="1">  1        1 0.89419560E+00 0.30000000E+03</pdfrwt>
<pdfrwt beam="2">0</pdfrwt>
<totfact> 0.12931352E-04</totfact>
</mgrwt>
<clustering>
<clus scale="   34.205">  1  6  2 -1</clus>
<clus scale="  479.270">  4  5 -1 -1</clus>
<clus scale="  300.000">  1  4  2 -1</clus>
</clustering>
</event>
<event>
 6    1  0.1007353E-011  0.3000000E+03  0.7818608E-02  0.1093470E+00
          1   -1    0    0  502    0  0.00000000000E+00  0.00000000000E+00  0.24593107951E+03  0.24593107951E+03  0.00000000000E+00 0.  1.
         13   -1    0    0    0    0 -0.00000000000E+00 -0.00000000000E+00 -0.27500000000E+03  0.27500000000E+03  0.00000000000E+00 0.  1.
    9000005    2    1    2  501    0  0.17217481646E+01  0.32234542009E+02 -0.45437679400E+02  0.48473762177E+03  0.48152253232E+03 0.  0.
         13    1    3    3    0    0 -0.21432940527E+03  0.99071704194E+02 -0.92760100850E+02  0.25368628825E+03  0.00000000000E+00 0.  1.
          3    1    3    3  501    0  0.21605115343E+03 -0.66837162186E+02  0.47322421450E+02  0.23105133352E+03  0.00000000000E+00 0.  1.
         21    1    1    2  502  501 -0.17217481646E+01 -0.32234542009E+02  0.16368758914E+02  0.36193457746E+02  0.00000000000E+00 0.  1.
<scales pt_clust_4="550.00000" pt_clust_5="550.00000" pt_clust_6="32.28049"></scales>
<mgrwt>
<rscale>  0 0.30000000E+03</rscale>
<asrwt>  1 0.32280491E+02</asrwt>
<pdfrwt beam="1">  1        1 0.89429483E+00 0.30000000E+03</pdfrwt>
<pdfrwt beam="2">0</pdfrwt>
<totfact> 0.13039607E-04</totfact>
</mgrwt>
<clustering>
<clus scale="   32.280">  1  6  2 -1</clus>
<clus scale="  481.523">  4  5 -1 -1</clus>
<clus scale="  300.000">  1  4  2 -1</clus>
</clustering>
</event>
<event>
 6    1  0.1007353E-011  0.3000000E+03  0.7818608E-02  0.1093470E+00
          1   -1    0    0  502    0  0.00000000000E+00  0.00000000000E+00  0.22748797385E+03  0.22748797385E+03  0.00000000000E+00 0.  1.
         13   -1    0    0    0    0 -0.00000000000E+00 -0.00000000000E+00 -0.27500000000E+03  0.27500000000E+03  0.00000000000E+00 0.  1.
    9000005    2    1    2  501    0 -0.10471103460E+02  0.38611774748E+02 -0.42093138595E+02  0.46211623250E+03  0.45845290584E+03 0.  0.
         13    1    3    3    0    0  0.52545764216E+01  0.24634525787E+03 -0.58151817412E+02  0.25317035869E+03  0.00000000000E+00 0.  1.
          1    1    3    3  501    0 -0.15725679881E+02 -0.20773348313E+03  0.16058678817E+02  0.20894587382E+03  0.00000000000E+00 0.  1.
         21    1    1    2  502  501  0.10471103460E+02 -0.38611774748E+02 -0.54188875563E+01  0.40371741345E+02  0.00000000000E+00 0.  1.
<scales pt_clust_4="550.00000" pt_clust_5="550.00000" pt_clust_6="40.00643"></scales>
<mgrwt>
<rscale>  0 0.30000000E+03</rscale>
<asrwt>  1 0.40006434E+02</asrwt>
<pdfrwt beam="1">  1        1 0.82722900E+00 0.30000000E+03</pdfrwt>
<pdfrwt beam="2">0</pdfrwt>
<totfact> 0.60890118E-04</totfact>
</mgrwt>
<clustering>
<clus scale="   40.006">  1  6  2 -1</clus>
<clus scale="  458.453">  4  5 -1 -1</clus>
<clus scale="  300.000">  1  4  2 -1</clus>
</clustering>
</event>
<event>
 6    1  0.1007353E-011  0.3000000E+03  0.7818608E-02  0.1093470E+00
          1   -1    0    0  502    0  0.00000000000E+00  0.00000000000E+00  0.22659039196E+03  0.22659039196E+03  0.00000000000E+00 0.  1.
         13   -1    0    0    0    0 -0.00000000000E+00 -0.00000000000E+00 -0.27500000000E+03  0.27500000000E+03  0.00000000000E+00 0.  1.
    9000005    2    1    2  501    0 -0.15765218913E+02 -0.26295668333E+02 -0.26793172236E+02  0.46407673315E+03  0.46228707084E+03 0.  0.
         13    1    3    3    0    0  0.17133888421E+03  0.95063028642E+02 -0.11158170394E+03  0.22548718215E+03  0.00000000000E+00 0.  1.
          1    1    3    3  501    0 -0.18710410313E+03 -0.12135869697E+03  0.84788531704E+02  0.23858955100E+03  0.00000000000E+00 0.  1.
         21    1    1    2  502  501  0.15765218913E+02  0.26295668333E+02 -0.21616435807E+02  0.37513658812E+02  0.00000000000E+00 0.  1.
<scales pt_clust_4="550.00000" pt_clust_5="550.00000" pt_clust_6="30.65950"></scales>
<mgrwt>
<rscale>  0 0.30000000E+03</rscale>
<asrwt>  1 0.30659505E+02</asrwt>
<pdfrwt beam="1">  1        1 0.82396506E+00 0.30000000E+03</pdfrwt>
<pdfrwt beam="2">0</pdfrwt>
<totfact> 0.68416962E-04</totfact>
</mgrwt>
<clustering>
<clus scale="   30.660">  1  6  2 -1</clus>
<clus scale="  462.287">  4  5 -1 -1</clus>
<clus scale="  300.000">  1  4  2 -1</clus>
</clustering>
</event>
<event>
 6    1  0.1007353E-011  0.3000000E+03  0.7818608E-02  0.1093470E+00
          1   -1    0    0  502    0  0.00000000000E+00  0.00000000000E+00  0.24268549782E+03  0.24268549782E+03  0.00000000000E+00 0.  1.
         13   -1    0    0    0    0 -0.00000000000E+00 -0.00000000000E+00 -0.27500000000E+03  0.27500000000E+03  0.00000000000E+00 0.  1.
    9000005    2    1    2  501    0 -0.10982220456E+02 -0.46137047019E+02 -0.44929744430E+02  0.46861024326E+03  0.46403409560E+03 0.  0.
         13    1    3    3    0    0 -0.22090452725E+03  0.27829296306E+02 -0.92348901799E+02  0.24104273388E+03  0.00000000000E+00 0.  1.
          1    1    3    3  501    0  0.20992230680E+03 -0.73966343325E+02  0.47419157369E+02  0.22756750937E+03  0.00000000000E+00 0.  1.
         21    1    1    2  502  501  0.10982220456E+02  0.46137047019E+02  0.12615242254E+02  0.49075254568E+02  0.00000000000E+00 0. -1.
<scales pt_clust_4="550.00000" pt_clust_5="550.00000" pt_clust_6="47.42611"></scales>
<mgrwt>
<rscale>  0 0.30000000E+03</rscale>
<asrwt>  1 0.47426114E+02</asrwt>
<pdfrwt beam="1">  1        1 0.88249272E+00 0.30000000E+03</pdfrwt>
<pdfrwt beam="2">0</pdfrwt>
<totfact> 0.17356436E-04</totfact>
</mgrwt>
<clustering>
<clus scale="   47.426">  1  6  2 -1</clus>
<clus scale="  464.034">  4  5 -1 -1</clus>
<clus scale="  300.000">  1  4  2 -1</clus>
</clustering>
</event>
<event>
 6    1  0.1007353E-011  0.3000000E+03  0.7818608E-02  0.1093470E+00
          1   -1    0    0  502    0  0.00000000000E+00  0.00000000000E+00  0.24304312269E+03  0.24304312269E+03  0.00000000000E+00 0.  1.
         13   -1    0    0    0    0 -0.00000000000E+00 -0.00000000000E+00 -0.27500000000E+03  0.27500000000E+03  0.00000000000E+00 0.  1.
    9000005    2    1    2  501    0  0.23706008973E+02  0.39894343444E+02 -0.52222116375E+02  0.46740505979E+03  0.46215452716E+03 0.  0.
         13    1    3    3    0    0 -0.46802591274E+02 -0.71955174900E+02  0.18042968301E+03  0.19980715767E+03  0.00000000000E+00 0.  1.
          1    1    3    3  501    0  0.70508600247E+02  0.11184951834E+03 -0.23265179938E+03  0.26759790212E+03  0.00000000000E+00 0.  1.
         21    1    1    2  502  501 -0.23706008973E+02 -0.39894343444E+02  0.20265239067E+02  0.50638062904E+02  0.00000000000E+00 0. -1.
<scales pt_clust_4="550.00000" pt_clust_5="550.00000" pt_clust_6="46.40618"></scales>
<mgrwt>
<rscale>  0 0.30000000E+03</rscale>
<asrwt>  1 0.46406180E+02</asrwt>
<pdfrwt beam="1">  1        1 0.88379317E+00 0.30000000E+03</pdfrwt>
<pdfrwt beam="2">0</pdfrwt>
<totfact> 0.16741252E-04</totfact>
</mgrwt>
<clustering>
<clus scale="   46.406">  1  6  2 -1</clus>
<clus scale="  462.155">  4  5 -1 -1</clus>
<clus scale="  300.000">  1  4  2 -1</clus>
</clustering>
</event>
<event>
 6    1  0.1007353E-011  0.3000000E+03  0.7818608E-02  0.1093470E+00
          1   -1    0    0  502    0  0.00000000000E+00  0.00000000000E+00  0.25105465323E+03  0.25105465323E+03  0.00000000000E+00 0.  1.
         13   -1    0    0    0    0 -0.00000000000E+00 -0.00000000000E+00 -0.27500000000E+03  0.27500000000E+03  0.00000000000E+00 0.  1.
    9000005    2    1    2  501    0 -0.30416074464E+02  0.58337051079E+01 -0.29450072189E+02  0.49459878409E+03  0.49274890235E+03 0.  0.
         13    1    3    3    0    0  0.23055634871E+03 -0.79750157645E+01  0.65874295117E+01  0.23078826884E+03  0.00000000000E+00 0.  1.
          3    1    3    3  501    0 -0.26097242317E+03  0.13808720872E+02 -0.36037501700E+02  0.26381051525E+03  0.00000000000E+00 0.  1.
         21    1    1    2  502  501  0.30416074464E+02 -0.58337051079E+01  0.55047254139E+01  0.31455869134E+02  0.00000000000E+00 0.  1.
<scales pt_clust_4="550.00000" pt_clust_5="550.00000" pt_clust_6="30.97046"></scales>
<mgrwt>
<rscale>  0 0.30000000E+03</rscale>
<asrwt>  1 0.30970465E+02</asrwt>
<pdfrwt beam="1">  1        1 0.91292601E+00 0.30000000E+03</pdfrwt>
<pdfrwt beam="2">0</pdfrwt>
<totfact> 0.62201852E-05</totfact>
</mgrwt>
<clustering>
<clus scale="   30.970">  1  6  2 -1</clus>
<clus scale="  492.749">  4  5 -1 -1</clus>
<clus scale="  300.000">  1  4  2 -1</clus>
</clustering>
</event>
<event>
 6    1  0.1007353E-011  0.3000000E+03  0.7818608E-02  0.1093470E+00
          1   -1    0    0  502    0  0.00000000000E+00  0.00000000000E+00  0.25202771416E+03  0.25202771416E+03  0.00000000000E+00 0.  1.
         13   -1    0    0    0    0 -0.00000000000E+00 -0.00000000000E+00 -0.27500000000E+03  0.27500000000E+03  0.00000000000E+00 0.  1.
    9000005    2    1    2  501    0 -0.38497758375E+02 -0.77976190658E+01 -0.40958487985E+02  0.48382605064E+03  0.48048638824E+03 0.  0.
         13    1    3    3    0    0  0.42498937675E+02  0.19743049627E+03  0.96554394694E+02  0.22384751885E+03  0.00000000000E+00 0.  1.
          3    1    3    3  501    0 -0.80996696050E+02 -0.20522811533E+03 -0.13751288268E+03  0.25997853180E+03  0.00000000000E+00 0.  1.
         21    1    1    2  502  501  0.38497758375E+02  0.77976190658E+01  0.17986202146E+02  0.43201663517E+02  0.00000000000E+00 0. -1.
<scales pt_clust_4="550.00000" pt_clust_5="550.00000" pt_clust_6="39.27951"></scales>
<mgrwt>
<rscale>  0 0.30000000E+03</rscale>
<asrwt>  1 0.39279515E+02</asrwt>
<pdfrwt beam="1">  1        1 0.91646442E+00 0.30000000E+03</pdfrwt>
<pdfrwt beam="2">0</pdfrwt>
<totfact> 0.49044101E-05</totfact>
</mgrwt>
<clustering>
<clus scale="   39.280">  1  6  2 -1</clus>
<clus scale="  480.486">  4  5 -1 -1</clus>
<clus scale="  300.000">  1  4  2 -1</clus>
</clustering>
</event>
<event>
 6    1  0.1007353E-011  0.3000000E+03  0.7818608E-02  0.1093470E+00
          1   -1    0    0  502    0  0.00000000000E+00  0.00000000000E+00  0.24767131160E+03  0.24767131160E+03  0.00000000000E+00 0.  1.
         13   -1    0    0    0    0 -0.00000000000E+00 -0.00000000000E+00 -0.27500000000E+03  0.27500000000E+03  0.00000000000E+00 0.  1.
    9000005    2    1    2  501    0  0.15867941699E+01 -0.30837793872E+02 -0.51270384118E+02  0.48359840231E+03  0.47988047989E+03 0.  0.
         13    1    3    3    0    0 -0.34415574376E+02  0.19105952099E+03 -0.14267823031E+03  0.24092581789E+03  0.00000000000E+00 0.  1.
          3    1    3    3  501    0  0.36002368546E+02 -0.22189731486E+03  0.91407846191E+02  0.24267258442E+03  0.00000000000E+00 0.  1.
         21    1    1    2  502  501 -0.15867941699E+01  0.30837793872E+02  0.23941695715E+02  0.39072909289E+02  0.00000000000E+00 0.  1.
<scales pt_clust_4="550.00000" pt_clust_5="550.00000" pt_clust_6="30.87859"></scales>
<mgrwt>
<rscale>  0 0.30000000E+03</rscale>
<asrwt>  1 0.30878592E+02</asrwt>
<pdfrwt beam="1">  1        1 0.90062295E+00 0.30000000E+03</pdfrwt>
<pdfrwt beam="2">0</pdfrwt>
<totfact> 0.11103335E-04</totfact>
</mgrwt>
<clustering>
<clus scale="   30.879">  1  6  2 -1</clus>
<clus scale="  479.880">  4  5 -1 -1</clus>
<clus scale="  300.000">  1  4  2 -1</clus>
</clustering>
</event>
<event>
 6    1  0.1007353E-011  0.3000000E+03  0.7818608E-02  0.1093470E+00
          1   -1    0    0  502    0  0.00000000000E+00  0.00000000000E+00  0.25646774280E+03  0.25646774280E+03  0.00000000000E+00 0.  1.
         13   -1    0    0    0    0 -0.00000000000E+00 -0.00000000000E+00 -0.27500000000E+03  0.27500000000E+03  0.00000000000E+00 0.  1.
    9000005    2    1    2  501    0  0.34244410170E+01 -0.62619410265E+02 -0.14514382111E+02  0.46862619079E+03  0.46418414672E+03 0.  0.
         13    1    3    3    0    0 -0.35130779065E+02 -0.15646549714E+03 -0.20051585782E+03  0.25675325250E+03  0.00000000000E+00 0.  1.
          3    1    3    3  501    0  0.38555220082E+02  0.93846086873E+02  0.18600147570E+03  0.21187293829E+03  0.00000000000E+00 0.  1.
         21    1    1    2  502  501 -0.34244410170E+01  0.62619410265E+02 -0.40178750925E+01  0.62841552006E+02  0.00000000000E+00 0. -1.
<scales pt_clust_4="550.00000" pt_clust_5="550.00000" pt_clust_6="62.71301"></scales>
<mgrwt>
<rscale>  0 0.30000000E+03</rscale>
<asrwt>  1 0.62713007E+02</asrwt>
<pdfrwt beam="1">  1        1 0.93260997E+00 0.30000000E+03</pdfrwt>
<pdfrwt beam="2">0</pdfrwt>
<totfact> 0.21748084E-05</totfact>
</mgrwt>
<clustering>
<clus scale="   62.713">  1  6  2 -1</clus>
<clus scale="  464.184">  4  5 -1 -1</clus>
<clus scale="  300.000">  1  4  2 -1</clus>
</clustering>
</event>
<event>
 6    1  0.1007353E-011  0.3000000E+03  0.7818608E-02  0.1093470E+00
          1   -1    0    0  502    0  0.00000000000E+00  0.00000000000E+00  0.22832474653E+03  0.22832474653E+03  0.00000000000E+00 0.  1.
         13   -1    0    0    0    0 -0.00000000000E+00 -0.00000000000E+00 -0.27500000000E+03  0.27500000000E+03  0.00000000000E+00 0.  1.
    9000005    2    1    2  501    0  0.21283626954E+02 -0.26793904448E+02 -0.63109760853E+02  0.46536425226E+03  0.45979358334E+03 0.  0.
         13    1    3    3    0    0 -0.14791706214E+03  0.15728481285E+02 -0.19599984173E+03  0.24605442559E+03  0.00000000000E+00 0.  1.
          1    1    3    3  501    0  0.16920068910E+03 -0.42522385733E+02  0.13289008087E+03  0.21930982667E+03  0.00000000000E+00 0.  1.
         21    1    1    2  502  501 -0.21283626954E+02  0.26793904448E+02  0.16434507379E+02  0.37960494263E+02  0.00000000000E+00 0. -1.
<scales pt_clust_4="550.00000" pt_clust_5="550.00000" pt_clust_6="34.21851"></scales>
<mgrwt>
<rscale>  0 0.30000000E+03</rscale>
<asrwt>  1 0.34218505E+02</asrwt>
<pdfrwt beam="1">  1        1 0.83027181E+00 0.30000000E+03</pdfrwt>
<pdfrwt beam="2">0</pdfrwt>
<totfact> 0.59047522E-04</totfact>
</mgrwt>
<clustering>
<clus scale="   34.219">  1  6  2 -1</clus>
<clus scale="  459.794">  4  5 -1 -1</clus>
<clus scale="  300.000">  1  4  2 -1</clus>
</clustering>
</event>
<event>
 6    1  0.1007353E-011  0.3000000E+03  0.7818608E-02  0.1093470E+00
          1   -1    0    0  502    0  0.00000000000E+00  0.00000000000E+00  0.23596968468E+03  0.23596968468E+03  0.00000000000E+00 0.  1.
         13   -1    0    0    0    0 -0.00000000000E+00 -0.00000000000E+00 -0.27500000000E+03  0.27500000000E+03  0.00000000000E+00 0.  1.
    9000005    2    1    2  501    0  0.19873216431E+02  0.23760806011E+02 -0.47826656274E+02  0.47876881128E+03  0.47536582226E+03 0.  0.
         13    1    3    3    0    0 -0.18705078260E+03  0.26486720022E+02  0.10991222027E+03  0.21856403586E+03  0.00000000000E+00 0.  1.
          1    1    3    3  501    0  0.20692399903E+03 -0.27259140108E+01 -0.15773887654E+03  0.26020477542E+03  0.00000000000E+00 0.  1.
         21    1    1    2  502  501 -0.19873216431E+02 -0.23760806011E+02  0.87963409588E+01  0.32200873402E+02  0.00000000000E+00 0. -1.
<scales pt_clust_4="550.00000" pt_clust_5="550.00000" pt_clust_6="30.97613"></scales>
<mgrwt>
<rscale>  0 0.30000000E+03</rscale>
<asrwt>  1 0.30976130E+02</asrwt>
<pdfrwt beam="1">  1        1 0.85807158E+00 0.30000000E+03</pdfrwt>
<pdfrwt beam="2">0</pdfrwt>
<totfact> 0.34691911E-04</totfact>
</mgrwt>
<clustering>
<clus scale="   30.976">  1  6  2 -1</clus>
<clus scale="  475.366">  4  5 -1 -1</clus>
<clus scale="  300.000">  1  4  2 -1</clus>
</clustering>
</event>
<event>
 6    1  0.1007353E-011  0.3000000E+03  0.7818608E-02  0.1093470E+00
          1   -1    0    0  502    0  0.00000000000E+00  0.00000000000E+00  0.23159435092E+03  0.23159435092E+03  0.00000000000E+00 0.  1.
         13   -1    0    0    0    0 -0.00000000000E+00 -0.00000000000E+00 -0.27500000000E+03  0.27500000000E+03  0.00000000000E+00 0.  1.
    9000005    2    1    2  501    0  0.60912808719E+00 -0.30159048409E+02 -0.46302855976E+02  0.47629034053E+03  0.47307356169E+03 0.  0.
         13    1    3    3    0    0 -0.16000097482E+02 -0.12957894258E+03 -0.23130527408E+03  0.26561030721E+03  0.00000000000E+00 0.  1.
          1    1    3    3  501    0  0.16609225569E+02  0.99419894176E+02  0.18500241810E+03  0.21068003331E+03  0.00000000000E+00 0.  1.
         21    1    1    2  502  501 -0.60912808719E+00  0.30159048409E+02  0.28972068913E+01  0.30304010390E+02  0.00000000000E+00 0.  1.
<scales pt_clust_4="550.00000" pt_clust_5="550.00000" pt_clust_6="30.16520"></scales>
<mgrwt>
<rscale>  0 0.30000000E+03</rscale>
<asrwt>  1 0.30165199E+02</asrwt>
<pdfrwt beam="1">  1        1 0.84216128E+00 0.30000000E+03</pdfrwt>
<pdfrwt beam="2">0</pdfrwt>
<totfact> 0.49135661E-04</totfact>
</mgrwt>
<clustering>
<clus scale="   30.165">  1  6  2 -1</clus>
<clus scale="  473.074">  4  5 -1 -1</clus>
<clus scale="  300.000">  1  4  2 -1</clus>
</clustering>
</event>
<event>
 6    1  0.1007353E-011  0.3000000E+03  0.7818608E-02  0.1093470E+00
          1   -1    0    0  502    0  0.00000000000E+00  0.00000000000E+00  0.22757878708E+03  0.22757878708E+03  0.00000000000E+00 0.  1.
         13   -1    0    0    0    0 -0.00000000000E+00 -0.00000000000E+00 -0.27500000000E+03  0.27500000000E+03  0.00000000000E+00 0.  1.
    9000005    2    1    2  501    0 -0.27205556494E+02 -0.17253521753E+02 -0.43231996708E+02  0.47009223833E+03  0.46699023618E+03 0.  0.
         13    1    3    3    0    0  0.13872110749E+02 -0.22022896975E+03 -0.11760940736E+03  0.25005040946E+03  0.00000000000E+00 0.  1.
          1    1    3    3  501    0 -0.41077667243E+02  0.20297544800E+03  0.74377410656E+02  0.22004182887E+03  0.00000000000E+00 0.  1.
         21    1    1    2  502  501  0.27205556494E+02  0.17253521753E+02 -0.41892162132E+01  0.32486548747E+02  0.00000000000E+00 0.  1.
<scales pt_clust_4="550.00000" pt_clust_5="550.00000" pt_clust_6="32.21533"></scales>
<mgrwt>
<rscale>  0 0.30000000E+03</rscale>
<asrwt>  1 0.32215328E+02</asrwt>
<pdfrwt beam="1">  1        1 0.82755923E+00 0.30000000E+03</pdfrwt>
<pdfrwt beam="2">0</pdfrwt>
<totfact> 0.62975539E-04</totfact>
</mgrwt>
<clustering>
<clus scale="   32.215">  1  6  2 -1</clus>
<clus scale="  466.990">  4  5 -1 -1</clus>
<clus scale="  300.000">  1  4  2 -1</clus>
</clustering>
</event>
<event>
 6    1  0.1007353E-011  0.3000000E+03  0.7818608E-02  0.1093470E+00
          1   -1    0    0  502    0  0.00000000000E+00  0.00000000000E+00  0.24057294172E+03  0.24057294172E+03  0.00000000000E+00 0.  1.
         13   -1    0    0    0    0 -0.00000000000E+00 -0.00000000000E+00 -0.27500000000E+03  0.27500000000E+03  0.00000000000E+00 0.  1.
    9000005    2    1    2  501    0 -0.99219046250E+01 -0.36040281684E+02 -0.50268654847E+02  0.47497365260E+03  0.47082447569E+03 0.  0.
         13    1    3    3    0    0 -0.61743518538E+02  0.17007731361E+03 -0.15480473877E+03  0.23812404715E+03  0.00000000000E+00 0.  1.
          1    1    3    3  501    0  0.51821613913E+02 -0.20611759530E+03  0.10453608392E+03  0.23684960545E+03  0.00000000000E+00 0.  1.
         21    1    1    2  502  501  0.99219046250E+01  0.36040281684E+02  0.15841596570E+02  0.40599289121E+02  0.00000000000E+00 0.  1.
<scales pt_clust_4="550.00000" pt_clust_5="550.00000" pt_clust_6="37.38109"></scales>
<mgrwt>
<rscale>  0 0.30000000E+03</rscale>
<asrwt>  1 0.37381093E+02</asrwt>
<pdfrwt beam="1">  1        1 0.87481070E+00 0.30000000E+03</pdfrwt>
<pdfrwt beam="2">0</pdfrwt>
<totfact> 0.22321656E-04</totfact>
</mgrwt>
<clustering>
<clus scale="   37.381">  1  6  2 -1</clus>
<clus scale="  470.824">  4  5 -1 -1</clus>
<clus scale="  300.000">  1  4  2 -1</clus>
</clustering>
</event>
<event>
 6    1  0.1007353E-011  0.3000000E+03  0.7818608E-02  0.1093470E+00
          1   -1    0    0  502    0  0.00000000000E+00  0.00000000000E+00  0.23249173510E+03  0.23249173510E+03  0.00000000000E+00 0.  1.
         13   -1    0    0    0    0 -0.00000000000E+00 -0.00000000000E+00 -0.27500000000E+03  0.27500000000E+03  0.00000000000E+00 0.  1.
    9000005    2    1    2  501    0  0.38554005088E+02 -0.10968965172E+02 -0.51812310204E+02  0.46634207211E+03  0.46171818594E+03 0.  0.
         13    1    3    3    0    0  0.90908502939E+02  0.21381941905E+03 -0.17499211360E+02  0.23300069156E+03  0.00000000000E+00 0.  1.
          3    1    3    3  501    0 -0.52354497852E+02 -0.22478838422E+03 -0.34313098844E+02  0.23334138055E+03  0.00000000000E+00 0.  1.
         21    1    1    2  502  501 -0.38554005088E+02  0.10968965172E+02  0.93040453045E+01  0.41149662991E+02  0.00000000000E+00 0.  1.
<scales pt_clust_4="550.00000" pt_clust_5="550.00000" pt_clust_6="40.08403"></scales>
<mgrwt>
<rscale>  0 0.30000000E+03</rscale>
<asrwt>  1 0.40084031E+02</asrwt>
<pdfrwt beam="1">  1        1 0.84542449E+00 0.30000000E+03</pdfrwt>
<pdfrwt beam="2">0</pdfrwt>
<totfact> 0.43688440E-04</totfact>
</mgrwt>
<clustering>
<clus scale="   40.084">  1  6  2 -1</clus>
<clus scale="  461.718">  4  5 -1 -1</clus>
<clus scale="  300.000">  1  4  2 -1</clus>
</clustering>
</event>
<event>
 6    1  0.1007353E-011  0.3000000E+03  0.7818608E-02  0.1093470E+00
          1   -1    0    0  502    0  0.00000000000E+00  0.00000000000E+00  0.23366367142E+03  0.23366367142E+03  0.00000000000E+00 0.  1.
         13   -1    0    0    0    0 -0.00000000000E+00 -0.00000000000E+00 -0.27500000000E+03  0.27500000000E+03  0.00000000000E+00 0.  1.
    9000005    2    1    2  501    0  0.30772467394E+01  0.33156457564E+02 -0.63384654438E+02  0.46872686135E+03  0.46322611758E+03 0.  0.
         13    1    3    3    0    0  0.20392947746E+03 -0.57473055724E+02  0.54571983978E+02  0.21878867737E+03  0.00000000000E+00 0.  1.
          3    1    3    3  501    0 -0.20085223072E+03  0.90629513288E+02 -0.11795663842E+03  0.24993818398E+03  0.00000000000E+00 0.  1.
         21    1    1    2  502  501 -0.30772467394E+01 -0.33156457564E+02  0.22048325862E+02  0.39936810075E+02  0.00000000000E+00 0. -1.
<scales pt_clust_4="550.00000" pt_clust_5="550.00000" pt_clust_6="33.29895"></scales>
<mgrwt>
<rscale>  0 0.30000000E+03</rscale>
<asrwt>  1 0.33298951E+02</asrwt>
<pdfrwt beam="1">  1        1 0.84968608E+00 0.30000000E+03</pdfrwt>
<pdfrwt beam="2">0</pdfrwt>
<totfact> 0.41360511E-04</totfact>
</mgrwt>
<clustering>
<clus scale="   33.299">  1  6  2 -1</clus>
<clus scale="  463.226">  4  5 -1 -1</clus>
<clus scale="  300.000">  1  4  2 -1</clus>
</clustering>
</event>
<event>
 6    1  0.1007353E-011  0.3000000E+03  0.7818608E-02  0.1093470E+00
          1   -1    0    0  502    0  0.00000000000E+00  0.00000000000E+00  0.24174745243E+03  0.24174745243E+03  0.00000000000E+00 0.  1.
         13   -1    0    0    0    0 -0.00000000000E+00 -0.00000000000E+00 -0.27500000000E+03  0.27500000000E+03  0.00000000000E+00 0.  1.
    9000005    2    1    2  501    0  0.42250090992E+02  0.95275754567E+01 -0.56533105332E+02  0.46757602523E+03  0.46212065793E+03 0.  0.
         13    1    3    3    0    0  0.24395133541E+03 -0.47764160854E+02  0.63665926705E+01  0.24866483992E+03  0.00000000000E+00 0.  1.
          1    1    3    3  501    0 -0.20170124441E+03  0.57291736311E+02 -0.62899698002E+02  0.21891118532E+03  0.00000000000E+00 0.  1.
         21    1    1    2  502  501 -0.42250090992E+02 -0.95275754567E+01  0.23280557760E+02  0.49171427196E+02  0.00000000000E+00 0.  1.
<scales pt_clust_4="550.00000" pt_clust_5="550.00000" pt_clust_6="43.31102"></scales>
<mgrwt>
<rscale>  0 0.30000000E+03</rscale>
<asrwt>  1 0.43311025E+02</asrwt>
<pdfrwt beam="1">  1        1 0.87908165E+00 0.30000000E+03</pdfrwt>
<pdfrwt beam="2">0</pdfrwt>
<totfact> 0.19474755E-04</totfact>
</mgrwt>
<clustering>
<clus scale="   43.311">  1  6  2 -1</clus>
<clus scale="  462.121">  4  5 -1 -1</clus>
<clus scale="  300.000">  1  4  2 -1</clus>
</clustering>
</event>
<event>
 6    1  0.1007353E-011  0.3000000E+03  0.7818608E-02  0.1093470E+00
          1   -1    0    0  502    0  0.00000000000E+00  0.00000000000E+00  0.24933966702E+03  0.24933966702E+03  0.00000000000E+00 0.  1.
         13   -1    0    0    0    0 -0.00000000000E+00 -0.00000000000E+00 -0.27500000000E+03  0.27500000000E+03  0.00000000000E+00 0.  1.
    9000005    2    1    2  501    0 -0.31277598895E+02  0.15434546777E+02 -0.72811609120E+02  0.46569023166E+03  0.45863858103E+03 0.  0.
         13    1    3    3    0    0 -0.21920123420E+03 -0.92809698042E+02 -0.72450649211E+02  0.24882105557E+03  0.00000000000E+00 0.  1.
          3    1    3    3  501    0  0.18792363531E+03  0.10824424482E+03 -0.36095990887E+00  0.21686917608E+03  0.00000000000E+00 0.  1.
         21    1    1    2  502  501  0.31277598895E+02 -0.15434546777E+02  0.47151276141E+02  0.58649435365E+02  0.00000000000E+00 0.  1.
<scales pt_clust_4="550.00000" pt_clust_5="550.00000" pt_clust_6="34.87855"></scales>
<mgrwt>
<rscale>  0 0.30000000E+03</rscale>
<asrwt>  1 0.34878553E+02</asrwt>
<pdfrwt beam="1">  1        1 0.90668970E+00 0.30000000E+03</pdfrwt>
<pdfrwt beam="2">0</pdfrwt>
<totfact> 0.85590318E-05</totfact>
</mgrwt>
<clustering>
<clus scale="   34.879">  1  6  2 -1</clus>
<clus scale="  458.639">  4  5 -1 -1</clus>
<clus scale="  300.000">  1  4  2 -1</clus>
</clustering>
</event>
<event>
 6    1  0.1007353E-011  0.3000000E+03  0.7818608E-02  0.1093470E+00
          1   -1    0    0  502    0  0.00000000000E+00  0.00000000000E+00  0.24417260805E+03  0.24417260805E+03  0.00000000000E+00 0.  1.
         13   -1    0    0    0    0 -0.00000000000E+00 -0.00000000000E+00 -0.27500000000E+03  0.27500000000E+03  0.00000000000E+00 0.  1.
    9000005    2    1    2  501    0 -0.27627563169E+02  0.13769082469E+02 -0.73260595945E+02  0.46669931313E+03  0.45987853187E+03 0.  0.
         13    1    3    3    0    0  0.97304854521E+02  0.20009686522E+03  0.20740381089E+02  0.22346622472E+03  0.00000000000E+00 0.  1.
          3    1    3    3  501    0 -0.12493241769E+03 -0.18632778275E+03 -0.94000977034E+02  0.24323308841E+03  0.00000000000E+00 0.  1.
         21    1    1    2  502  501  0.27627563169E+02 -0.13769082469E+02  0.42433203999E+02  0.52473294925E+02  0.00000000000E+00 0.  1.
<scales pt_clust_4="550.00000" pt_clust_5="550.00000" pt_clust_6="30.86859"></scales>
<mgrwt>
<rscale>  0 0.30000000E+03</rscale>
<asrwt>  1 0.30868590E+02</asrwt>
<pdfrwt beam="1">  1        1 0.88790039E+00 0.30000000E+03</pdfrwt>
<pdfrwt beam="2">0</pdfrwt>
<totfact> 0.15850609E-04</totfact>
</mgrwt>
<clustering>
<clus scale="   30.869">  1  6  2 -1</clus>
<clus scale="  459.879">  4  5 -1 -1</clus>
<clus scale="  300.000">  1  4  2 -1</clus>
</clustering>
</event>
<event>
 6    1  0.1007353E-011  0.3000000E+03  0.7818608E-02  0.1093470E+00
          1   -1    0    0  502    0  0.00000000000E+00  0.00000000000E+00  0.23312172953E+03  0.23312172953E+03  0.00000000000E+00 0.  1.
         13   -1    0    0    0    0 -0.00000000000E+00 -0.00000000000E+00 -0.27500000000E+03  0.27500000000E+03  0.00000000000E+00 0.  1.
    9000005    2    1    2  501    0  0.92371798274E+01 -0.30037371030E+02 -0.70995939916E+02  0.46528006962E+03  0.45875652644E+03 0.  0.
         13    1    3    3    0    0  0.10635949565E+03 -0.21689226406E+02  0.17204077903E+03  0.20342269909E+03  0.00000000000E+00 0.  1.
          3    1    3    3  501    0 -0.97122315818E+02 -0.83481446242E+01 -0.24303671894E+03  0.26185737054E+03  0.00000000000E+00 0.  1.
         21    1    1    2  502  501 -0.92371798274E+01  0.30037371030E+02  0.29117669446E+02  0.42841659907E+02  0.00000000000E+00 0. -1.
<scales pt_clust_4="550.00000" pt_clust_5="550.00000" pt_clust_6="31.42561"></scales>
<mgrwt>
<rscale>  0 0.30000000E+03</rscale>
<asrwt>  1 0.31425613E+02</asrwt>
<pdfrwt beam="1">  1        1 0.84771538E+00 0.30000000E+03</pdfrwt>
<pdfrwt beam="2">0</pdfrwt>
<totfact> 0.43607124E-04</totfact>
</mgrwt>
<clustering>
<clus scale="   31.426">  1  6  2 -1</clus>
<clus scale="  458.757">  4  5 -1 -1</clus>
<clus scale="  300.000">  1  4  2 -1</clus>
</clustering>
</event>
<event>
 6    1  0.1007353E-011  0.3000000E+03  0.7818608E-02  0.1093470E+00
          1   -1    0    0  502    0  0.00000000000E+00  0.00000000000E+00  0.22695310956E+03  0.22695310956E+03  0.00000000000E+00 0.  1.
         13   -1    0    0    0    0 -0.00000000000E+00 -0.00000000000E+00 -0.27500000000E+03  0.27500000000E+03  0.00000000000E+00 0.  1.
    9000005    2    1    2  501    0 -0.32033712919E+02 -0.91409885797E+01 -0.58758169752E+02  0.46696099702E+03  0.46205014207E+03 0.  0.
         13    1    3    3    0    0 -0.15788861527E+03 -0.15393058496E+03  0.75200090246E+02  0.23297745254E+03  0.00000000000E+00 0.  1.
          1    1    3    3  501    0  0.12585490235E+03  0.14478959638E+03 -0.13395826000E+03  0.23398354448E+03  0.00000000000E+00 0.  1.
         21    1    1    2  502  501  0.32033712919E+02  0.91409885797E+01  0.10711279308E+02  0.34992112540E+02  0.00000000000E+00 0. -1.
<scales pt_clust_4="550.00000" pt_clust_5="550.00000" pt_clust_6="33.31241"></scales>
<mgrwt>
<rscale>  0 0.30000000E+03</rscale>
<asrwt>  1 0.33312407E+02</asrwt>
<pdfrwt beam="1">  1        1 0.82528403E+00 0.30000000E+03</pdfrwt>
<pdfrwt beam="2">0</pdfrwt>
<totfact> 0.65542946E-04</totfact>
</mgrwt>
<clustering>
<clus scale="   33.312">  1  6  2 -1</clus>
<clus scale="  462.050">  4  5 -1 -1</clus>
<clus scale="  300.000">  1  4  2 -1</clus>
</clustering>
</event>
<event>
 6    1  0.1007353E-011  0.3000000E+03  0.7818608E-02  0.1093470E+00
          1   -1    0    0  502    0  0.00000000000E+00  0.00000000000E+00  0.23307150285E+03  0.23307150285E+03  0.00000000000E+00 0.  1.
         13   -1    0    0    0    0 -0.00000000000E+00 -0.00000000000E+00 -0.27500000000E+03  0.27500000000E+03  0.00000000000E+00 0.  1.
    9000005    2    1    2  501    0 -0.16649655921E+02  0.28361043897E+02 -0.63432907179E+02  0.46877774375E+03  0.46330042033E+03 0.  0.
         13    1    3    3    0    0  0.21433932939E+03 -0.22697981630E+02  0.23346148001E+02  0.21679849889E+03  0.00000000000E+00 0.  1.
          3    1    3    3  501    0 -0.23098898531E+03  0.51059025527E+02 -0.86779055180E+02  0.25197924486E+03  0.00000000000E+00 0.  1.
         21    1    1    2  502  501  0.16649655921E+02 -0.28361043897E+02  0.21504410031E+02  0.39293759097E+02  0.00000000000E+00 0.  1.
<scales pt_clust_4="550.00000" pt_clust_5="550.00000" pt_clust_6="32.88708"></scales>
<mgrwt>
<rscale>  0 0.30000000E+03</rscale>
<asrwt>  1 0.32887077E+02</asrwt>
<pdfrwt beam="1">  1        1 0.84753274E+00 0.30000000E+03</pdfrwt>
<pdfrwt beam="2">0</pdfrwt>
<totfact> 0.43397879E-04</totfact>
</mgrwt>
<clustering>
<clus scale="   32.887">  1  6  2 -1</clus>
<clus scale="  463.300">  4  5 -1 -1</clus>
<clus scale="  300.000">  1  4  2 -1</clus>
</clustering>
</event>
<event>
 6    1  0.1007353E-011  0.3000000E+03  0.7818608E-02  0.1093470E+00
          1   -1    0    0  502    0  0.00000000000E+00  0.00000000000E+00  0.23057880928E+03  0.23057880928E+03  0.00000000000E+00 0.  1.
         13   -1    0    0    0    0 -0.00000000000E+00 -0.00000000000E+00 -0.27500000000E+03  0.27500000000E+03  0.00000000000E+00 0.  1.
    9000005    2    1    2  501    0 -0.34869814126E+02 -0.10809455140E+02 -0.40992331609E+02  0.46891131234E+03  0.46568734074E+03 0.  0.
         13    1    3    3    0    0 -0.17640484314E+03 -0.78622937061E+02 -0.17644663567E+03  0.26159826099E+03  0.00000000000E+00 0.  1.
          1    1    3    3  501    0  0.14153502902E+03  0.67813481921E+02  0.13545430406E+03  0.20731305134E+03  0.00000000000E+00 0.  1.
         21    1    1    2  502  501  0.34869814126E+02  0.10809455140E+02 -0.34288591078E+01  0.36667496947E+02  0.00000000000E+00 0.  1.
<scales pt_clust_4="550.00000" pt_clust_5="550.00000" pt_clust_6="36.50684"></scales>
<mgrwt>
<rscale>  0 0.30000000E+03</rscale>
<asrwt>  1 0.36506843E+02</asrwt>
<pdfrwt beam="1">  1        1 0.83846840E+00 0.30000000E+03</pdfrwt>
<pdfrwt beam="2">0</pdfrwt>
<totfact> 0.50640747E-04</totfact>
</mgrwt>
<clustering>
<clus scale="   36.507">  1  6  2 -1</clus>
<clus scale="  465.687">  4  5 -1 -1</clus>
<clus scale="  300.000">  1  4  2 -1</clus>
</clustering>
</event>
<event>
 6    1  0.1007353E-011  0.3000000E+03  0.7818608E-02  0.1093470E+00
          1   -1    0    0  502    0  0.00000000000E+00  0.00000000000E+00  0.24558914115E+03  0.24558914115E+03  0.00000000000E+00 0.  1.
         13   -1    0    0    0    0 -0.00000000000E+00 -0.00000000000E+00 -0.27500000000E+03  0.27500000000E+03  0.00000000000E+00 0.  1.
    9000005    2    1    2  501    0 -0.16478811432E+02  0.48671217298E+02 -0.55171849464E+02  0.46310812466E+03  0.45692971400E+03 0.  0.
         13    1    3    3    0    0  0.20270508909E+03 -0.50216668817E+02 -0.74860017386E+02  0.22184474115E+03  0.00000000000E+00 0.  1.
          3    1    3    3  501    0 -0.21918390052E+03  0.98887886115E+02  0.19688167922E+02  0.24126338352E+03  0.00000000000E+00 0.  1.
         21    1    1    2  502  501  0.16478811432E+02 -0.48671217298E+02  0.25760990617E+02  0.57481016493E+02  0.00000000000E+00 0.  1.
<scales pt_clust_4="550.00000" pt_clust_5="550.00000" pt_clust_6="51.38520"></scales>
<mgrwt>
<rscale>  0 0.30000000E+03</rscale>
<asrwt>  1 0.51385198E+02</asrwt>
<pdfrwt beam="1">  1        1 0.89305142E+00 0.30000000E+03</pdfrwt>
<pdfrwt beam="2">0</pdfrwt>
<totfact> 0.12384543E-04</totfact>
</mgrwt>
<clustering>
<clus scale="   51.385">  1  6  2 -1</clus>
<clus scale="  456.930">  4  5 -1 -1</clus>
<clus scale="  300.000">  1  4  2 -1</clus>
</clustering>
</event>
<event>
 6    1  0.1007353E-011  0.3000000E+03  0.7818608E-02  0.1093470E+00
          1   -1    0    0  502    0  0.00000000000E+00  0.00000000000E+00  0.23369403129E+03  0.23369403129E+03  0.00000000000E+00 0.  1.
         13   -1    0    0    0    0 -0.00000000000E+00 -0.00000000000E+00 -0.27500000000E+03  0.27500000000E+03  0.00000000000E+00 0.  1.
    9000005    2    1    2  501    0  0.39389841859E+02 -0.16517970545E+02 -0.40010613041E+02  0.46596136300E+03  0.46227128363E+03 0.  0.
         13    1    3    3    0    0  0.16773440259E+03  0.44773677015E+02  0.14943748895E+03  0.22906565668E+03  0.00000000000E+00 0.  1.
          1    1    3    3  501    0 -0.12834456073E+03 -0.61291647560E+02 -0.18944810199E+03  0.23689570633E+03  0.00000000000E+00 0.  1.
         21    1    1    2  502  501 -0.39389841859E+02  0.16517970545E+02 -0.12953556673E+01  0.42732668287E+02  0.00000000000E+00 0.  1.
<scales pt_clust_4="550.00000" pt_clust_5="550.00000" pt_clust_6="42.71303"></scales>
<mgrwt>
<rscale>  0 0.30000000E+03</rscale>
<asrwt>  1 0.42713031E+02</asrwt>
<pdfrwt beam="1">  1        1 0.84979648E+00 0.30000000E+03</pdfrwt>
<pdfrwt beam="2">0</pdfrwt>
<totfact> 0.39409838E-04</totfact>
</mgrwt>
<clustering>
<clus scale="   42.713">  1  6  2 -1</clus>
<clus scale="  462.271">  4  5 -1 -1</clus>
<clus scale="  300.000">  1  4  2 -1</clus>
</clustering>
</event>
<event>
 6    1  0.1007353E-011  0.3000000E+03  0.7818608E-02  0.1093470E+00
          1   -1    0    0  502    0  0.00000000000E+00  0.00000000000E+00  0.24827384251E+03  0.24827384251E+03  0.00000000000E+00 0.  1.
         13   -1    0    0    0    0 -0.00000000000E+00 -0.00000000000E+00 -0.27500000000E+03  0.27500000000E+03  0.00000000000E+00 0.  1.
    9000005    2    1    2  501    0  0.21154738014E+02 -0.23477086283E+02 -0.47355143485E+02  0.48553458465E+03  0.48218526186E+03 0.  0.
         13    1    3    3    0    0 -0.50895987423E+02  0.12593849609E+03 -0.21202121944E+03  0.25180131816E+03  0.00000000000E+00 0.  1.
          1    1    3    3  501    0  0.72050725437E+02 -0.14941558238E+03  0.16466607596E+03  0.23373326649E+03  0.00000000000E+00 0.  1.
         21    1    1    2  502  501 -0.21154738014E+02  0.23477086283E+02  0.20628985998E+02  0.37739257863E+02  0.00000000000E+00 0. -1.
<scales pt_clust_4="550.00000" pt_clust_5="550.00000" pt_clust_6="31.60216"></scales>
<mgrwt>
<rscale>  0 0.30000000E+03</rscale>
<asrwt>  1 0.31602160E+02</asrwt>
<pdfrwt beam="1">  1        1 0.90281397E+00 0.30000000E+03</pdfrwt>
<pdfrwt beam="2">0</pdfrwt>
<totfact> 0.10286040E-04</totfact>
</mgrwt>
<clustering>
<clus scale="   31.602">  1  6  2 -1</clus>
<clus scale="  482.185">  4  5 -1 -1</clus>
<clus scale="  300.000">  1  4  2 -1</clus>
</clustering>
</event>
<event>
 6    1  0.1007353E-011  0.3000000E+03  0.7818608E-02  0.1093470E+00
          1   -1    0    0  502    0  0.00000000000E+00  0.00000000000E+00  0.22070502534E+03  0.22070502534E+03  0.00000000000E+00 0.  1.
         13   -1    0    0    0    0 -0.00000000000E+00 -0.00000000000E+00 -0.27500000000E+03  0.27500000000E+03  0.00000000000E+00 0.  1.
    9000005    2    1    2  501    0  0.31561804176E+02 -0.43078516333E+01 -0.63137952843E+02  0.46264593685E+03  0.45720909519E+03 0.  0.
         13    1    3    3    0    0 -0.17540247259E+03 -0.12544727577E+03 -0.41419997017E+01  0.21568542498E+03  0.00000000000E+00 0.  1.
          3    1    3    3  501    0  0.20696427676E+03  0.12113942414E+03 -0.58995953142E+02  0.24696051187E+03  0.00000000000E+00 0.  1.
         21    1    1    2  502  501 -0.31561804176E+02  0.43078516333E+01  0.88429781795E+01  0.33059088488E+02  0.00000000000E+00 0. -1.
<scales pt_clust_4="550.00000" pt_clust_5="550.00000" pt_clust_6="31.85444"></scales>
<mgrwt>
<rscale>  0 0.30000000E+03</rscale>
<asrwt>  1 0.31854436E+02</asrwt>
<pdfrwt beam="1">  1        1 0.80256373E+00 0.30000000E+03</pdfrwt>
<pdfrwt beam="2">0</pdfrwt>
<totfact> 0.10113143E-03</totfact>
</mgrwt>
<clustering>
<clus scale="   31.854">  1  6  2 -1</clus>
<clus scale="  457.209">  4  5 -1 -1</clus>
<clus scale="  300.000">  1  4  2 -1</clus>
</clustering>
</event>
<event>
 6    1  0.1007353E-011  0.3000000E+03  0.7818608E-02  0.1093470E+00
          1   -1    0    0  502    0  0.00000000000E+00  0.00000000000E+00  0.23508521202E+03  0.23508521202E+03  0.00000000000E+00 0.  1.
         13   -1    0    0    0    0 -0.00000000000E+00 -0.00000000000E+00 -0.27500000000E+03  0.27500000000E+03  0.00000000000E+00 0.  1.
    9000005    2    1    2  501    0  0.30882481722E+01  0.31065647124E+02 -0.47849716748E+02  0.47787380406E+03  0.47444616713E+03 0.  0.
         13    1    3    3    0    0  0.32876128061E+02  0.20043196231E+03  0.12137075797E+03  0.23661080322E+03  0.00000000000E+00 0.  1.
          1    1    3    3  501    0 -0.29787879889E+02 -0.16936631518E+03 -0.16922047472E+03  0.24126300084E+03  0.00000000000E+00 0.  1.
         21    1    1    2  502  501 -0.30882481722E+01 -0.31065647124E+02  0.79349287645E+01  0.32211407956E+02  0.00000000000E+00 0. -1.
<scales pt_clust_4="550.00000" pt_clust_5="550.00000" pt_clust_6="31.21877"></scales>
<mgrwt>
<rscale>  0 0.30000000E+03</rscale>
<asrwt>  1 0.31218772E+02</asrwt>
<pdfrwt beam="1">  1        1 0.85485532E+00 0.30000000E+03</pdfrwt>
<pdfrwt beam="2">0</pdfrwt>
<totfact> 0.37352657E-04</totfact>
</mgrwt>
<clustering>
<clus scale="   31.219">  1  6  2 -1</clus>
<clus scale="  474.446">  4  5 -1 -1</clus>
<clus scale="  300.000">  1  4  2 -1</clus>
</clustering>
</event>
<event>
 6    1  0.1007353E-011  0.3000000E+03  0.7818608E-02  0.1093470E+00
          1   -1    0    0  502    0  0.00000000000E+00  0.00000000000E+00  0.23534093334E+03  0.23534093334E+03  0.00000000000E+00 0.  1.
         13   -1    0    0    0    0 -0.00000000000E+00 -0.00000000000E+00 -0.27500000000E+03  0.27500000000E+03  0.00000000000E+00 0.  1.
    9000005    2    1    2  501    0  0.31320153566E+01 -0.36435956383E+02 -0.44225756459E+02  0.47348658362E+03  0.46999599881E+03 0.  0.
         13    1    3    3    0    0 -0.62194346023E+02  0.12879684535E+03 -0.19405480528E+03  0.24106852035E+03  0.00000000000E+00 0.  1.
          3    1    3    3  501    0  0.65326361380E+02 -0.16523280174E+03  0.14982904882E+03  0.23241806327E+03  0.00000000000E+00 0.  1.
         21    1    1    2  502  501 -0.31320153566E+01  0.36435956383E+02  0.45666897992E+01  0.36854349723E+02  0.00000000000E+00 0. -1.
<scales pt_clust_4="550.00000" pt_clust_5="550.00000" pt_clust_6="36.57032"></scales>
<mgrwt>
<rscale>  0 0.30000000E+03</rscale>
<asrwt>  1 0.36570322E+02</asrwt>
<pdfrwt beam="1">  1        1 0.85578521E+00 0.30000000E+03</pdfrwt>
<pdfrwt beam="2">0</pdfrwt>
<totfact> 0.35490017E-04</totfact>
</mgrwt>
<clustering>
<clus scale="   36.570">  1  6  2 -1</clus>
<clus scale="  469.996">  4  5 -1 -1</clus>
<clus scale="  300.000">  1  4  2 -1</clus>
</clustering>
</event>
<event>
 6    1  0.1007353E-011  0.3000000E+03  0.7818608E-02  0.1093470E+00
          1   -1    0    0  502    0  0.00000000000E+00  0.00000000000E+00  0.22489539061E+03  0.22489539061E+03  0.00000000000E+00 0.  1.
         13   -1    0    0    0    0 -0.00000000000E+00 -0.00000000000E+00 -0.27500000000E+03  0.27500000000E+03  0.00000000000E+00 0.  1.
    9000005    2    1    2  501    0 -0.29074735485E+02  0.98519270317E+01 -0.68219558368E+02  0.46425058613E+03  0.45818369446E+03 0.  0.
         13    1    3    3    0    0 -0.15549168701E+03 -0.15720236326E+03  0.45699766172E+02  0.22578466815E+03  0.00000000000E+00 0.  1.
          3    1    3    3  501    0  0.12641695152E+03  0.16705429029E+03 -0.11391932454E+03  0.23846591798E+03  0.00000000000E+00 0.  1.
         21    1    1    2  502  501  0.29074735485E+02 -0.98519270317E+01  0.18114948980E+02  0.35644804479E+02  0.00000000000E+00 0. -1.
<scales pt_clust_4="550.00000" pt_clust_5="550.00000" pt_clust_6="30.69855"></scales>
<mgrwt>
<rscale>  0 0.30000000E+03</rscale>
<asrwt>  1 0.30698546E+02</asrwt>
<pdfrwt beam="1">  1        1 0.81780142E+00 0.30000000E+03</pdfrwt>
<pdfrwt beam="2">0</pdfrwt>
<totfact> 0.77407479E-04</totfact>
</mgrwt>
<clustering>
<clus scale="   30.699">  1  6  2 -1</clus>
<clus scale="  458.184">  4  5 -1 -1</clus>
<clus scale="  300.000">  1  4  2 -1</clus>
</clustering>
</event>
<event>
 6    1  0.1007353E-011  0.3000000E+03  0.7818608E-02  0.1093470E+00
          1   -1    0    0  502    0  0.00000000000E+00  0.00000000000E+00  0.24561045194E+03  0.24561045194E+03  0.00000000000E+00 0.  1.
         13   -1    0    0    0    0 -0.00000000000E+00 -0.00000000000E+00 -0.27500000000E+03  0.27500000000E+03  0.00000000000E+00 0.  1.
    9000005    2    1    2  501    0 -0.19935925698E+02 -0.27916940369E+02 -0.74159626282E+02  0.46420870909E+03  0.45696091597E+03 0.  0.
         13    1    3    3    0    0 -0.17710181035E+03  0.11570664722E+03  0.50498975961E+02  0.21749304820E+03  0.00000000000E+00 0.  1.
          3    1    3    3  501    0  0.15716588466E+03 -0.14362358759E+03 -0.12465860224E+03  0.24671566088E+03  0.00000000000E+00 0.  1.
         21    1    1    2  502  501  0.19935925698E+02  0.27916940369E+02  0.44770078222E+02  0.56401742854E+02  0.00000000000E+00 0.  1.
<scales pt_clust_4="550.00000" pt_clust_5="550.00000" pt_clust_6="34.30447"></scales>
<mgrwt>
<rscale>  0 0.30000000E+03</rscale>
<asrwt>  1 0.34304470E+02</asrwt>
<pdfrwt beam="1">  1        1 0.89312892E+00 0.30000000E+03</pdfrwt>
<pdfrwt beam="2">0</pdfrwt>
<totfact> 0.13296154E-04</totfact>
</mgrwt>
<clustering>
<clus scale="   34.304">  1  6  2 -1</clus>
<clus scale="  456.961">  4  5 -1 -1</clus>
<clus scale="  300.000">  1  4  2 -1</clus>
</clustering>
</event>
<event>
 6    1  0.1007353E-011  0.3000000E+03  0.7818608E-02  0.1093470E+00
          1   -1    0    0  502    0  0.00000000000E+00  0.00000000000E+00  0.26549558695E+03  0.26549558695E+03  0.00000000000E+00 0.  1.
         13   -1    0    0    0    0 -0.00000000000E+00 -0.00000000000E+00 -0.27500000000E+03  0.27500000000E+03  0.00000000000E+00 0.  1.
    9000005    2    1    2  501    0  0.17479129050E+02  0.25565410785E+02 -0.42003559795E+02  0.49560344153E+03  0.49284821400E+03 0.  0.
         13    1    3    3    0    0 -0.87522016526E+02  0.12034194290E+03 -0.22164223779E+03  0.26695986247E+03  0.00000000000E+00 0.  1.
          1    1    3    3  501    0  0.10500114558E+03 -0.94776532115E+02  0.17963867800E+03  0.22864357906E+03  0.00000000000E+00 0.  1.
         21    1    1    2  502  501 -0.17479129050E+02 -0.25565410785E+02  0.32499146745E+02  0.44892145417E+02  0.00000000000E+00 0. -1.
<scales pt_clust_4="550.00000" pt_clust_5="550.00000" pt_clust_6="30.96950"></scales>
<mgrwt>
<rscale>  0 0.30000000E+03</rscale>
<asrwt>  1 0.30969504E+02</asrwt>
<pdfrwt beam="1">  1        1 0.96543850E+00 0.30000000E+03</pdfrwt>
<pdfrwt beam="2">0</pdfrwt>
<totfact> 0.59815345E-06</totfact>
</mgrwt>
<clustering>
<clus scale="   30.970">  1  6  2 -1</clus>
<clus scale="  492.848">  4  5 -1 -1</clus>
<clus scale="  300.000">  1  4  2 -1</clus>
</clustering>
</event>
<event>
 6    1  0.1007353E-011  0.3000000E+03  0.7818608E-02  0.1093470E+00
          1   -1    0    0  502    0  0.00000000000E+00  0.00000000000E+00  0.23999932497E+03  0.23999932497E+03  0.00000000000E+00 0.  1.
         13   -1    0    0    0    0 -0.00000000000E+00 -0.00000000000E+00 -0.27500000000E+03  0.27500000000E+03  0.00000000000E+00 0.  1.
    9000005    2    1    2  501    0  0.16620625083E+02  0.39860216645E+02 -0.55820688381E+02  0.46705607722E+03  0.46169291522E+03 0.  0.
         13    1    3    3    0    0 -0.22032942042E+03  0.43657971744E+02 -0.49000630588E+01  0.22466660325E+03  0.00000000000E+00 0.  1.
          1    1    3    3  501    0  0.23695004550E+03 -0.37977550995E+01 -0.50920625322E+02  0.24238947397E+03  0.00000000000E+00 0.  1.
         21    1    1    2  502  501 -0.16620625083E+02 -0.39860216645E+02  0.20820013350E+02  0.47943247752E+02  0.00000000000E+00 0. -1.
<scales pt_clust_4="550.00000" pt_clust_5="550.00000" pt_clust_6="43.18660"></scales>
<mgrwt>
<rscale>  0 0.30000000E+03</rscale>
<asrwt>  1 0.43186596E+02</asrwt>
<pdfrwt beam="1">  1        1 0.87272482E+00 0.30000000E+03</pdfrwt>
<pdfrwt beam="2">0</pdfrwt>
<totfact> 0.22853805E-04</totfact>
</mgrwt>
<clustering>
<clus scale="   43.187">  1  6  2 -1</clus>
<clus scale="  461.693">  4  5 -1 -1</clus>
<clus scale="  300.000">  1  4  2 -1</clus>
</clustering>
</event>
<event>
 6    1  0.1007353E-011  0.3000000E+03  0.7818608E-02  0.1093470E+00
          1   -1    0    0  502    0  0.00000000000E+00  0.00000000000E+00  0.26417932923E+03  0.26417932923E+03  0.00000000000E+00 0.  1.
         13   -1    0    0    0    0 -0.00000000000E+00 -0.00000000000E+00 -0.27500000000E+03  0.27500000000E+03  0.00000000000E+00 0.  1.
    9000005    2    1    2  501    0  0.12714756056E+02 -0.46738921212E+02  0.60839907510E+00  0.48941171511E+03  0.48700848551E+03 0.  0.
         13    1    3    3    0    0  0.22687553502E+03  0.56748123774E+02  0.65500989360E+02  0.24286464862E+03  0.00000000000E+00 0.  1.
          1    1    3    3  501    0 -0.21416077896E+03 -0.10348704499E+03 -0.64892590285E+02  0.24654706650E+03  0.00000000000E+00 0.  1.
         21    1    1    2  502  501 -0.12714756056E+02  0.46738921212E+02 -0.11429069843E+02  0.49767614119E+02  0.00000000000E+00 0.  1.
<scales pt_clust_4="550.00000" pt_clust_5="550.00000" pt_clust_6="48.43753"></scales>
<mgrwt>
<rscale>  0 0.30000000E+03</rscale>
<asrwt>  1 0.48437528E+02</asrwt>
<pdfrwt beam="1">  1        1 0.96065211E+00 0.30000000E+03</pdfrwt>
<pdfrwt beam="2">0</pdfrwt>
<totfact> 0.69223877E-06</totfact>
</mgrwt>
<clustering>
<clus scale="   48.438">  1  6  2 -1</clus>
<clus scale="  487.008">  4  5 -1 -1</clus>
<clus scale="  300.000">  1  4  2 -1</clus>
</clustering>
</event>
<event>
 6    1  0.1007353E-011  0.3000000E+03  0.7818608E-02  0.1093470E+00
          1   -1    0    0  502    0  0.00000000000E+00  0.00000000000E+00  0.24781950615E+03  0.24781950615E+03  0.00000000000E+00 0.  1.
         13   -1    0    0    0    0 -0.00000000000E+00 -0.00000000000E+00 -0.27500000000E+03  0.27500000000E+03  0.00000000000E+00 0.  1.
    9000005    2    1    2  501    0 -0.29425744166E+02  0.21651742334E+02 -0.50584336651E+02  0.47943273139E+03  0.47535491630E+03 0.  0.
         13    1    3    3    0    0  0.13273569966E+03 -0.16815283323E+03 -0.78662614667E+02  0.22821469767E+03  0.00000000000E+00 0.  1.
          3    1    3    3  501    0 -0.16216144383E+03  0.18980457557E+03  0.28078278016E+02  0.25121803372E+03  0.00000000000E+00 0.  1.
         21    1    1    2  502  501  0.29425744166E+02 -0.21651742334E+02  0.23403842801E+02  0.43386774755E+02  0.00000000000E+00 0.  1.
<scales pt_clust_4="550.00000" pt_clust_5="550.00000" pt_clust_6="36.53317"></scales>
<mgrwt>
<rscale>  0 0.30000000E+03</rscale>
<asrwt>  1 0.36533168E+02</asrwt>
<pdfrwt beam="1">  1        1 0.90116184E+00 0.30000000E+03</pdfrwt>
<pdfrwt beam="2">0</pdfrwt>
<totfact> 0.10580452E-04</totfact>
</mgrwt>
<clustering>
<clus scale="   36.533">  1  6  2 -1</clus>
<clus scale="  475.355">  4  5 -1 -1</clus>
<clus scale="  300.000">  1  4  2 -1</clus>
</clustering>
</event>
<event>
 6    1  0.1007353E-011  0.3000000E+03  0.7818608E-02  0.1093470E+00
          1   -1    0    0  502    0  0.00000000000E+00  0.00000000000E+00  0.23918289385E+03  0.23918289385E+03  0.00000000000E+00 0.  1.
         13   -1    0    0    0    0 -0.00000000000E+00 -0.00000000000E+00 -0.27500000000E+03  0.27500000000E+03  0.00000000000E+00 0.  1.
    9000005    2    1    2  501    0 -0.37881647634E+02  0.11753329856E+02 -0.62616603175E+02  0.46631460549E+03  0.46038604704E+03 0.  0.
         13    1    3    3    0    0 -0.38410395362E+02 -0.16567865711E+03 -0.18459507343E+03  0.25099824109E+03  0.00000000000E+00 0.  1.
          3    1    3    3  501    0  0.52874772756E+00  0.17743198696E+03  0.12197847026E+03  0.21531636440E+03  0.00000000000E+00 0.  1.
         21    1    1    2  502  501  0.37881647634E+02 -0.11753329856E+02  0.26799497029E+02  0.47868288367E+02  0.00000000000E+00 0.  1.
<scales pt_clust_4="550.00000" pt_clust_5="550.00000" pt_clust_6="39.66308"></scales>
<mgrwt>
<rscale>  0 0.30000000E+03</rscale>
<asrwt>  1 0.39663081E+02</asrwt>
<pdfrwt beam="1">  1        1 0.86975598E+00 0.30000000E+03</pdfrwt>
<pdfrwt beam="2">0</pdfrwt>
<totfact> 0.24888841E-04</totfact>
</mgrwt>
<clustering>
<clus scale="   39.663">  1  6  2 -1</clus>
<clus scale="  460.386">  4  5 -1 -1</clus>
<clus scale="  300.000">  1  4  2 -1</clus>
</clustering>
</event>
<event>
 6    1  0.1007353E-011  0.3000000E+03  0.7818608E-02  0.1093470E+00
          1   -1    0    0  502    0  0.00000000000E+00  0.00000000000E+00  0.23935152889E+03  0.23935152889E+03  0.00000000000E+00 0.  1.
         13   -1    0    0    0    0 -0.00000000000E+00 -0.00000000000E+00 -0.27500000000E+03  0.27500000000E+03  0.00000000000E+00 0.  1.
    9000005    2    1    2  501    0 -0.75229562956E+01  0.31062046232E+02 -0.39270351665E+02  0.48218689604E+03  0.47952121601E+03 0.  0.
         13    1    3    3    0    0  0.33359433597E+02  0.23102602793E+03  0.78838168911E+02  0.24637640770E+03  0.00000000000E+00 0.  1.
          3    1    3    3  501    0 -0.40882389893E+02 -0.19996398170E+03 -0.11810852058E+03  0.23581048834E+03  0.00000000000E+00 0.  1.
         21    1    1    2  502  501  0.75229562956E+01 -0.31062046232E+02  0.36218805525E+01  0.32164632848E+02  0.00000000000E+00 0.  1.
<scales pt_clust_4="550.00000" pt_clust_5="550.00000" pt_clust_6="31.96006"></scales>
<mgrwt>
<rscale>  0 0.30000000E+03</rscale>
<asrwt>  1 0.31960062E+02</asrwt>
<pdfrwt beam="1">  1        1 0.87036920E+00 0.30000000E+03</pdfrwt>
<pdfrwt beam="2">0</pdfrwt>
<totfact> 0.25539985E-04</totfact>
</mgrwt>
<clustering>
<clus scale="   31.960">  1  6  2 -1</clus>
<clus scale="  479.521">  4  5 -1 -1</clus>
<clus scale="  300.000">  1  4  2 -1</clus>
</clustering>
</event>
<event>
 6    1  0.1007353E-011  0.3000000E+03  0.7818608E-02  0.1093470E+00
          1   -1    0    0  502    0  0.00000000000E+00  0.00000000000E+00  0.25266118056E+03  0.25266118056E+03  0.00000000000E+00 0.  1.
         13   -1    0    0    0    0 -0.00000000000E+00 -0.00000000000E+00 -0.27500000000E+03  0.27500000000E+03  0.00000000000E+00 0.  1.
    9000005    2    1    2  501    0 -0.14262090411E+01 -0.30825517673E+02 -0.43098436414E+02  0.49046967200E+03  0.48759694146E+03 0.  0.
         13    1    3    3    0    0 -0.15117115358E+03 -0.19928636694E+03 -0.78824636186E+02  0.26226150497E+03  0.00000000000E+00 0.  1.
          3    1    3    3  501    0  0.14974494453E+03  0.16846084926E+03  0.35726199772E+02  0.22820816703E+03  0.00000000000E+00 0.  1.
         21    1    1    2  502  501  0.14262090411E+01  0.30825517673E+02  0.20759616978E+02  0.37191508562E+02  0.00000000000E+00 0.  1.
<scales pt_clust_4="550.00000" pt_clust_5="550.00000" pt_clust_6="30.85849"></scales>
<mgrwt>
<rscale>  0 0.30000000E+03</rscale>
<asrwt>  1 0.30858493E+02</asrwt>
<pdfrwt beam="1">  1        1 0.91876793E+00 0.30000000E+03</pdfrwt>
<pdfrwt beam="2">0</pdfrwt>
<totfact> 0.45551744E-05</totfact>
</mgrwt>
<clustering>
<clus scale="   30.858">  1  6  2 -1</clus>
<clus scale="  487.597">  4  5 -1 -1</clus>
<clus scale="  300.000">  1  4  2 -1</clus>
</clustering>
</event>
<event>
 6    1  0.1007353E-011  0.3000000E+03  0.7818608E-02  0.1093470E+00
          1   -1    0    0  502    0  0.00000000000E+00  0.00000000000E+00  0.23910688979E+03  0.23910688979E+03  0.00000000000E+00 0.  1.
         13   -1    0    0    0    0 -0.00000000000E+00 -0.00000000000E+00 -0.27500000000E+03  0.27500000000E+03  0.00000000000E+00 0.  1.
    9000005    2    1    2  501    0 -0.44150373552E+02  0.24850486530E+02 -0.21694857000E+02  0.46149137344E+03  0.45818862794E+03 0.  0.
         13    1    3    3    0    0  0.18164572579E+03 -0.47439748379E+02 -0.98843279411E+02  0.21216902061E+03  0.00000000000E+00 0.  1.
          1    1    3    3  501    0 -0.22579609934E+03  0.72290234910E+02  0.77148422411E+02  0.24932235283E+03  0.00000000000E+00 0.  1.
         21    1    1    2  502  501  0.44150373552E+02 -0.24850486530E+02 -0.14198253214E+02  0.52615516342E+02  0.00000000000E+00 0. -1.
<scales pt_clust_4="550.00000" pt_clust_5="550.00000" pt_clust_6="50.66364"></scales>
<mgrwt>
<rscale>  0 0.30000000E+03</rscale>
<asrwt>  1 0.50663643E+02</asrwt>
<pdfrwt beam="1">  1        1 0.86947960E+00 0.30000000E+03</pdfrwt>
<pdfrwt beam="2">0</pdfrwt>
<totfact> 0.23978952E-04</totfact>
</mgrwt>
<clustering>
<clus scale="   50.664">  1  6  2 -1</clus>
<clus scale="  458.189">  4  5 -1 -1</clus>
<clus scale="  300.000">  1  4  2 -1</clus>
</clustering>
</event>
<event>
 6    1  0.1007353E-011  0.3000000E+03  0.7818608E-02  0.1093470E+00
          1   -1    0    0  502    0  0.00000000000E+00  0.00000000000E+00  0.23742369389E+03  0.23742369389E+03  0.00000000000E+00 0.  1.
         13   -1    0    0    0    0 -0.00000000000E+00 -0.00000000000E+00 -0.27500000000E+03  0.27500000000E+03  0.00000000000E+00 0.  1.
    9000005    2    1    2  501    0  0.94893921392E+01 -0.32127221043E+02 -0.66740690688E+02  0.46800783836E+03  0.46201169907E+03 0.  0.
         13    1    3    3    0    0  0.15815885117E+03  0.53303837801E+02  0.12667644043E+03  0.20952909557E+03  0.00000000000E+00 0.  1.
          1    1    3    3  501    0 -0.14866945903E+03 -0.85431058844E+02 -0.19341713112E+03  0.25847874279E+03  0.00000000000E+00 0.  1.
         21    1    1    2  502  501 -0.94893921392E+01  0.32127221043E+02  0.29164384578E+02  0.44415855535E+02  0.00000000000E+00 0.  1.
<scales pt_clust_4="550.00000" pt_clust_5="550.00000" pt_clust_6="33.49936"></scales>
<mgrwt>
<rscale>  0 0.30000000E+03</rscale>
<asrwt>  1 0.33499357E+02</asrwt>
<pdfrwt beam="1">  1        1 0.86335889E+00 0.30000000E+03</pdfrwt>
<pdfrwt beam="2">0</pdfrwt>
<totfact> 0.30006138E-04</totfact>
</mgrwt>
<clustering>
<clus scale="   33.499">  1  6  2 -1</clus>
<clus scale="  462.012">  4  5 -1 -1</clus>
<clus scale="  300.000">  1  4  2 -1</clus>
</clustering>
</event>
<event>
 6    1  0.1007353E-011  0.3000000E+03  0.7818608E-02  0.1093470E+00
          1   -1    0    0  502    0  0.00000000000E+00  0.00000000000E+00  0.25027378697E+03  0.25027378697E+03  0.00000000000E+00 0.  1.
         13   -1    0    0    0    0 -0.00000000000E+00 -0.00000000000E+00 -0.27500000000E+03  0.27500000000E+03  0.00000000000E+00 0.  1.
    9000005    2    1    2  501    0 -0.26474514008E+01 -0.39026645720E+02 -0.72596587317E+02  0.46345420424E+03  0.45605860025E+03 0.  0.
         13    1    3    3    0    0 -0.11299389021E+03  0.41663290135E+02 -0.22716182697E+03  0.25711076330E+03  0.00000000000E+00 0.  1.
          1    1    3    3  501    0  0.11034643881E+03 -0.80689935855E+02  0.15456523966E+03  0.20634344094E+03  0.00000000000E+00 0.  1.
         21    1    1    2  502  501  0.26474514008E+01  0.39026645720E+02  0.47870374287E+02  0.61819582735E+02  0.00000000000E+00 0.  1.
<scales pt_clust_4="550.00000" pt_clust_5="550.00000" pt_clust_6="39.11634"></scales>
<mgrwt>
<rscale>  0 0.30000000E+03</rscale>
<asrwt>  1 0.39116340E+02</asrwt>
<pdfrwt beam="1">  1        1 0.91008650E+00 0.30000000E+03</pdfrwt>
<pdfrwt beam="2">0</pdfrwt>
<totfact> 0.70053749E-05</totfact>
</mgrwt>
<clustering>
<clus scale="   39.116">  1  6  2 -1</clus>
<clus scale="  456.059">  4  5 -1 -1</clus>
<clus scale="  300.000">  1  4  2 -1</clus>
</clustering>
</event>
<event>
 6    1  0.1007353E-011  0.3000000E+03  0.7818608E-02  0.1093470E+00
          1   -1    0    0  502    0  0.00000000000E+00  0.00000000000E+00  0.23902477051E+03  0.23902477051E+03  0.00000000000E+00 0.  1.
         13   -1    0    0    0    0 -0.00000000000E+00 -0.00000000000E+00 -0.27500000000E+03  0.27500000000E+03  0.00000000000E+00 0.  1.
    9000005    2    1    2  501    0 -0.26015417493E+01  0.31051628249E+02 -0.66390857452E+02  0.47048074611E+03  0.46472939962E+03 0.  0.
         13    1    3    3    0    0 -0.21846097521E+03  0.91289606493E+02 -0.68101812922E+02  0.24636730072E+03  0.00000000000E+00 0.  1.
          3    1    3    3  501    0  0.21585943346E+03 -0.60237978244E+02  0.17109554707E+01  0.22411344539E+03  0.00000000000E+00 0.  1.
         21    1    1    2  502  501  0.26015417493E+01 -0.31051628249E+02  0.30415627957E+02  0.43544024394E+02  0.00000000000E+00 0.  1.
<scales pt_clust_4="550.00000" pt_clust_5="550.00000" pt_clust_6="31.16042"></scales>
<mgrwt>
<rscale>  0 0.30000000E+03</rscale>
<asrwt>  1 0.31160418E+02</asrwt>
<pdfrwt beam="1">  1        1 0.86918098E+00 0.30000000E+03</pdfrwt>
<pdfrwt beam="2">0</pdfrwt>
<totfact> 0.26392915E-04</totfact>
</mgrwt>
<clustering>
<clus scale="   31.160">  1  6  2 -1</clus>
<clus scale="  464.729">  4  5 -1 -1</clus>
<clus scale="  300.000">  1  4  2 -1</clus>
</clustering>
</event>
<event>
 6    1  0.1007353E-011  0.3000000E+03  0.7818608E-02  0.1093470E+00
          1   -1    0    0  502    0  0.00000000000E+00  0.00000000000E+00  0.23026727762E+03  0.23026727762E+03  0.00000000000E+00 0.  1.
         13   -1    0    0    0    0 -0.00000000000E+00 -0.00000000000E+00 -0.27500000000E+03  0.27500000000E+03  0.00000000000E+00 0.  1.
    9000005    2    1    2  501    0 -0.31405420653E+02  0.16469448429E+01 -0.18199078762E+02  0.46412062384E+03  0.46269615747E+03 0.  0.
         13    1    3    3    0    0  0.10071931574E+03 -0.16475097209E+03 -0.12121335304E+03  0.22799109703E+03  0.00000000000E+00 0.  1.
          1    1    3    3  501    0 -0.13212473639E+03  0.16639791693E+03  0.10301427428E+03  0.23612952681E+03  0.00000000000E+00 0.  1.
         21    1    1    2  502  501  0.31405420653E+02 -0.16469448429E+01 -0.26533643617E+02  0.41146653780E+02  0.00000000000E+00 0.  1.
<scales pt_clust_4="550.00000" pt_clust_5="550.00000" pt_clust_6="31.44859"></scales>
<mgrwt>
<rscale>  0 0.30000000E+03</rscale>
<asrwt>  1 0.31448591E+02</asrwt>
<pdfrwt beam="1">  1        1 0.83733555E+00 0.30000000E+03</pdfrwt>
<pdfrwt beam="2">0</pdfrwt>
<totfact> 0.53087891E-04</totfact>
</mgrwt>
<clustering>
<clus scale="   31.449">  1  6  2 -1</clus>
<clus scale="  462.696">  4  5 -1 -1</clus>
<clus scale="  300.000">  1  4  2 -1</clus>
</clustering>
</event>
<event>
 6    1  0.1007353E-011  0.3000000E+03  0.7818608E-02  0.1093470E+00
          1   -1    0    0  502    0  0.00000000000E+00  0.00000000000E+00  0.22309557133E+03  0.22309557133E+03  0.00000000000E+00 0.  1.
         13   -1    0    0    0    0 -0.00000000000E+00 -0.00000000000E+00 -0.27500000000E+03  0.27500000000E+03  0.00000000000E+00 0.  1.
    9000005    2    1    2  501    0 -0.34026481995E+02  0.24919533807E+01 -0.63836650510E+02  0.46195156454E+03  0.45624567804E+03 0.  0.
         13    1    3    3    0    0  0.34433328028E+01  0.17345973532E+03  0.11780237777E+03  0.20970821760E+03  0.00000000000E+00 0.  1.
          1    1    3    3  501    0 -0.37469814797E+02 -0.17096778194E+03 -0.18163902828E+03  0.25224334695E+03  0.00000000000E+00 0.  1.
         21    1    1    2  502  501  0.34026481995E+02 -0.24919533807E+01  0.11932221839E+02  0.36144006787E+02  0.00000000000E+00 0.  1.
<scales pt_clust_4="550.00000" pt_clust_5="550.00000" pt_clust_6="34.11761"></scales>
<mgrwt>
<rscale>  0 0.30000000E+03</rscale>
<asrwt>  1 0.34117610E+02</asrwt>
<pdfrwt beam="1">  1        1 0.81125662E+00 0.30000000E+03</pdfrwt>
<pdfrwt beam="2">0</pdfrwt>
<totfact> 0.85670663E-04</totfact>
</mgrwt>
<clustering>
<clus scale="   34.118">  1  6  2 -1</clus>
<clus scale="  456.246">  4  5 -1 -1</clus>
<clus scale="  300.000">  1  4  2 -1</clus>
</clustering>
</event>
<event>
 6    1  0.1007353E-011  0.3000000E+03  0.7818608E-02  0.1093470E+00
          1   -1    0    0  502    0  0.00000000000E+00  0.00000000000E+00  0.24276126944E+03  0.24276126944E+03  0.00000000000E+00 0.  1.
         13   -1    0    0    0    0 -0.00000000000E+00 -0.00000000000E+00 -0.27500000000E+03  0.27500000000E+03  0.00000000000E+00 0.  1.
    9000005    2    1    2  501    0  0.29227368706E+02  0.14446065511E+02 -0.75602048819E+02  0.46350903206E+03  0.45613816451E+03 0.  0.
         13    1    3    3    0    0  0.14820653381E+03  0.95952519473E+02 -0.20443752147E+03  0.27012360660E+03  0.00000000000E+00 0.  1.
          3    1    3    3  501    0 -0.11897916510E+03 -0.81506453962E+02  0.12883547265E+03  0.19338542546E+03  0.00000000000E+00 0.  1.
         21    1    1    2  502  501 -0.29227368706E+02 -0.14446065511E+02  0.43363318260E+02  0.54252237381E+02  0.00000000000E+00 0. -1.
<scales pt_clust_4="550.00000" pt_clust_5="550.00000" pt_clust_6="32.60257"></scales>
<mgrwt>
<rscale>  0 0.30000000E+03</rscale>
<asrwt>  1 0.32602575E+02</asrwt>
<pdfrwt beam="1">  1        1 0.88276825E+00 0.30000000E+03</pdfrwt>
<pdfrwt beam="2">0</pdfrwt>
<totfact> 0.18434346E-04</totfact>
</mgrwt>
<clustering>
<clus scale="   32.603">  1  6  2 -1</clus>
<clus scale="  456.138">  4  5 -1 -1</clus>
<clus scale="  300.000">  1  4  2 -1</clus>
</clustering>
</event>
<event>
 6    1  0.1007353E-011  0.3000000E+03  0.7818608E-02  0.1093470E+00
          1   -1    0    0  502    0  0.00000000000E+00  0.00000000000E+00  0.23325497278E+03  0.23325497278E+03  0.00000000000E+00 0.  1.
         13   -1    0    0    0    0 -0.00000000000E+00 -0.00000000000E+00 -0.27500000000E+03  0.27500000000E+03  0.00000000000E+00 0.  1.
    9000005    2    1    2  501    0  0.29696502725E+02  0.57129251217E+01 -0.52680493727E+02  0.47609748197E+03  0.47220658416E+03 0.  0.
         13    1    3    3    0    0 -0.18668038391E+03  0.12405825678E+03 -0.49036881305E+02  0.22944418175E+03  0.00000000000E+00 0.  1.
          1    1    3    3  501    0  0.21637688664E+03 -0.11834533165E+03 -0.36436124214E+01  0.24665330021E+03  0.00000000000E+00 0.  1.
         21    1    1    2  502  501 -0.29696502725E+02 -0.57129251217E+01  0.10935466505E+02  0.32157490811E+02  0.00000000000E+00 0.  1.
<scales pt_clust_4="550.00000" pt_clust_5="550.00000" pt_clust_6="30.24103"></scales>
<mgrwt>
<rscale>  0 0.30000000E+03</rscale>
<asrwt>  1 0.30241028E+02</asrwt>
<pdfrwt beam="1">  1        1 0.84819990E+00 0.30000000E+03</pdfrwt>
<pdfrwt beam="2">0</pdfrwt>
<totfact> 0.43483494E-04</totfact>
</mgrwt>
<clustering>
<clus scale="   30.241">  1  6  2 -1</clus>
<clus scale="  472.207">  4  5 -1 -1</clus>
<clus scale="  300.000">  1  4  2 -1</clus>
</clustering>
</event>
<event>
 6    1  0.1007353E-011  0.3000000E+03  0.7818608E-02  0.1093470E+00
          1   -1    0    0  502    0  0.00000000000E+00  0.00000000000E+00  0.23829526061E+03  0.23829526061E+03  0.00000000000E+00 0.  1.
         13   -1    0    0    0    0 -0.00000000000E+00 -0.00000000000E+00 -0.27500000000E+03  0.27500000000E+03  0.00000000000E+00 0.  1.
    9000005    2    1    2  501    0 -0.22605793916E+02  0.34889755172E+02 -0.22044014650E+02  0.46921290831E+03  0.46684740313E+03 0.  0.
         13    1    3    3    0    0  0.20507598390E+03  0.46664233502E+01 -0.97951132311E+02  0.22731554940E+03  0.00000000000E+00 0.  1.
          1    1    3    3  501    0 -0.22768177781E+03  0.30223331821E+02  0.75907117661E+02  0.24189735891E+03  0.00000000000E+00 0.  1.
         21    1    1    2  502  501  0.22605793916E+02 -0.34889755172E+02 -0.14660724740E+02  0.44082352301E+02  0.00000000000E+00 0. -1.
<scales pt_clust_4="550.00000" pt_clust_5="550.00000" pt_clust_6="41.57305"></scales>
<mgrwt>
<rscale>  0 0.30000000E+03</rscale>
<asrwt>  1 0.41573052E+02</asrwt>
<pdfrwt beam="1">  1        1 0.86652822E+00 0.30000000E+03</pdfrwt>
<pdfrwt beam="2">0</pdfrwt>
<totfact> 0.26657341E-04</totfact>
</mgrwt>
<clustering>
<clus scale="   41.573">  1  6  2 -1</clus>
<clus scale="  466.847">  4  5 -1 -1</clus>
<clus scale="  300.000">  1  4  2 -1</clus>
</clustering>
</event>
<event>
 6    1  0.1007353E-011  0.3000000E+03  0.7818608E-02  0.1093470E+00
          1   -1    0    0  502    0  0.00000000000E+00  0.00000000000E+00  0.23185129788E+03  0.23185129788E+03  0.00000000000E+00 0.  1.
         13   -1    0    0    0    0 -0.00000000000E+00 -0.00000000000E+00 -0.27500000000E+03  0.27500000000E+03  0.00000000000E+00 0.  1.
    9000005    2    1    2  501    0 -0.31540911428E+02 -0.25227764078E+02 -0.32957906189E+02  0.46519650829E+03  0.46226648004E+03 0.  0.
         13    1    3    3    0    0  0.24455259968E+02  0.55621576147E+02  0.20175837286E+03  0.21070894734E+03  0.00000000000E+00 0.  1.
          1    1    3    3  501    0 -0.55996171397E+02 -0.80849340224E+02 -0.23471627904E+03  0.25448756094E+03  0.00000000000E+00 0.  1.
         21    1    1    2  502  501  0.31540911428E+02  0.25227764078E+02 -0.10190795935E+02  0.41654789591E+02  0.00000000000E+00 0.  1.
<scales pt_clust_4="550.00000" pt_clust_5="550.00000" pt_clust_6="40.38899"></scales>
<mgrwt>
<rscale>  0 0.30000000E+03</rscale>
<asrwt>  1 0.40388994E+02</asrwt>
<pdfrwt beam="1">  1        1 0.84309563E+00 0.30000000E+03</pdfrwt>
<pdfrwt beam="2">0</pdfrwt>
<totfact> 0.45693278E-04</totfact>
</mgrwt>
<clustering>
<clus scale="   40.389">  1  6  2 -1</clus>
<clus scale="  462.266">  4  5 -1 -1</clus>
<clus scale="  300.000">  1  4  2 -1</clus>
</clustering>
</event>
<event>
 6    1  0.1007353E-011  0.3000000E+03  0.7818608E-02  0.1093470E+00
          1   -1    0    0  502    0  0.00000000000E+00  0.00000000000E+00  0.23996852037E+03  0.23996852037E+03  0.00000000000E+00 0.  1.
         13   -1    0    0    0    0 -0.00000000000E+00 -0.00000000000E+00 -0.27500000000E+03  0.27500000000E+03  0.00000000000E+00 0.  1.
    9000005    2    1    2  501    0 -0.29031560137E+02 -0.30957568319E+02 -0.49761826961E+02  0.47004429915E+03  0.46547201980E+03 0.  0.
         13    1    3    3    0    0  0.26471533079E+02 -0.66410426776E+02 -0.24959818314E+03  0.25963501280E+03  0.00000000000E+00 0.  1.
          1    1    3    3  501    0 -0.55503093216E+02  0.35452858457E+02  0.19983635618E+03  0.21040928634E+03  0.00000000000E+00 0.  1.
         21    1    1    2  502  501  0.29031560137E+02  0.30957568319E+02  0.14730347336E+02  0.44924221227E+02  0.00000000000E+00 0.  1.
<scales pt_clust_4="550.00000" pt_clust_5="550.00000" pt_clust_6="42.44058"></scales>
<mgrwt>
<rscale>  0 0.30000000E+03</rscale>
<asrwt>  1 0.42440576E+02</asrwt>
<pdfrwt beam="1">  1        1 0.87261280E+00 0.30000000E+03</pdfrwt>
<pdfrwt beam="2">0</pdfrwt>
<totfact> 0.22986462E-04</totfact>
</mgrwt>
<clustering>
<clus scale="   42.441">  1  6  2 -1</clus>
<clus scale="  465.472">  4  5 -1 -1</clus>
<clus scale="  300.000">  1  4  2 -1</clus>
</clustering>
</event>
<event>
 6    1  0.1007353E-011  0.3000000E+03  0.7818608E-02  0.1093470E+00
          1   -1    0    0  502    0  0.00000000000E+00  0.00000000000E+00  0.24222803211E+03  0.24222803211E+03  0.00000000000E+00 0.  1.
         13   -1    0    0    0    0 -0.00000000000E+00 -0.00000000000E+00 -0.27500000000E+03  0.27500000000E+03  0.00000000000E+00 0.  1.
    9000005    2    1    2  501    0 -0.11922634878E+02 -0.36554466125E+02 -0.64484016417E+02  0.46738796552E+03  0.46131870081E+03 0.  0.
         13    1    3    3    0    0 -0.20837960114E+03  0.66015404097E+02 -0.10433833053E+03  0.24221184728E+03  0.00000000000E+00 0.  1.
          3    1    3    3  501    0  0.19645696626E+03 -0.10256987022E+03  0.39854314109E+02  0.22517611823E+03  0.00000000000E+00 0.  1.
         21    1    1    2  502  501  0.11922634878E+02  0.36554466125E+02  0.31712048526E+02  0.49840066591E+02  0.00000000000E+00 0. -1.
<scales pt_clust_4="550.00000" pt_clust_5="550.00000" pt_clust_6="38.44968"></scales>
<mgrwt>
<rscale>  0 0.30000000E+03</rscale>
<asrwt>  1 0.38449684E+02</asrwt>
<pdfrwt beam="1">  1        1 0.88082921E+00 0.30000000E+03</pdfrwt>
<pdfrwt beam="2">0</pdfrwt>
<totfact> 0.18939854E-04</totfact>
</mgrwt>
<clustering>
<clus scale="   38.450">  1  6  2 -1</clus>
<clus scale="  461.319">  4  5 -1 -1</clus>
<clus scale="  300.000">  1  4  2 -1</clus>
</clustering>
</event>
<event>
 6    1  0.1007353E-011  0.3000000E+03  0.7818608E-02  0.1093470E+00
          1   -1    0    0  502    0  0.00000000000E+00  0.00000000000E+00  0.25249711396E+03  0.25249711396E+03  0.00000000000E+00 0.  1.
         13   -1    0    0    0    0 -0.00000000000E+00 -0.00000000000E+00 -0.27500000000E+03  0.27500000000E+03  0.00000000000E+00 0.  1.
    9000005    2    1    2  501    0  0.35635630107E+02 -0.17264358080E+02 -0.40771422769E+02  0.48388867869E+03  0.48053926817E+03 0.  0.
         13    1    3    3    0    0  0.15141217355E+03 -0.16130614272E+03  0.10842558519E+03  0.24637659285E+03  0.00000000000E+00 0.  1.
          1    1    3    3  501    0 -0.11577654344E+03  0.14404178464E+03 -0.14919700796E+03  0.23751208584E+03  0.00000000000E+00 0.  1.
         21    1    1    2  502  501 -0.35635630107E+02  0.17264358080E+02  0.18268536733E+02  0.43608435278E+02  0.00000000000E+00 0. -1.
<scales pt_clust_4="550.00000" pt_clust_5="550.00000" pt_clust_6="39.59743"></scales>
<mgrwt>
<rscale>  0 0.30000000E+03</rscale>
<asrwt>  1 0.39597427E+02</asrwt>
<pdfrwt beam="1">  1        1 0.91817132E+00 0.30000000E+03</pdfrwt>
<pdfrwt beam="2">0</pdfrwt>
<totfact> 0.44820243E-05</totfact>
</mgrwt>
<clustering>
<clus scale="   39.597">  1  6  2 -1</clus>
<clus scale="  480.539">  4  5 -1 -1</clus>
<clus scale="  300.000">  1  4  2 -1</clus>
</clustering>
</event>
<event>
 6    1  0.1007353E-011  0.3000000E+03  0.7818608E-02  0.1093470E+00
          1   -1    0    0  502    0  0.00000000000E+00  0.00000000000E+00  0.23301655310E+03  0.23301655310E+03  0.00000000000E+00 0.  1.
         13   -1    0    0    0    0 -0.00000000000E+00 -0.00000000000E+00 -0.27500000000E+03  0.27500000000E+03  0.00000000000E+00 0.  1.
    9000005    2    1    2  501    0 -0.36367943657E+02  0.45818742110E+01 -0.53342828128E+02  0.46964134705E+03  0.46516009787E+03 0.  0.
         13    1    3    3    0    0  0.64824135243E+02 -0.12249947641E+03  0.15338384905E+03  0.20672420124E+03  0.00000000000E+00 0.  1.
          1    1    3    3  501    0 -0.10119207890E+03  0.12708135062E+03 -0.20672667718E+03  0.26291714581E+03  0.00000000000E+00 0.  1.
         21    1    1    2  502  501  0.36367943657E+02 -0.45818742110E+01  0.11359381228E+02  0.38375206045E+02  0.00000000000E+00 0.  1.
<scales pt_clust_4="550.00000" pt_clust_5="550.00000" pt_clust_6="36.65543"></scales>
<mgrwt>
<rscale>  0 0.30000000E+03</rscale>
<asrwt>  1 0.36655435E+02</asrwt>
<pdfrwt beam="1">  1        1 0.84733292E+00 0.30000000E+03</pdfrwt>
<pdfrwt beam="2">0</pdfrwt>
<totfact> 0.42702881E-04</totfact>
</mgrwt>
<clustering>
<clus scale="   36.655">  1  6  2 -1</clus>
<clus scale="  465.160">  4  5 -1 -1</clus>
<clus scale="  300.000">  1  4  2 -1</clus>
</clustering>
</event>
<event>
 6    1  0.1007353E-011  0.3000000E+03  0.7818608E-02  0.1093470E+00
          1   -1    0    0  502    0  0.00000000000E+00  0.00000000000E+00  0.23060757117E+03  0.23060757117E+03  0.00000000000E+00 0.  1.
         13   -1    0    0    0    0 -0.00000000000E+00 -0.00000000000E+00 -0.27500000000E+03  0.27500000000E+03  0.00000000000E+00 0.  1.
    9000005    2    1    2  501    0  0.29655192269E+02 -0.93198250686E+01 -0.67215272930E+02  0.46704370492E+03  0.46113516437E+03 0.  0.
         13    1    3    3    0    0  0.16188087256E+03 -0.17730953129E+03  0.85115059398E+01  0.24024265341E+03  0.00000000000E+00 0.  1.
          3    1    3    3  501    0 -0.13222568029E+03  0.16798970622E+03 -0.75726778870E+02  0.22680105150E+03  0.00000000000E+00 0.  1.
         21    1    1    2  502  501 -0.29655192269E+02  0.93198250686E+01  0.22822844105E+02  0.38563866259E+02  0.00000000000E+00 0.  1.
<scales pt_clust_4="550.00000" pt_clust_5="550.00000" pt_clust_6="31.08520"></scales>
<mgrwt>
<rscale>  0 0.30000000E+03</rscale>
<asrwt>  1 0.31085199E+02</asrwt>
<pdfrwt beam="1">  1        1 0.83857299E+00 0.30000000E+03</pdfrwt>
<pdfrwt beam="2">0</pdfrwt>
<totfact> 0.52104983E-04</totfact>
</mgrwt>
<clustering>
<clus scale="   31.085">  1  6  2 -1</clus>
<clus scale="  461.135">  4  5 -1 -1</clus>
<clus scale="  300.000">  1  4  2 -1</clus>
</clustering>
</event>
<event>
 6    1  0.1007353E-011  0.3000000E+03  0.7818608E-02  0.1093470E+00
          1   -1    0    0  502    0  0.00000000000E+00  0.00000000000E+00  0.22141335969E+03  0.22141335969E+03  0.00000000000E+00 0.  1.
         13   -1    0    0    0    0 -0.00000000000E+00 -0.00000000000E+00 -0.27500000000E+03  0.27500000000E+03  0.00000000000E+00 0.  1.
    9000005    2    1    2  501    0  0.15063514719E+02  0.28460606562E+02 -0.55963511467E+02  0.46412458272E+03  0.45961157304E+03 0.  0.
         13    1    3    3    0    0 -0.14028222197E+03 -0.15422252526E+03 -0.79601830828E+02  0.22315945100E+03  0.00000000000E+00 0.  1.
          3    1    3    3  501    0  0.15534573669E+03  0.18268313183E+03  0.23638319360E+02  0.24096513172E+03  0.00000000000E+00 0.  1.
         21    1    1    2  502  501 -0.15063514719E+02 -0.28460606562E+02  0.23768711553E+01  0.32288776967E+02  0.00000000000E+00 0. -1.
<scales pt_clust_4="550.00000" pt_clust_5="550.00000" pt_clust_6="32.20117"></scales>
<mgrwt>
<rscale>  0 0.30000000E+03</rscale>
<asrwt>  1 0.32201174E+02</asrwt>
<pdfrwt beam="1">  1        1 0.80513949E+00 0.30000000E+03</pdfrwt>
<pdfrwt beam="2">0</pdfrwt>
<totfact> 0.96568196E-04</totfact>
</mgrwt>
<clustering>
<clus scale="   32.201">  1  6  2 -1</clus>
<clus scale="  459.612">  4  5 -1 -1</clus>
<clus scale="  300.000">  1  4  2 -1</clus>
</clustering>
</event>
<event>
 6    1  0.1007353E-011  0.3000000E+03  0.7818608E-02  0.1093470E+00
          1   -1    0    0  502    0  0.00000000000E+00  0.00000000000E+00  0.23307890523E+03  0.23307890523E+03  0.00000000000E+00 0.  1.
         13   -1    0    0    0    0 -0.00000000000E+00 -0.00000000000E+00 -0.27500000000E+03  0.27500000000E+03  0.00000000000E+00 0.  1.
    9000005    2    1    2  501    0 -0.23041089220E+02  0.30746204636E+02 -0.53379655614E+02  0.46798502155E+03  0.46334044921E+03 0.  0.
         13    1    3    3    0    0  0.13697196464E+03 -0.95253202650E+02  0.11590838902E+03  0.20314833584E+03  0.00000000000E+00 0.  1.
          3    1    3    3  501    0 -0.16001305386E+03  0.12599940729E+03 -0.16928804463E+03  0.26483668571E+03  0.00000000000E+00 0.  1.
         21    1    1    2  502  501  0.23041089220E+02 -0.30746204636E+02  0.11458560846E+02  0.40093883681E+02  0.00000000000E+00 0. -1.
<scales pt_clust_4="550.00000" pt_clust_5="550.00000" pt_clust_6="38.42162"></scales>
<mgrwt>
<rscale>  0 0.30000000E+03</rscale>
<asrwt>  1 0.38421620E+02</asrwt>
<pdfrwt beam="1">  1        1 0.84755966E+00 0.30000000E+03</pdfrwt>
<pdfrwt beam="2">0</pdfrwt>
<totfact> 0.42133179E-04</totfact>
</mgrwt>
<clustering>
<clus scale="   38.422">  1  6  2 -1</clus>
<clus scale="  463.340">  4  5 -1 -1</clus>
<clus scale="  300.000">  1  4  2 -1</clus>
</clustering>
</event>
<event>
 6    1  0.1007353E-011  0.3000000E+03  0.7818608E-02  0.1093470E+00
          1   -1    0    0  502    0  0.00000000000E+00  0.00000000000E+00  0.23691074004E+03  0.23691074004E+03  0.00000000000E+00 0.  1.
         13   -1    0    0    0    0 -0.00000000000E+00 -0.00000000000E+00 -0.27500000000E+03  0.27500000000E+03  0.00000000000E+00 0.  1.
    9000005    2    1    2  501    0 -0.69658402303E+01  0.41838295105E+02 -0.62259032544E+02  0.46309328646E+03  0.45692476291E+03 0.  0.
         13    1    3    3    0    0 -0.21957383653E+03 -0.42252573198E+02  0.84897884589E+01  0.22376332617E+03  0.00000000000E+00 0.  1.
          3    1    3    3  501    0  0.21260799630E+03  0.84090868303E+02 -0.70748821003E+02  0.23932996029E+03  0.00000000000E+00 0.  1.
         21    1    1    2  502  501  0.69658402303E+01 -0.41838295105E+02  0.24169772589E+02  0.48817453584E+02  0.00000000000E+00 0. -1.
<scales pt_clust_4="550.00000" pt_clust_5="550.00000" pt_clust_6="42.41422"></scales>
<mgrwt>
<rscale>  0 0.30000000E+03</rscale>
<asrwt>  1 0.42414218E+02</asrwt>
<pdfrwt beam="1">  1        1 0.86149360E+00 0.30000000E+03</pdfrwt>
<pdfrwt beam="2">0</pdfrwt>
<totfact> 0.30093135E-04</totfact>
</mgrwt>
<clustering>
<clus scale="   42.414">  1  6  2 -1</clus>
<clus scale="  456.925">  4  5 -1 -1</clus>
<clus scale="  300.000">  1  4  2 -1</clus>
</clustering>
</event>
<event>
 6    1  0.1007353E-011  0.3000000E+03  0.7818608E-02  0.1093470E+00
          1   -1    0    0  502    0  0.00000000000E+00  0.00000000000E+00  0.23302697424E+03  0.23302697424E+03  0.00000000000E+00 0.  1.
         13   -1    0    0    0    0 -0.00000000000E+00 -0.00000000000E+00 -0.27500000000E+03  0.27500000000E+03  0.00000000000E+00 0.  1.
    9000005    2    1    2  501    0  0.32882563824E+01 -0.37312783681E+02 -0.48520460831E+02  0.47000164897E+03  0.46598740161E+03 0.  0.
         13    1    3    3    0    0 -0.18059497605E+03 -0.16419383461E+03 -0.26126202791E+02  0.24547248149E+03  0.00000000000E+00 0.  1.
          1    1    3    3  501    0  0.18388323243E+03  0.12688105093E+03 -0.22394258040E+02  0.22452916747E+03  0.00000000000E+00 0.  1.
         21    1    1    2  502  501 -0.32882563824E+01  0.37312783681E+02  0.65474350709E+01  0.38025325273E+02  0.00000000000E+00 0.  1.
<scales pt_clust_4="550.00000" pt_clust_5="550.00000" pt_clust_6="37.45740"></scales>
<mgrwt>
<rscale>  0 0.30000000E+03</rscale>
<asrwt>  1 0.37457395E+02</asrwt>
<pdfrwt beam="1">  1        1 0.84737082E+00 0.30000000E+03</pdfrwt>
<pdfrwt beam="2">0</pdfrwt>
<totfact> 0.42498479E-04</totfact>
</mgrwt>
<clustering>
<clus scale="   37.457">  1  6  2 -1</clus>
<clus scale="  465.987">  4  5 -1 -1</clus>
<clus scale="  300.000">  1  4  2 -1</clus>
</clustering>
</event>
<event>
 6    1  0.1007353E-011  0.3000000E+03  0.7818608E-02  0.1093470E+00
          1   -1    0    0  502    0  0.00000000000E+00  0.00000000000E+00  0.24545200517E+03  0.24545200517E+03  0.00000000000E+00 0.  1.
         13   -1    0    0    0    0 -0.00000000000E+00 -0.00000000000E+00 -0.27500000000E+03  0.27500000000E+03  0.00000000000E+00 0.  1.
    9000005    2    1    2  501    0 -0.14196353684E+01  0.36890071372E+02 -0.21765065413E+02  0.48272314724E+03  0.48081704013E+03 0.  0.
         13    1    3    3    0    0  0.64475055171E+02 -0.10957760887E+03  0.18278563409E+03  0.22265415589E+03  0.00000000000E+00 0.  1.
          1    1    3    3  501    0 -0.65894690540E+02  0.14646768024E+03 -0.20455069950E+03  0.26006899135E+03  0.00000000000E+00 0.  1.
         21    1    1    2  502  501  0.14196353684E+01 -0.36890071372E+02 -0.77829294153E+01  0.37728857930E+02  0.00000000000E+00 0. -1.
<scales pt_clust_4="550.00000" pt_clust_5="550.00000" pt_clust_6="36.91740"></scales>
<mgrwt>
<rscale>  0 0.30000000E+03</rscale>
<asrwt>  1 0.36917396E+02</asrwt>
<pdfrwt beam="1">  1        1 0.89255275E+00 0.30000000E+03</pdfrwt>
<pdfrwt beam="2">0</pdfrwt>
<totfact> 0.13323284E-04</totfact>
</mgrwt>
<clustering>
<clus scale="   36.917">  1  6  2 -1</clus>
<clus scale="  480.817">  4  5 -1 -1</clus>
<clus scale="  300.000">  1  4  2 -1</clus>
</clustering>
</event>
<event>
 6    1  0.1007353E-011  0.3000000E+03  0.7818608E-02  0.1093470E+00
          1   -1    0    0  502    0  0.00000000000E+00  0.00000000000E+00  0.23404596861E+03  0.23404596861E+03  0.00000000000E+00 0.  1.
         13   -1    0    0    0    0 -0.00000000000E+00 -0.00000000000E+00 -0.27500000000E+03  0.27500000000E+03  0.00000000000E+00 0.  1.
    9000005    2    1    2  501    0  0.11914160115E+02 -0.30228810206E+02 -0.58346901945E+02  0.47219165918E+03  0.46744504902E+03 0.  0.
         13    1    3    3    0    0 -0.23220480132E+02  0.33135143100E+02  0.19991023862E+03  0.20396380049E+03  0.00000000000E+00 0.  1.
          3    1    3    3  501    0  0.35134640247E+02 -0.63363953306E+02 -0.25825714056E+03  0.26822785869E+03  0.00000000000E+00 0.  1.
         21    1    1    2  502  501 -0.11914160115E+02  0.30228810206E+02  0.17392870557E+02  0.36854309435E+02  0.00000000000E+00 0.  1.
<scales pt_clust_4="550.00000" pt_clust_5="550.00000" pt_clust_6="32.49197"></scales>
<mgrwt>
<rscale>  0 0.30000000E+03</rscale>
<asrwt>  1 0.32491971E+02</asrwt>
<pdfrwt beam="1">  1        1 0.85107625E+00 0.30000000E+03</pdfrwt>
<pdfrwt beam="2">0</pdfrwt>
<totfact> 0.40318421E-04</totfact>
</mgrwt>
<clustering>
<clus scale="   32.492">  1  6  2 -1</clus>
<clus scale="  467.445">  4  5 -1 -1</clus>
<clus scale="  300.000">  1  4  2 -1</clus>
</clustering>
</event>
<event>
 6    1  0.1007353E-011  0.3000000E+03  0.7818608E-02  0.1093470E+00
          1   -1    0    0  502    0  0.00000000000E+00  0.00000000000E+00  0.24263169143E+03  0.24263169143E+03  0.00000000000E+00 0.  1.
         13   -1    0    0    0    0 -0.00000000000E+00 -0.00000000000E+00 -0.27500000000E+03  0.27500000000E+03  0.00000000000E+00 0.  1.
    9000005    2    1    2  501    0  0.18056459582E+02 -0.26024215763E+02 -0.16392708258E+02  0.48215613162E+03  0.48083523044E+03 0.  0.
         13    1    3    3    0    0 -0.13835737122E+03 -0.11188752966E+03  0.15408197235E+03  0.23537806964E+03  0.00000000000E+00 0.  1.
          1    1    3    3  501    0  0.15641383080E+03  0.85863313899E+02 -0.17047468061E+03  0.24677806197E+03  0.00000000000E+00 0.  1.
         21    1    1    2  502  501 -0.18056459582E+02  0.26024215763E+02 -0.15975600313E+02  0.35475559813E+02  0.00000000000E+00 0. -1.
<scales pt_clust_4="550.00000" pt_clust_5="550.00000" pt_clust_6="31.67486"></scales>
<mgrwt>
<rscale>  0 0.30000000E+03</rscale>
<asrwt>  1 0.31674857E+02</asrwt>
<pdfrwt beam="1">  1        1 0.88229706E+00 0.30000000E+03</pdfrwt>
<pdfrwt beam="2">0</pdfrwt>
<totfact> 0.18802748E-04</totfact>
</mgrwt>
<clustering>
<clus scale="   31.675">  1  6  2 -1</clus>
<clus scale="  480.835">  4  5 -1 -1</clus>
<clus scale="  300.000">  1  4  2 -1</clus>
</clustering>
</event>
<event>
 6    1  0.1007353E-011  0.3000000E+03  0.7818608E-02  0.1093470E+00
          1   -1    0    0  502    0  0.00000000000E+00  0.00000000000E+00  0.23683735452E+03  0.23683735452E+03  0.00000000000E+00 0.  1.
         13   -1    0    0    0    0 -0.00000000000E+00 -0.00000000000E+00 -0.27500000000E+03  0.27500000000E+03  0.00000000000E+00 0.  1.
    9000005    2    1    2  501    0 -0.28888045678E+02 -0.22380946112E+02 -0.31174335113E+01  0.46120541979E+03  0.45974481500E+03 0.  0.
         13    1    3    3    0    0 -0.15891526742E+03 -0.17127201734E+03 -0.83075236537E+02  0.24797108918E+03  0.00000000000E+00 0.  1.
          3    1    3    3  501    0  0.13002722174E+03  0.14889107123E+03  0.79957803026E+02  0.21323433061E+03  0.00000000000E+00 0.  1.
         21    1    1    2  502  501  0.28888045678E+02  0.22380946112E+02 -0.35045211970E+02  0.50631934725E+02  0.00000000000E+00 0. -1.
<scales pt_clust_4="550.00000" pt_clust_5="550.00000" pt_clust_6="36.54350"></scales>
<mgrwt>
<rscale>  0 0.30000000E+03</rscale>
<asrwt>  1 0.36543498E+02</asrwt>
<pdfrwt beam="1">  1        1 0.86122674E+00 0.30000000E+03</pdfrwt>
<pdfrwt beam="2">0</pdfrwt>
<totfact> 0.31130280E-04</totfact>
</mgrwt>
<clustering>
<clus scale="   36.543">  1  6  2 -1</clus>
<clus scale="  459.745">  4  5 -1 -1</clus>
<clus scale="  300.000">  1  4  2 -1</clus>
</clustering>
</event>
<event>
 6    1  0.1007353E-011  0.3000000E+03  0.7818608E-02  0.1093470E+00
          1   -1    0    0  502    0  0.00000000000E+00  0.00000000000E+00  0.24161355305E+03  0.24161355305E+03  0.00000000000E+00 0.  1.
         13   -1    0    0    0    0 -0.00000000000E+00 -0.00000000000E+00 -0.27500000000E+03  0.27500000000E+03  0.00000000000E+00 0.  1.
    9000005    2    1    2  501    0  0.33977939226E+02 -0.10209354077E+02 -0.58876196283E+02  0.47292764473E+03  0.46790535303E+03 0.  0.
         13    1    3    3    0    0  0.80655688668E+02  0.20265723435E+03  0.57921743653E+02  0.22567725436E+03  0.00000000000E+00 0.  1.
          1    1    3    3  501    0 -0.46677749442E+02 -0.21286658843E+03 -0.11679793994E+03  0.24725039037E+03  0.00000000000E+00 0.  1.
         21    1    1    2  502  501 -0.33977939226E+02  0.10209354077E+02  0.25489749335E+02  0.43685908321E+02  0.00000000000E+00 0.  1.
<scales pt_clust_4="550.00000" pt_clust_5="550.00000" pt_clust_6="35.47860"></scales>
<mgrwt>
<rscale>  0 0.30000000E+03</rscale>
<asrwt>  1 0.35478603E+02</asrwt>
<pdfrwt beam="1">  1        1 0.87859474E+00 0.30000000E+03</pdfrwt>
<pdfrwt beam="2">0</pdfrwt>
<totfact> 0.20469445E-04</totfact>
</mgrwt>
<clustering>
<clus scale="   35.479">  1  6  2 -1</clus>
<clus scale="  467.905">  4  5 -1 -1</clus>
<clus scale="  300.000">  1  4  2 -1</clus>
</clustering>
</event>
<event>
 6    1  0.1007353E-011  0.3000000E+03  0.7818608E-02  0.1093470E+00
          1   -1    0    0  502    0  0.00000000000E+00  0.00000000000E+00  0.25177054021E+03  0.25177054021E+03  0.00000000000E+00 0.  1.
         13   -1    0    0    0    0 -0.00000000000E+00 -0.00000000000E+00 -0.27500000000E+03  0.27500000000E+03  0.00000000000E+00 0.  1.
    9000005    2    1    2  501    0 -0.12151261689E+01  0.29995402523E+02 -0.56657435809E+02  0.48184137057E+03  0.47755611257E+03 0.  0.
         13    1    3    3    0    0 -0.17673443993E+03  0.30313074234E+02  0.13313040340E+03  0.22333304511E+03  0.00000000000E+00 0.  1.
          1    1    3    3  501    0  0.17551931376E+03 -0.31767171179E+00 -0.18978783921E+03  0.25850832546E+03  0.00000000000E+00 0.  1.
         21    1    1    2  502  501  0.12151261689E+01 -0.29995402523E+02  0.33427976021E+02  0.44929169644E+02  0.00000000000E+00 0.  1.
<scales pt_clust_4="550.00000" pt_clust_5="550.00000" pt_clust_6="30.02001"></scales>
<mgrwt>
<rscale>  0 0.30000000E+03</rscale>
<asrwt>  1 0.30020005E+02</asrwt>
<pdfrwt beam="1">  1        1 0.91552924E+00 0.30000000E+03</pdfrwt>
<pdfrwt beam="2">0</pdfrwt>
<totfact> 0.54195543E-05</totfact>
</mgrwt>
<clustering>
<clus scale="   30.020">  1  6  2 -1</clus>
<clus scale="  477.556">  4  5 -1 -1</clus>
<clus scale="  300.000">  1  4  2 -1</clus>
</clustering>
</event>
<event>
 6    1  0.1007353E-011  0.3000000E+03  0.7818608E-02  0.1093470E+00
          1   -1    0    0  502    0  0.00000000000E+00  0.00000000000E+00  0.23187350256E+03  0.23187350256E+03  0.00000000000E+00 0.  1.
         13   -1    0    0    0    0 -0.00000000000E+00 -0.00000000000E+00 -0.27500000000E+03  0.27500000000E+03  0.00000000000E+00 0.  1.
    9000005    2    1    2  501    0  0.15176602821E+02  0.33154427108E+02 -0.44834726080E+02  0.47037058000E+03  0.46680700997E+03 0.  0.
         13    1    3    3    0    0 -0.50012977616E+02 -0.13523703064E+03 -0.19011786623E+03  0.23861088711E+03  0.00000000000E+00 0.  1.
          1    1    3    3  501    0  0.65189580437E+02  0.16839145775E+03  0.14528314015E+03  0.23175969290E+03  0.00000000000E+00 0.  1.
         21    1    1    2  502  501 -0.15176602821E+02 -0.33154427108E+02  0.17082286415E+01  0.36502922556E+02  0.00000000000E+00 0.  1.
<scales pt_clust_4="550.00000" pt_clust_5="550.00000" pt_clust_6="36.46293"></scales>
<mgrwt>
<rscale>  0 0.30000000E+03</rscale>
<asrwt>  1 0.36462931E+02</asrwt>
<pdfrwt beam="1">  1        1 0.84317637E+00 0.30000000E+03</pdfrwt>
<pdfrwt beam="2">0</pdfrwt>
<totfact> 0.46487550E-04</totfact>
</mgrwt>
<clustering>
<clus scale="   36.463">  1  6  2 -1</clus>
<clus scale="  466.807">  4  5 -1 -1</clus>
<clus scale="  300.000">  1  4  2 -1</clus>
</clustering>
</event>
<event>
 6    1  0.1007353E-011  0.3000000E+03  0.7818608E-02  0.1093470E+00
          1   -1    0    0  502    0  0.00000000000E+00  0.00000000000E+00  0.22973185821E+03  0.22973185821E+03  0.00000000000E+00 0.  1.
         13   -1    0    0    0    0 -0.00000000000E+00 -0.00000000000E+00 -0.27500000000E+03  0.27500000000E+03  0.00000000000E+00 0.  1.
    9000005    2    1    2  501    0  0.20279254638E+02  0.37205360135E+02 -0.51232936208E+02  0.46194090398E+03  0.45713137939E+03 0.  0.
         13    1    3    3    0    0 -0.31159934054E+02 -0.20697850059E+03 -0.15979243209E+02  0.20991993095E+03  0.00000000000E+00 0.  1.
          3    1    3    3  501    0  0.51439188692E+02  0.24418386073E+03 -0.35253692999E+02  0.25202097302E+03  0.00000000000E+00 0.  1.
         21    1    1    2  502  501 -0.20279254638E+02 -0.37205360135E+02  0.59647944161E+01  0.42790954230E+02  0.00000000000E+00 0. -1.
<scales pt_clust_4="550.00000" pt_clust_5="550.00000" pt_clust_6="42.37319"></scales>
<mgrwt>
<rscale>  0 0.30000000E+03</rscale>
<asrwt>  1 0.42373187E+02</asrwt>
<pdfrwt beam="1">  1        1 0.83538858E+00 0.30000000E+03</pdfrwt>
<pdfrwt beam="2">0</pdfrwt>
<totfact> 0.51892028E-04</totfact>
</mgrwt>
<clustering>
<clus scale="   42.373">  1  6  2 -1</clus>
<clus scale="  457.131">  4  5 -1 -1</clus>
<clus scale="  300.000">  1  4  2 -1</clus>
</clustering>
</event>
<event>
 6    1  0.1007353E-011  0.3000000E+03  0.7818608E-02  0.1093470E+00
          1   -1    0    0  502    0  0.00000000000E+00  0.00000000000E+00  0.21894487681E+03  0.21894487681E+03  0.00000000000E+00 0.  1.
         13   -1    0    0    0    0 -0.00000000000E+00 -0.00000000000E+00 -0.27500000000E+03  0.27500000000E+03  0.00000000000E+00 0.  1.
    9000005    2    1    2  501    0 -0.23994481578E+02 -0.19685891640E+02 -0.54680693735E+02  0.46287787611E+03  0.45858770203E+03 0.  0.
         13    1    3    3    0    0 -0.19675861977E+03 -0.14651356309E+03 -0.28677987119E+02  0.24698705546E+03  0.00000000000E+00 0.  1.
          3    1    3    3  501    0  0.17276413819E+03  0.12682767145E+03 -0.26002706616E+02  0.21589082065E+03  0.00000000000E+00 0.  1.
         21    1    1    2  502  501  0.23994481578E+02  0.19685891640E+02 -0.13744294555E+01  0.31067000695E+02  0.00000000000E+00 0.  1.
<scales pt_clust_4="550.00000" pt_clust_5="550.00000" pt_clust_6="31.03658"></scales>
<mgrwt>
<rscale>  0 0.30000000E+03</rscale>
<asrwt>  1 0.31036583E+02</asrwt>
<pdfrwt beam="1">  1        1 0.79616319E+00 0.30000000E+03</pdfrwt>
<pdfrwt beam="2">0</pdfrwt>
<totfact> 0.11313191E-03</totfact>
</mgrwt>
<clustering>
<clus scale="   31.037">  1  6  2 -1</clus>
<clus scale="  458.588">  4  5 -1 -1</clus>
<clus scale="  300.000">  1  4  2 -1</clus>
</clustering>
</event>
<event>
 6    1  0.1007353E-011  0.3000000E+03  0.7818608E-02  0.1093470E+00
          1   -1    0    0  502    0  0.00000000000E+00  0.00000000000E+00  0.22437448765E+03  0.22437448765E+03  0.00000000000E+00 0.  1.
         13   -1    0    0    0    0 -0.00000000000E+00 -0.00000000000E+00 -0.27500000000E+03  0.27500000000E+03  0.00000000000E+00 0.  1.
    9000005    2    1    2  501    0 -0.36641357010E+02 -0.60020771851E+01 -0.40298485238E+02  0.46083539758E+03  0.45756604090E+03 0.  0.
         13    1    3    3    0    0  0.17040732754E+03 -0.90187526333E+02  0.77962552720E+02  0.20796780235E+03  0.00000000000E+00 0.  1.
          3    1    3    3  501    0 -0.20704868455E+03  0.84185449148E+02 -0.11826103796E+03  0.25286759524E+03  0.00000000000E+00 0.  1.
         21    1    1    2  502  501  0.36641357010E+02  0.60020771851E+01 -0.10327027112E+02  0.38539090065E+02  0.00000000000E+00 0. -1.
<scales pt_clust_4="550.00000" pt_clust_5="550.00000" pt_clust_6="37.12971"></scales>
<mgrwt>
<rscale>  0 0.30000000E+03</rscale>
<asrwt>  1 0.37129710E+02</asrwt>
<pdfrwt beam="1">  1        1 0.81590723E+00 0.30000000E+03</pdfrwt>
<pdfrwt beam="2">0</pdfrwt>
<totfact> 0.77410722E-04</totfact>
</mgrwt>
<clustering>
<clus scale="   37.130">  1  6  2 -1</clus>
<clus scale="  457.566">  4  5 -1 -1</clus>
<clus scale="  300.000">  1  4  2 -1</clus>
</clustering>
</event>
<event>
 6    1  0.1007353E-011  0.3000000E+03  0.7818608E-02  0.1093470E+00
          1   -1    0    0  502    0  0.00000000000E+00  0.00000000000E+00  0.24326866516E+03  0.24326866516E+03  0.00000000000E+00 0.  1.
         13   -1    0    0    0    0 -0.00000000000E+00 -0.00000000000E+00 -0.27500000000E+03  0.27500000000E+03  0.00000000000E+00 0.  1.
    9000005    2    1    2  501    0  0.33926653846E+02 -0.22736443148E+02 -0.49619425783E+02  0.47368226044E+03  0.46930249600E+03 0.  0.
         13    1    3    3    0    0 -0.20004633517E+03 -0.68689484397E+02  0.46555896341E+02  0.21657385106E+03  0.00000000000E+00 0.  1.
          3    1    3    3  501    0  0.23397298901E+03  0.45953041249E+02 -0.96175322124E+02  0.25710840938E+03  0.00000000000E+00 0.  1.
         21    1    1    2  502  501 -0.33926653846E+02  0.22736443148E+02  0.17888090942E+02  0.44586404719E+02  0.00000000000E+00 0. -1.
<scales pt_clust_4="550.00000" pt_clust_5="550.00000" pt_clust_6="40.84071"></scales>
<mgrwt>
<rscale>  0 0.30000000E+03</rscale>
<asrwt>  1 0.40840711E+02</asrwt>
<pdfrwt beam="1">  1        1 0.88461333E+00 0.30000000E+03</pdfrwt>
<pdfrwt beam="2">0</pdfrwt>
<totfact> 0.16696661E-04</totfact>
</mgrwt>
<clustering>
<clus scale="   40.841">  1  6  2 -1</clus>
<clus scale="  469.302">  4  5 -1 -1</clus>
<clus scale="  300.000">  1  4  2 -1</clus>
</clustering>
</event>
<event>
 6    1  0.1007353E-011  0.3000000E+03  0.7818608E-02  0.1093470E+00
          1   -1    0    0  502    0  0.00000000000E+00  0.00000000000E+00  0.22693022945E+03  0.22693022945E+03  0.00000000000E+00 0.  1.
         13   -1    0    0    0    0 -0.00000000000E+00 -0.00000000000E+00 -0.27500000000E+03  0.27500000000E+03  0.00000000000E+00 0.  1.
    9000005    2    1    2  501    0  0.51800770542E+01  0.36356891814E+02 -0.40689496510E+02  0.46447191628E+03  0.46122648352E+03 0.  0.
         13    1    3    3    0    0  0.11398036462E+03  0.20493473686E+03  0.56981307908E+02  0.24132268717E+03  0.00000000000E+00 0.  1.
          3    1    3    3  501    0 -0.10880028757E+03 -0.16857784505E+03 -0.97670804418E+02  0.22314922911E+03  0.00000000000E+00 0.  1.
         21    1    1    2  502  501 -0.51800770542E+01 -0.36356891814E+02 -0.73802740415E+01  0.37458313171E+02  0.00000000000E+00 0.  1.
<scales pt_clust_4="550.00000" pt_clust_5="550.00000" pt_clust_6="36.72408"></scales>
<mgrwt>
<rscale>  0 0.30000000E+03</rscale>
<asrwt>  1 0.36724081E+02</asrwt>
<pdfrwt beam="1">  1        1 0.82520083E+00 0.30000000E+03</pdfrwt>
<pdfrwt beam="2">0</pdfrwt>
<totfact> 0.64468337E-04</totfact>
</mgrwt>
<clustering>
<clus scale="   36.724">  1  6  2 -1</clus>
<clus scale="  461.226">  4  5 -1 -1</clus>
<clus scale="  300.000">  1  4  2 -1</clus>
</clustering>
</event>
<event>
 6    1  0.1007353E-011  0.3000000E+03  0.7818608E-02  0.1093470E+00
          1   -1    0    0  502    0  0.00000000000E+00  0.00000000000E+00  0.23753964414E+03  0.23753964414E+03  0.00000000000E+00 0.  1.
         13   -1    0    0    0    0 -0.00000000000E+00 -0.00000000000E+00 -0.27500000000E+03  0.27500000000E+03  0.00000000000E+00 0.  1.
    9000005    2    1    2  501    0  0.28086584306E+02 -0.11977318539E+02 -0.50999767413E+02  0.47913862556E+03  0.47543720284E+03 0.  0.
         13    1    3    3    0    0 -0.14532524285E+03  0.16444342101E+03 -0.71760283007E+02  0.23089089012E+03  0.00000000000E+00 0.  1.
          1    1    3    3  501    0  0.17341182715E+03 -0.17642073955E+03  0.20760515594E+02  0.24824773544E+03  0.00000000000E+00 0.  1.
         21    1    1    2  502  501 -0.28086584306E+02  0.11977318539E+02  0.13539411556E+02  0.33401018587E+02  0.00000000000E+00 0. -1.
<scales pt_clust_4="550.00000" pt_clust_5="550.00000" pt_clust_6="30.53379"></scales>
<mgrwt>
<rscale>  0 0.30000000E+03</rscale>
<asrwt>  1 0.30533791E+02</asrwt>
<pdfrwt beam="1">  1        1 0.86378052E+00 0.30000000E+03</pdfrwt>
<pdfrwt beam="2">0</pdfrwt>
<totfact> 0.30220816E-04</totfact>
</mgrwt>
<clustering>
<clus scale="   30.534">  1  6  2 -1</clus>
<clus scale="  475.437">  4  5 -1 -1</clus>
<clus scale="  300.000">  1  4  2 -1</clus>
</clustering>
</event>
<event>
 6    1  0.1007353E-011  0.3000000E+03  0.7818608E-02  0.1093470E+00
          1   -1    0    0  502    0  0.00000000000E+00  0.00000000000E+00  0.24775481469E+03  0.24775481469E+03  0.00000000000E+00 0.  1.
         13   -1    0    0    0    0 -0.00000000000E+00 -0.00000000000E+00 -0.27500000000E+03  0.27500000000E+03  0.00000000000E+00 0.  1.
    9000005    2    1    2  501    0  0.29324579230E+02 -0.80533783274E+01 -0.44153981304E+02  0.48795976861E+03  0.48500554004E+03 0.  0.
         13    1    3    3    0    0 -0.13003491801E+03  0.10702288712E+03  0.13969968377E+03  0.21881265941E+03  0.00000000000E+00 0.  1.
          3    1    3    3  501    0  0.15935949724E+03 -0.11507626545E+03 -0.18385366507E+03  0.26914710920E+03  0.00000000000E+00 0.  1.
         21    1    1    2  502  501 -0.29324579230E+02  0.80533783274E+01  0.16908795991E+02  0.34795046076E+02  0.00000000000E+00 0. -1.
<scales pt_clust_4="550.00000" pt_clust_5="550.00000" pt_clust_6="30.41032"></scales>
<mgrwt>
<rscale>  0 0.30000000E+03</rscale>
<asrwt>  1 0.30410325E+02</asrwt>
<pdfrwt beam="1">  1        1 0.90092660E+00 0.30000000E+03</pdfrwt>
<pdfrwt beam="2">0</pdfrwt>
<totfact> 0.11033518E-04</totfact>
</mgrwt>
<clustering>
<clus scale="   30.410">  1  6  2 -1</clus>
<clus scale="  485.006">  4  5 -1 -1</clus>
<clus scale="  300.000">  1  4  2 -1</clus>
</clustering>
</event>
<event>
 6    1  0.1007353E-011  0.3000000E+03  0.7818608E-02  0.1093470E+00
          1   -1    0    0  502    0  0.00000000000E+00  0.00000000000E+00  0.24277505222E+03  0.24277505222E+03  0.00000000000E+00 0.  1.
         13   -1    0    0    0    0 -0.00000000000E+00 -0.00000000000E+00 -0.27500000000E+03  0.27500000000E+03  0.00000000000E+00 0.  1.
    9000005    2    1    2  501    0 -0.13078638938E+02 -0.34969209845E+02 -0.56541116346E+02  0.47321977770E+03  0.46834406555E+03 0.  0.
         13    1    3    3    0    0  0.13028399555E+03  0.17340903582E+03 -0.25716290318E+02  0.21841689676E+03  0.00000000000E+00 0.  1.
          3    1    3    3  501    0 -0.14336263449E+03 -0.20837824567E+03 -0.30824826028E+02  0.25480288094E+03  0.00000000000E+00 0.  1.
         21    1    1    2  502  501  0.13078638938E+02  0.34969209845E+02  0.24316168564E+02  0.44555274517E+02  0.00000000000E+00 0. -1.
<scales pt_clust_4="550.00000" pt_clust_5="550.00000" pt_clust_6="37.33492"></scales>
<mgrwt>
<rscale>  0 0.30000000E+03</rscale>
<asrwt>  1 0.37334922E+02</asrwt>
<pdfrwt beam="1">  1        1 0.88281837E+00 0.30000000E+03</pdfrwt>
<pdfrwt beam="2">0</pdfrwt>
<totfact> 0.17945124E-04</totfact>
</mgrwt>
<clustering>
<clus scale="   37.335">  1  6  2 -1</clus>
<clus scale="  468.344">  4  5 -1 -1</clus>
<clus scale="  300.000">  1  4  2 -1</clus>
</clustering>
</event>
<event>
 6    1  0.1007353E-011  0.3000000E+03  0.7818608E-02  0.1093470E+00
          1   -1    0    0  502    0  0.00000000000E+00  0.00000000000E+00  0.25392552406E+03  0.25392552406E+03  0.00000000000E+00 0.  1.
         13   -1    0    0    0    0 -0.00000000000E+00 -0.00000000000E+00 -0.27500000000E+03  0.27500000000E+03  0.00000000000E+00 0.  1.
    9000005    2    1    2  501    0 -0.21690071359E+02 -0.39589044817E+02 -0.29342833499E+02  0.48303306932E+03  0.48002311665E+03 0.  0.
         13    1    3    3    0    0  0.34365461404E+02  0.92140220745E+02  0.19414155280E+03  0.21762754361E+03  0.00000000000E+00 0.  1.
          3    1    3    3  501    0 -0.56055532763E+02 -0.13172926556E+03 -0.22348438630E+03  0.26540552571E+03  0.00000000000E+00 0.  1.
         21    1    1    2  502  501  0.21690071359E+02  0.39589044817E+02  0.82683575575E+01  0.45892454737E+02  0.00000000000E+00 0.  1.
<scales pt_clust_4="550.00000" pt_clust_5="550.00000" pt_clust_6="45.14146"></scales>
<mgrwt>
<rscale>  0 0.30000000E+03</rscale>
<asrwt>  1 0.45141463E+02</asrwt>
<pdfrwt beam="1">  1        1 0.92336554E+00 0.30000000E+03</pdfrwt>
<pdfrwt beam="2">0</pdfrwt>
<totfact> 0.33843849E-05</totfact>
</mgrwt>
<clustering>
<clus scale="   45.141">  1  6  2 -1</clus>
<clus scale="  480.023">  4  5 -1 -1</clus>
<clus scale="  300.000">  1  4  2 -1</clus>
</clustering>
</event>
<event>
 6    1  0.1007353E-011  0.3000000E+03  0.7818608E-02  0.1093470E+00
          1   -1    0    0  502    0  0.00000000000E+00  0.00000000000E+00  0.22997251776E+03  0.22997251776E+03  0.00000000000E+00 0.  1.
         13   -1    0    0    0    0 -0.00000000000E+00 -0.00000000000E+00 -0.27500000000E+03  0.27500000000E+03  0.00000000000E+00 0.  1.
    9000005    2    1    2  501    0 -0.14766515695E+02 -0.30091607085E+02 -0.25900685921E+02  0.46637991303E+03  0.46445217509E+03 0.  0.
         13    1    3    3    0    0  0.86565726451E+02 -0.11156301643E+03 -0.20262649464E+03  0.24697657371E+03  0.00000000000E+00 0.  1.
          3    1    3    3  501    0 -0.10133224215E+03  0.81471409348E+02  0.17672580872E+03  0.21940333932E+03  0.00000000000E+00 0.  1.
         21    1    1    2  502  501  0.14766515695E+02  0.30091607085E+02 -0.19126796315E+02  0.38592604732E+02  0.00000000000E+00 0.  1.
<scales pt_clust_4="550.00000" pt_clust_5="550.00000" pt_clust_6="33.51949"></scales>
<mgrwt>
<rscale>  0 0.30000000E+03</rscale>
<asrwt>  1 0.33519486E+02</asrwt>
<pdfrwt beam="1">  1        1 0.83626370E+00 0.30000000E+03</pdfrwt>
<pdfrwt beam="2">0</pdfrwt>
<totfact> 0.53398360E-04</totfact>
</mgrwt>
<clustering>
<clus scale="   33.519">  1  6  2 -1</clus>
<clus scale="  464.452">  4  5 -1 -1</clus>
<clus scale="  300.000">  1  4  2 -1</clus>
</clustering>
</event>
<event>
 6    1  0.1007353E-011  0.3000000E+03  0.7818608E-02  0.1093470E+00
          1   -1    0    0  502    0  0.00000000000E+00  0.00000000000E+00  0.21986504613E+03  0.21986504613E+03  0.00000000000E+00 0.  1.
         13   -1    0    0    0    0 -0.00000000000E+00 -0.00000000000E+00 -0.27500000000E+03  0.27500000000E+03  0.00000000000E+00 0.  1.
    9000005    2    1    2  501    0 -0.25901873812E+02  0.17601530891E+02 -0.45612959264E+02  0.46213296190E+03  0.45880890517E+03 0.  0.
         13    1    3    3    0    0 -0.62756053197E+02 -0.20073141503E+03  0.57278216376E+02  0.21797297370E+03  0.00000000000E+00 0.  1.
          3    1    3    3  501    0  0.36854179385E+02  0.21833294592E+03 -0.10289117564E+03  0.24415998820E+03  0.00000000000E+00 0.  1.
         21    1    1    2  502  501  0.25901873812E+02 -0.17601530891E+02 -0.95219946078E+01  0.32732084229E+02  0.00000000000E+00 0.  1.
<scales pt_clust_4="550.00000" pt_clust_5="550.00000" pt_clust_6="31.31648"></scales>
<mgrwt>
<rscale>  0 0.30000000E+03</rscale>
<asrwt>  1 0.31316480E+02</asrwt>
<pdfrwt beam="1">  1        1 0.79950926E+00 0.30000000E+03</pdfrwt>
<pdfrwt beam="2">0</pdfrwt>
<totfact> 0.10677388E-03</totfact>
</mgrwt>
<clustering>
<clus scale="   31.316">  1  6  2 -1</clus>
<clus scale="  458.809">  4  5 -1 -1</clus>
<clus scale="  300.000">  1  4  2 -1</clus>
</clustering>
</event>
<event>
 6    1  0.1007353E-011  0.3000000E+03  0.7818608E-02  0.1093470E+00
          1   -1    0    0  502    0  0.00000000000E+00  0.00000000000E+00  0.23329398416E+03  0.23329398416E+03  0.00000000000E+00 0.  1.
         13   -1    0    0    0    0 -0.00000000000E+00 -0.00000000000E+00 -0.27500000000E+03  0.27500000000E+03  0.00000000000E+00 0.  1.
    9000005    2    1    2  501    0  0.12242380581E+02 -0.30847277633E+02 -0.58520825171E+02  0.47108957269E+03  0.46626094422E+03 0.  0.
         13    1    3    3    0    0 -0.22583276004E+01 -0.90249590598E+02 -0.25226131932E+03  0.26792883732E+03  0.00000000000E+00 0.  1.
          1    1    3    3  501    0  0.14500708182E+02  0.59402312965E+02  0.19374049415E+03  0.20316073537E+03  0.00000000000E+00 0.  1.
         21    1    1    2  502  501 -0.12242380581E+02  0.30847277633E+02  0.16814809328E+02  0.37204411464E+02  0.00000000000E+00 0.  1.
<scales pt_clust_4="550.00000" pt_clust_5="550.00000" pt_clust_6="33.18781"></scales>
<mgrwt>
<rscale>  0 0.30000000E+03</rscale>
<asrwt>  1 0.33187805E+02</asrwt>
<pdfrwt beam="1">  1        1 0.84834176E+00 0.30000000E+03</pdfrwt>
<pdfrwt beam="2">0</pdfrwt>
<totfact> 0.42591696E-04</totfact>
</mgrwt>
<clustering>
<clus scale="   33.188">  1  6  2 -1</clus>
<clus scale="  466.261">  4  5 -1 -1</clus>
<clus scale="  300.000">  1  4  2 -1</clus>
</clustering>
</event>
<event>
 6    1  0.1007353E-011  0.3000000E+03  0.7818608E-02  0.1093470E+00
          1   -1    0    0  502    0  0.00000000000E+00  0.00000000000E+00  0.21987703501E+03  0.21987703501E+03  0.00000000000E+00 0.  1.
         13   -1    0    0    0    0 -0.00000000000E+00 -0.00000000000E+00 -0.27500000000E+03  0.27500000000E+03  0.00000000000E+00 0.  1.
    9000005    2    1    2  501    0  0.80284851804E+01  0.30655775542E+02 -0.42684190758E+02  0.46083358846E+03  0.45775694748E+03 0.  0.
         13    1    3    3    0    0  0.72027585343E+01 -0.21403348451E+03 -0.21213694023E+02  0.21520277191E+03  0.00000000000E+00 0.  1.
          3    1    3    3  501    0  0.82572664608E+00  0.24468926005E+03 -0.21470496735E+02  0.24563081655E+03  0.00000000000E+00 0.  1.
         21    1    1    2  502  501 -0.80284851804E+01 -0.30655775542E+02 -0.12438774236E+02  0.34043446548E+02  0.00000000000E+00 0.  1.
<scales pt_clust_4="550.00000" pt_clust_5="550.00000" pt_clust_6="31.68965"></scales>
<mgrwt>
<rscale>  0 0.30000000E+03</rscale>
<asrwt>  1 0.31689654E+02</asrwt>
<pdfrwt beam="1">  1        1 0.79955285E+00 0.30000000E+03</pdfrwt>
<pdfrwt beam="2">0</pdfrwt>
<totfact> 0.10645552E-03</totfact>
</mgrwt>
<clustering>
<clus scale="   31.690">  1  6  2 -1</clus>
<clus scale="  457.757">  4  5 -1 -1</clus>
<clus scale="  300.000">  1  4  2 -1</clus>
</clustering>
</event>
<event>
 6    1  0.1007353E-011  0.3000000E+03  0.7818608E-02  0.1093470E+00
          1   -1    0    0  502    0  0.00000000000E+00  0.00000000000E+00  0.24506239876E+03  0.24506239876E+03  0.00000000000E+00 0.  1.
         13   -1    0    0    0    0 -0.00000000000E+00 -0.00000000000E+00 -0.27500000000E+03  0.27500000000E+03  0.00000000000E+00 0.  1.
    9000005    2    1    2  501    0 -0.40217211055E+02  0.24641307040E+01 -0.64352048409E+02  0.46707324724E+03  0.46086086419E+03 0.  0.
         13    1    3    3    0    0  0.14986055517E+03  0.52880649118E+02  0.11874462718E+03  0.19838053213E+03  0.00000000000E+00 0.  1.
          3    1    3    3  501    0 -0.19007776622E+03 -0.50416518414E+02 -0.18309667558E+03  0.26869271510E+03  0.00000000000E+00 0.  1.
         21    1    1    2  502  501  0.40217211055E+02 -0.24641307040E+01  0.34414447165E+02  0.52989151520E+02  0.00000000000E+00 0.  1.
<scales pt_clust_4="550.00000" pt_clust_5="550.00000" pt_clust_6="40.29263"></scales>
<mgrwt>
<rscale>  0 0.30000000E+03</rscale>
<asrwt>  1 0.40292630E+02</asrwt>
<pdfrwt beam="1">  1        1 0.89113600E+00 0.30000000E+03</pdfrwt>
<pdfrwt beam="2">0</pdfrwt>
<totfact> 0.13649456E-04</totfact>
</mgrwt>
<clustering>
<clus scale="   40.293">  1  6  2 -1</clus>
<clus scale="  460.861">  4  5 -1 -1</clus>
<clus scale="  300.000">  1  4  2 -1</clus>
</clustering>
</event>
<event>
 6    1  0.1007353E-011  0.3000000E+03  0.7818608E-02  0.1093470E+00
          1   -1    0    0  502    0  0.00000000000E+00  0.00000000000E+00  0.25734928441E+03  0.25734928441E+03  0.00000000000E+00 0.  1.
         13   -1    0    0    0    0 -0.00000000000E+00 -0.00000000000E+00 -0.27500000000E+03  0.27500000000E+03  0.00000000000E+00 0.  1.
    9000005    2    1    2  501    0  0.25497319933E+02 -0.28638869778E+02 -0.40767055334E+02  0.48757581739E+03  0.48435310128E+03 0.  0.
         13    1    3    3    0    0  0.18851896340E+03 -0.18188375824E+03 -0.15535242945E+02  0.26241654835E+03  0.00000000000E+00 0.  1.
          3    1    3    3  501    0 -0.16302164347E+03  0.15324488846E+03 -0.25231812389E+02  0.22515926904E+03  0.00000000000E+00 0.  1.
         21    1    1    2  502  501 -0.25497319933E+02  0.28638869778E+02  0.23116339745E+02  0.44773467022E+02  0.00000000000E+00 0. -1.
<scales pt_clust_4="550.00000" pt_clust_5="550.00000" pt_clust_6="38.34447"></scales>
<mgrwt>
<rscale>  0 0.30000000E+03</rscale>
<asrwt>  1 0.38344467E+02</asrwt>
<pdfrwt beam="1">  1        1 0.93581558E+00 0.30000000E+03</pdfrwt>
<pdfrwt beam="2">0</pdfrwt>
<totfact> 0.21644531E-05</totfact>
</mgrwt>
<clustering>
<clus scale="   38.344">  1  6  2 -1</clus>
<clus scale="  484.353">  4  5 -1 -1</clus>
<clus scale="  300.000">  1  4  2 -1</clus>
</clustering>
</event>
<event>
 6    1  0.1007353E-011  0.3000000E+03  0.7818608E-02  0.1093470E+00
          1   -1    0    0  502    0  0.00000000000E+00  0.00000000000E+00  0.24616345491E+03  0.24616345491E+03  0.00000000000E+00 0.  1.
         13   -1    0    0    0    0 -0.00000000000E+00 -0.00000000000E+00 -0.27500000000E+03  0.27500000000E+03  0.00000000000E+00 0.  1.
    9000005    2    1    2  501    0 -0.28771691517E+02  0.35966402594E+02 -0.39168958942E+02  0.47396015921E+03  0.47008789905E+03 0.  0.
         13    1    3    3    0    0 -0.60708091754E+02  0.22316388080E+03 -0.12797382333E+03  0.26431967304E+03  0.00000000000E+00 0.  1.
          3    1    3    3  501    0  0.31936400237E+02 -0.18719747820E+03  0.88804864386E+02  0.20964048618E+03  0.00000000000E+00 0.  1.
         21    1    1    2  502  501  0.28771691517E+02 -0.35966402594E+02  0.10332413848E+02  0.47203295692E+02  0.00000000000E+00 0. -1.
<scales pt_clust_4="550.00000" pt_clust_5="550.00000" pt_clust_6="46.05858"></scales>
<mgrwt>
<rscale>  0 0.30000000E+03</rscale>
<asrwt>  1 0.46058575E+02</asrwt>
<pdfrwt beam="1">  1        1 0.89513984E+00 0.30000000E+03</pdfrwt>
<pdfrwt beam="2">0</pdfrwt>
<totfact> 0.11950080E-04</totfact>
</mgrwt>
<clustering>
<clus scale="   46.059">  1  6  2 -1</clus>
<clus scale="  470.088">  4  5 -1 -1</clus>
<clus scale="  300.000">  1  4  2 -1</clus>
</clustering>
</event>
<event>
 6    1  0.1007353E-011  0.3000000E+03  0.7818608E-02  0.1093470E+00
          1   -1    0    0  502    0  0.00000000000E+00  0.00000000000E+00  0.22829936598E+03  0.22829936598E+03  0.00000000000E+00 0.  1.
         13   -1    0    0    0    0 -0.00000000000E+00 -0.00000000000E+00 -0.27500000000E+03  0.27500000000E+03  0.00000000000E+00 0.  1.
    9000005    2    1    2  501    0  0.51215413266E+01 -0.32764677537E+02 -0.69752977867E+02  0.46291168424E+03  0.45642304412E+03 0.  0.
         13    1    3    3    0    0 -0.15932275646E+03  0.14461236051E+03 -0.44502309610E+02  0.21972011993E+03  0.00000000000E+00 0.  1.
          3    1    3    3  501    0  0.16444429779E+03 -0.17737703805E+03 -0.25250668257E+02  0.24319156431E+03  0.00000000000E+00 0.  1.
         21    1    1    2  502  501 -0.51215413266E+01  0.32764677537E+02  0.23052343844E+02  0.40387681741E+02  0.00000000000E+00 0. -1.
<scales pt_clust_4="550.00000" pt_clust_5="550.00000" pt_clust_6="33.16254"></scales>
<mgrwt>
<rscale>  0 0.30000000E+03</rscale>
<asrwt>  1 0.33162543E+02</asrwt>
<pdfrwt beam="1">  1        1 0.83017951E+00 0.30000000E+03</pdfrwt>
<pdfrwt beam="2">0</pdfrwt>
<totfact> 0.59500538E-04</totfact>
</mgrwt>
<clustering>
<clus scale="   33.163">  1  6  2 -1</clus>
<clus scale="  456.423">  4  5 -1 -1</clus>
<clus scale="  300.000">  1  4  2 -1</clus>
</clustering>
</event>
<event>
 6    1  0.1007353E-011  0.3000000E+03  0.7818608E-02  0.1093470E+00
          1   -1    0    0  502    0  0.00000000000E+00  0.00000000000E+00  0.24605155819E+03  0.24605155819E+03  0.00000000000E+00 0.  1.
         13   -1    0    0    0    0 -0.00000000000E+00 -0.00000000000E+00 -0.27500000000E+03  0.27500000000E+03  0.00000000000E+00 0.  1.
    9000005    2    1    2  501    0 -0.23937104496E+02 -0.28914338377E+02 -0.49598603714E+02  0.47820936961E+03  0.47414676605E+03 0.  0.
         13    1    3    3    0    0  0.70941766392E+02  0.15164813535E+03  0.12562151423E+03  0.20930995201E+03  0.00000000000E+00 0.  1.
          3    1    3    3  501    0 -0.94878870889E+02 -0.18056247372E+03 -0.17522011794E+03  0.26889941761E+03  0.00000000000E+00 0.  1.
         21    1    1    2  502  501  0.23937104496E+02  0.28914338377E+02  0.20650161903E+02  0.42842188577E+02  0.00000000000E+00 0.  1.
<scales pt_clust_4="550.00000" pt_clust_5="550.00000" pt_clust_6="37.53697"></scales>
<mgrwt>
<rscale>  0 0.30000000E+03</rscale>
<asrwt>  1 0.37536968E+02</asrwt>
<pdfrwt beam="1">  1        1 0.89473294E+00 0.30000000E+03</pdfrwt>
<pdfrwt beam="2">0</pdfrwt>
<totfact> 0.12532615E-04</totfact>
</mgrwt>
<clustering>
<clus scale="   37.537">  1  6  2 -1</clus>
<clus scale="  474.147">  4  5 -1 -1</clus>
<clus scale="  300.000">  1  4  2 -1</clus>
</clustering>
</event>
<event>
 6    1  0.1007353E-011  0.3000000E+03  0.7818608E-02  0.1093470E+00
          1   -1    0    0  502    0  0.00000000000E+00  0.00000000000E+00  0.22938226544E+03  0.22938226544E+03  0.00000000000E+00 0.  1.
         13   -1    0    0    0    0 -0.00000000000E+00 -0.00000000000E+00 -0.27500000000E+03  0.27500000000E+03  0.00000000000E+00 0.  1.
    9000005    2    1    2  501    0  0.24759122078E+02 -0.20557912209E+02 -0.43606981688E+02  0.47213811856E+03  0.46901726223E+03 0.  0.
         13    1    3    3    0    0 -0.10336493681E+03  0.19259365711E+03 -0.46298443822E+02  0.22342822745E+03  0.00000000000E+00 0.  1.
          3    1    3    3  501    0  0.12812405888E+03 -0.21315156932E+03  0.26914621341E+01  0.24870989111E+03  0.00000000000E+00 0.  1.
         21    1    1    2  502  501 -0.24759122078E+02  0.20557912209E+02 -0.20107528736E+01  0.32244146873E+02  0.00000000000E+00 0.  1.
<scales pt_clust_4="550.00000" pt_clust_5="550.00000" pt_clust_6="32.18139"></scales>
<mgrwt>
<rscale>  0 0.30000000E+03</rscale>
<asrwt>  1 0.32181390E+02</asrwt>
<pdfrwt beam="1">  1        1 0.83411733E+00 0.30000000E+03</pdfrwt>
<pdfrwt beam="2">0</pdfrwt>
<totfact> 0.55787762E-04</totfact>
</mgrwt>
<clustering>
<clus scale="   32.181">  1  6  2 -1</clus>
<clus scale="  469.017">  4  5 -1 -1</clus>
<clus scale="  300.000">  1  4  2 -1</clus>
</clustering>
</event>
<event>
 6    1  0.1007353E-011  0.3000000E+03  0.7818608E-02  0.1093470E+00
          1   -1    0    0  502    0  0.00000000000E+00  0.00000000000E+00  0.23465594006E+03  0.23465594006E+03  0.00000000000E+00 0.  1.
         13   -1    0    0    0    0 -0.00000000000E+00 -0.00000000000E+00 -0.27500000000E+03  0.27500000000E+03  0.00000000000E+00 0.  1.
    9000005    2    1    2  501    0 -0.35947398682E+02 -0.11521834785E+02 -0.49167406741E+02  0.47088972284E+03  0.46679195477E+03 0.  0.
         13    1    3    3    0    0 -0.57106237428E+02 -0.22521838989E+03 -0.95500400253E+02  0.25120663198E+03  0.00000000000E+00 0.  1.
          1    1    3    3  501    0  0.21158838747E+02  0.21369655511E+03  0.46332993511E+02  0.21968309086E+03  0.00000000000E+00 0.  1.
         21    1    1    2  502  501  0.35947398682E+02  0.11521834785E+02  0.88233467983E+01  0.38766217220E+02  0.00000000000E+00 0. -1.
<scales pt_clust_4="550.00000" pt_clust_5="550.00000" pt_clust_6="37.74875"></scales>
<mgrwt>
<rscale>  0 0.30000000E+03</rscale>
<asrwt>  1 0.37748750E+02</asrwt>
<pdfrwt beam="1">  1        1 0.85329433E+00 0.30000000E+03</pdfrwt>
<pdfrwt beam="2">0</pdfrwt>
<totfact> 0.37330001E-04</totfact>
</mgrwt>
<clustering>
<clus scale="   37.749">  1  6  2 -1</clus>
<clus scale="  466.792">  4  5 -1 -1</clus>
<clus scale="  300.000">  1  4  2 -1</clus>
</clustering>
</event>
<event>
 6    1  0.1007353E-011  0.3000000E+03  0.7818608E-02  0.1093470E+00
          1   -1    0    0  502    0  0.00000000000E+00  0.00000000000E+00  0.23860633522E+03  0.23860633522E+03  0.00000000000E+00 0.  1.
         13   -1    0    0    0    0 -0.00000000000E+00 -0.00000000000E+00 -0.27500000000E+03  0.27500000000E+03  0.00000000000E+00 0.  1.
    9000005    2    1    2  501    0  0.28791901994E+02 -0.16430042556E+02 -0.51775535302E+02  0.47706154271E+03  0.47308359680E+03 0.  0.
         13    1    3    3    0    0  0.11941353804E+03 -0.74880943751E+02 -0.22941386489E+03  0.26925354261E+03  0.00000000000E+00 0.  1.
          3    1    3    3  501    0 -0.90621636043E+02  0.58450901196E+02  0.17763832959E+03  0.20780800011E+03  0.00000000000E+00 0.  1.
         21    1    1    2  502  501 -0.28791901994E+02  0.16430042556E+02  0.15381870527E+02  0.36544792511E+02  0.00000000000E+00 0. -1.
<scales pt_clust_4="550.00000" pt_clust_5="550.00000" pt_clust_6="33.14996"></scales>
<mgrwt>
<rscale>  0 0.30000000E+03</rscale>
<asrwt>  1 0.33149961E+02</asrwt>
<pdfrwt beam="1">  1        1 0.86765940E+00 0.30000000E+03</pdfrwt>
<pdfrwt beam="2">0</pdfrwt>
<totfact> 0.27047205E-04</totfact>
</mgrwt>
<clustering>
<clus scale="   33.150">  1  6  2 -1</clus>
<clus scale="  473.084">  4  5 -1 -1</clus>
<clus scale="  300.000">  1  4  2 -1</clus>
</clustering>
</event>
<event>
 6    1  0.1007353E-011  0.3000000E+03  0.7818608E-02  0.1093470E+00
          1   -1    0    0  502    0  0.00000000000E+00  0.00000000000E+00  0.23135463985E+03  0.23135463985E+03  0.00000000000E+00 0.  1.
         13   -1    0    0    0    0 -0.00000000000E+00 -0.00000000000E+00 -0.27500000000E+03  0.27500000000E+03  0.00000000000E+00 0.  1.
    9000005    2    1    2  501    0 -0.33004754363E+02  0.17442435281E+01 -0.58514521937E+02  0.47011311438E+03  0.46528489642E+03 0.  0.
         13    1    3    3    0    0 -0.10467151856E+03 -0.12421467163E+03 -0.20667007537E+03  0.26286485405E+03  0.00000000000E+00 0.  1.
          3    1    3    3  501    0  0.71666764193E+02  0.12595891515E+03  0.14815555343E+03  0.20724826033E+03  0.00000000000E+00 0.  1.
         21    1    1    2  502  501  0.33004754363E+02 -0.17442435281E+01  0.14869161785E+02  0.36241525468E+02  0.00000000000E+00 0. -1.
<scales pt_clust_4="550.00000" pt_clust_5="550.00000" pt_clust_6="33.05081"></scales>
<mgrwt>
<rscale>  0 0.30000000E+03</rscale>
<asrwt>  1 0.33050812E+02</asrwt>
<pdfrwt beam="1">  1        1 0.84128960E+00 0.30000000E+03</pdfrwt>
<pdfrwt beam="2">0</pdfrwt>
<totfact> 0.49086053E-04</totfact>
</mgrwt>
<clustering>
<clus scale="   33.051">  1  6  2 -1</clus>
<clus scale="  465.285">  4  5 -1 -1</clus>
<clus scale="  300.000">  1  4  2 -1</clus>
</clustering>
</event>
<event>
 6    1  0.1007353E-011  0.3000000E+03  0.7818608E-02  0.1093470E+00
          1   -1    0    0  502    0  0.00000000000E+00  0.00000000000E+00  0.22923738898E+03  0.22923738898E+03  0.00000000000E+00 0.  1.
         13   -1    0    0    0    0 -0.00000000000E+00 -0.00000000000E+00 -0.27500000000E+03  0.27500000000E+03  0.00000000000E+00 0.  1.
    9000005    2    1    2  501    0  0.26752148526E+02  0.25571843016E+02 -0.32498153041E+02  0.46492400130E+03  0.46230790652E+03 0.  0.
         13    1    3    3    0    0 -0.37754954225E+02 -0.12816325524E+03 -0.19218562250E+03  0.23406531152E+03  0.00000000000E+00 0.  1.
          1    1    3    3  501    0  0.64507102751E+02  0.15373509826E+03  0.15968746946E+03  0.23085868977E+03  0.00000000000E+00 0.  1.
         21    1    1    2  502  501 -0.26752148526E+02 -0.25571843016E+02 -0.13264457974E+02  0.39313387686E+02  0.00000000000E+00 0. -1.
<scales pt_clust_4="550.00000" pt_clust_5="550.00000" pt_clust_6="37.00808"></scales>
<mgrwt>
<rscale>  0 0.30000000E+03</rscale>
<asrwt>  1 0.37008080E+02</asrwt>
<pdfrwt beam="1">  1        1 0.83359051E+00 0.30000000E+03</pdfrwt>
<pdfrwt beam="2">0</pdfrwt>
<totfact> 0.54835721E-04</totfact>
</mgrwt>
<clustering>
<clus scale="   37.008">  1  6  2 -1</clus>
<clus scale="  462.308">  4  5 -1 -1</clus>
<clus scale="  300.000">  1  4  2 -1</clus>
</clustering>
</event>
<event>
 6    1  0.1007353E-011  0.3000000E+03  0.7818608E-02  0.1093470E+00
          1   -1    0    0  502    0  0.00000000000E+00  0.00000000000E+00  0.23774606412E+03  0.23774606412E+03  0.00000000000E+00 0.  1.
         13   -1    0    0    0    0 -0.00000000000E+00 -0.00000000000E+00 -0.27500000000E+03  0.27500000000E+03  0.00000000000E+00 0.  1.
    9000005    2    1    2  501    0  0.30776177890E+02  0.20481772331E+02 -0.57952313744E+02  0.47037745582E+03  0.46532763098E+03 0.  0.
         13    1    3    3    0    0 -0.16401637540E+03  0.23035155450E+02 -0.17673312044E+03  0.24221186108E+03  0.00000000000E+00 0.  1.
          1    1    3    3  501    0  0.19479255329E+03 -0.25533831188E+01  0.11878080670E+03  0.22816559474E+03  0.00000000000E+00 0.  1.
         21    1    1    2  502  501 -0.30776177890E+02 -0.20481772331E+02  0.20698377863E+02  0.42368608302E+02  0.00000000000E+00 0. -1.
<scales pt_clust_4="550.00000" pt_clust_5="550.00000" pt_clust_6="36.96858"></scales>
<mgrwt>
<rscale>  0 0.30000000E+03</rscale>
<asrwt>  1 0.36968583E+02</asrwt>
<pdfrwt beam="1">  1        1 0.86453114E+00 0.30000000E+03</pdfrwt>
<pdfrwt beam="2">0</pdfrwt>
<totfact> 0.28611541E-04</totfact>
</mgrwt>
<clustering>
<clus scale="   36.969">  1  6  2 -1</clus>
<clus scale="  465.328">  4  5 -1 -1</clus>
<clus scale="  300.000">  1  4  2 -1</clus>
</clustering>
</event>
<event>
 6    1  0.1007353E-011  0.3000000E+03  0.7818608E-02  0.1093470E+00
          1   -1    0    0  502    0  0.00000000000E+00  0.00000000000E+00  0.24122825737E+03  0.24122825737E+03  0.00000000000E+00 0.  1.
         13   -1    0    0    0    0 -0.00000000000E+00 -0.00000000000E+00 -0.27500000000E+03  0.27500000000E+03  0.00000000000E+00 0.  1.
    9000005    2    1    2  501    0 -0.43329672347E+02  0.34631425823E+01 -0.28770993999E+02  0.47247369933E+03  0.46958936594E+03 0.  0.
         13    1    3    3    0    0 -0.67480093181E+02  0.17330899570E+03 -0.16869488968E+03  0.25109268562E+03  0.00000000000E+00 0.  1.
          3    1    3    3  501    0  0.24150420834E+02 -0.16984585312E+03  0.13992389568E+03  0.22138101371E+03  0.00000000000E+00 0.  1.
         21    1    1    2  502  501  0.43329672347E+02 -0.34631425823E+01 -0.50007486312E+01  0.43754558038E+02  0.00000000000E+00 0.  1.
<scales pt_clust_4="550.00000" pt_clust_5="550.00000" pt_clust_6="43.46787"></scales>
<mgrwt>
<rscale>  0 0.30000000E+03</rscale>
<asrwt>  1 0.43467870E+02</asrwt>
<pdfrwt beam="1">  1        1 0.87719366E+00 0.30000000E+03</pdfrwt>
<pdfrwt beam="2">0</pdfrwt>
<totfact> 0.20463756E-04</totfact>
</mgrwt>
<clustering>
<clus scale="   43.468">  1  6  2 -1</clus>
<clus scale="  469.589">  4  5 -1 -1</clus>
<clus scale="  300.000">  1  4  2 -1</clus>
</clustering>
</event>
<event>
 6    1  0.1007353E-011  0.3000000E+03  0.7818608E-02  0.1093470E+00
          1   -1    0    0  502    0  0.00000000000E+00  0.00000000000E+00  0.23600356577E+03  0.23600356577E+03  0.00000000000E+00 0.  1.
         13   -1    0    0    0    0 -0.00000000000E+00 -0.00000000000E+00 -0.27500000000E+03  0.27500000000E+03  0.00000000000E+00 0.  1.
    9000005    2    1    2  501    0  0.98782382729E+01 -0.28870462101E+02 -0.42359010404E+02  0.48030519299E+03  0.47745964172E+03 0.  0.
         13    1    3    3    0    0  0.52158172815E+02 -0.17772904305E+03 -0.19076756510E+03  0.26589537723E+03  0.00000000000E+00 0.  1.
          3    1    3    3  501    0 -0.42279934542E+02  0.14885858095E+03  0.14840855470E+03  0.21440981576E+03  0.00000000000E+00 0.  1.
         21    1    1    2  502  501 -0.98782382729E+01  0.28870462101E+02  0.33625761779E+01  0.30698372788E+02  0.00000000000E+00 0.  1.
<scales pt_clust_4="550.00000" pt_clust_5="550.00000" pt_clust_6="30.51366"></scales>
<mgrwt>
<rscale>  0 0.30000000E+03</rscale>
<asrwt>  1 0.30513656E+02</asrwt>
<pdfrwt beam="1">  1        1 0.85819478E+00 0.30000000E+03</pdfrwt>
<pdfrwt beam="2">0</pdfrwt>
<totfact> 0.34689133E-04</totfact>
</mgrwt>
<clustering>
<clus scale="   30.514">  1  6  2 -1</clus>
<clus scale="  477.460">  4  5 -1 -1</clus>
<clus scale="  300.000">  1  4  2 -1</clus>
</clustering>
</event>
<event>
 6    1  0.1007353E-011  0.3000000E+03  0.7818608E-02  0.1093470E+00
          1   -1    0    0  502    0  0.00000000000E+00  0.00000000000E+00  0.23743990962E+03  0.23743990962E+03  0.00000000000E+00 0.  1.
         13   -1    0    0    0    0 -0.00000000000E+00 -0.00000000000E+00 -0.27500000000E+03  0.27500000000E+03  0.00000000000E+00 0.  1.
    9000005    2    1    2  501    0  0.50039047972E+01 -0.43999551381E+02 -0.30390924732E+02  0.46758016686E+03  0.46448531145E+03 0.  0.
         13    1    3    3    0    0  0.20727250587E+03  0.21108184581E+02 -0.11603873298E+03  0.23847942195E+03  0.00000000000E+00 0.  1.
          3    1    3    3  501    0 -0.20226860107E+03 -0.65107735963E+02  0.85647808244E+02  0.22910074491E+03  0.00000000000E+00 0.  1.
         21    1    1    2  502  501 -0.50039047972E+01  0.43999551381E+02 -0.71691656436E+01  0.44859742766E+02  0.00000000000E+00 0. -1.
<scales pt_clust_4="550.00000" pt_clust_5="550.00000" pt_clust_6="44.28320"></scales>
<mgrwt>
<rscale>  0 0.30000000E+03</rscale>
<asrwt>  1 0.44283197E+02</asrwt>
<pdfrwt beam="1">  1        1 0.86341785E+00 0.30000000E+03</pdfrwt>
<pdfrwt beam="2">0</pdfrwt>
<totfact> 0.28464043E-04</totfact>
</mgrwt>
<clustering>
<clus scale="   44.283">  1  6  2 -1</clus>
<clus scale="  464.485">  4  5 -1 -1</clus>
<clus scale="  300.000">  1  4  2 -1</clus>
</clustering>
</event>
<event>
 6    1  0.1007353E-011  0.3000000E+03  0.7818608E-02  0.1093470E+00
          1   -1    0    0  502    0  0.00000000000E+00  0.00000000000E+00  0.21844171998E+03  0.21844171998E+03  0.00000000000E+00 0.  1.
         13   -1    0    0    0    0 -0.00000000000E+00 -0.00000000000E+00 -0.27500000000E+03  0.27500000000E+03  0.00000000000E+00 0.  1.
    9000005    2    1    2  501    0 -0.28843018934E+02 -0.89082443314E+01 -0.53686058925E+02  0.46311802937E+03  0.45900418261E+03 0.  0.
         13    1    3    3    0    0 -0.14482261165E+03 -0.18954868253E+03 -0.67790072943E+02  0.24798747122E+03  0.00000000000E+00 0.  1.
          1    1    3    3  501    0  0.11597959272E+03  0.18064043820E+03  0.14104014018E+02  0.21513055815E+03  0.00000000000E+00 0.  1.
         21    1    1    2  502  501  0.28843018934E+02  0.89082443314E+01 -0.28722210902E+01  0.30323690611E+02  0.00000000000E+00 0.  1.
<scales pt_clust_4="550.00000" pt_clust_5="550.00000" pt_clust_6="30.18736"></scales>
<mgrwt>
<rscale>  0 0.30000000E+03</rscale>
<asrwt>  1 0.30187358E+02</asrwt>
<pdfrwt beam="1">  1        1 0.79433353E+00 0.30000000E+03</pdfrwt>
<pdfrwt beam="2">0</pdfrwt>
<totfact> 0.11736426E-03</totfact>
</mgrwt>
<clustering>
<clus scale="   30.187">  1  6  2 -1</clus>
<clus scale="  459.004">  4  5 -1 -1</clus>
<clus scale="  300.000">  1  4  2 -1</clus>
</clustering>
</event>
<event>
 6    1  0.1007353E-011  0.3000000E+03  0.7818608E-02  0.1093470E+00
          1   -1    0    0  502    0  0.00000000000E+00  0.00000000000E+00  0.22994542236E+03  0.22994542236E+03  0.00000000000E+00 0.  1.
         13   -1    0    0    0    0 -0.00000000000E+00 -0.00000000000E+00 -0.27500000000E+03  0.27500000000E+03  0.00000000000E+00 0.  1.
    9000005    2    1    2  501    0 -0.18266658662E+02 -0.28721570651E+02 -0.58365326727E+02  0.46839716001E+03  0.46349842362E+03 0.  0.
         13    1    3    3    0    0  0.85196193672E+02  0.10782774965E+03  0.14681540219E+03  0.20109693516E+03  0.00000000000E+00 0.  1.
          1    1    3    3  501    0 -0.10346285233E+03 -0.13654932030E+03 -0.20518072892E+03  0.26730022485E+03  0.00000000000E+00 0.  1.
         21    1    1    2  502  501  0.18266658662E+02  0.28721570651E+02  0.13310749084E+02  0.36548262346E+02  0.00000000000E+00 0.  1.
<scales pt_clust_4="550.00000" pt_clust_5="550.00000" pt_clust_6="34.03821"></scales>
<mgrwt>
<rscale>  0 0.30000000E+03</rscale>
<asrwt>  1 0.34038206E+02</asrwt>
<pdfrwt beam="1">  1        1 0.83616517E+00 0.30000000E+03</pdfrwt>
<pdfrwt beam="2">0</pdfrwt>
<totfact> 0.53331916E-04</totfact>
</mgrwt>
<clustering>
<clus scale="   34.038">  1  6  2 -1</clus>
<clus scale="  463.498">  4  5 -1 -1</clus>
<clus scale="  300.000">  1  4  2 -1</clus>
</clustering>
</event>
<event>
 6    1  0.1007353E-011  0.3000000E+03  0.7818608E-02  0.1093470E+00
          1   -1    0    0  502    0  0.00000000000E+00  0.00000000000E+00  0.22974734993E+03  0.22974734993E+03  0.00000000000E+00 0.  1.
         13   -1    0    0    0    0 -0.00000000000E+00 -0.00000000000E+00 -0.27500000000E+03  0.27500000000E+03  0.00000000000E+00 0.  1.
    9000005    2    1    2  501    0 -0.39147247745E+02  0.64927920674E+01 -0.50234031033E+02  0.46475388157E+03  0.46032385253E+03 0.  0.
         13    1    3    3    0    0  0.10329651432E+03  0.12099479616E+03 -0.18028736524E+03  0.24044426513E+03  0.00000000000E+00 0.  1.
          1    1    3    3  501    0 -0.14244376206E+03 -0.11450200409E+03  0.13005333421E+03  0.22430961645E+03  0.00000000000E+00 0.  1.
         21    1    1    2  502  501  0.39147247745E+02 -0.64927920674E+01  0.49813809614E+01  0.39993468356E+02  0.00000000000E+00 0. -1.
<scales pt_clust_4="550.00000" pt_clust_5="550.00000" pt_clust_6="39.68203"></scales>
<mgrwt>
<rscale>  0 0.30000000E+03</rscale>
<asrwt>  1 0.39682028E+02</asrwt>
<pdfrwt beam="1">  1        1 0.83544491E+00 0.30000000E+03</pdfrwt>
<pdfrwt beam="2">0</pdfrwt>
<totfact> 0.52464586E-04</totfact>
</mgrwt>
<clustering>
<clus scale="   39.682">  1  6  2 -1</clus>
<clus scale="  460.324">  4  5 -1 -1</clus>
<clus scale="  300.000">  1  4  2 -1</clus>
</clustering>
</event>
<event>
 6    1  0.1007353E-011  0.3000000E+03  0.7818608E-02  0.1093470E+00
          1   -1    0    0  502    0  0.00000000000E+00  0.00000000000E+00  0.24119038466E+03  0.24119038466E+03  0.00000000000E+00 0.  1.
         13   -1    0    0    0    0 -0.00000000000E+00 -0.00000000000E+00 -0.27500000000E+03  0.27500000000E+03  0.00000000000E+00 0.  1.
    9000005    2    1    2  501    0 -0.28343895559E+02 -0.18613122727E+02 -0.39231609801E+02  0.48185057137E+03  0.47905221967E+03 0.  0.
         13    1    3    3    0    0 -0.13914365086E+03 -0.13193816341E+03  0.14384002853E+03  0.23970521134E+03  0.00000000000E+00 0.  1.
          3    1    3    3  501    0  0.11079975530E+03  0.11332504068E+03 -0.18307163833E+03  0.24214536002E+03  0.00000000000E+00 0.  1.
         21    1    1    2  502  501  0.28343895559E+02  0.18613122727E+02  0.54219944627E+01  0.34339813294E+02  0.00000000000E+00 0.  1.
<scales pt_clust_4="550.00000" pt_clust_5="550.00000" pt_clust_6="33.90907"></scales>
<mgrwt>
<rscale>  0 0.30000000E+03</rscale>
<asrwt>  1 0.33909066E+02</asrwt>
<pdfrwt beam="1">  1        1 0.87705594E+00 0.30000000E+03</pdfrwt>
<pdfrwt beam="2">0</pdfrwt>
<totfact> 0.21495799E-04</totfact>
</mgrwt>
<clustering>
<clus scale="   33.909">  1  6  2 -1</clus>
<clus scale="  479.052">  4  5 -1 -1</clus>
<clus scale="  300.000">  1  4  2 -1</clus>
</clustering>
</event>
<event>
 6    1  0.1007353E-011  0.3000000E+03  0.7818608E-02  0.1093470E+00
          1   -1    0    0  502    0  0.00000000000E+00  0.00000000000E+00  0.22256676963E+03  0.22256676963E+03  0.00000000000E+00 0.  1.
         13   -1    0    0    0    0 -0.00000000000E+00 -0.00000000000E+00 -0.27500000000E+03  0.27500000000E+03  0.00000000000E+00 0.  1.
    9000005    2    1    2  501    0  0.32252709276E+02 -0.27412999948E+01 -0.66207596013E+02  0.46238886278E+03  0.45647810755E+03 0.  0.
         13    1    3    3    0    0  0.11853603878E+03 -0.12225189217E+03  0.13194721147E+03  0.21542141083E+03  0.00000000000E+00 0.  1.
          3    1    3    3  501    0 -0.86283329507E+02  0.11951059218E+03 -0.19815480749E+03  0.24696745195E+03  0.00000000000E+00 0.  1.
         21    1    1    2  502  501 -0.32252709276E+02  0.27412999948E+01  0.13774365646E+02  0.35177906849E+02  0.00000000000E+00 0.  1.
<scales pt_clust_4="550.00000" pt_clust_5="550.00000" pt_clust_6="32.36900"></scales>
<mgrwt>
<rscale>  0 0.30000000E+03</rscale>
<asrwt>  1 0.32368997E+02</asrwt>
<pdfrwt beam="1">  1        1 0.80933371E+00 0.30000000E+03</pdfrwt>
<pdfrwt beam="2">0</pdfrwt>
<totfact> 0.89571154E-04</totfact>
</mgrwt>
<clustering>
<clus scale="   32.369">  1  6  2 -1</clus>
<clus scale="  456.478">  4  5 -1 -1</clus>
<clus scale="  300.000">  1  4  2 -1</clus>
</clustering>
</event>
<event>
 6    1  0.1007353E-011  0.3000000E+03  0.7818608E-02  0.1093470E+00
          1   -1    0    0  502    0  0.00000000000E+00  0.00000000000E+00  0.23635409391E+03  0.23635409391E+03  0.00000000000E+00 0.  1.
         13   -1    0    0    0    0 -0.00000000000E+00 -0.00000000000E+00 -0.27500000000E+03  0.27500000000E+03  0.00000000000E+00 0.  1.
    9000005    2    1    2  501    0  0.21699073919E+02 -0.22640345755E+02 -0.73684734580E+01  0.46706286615E+03  0.46595063201E+03 0.  0.
         13    1    3    3    0    0 -0.70488426640E+02  0.14698781297E+03 -0.15429167500E+03  0.22445479818E+03  0.00000000000E+00 0.  1.
          1    1    3    3  501    0  0.92187500559E+02 -0.16962815873E+03  0.14692320154E+03  0.24260806797E+03  0.00000000000E+00 0.  1.
         21    1    1    2  502  501 -0.21699073919E+02  0.22640345755E+02 -0.31277432628E+02  0.44291227762E+02  0.00000000000E+00 0.  1.
<scales pt_clust_4="550.00000" pt_clust_5="550.00000" pt_clust_6="31.35978"></scales>
<mgrwt>
<rscale>  0 0.30000000E+03</rscale>
<asrwt>  1 0.31359784E+02</asrwt>
<pdfrwt beam="1">  1        1 0.85946943E+00 0.30000000E+03</pdfrwt>
<pdfrwt beam="2">0</pdfrwt>
<totfact> 0.33456780E-04</totfact>
</mgrwt>
<clustering>
<clus scale="   31.360">  1  6  2 -1</clus>
<clus scale="  465.951">  4  5 -1 -1</clus>
<clus scale="  300.000">  1  4  2 -1</clus>
</clustering>
</event>
<event>
 6    1  0.1007353E-011  0.3000000E+03  0.7818608E-02  0.1093470E+00
          1   -1    0    0  502    0  0.00000000000E+00  0.00000000000E+00  0.21916375383E+03  0.21916375383E+03  0.00000000000E+00 0.  1.
         13   -1    0    0    0    0 -0.00000000000E+00 -0.00000000000E+00 -0.27500000000E+03  0.27500000000E+03  0.00000000000E+00 0.  1.
    9000005    2    1    2  501    0  0.53481873479E+01  0.29669876961E+02 -0.65271255735E+02  0.46257381695E+03  0.45695217977E+03 0.  0.
         13    1    3    3    0    0 -0.54777423966E+02 -0.16247044705E+03 -0.16495135442E+03  0.23792049442E+03  0.00000000000E+00 0.  1.
          1    1    3    3  501    0  0.60125611314E+02  0.19214032401E+03  0.99680098686E+02  0.22465332252E+03  0.00000000000E+00 0.  1.
         21    1    1    2  502  501 -0.53481873479E+01 -0.29669876961E+02  0.94350095644E+01  0.31589936883E+02  0.00000000000E+00 0. -1.
<scales pt_clust_4="550.00000" pt_clust_5="550.00000" pt_clust_6="30.14805"></scales>
<mgrwt>
<rscale>  0 0.30000000E+03</rscale>
<asrwt>  1 0.30148046E+02</asrwt>
<pdfrwt beam="1">  1        1 0.79695910E+00 0.30000000E+03</pdfrwt>
<pdfrwt beam="2">0</pdfrwt>
<totfact> 0.11224296E-03</totfact>
</mgrwt>
<clustering>
<clus scale="   30.148">  1  6  2 -1</clus>
<clus scale="  456.952">  4  5 -1 -1</clus>
<clus scale="  300.000">  1  4  2 -1</clus>
</clustering>
</event>
<event>
 6    1  0.1007353E-011  0.3000000E+03  0.7818608E-02  0.1093470E+00
          1   -1    0    0  502    0  0.00000000000E+00  0.00000000000E+00  0.22766888526E+03  0.22766888526E+03  0.00000000000E+00 0.  1.
         13   -1    0    0    0    0 -0.00000000000E+00 -0.00000000000E+00 -0.27500000000E+03  0.27500000000E+03  0.00000000000E+00 0.  1.
    9000005    2    1    2  501    0 -0.24217963481E+02  0.24836873588E+02 -0.49170364596E+02  0.46793039242E+03  0.46404498419E+03 0.  0.
         13    1    3    3    0    0  0.15998518058E+03 -0.28216368464E+02  0.12806302400E+03  0.20686120847E+03  0.00000000000E+00 0.  1.
          1    1    3    3  501    0 -0.18420314407E+03  0.53053242052E+02 -0.17723338859E+03  0.26106918395E+03  0.00000000000E+00 0.  1.
         21    1    1    2  502  501  0.24217963481E+02 -0.24836873588E+02  0.18392498600E+01  0.34738492841E+02  0.00000000000E+00 0.  1.
<scales pt_clust_4="550.00000" pt_clust_5="550.00000" pt_clust_6="34.68977"></scales>
<mgrwt>
<rscale>  0 0.30000000E+03</rscale>
<asrwt>  1 0.34689769E+02</asrwt>
<pdfrwt beam="1">  1        1 0.82788686E+00 0.30000000E+03</pdfrwt>
<pdfrwt beam="2">0</pdfrwt>
<totfact> 0.61696296E-04</totfact>
</mgrwt>
<clustering>
<clus scale="   34.690">  1  6  2 -1</clus>
<clus scale="  464.045">  4  5 -1 -1</clus>
<clus scale="  300.000">  1  4  2 -1</clus>
</clustering>
</event>
<event>
 6    1  0.1007353E-011  0.3000000E+03  0.7818608E-02  0.1093470E+00
          1   -1    0    0  502    0  0.00000000000E+00  0.00000000000E+00  0.23404009251E+03  0.23404009251E+03  0.00000000000E+00 0.  1.
         13   -1    0    0    0    0 -0.00000000000E+00 -0.00000000000E+00 -0.27500000000E+03  0.27500000000E+03  0.00000000000E+00 0.  1.
    9000005    2    1    2  501    0 -0.10554965012E+02 -0.36246531002E+02 -0.41369668919E+02  0.47128580532E+03  0.46794619616E+03 0.  0.
         13    1    3    3    0    0  0.16155803200E+03  0.10257890113E+03 -0.13181972368E+03  0.23237871721E+03  0.00000000000E+00 0.  1.
          3    1    3    3  501    0 -0.17211299701E+03 -0.13882543213E+03  0.90450054762E+02  0.23890708812E+03  0.00000000000E+00 0.  1.
         21    1    1    2  502  501  0.10554965012E+02  0.36246531002E+02  0.40976142510E+00  0.37754287181E+02  0.00000000000E+00 0.  1.
<scales pt_clust_4="550.00000" pt_clust_5="550.00000" pt_clust_6="37.75206"></scales>
<mgrwt>
<rscale>  0 0.30000000E+03</rscale>
<asrwt>  1 0.37752063E+02</asrwt>
<pdfrwt beam="1">  1        1 0.85105488E+00 0.30000000E+03</pdfrwt>
<pdfrwt beam="2">0</pdfrwt>
<totfact> 0.39220979E-04</totfact>
</mgrwt>
<clustering>
<clus scale="   37.752">  1  6  2 -1</clus>
<clus scale="  467.946">  4  5 -1 -1</clus>
<clus scale="  300.000">  1  4  2 -1</clus>
</clustering>
</event>
<event>
 6    1  0.1007353E-011  0.3000000E+03  0.7818608E-02  0.1093470E+00
          1   -1    0    0  502    0  0.00000000000E+00  0.00000000000E+00  0.22931713449E+03  0.22931713449E+03  0.00000000000E+00 0.  1.
         13   -1    0    0    0    0 -0.00000000000E+00 -0.00000000000E+00 -0.27500000000E+03  0.27500000000E+03  0.00000000000E+00 0.  1.
    9000005    2    1    2  501    0  0.27975507647E+02 -0.14708409761E+02 -0.59762916459E+02  0.46971635154E+03  0.46482564299E+03 0.  0.
         13    1    3    3    0    0 -0.48867426674E+02  0.45347984500E+02 -0.24849091282E+03  0.25727844613E+03  0.00000000000E+00 0.  1.
          3    1    3    3  501    0  0.76842934322E+02 -0.60056394261E+02  0.18872799636E+03  0.21243790542E+03  0.00000000000E+00 0.  1.
         21    1    1    2  502  501 -0.27975507647E+02  0.14708409761E+02  0.14080050948E+02  0.34600782946E+02  0.00000000000E+00 0.  1.
<scales pt_clust_4="550.00000" pt_clust_5="550.00000" pt_clust_6="31.60643"></scales>
<mgrwt>
<rscale>  0 0.30000000E+03</rscale>
<asrwt>  1 0.31606429E+02</asrwt>
<pdfrwt beam="1">  1        1 0.83388049E+00 0.30000000E+03</pdfrwt>
<pdfrwt beam="2">0</pdfrwt>
<totfact> 0.56205771E-04</totfact>
</mgrwt>
<clustering>
<clus scale="   31.606">  1  6  2 -1</clus>
<clus scale="  464.826">  4  5 -1 -1</clus>
<clus scale="  300.000">  1  4  2 -1</clus>
</clustering>
</event>
<event>
 6    1  0.1007353E-011  0.3000000E+03  0.7818608E-02  0.1093470E+00
          1   -1    0    0  502    0  0.00000000000E+00  0.00000000000E+00  0.23907365819E+03  0.23907365819E+03  0.00000000000E+00 0.  1.
         13   -1    0    0    0    0 -0.00000000000E+00 -0.00000000000E+00 -0.27500000000E+03  0.27500000000E+03  0.00000000000E+00 0.  1.
    9000005    2    1    2  501    0  0.34235597592E+02 -0.15261110547E+02 -0.54335609336E+02  0.47231388366E+03  0.46767838161E+03 0.  0.
         13    1    3    3    0    0 -0.36494736030E+02 -0.97489246651E+02 -0.23757498371E+03  0.25937982161E+03  0.00000000000E+00 0.  1.
          3    1    3    3  501    0  0.70730333622E+02  0.82228136105E+02  0.18323937438E+03  0.21293406206E+03  0.00000000000E+00 0.  1.
         21    1    1    2  502  501 -0.34235597592E+02  0.15261110547E+02  0.18409267523E+02  0.41759774525E+02  0.00000000000E+00 0.  1.
<scales pt_clust_4="550.00000" pt_clust_5="550.00000" pt_clust_6="37.48303"></scales>
<mgrwt>
<rscale>  0 0.30000000E+03</rscale>
<asrwt>  1 0.37483031E+02</asrwt>
<pdfrwt beam="1">  1        1 0.86935876E+00 0.30000000E+03</pdfrwt>
<pdfrwt beam="2">0</pdfrwt>
<totfact> 0.25385560E-04</totfact>
</mgrwt>
<clustering>
<clus scale="   37.483">  1  6  2 -1</clus>
<clus scale="  467.678">  4  5 -1 -1</clus>
<clus scale="  300.000">  1  4  2 -1</clus>
</clustering>
</event>
<event>
 6    1  0.1007353E-011  0.3000000E+03  0.7818608E-02  0.1093470E+00
          1   -1    0    0  502    0  0.00000000000E+00  0.00000000000E+00  0.22978910219E+03  0.22978910219E+03  0.00000000000E+00 0.  1.
         13   -1    0    0    0    0 -0.00000000000E+00 -0.00000000000E+00 -0.27500000000E+03  0.27500000000E+03  0.00000000000E+00 0.  1.
    9000005    2    1    2  501    0 -0.31698554009E+02  0.82207344890E+01 -0.60992423465E+02  0.46843754990E+03  0.46329394949E+03 0.  0.
         13    1    3    3    0    0 -0.12747716284E+03 -0.10517510711E+03 -0.20385097339E+03  0.26242608398E+03  0.00000000000E+00 0.  1.
          3    1    3    3  501    0  0.95778608834E+02  0.11339584160E+03  0.14285854993E+03  0.20601146592E+03  0.00000000000E+00 0.  1.
         21    1    1    2  502  501  0.31698554009E+02 -0.82207344890E+01  0.15781525652E+02  0.36351552288E+02  0.00000000000E+00 0. -1.
<scales pt_clust_4="550.00000" pt_clust_5="550.00000" pt_clust_6="32.74720"></scales>
<mgrwt>
<rscale>  0 0.30000000E+03</rscale>
<asrwt>  1 0.32747195E+02</asrwt>
<pdfrwt beam="1">  1        1 0.83559674E+00 0.30000000E+03</pdfrwt>
<pdfrwt beam="2">0</pdfrwt>
<totfact> 0.54235206E-04</totfact>
</mgrwt>
<clustering>
<clus scale="   32.747">  1  6  2 -1</clus>
<clus scale="  463.294">  4  5 -1 -1</clus>
<clus scale="  300.000">  1  4  2 -1</clus>
</clustering>
</event>
<event>
 6    1  0.1007353E-011  0.3000000E+03  0.7818608E-02  0.1093470E+00
          1   -1    0    0  502    0  0.00000000000E+00  0.00000000000E+00  0.22038682712E+03  0.22038682712E+03  0.00000000000E+00 0.  1.
         13   -1    0    0    0    0 -0.00000000000E+00 -0.00000000000E+00 -0.27500000000E+03  0.27500000000E+03  0.00000000000E+00 0.  1.
    9000005    2    1    2  501    0  0.25557663540E+02  0.16186008168E+02 -0.53117556894E+02  0.46509792002E+03  0.46106335718E+03 0.  0.
         13    1    3    3    0    0 -0.70159158505E+02 -0.30424891289E+02  0.18722008109E+03  0.20223585314E+03  0.00000000000E+00 0.  1.
          1    1    3    3  501    0  0.95716822045E+02  0.46610899457E+02 -0.24033763799E+03  0.26286206688E+03  0.00000000000E+00 0.  1.
         21    1    1    2  502  501 -0.25557663540E+02 -0.16186008168E+02 -0.14956159830E+01  0.30288907098E+02  0.00000000000E+00 0. -1.
<scales pt_clust_4="550.00000" pt_clust_5="550.00000" pt_clust_6="30.25196"></scales>
<mgrwt>
<rscale>  0 0.30000000E+03</rscale>
<asrwt>  1 0.30251959E+02</asrwt>
<pdfrwt beam="1">  1        1 0.80140664E+00 0.30000000E+03</pdfrwt>
<pdfrwt beam="2">0</pdfrwt>
<totfact> 0.10413783E-03</totfact>
</mgrwt>
<clustering>
<clus scale="   30.252">  1  6  2 -1</clus>
<clus scale="  461.063">  4  5 -1 -1</clus>
<clus scale="  300.000">  1  4  2 -1</clus>
</clustering>
</event>
<event>
 6    1  0.1007353E-011  0.3000000E+03  0.7818608E-02  0.1093470E+00
          1   -1    0    0  502    0  0.00000000000E+00  0.00000000000E+00  0.24780374338E+03  0.24780374338E+03  0.00000000000E+00 0.  1.
         13   -1    0    0    0    0 -0.00000000000E+00 -0.00000000000E+00 -0.27500000000E+03  0.27500000000E+03  0.00000000000E+00 0.  1.
    9000005    2    1    2  501    0  0.35967936389E+02 -0.25175762608E+01 -0.68533680785E+02  0.46795109281E+03  0.46149900240E+03 0.  0.
         13    1    3    3    0    0 -0.95175028146E+02 -0.12070297477E+03 -0.19681389516E+03  0.24972625699E+03  0.00000000000E+00 0.  1.
          3    1    3    3  501    0  0.13114296453E+03  0.11818539851E+03  0.12828021437E+03  0.21822483582E+03  0.00000000000E+00 0.  1.
         21    1    1    2  502  501 -0.35967936389E+02  0.25175762608E+01  0.41337424162E+02  0.54852650571E+02  0.00000000000E+00 0.  1.
<scales pt_clust_4="550.00000" pt_clust_5="550.00000" pt_clust_6="36.05594"></scales>
<mgrwt>
<rscale>  0 0.30000000E+03</rscale>
<asrwt>  1 0.36055938E+02</asrwt>
<pdfrwt beam="1">  1        1 0.90110452E+00 0.30000000E+03</pdfrwt>
<pdfrwt beam="2">0</pdfrwt>
<totfact> 0.10625353E-04</totfact>
</mgrwt>
<clustering>
<clus scale="   36.056">  1  6  2 -1</clus>
<clus scale="  461.499">  4  5 -1 -1</clus>
<clus scale="  300.000">  1  4  2 -1</clus>
</clustering>
</event>
<event>
 6    1  0.1007353E-011  0.3000000E+03  0.7818608E-02  0.1093470E+00
          1   -1    0    0  502    0  0.00000000000E+00  0.00000000000E+00  0.23358445933E+03  0.23358445933E+03  0.00000000000E+00 0.  1.
         13   -1    0    0    0    0 -0.00000000000E+00 -0.00000000000E+00 -0.27500000000E+03  0.27500000000E+03  0.00000000000E+00 0.  1.
    9000005    2    1    2  501    0 -0.31577958151E+02  0.24547557266E+01 -0.57846634764E+02  0.47290289378E+03  0.46828166794E+03 0.  0.
         13    1    3    3    0    0  0.13606766539E+03 -0.99587435485E+02  0.12087016067E+03  0.20746484669E+03  0.00000000000E+00 0.  1.
          1    1    3    3  501    0 -0.16764562354E+03  0.10204219121E+03 -0.17871679543E+03  0.26543804710E+03  0.00000000000E+00 0.  1.
         21    1    1    2  502  501  0.31577958151E+02 -0.24547557266E+01  0.16431094094E+02  0.35681565546E+02  0.00000000000E+00 0. -1.
<scales pt_clust_4="550.00000" pt_clust_5="550.00000" pt_clust_6="31.67323"></scales>
<mgrwt>
<rscale>  0 0.30000000E+03</rscale>
<asrwt>  1 0.31673226E+02</asrwt>
<pdfrwt beam="1">  1        1 0.84939803E+00 0.30000000E+03</pdfrwt>
<pdfrwt beam="2">0</pdfrwt>
<totfact> 0.42014282E-04</totfact>
</mgrwt>
<clustering>
<clus scale="   31.673">  1  6  2 -1</clus>
<clus scale="  468.282">  4  5 -1 -1</clus>
<clus scale="  300.000">  1  4  2 -1</clus>
</clustering>
</event>
<event>
 6    1  0.1007353E-011  0.3000000E+03  0.7818608E-02  0.1093470E+00
          1   -1    0    0  502    0  0.00000000000E+00  0.00000000000E+00  0.23454452048E+03  0.23454452048E+03  0.00000000000E+00 0.  1.
         13   -1    0    0    0    0 -0.00000000000E+00 -0.00000000000E+00 -0.27500000000E+03  0.27500000000E+03  0.00000000000E+00 0.  1.
    9000005    2    1    2  501    0 -0.30217697406E+02  0.20529141242E+02 -0.46796101800E+02  0.47246678636E+03  0.46872212897E+03 0.  0.
         13    1    3    3    0    0 -0.24245424405E+03  0.10690482496E+02  0.34198774587E+02  0.24508754162E+03  0.00000000000E+00 0.  1.
          1    1    3    3  501    0  0.21223654664E+03  0.98386587457E+01 -0.80994876387E+02  0.22737924474E+03  0.00000000000E+00 0.  1.
         21    1    1    2  502  501  0.30217697406E+02 -0.20529141242E+02  0.63406222765E+01  0.37077734120E+02  0.00000000000E+00 0.  1.
<scales pt_clust_4="550.00000" pt_clust_5="550.00000" pt_clust_6="36.53156"></scales>
<mgrwt>
<rscale>  0 0.30000000E+03</rscale>
<asrwt>  1 0.36531560E+02</asrwt>
<pdfrwt beam="1">  1        1 0.85288917E+00 0.30000000E+03</pdfrwt>
<pdfrwt beam="2">0</pdfrwt>
<totfact> 0.37897054E-04</totfact>
</mgrwt>
<clustering>
<clus scale="   36.532">  1  6  2 -1</clus>
<clus scale="  468.722">  4  5 -1 -1</clus>
<clus scale="  300.000">  1  4  2 -1</clus>
</clustering>
</event>
<event>
 6    1  0.1007353E-011  0.3000000E+03  0.7818608E-02  0.1093470E+00
          1   -1    0    0  502    0  0.00000000000E+00  0.00000000000E+00  0.24311936922E+03  0.24311936922E+03  0.00000000000E+00 0.  1.
         13   -1    0    0    0    0 -0.00000000000E+00 -0.00000000000E+00 -0.27500000000E+03  0.27500000000E+03  0.00000000000E+00 0.  1.
    9000005    2    1    2  501    0 -0.27546463460E+02  0.15629485841E+02 -0.47157577776E+02  0.48295584285E+03  0.47960339920E+03 0.  0.
         13    1    3    3    0    0  0.10067153583E+03  0.16728748331E+03 -0.16186464496E+03  0.25361392605E+03  0.00000000000E+00 0.  1.
          3    1    3    3  501    0 -0.12821799929E+03 -0.15165799747E+03  0.11470706719E+03  0.22934191680E+03  0.00000000000E+00 0.  1.
         21    1    1    2  502  501  0.27546463460E+02 -0.15629485841E+02  0.15276946992E+02  0.35163526362E+02  0.00000000000E+00 0. -1.
<scales pt_clust_4="550.00000" pt_clust_5="550.00000" pt_clust_6="31.67157"></scales>
<mgrwt>
<rscale>  0 0.30000000E+03</rscale>
<asrwt>  1 0.31671572E+02</asrwt>
<pdfrwt beam="1">  1        1 0.88407043E+00 0.30000000E+03</pdfrwt>
<pdfrwt beam="2">0</pdfrwt>
<totfact> 0.17805861E-04</totfact>
</mgrwt>
<clustering>
<clus scale="   31.672">  1  6  2 -1</clus>
<clus scale="  479.603">  4  5 -1 -1</clus>
<clus scale="  300.000">  1  4  2 -1</clus>
</clustering>
</event>
<event>
 6    1  0.1007353E-011  0.3000000E+03  0.7818608E-02  0.1093470E+00
          1   -1    0    0  502    0  0.00000000000E+00  0.00000000000E+00  0.22634435550E+03  0.22634435550E+03  0.00000000000E+00 0.  1.
         13   -1    0    0    0    0 -0.00000000000E+00 -0.00000000000E+00 -0.27500000000E+03  0.27500000000E+03  0.00000000000E+00 0.  1.
    9000005    2    1    2  501    0  0.30463985710E+02  0.56516188414E+01 -0.69791203006E+02  0.46383826194E+03  0.45750970045E+03 0.  0.
         13    1    3    3    0    0  0.23400807264E+02  0.13190115397E+02  0.19600712900E+03  0.19783925683E+03  0.00000000000E+00 0.  1.
          3    1    3    3  501    0  0.70631784459E+01 -0.75384965552E+01 -0.26579833201E+03  0.26599900511E+03  0.00000000000E+00 0.  1.
         21    1    1    2  502  501 -0.30463985710E+02 -0.56516188414E+01  0.21135558510E+02  0.37506093563E+02  0.00000000000E+00 0. -1.
<scales pt_clust_4="550.00000" pt_clust_5="550.00000" pt_clust_6="30.98379"></scales>
<mgrwt>
<rscale>  0 0.30000000E+03</rscale>
<asrwt>  1 0.30983790E+02</asrwt>
<pdfrwt beam="1">  1        1 0.82307038E+00 0.30000000E+03</pdfrwt>
<pdfrwt beam="2">0</pdfrwt>
<totfact> 0.69546660E-04</totfact>
</mgrwt>
<clustering>
<clus scale="   30.984">  1  6  2 -1</clus>
<clus scale="  457.510">  4  5 -1 -1</clus>
<clus scale="  300.000">  1  4  2 -1</clus>
</clustering>
</event>
<event>
 6    1  0.1007353E-011  0.3000000E+03  0.7818608E-02  0.1093470E+00
          1   -1    0    0  502    0  0.00000000000E+00  0.00000000000E+00  0.23121021803E+03  0.23121021803E+03  0.00000000000E+00 0.  1.
         13   -1    0    0    0    0 -0.00000000000E+00 -0.00000000000E+00 -0.27500000000E+03  0.27500000000E+03  0.00000000000E+00 0.  1.
    9000005    2    1    2  501    0  0.80060242558E+01  0.31910220177E+02 -0.58901342755E+02  0.47000638059E+03  0.46513898035E+03 0.  0.
         13    1    3    3    0    0 -0.97230044500E+01 -0.72760087608E+02  0.18768973527E+03  0.20153412587E+03  0.00000000000E+00 0.  1.
          3    1    3    3  501    0  0.17729028706E+02  0.10467030778E+03 -0.24659107803E+03  0.26847225472E+03  0.00000000000E+00 0.  1.
         21    1    1    2  502  501 -0.80060242558E+01 -0.31910220177E+02  0.15111560782E+02  0.36203837440E+02  0.00000000000E+00 0.  1.
<scales pt_clust_4="550.00000" pt_clust_5="550.00000" pt_clust_6="32.89922"></scales>
<mgrwt>
<rscale>  0 0.30000000E+03</rscale>
<asrwt>  1 0.32899218E+02</asrwt>
<pdfrwt beam="1">  1        1 0.84076443E+00 0.30000000E+03</pdfrwt>
<pdfrwt beam="2">0</pdfrwt>
<totfact> 0.49603399E-04</totfact>
</mgrwt>
<clustering>
<clus scale="   32.899">  1  6  2 -1</clus>
<clus scale="  465.139">  4  5 -1 -1</clus>
<clus scale="  300.000">  1  4  2 -1</clus>
</clustering>
</event>
<event>
 6    1  0.1007353E-011  0.3000000E+03  0.7818608E-02  0.1093470E+00
          1   -1    0    0  502    0  0.00000000000E+00  0.00000000000E+00  0.24809724842E+03  0.24809724842E+03  0.00000000000E+00 0.  1.
         13   -1    0    0    0    0 -0.00000000000E+00 -0.00000000000E+00 -0.27500000000E+03  0.27500000000E+03  0.00000000000E+00 0.  1.
    9000005    2    1    2  501    0  0.10328913567E+02  0.36170370041E+02 -0.66894436318E+02  0.46819445275E+03  0.46186166527E+03 0.  0.
         13    1    3    3    0    0  0.19669422178E+03  0.73293778035E+02 -0.15282067675E+03  0.25964351335E+03  0.00000000000E+00 0.  1.
          1    1    3    3  501    0 -0.18636530822E+03 -0.37123407994E+02  0.85926240435E+02  0.20855093940E+03  0.00000000000E+00 0.  1.
         21    1    1    2  502  501 -0.10328913567E+02 -0.36170370041E+02  0.39991684738E+02  0.54902795671E+02  0.00000000000E+00 0.  1.
<scales pt_clust_4="550.00000" pt_clust_5="550.00000" pt_clust_6="37.61625"></scales>
<mgrwt>
<rscale>  0 0.30000000E+03</rscale>
<asrwt>  1 0.37616248E+02</asrwt>
<pdfrwt beam="1">  1        1 0.90217181E+00 0.30000000E+03</pdfrwt>
<pdfrwt beam="2">0</pdfrwt>
<totfact> 0.10182219E-04</totfact>
</mgrwt>
<clustering>
<clus scale="   37.616">  1  6  2 -1</clus>
<clus scale="  461.862">  4  5 -1 -1</clus>
<clus scale="  300.000">  1  4  2 -1</clus>
</clustering>
</event>
<event>
 6    1  0.1007353E-011  0.3000000E+03  0.7818608E-02  0.1093470E+00
          1   -1    0    0  502    0  0.00000000000E+00  0.00000000000E+00  0.22546754756E+03  0.22546754756E+03  0.00000000000E+00 0.  1.
         13   -1    0    0    0    0 -0.00000000000E+00 -0.00000000000E+00 -0.27500000000E+03  0.27500000000E+03  0.00000000000E+00 0.  1.
    9000005    2    1    2  501    0 -0.26438238299E+02 -0.18887951682E+02 -0.37103220326E+02  0.46567931717E+03  0.46306030095E+03 0.  0.
         13    1    3    3    0    0  0.72545370463E+02  0.30791446382E+02  0.19400675036E+03  0.20940287279E+03  0.00000000000E+00 0.  1.
          3    1    3    3  501    0 -0.98983608762E+02 -0.49679398064E+02 -0.23110997069E+03  0.25627644438E+03  0.00000000000E+00 0.  1.
         21    1    1    2  502  501  0.26438238299E+02  0.18887951682E+02 -0.12429232111E+02  0.34788230394E+02  0.00000000000E+00 0.  1.
<scales pt_clust_4="550.00000" pt_clust_5="550.00000" pt_clust_6="32.49209"></scales>
<mgrwt>
<rscale>  0 0.30000000E+03</rscale>
<asrwt>  1 0.32492095E+02</asrwt>
<pdfrwt beam="1">  1        1 0.81988199E+00 0.30000000E+03</pdfrwt>
<pdfrwt beam="2">0</pdfrwt>
<totfact> 0.73521549E-04</totfact>
</mgrwt>
<clustering>
<clus scale="   32.492">  1  6  2 -1</clus>
<clus scale="  463.060">  4  5 -1 -1</clus>
<clus scale="  300.000">  1  4  2 -1</clus>
</clustering>
</event>
<event>
 6    1  0.1007353E-011  0.3000000E+03  0.7818608E-02  0.1093470E+00
          1   -1    0    0  502    0  0.00000000000E+00  0.00000000000E+00  0.22032294031E+03  0.22032294031E+03  0.00000000000E+00 0.  1.
         13   -1    0    0    0    0 -0.00000000000E+00 -0.00000000000E+00 -0.27500000000E+03  0.27500000000E+03  0.00000000000E+00 0.  1.
    9000005    2    1    2  501    0  0.22008858598E+02 -0.21149891228E+02 -0.59440423553E+02  0.46442961755E+03  0.45959764790E+03 0.  0.
         13    1    3    3    0    0 -0.14367013947E+03  0.32486836550E+02 -0.19454834379E+03  0.24401959265E+03  0.00000000000E+00 0.  1.
          3    1    3    3  501    0  0.16567899807E+03 -0.53636727778E+02  0.13510792023E+03  0.22041002491E+03  0.00000000000E+00 0.  1.
         21    1    1    2  502  501 -0.22008858598E+02  0.21149891228E+02  0.47633638627E+01  0.30893322758E+02  0.00000000000E+00 0.  1.
<scales pt_clust_4="550.00000" pt_clust_5="550.00000" pt_clust_6="30.52389"></scales>
<mgrwt>
<rscale>  0 0.30000000E+03</rscale>
<asrwt>  1 0.30523888E+02</asrwt>
<pdfrwt beam="1">  1        1 0.80117433E+00 0.30000000E+03</pdfrwt>
<pdfrwt beam="2">0</pdfrwt>
<totfact> 0.10436317E-03</totfact>
</mgrwt>
<clustering>
<clus scale="   30.524">  1  6  2 -1</clus>
<clus scale="  459.598">  4  5 -1 -1</clus>
<clus scale="  300.000">  1  4  2 -1</clus>
</clustering>
</event>
<event>
 6    1  0.1007353E-011  0.3000000E+03  0.7818608E-02  0.1093470E+00
          1   -1    0    0  502    0  0.00000000000E+00  0.00000000000E+00  0.26031171471E+03  0.26031171471E+03  0.00000000000E+00 0.  1.
         13   -1    0    0    0    0 -0.00000000000E+00 -0.00000000000E+00 -0.27500000000E+03  0.27500000000E+03  0.00000000000E+00 0.  1.
    9000005    2    1    2  501    0  0.33076484510E+02 -0.31610875668E+02 -0.34378579219E+02  0.48550198712E+03  0.48211719685E+03 0.  0.
         13    1    3    3    0    0  0.19005916579E+03 -0.15962420366E+03  0.69655323745E+02  0.25778719328E+03  0.00000000000E+00 0.  1.
          1    1    3    3  501    0 -0.15698268128E+03  0.12801332799E+03 -0.10403390296E+03  0.22771479383E+03  0.00000000000E+00 0.  1.
         21    1    1    2  502  501 -0.33076484510E+02  0.31610875668E+02  0.19690293932E+02  0.49809727596E+02  0.00000000000E+00 0.  1.
<scales pt_clust_4="550.00000" pt_clust_5="550.00000" pt_clust_6="45.75261"></scales>
<mgrwt>
<rscale>  0 0.30000000E+03</rscale>
<asrwt>  1 0.45752610E+02</asrwt>
<pdfrwt beam="1">  1        1 0.94658805E+00 0.30000000E+03</pdfrwt>
<pdfrwt beam="2">0</pdfrwt>
<totfact> 0.13781575E-05</totfact>
</mgrwt>
<clustering>
<clus scale="   45.753">  1  6  2 -1</clus>
<clus scale="  482.117">  4  5 -1 -1</clus>
<clus scale="  300.000">  1  4  2 -1</clus>
</clustering>
</event>
<event>
 6    1  0.1007353E-011  0.3000000E+03  0.7818608E-02  0.1093470E+00
          1   -1    0    0  502    0  0.00000000000E+00  0.00000000000E+00  0.23466487645E+03  0.23466487645E+03  0.00000000000E+00 0.  1.
         13   -1    0    0    0    0 -0.00000000000E+00 -0.00000000000E+00 -0.27500000000E+03  0.27500000000E+03  0.00000000000E+00 0.  1.
    9000005    2    1    2  501    0  0.41672437185E+02 -0.19176836937E+02 -0.52767625767E+02  0.46213688252E+03  0.45681695761E+03 0.  0.
         13    1    3    3    0    0  0.22418203998E+03  0.93817698154E+02 -0.46237764855E+02  0.24738083684E+03  0.00000000000E+00 0.  1.
          3    1    3    3  501    0 -0.18250960279E+03 -0.11299453509E+03 -0.65298609121E+01  0.21475604568E+03  0.00000000000E+00 0.  1.
         21    1    1    2  502  501 -0.41672437185E+02  0.19176836937E+02  0.12432502217E+02  0.47527993933E+02  0.00000000000E+00 0.  1.
<scales pt_clust_4="550.00000" pt_clust_5="550.00000" pt_clust_6="45.87312"></scales>
<mgrwt>
<rscale>  0 0.30000000E+03</rscale>
<asrwt>  1 0.45873120E+02</asrwt>
<pdfrwt beam="1">  1        1 0.85332682E+00 0.30000000E+03</pdfrwt>
<pdfrwt beam="2">0</pdfrwt>
<totfact> 0.36008479E-04</totfact>
</mgrwt>
<clustering>
<clus scale="   45.873">  1  6  2 -1</clus>
<clus scale="  456.817">  4  5 -1 -1</clus>
<clus scale="  300.000">  1  4  2 -1</clus>
</clustering>
</event>
<event>
 6    1  0.1007353E-011  0.3000000E+03  0.7818608E-02  0.1093470E+00
          1   -1    0    0  502    0  0.00000000000E+00  0.00000000000E+00  0.23126166242E+03  0.23126166242E+03  0.00000000000E+00 0.  1.
         13   -1    0    0    0    0 -0.00000000000E+00 -0.00000000000E+00 -0.27500000000E+03  0.27500000000E+03  0.00000000000E+00 0.  1.
    9000005    2    1    2  501    0 -0.35618515464E+02 -0.24942348817E+01 -0.31046016681E+02  0.46836713958E+03  0.46597105322E+03 0.  0.
         13    1    3    3    0    0  0.11723060657E+03 -0.13135189627E+03  0.12402513005E+03  0.21535684028E+03  0.00000000000E+00 0.  1.
          1    1    3    3  501    0 -0.15284912204E+03  0.12885766138E+03 -0.15507114673E+03  0.25301029930E+03  0.00000000000E+00 0.  1.
         21    1    1    2  502  501  0.35618515464E+02  0.24942348817E+01 -0.12692320899E+02  0.37894522840E+02  0.00000000000E+00 0. -1.
<scales pt_clust_4="550.00000" pt_clust_5="550.00000" pt_clust_6="35.70576"></scales>
<mgrwt>
<rscale>  0 0.30000000E+03</rscale>
<asrwt>  1 0.35705758E+02</asrwt>
<pdfrwt beam="1">  1        1 0.84095150E+00 0.30000000E+03</pdfrwt>
<pdfrwt beam="2">0</pdfrwt>
<totfact> 0.48680919E-04</totfact>
</mgrwt>
<clustering>
<clus scale="   35.706">  1  6  2 -1</clus>
<clus scale="  465.971">  4  5 -1 -1</clus>
<clus scale="  300.000">  1  4  2 -1</clus>
</clustering>
</event>
<event>
 6    1  0.1007353E-011  0.3000000E+03  0.7818608E-02  0.1093470E+00
          1   -1    0    0  502    0  0.00000000000E+00  0.00000000000E+00  0.23905311695E+03  0.23905311695E+03  0.00000000000E+00 0.  1.
         13   -1    0    0    0    0 -0.00000000000E+00 -0.00000000000E+00 -0.27500000000E+03  0.27500000000E+03  0.00000000000E+00 0.  1.
    9000005    2    1    2  501    0 -0.16771115896E+02  0.30707831826E+02 -0.41728822235E+02  0.47858944420E+03  0.47548114603E+03 0.  0.
         13    1    3    3    0    0 -0.10017387154E+03 -0.67497413824E+02 -0.22452173320E+03  0.25495237612E+03  0.00000000000E+00 0.  1.
          3    1    3    3  501    0  0.83402755645E+02  0.98205245650E+02  0.18279291096E+03  0.22363706808E+03  0.00000000000E+00 0.  1.
         21    1    1    2  502  501  0.16771115896E+02 -0.30707831826E+02  0.57819391827E+01  0.35463672745E+02  0.00000000000E+00 0. -1.
<scales pt_clust_4="550.00000" pt_clust_5="550.00000" pt_clust_6="34.98916"></scales>
<mgrwt>
<rscale>  0 0.30000000E+03</rscale>
<asrwt>  1 0.34989159E+02</asrwt>
<pdfrwt beam="1">  1        1 0.86928406E+00 0.30000000E+03</pdfrwt>
<pdfrwt beam="2">0</pdfrwt>
<totfact> 0.25758024E-04</totfact>
</mgrwt>
<clustering>
<clus scale="   34.989">  1  6  2 -1</clus>
<clus scale="  475.481">  4  5 -1 -1</clus>
<clus scale="  300.000">  1  4  2 -1</clus>
</clustering>
</event>
<event>
 6    1  0.1007353E-011  0.3000000E+03  0.7818608E-02  0.1093470E+00
          1   -1    0    0  502    0  0.00000000000E+00  0.00000000000E+00  0.23169673361E+03  0.23169673361E+03  0.00000000000E+00 0.  1.
         13   -1    0    0    0    0 -0.00000000000E+00 -0.00000000000E+00 -0.27500000000E+03  0.27500000000E+03  0.00000000000E+00 0.  1.
    9000005    2    1    2  501    0 -0.16030765492E+02  0.33695957629E+02 -0.60004246872E+02  0.46581488248E+03  0.46042436089E+03 0.  0.
         13    1    3    3    0    0 -0.51264917701E+02 -0.15753353432E+03 -0.17413252217E+03  0.24034775118E+03  0.00000000000E+00 0.  1.
          3    1    3    3  501    0  0.35234152209E+02  0.19122949195E+03  0.11412827530E+03  0.22546713130E+03  0.00000000000E+00 0.  1.
         21    1    1    2  502  501  0.16030765492E+02 -0.33695957629E+02  0.16700980487E+02  0.40881851132E+02  0.00000000000E+00 0.  1.
<scales pt_clust_4="550.00000" pt_clust_5="550.00000" pt_clust_6="37.31492"></scales>
<mgrwt>
<rscale>  0 0.30000000E+03</rscale>
<asrwt>  1 0.37314917E+02</asrwt>
<pdfrwt beam="1">  1        1 0.84253358E+00 0.30000000E+03</pdfrwt>
<pdfrwt beam="2">0</pdfrwt>
<totfact> 0.46868388E-04</totfact>
</mgrwt>
<clustering>
<clus scale="   37.315">  1  6  2 -1</clus>
<clus scale="  460.424">  4  5 -1 -1</clus>
<clus scale="  300.000">  1  4  2 -1</clus>
</clustering>
</event>
<event>
 6    1  0.1007353E-011  0.3000000E+03  0.7818608E-02  0.1093470E+00
          1   -1    0    0  502    0  0.00000000000E+00  0.00000000000E+00  0.24102002217E+03  0.24102002217E+03  0.00000000000E+00 0.  1.
         13   -1    0    0    0    0 -0.00000000000E+00 -0.00000000000E+00 -0.27500000000E+03  0.27500000000E+03  0.00000000000E+00 0.  1.
    9000005    2    1    2  501    0  0.36105521056E+02  0.97170474335E+01 -0.52266424719E+02  0.47439762674E+03  0.47002478599E+03 0.  0.
         13    1    3    3    0    0  0.14718319076E+03  0.53362740970E+02  0.16441064146E+03  0.22702716311E+03  0.00000000000E+00 0.  1.
          3    1    3    3  501    0 -0.11107766971E+03 -0.43645693536E+02 -0.21667706617E+03  0.24737046363E+03  0.00000000000E+00 0.  1.
         21    1    1    2  502  501 -0.36105521056E+02 -0.97170474335E+01  0.18286446894E+02  0.41622395432E+02  0.00000000000E+00 0.  1.
<scales pt_clust_4="550.00000" pt_clust_5="550.00000" pt_clust_6="37.39023"></scales>
<mgrwt>
<rscale>  0 0.30000000E+03</rscale>
<asrwt>  1 0.37390235E+02</asrwt>
<pdfrwt beam="1">  1        1 0.87643644E+00 0.30000000E+03</pdfrwt>
<pdfrwt beam="2">0</pdfrwt>
<totfact> 0.21442311E-04</totfact>
</mgrwt>
<clustering>
<clus scale="   37.390">  1  6  2 -1</clus>
<clus scale="  470.025">  4  5 -1 -1</clus>
<clus scale="  300.000">  1  4  2 -1</clus>
</clustering>
</event>
<event>
 6    1  0.1007353E-011  0.3000000E+03  0.7818608E-02  0.1093470E+00
          1   -1    0    0  502    0  0.00000000000E+00  0.00000000000E+00  0.24761692747E+03  0.24761692747E+03  0.00000000000E+00 0.  1.
         13   -1    0    0    0    0 -0.00000000000E+00 -0.00000000000E+00 -0.27500000000E+03  0.27500000000E+03  0.00000000000E+00 0.  1.
    9000005    2    1    2  501    0  0.43241588360E+01  0.31248277950E+02 -0.74927815355E+02  0.46555857318E+03  0.45840533845E+03 0.  0.
         13    1    3    3    0    0  0.19781040755E+03 -0.60227435087E+02 -0.13040833135E+03  0.24446397313E+03  0.00000000000E+00 0.  1.
          3    1    3    3  501    0 -0.19348624871E+03  0.91475713037E+02  0.55480515991E+02  0.22109460005E+03  0.00000000000E+00 0.  1.
         21    1    1    2  502  501 -0.43241588360E+01 -0.31248277950E+02  0.47544742826E+02  0.57058354295E+02  0.00000000000E+00 0.  1.
<scales pt_clust_4="550.00000" pt_clust_5="550.00000" pt_clust_6="31.54605"></scales>
<mgrwt>
<rscale>  0 0.30000000E+03</rscale>
<asrwt>  1 0.31546049E+02</asrwt>
<pdfrwt beam="1">  1        1 0.90042519E+00 0.30000000E+03</pdfrwt>
<pdfrwt beam="2">0</pdfrwt>
<totfact> 0.11123622E-04</totfact>
</mgrwt>
<clustering>
<clus scale="   31.546">  1  6  2 -1</clus>
<clus scale="  458.405">  4  5 -1 -1</clus>
<clus scale="  300.000">  1  4  2 -1</clus>
</clustering>
</event>
<event>
 6    1  0.1007353E-011  0.3000000E+03  0.7818608E-02  0.1093470E+00
          1   -1    0    0  502    0  0.00000000000E+00  0.00000000000E+00  0.24323073881E+03  0.24323073881E+03  0.00000000000E+00 0.  1.
         13   -1    0    0    0    0 -0.00000000000E+00 -0.00000000000E+00 -0.27500000000E+03  0.27500000000E+03  0.00000000000E+00 0.  1.
    9000005    2    1    2  501    0  0.49536306919E+02  0.70415708021E+01 -0.25438096347E+02  0.46779748518E+03  0.46441787323E+03 0.  0.
         13    1    3    3    0    0  0.31072135828E+02  0.22140284233E+03 -0.93204742743E+02  0.24222266675E+03  0.00000000000E+00 0.  1.
          3    1    3    3  501    0  0.18464171091E+02 -0.21436127153E+03  0.67766646396E+02  0.22557481843E+03  0.00000000000E+00 0.  1.
         21    1    1    2  502  501 -0.49536306919E+02 -0.70415708021E+01 -0.63311648468E+01  0.50433253621E+02  0.00000000000E+00 0.  1.
<scales pt_clust_4="550.00000" pt_clust_5="550.00000" pt_clust_6="50.03431"></scales>
<mgrwt>
<rscale>  0 0.30000000E+03</rscale>
<asrwt>  1 0.50034307E+02</asrwt>
<pdfrwt beam="1">  1        1 0.88447541E+00 0.30000000E+03</pdfrwt>
<pdfrwt beam="2">0</pdfrwt>
<totfact> 0.16172196E-04</totfact>
</mgrwt>
<clustering>
<clus scale="   50.034">  1  6  2 -1</clus>
<clus scale="  464.418">  4  5 -1 -1</clus>
<clus scale="  300.000">  1  4  2 -1</clus>
</clustering>
</event>
<event>
 6    1  0.1007353E-011  0.3000000E+03  0.7818608E-02  0.1093470E+00
          1   -1    0    0  502    0  0.00000000000E+00  0.00000000000E+00  0.25980630842E+03  0.25980630842E+03  0.00000000000E+00 0.  1.
         13   -1    0    0    0    0 -0.00000000000E+00 -0.00000000000E+00 -0.27500000000E+03  0.27500000000E+03  0.00000000000E+00 0.  1.
    9000005    2    1    2  501    0 -0.27986180187E+02  0.12459070079E+02 -0.64474163029E+02  0.47678028344E+03  0.47140647670E+03 0.  0.
         13    1    3    3    0    0 -0.22625550315E+02  0.22781177848E+03 -0.11399233165E+03  0.25574278800E+03  0.00000000000E+00 0.  1.
          3    1    3    3  501    0 -0.53606298722E+01 -0.21535270840E+03  0.49518168618E+02  0.22103749544E+03  0.00000000000E+00 0.  1.
         21    1    1    2  502  501  0.27986180187E+02 -0.12459070079E+02  0.49280471448E+02  0.58026024978E+02  0.00000000000E+00 0. -1.
<scales pt_clust_4="550.00000" pt_clust_5="550.00000" pt_clust_6="30.63421"></scales>
<mgrwt>
<rscale>  0 0.30000000E+03</rscale>
<asrwt>  1 0.30634208E+02</asrwt>
<pdfrwt beam="1">  1        1 0.94475021E+00 0.30000000E+03</pdfrwt>
<pdfrwt beam="2">0</pdfrwt>
<totfact> 0.16122628E-05</totfact>
</mgrwt>
<clustering>
<clus scale="   30.634">  1  6  2 -1</clus>
<clus scale="  471.406">  4  5 -1 -1</clus>
<clus scale="  300.000">  1  4  2 -1</clus>
</clustering>
</event>
<event>
 6    1  0.1007353E-011  0.3000000E+03  0.7818608E-02  0.1093470E+00
          1   -1    0    0  502    0  0.00000000000E+00  0.00000000000E+00  0.22650936824E+03  0.22650936824E+03  0.00000000000E+00 0.  1.
         13   -1    0    0    0    0 -0.00000000000E+00 -0.00000000000E+00 -0.27500000000E+03  0.27500000000E+03  0.00000000000E+00 0.  1.
    9000005    2    1    2  501    0 -0.22559428396E+02  0.27142026834E+02 -0.62434140650E+02  0.46356152416E+03  0.45797996389E+03 0.  0.
         13    1    3    3    0    0  0.73071663921E+02  0.76653625539E+02 -0.23635760766E+03  0.25899838818E+03  0.00000000000E+00 0.  1.
          1    1    3    3  501    0 -0.95631092317E+02 -0.49511598706E+02  0.17392346701E+03  0.20456313598E+03  0.00000000000E+00 0.  1.
         21    1    1    2  502  501  0.22559428396E+02 -0.27142026834E+02  0.13943508885E+02  0.37947844079E+02  0.00000000000E+00 0.  1.
<scales pt_clust_4="550.00000" pt_clust_5="550.00000" pt_clust_6="35.29331"></scales>
<mgrwt>
<rscale>  0 0.30000000E+03</rscale>
<asrwt>  1 0.35293306E+02</asrwt>
<pdfrwt beam="1">  1        1 0.82367043E+00 0.30000000E+03</pdfrwt>
<pdfrwt beam="2">0</pdfrwt>
<totfact> 0.67023917E-04</totfact>
</mgrwt>
<clustering>
<clus scale="   35.293">  1  6  2 -1</clus>
<clus scale="  457.980">  4  5 -1 -1</clus>
<clus scale="  300.000">  1  4  2 -1</clus>
</clustering>
</event>
<event>
 6    1  0.1007353E-011  0.3000000E+03  0.7818608E-02  0.1093470E+00
          1   -1    0    0  502    0  0.00000000000E+00  0.00000000000E+00  0.24224744462E+03  0.24224744462E+03  0.00000000000E+00 0.  1.
         13   -1    0    0    0    0 -0.00000000000E+00 -0.00000000000E+00 -0.27500000000E+03  0.27500000000E+03  0.00000000000E+00 0.  1.
    9000005    2    1    2  501    0 -0.38908922142E+02 -0.18769511716E+02 -0.57031392576E+02  0.46769282094E+03  0.46218805289E+03 0.  0.
         13    1    3    3    0    0  0.56697165041E+02  0.19665861838E+03 -0.10052553597E+03  0.22802316568E+03  0.00000000000E+00 0.  1.
          1    1    3    3  501    0 -0.95606087182E+02 -0.21542813010E+03  0.43494143393E+02  0.23966965526E+03  0.00000000000E+00 0.  1.
         21    1    1    2  502  501  0.38908922142E+02  0.18769511716E+02  0.24278837199E+02  0.49554623680E+02  0.00000000000E+00 0. -1.
<scales pt_clust_4="550.00000" pt_clust_5="550.00000" pt_clust_6="43.19952"></scales>
<mgrwt>
<rscale>  0 0.30000000E+03</rscale>
<asrwt>  1 0.43199523E+02</asrwt>
<pdfrwt beam="1">  1        1 0.88089980E+00 0.30000000E+03</pdfrwt>
<pdfrwt beam="2">0</pdfrwt>
<totfact> 0.18504859E-04</totfact>
</mgrwt>
<clustering>
<clus scale="   43.200">  1  6  2 -1</clus>
<clus scale="  462.188">  4  5 -1 -1</clus>
<clus scale="  300.000">  1  4  2 -1</clus>
</clustering>
</event>
<event>
 6    1  0.1007353E-011  0.3000000E+03  0.7818608E-02  0.1093470E+00
          1   -1    0    0  502    0  0.00000000000E+00  0.00000000000E+00  0.24068034727E+03  0.24068034727E+03  0.00000000000E+00 0.  1.
         13   -1    0    0    0    0 -0.00000000000E+00 -0.00000000000E+00 -0.27500000000E+03  0.27500000000E+03  0.00000000000E+00 0.  1.
    9000005    2    1    2  501    0 -0.32863602566E+02 -0.16394140948E+01 -0.67839533706E+02  0.46870922345E+03  0.46260504727E+03 0.  0.
         13    1    3    3    0    0  0.71520813250E+02 -0.55495863229E+02 -0.24214935383E+03  0.25851755670E+03  0.00000000000E+00 0.  1.
          3    1    3    3  501    0 -0.10438441582E+03  0.53856449135E+02  0.17430982012E+03  0.21019166675E+03  0.00000000000E+00 0.  1.
         21    1    1    2  502  501  0.32863602566E+02  0.16394140948E+01  0.33519880975E+02  0.46971123819E+02  0.00000000000E+00 0.  1.
<scales pt_clust_4="550.00000" pt_clust_5="550.00000" pt_clust_6="32.90447"></scales>
<mgrwt>
<rscale>  0 0.30000000E+03</rscale>
<asrwt>  1 0.32904469E+02</asrwt>
<pdfrwt beam="1">  1        1 0.87520126E+00 0.30000000E+03</pdfrwt>
<pdfrwt beam="2">0</pdfrwt>
<totfact> 0.22643937E-04</totfact>
</mgrwt>
<clustering>
<clus scale="   32.904">  1  6  2 -1</clus>
<clus scale="  462.605">  4  5 -1 -1</clus>
<clus scale="  300.000">  1  4  2 -1</clus>
</clustering>
</event>
<event>
 6    1  0.1007353E-011  0.3000000E+03  0.7818608E-02  0.1093470E+00
          1   -1    0    0  502    0  0.00000000000E+00  0.00000000000E+00  0.22849249122E+03  0.22849249122E+03  0.00000000000E+00 0.  1.
         13   -1    0    0    0    0 -0.00000000000E+00 -0.00000000000E+00 -0.27500000000E+03  0.27500000000E+03  0.00000000000E+00 0.  1.
    9000005    2    1    2  501    0 -0.22159410530E+02  0.23594582928E+02 -0.50935075482E+02  0.47082221168E+03  0.46693835704E+03 0.  0.
         13    1    3    3    0    0 -0.20529879307E+03  0.12209085001E+03 -0.97052839237E+02  0.25782362905E+03  0.00000000000E+00 0.  1.
          3    1    3    3  501    0  0.18313938254E+03 -0.98496267082E+02  0.46117763755E+02  0.21299858263E+03  0.00000000000E+00 0.  1.
         21    1    1    2  502  501  0.22159410530E+02 -0.23594582928E+02  0.44275667054E+01  0.32670279544E+02  0.00000000000E+00 0.  1.
<scales pt_clust_4="550.00000" pt_clust_5="550.00000" pt_clust_6="32.36887"></scales>
<mgrwt>
<rscale>  0 0.30000000E+03</rscale>
<asrwt>  1 0.32368871E+02</asrwt>
<pdfrwt beam="1">  1        1 0.83088179E+00 0.30000000E+03</pdfrwt>
<pdfrwt beam="2">0</pdfrwt>
<totfact> 0.58996268E-04</totfact>
</mgrwt>
<clustering>
<clus scale="   32.369">  1  6  2 -1</clus>
<clus scale="  466.938">  4  5 -1 -1</clus>
<clus scale="  300.000">  1  4  2 -1</clus>
</clustering>
</event>
<event>
 6    1  0.1007353E-011  0.3000000E+03  0.7818608E-02  0.1093470E+00
          1   -1    0    0  502    0  0.00000000000E+00  0.00000000000E+00  0.22639963605E+03  0.22639963605E+03  0.00000000000E+00 0.  1.
         13   -1    0    0    0    0 -0.00000000000E+00 -0.00000000000E+00 -0.27500000000E+03  0.27500000000E+03  0.00000000000E+00 0.  1.
    9000005    2    1    2  501    0 -0.30363989790E+02  0.83689892780E+01 -0.60105847804E+02  0.46786774054E+03  0.46292061721E+03 0.  0.
         13    1    3    3    0    0  0.12661177369E+03  0.47374758929E+02 -0.20841432401E+03  0.24841787269E+03  0.00000000000E+00 0.  1.
          1    1    3    3  501    0 -0.15697576348E+03 -0.39005769652E+02  0.14830847620E+03  0.21944986785E+03  0.00000000000E+00 0.  1.
         21    1    1    2  502  501  0.30363989790E+02 -0.83689892780E+01  0.11505483851E+02  0.33531895505E+02  0.00000000000E+00 0. -1.
<scales pt_clust_4="550.00000" pt_clust_5="550.00000" pt_clust_6="31.49622"></scales>
<mgrwt>
<rscale>  0 0.30000000E+03</rscale>
<asrwt>  1 0.31496220E+02</asrwt>
<pdfrwt beam="1">  1        1 0.82327140E+00 0.30000000E+03</pdfrwt>
<pdfrwt beam="2">0</pdfrwt>
<totfact> 0.69043332E-04</totfact>
</mgrwt>
<clustering>
<clus scale="   31.496">  1  6  2 -1</clus>
<clus scale="  462.921">  4  5 -1 -1</clus>
<clus scale="  300.000">  1  4  2 -1</clus>
</clustering>
</event>
<event>
 6    1  0.1007353E-011  0.3000000E+03  0.7818608E-02  0.1093470E+00
          1   -1    0    0  502    0  0.00000000000E+00  0.00000000000E+00  0.23014695990E+03  0.23014695990E+03  0.00000000000E+00 0.  1.
         13   -1    0    0    0    0 -0.00000000000E+00 -0.00000000000E+00 -0.27500000000E+03  0.27500000000E+03  0.00000000000E+00 0.  1.
    9000005    2    1    2  501    0  0.32880246711E+02 -0.68894451649E+01 -0.70573200482E+02  0.46283736609E+03  0.45618995577E+03 0.  0.
         13    1    3    3    0    0 -0.18309816992E+02  0.22204325927E+03 -0.31230778748E+02  0.22497515402E+03  0.00000000000E+00 0.  1.
          3    1    3    3  501    0  0.51190063703E+02 -0.22893270443E+03 -0.39342421733E+02  0.23786221207E+03  0.00000000000E+00 0.  1.
         21    1    1    2  502  501 -0.32880246711E+02  0.68894451649E+01  0.25720160382E+02  0.42309593812E+02  0.00000000000E+00 0.  1.
<scales pt_clust_4="550.00000" pt_clust_5="550.00000" pt_clust_6="33.59427"></scales>
<mgrwt>
<rscale>  0 0.30000000E+03</rscale>
<asrwt>  1 0.33594272E+02</asrwt>
<pdfrwt beam="1">  1        1 0.83689804E+00 0.30000000E+03</pdfrwt>
<pdfrwt beam="2">0</pdfrwt>
<totfact> 0.52813181E-04</totfact>
</mgrwt>
<clustering>
<clus scale="   33.594">  1  6  2 -1</clus>
<clus scale="  456.190">  4  5 -1 -1</clus>
<clus scale="  300.000">  1  4  2 -1</clus>
</clustering>
</event>
<event>
 6    1  0.1007353E-011  0.3000000E+03  0.7818608E-02  0.1093470E+00
          1   -1    0    0  502    0  0.00000000000E+00  0.00000000000E+00  0.21840730510E+03  0.21840730510E+03  0.00000000000E+00 0.  1.
         13   -1    0    0    0    0 -0.00000000000E+00 -0.00000000000E+00 -0.27500000000E+03  0.27500000000E+03  0.00000000000E+00 0.  1.
    9000005    2    1    2  501    0 -0.11322180950E+02 -0.28102986592E+02 -0.62512638963E+02  0.46253635801E+03  0.45728993299E+03 0.  0.
         13    1    3    3    0    0  0.17294688557E+03  0.10795504612E+03 -0.10538617421E+03  0.22950198894E+03  0.00000000000E+00 0.  1.
          3    1    3    3  501    0 -0.18426906652E+03 -0.13605803271E+03  0.42873535246E+02  0.23303436907E+03  0.00000000000E+00 0.  1.
         21    1    1    2  502  501  0.11322180950E+02  0.28102986592E+02  0.59199440627E+01  0.30870947095E+02  0.00000000000E+00 0. -1.
<scales pt_clust_4="550.00000" pt_clust_5="550.00000" pt_clust_6="30.29801"></scales>
<mgrwt>
<rscale>  0 0.30000000E+03</rscale>
<asrwt>  1 0.30298014E+02</asrwt>
<pdfrwt beam="1">  1        1 0.79420838E+00 0.30000000E+03</pdfrwt>
<pdfrwt beam="2">0</pdfrwt>
<totfact> 0.11753709E-03</totfact>
</mgrwt>
<clustering>
<clus scale="   30.298">  1  6  2 -1</clus>
<clus scale="  457.290">  4  5 -1 -1</clus>
<clus scale="  300.000">  1  4  2 -1</clus>
</clustering>
</event>
<event>
 6    1  0.1007353E-011  0.3000000E+03  0.7818608E-02  0.1093470E+00
          1   -1    0    0  502    0  0.00000000000E+00  0.00000000000E+00  0.22697954248E+03  0.22697954248E+03  0.00000000000E+00 0.  1.
         13   -1    0    0    0    0 -0.00000000000E+00 -0.00000000000E+00 -0.27500000000E+03  0.27500000000E+03  0.00000000000E+00 0.  1.
    9000005    2    1    2  501    0  0.30703324060E+02  0.10718687496E+01 -0.61815674449E+02  0.46830238374E+03  0.46318689748E+03 0.  0.
         13    1    3    3    0    0 -0.63736839557E+02  0.20884344170E+03  0.33616860768E+02  0.22092546523E+03  0.00000000000E+00 0.  1.
          3    1    3    3  501    0  0.94440163617E+02 -0.20777157295E+03 -0.95432535216E+02  0.24737691851E+03  0.00000000000E+00 0.  1.
         21    1    1    2  502  501 -0.30703324060E+02 -0.10718687496E+01  0.13795216928E+02  0.33677158743E+02  0.00000000000E+00 0. -1.
<scales pt_clust_4="550.00000" pt_clust_5="550.00000" pt_clust_6="30.72203"></scales>
<mgrwt>
<rscale>  0 0.30000000E+03</rscale>
<asrwt>  1 0.30722028E+02</asrwt>
<pdfrwt beam="1">  1        1 0.82538015E+00 0.30000000E+03</pdfrwt>
<pdfrwt beam="2">0</pdfrwt>
<totfact> 0.66428827E-04</totfact>
</mgrwt>
<clustering>
<clus scale="   30.722">  1  6  2 -1</clus>
<clus scale="  463.187">  4  5 -1 -1</clus>
<clus scale="  300.000">  1  4  2 -1</clus>
</clustering>
</event>
<event>
 6    1  0.1007353E-011  0.3000000E+03  0.7818608E-02  0.1093470E+00
          1   -1    0    0  502    0  0.00000000000E+00  0.00000000000E+00  0.25281679587E+03  0.25281679587E+03  0.00000000000E+00 0.  1.
         13   -1    0    0    0    0 -0.00000000000E+00 -0.00000000000E+00 -0.27500000000E+03  0.27500000000E+03  0.00000000000E+00 0.  1.
    9000005    2    1    2  501    0  0.50907210426E+02 -0.32887840489E+02 -0.43777187520E+02  0.46347820524E+03  0.45740840664E+03 0.  0.
         13    1    3    3    0    0 -0.53761492910E+02  0.19397256458E+03 -0.68008312627E+02  0.21246360751E+03  0.00000000000E+00 0.  1.
          1    1    3    3  501    0  0.10466870334E+03 -0.22686040507E+03  0.24231125107E+02  0.25101459773E+03  0.00000000000E+00 0.  1.
         21    1    1    2  502  501 -0.50907210426E+02  0.32887840489E+02  0.21593983389E+02  0.64338590628E+02  0.00000000000E+00 0.  1.
<scales pt_clust_4="550.00000" pt_clust_5="550.00000" pt_clust_6="60.60655"></scales>
<mgrwt>
<rscale>  0 0.30000000E+03</rscale>
<asrwt>  1 0.60606552E+02</asrwt>
<pdfrwt beam="1">  1        1 0.91933380E+00 0.30000000E+03</pdfrwt>
<pdfrwt beam="2">0</pdfrwt>
<totfact> 0.39196755E-05</totfact>
</mgrwt>
<clustering>
<clus scale="   60.607">  1  6  2 -1</clus>
<clus scale="  457.408">  4  5 -1 -1</clus>
<clus scale="  300.000">  1  4  2 -1</clus>
</clustering>
</event>
<event>
 6    1  0.1007353E-011  0.3000000E+03  0.7818608E-02  0.1093470E+00
          1   -1    0    0  502    0  0.00000000000E+00  0.00000000000E+00  0.23137772090E+03  0.23137772090E+03  0.00000000000E+00 0.  1.
         13   -1    0    0    0    0 -0.00000000000E+00 -0.00000000000E+00 -0.27500000000E+03  0.27500000000E+03  0.00000000000E+00 0.  1.
    9000005    2    1    2  501    0 -0.34172758128E+02  0.17757125838E+02 -0.48274510010E+02  0.46758679195E+03  0.46349097809E+03 0.  0.
         13    1    3    3    0    0  0.10627901801E+03 -0.30714667024E+02 -0.21650821025E+03  0.24313458319E+03  0.00000000000E+00 0.  1.
          1    1    3    3  501    0 -0.14045177614E+03  0.48471792862E+02  0.16823370024E+03  0.22445220876E+03  0.00000000000E+00 0.  1.
         21    1    1    2  502  501  0.34172758128E+02 -0.17757125838E+02  0.46522309072E+01  0.38790928946E+02  0.00000000000E+00 0.  1.
<scales pt_clust_4="550.00000" pt_clust_5="550.00000" pt_clust_6="38.51095"></scales>
<mgrwt>
<rscale>  0 0.30000000E+03</rscale>
<asrwt>  1 0.38510945E+02</asrwt>
<pdfrwt beam="1">  1        1 0.84137353E+00 0.30000000E+03</pdfrwt>
<pdfrwt beam="2">0</pdfrwt>
<totfact> 0.47632747E-04</totfact>
</mgrwt>
<clustering>
<clus scale="   38.511">  1  6  2 -1</clus>
<clus scale="  463.491">  4  5 -1 -1</clus>
<clus scale="  300.000">  1  4  2 -1</clus>
</clustering>
</event>
<event>
 6    1  0.1007353E-011  0.3000000E+03  0.7818608E-02  0.1093470E+00
          1   -1    0    0  502    0  0.00000000000E+00  0.00000000000E+00  0.23757379365E+03  0.23757379365E+03  0.00000000000E+00 0.  1.
         13   -1    0    0    0    0 -0.00000000000E+00 -0.00000000000E+00 -0.27500000000E+03  0.27500000000E+03  0.00000000000E+00 0.  1.
    9000005    2    1    2  501    0  0.23430654181E+02 -0.27106131556E+02 -0.47969186841E+02  0.47522553585E+03  0.47143878617E+03 0.  0.
         13    1    3    3    0    0  0.22156021743E+03 -0.89405445106E+02  0.52328887207E+02  0.24458245236E+03  0.00000000000E+00 0.  1.
          1    1    3    3  501    0 -0.19812956325E+03  0.62299313550E+02 -0.10029807405E+03  0.23064308349E+03  0.00000000000E+00 0.  1.
         21    1    1    2  502  501 -0.23430654181E+02  0.27106131556E+02  0.10542980489E+02  0.37348257803E+02  0.00000000000E+00 0. -1.
<scales pt_clust_4="550.00000" pt_clust_5="550.00000" pt_clust_6="35.82929"></scales>
<mgrwt>
<rscale>  0 0.30000000E+03</rscale>
<asrwt>  1 0.35829289E+02</asrwt>
<pdfrwt beam="1">  1        1 0.86390470E+00 0.30000000E+03</pdfrwt>
<pdfrwt beam="2">0</pdfrwt>
<totfact> 0.29230308E-04</totfact>
</mgrwt>
<clustering>
<clus scale="   35.829">  1  6  2 -1</clus>
<clus scale="  471.439">  4  5 -1 -1</clus>
<clus scale="  300.000">  1  4  2 -1</clus>
</clustering>
</event>
<event>
 6    1  0.1007353E-011  0.3000000E+03  0.7818608E-02  0.1093470E+00
          1   -1    0    0  502    0  0.00000000000E+00  0.00000000000E+00  0.23754126889E+03  0.23754126889E+03  0.00000000000E+00 0.  1.
         13   -1    0    0    0    0 -0.00000000000E+00 -0.00000000000E+00 -0.27500000000E+03  0.27500000000E+03  0.00000000000E+00 0.  1.
    9000005    2    1    2  501    0 -0.30629587206E+02  0.31957644308E+02 -0.52707517707E+02  0.46572259596E+03  0.46060828403E+03 0.  0.
         13    1    3    3    0    0  0.16846865789E+02  0.65873366906E+02  0.19746131899E+03  0.20883986653E+03  0.00000000000E+00 0.  1.
          3    1    3    3  501    0 -0.47476452995E+02 -0.33915722598E+02 -0.25016883669E+03  0.25688272943E+03  0.00000000000E+00 0.  1.
         21    1    1    2  502  501  0.30629587206E+02 -0.31957644308E+02  0.15248786592E+02  0.46818672927E+02  0.00000000000E+00 0. -1.
<scales pt_clust_4="550.00000" pt_clust_5="550.00000" pt_clust_6="44.26582"></scales>
<mgrwt>
<rscale>  0 0.30000000E+03</rscale>
<asrwt>  1 0.44265818E+02</asrwt>
<pdfrwt beam="1">  1        1 0.86378643E+00 0.30000000E+03</pdfrwt>
<pdfrwt beam="2">0</pdfrwt>
<totfact> 0.28205861E-04</totfact>
</mgrwt>
<clustering>
<clus scale="   44.266">  1  6  2 -1</clus>
<clus scale="  460.608">  4  5 -1 -1</clus>
<clus scale="  300.000">  1  4  2 -1</clus>
</clustering>
</event>
<event>
 6    1  0.1007353E-011  0.3000000E+03  0.7818608E-02  0.1093470E+00
          1   -1    0    0  502    0  0.00000000000E+00  0.00000000000E+00  0.24302620370E+03  0.24302620370E+03  0.00000000000E+00 0.  1.
         13   -1    0    0    0    0 -0.00000000000E+00 -0.00000000000E+00 -0.27500000000E+03  0.27500000000E+03  0.00000000000E+00 0.  1.
    9000005    2    1    2  501    0 -0.15102169707E+02 -0.27785789043E+02 -0.71432912845E+02  0.46745795792E+03  0.46088410233E+03 0.  0.
         13    1    3    3    0    0  0.78849573537E+02 -0.28048055560E+02 -0.25111599613E+03  0.26469452616E+03  0.00000000000E+00 0.  1.
          1    1    3    3  501    0 -0.93951743245E+02  0.26226651741E+00  0.17968308328E+03  0.20276343176E+03  0.00000000000E+00 0.  1.
         21    1    1    2  502  501  0.15102169707E+02  0.27785789043E+02  0.39459116544E+02  0.50568245777E+02  0.00000000000E+00 0. -1.
<scales pt_clust_4="550.00000" pt_clust_5="550.00000" pt_clust_6="31.62476"></scales>
<mgrwt>
<rscale>  0 0.30000000E+03</rscale>
<asrwt>  1 0.31624762E+02</asrwt>
<pdfrwt beam="1">  1        1 0.88373165E+00 0.30000000E+03</pdfrwt>
<pdfrwt beam="2">0</pdfrwt>
<totfact> 0.17999634E-04</totfact>
</mgrwt>
<clustering>
<clus scale="   31.625">  1  6  2 -1</clus>
<clus scale="  460.884">  4  5 -1 -1</clus>
<clus scale="  300.000">  1  4  2 -1</clus>
</clustering>
</event>
<event>
 6    1  0.1007353E-011  0.3000000E+03  0.7818608E-02  0.1093470E+00
          1   -1    0    0  502    0  0.00000000000E+00  0.00000000000E+00  0.22979879696E+03  0.22979879696E+03  0.00000000000E+00 0.  1.
         13   -1    0    0    0    0 -0.00000000000E+00 -0.00000000000E+00 -0.27500000000E+03  0.27500000000E+03  0.00000000000E+00 0.  1.
    9000005    2    1    2  501    0 -0.35594233939E+01  0.32633332457E+02 -0.65506685612E+02  0.46619936038E+03  0.46040537994E+03 0.  0.
         13    1    3    3    0    0 -0.56109627099E+02 -0.20548637461E+03 -0.63747572536E+02  0.22234363811E+03  0.00000000000E+00 0.  1.
          1    1    3    3  501    0  0.52550203705E+02  0.23811970707E+03 -0.17591130762E+01  0.24385572227E+03  0.00000000000E+00 0.  1.
         21    1    1    2  502  501  0.35594233939E+01 -0.32633332457E+02  0.20305482577E+02  0.38599436587E+02  0.00000000000E+00 0.  1.
<scales pt_clust_4="550.00000" pt_clust_5="550.00000" pt_clust_6="32.82688"></scales>
<mgrwt>
<rscale>  0 0.30000000E+03</rscale>
<asrwt>  1 0.32826877E+02</asrwt>
<pdfrwt beam="1">  1        1 0.83563199E+00 0.30000000E+03</pdfrwt>
<pdfrwt beam="2">0</pdfrwt>
<totfact> 0.54178295E-04</totfact>
</mgrwt>
<clustering>
<clus scale="   32.827">  1  6  2 -1</clus>
<clus scale="  460.405">  4  5 -1 -1</clus>
<clus scale="  300.000">  1  4  2 -1</clus>
</clustering>
</event>
<event>
 6    1  0.1007353E-011  0.3000000E+03  0.7818608E-02  0.1093470E+00
          1   -1    0    0  502    0  0.00000000000E+00  0.00000000000E+00  0.23468902831E+03  0.23468902831E+03  0.00000000000E+00 0.  1.
         13   -1    0    0    0    0 -0.00000000000E+00 -0.00000000000E+00 -0.27500000000E+03  0.27500000000E+03  0.00000000000E+00 0.  1.
    9000005    2    1    2  501    0  0.71388743108E+00 -0.42823273759E+02 -0.53762710407E+02  0.46479702807E+03  0.45968631246E+03 0.  0.
         13    1    3    3    0    0 -0.22711024617E+03 -0.26833924790E+01 -0.54028020529E+02  0.23346368350E+03  0.00000000000E+00 0.  1.
          1    1    3    3  501    0  0.22782413360E+03 -0.40139881280E+02  0.26531012250E+00  0.23133334457E+03  0.00000000000E+00 0.  1.
         21    1    1    2  502  501 -0.71388743108E+00  0.42823273759E+02  0.13451738712E+02  0.44892000234E+02  0.00000000000E+00 0. -1.
<scales pt_clust_4="550.00000" pt_clust_5="550.00000" pt_clust_6="42.82922"></scales>
<mgrwt>
<rscale>  0 0.30000000E+03</rscale>
<asrwt>  1 0.42829224E+02</asrwt>
<pdfrwt beam="1">  1        1 0.85341465E+00 0.30000000E+03</pdfrwt>
<pdfrwt beam="2">0</pdfrwt>
<totfact> 0.36382938E-04</totfact>
</mgrwt>
<clustering>
<clus scale="   42.829">  1  6  2 -1</clus>
<clus scale="  459.686">  4  5 -1 -1</clus>
<clus scale="  300.000">  1  4  2 -1</clus>
</clustering>
</event>
<event>
 6    1  0.1007353E-011  0.3000000E+03  0.7818608E-02  0.1093470E+00
          1   -1    0    0  502    0  0.00000000000E+00  0.00000000000E+00  0.22130701087E+03  0.22130701087E+03  0.00000000000E+00 0.  1.
         13   -1    0    0    0    0 -0.00000000000E+00 -0.00000000000E+00 -0.27500000000E+03  0.27500000000E+03  0.00000000000E+00 0.  1.
    9000005    2    1    2  501    0 -0.32050070602E+02 -0.99165093705E+01 -0.56195628154E+02  0.46266466574E+03  0.45801211787E+03 0.  0.
         13    1    3    3    0    0  0.12880392323E+03  0.15605980489E+03  0.49799699436E+02  0.20838695594E+03  0.00000000000E+00 0.  1.
          3    1    3    3  501    0 -0.16085399383E+03 -0.16597631426E+03 -0.10599532759E+03  0.25427770980E+03  0.00000000000E+00 0.  1.
         21    1    1    2  502  501  0.32050070602E+02  0.99165093705E+01  0.25026390268E+01  0.33642345129E+02  0.00000000000E+00 0.  1.
<scales pt_clust_4="550.00000" pt_clust_5="550.00000" pt_clust_6="33.54913"></scales>
<mgrwt>
<rscale>  0 0.30000000E+03</rscale>
<asrwt>  1 0.33549131E+02</asrwt>
<pdfrwt beam="1">  1        1 0.80475277E+00 0.30000000E+03</pdfrwt>
<pdfrwt beam="2">0</pdfrwt>
<totfact> 0.96469015E-04</totfact>
</mgrwt>
<clustering>
<clus scale="   33.549">  1  6  2 -1</clus>
<clus scale="  458.012">  4  5 -1 -1</clus>
<clus scale="  300.000">  1  4  2 -1</clus>
</clustering>
</event>
<event>
 6    1  0.1007353E-011  0.3000000E+03  0.7818608E-02  0.1093470E+00
          1   -1    0    0  502    0  0.00000000000E+00  0.00000000000E+00  0.24656423002E+03  0.24656423002E+03  0.00000000000E+00 0.  1.
         13   -1    0    0    0    0 -0.00000000000E+00 -0.00000000000E+00 -0.27500000000E+03  0.27500000000E+03  0.00000000000E+00 0.  1.
    9000005    2    1    2  501    0 -0.13778670494E+02 -0.36873817140E+02 -0.38052527659E+02  0.48104248056E+03  0.47791666961E+03 0.  0.
         13    1    3    3    0    0 -0.24036621769E+03  0.27088030980E+02  0.37566006422E+01  0.24191691152E+03  0.00000000000E+00 0.  1.
          1    1    3    3  501    0  0.22658754720E+03 -0.63961848120E+02 -0.41809128302E+02  0.23912556904E+03  0.00000000000E+00 0.  1.
         21    1    1    2  502  501  0.13778670494E+02  0.36873817140E+02  0.96167576763E+01  0.40521749460E+02  0.00000000000E+00 0. -1.
<scales pt_clust_4="550.00000" pt_clust_5="550.00000" pt_clust_6="39.36407"></scales>
<mgrwt>
<rscale>  0 0.30000000E+03</rscale>
<asrwt>  1 0.39364072E+02</asrwt>
<pdfrwt beam="1">  1        1 0.89659720E+00 0.30000000E+03</pdfrwt>
<pdfrwt beam="2">0</pdfrwt>
<totfact> 0.11841861E-04</totfact>
</mgrwt>
<clustering>
<clus scale="   39.364">  1  6  2 -1</clus>
<clus scale="  477.917">  4  5 -1 -1</clus>
<clus scale="  300.000">  1  4  2 -1</clus>
</clustering>
</event>
<event>
 6    1  0.1007353E-011  0.3000000E+03  0.7818608E-02  0.1093470E+00
          1   -1    0    0  502    0  0.00000000000E+00  0.00000000000E+00  0.24677493172E+03  0.24677493172E+03  0.00000000000E+00 0.  1.
         13   -1    0    0    0    0 -0.00000000000E+00 -0.00000000000E+00 -0.27500000000E+03  0.27500000000E+03  0.00000000000E+00 0.  1.
    9000005    2    1    2  501    0 -0.68541361282E+01 -0.30009395816E+02 -0.67337228801E+02  0.47200240797E+03  0.46615923002E+03 0.  0.
         13    1    3    3    0    0 -0.21793760647E+03 -0.81868780617E+02  0.28321007609E+02  0.23452372380E+03  0.00000000000E+00 0.  1.
          3    1    3    3  501    0  0.21108347034E+03  0.51859384801E+02 -0.95658236410E+02  0.23747868417E+03  0.00000000000E+00 0.  1.
         21    1    1    2  502  501  0.68541361282E+01  0.30009395816E+02  0.39112160520E+02  0.49772523744E+02  0.00000000000E+00 0.  1.
<scales pt_clust_4="550.00000" pt_clust_5="550.00000" pt_clust_6="30.78219"></scales>
<mgrwt>
<rscale>  0 0.30000000E+03</rscale>
<asrwt>  1 0.30782187E+02</asrwt>
<pdfrwt beam="1">  1        1 0.89736339E+00 0.30000000E+03</pdfrwt>
<pdfrwt beam="2">0</pdfrwt>
<totfact> 0.12156885E-04</totfact>
</mgrwt>
<clustering>
<clus scale="   30.782">  1  6  2 -1</clus>
<clus scale="  466.159">  4  5 -1 -1</clus>
<clus scale="  300.000">  1  4  2 -1</clus>
</clustering>
</event>
<event>
 6    1  0.1007353E-011  0.3000000E+03  0.7818608E-02  0.1093470E+00
          1   -1    0    0  502    0  0.00000000000E+00  0.00000000000E+00  0.22464024696E+03  0.22464024696E+03  0.00000000000E+00 0.  1.
         13   -1    0    0    0    0 -0.00000000000E+00 -0.00000000000E+00 -0.27500000000E+03  0.27500000000E+03  0.00000000000E+00 0.  1.
    9000005    2    1    2  501    0  0.27032216356E+02  0.14347804060E+02 -0.46134678821E+02  0.46874604920E+03  0.46546519725E+03 0.  0.
         13    1    3    3    0    0 -0.34325210886E+02  0.13933860003E+03  0.16320871249E+03  0.21732590594E+03  0.00000000000E+00 0.  1.
          1    1    3    3  501    0  0.61357427242E+02 -0.12499079597E+03 -0.20934339131E+03  0.25142014326E+03  0.00000000000E+00 0.  1.
         21    1    1    2  502  501 -0.27032216356E+02 -0.14347804060E+02 -0.42250742242E+01  0.30894197751E+02  0.00000000000E+00 0.  1.
<scales pt_clust_4="550.00000" pt_clust_5="550.00000" pt_clust_6="30.60394"></scales>
<mgrwt>
<rscale>  0 0.30000000E+03</rscale>
<asrwt>  1 0.30603940E+02</asrwt>
<pdfrwt beam="1">  1        1 0.81687363E+00 0.30000000E+03</pdfrwt>
<pdfrwt beam="2">0</pdfrwt>
<totfact> 0.78832564E-04</totfact>
</mgrwt>
<clustering>
<clus scale="   30.604">  1  6  2 -1</clus>
<clus scale="  465.465">  4  5 -1 -1</clus>
<clus scale="  300.000">  1  4  2 -1</clus>
</clustering>
</event>
<event>
 6    1  0.1007353E-011  0.3000000E+03  0.7818608E-02  0.1093470E+00
          1   -1    0    0  502    0  0.00000000000E+00  0.00000000000E+00  0.22048650978E+03  0.22048650978E+03  0.00000000000E+00 0.  1.
         13   -1    0    0    0    0 -0.00000000000E+00 -0.00000000000E+00 -0.27500000000E+03  0.27500000000E+03  0.00000000000E+00 0.  1.
    9000005    2    1    2  501    0 -0.33434818853E+02 -0.72913796788E+01 -0.58332848060E+02  0.46105340328E+03  0.45606629801E+03 0.  0.
         13    1    3    3    0    0 -0.21336078736E+03  0.54608438802E+02 -0.13228357708E+03  0.25691214828E+03  0.00000000000E+00 0.  1.
          1    1    3    3  501    0  0.17992596850E+03 -0.61899818481E+02  0.73950729015E+02  0.20414125500E+03  0.00000000000E+00 0.  1.
         21    1    1    2  502  501  0.33434818853E+02  0.72913796788E+01  0.38193578438E+01  0.34433106506E+02  0.00000000000E+00 0. -1.
<scales pt_clust_4="550.00000" pt_clust_5="550.00000" pt_clust_6="34.22063"></scales>
<mgrwt>
<rscale>  0 0.30000000E+03</rscale>
<asrwt>  1 0.34220627E+02</asrwt>
<pdfrwt beam="1">  1        1 0.80176913E+00 0.30000000E+03</pdfrwt>
<pdfrwt beam="2">0</pdfrwt>
<totfact> 0.10111166E-03</totfact>
</mgrwt>
<clustering>
<clus scale="   34.221">  1  6  2 -1</clus>
<clus scale="  456.066">  4  5 -1 -1</clus>
<clus scale="  300.000">  1  4  2 -1</clus>
</clustering>
</event>
<event>
 6    1  0.1007353E-011  0.3000000E+03  0.7818608E-02  0.1093470E+00
          1   -1    0    0  502    0  0.00000000000E+00  0.00000000000E+00  0.22449544925E+03  0.22449544925E+03  0.00000000000E+00 0.  1.
         13   -1    0    0    0    0 -0.00000000000E+00 -0.00000000000E+00 -0.27500000000E+03  0.27500000000E+03  0.00000000000E+00 0.  1.
    9000005    2    1    2  501    0 -0.16624732480E+02  0.26333529516E+02 -0.50171542655E+02  0.46835147068E+03  0.46461390411E+03 0.  0.
         13    1    3    3    0    0  0.12885497996E+03 -0.17453922566E+03 -0.36086042340E+02  0.21993123836E+03  0.00000000000E+00 0.  1.
          3    1    3    3  501    0 -0.14547971244E+03  0.20087275518E+03 -0.14085500315E+02  0.24842023232E+03  0.00000000000E+00 0.  1.
         21    1    1    2  502  501  0.16624732480E+02 -0.26333529516E+02 -0.33300809639E+00  0.31143978570E+02  0.00000000000E+00 0.  1.
<scales pt_clust_4="550.00000" pt_clust_5="550.00000" pt_clust_6="31.14220"></scales>
<mgrwt>
<rscale>  0 0.30000000E+03</rscale>
<asrwt>  1 0.31142198E+02</asrwt>
<pdfrwt beam="1">  1        1 0.81634709E+00 0.30000000E+03</pdfrwt>
<pdfrwt beam="2">0</pdfrwt>
<totfact> 0.79354786E-04</totfact>
</mgrwt>
<clustering>
<clus scale="   31.142">  1  6  2 -1</clus>
<clus scale="  464.614">  4  5 -1 -1</clus>
<clus scale="  300.000">  1  4  2 -1</clus>
</clustering>
</event>
<event>
 6    1  0.1007353E-011  0.3000000E+03  0.7818608E-02  0.1093470E+00
          1   -1    0    0  502    0  0.00000000000E+00  0.00000000000E+00  0.25976620463E+03  0.25976620463E+03  0.00000000000E+00 0.  1.
         13   -1    0    0    0    0 -0.00000000000E+00 -0.00000000000E+00 -0.27500000000E+03  0.27500000000E+03  0.00000000000E+00 0.  1.
    9000005    2    1    2  501    0  0.15701848405E+02 -0.26647667726E+02 -0.35408691550E+02  0.49783826569E+03  0.49561327374E+03 0.  0.
         13    1    3    3    0    0  0.11746485125E+03  0.83685309602E+02  0.18289033639E+03  0.23291650321E+03  0.00000000000E+00 0.  1.
          1    1    3    3  501    0 -0.10176300284E+03 -0.11033297733E+03 -0.21829902794E+03  0.26492176248E+03  0.00000000000E+00 0.  1.
         21    1    1    2  502  501 -0.15701848405E+02  0.26647667726E+02  0.20174896184E+02  0.36927938944E+02  0.00000000000E+00 0.  1.
<scales pt_clust_4="550.00000" pt_clust_5="550.00000" pt_clust_6="30.92970"></scales>
<mgrwt>
<rscale>  0 0.30000000E+03</rscale>
<asrwt>  1 0.30929698E+02</asrwt>
<pdfrwt beam="1">  1        1 0.94460438E+00 0.30000000E+03</pdfrwt>
<pdfrwt beam="2">0</pdfrwt>
<totfact> 0.16196879E-05</totfact>
</mgrwt>
<clustering>
<clus scale="   30.930">  1  6  2 -1</clus>
<clus scale="  495.613">  4  5 -1 -1</clus>
<clus scale="  300.000">  1  4  2 -1</clus>
</clustering>
</event>
<event>
 6    1  0.1007353E-011  0.3000000E+03  0.7818608E-02  0.1093470E+00
          1   -1    0    0  502    0  0.00000000000E+00  0.00000000000E+00  0.22783987068E+03  0.22783987068E+03  0.00000000000E+00 0.  1.
         13   -1    0    0    0    0 -0.00000000000E+00 -0.00000000000E+00 -0.27500000000E+03  0.27500000000E+03  0.00000000000E+00 0.  1.
    9000005    2    1    2  501    0  0.36198194280E+02 -0.22197809446E+01 -0.43027189569E+02  0.46633894072E+03  0.46293134685E+03 0.  0.
         13    1    3    3    0    0 -0.16114583650E+03 -0.10506279692E+03 -0.12474424546E+03  0.22927559551E+03  0.00000000000E+00 0.  1.
          1    1    3    3  501    0  0.19734403079E+03  0.10284301598E+03  0.81717055889E+02  0.23706334522E+03  0.00000000000E+00 0.  1.
         21    1    1    2  502  501 -0.36198194280E+02  0.22197809446E+01 -0.41329397521E+01  0.36500929955E+02  0.00000000000E+00 0. -1.
<scales pt_clust_4="550.00000" pt_clust_5="550.00000" pt_clust_6="36.26621"></scales>
<mgrwt>
<rscale>  0 0.30000000E+03</rscale>
<asrwt>  1 0.36266210E+02</asrwt>
<pdfrwt beam="1">  1        1 0.82850862E+00 0.30000000E+03</pdfrwt>
<pdfrwt beam="2">0</pdfrwt>
<totfact> 0.60435403E-04</totfact>
</mgrwt>
<clustering>
<clus scale="   36.266">  1  6  2 -1</clus>
<clus scale="  462.931">  4  5 -1 -1</clus>
<clus scale="  300.000">  1  4  2 -1</clus>
</clustering>
</event>
<event>
 6    1  0.1007353E-011  0.3000000E+03  0.7818608E-02  0.1093470E+00
          1   -1    0    0  502    0  0.00000000000E+00  0.00000000000E+00  0.24837878649E+03  0.24837878649E+03  0.00000000000E+00 0.  1.
         13   -1    0    0    0    0 -0.00000000000E+00 -0.00000000000E+00 -0.27500000000E+03  0.27500000000E+03  0.00000000000E+00 0.  1.
    9000005    2    1    2  501    0  0.22516898981E+02 -0.23634093578E+02 -0.55038003681E+02  0.48009951798E+03  0.47581591419E+03 0.  0.
         13    1    3    3    0    0  0.66825388179E+02 -0.11105980511E+03  0.18209228427E+03  0.22351177331E+03  0.00000000000E+00 0.  1.
          1    1    3    3  501    0 -0.44308489198E+02  0.87425711536E+02 -0.23713028795E+03  0.25658774467E+03  0.00000000000E+00 0.  1.
         21    1    1    2  502  501 -0.22516898981E+02  0.23634093578E+02  0.28416790169E+02  0.43279268507E+02  0.00000000000E+00 0. -1.
<scales pt_clust_4="550.00000" pt_clust_5="550.00000" pt_clust_6="32.64324"></scales>
<mgrwt>
<rscale>  0 0.30000000E+03</rscale>
<asrwt>  1 0.32643240E+02</asrwt>
<pdfrwt beam="1">  1        1 0.90319559E+00 0.30000000E+03</pdfrwt>
<pdfrwt beam="2">0</pdfrwt>
<totfact> 0.10080122E-04</totfact>
</mgrwt>
<clustering>
<clus scale="   32.643">  1  6  2 -1</clus>
<clus scale="  475.816">  4  5 -1 -1</clus>
<clus scale="  300.000">  1  4  2 -1</clus>
</clustering>
</event>
<event>
 6    1  0.1007353E-011  0.3000000E+03  0.7818608E-02  0.1093470E+00
          1   -1    0    0  502    0  0.00000000000E+00  0.00000000000E+00  0.23719548457E+03  0.23719548457E+03  0.00000000000E+00 0.  1.
         13   -1    0    0    0    0 -0.00000000000E+00 -0.00000000000E+00 -0.27500000000E+03  0.27500000000E+03  0.00000000000E+00 0.  1.
    9000005    2    1    2  501    0  0.22812027135E+02 -0.20515041585E+02 -0.58370681491E+02  0.47526009910E+03  0.47066311713E+03 0.  0.
         13    1    3    3    0    0  0.31953313317E+02  0.90153979111E+02 -0.24225117006E+03  0.26045034762E+03  0.00000000000E+00 0.  1.
          1    1    3    3  501    0 -0.91412861822E+01 -0.11066902070E+03  0.18388048857E+03  0.21480975148E+03  0.00000000000E+00 0.  1.
         21    1    1    2  502  501 -0.22812027135E+02  0.20515041585E+02  0.20566166060E+02  0.36935385468E+02  0.00000000000E+00 0. -1.
<scales pt_clust_4="550.00000" pt_clust_5="550.00000" pt_clust_6="30.67989"></scales>
<mgrwt>
<rscale>  0 0.30000000E+03</rscale>
<asrwt>  1 0.30679888E+02</asrwt>
<pdfrwt beam="1">  1        1 0.86252903E+00 0.30000000E+03</pdfrwt>
<pdfrwt beam="2">0</pdfrwt>
<totfact> 0.31149482E-04</totfact>
</mgrwt>
<clustering>
<clus scale="   30.680">  1  6  2 -1</clus>
<clus scale="  470.663">  4  5 -1 -1</clus>
<clus scale="  300.000">  1  4  2 -1</clus>
</clustering>
</event>
<event>
 6    1  0.1007353E-011  0.3000000E+03  0.7818608E-02  0.1093470E+00
          1   -1    0    0  502    0  0.00000000000E+00  0.00000000000E+00  0.21787153982E+03  0.21787153982E+03  0.00000000000E+00 0.  1.
         13   -1    0    0    0    0 -0.00000000000E+00 -0.00000000000E+00 -0.27500000000E+03  0.27500000000E+03  0.00000000000E+00 0.  1.
    9000005    2    1    2  501    0  0.18948680039E+02 -0.24668130353E+02 -0.50601927750E+02  0.46108845067E+03  0.45724658022E+03 0.  0.
         13    1    3    3    0    0  0.11175956841E+03  0.13040503180E+03 -0.17224658049E+03  0.24323765733E+03  0.00000000000E+00 0.  1.
          1    1    3    3  501    0 -0.92810888374E+02 -0.15507316215E+03  0.12164465274E+03  0.21785079335E+03  0.00000000000E+00 0.  1.
         21    1    1    2  502  501 -0.18948680039E+02  0.24668130353E+02 -0.65265324278E+01  0.31783089149E+02  0.00000000000E+00 0.  1.
<scales pt_clust_4="550.00000" pt_clust_5="550.00000" pt_clust_6="31.10579"></scales>
<mgrwt>
<rscale>  0 0.30000000E+03</rscale>
<asrwt>  1 0.31105789E+02</asrwt>
<pdfrwt beam="1">  1        1 0.79226014E+00 0.30000000E+03</pdfrwt>
<pdfrwt beam="2">0</pdfrwt>
<totfact> 0.12103948E-03</totfact>
</mgrwt>
<clustering>
<clus scale="   31.106">  1  6  2 -1</clus>
<clus scale="  457.247">  4  5 -1 -1</clus>
<clus scale="  300.000">  1  4  2 -1</clus>
</clustering>
</event>
<event>
 6    1  0.1007353E-011  0.3000000E+03  0.7818608E-02  0.1093470E+00
          1   -1    0    0  502    0  0.00000000000E+00  0.00000000000E+00  0.22490690721E+03  0.22490690721E+03  0.00000000000E+00 0.  1.
         13   -1    0    0    0    0 -0.00000000000E+00 -0.00000000000E+00 -0.27500000000E+03  0.27500000000E+03  0.00000000000E+00 0.  1.
    9000005    2    1    2  501    0  0.33715806807E+00  0.30156821974E+02 -0.67809662335E+02  0.46492942269E+03  0.45896804920E+03 0.  0.
         13    1    3    3    0    0 -0.21958256145E+03 -0.46616499875E+02 -0.88619940893E+01  0.22465113908E+03  0.00000000000E+00 0.  1.
          3    1    3    3  501    0  0.21991971952E+03  0.76773321849E+02 -0.58947668246E+02  0.24027828360E+03  0.00000000000E+00 0.  1.
         21    1    1    2  502  501 -0.33715806807E+00 -0.30156821974E+02  0.17716569548E+02  0.34977484525E+02  0.00000000000E+00 0.  1.
<scales pt_clust_4="550.00000" pt_clust_5="550.00000" pt_clust_6="30.15871"></scales>
<mgrwt>
<rscale>  0 0.30000000E+03</rscale>
<asrwt>  1 0.30158707E+02</asrwt>
<pdfrwt beam="1">  1        1 0.81784330E+00 0.30000000E+03</pdfrwt>
<pdfrwt beam="2">0</pdfrwt>
<totfact> 0.77609501E-04</totfact>
</mgrwt>
<clustering>
<clus scale="   30.159">  1  6  2 -1</clus>
<clus scale="  458.968">  4  5 -1 -1</clus>
<clus scale="  300.000">  1  4  2 -1</clus>
</clustering>
</event>
<event>
 6    1  0.1007353E-011  0.3000000E+03  0.7818608E-02  0.1093470E+00
          1   -1    0    0  502    0  0.00000000000E+00  0.00000000000E+00  0.24277687156E+03  0.24277687156E+03  0.00000000000E+00 0.  1.
         13   -1    0    0    0    0 -0.00000000000E+00 -0.00000000000E+00 -0.27500000000E+03  0.27500000000E+03  0.00000000000E+00 0.  1.
    9000005    2    1    2  501    0  0.26081750322E+02  0.18471347693E+02 -0.52212675637E+02  0.48008031492E+03  0.47616120893E+03 0.  0.
         13    1    3    3    0    0 -0.15119834189E+03 -0.14069817278E+03 -0.11129520484E+03  0.23461359090E+03  0.00000000000E+00 0.  1.
          3    1    3    3  501    0  0.17728009222E+03  0.15916952047E+03  0.59082529206E+02  0.24546672402E+03  0.00000000000E+00 0.  1.
         21    1    1    2  502  501 -0.26081750322E+02 -0.18471347693E+02  0.19989547192E+02  0.37696556639E+02  0.00000000000E+00 0. -1.
<scales pt_clust_4="550.00000" pt_clust_5="550.00000" pt_clust_6="31.96011"></scales>
<mgrwt>
<rscale>  0 0.30000000E+03</rscale>
<asrwt>  1 0.31960106E+02</asrwt>
<pdfrwt beam="1">  1        1 0.88282499E+00 0.30000000E+03</pdfrwt>
<pdfrwt beam="2">0</pdfrwt>
<totfact> 0.18472130E-04</totfact>
</mgrwt>
<clustering>
<clus scale="   31.960">  1  6  2 -1</clus>
<clus scale="  476.161">  4  5 -1 -1</clus>
<clus scale="  300.000">  1  4  2 -1</clus>
</clustering>
</event>
<event>
 6    1  0.1007353E-011  0.3000000E+03  0.7818608E-02  0.1093470E+00
          1   -1    0    0  502    0  0.00000000000E+00  0.00000000000E+00  0.23983568043E+03  0.23983568043E+03  0.00000000000E+00 0.  1.
         13   -1    0    0    0    0 -0.00000000000E+00 -0.00000000000E+00 -0.27500000000E+03  0.27500000000E+03  0.00000000000E+00 0.  1.
    9000005    2    1    2  501    0 -0.25101088885E+02 -0.25446780333E+02 -0.47957293034E+02  0.47687170457E+03  0.47310582048E+03 0.  0.
         13    1    3    3    0    0  0.14355990028E+03 -0.15988572091E+03 -0.12409974394E+03  0.24814035377E+03  0.00000000000E+00 0.  1.
          1    1    3    3  501    0 -0.16866098917E+03  0.13443894058E+03  0.76142450908E+02  0.22873135081E+03  0.00000000000E+00 0.  1.
         21    1    1    2  502  501  0.25101088885E+02  0.25446780333E+02  0.12792973461E+02  0.37963975852E+02  0.00000000000E+00 0. -1.
<scales pt_clust_4="550.00000" pt_clust_5="550.00000" pt_clust_6="35.74358"></scales>
<mgrwt>
<rscale>  0 0.30000000E+03</rscale>
<asrwt>  1 0.35743577E+02</asrwt>
<pdfrwt beam="1">  1        1 0.87212975E+00 0.30000000E+03</pdfrwt>
<pdfrwt beam="2">0</pdfrwt>
<totfact> 0.23993731E-04</totfact>
</mgrwt>
<clustering>
<clus scale="   35.744">  1  6  2 -1</clus>
<clus scale="  473.106">  4  5 -1 -1</clus>
<clus scale="  300.000">  1  4  2 -1</clus>
</clustering>
</event>
<event>
 6    1  0.1007353E-011  0.3000000E+03  0.7818608E-02  0.1093470E+00
          1   -1    0    0  502    0  0.00000000000E+00  0.00000000000E+00  0.22027634593E+03  0.22027634593E+03  0.00000000000E+00 0.  1.
         13   -1    0    0    0    0 -0.00000000000E+00 -0.00000000000E+00 -0.27500000000E+03  0.27500000000E+03  0.00000000000E+00 0.  1.
    9000005    2    1    2  501    0  0.30996397919E+02 -0.29119779050E+00 -0.52932828118E+02  0.46422689284E+03  0.46015634545E+03 0.  0.
         13    1    3    3    0    0  0.56495274534E+02  0.15961854425E+03 -0.18825389997E+03  0.25319819622E+03  0.00000000000E+00 0.  1.
          1    1    3    3  501    0 -0.25498876615E+02 -0.15990974204E+03  0.13532107185E+03  0.21102869662E+03  0.00000000000E+00 0.  1.
         21    1    1    2  502  501 -0.30996397919E+02  0.29119779050E+00 -0.17908259483E+01  0.31049453098E+02  0.00000000000E+00 0.  1.
<scales pt_clust_4="550.00000" pt_clust_5="550.00000" pt_clust_6="30.99777"></scales>
<mgrwt>
<rscale>  0 0.30000000E+03</rscale>
<asrwt>  1 0.30997766E+02</asrwt>
<pdfrwt beam="1">  1        1 0.80100489E+00 0.30000000E+03</pdfrwt>
<pdfrwt beam="2">0</pdfrwt>
<totfact> 0.10435011E-03</totfact>
</mgrwt>
<clustering>
<clus scale="   30.998">  1  6  2 -1</clus>
<clus scale="  460.156">  4  5 -1 -1</clus>
<clus scale="  300.000">  1  4  2 -1</clus>
</clustering>
</event>
<event>
 6    1  0.1007353E-011  0.3000000E+03  0.7818608E-02  0.1093470E+00
          1   -1    0    0  502    0  0.00000000000E+00  0.00000000000E+00  0.21910471879E+03  0.21910471879E+03  0.00000000000E+00 0.  1.
         13   -1    0    0    0    0 -0.00000000000E+00 -0.00000000000E+00 -0.27500000000E+03  0.27500000000E+03  0.00000000000E+00 0.  1.
    9000005    2    1    2  501    0  0.30790153915E+02  0.43756430039E+01 -0.45021679832E+02  0.46115908119E+03  0.45790126303E+03 0.  0.
         13    1    3    3    0    0  0.13062714598E+03 -0.15577748865E+03 -0.14296533975E+03  0.24853403309E+03  0.00000000000E+00 0.  1.
          1    1    3    3  501    0 -0.99836992062E+02  0.16015313165E+03  0.97943659914E+02  0.21262504810E+03  0.00000000000E+00 0.  1.
         21    1    1    2  502  501 -0.30790153915E+02 -0.43756430039E+01 -0.10873601378E+02  0.32945637598E+02  0.00000000000E+00 0. -1.
<scales pt_clust_4="550.00000" pt_clust_5="550.00000" pt_clust_6="31.09953"></scales>
<mgrwt>
<rscale>  0 0.30000000E+03</rscale>
<asrwt>  1 0.31099530E+02</asrwt>
<pdfrwt beam="1">  1        1 0.79674443E+00 0.30000000E+03</pdfrwt>
<pdfrwt beam="2">0</pdfrwt>
<totfact> 0.11198049E-03</totfact>
</mgrwt>
<clustering>
<clus scale="   31.100">  1  6  2 -1</clus>
<clus scale="  457.901">  4  5 -1 -1</clus>
<clus scale="  300.000">  1  4  2 -1</clus>
</clustering>
</event>
<event>
 6    1  0.1007353E-011  0.3000000E+03  0.7818608E-02  0.1093470E+00
          1   -1    0    0  502    0  0.00000000000E+00  0.00000000000E+00  0.24624478898E+03  0.24624478898E+03  0.00000000000E+00 0.  1.
         13   -1    0    0    0    0 -0.00000000000E+00 -0.00000000000E+00 -0.27500000000E+03  0.27500000000E+03  0.00000000000E+00 0.  1.
    9000005    2    1    2  501    0  0.40183121405E+02 -0.53051489676E+01 -0.11692425527E+02  0.47726790300E+03  0.47539994801E+03 0.  0.
         13    1    3    3    0    0 -0.11640442289E+03 -0.17953806046E+03 -0.87322272457E+02  0.23110405468E+03  0.00000000000E+00 0.  1.
          3    1    3    3  501    0  0.15658754429E+03  0.17423291149E+03  0.75629846930E+02  0.24616384832E+03  0.00000000000E+00 0.  1.
         21    1    1    2  502  501 -0.40183121405E+02  0.53051489676E+01 -0.17062785496E+02  0.43976885978E+02  0.00000000000E+00 0.  1.
<scales pt_clust_4="550.00000" pt_clust_5="550.00000" pt_clust_6="40.53183"></scales>
<mgrwt>
<rscale>  0 0.30000000E+03</rscale>
<asrwt>  1 0.40531833E+02</asrwt>
<pdfrwt beam="1">  1        1 0.89543560E+00 0.30000000E+03</pdfrwt>
<pdfrwt beam="2">0</pdfrwt>
<totfact> 0.12135417E-04</totfact>
</mgrwt>
<clustering>
<clus scale="   40.532">  1  6  2 -1</clus>
<clus scale="  475.400">  4  5 -1 -1</clus>
<clus scale="  300.000">  1  4  2 -1</clus>
</clustering>
</event>
<event>
 6    1  0.1007353E-011  0.3000000E+03  0.7818608E-02  0.1093470E+00
          1   -1    0    0  502    0  0.00000000000E+00  0.00000000000E+00  0.25637193095E+03  0.25637193095E+03  0.00000000000E+00 0.  1.
         13   -1    0    0    0    0 -0.00000000000E+00 -0.00000000000E+00 -0.27500000000E+03  0.27500000000E+03  0.00000000000E+00 0.  1.
    9000005    2    1    2  501    0 -0.13426421513E+02  0.41861494500E+02 -0.47889843080E+02  0.47856184729E+03  0.47412588107E+03 0.  0.
         13    1    3    3    0    0 -0.15299919021E+03  0.97071142724E+02 -0.19653661622E+03  0.26731666703E+03  0.00000000000E+00 0.  1.
          1    1    3    3  501    0  0.13957276870E+03 -0.55209648224E+02  0.14864677314E+03  0.21124518026E+03  0.00000000000E+00 0.  1.
         21    1    1    2  502  501  0.13426421513E+02 -0.41861494500E+02  0.29261774028E+02  0.52810083655E+02  0.00000000000E+00 0.  1.
<scales pt_clust_4="550.00000" pt_clust_5="550.00000" pt_clust_6="43.96196"></scales>
<mgrwt>
<rscale>  0 0.30000000E+03</rscale>
<asrwt>  1 0.43961955E+02</asrwt>
<pdfrwt beam="1">  1        1 0.93226157E+00 0.30000000E+03</pdfrwt>
<pdfrwt beam="2">0</pdfrwt>
<totfact> 0.23379936E-05</totfact>
</mgrwt>
<clustering>
<clus scale="   43.962">  1  6  2 -1</clus>
<clus scale="  474.126">  4  5 -1 -1</clus>
<clus scale="  300.000">  1  4  2 -1</clus>
</clustering>
</event>
<event>
 6    1  0.1007353E-011  0.3000000E+03  0.7818608E-02  0.1093470E+00
          1   -1    0    0  502    0  0.00000000000E+00  0.00000000000E+00  0.24305115481E+03  0.24305115481E+03  0.00000000000E+00 0.  1.
         13   -1    0    0    0    0 -0.00000000000E+00 -0.00000000000E+00 -0.27500000000E+03  0.27500000000E+03  0.00000000000E+00 0.  1.
    9000005    2    1    2  501    0 -0.36527502866E+02  0.44362964367E+01 -0.47492632044E+02  0.47810683730E+03  0.47431704437E+03 0.  0.
         13    1    3    3    0    0  0.19890278453E+03  0.89994736516E+02  0.18404590233E+02  0.21908924948E+03  0.00000000000E+00 0.  1.
          1    1    3    3  501    0 -0.23543028740E+03 -0.85558440079E+02 -0.65897222277E+02  0.25901758782E+03  0.00000000000E+00 0.  1.
         21    1    1    2  502  501  0.36527502866E+02 -0.44362964367E+01  0.15543786849E+02  0.39944317510E+02  0.00000000000E+00 0. -1.
<scales pt_clust_4="550.00000" pt_clust_5="550.00000" pt_clust_6="36.79591"></scales>
<mgrwt>
<rscale>  0 0.30000000E+03</rscale>
<asrwt>  1 0.36795913E+02</asrwt>
<pdfrwt beam="1">  1        1 0.88382238E+00 0.30000000E+03</pdfrwt>
<pdfrwt beam="2">0</pdfrwt>
<totfact> 0.17445299E-04</totfact>
</mgrwt>
<clustering>
<clus scale="   36.796">  1  6  2 -1</clus>
<clus scale="  474.317">  4  5 -1 -1</clus>
<clus scale="  300.000">  1  4  2 -1</clus>
</clustering>
</event>
<event>
 6    1  0.1007353E-011  0.3000000E+03  0.7818608E-02  0.1093470E+00
          1   -1    0    0  502    0  0.00000000000E+00  0.00000000000E+00  0.22247045792E+03  0.22247045792E+03  0.00000000000E+00 0.  1.
         13   -1    0    0    0    0 -0.00000000000E+00 -0.00000000000E+00 -0.27500000000E+03  0.27500000000E+03  0.00000000000E+00 0.  1.
    9000005    2    1    2  501    0 -0.61808580975E+01 -0.36145832178E+02 -0.50568882831E+02  0.46074759888E+03  0.45649360760E+03 0.  0.
         13    1    3    3    0    0  0.64131337631E+02  0.99042247084E+02  0.16125228852E+03  0.19981115016E+03  0.00000000000E+00 0.  1.
          1    1    3    3  501    0 -0.70312195729E+02 -0.13518807926E+03 -0.21182117135E+03  0.26093644873E+03  0.00000000000E+00 0.  1.
         21    1    1    2  502  501  0.61808580975E+01  0.36145832178E+02 -0.19606592534E+01  0.36722859031E+02  0.00000000000E+00 0. -1.
<scales pt_clust_4="550.00000" pt_clust_5="550.00000" pt_clust_6="36.67048"></scales>
<mgrwt>
<rscale>  0 0.30000000E+03</rscale>
<asrwt>  1 0.36670481E+02</asrwt>
<pdfrwt beam="1">  1        1 0.80898348E+00 0.30000000E+03</pdfrwt>
<pdfrwt beam="2">0</pdfrwt>
<totfact> 0.88048305E-04</totfact>
</mgrwt>
<clustering>
<clus scale="   36.670">  1  6  2 -1</clus>
<clus scale="  456.494">  4  5 -1 -1</clus>
<clus scale="  300.000">  1  4  2 -1</clus>
</clustering>
</event>
<event>
 6    1  0.1007353E-011  0.3000000E+03  0.7818608E-02  0.1093470E+00
          1   -1    0    0  502    0  0.00000000000E+00  0.00000000000E+00  0.24109493992E+03  0.24109493992E+03  0.00000000000E+00 0.  1.
         13   -1    0    0    0    0 -0.00000000000E+00 -0.00000000000E+00 -0.27500000000E+03  0.27500000000E+03  0.00000000000E+00 0.  1.
    9000005    2    1    2  501    0 -0.68822510983E+01  0.35400592933E+02 -0.62152043735E+02  0.47028599488E+03  0.46476388960E+03 0.  0.
         13    1    3    3    0    0 -0.23074531369E+03 -0.14373205296E+02 -0.67661463271E+02  0.24089014599E+03  0.00000000000E+00 0.  1.
          1    1    3    3  501    0  0.22386306260E+03  0.49773798229E+02  0.55094195360E+01  0.22939584889E+03  0.00000000000E+00 0.  1.
         21    1    1    2  502  501  0.68822510983E+01 -0.35400592933E+02  0.28246983657E+02  0.45808945043E+02  0.00000000000E+00 0.  1.
<scales pt_clust_4="550.00000" pt_clust_5="550.00000" pt_clust_6="36.06338"></scales>
<mgrwt>
<rscale>  0 0.30000000E+03</rscale>
<asrwt>  1 0.36063380E+02</asrwt>
<pdfrwt beam="1">  1        1 0.87670887E+00 0.30000000E+03</pdfrwt>
<pdfrwt beam="2">0</pdfrwt>
<totfact> 0.21438385E-04</totfact>
</mgrwt>
<clustering>
<clus scale="   36.063">  1  6  2 -1</clus>
<clus scale="  464.764">  4  5 -1 -1</clus>
<clus scale="  300.000">  1  4  2 -1</clus>
</clustering>
</event>
<event>
 6    1  0.1007353E-011  0.3000000E+03  0.7818608E-02  0.1093470E+00
          1   -1    0    0  502    0  0.00000000000E+00  0.00000000000E+00  0.22900155521E+03  0.22900155521E+03  0.00000000000E+00 0.  1.
         13   -1    0    0    0    0 -0.00000000000E+00 -0.00000000000E+00 -0.27500000000E+03  0.27500000000E+03  0.00000000000E+00 0.  1.
    9000005    2    1    2  501    0 -0.37123774412E+02  0.79052896132E+01 -0.54339065800E+02  0.46513982353E+03  0.46039293340E+03 0.  0.
         13    1    3    3    0    0  0.16217430386E+03  0.65551587873E+02 -0.15575068592E+03  0.23421313300E+03  0.00000000000E+00 0.  1.
          3    1    3    3  501    0 -0.19929807827E+03 -0.57646298260E+02  0.10141162012E+03  0.23092669053E+03  0.00000000000E+00 0.  1.
         21    1    1    2  502  501  0.37123774412E+02 -0.79052896132E+01  0.83406210087E+01  0.38861731681E+02  0.00000000000E+00 0.  1.
<scales pt_clust_4="550.00000" pt_clust_5="550.00000" pt_clust_6="37.95614"></scales>
<mgrwt>
<rscale>  0 0.30000000E+03</rscale>
<asrwt>  1 0.37956136E+02</asrwt>
<pdfrwt beam="1">  1        1 0.83273293E+00 0.30000000E+03</pdfrwt>
<pdfrwt beam="2">0</pdfrwt>
<totfact> 0.55396358E-04</totfact>
</mgrwt>
<clustering>
<clus scale="   37.956">  1  6  2 -1</clus>
<clus scale="  460.393">  4  5 -1 -1</clus>
<clus scale="  300.000">  1  4  2 -1</clus>
</clustering>
</event>
<event>
 6    1  0.1007353E-011  0.3000000E+03  0.7818608E-02  0.1093470E+00
          1   -1    0    0  502    0  0.00000000000E+00  0.00000000000E+00  0.23846664782E+03  0.23846664782E+03  0.00000000000E+00 0.  1.
         13   -1    0    0    0    0 -0.00000000000E+00 -0.00000000000E+00 -0.27500000000E+03  0.27500000000E+03  0.00000000000E+00 0.  1.
    9000005    2    1    2  501    0  0.25587866388E+02 -0.34698691051E+02 -0.46442542673E+02  0.46922944489E+03  0.46493077346E+03 0.  0.
         13    1    3    3    0    0 -0.66195497029E+02 -0.18064329518E+03  0.12231207389E+03  0.22797826067E+03  0.00000000000E+00 0.  1.
          1    1    3    3  501    0  0.91783363417E+02  0.14594460412E+03 -0.16875461657E+03  0.24125118422E+03  0.00000000000E+00 0.  1.
         21    1    1    2  502  501 -0.25587866388E+02  0.34698691051E+02  0.99091904924E+01  0.44237202931E+02  0.00000000000E+00 0.  1.
<scales pt_clust_4="550.00000" pt_clust_5="550.00000" pt_clust_6="43.11308"></scales>
<mgrwt>
<rscale>  0 0.30000000E+03</rscale>
<asrwt>  1 0.43113085E+02</asrwt>
<pdfrwt beam="1">  1        1 0.86715145E+00 0.30000000E+03</pdfrwt>
<pdfrwt beam="2">0</pdfrwt>
<totfact> 0.26085070E-04</totfact>
</mgrwt>
<clustering>
<clus scale="   43.113">  1  6  2 -1</clus>
<clus scale="  464.931">  4  5 -1 -1</clus>
<clus scale="  300.000">  1  4  2 -1</clus>
</clustering>
</event>
<event>
 6    1  0.1007353E-011  0.3000000E+03  0.7818608E-02  0.1093470E+00
          1   -1    0    0  502    0  0.00000000000E+00  0.00000000000E+00  0.24024787252E+03  0.24024787252E+03  0.00000000000E+00 0.  1.
         13   -1    0    0    0    0 -0.00000000000E+00 -0.00000000000E+00 -0.27500000000E+03  0.27500000000E+03  0.00000000000E+00 0.  1.
    9000005    2    1    2  501    0 -0.25790377676E+02  0.18828268158E+02 -0.44023214874E+02  0.48199730374E+03  0.47891931482E+03 0.  0.
         13    1    3    3    0    0 -0.62801542258E+02 -0.20214757994E+03  0.79541425644E+02  0.22612942351E+03  0.00000000000E+00 0.  1.
          3    1    3    3  501    0  0.37011164582E+02  0.22097584810E+03 -0.12356464052E+03  0.25586788023E+03  0.00000000000E+00 0.  1.
         21    1    1    2  502  501  0.25790377676E+02 -0.18828268158E+02  0.92710873946E+01  0.33250568777E+02  0.00000000000E+00 0.  1.
<scales pt_clust_4="550.00000" pt_clust_5="550.00000" pt_clust_6="31.93192"></scales>
<mgrwt>
<rscale>  0 0.30000000E+03</rscale>
<asrwt>  1 0.31931916E+02</asrwt>
<pdfrwt beam="1">  1        1 0.87362863E+00 0.30000000E+03</pdfrwt>
<pdfrwt beam="2">0</pdfrwt>
<totfact> 0.23653870E-04</totfact>
</mgrwt>
<clustering>
<clus scale="   31.932">  1  6  2 -1</clus>
<clus scale="  478.919">  4  5 -1 -1</clus>
<clus scale="  300.000">  1  4  2 -1</clus>
</clustering>
</event>
<event>
 6    1  0.1007353E-011  0.3000000E+03  0.7818608E-02  0.1093470E+00
          1   -1    0    0  502    0  0.00000000000E+00  0.00000000000E+00  0.23328449576E+03  0.23328449576E+03  0.00000000000E+00 0.  1.
         13   -1    0    0    0    0 -0.00000000000E+00 -0.00000000000E+00 -0.27500000000E+03  0.27500000000E+03  0.00000000000E+00 0.  1.
    9000005    2    1    2  501    0 -0.22568329943E+02  0.20904222818E+02 -0.58152644665E+02  0.47340619830E+03  0.46881273709E+03 0.  0.
         13    1    3    3    0    0  0.21679643619E+03  0.46951040687E+02  0.13385518050E+02  0.22222571197E+03  0.00000000000E+00 0.  1.
          1    1    3    3  501    0 -0.23936476614E+03 -0.26046817869E+02 -0.71538162715E+02  0.25118048633E+03  0.00000000000E+00 0.  1.
         21    1    1    2  502  501  0.22568329943E+02 -0.20904222818E+02  0.16437140423E+02  0.34878297455E+02  0.00000000000E+00 0.  1.
<scales pt_clust_4="550.00000" pt_clust_5="550.00000" pt_clust_6="30.76225"></scales>
<mgrwt>
<rscale>  0 0.30000000E+03</rscale>
<asrwt>  1 0.30762250E+02</asrwt>
<pdfrwt beam="1">  1        1 0.84830726E+00 0.30000000E+03</pdfrwt>
<pdfrwt beam="2">0</pdfrwt>
<totfact> 0.43242750E-04</totfact>
</mgrwt>
<clustering>
<clus scale="   30.762">  1  6  2 -1</clus>
<clus scale="  468.813">  4  5 -1 -1</clus>
<clus scale="  300.000">  1  4  2 -1</clus>
</clustering>
</event>
<event>
 6    1  0.1007353E-011  0.3000000E+03  0.7818608E-02  0.1093470E+00
          1   -1    0    0  502    0  0.00000000000E+00  0.00000000000E+00  0.22318495096E+03  0.22318495096E+03  0.00000000000E+00 0.  1.
         13   -1    0    0    0    0 -0.00000000000E+00 -0.00000000000E+00 -0.27500000000E+03  0.27500000000E+03  0.00000000000E+00 0.  1.
    9000005    2    1    2  501    0 -0.56865295251E+01  0.31694729941E+02 -0.33600071803E+02  0.46118930364E+03  0.45883517351E+03 0.  0.
         13    1    3    3    0    0 -0.10893593635E+03  0.21812884560E+03 -0.44281399029E+02  0.24780652495E+03  0.00000000000E+00 0.  1.
          1    1    3    3  501    0  0.10324940682E+03 -0.18643411566E+03  0.10681327226E+02  0.21338277869E+03  0.00000000000E+00 0.  1.
         21    1    1    2  502  501  0.56865295251E+01 -0.31694729941E+02 -0.18214977241E+02  0.36995647312E+02  0.00000000000E+00 0.  1.
<scales pt_clust_4="550.00000" pt_clust_5="550.00000" pt_clust_6="32.20083"></scales>
<mgrwt>
<rscale>  0 0.30000000E+03</rscale>
<asrwt>  1 0.32200832E+02</asrwt>
<pdfrwt beam="1">  1        1 0.81158164E+00 0.30000000E+03</pdfrwt>
<pdfrwt beam="2">0</pdfrwt>
<totfact> 0.86103153E-04</totfact>
</mgrwt>
<clustering>
<clus scale="   32.201">  1  6  2 -1</clus>
<clus scale="  458.835">  4  5 -1 -1</clus>
<clus scale="  300.000">  1  4  2 -1</clus>
</clustering>
</event>
<event>
 6    1  0.1007353E-011  0.3000000E+03  0.7818608E-02  0.1093470E+00
          1   -1    0    0  502    0  0.00000000000E+00  0.00000000000E+00  0.23420852690E+03  0.23420852690E+03  0.00000000000E+00 0.  1.
         13   -1    0    0    0    0 -0.00000000000E+00 -0.00000000000E+00 -0.27500000000E+03  0.27500000000E+03  0.00000000000E+00 0.  1.
    9000005    2    1    2  501    0 -0.21609357656E+02  0.21301751646E+02 -0.61123209640E+02  0.47268307725E+03  0.46773124313E+03 0.  0.
         13    1    3    3    0    0 -0.35869078907E+02 -0.22202788029E+03 -0.33136113008E+02  0.22733449460E+03  0.00000000000E+00 0.  1.
          1    1    3    3  501    0  0.14259721251E+02  0.24332963194E+03 -0.27987096632E+02  0.24534858265E+03  0.00000000000E+00 0.  1.
         21    1    1    2  502  501  0.21609357656E+02 -0.21301751646E+02  0.20331736539E+02  0.36525449650E+02  0.00000000000E+00 0. -1.
<scales pt_clust_4="550.00000" pt_clust_5="550.00000" pt_clust_6="30.34352"></scales>
<mgrwt>
<rscale>  0 0.30000000E+03</rscale>
<asrwt>  1 0.30343516E+02</asrwt>
<pdfrwt beam="1">  1        1 0.85166737E+00 0.30000000E+03</pdfrwt>
<pdfrwt beam="2">0</pdfrwt>
<totfact> 0.40322672E-04</totfact>
</mgrwt>
<clustering>
<clus scale="   30.344">  1  6  2 -1</clus>
<clus scale="  467.731">  4  5 -1 -1</clus>
<clus scale="  300.000">  1  4  2 -1</clus>
</clustering>
</event>
<event>
 6    1  0.1007353E-011  0.3000000E+03  0.7818608E-02  0.1093470E+00
          1   -1    0    0  502    0  0.00000000000E+00  0.00000000000E+00  0.24372776868E+03  0.24372776868E+03  0.00000000000E+00 0.  1.
         13   -1    0    0    0    0 -0.00000000000E+00 -0.00000000000E+00 -0.27500000000E+03  0.27500000000E+03  0.00000000000E+00 0.  1.
    9000005    2    1    2  501    0 -0.19499722290E+02 -0.32440253642E+02 -0.44897593519E+02  0.47850016969E+03  0.47488315327E+03 0.  0.
         13    1    3    3    0    0  0.11194020712E+03 -0.10328905857E+03  0.16264240856E+03  0.22282682211E+03  0.00000000000E+00 0.  1.
          1    1    3    3  501    0 -0.13143992941E+03  0.70848804923E+02 -0.20754000207E+03  0.25567334758E+03  0.00000000000E+00 0.  1.
         21    1    1    2  502  501  0.19499722290E+02  0.32440253642E+02  0.13625362200E+02  0.40227598994E+02  0.00000000000E+00 0.  1.
<scales pt_clust_4="550.00000" pt_clust_5="550.00000" pt_clust_6="37.84982"></scales>
<mgrwt>
<rscale>  0 0.30000000E+03</rscale>
<asrwt>  1 0.37849825E+02</asrwt>
<pdfrwt beam="1">  1        1 0.88628280E+00 0.30000000E+03</pdfrwt>
<pdfrwt beam="2">0</pdfrwt>
<totfact> 0.16059501E-04</totfact>
</mgrwt>
<clustering>
<clus scale="   37.850">  1  6  2 -1</clus>
<clus scale="  474.883">  4  5 -1 -1</clus>
<clus scale="  300.000">  1  4  2 -1</clus>
</clustering>
</event>
<event>
 6    1  0.1007353E-011  0.3000000E+03  0.7818608E-02  0.1093470E+00
          1   -1    0    0  502    0  0.00000000000E+00  0.00000000000E+00  0.24951698890E+03  0.24951698890E+03  0.00000000000E+00 0.  1.
         13   -1    0    0    0    0 -0.00000000000E+00 -0.00000000000E+00 -0.27500000000E+03  0.27500000000E+03  0.00000000000E+00 0.  1.
    9000005    2    1    2  501    0  0.25786670729E+02 -0.19144812320E+02 -0.31275852683E+02  0.49188214189E+03  0.48983506032E+03 0.  0.
         13    1    3    3    0    0 -0.19036028507E+03  0.36540589109E+02 -0.14434052859E+03  0.24167424558E+03  0.00000000000E+00 0.  1.
          1    1    3    3  501    0  0.21614695580E+03 -0.55685401429E+02  0.11306467591E+03  0.25020789630E+03  0.00000000000E+00 0.  1.
         21    1    1    2  502  501 -0.25786670729E+02  0.19144812320E+02  0.57928415838E+01  0.32634847015E+02  0.00000000000E+00 0. -1.
<scales pt_clust_4="550.00000" pt_clust_5="550.00000" pt_clust_6="32.11660"></scales>
<mgrwt>
<rscale>  0 0.30000000E+03</rscale>
<asrwt>  1 0.32116604E+02</asrwt>
<pdfrwt beam="1">  1        1 0.90733451E+00 0.30000000E+03</pdfrwt>
<pdfrwt beam="2">0</pdfrwt>
<totfact> 0.84203202E-05</totfact>
</mgrwt>
<clustering>
<clus scale="   32.117">  1  6  2 -1</clus>
<clus scale="  489.835">  4  5 -1 -1</clus>
<clus scale="  300.000">  1  4  2 -1</clus>
</clustering>
</event>
<event>
 6    1  0.1007353E-011  0.3000000E+03  0.7818608E-02  0.1093470E+00
          1   -1    0    0  502    0  0.00000000000E+00  0.00000000000E+00  0.23798359824E+03  0.23798359824E+03  0.00000000000E+00 0.  1.
         13   -1    0    0    0    0 -0.00000000000E+00 -0.00000000000E+00 -0.27500000000E+03  0.27500000000E+03  0.00000000000E+00 0.  1.
    9000005    2    1    2  501    0 -0.33401382319E+02 -0.16400902485E+02 -0.39841583461E+02  0.47566572592E+03  0.47253136308E+03 0.  0.
         13    1    3    3    0    0 -0.19566965112E+02  0.14669071982E+03 -0.19857831626E+03  0.24765779030E+03  0.00000000000E+00 0.  1.
          1    1    3    3  501    0 -0.13834417206E+02 -0.16309162231E+03  0.15873673280E+03  0.22800793562E+03  0.00000000000E+00 0.  1.
         21    1    1    2  502  501  0.33401382319E+02  0.16400902485E+02  0.28251817049E+01  0.37317872324E+02  0.00000000000E+00 0.  1.
<scales pt_clust_4="550.00000" pt_clust_5="550.00000" pt_clust_6="37.21078"></scales>
<mgrwt>
<rscale>  0 0.30000000E+03</rscale>
<asrwt>  1 0.37210777E+02</asrwt>
<pdfrwt beam="1">  1        1 0.86539490E+00 0.30000000E+03</pdfrwt>
<pdfrwt beam="2">0</pdfrwt>
<totfact> 0.27971837E-04</totfact>
</mgrwt>
<clustering>
<clus scale="   37.211">  1  6  2 -1</clus>
<clus scale="  472.531">  4  5 -1 -1</clus>
<clus scale="  300.000">  1  4  2 -1</clus>
</clustering>
</event>
<event>
 6    1  0.1007353E-011  0.3000000E+03  0.7818608E-02  0.1093470E+00
          1   -1    0    0  502    0  0.00000000000E+00  0.00000000000E+00  0.24436622397E+03  0.24436622397E+03  0.00000000000E+00 0.  1.
         13   -1    0    0    0    0 -0.00000000000E+00 -0.00000000000E+00 -0.27500000000E+03  0.27500000000E+03  0.00000000000E+00 0.  1.
    9000005    2    1    2  501    0  0.51392764247E+01 -0.36453894536E+02 -0.50164845882E+02  0.47769175602E+03  0.47362179365E+03 0.  0.
         13    1    3    3    0    0 -0.20974859295E+03  0.87009743817E+02 -0.29780792101E+02  0.22902415450E+03  0.00000000000E+00 0.  1.
          3    1    3    3  501    0  0.21488786938E+03 -0.12346363835E+03 -0.20384053781E+02  0.24866760153E+03  0.00000000000E+00 0.  1.
         21    1    1    2  502  501 -0.51392764247E+01  0.36453894536E+02  0.19531069852E+02  0.41674467946E+02  0.00000000000E+00 0.  1.
<scales pt_clust_4="550.00000" pt_clust_5="550.00000" pt_clust_6="36.81438"></scales>
<mgrwt>
<rscale>  0 0.30000000E+03</rscale>
<asrwt>  1 0.36814380E+02</asrwt>
<pdfrwt beam="1">  1        1 0.88860445E+00 0.30000000E+03</pdfrwt>
<pdfrwt beam="2">0</pdfrwt>
<totfact> 0.14996290E-04</totfact>
</mgrwt>
<clustering>
<clus scale="   36.814">  1  6  2 -1</clus>
<clus scale="  473.622">  4  5 -1 -1</clus>
<clus scale="  300.000">  1  4  2 -1</clus>
</clustering>
</event>
<event>
 6    1  0.1007353E-011  0.3000000E+03  0.7818608E-02  0.1093470E+00
          1   -1    0    0  502    0  0.00000000000E+00  0.00000000000E+00  0.23802932695E+03  0.23802932695E+03  0.00000000000E+00 0.  1.
         13   -1    0    0    0    0 -0.00000000000E+00 -0.00000000000E+00 -0.27500000000E+03  0.27500000000E+03  0.00000000000E+00 0.  1.
    9000005    2    1    2  501    0  0.65254117744E+01  0.32585303974E+02 -0.42186052684E+02  0.47939031361E+03  0.47637278124E+03 0.  0.
         13    1    3    3    0    0 -0.47436431519E+02  0.24909250328E+03 -0.83304079720E+01  0.25370590439E+03  0.00000000000E+00 0.  1.
          3    1    3    3  501    0  0.53961843293E+02 -0.21650719931E+03 -0.33855644712E+02  0.22568440922E+03  0.00000000000E+00 0.  1.
         21    1    1    2  502  501 -0.65254117744E+01 -0.32585303974E+02  0.52153796362E+01  0.33639013343E+02  0.00000000000E+00 0. -1.
<scales pt_clust_4="550.00000" pt_clust_5="550.00000" pt_clust_6="33.23226"></scales>
<mgrwt>
<rscale>  0 0.30000000E+03</rscale>
<asrwt>  1 0.33232259E+02</asrwt>
<pdfrwt beam="1">  1        1 0.86556119E+00 0.30000000E+03</pdfrwt>
<pdfrwt beam="2">0</pdfrwt>
<totfact> 0.28452215E-04</totfact>
</mgrwt>
<clustering>
<clus scale="   33.232">  1  6  2 -1</clus>
<clus scale="  476.373">  4  5 -1 -1</clus>
<clus scale="  300.000">  1  4  2 -1</clus>
</clustering>
</event>
<event>
 6    1  0.1007353E-011  0.3000000E+03  0.7818608E-02  0.1093470E+00
          1   -1    0    0  502    0  0.00000000000E+00  0.00000000000E+00  0.24563644326E+03  0.24563644326E+03  0.00000000000E+00 0.  1.
         13   -1    0    0    0    0 -0.00000000000E+00 -0.00000000000E+00 -0.27500000000E+03  0.27500000000E+03  0.00000000000E+00 0.  1.
    9000005    2    1    2  501    0 -0.33642452425E+02 -0.88231060678E+00 -0.26777119800E+02  0.48688318070E+03  0.48498002477E+03 0.  0.
         13    1    3    3    0    0 -0.14365684953E+03 -0.17204323296E+02  0.19262006965E+03  0.24090614436E+03  0.00000000000E+00 0.  1.
          3    1    3    3  501    0  0.11001439710E+03  0.16322012689E+02 -0.21939718945E+03  0.24597703634E+03  0.00000000000E+00 0.  1.
         21    1    1    2  502  501  0.33642452425E+02  0.88231060678E+00 -0.25864369435E+01  0.33753262557E+02  0.00000000000E+00 0. -1.
<scales pt_clust_4="550.00000" pt_clust_5="550.00000" pt_clust_6="33.65404"></scales>
<mgrwt>
<rscale>  0 0.30000000E+03</rscale>
<asrwt>  1 0.33654037E+02</asrwt>
<pdfrwt beam="1">  1        1 0.89322343E+00 0.30000000E+03</pdfrwt>
<pdfrwt beam="2">0</pdfrwt>
<totfact> 0.13310115E-04</totfact>
</mgrwt>
<clustering>
<clus scale="   33.654">  1  6  2 -1</clus>
<clus scale="  484.980">  4  5 -1 -1</clus>
<clus scale="  300.000">  1  4  2 -1</clus>
</clustering>
</event>
<event>
 6    1  0.1007353E-011  0.3000000E+03  0.7818608E-02  0.1093470E+00
          1   -1    0    0  502    0  0.00000000000E+00  0.00000000000E+00  0.24884249585E+03  0.24884249585E+03  0.00000000000E+00 0.  1.
         13   -1    0    0    0    0 -0.00000000000E+00 -0.00000000000E+00 -0.27500000000E+03  0.27500000000E+03  0.00000000000E+00 0.  1.
    9000005    2    1    2  501    0  0.33587151291E+02  0.84377032670E+01 -0.48926828803E+02  0.48239694466E+03  0.47865821425E+03 0.  0.
         13    1    3    3    0    0  0.52560571814E+02  0.24041864270E+03 -0.41133739788E+02  0.24951096572E+03  0.00000000000E+00 0.  1.
          3    1    3    3  501    0 -0.18973420523E+02 -0.23198093943E+03 -0.77930890155E+01  0.23288597893E+03  0.00000000000E+00 0.  1.
         21    1    1    2  502  501 -0.33587151291E+02 -0.84377032670E+01  0.22769324650E+02  0.41445551188E+02  0.00000000000E+00 0.  1.
<scales pt_clust_4="550.00000" pt_clust_5="550.00000" pt_clust_6="34.63079"></scales>
<mgrwt>
<rscale>  0 0.30000000E+03</rscale>
<asrwt>  1 0.34630789E+02</asrwt>
<pdfrwt beam="1">  1        1 0.90488180E+00 0.30000000E+03</pdfrwt>
<pdfrwt beam="2">0</pdfrwt>
<totfact> 0.93124512E-05</totfact>
</mgrwt>
<clustering>
<clus scale="   34.631">  1  6  2 -1</clus>
<clus scale="  478.658">  4  5 -1 -1</clus>
<clus scale="  300.000">  1  4  2 -1</clus>
</clustering>
</event>
<event>
 6    1  0.1007353E-011  0.3000000E+03  0.7818608E-02  0.1093470E+00
          1   -1    0    0  502    0  0.00000000000E+00  0.00000000000E+00  0.23091175100E+03  0.23091175100E+03  0.00000000000E+00 0.  1.
         13   -1    0    0    0    0 -0.00000000000E+00 -0.00000000000E+00 -0.27500000000E+03  0.27500000000E+03  0.00000000000E+00 0.  1.
    9000005    2    1    2  501    0  0.40833479999E+02 -0.34732393336E+01 -0.35450939898E+02  0.46403049519E+03  0.46085582870E+03 0.  0.
         13    1    3    3    0    0  0.21453069267E+03  0.11718595858E+03  0.20361525179E+02  0.24529687868E+03  0.00000000000E+00 0.  1.
          1    1    3    3  501    0 -0.17369721267E+03 -0.12065919792E+03 -0.55812465078E+02  0.21873361650E+03  0.00000000000E+00 0.  1.
         21    1    1    2  502  501 -0.40833479999E+02  0.34732393336E+01 -0.86373090983E+01  0.41881255816E+02  0.00000000000E+00 0.  1.
<scales pt_clust_4="550.00000" pt_clust_5="550.00000" pt_clust_6="40.98095"></scales>
<mgrwt>
<rscale>  0 0.30000000E+03</rscale>
<asrwt>  1 0.40980949E+02</asrwt>
<pdfrwt beam="1">  1        1 0.83967909E+00 0.30000000E+03</pdfrwt>
<pdfrwt beam="2">0</pdfrwt>
<totfact> 0.48552807E-04</totfact>
</mgrwt>
<clustering>
<clus scale="   40.981">  1  6  2 -1</clus>
<clus scale="  460.856">  4  5 -1 -1</clus>
<clus scale="  300.000">  1  4  2 -1</clus>
</clustering>
</event>
<event>
 6    1  0.1007353E-011  0.3000000E+03  0.7818608E-02  0.1093470E+00
          1   -1    0    0  502    0  0.00000000000E+00  0.00000000000E+00  0.22324597369E+03  0.22324597369E+03  0.00000000000E+00 0.  1.
         13   -1    0    0    0    0 -0.00000000000E+00 -0.00000000000E+00 -0.27500000000E+03  0.27500000000E+03  0.00000000000E+00 0.  1.
    9000005    2    1    2  501    0 -0.36747077630E+02 -0.21012586513E+01 -0.54468878110E+02  0.46133888192E+03  0.45663107898E+03 0.  0.
         13    1    3    3    0    0  0.12427462044E+00  0.21241526722E+03  0.52507651464E+02  0.21880885415E+03  0.00000000000E+00 0.  1.
          3    1    3    3  501    0 -0.36871352250E+02 -0.21451652587E+03 -0.10697652957E+03  0.24253002777E+03  0.00000000000E+00 0.  1.
         21    1    1    2  502  501  0.36747077630E+02  0.21012586513E+01  0.27148517967E+01  0.36907091764E+02  0.00000000000E+00 0.  1.
<scales pt_clust_4="550.00000" pt_clust_5="550.00000" pt_clust_6="36.80711"></scales>
<mgrwt>
<rscale>  0 0.30000000E+03</rscale>
<asrwt>  1 0.36807105E+02</asrwt>
<pdfrwt beam="1">  1        1 0.81180354E+00 0.30000000E+03</pdfrwt>
<pdfrwt beam="2">0</pdfrwt>
<totfact> 0.83632707E-04</totfact>
</mgrwt>
<clustering>
<clus scale="   36.807">  1  6  2 -1</clus>
<clus scale="  456.631">  4  5 -1 -1</clus>
<clus scale="  300.000">  1  4  2 -1</clus>
</clustering>
</event>
<event>
 6    1  0.1007353E-011  0.3000000E+03  0.7818608E-02  0.1093470E+00
          1   -1    0    0  502    0  0.00000000000E+00  0.00000000000E+00  0.23882672550E+03  0.23882672550E+03  0.00000000000E+00 0.  1.
         13   -1    0    0    0    0 -0.00000000000E+00 -0.00000000000E+00 -0.27500000000E+03  0.27500000000E+03  0.00000000000E+00 0.  1.
    9000005    2    1    2  501    0 -0.33641212545E+02 -0.15399934908E+02 -0.58939657138E+02  0.47038484070E+03  0.46520869080E+03 0.  0.
         13    1    3    3    0    0 -0.41501041476E+02  0.20736585769E+03 -0.11474353552E+03  0.24060135977E+03  0.00000000000E+00 0.  1.
          1    1    3    3  501    0  0.78598289316E+01 -0.22276579260E+03  0.55803878382E+02  0.22978348093E+03  0.00000000000E+00 0.  1.
         21    1    1    2  502  501  0.33641212545E+02  0.15399934908E+02  0.22766382633E+02  0.43441884799E+02  0.00000000000E+00 0.  1.
<scales pt_clust_4="550.00000" pt_clust_5="550.00000" pt_clust_6="36.99850"></scales>
<mgrwt>
<rscale>  0 0.30000000E+03</rscale>
<asrwt>  1 0.36998502E+02</asrwt>
<pdfrwt beam="1">  1        1 0.86846082E+00 0.30000000E+03</pdfrwt>
<pdfrwt beam="2">0</pdfrwt>
<totfact> 0.25994390E-04</totfact>
</mgrwt>
<clustering>
<clus scale="   36.999">  1  6  2 -1</clus>
<clus scale="  465.209">  4  5 -1 -1</clus>
<clus scale="  300.000">  1  4  2 -1</clus>
</clustering>
</event>
<event>
 6    1  0.1007353E-011  0.3000000E+03  0.7818608E-02  0.1093470E+00
          1   -1    0    0  502    0  0.00000000000E+00  0.00000000000E+00  0.22231186080E+03  0.22231186080E+03  0.00000000000E+00 0.  1.
         13   -1    0    0    0    0 -0.00000000000E+00 -0.00000000000E+00 -0.27500000000E+03  0.27500000000E+03  0.00000000000E+00 0.  1.
    9000005    2    1    2  501    0  0.17314272826E+02 -0.24589593783E+02 -0.69989044963E+02  0.46261670975E+03  0.45630178781E+03 0.  0.
         13    1    3    3    0    0  0.40054797965E+02  0.51202308666E+01 -0.26296498327E+03  0.26604733795E+03  0.00000000000E+00 0.  1.
          3    1    3    3  501    0 -0.22740525139E+02 -0.29709824649E+02  0.19297593831E+03  0.19656937180E+03  0.00000000000E+00 0.  1.
         21    1    1    2  502  501 -0.17314272826E+02  0.24589593783E+02  0.17300905763E+02  0.34695151046E+02  0.00000000000E+00 0.  1.
<scales pt_clust_4="550.00000" pt_clust_5="550.00000" pt_clust_6="30.07378"></scales>
<mgrwt>
<rscale>  0 0.30000000E+03</rscale>
<asrwt>  1 0.30073779E+02</asrwt>
<pdfrwt beam="1">  1        1 0.80840677E+00 0.30000000E+03</pdfrwt>
<pdfrwt beam="2">0</pdfrwt>
<totfact> 0.92354181E-04</totfact>
</mgrwt>
<clustering>
<clus scale="   30.074">  1  6  2 -1</clus>
<clus scale="  456.302">  4  5 -1 -1</clus>
<clus scale="  300.000">  1  4  2 -1</clus>
</clustering>
</event>
<event>
 6    1  0.1007353E-011  0.3000000E+03  0.7818608E-02  0.1093470E+00
          1   -1    0    0  502    0  0.00000000000E+00  0.00000000000E+00  0.23243244956E+03  0.23243244956E+03  0.00000000000E+00 0.  1.
         13   -1    0    0    0    0 -0.00000000000E+00 -0.00000000000E+00 -0.27500000000E+03  0.27500000000E+03  0.00000000000E+00 0.  1.
    9000005    2    1    2  501    0  0.25222550699E+02  0.22716733884E+02 -0.67726171757E+02  0.46518102013E+03  0.45897093599E+03 0.  0.
         13    1    3    3    0    0 -0.55710053602E+02 -0.35920798860E+02 -0.24927670730E+03  0.25793950971E+03  0.00000000000E+00 0.  1.
          3    1    3    3  501    0  0.80932604301E+02  0.58637532744E+02  0.18155053555E+03  0.20724151042E+03  0.00000000000E+00 0.  1.
         21    1    1    2  502  501 -0.25222550699E+02 -0.22716733884E+02  0.25158621315E+02  0.42251429427E+02  0.00000000000E+00 0.  1.
<scales pt_clust_4="550.00000" pt_clust_5="550.00000" pt_clust_6="33.94447"></scales>
<mgrwt>
<rscale>  0 0.30000000E+03</rscale>
<asrwt>  1 0.33944470E+02</asrwt>
<pdfrwt beam="1">  1        1 0.84520891E+00 0.30000000E+03</pdfrwt>
<pdfrwt beam="2">0</pdfrwt>
<totfact> 0.45251759E-04</totfact>
</mgrwt>
<clustering>
<clus scale="   33.944">  1  6  2 -1</clus>
<clus scale="  458.971">  4  5 -1 -1</clus>
<clus scale="  300.000">  1  4  2 -1</clus>
</clustering>
</event>
<event>
 6    1  0.1007353E-011  0.3000000E+03  0.7818608E-02  0.1093470E+00
          1   -1    0    0  502    0  0.00000000000E+00  0.00000000000E+00  0.23068436294E+03  0.23068436294E+03  0.00000000000E+00 0.  1.
         13   -1    0    0    0    0 -0.00000000000E+00 -0.00000000000E+00 -0.27500000000E+03  0.27500000000E+03  0.00000000000E+00 0.  1.
    9000005    2    1    2  501    0 -0.22537991307E+02  0.29767704303E+02 -0.32878608237E+02  0.46663461390E+03  0.46397498072E+03 0.  0.
         13    1    3    3    0    0  0.20284478915E+03  0.86484609990E+02  0.37771865576E+02  0.22372373607E+03  0.00000000000E+00 0.  1.
          1    1    3    3  501    0 -0.22538278046E+03 -0.56716905687E+02 -0.70650473813E+02  0.24291087783E+03  0.00000000000E+00 0.  1.
         21    1    1    2  502  501  0.22537991307E+02 -0.29767704303E+02 -0.11437028826E+02  0.39049749039E+02  0.00000000000E+00 0.  1.
<scales pt_clust_4="550.00000" pt_clust_5="550.00000" pt_clust_6="37.33736"></scales>
<mgrwt>
<rscale>  0 0.30000000E+03</rscale>
<asrwt>  1 0.37337363E+02</asrwt>
<pdfrwt beam="1">  1        1 0.83885223E+00 0.30000000E+03</pdfrwt>
<pdfrwt beam="2">0</pdfrwt>
<totfact> 0.50100480E-04</totfact>
</mgrwt>
<clustering>
<clus scale="   37.337">  1  6  2 -1</clus>
<clus scale="  463.975">  4  5 -1 -1</clus>
<clus scale="  300.000">  1  4  2 -1</clus>
</clustering>
</event>
<event>
 6    1  0.1007353E-011  0.3000000E+03  0.7818608E-02  0.1093470E+00
          1   -1    0    0  502    0  0.00000000000E+00  0.00000000000E+00  0.26643612994E+03  0.26643612994E+03  0.00000000000E+00 0.  1.
         13   -1    0    0    0    0 -0.00000000000E+00 -0.00000000000E+00 -0.27500000000E+03  0.27500000000E+03  0.00000000000E+00 0.  1.
    9000005    2    1    2  501    0  0.31884321898E+02 -0.40388920846E+02  0.28876102817E+01  0.48871980123E+03  0.48599468198E+03 0.  0.
         13    1    3    3    0    0  0.18866497841E+03 -0.51656042976E+02  0.17010226507E+03  0.25922500157E+03  0.00000000000E+00 0.  1.
          1    1    3    3  501    0 -0.15678065652E+03  0.11267122131E+02 -0.16721465479E+03  0.22949479967E+03  0.00000000000E+00 0.  1.
         21    1    1    2  502  501 -0.31884321898E+02  0.40388920846E+02 -0.11451480345E+02  0.52716328705E+02  0.00000000000E+00 0.  1.
<scales pt_clust_4="550.00000" pt_clust_5="550.00000" pt_clust_6="51.45753"></scales>
<mgrwt>
<rscale>  0 0.30000000E+03</rscale>
<asrwt>  1 0.51457532E+02</asrwt>
<pdfrwt beam="1">  1        1 0.96885865E+00 0.30000000E+03</pdfrwt>
<pdfrwt beam="2">0</pdfrwt>
<totfact> 0.48001076E-06</totfact>
</mgrwt>
<clustering>
<clus scale="   51.458">  1  6  2 -1</clus>
<clus scale="  485.995">  4  5 -1 -1</clus>
<clus scale="  300.000">  1  4  2 -1</clus>
</clustering>
</event>
<event>
 6    1  0.1007353E-011  0.3000000E+03  0.7818608E-02  0.1093470E+00
          1   -1    0    0  502    0  0.00000000000E+00  0.00000000000E+00  0.21768854626E+03  0.21768854626E+03  0.00000000000E+00 0.  1.
         13   -1    0    0    0    0 -0.00000000000E+00 -0.00000000000E+00 -0.27500000000E+03  0.27500000000E+03  0.00000000000E+00 0.  1.
    9000005    2    1    2  501    0 -0.47569383252E+01 -0.30513310435E+02 -0.44496837522E+02  0.45925346043E+03  0.45604833274E+03 0.  0.
         13    1    3    3    0    0 -0.54297606094E+02  0.13974152187E+03 -0.18132998144E+03  0.23527958928E+03  0.00000000000E+00 0.  1.
          1    1    3    3  501    0  0.49540667769E+02 -0.17025483230E+03  0.13683314392E+03  0.22397387115E+03  0.00000000000E+00 0.  1.
         21    1    1    2  502  501  0.47569383252E+01  0.30513310435E+02 -0.12814616215E+02  0.33435085833E+02  0.00000000000E+00 0.  1.
<scales pt_clust_4="550.00000" pt_clust_5="550.00000" pt_clust_6="30.88190"></scales>
<mgrwt>
<rscale>  0 0.30000000E+03</rscale>
<asrwt>  1 0.30881896E+02</asrwt>
<pdfrwt beam="1">  1        1 0.79159471E+00 0.30000000E+03</pdfrwt>
<pdfrwt beam="2">0</pdfrwt>
<totfact> 0.12266658E-03</totfact>
</mgrwt>
<clustering>
<clus scale="   30.882">  1  6  2 -1</clus>
<clus scale="  456.048">  4  5 -1 -1</clus>
<clus scale="  300.000">  1  4  2 -1</clus>
</clustering>
</event>
<event>
 6    1  0.1007353E-011  0.3000000E+03  0.7818608E-02  0.1093470E+00
          1   -1    0    0  502    0  0.00000000000E+00  0.00000000000E+00  0.22442351560E+03  0.22442351560E+03  0.00000000000E+00 0.  1.
         13   -1    0    0    0    0 -0.00000000000E+00 -0.00000000000E+00 -0.27500000000E+03  0.27500000000E+03  0.00000000000E+00 0.  1.
    9000005    2    1    2  501    0 -0.18141082606E+02 -0.29035691611E+02 -0.53773622377E+02  0.46503758887E+03  0.46064757281E+03 0.  0.
         13    1    3    3    0    0  0.20517806552E+03  0.67959637755E+02 -0.48458419772E+02  0.22150568702E+03  0.00000000000E+00 0.  1.
          3    1    3    3  501    0 -0.22331914813E+03 -0.96995329366E+02 -0.53152026054E+01  0.24353190185E+03  0.00000000000E+00 0.  1.
         21    1    1    2  502  501  0.18141082606E+02  0.29035691611E+02  0.31971379741E+01  0.34385926724E+02  0.00000000000E+00 0. -1.
<scales pt_clust_4="550.00000" pt_clust_5="550.00000" pt_clust_6="34.23697"></scales>
<mgrwt>
<rscale>  0 0.30000000E+03</rscale>
<asrwt>  1 0.34236972E+02</asrwt>
<pdfrwt beam="1">  1        1 0.81608551E+00 0.30000000E+03</pdfrwt>
<pdfrwt beam="2">0</pdfrwt>
<totfact> 0.78327556E-04</totfact>
</mgrwt>
<clustering>
<clus scale="   34.237">  1  6  2 -1</clus>
<clus scale="  460.648">  4  5 -1 -1</clus>
<clus scale="  300.000">  1  4  2 -1</clus>
</clustering>
</event>
<event>
 6    1  0.1007353E-011  0.3000000E+03  0.7818608E-02  0.1093470E+00
          1   -1    0    0  502    0  0.00000000000E+00  0.00000000000E+00  0.23562705896E+03  0.23562705896E+03  0.00000000000E+00 0.  1.
         13   -1    0    0    0    0 -0.00000000000E+00 -0.00000000000E+00 -0.27500000000E+03  0.27500000000E+03  0.00000000000E+00 0.  1.
    9000005    2    1    2  501    0  0.30445707168E+02 -0.78586255918E+01 -0.67203094003E+02  0.46863638743E+03  0.46272573810E+03 0.  0.
         13    1    3    3    0    0  0.19996491686E+03  0.13289513216E+03 -0.63142163430E+02  0.24826199252E+03  0.00000000000E+00 0.  1.
          3    1    3    3  501    0 -0.16951920969E+03 -0.14075375775E+03 -0.40609305729E+01  0.22037439491E+03  0.00000000000E+00 0.  1.
         21    1    1    2  502  501 -0.30445707168E+02  0.78586255918E+01  0.27830152962E+02  0.41990671524E+02  0.00000000000E+00 0.  1.
<scales pt_clust_4="550.00000" pt_clust_5="550.00000" pt_clust_6="31.44359"></scales>
<mgrwt>
<rscale>  0 0.30000000E+03</rscale>
<asrwt>  1 0.31443586E+02</asrwt>
<pdfrwt beam="1">  1        1 0.85682567E+00 0.30000000E+03</pdfrwt>
<pdfrwt beam="2">0</pdfrwt>
<totfact> 0.35635055E-04</totfact>
</mgrwt>
<clustering>
<clus scale="   31.444">  1  6  2 -1</clus>
<clus scale="  462.726">  4  5 -1 -1</clus>
<clus scale="  300.000">  1  4  2 -1</clus>
</clustering>
</event>
<event>
 6    1  0.1007353E-011  0.3000000E+03  0.7818608E-02  0.1093470E+00
          1   -1    0    0  502    0  0.00000000000E+00  0.00000000000E+00  0.23541300625E+03  0.23541300625E+03  0.00000000000E+00 0.  1.
         13   -1    0    0    0    0 -0.00000000000E+00 -0.00000000000E+00 -0.27500000000E+03  0.27500000000E+03  0.00000000000E+00 0.  1.
    9000005    2    1    2  501    0 -0.38858450592E+02 -0.42015865470E+01 -0.65639394561E+02  0.46344109869E+03  0.45710118062E+03 0.  0.
         13    1    3    3    0    0  0.11794512325E+03  0.12401048059E+03  0.10311472800E+03  0.19980565189E+03  0.00000000000E+00 0.  1.
          3    1    3    3  501    0 -0.15680357385E+03 -0.12821206713E+03 -0.16875412256E+03  0.26363544680E+03  0.00000000000E+00 0.  1.
         21    1    1    2  502  501  0.38858450592E+02  0.42015865470E+01  0.26052400811E+02  0.46971907561E+02  0.00000000000E+00 0.  1.
<scales pt_clust_4="550.00000" pt_clust_5="550.00000" pt_clust_6="39.08494"></scales>
<mgrwt>
<rscale>  0 0.30000000E+03</rscale>
<asrwt>  1 0.39084940E+02</asrwt>
<pdfrwt beam="1">  1        1 0.85604730E+00 0.30000000E+03</pdfrwt>
<pdfrwt beam="2">0</pdfrwt>
<totfact> 0.34844620E-04</totfact>
</mgrwt>
<clustering>
<clus scale="   39.085">  1  6  2 -1</clus>
<clus scale="  457.101">  4  5 -1 -1</clus>
<clus scale="  300.000">  1  4  2 -1</clus>
</clustering>
</event>
<event>
 6    1  0.1007353E-011  0.3000000E+03  0.7818608E-02  0.1093470E+00
          1   -1    0    0  502    0  0.00000000000E+00  0.00000000000E+00  0.22561300932E+03  0.22561300932E+03  0.00000000000E+00 0.  1.
         13   -1    0    0    0    0 -0.00000000000E+00 -0.00000000000E+00 -0.27500000000E+03  0.27500000000E+03  0.00000000000E+00 0.  1.
    9000005    2    1    2  501    0 -0.48140393124E+00 -0.31295756182E+02 -0.68556380916E+02  0.46390985378E+03  0.45774744015E+03 0.  0.
         13    1    3    3    0    0 -0.15565298169E+03 -0.14962169678E+03  0.67284453388E+02  0.22614530843E+03  0.00000000000E+00 0.  1.
          1    1    3    3  501    0  0.15517157776E+03  0.11832594060E+03 -0.13584083430E+03  0.23776454535E+03  0.00000000000E+00 0.  1.
         21    1    1    2  502  501  0.48140393124E+00  0.31295756182E+02  0.19169390240E+02  0.36703155544E+02  0.00000000000E+00 0. -1.
<scales pt_clust_4="550.00000" pt_clust_5="550.00000" pt_clust_6="31.29946"></scales>
<mgrwt>
<rscale>  0 0.30000000E+03</rscale>
<asrwt>  1 0.31299459E+02</asrwt>
<pdfrwt beam="1">  1        1 0.82041094E+00 0.30000000E+03</pdfrwt>
<pdfrwt beam="2">0</pdfrwt>
<totfact> 0.73268322E-04</totfact>
</mgrwt>
<clustering>
<clus scale="   31.299">  1  6  2 -1</clus>
<clus scale="  457.747">  4  5 -1 -1</clus>
<clus scale="  300.000">  1  4  2 -1</clus>
</clustering>
</event>
<event>
 6    1  0.1007353E-011  0.3000000E+03  0.7818608E-02  0.1093470E+00
          1   -1    0    0  502    0  0.00000000000E+00  0.00000000000E+00  0.23171888973E+03  0.23171888973E+03  0.00000000000E+00 0.  1.
         13   -1    0    0    0    0 -0.00000000000E+00 -0.00000000000E+00 -0.27500000000E+03  0.27500000000E+03  0.00000000000E+00 0.  1.
    9000005    2    1    2  501    0  0.78258249939E+01  0.33862503069E+02 -0.43884309430E+02  0.47195861786E+03  0.46862692167E+03 0.  0.
         13    1    3    3    0    0  0.71492278408E+02  0.22100384476E+03  0.71546794711E+02  0.24304894384E+03  0.00000000000E+00 0.  1.
          1    1    3    3  501    0 -0.63666453414E+02 -0.18714134169E+03 -0.11543110414E+03  0.22890967402E+03  0.00000000000E+00 0.  1.
         21    1    1    2  502  501 -0.78258249939E+01 -0.33862503069E+02  0.60319916060E+00  0.34760271866E+02  0.00000000000E+00 0.  1.
<scales pt_clust_4="550.00000" pt_clust_5="550.00000" pt_clust_6="34.75504"></scales>
<mgrwt>
<rscale>  0 0.30000000E+03</rscale>
<asrwt>  1 0.34755038E+02</asrwt>
<pdfrwt beam="1">  1        1 0.84261414E+00 0.30000000E+03</pdfrwt>
<pdfrwt beam="2">0</pdfrwt>
<totfact> 0.47418791E-04</totfact>
</mgrwt>
<clustering>
<clus scale="   34.755">  1  6  2 -1</clus>
<clus scale="  468.627">  4  5 -1 -1</clus>
<clus scale="  300.000">  1  4  2 -1</clus>
</clustering>
</event>
<event>
 6    1  0.1007353E-011  0.3000000E+03  0.7818608E-02  0.1093470E+00
          1   -1    0    0  502    0  0.00000000000E+00  0.00000000000E+00  0.25367431791E+03  0.25367431791E+03  0.00000000000E+00 0.  1.
         13   -1    0    0    0    0 -0.00000000000E+00 -0.00000000000E+00 -0.27500000000E+03  0.27500000000E+03  0.00000000000E+00 0.  1.
    9000005    2    1    2  501    0  0.17273847704E+02 -0.26757681049E+02 -0.41801214807E+02  0.49081131816E+03  0.48798980437E+03 0.  0.
         13    1    3    3    0    0 -0.22539891319E+03  0.53975030537E+02 -0.65057259737E+00  0.23177229609E+03  0.00000000000E+00 0.  1.
          1    1    3    3  501    0  0.24267276090E+03 -0.80732711586E+02 -0.41150642210E+02  0.25903902207E+03  0.00000000000E+00 0.  1.
         21    1    1    2  502  501 -0.17273847704E+02  0.26757681049E+02  0.20475532717E+02  0.37862999745E+02  0.00000000000E+00 0.  1.
<scales pt_clust_4="550.00000" pt_clust_5="550.00000" pt_clust_6="31.84901"></scales>
<mgrwt>
<rscale>  0 0.30000000E+03</rscale>
<asrwt>  1 0.31849008E+02</asrwt>
<pdfrwt beam="1">  1        1 0.92245207E+00 0.30000000E+03</pdfrwt>
<pdfrwt beam="2">0</pdfrwt>
<totfact> 0.37716677E-05</totfact>
</mgrwt>
<clustering>
<clus scale="   31.849">  1  6  2 -1</clus>
<clus scale="  487.990">  4  5 -1 -1</clus>
<clus scale="  300.000">  1  4  2 -1</clus>
</clustering>
</event>
<event>
 6    1  0.1007353E-011  0.3000000E+03  0.7818608E-02  0.1093470E+00
          1   -1    0    0  502    0  0.00000000000E+00  0.00000000000E+00  0.23745428247E+03  0.23745428247E+03  0.00000000000E+00 0.  1.
         13   -1    0    0    0    0 -0.00000000000E+00 -0.00000000000E+00 -0.27500000000E+03  0.27500000000E+03  0.00000000000E+00 0.  1.
    9000005    2    1    2  501    0 -0.12557545005E+02 -0.29893868743E+02 -0.59989712185E+02  0.47301992916E+03  0.46807878876E+03 0.  0.
         13    1    3    3    0    0  0.19983994298E+03 -0.10266306679E+03  0.38337123212E+02  0.22791542973E+03  0.00000000000E+00 0.  1.
          1    1    3    3  501    0 -0.21239748798E+03  0.72769198043E+02 -0.98326835397E+02  0.24510449944E+03  0.00000000000E+00 0.  1.
         21    1    1    2  502  501  0.12557545005E+02  0.29893868743E+02  0.22443994659E+02  0.39434353314E+02  0.00000000000E+00 0.  1.
<scales pt_clust_4="550.00000" pt_clust_5="550.00000" pt_clust_6="32.42430"></scales>
<mgrwt>
<rscale>  0 0.30000000E+03</rscale>
<asrwt>  1 0.32424301E+02</asrwt>
<pdfrwt beam="1">  1        1 0.86347012E+00 0.30000000E+03</pdfrwt>
<pdfrwt beam="2">0</pdfrwt>
<totfact> 0.30108235E-04</totfact>
</mgrwt>
<clustering>
<clus scale="   32.424">  1  6  2 -1</clus>
<clus scale="  468.079">  4  5 -1 -1</clus>
<clus scale="  300.000">  1  4  2 -1</clus>
</clustering>
</event>
<event>
 6    1  0.1007353E-011  0.3000000E+03  0.7818608E-02  0.1093470E+00
          1   -1    0    0  502    0  0.00000000000E+00  0.00000000000E+00  0.23817745512E+03  0.23817745512E+03  0.00000000000E+00 0.  1.
         13   -1    0    0    0    0 -0.00000000000E+00 -0.00000000000E+00 -0.27500000000E+03  0.27500000000E+03  0.00000000000E+00 0.  1.
    9000005    2    1    2  501    0 -0.31931847033E+02  0.35990833895E+00 -0.44673488416E+02  0.48029266071E+03  0.47714310953E+03 0.  0.
         13    1    3    3    0    0  0.28281487669E+01  0.22894815726E+03  0.43081795835E+02  0.23298347210E+03  0.00000000000E+00 0.  1.
          1    1    3    3  501    0 -0.34759995800E+02 -0.22858824892E+03 -0.87755284251E+02  0.24730918861E+03  0.00000000000E+00 0.  1.
         21    1    1    2  502  501  0.31931847033E+02 -0.35990833895E+00  0.78509435319E+01  0.32884794409E+02  0.00000000000E+00 0. -1.
<scales pt_clust_4="550.00000" pt_clust_5="550.00000" pt_clust_6="31.93388"></scales>
<mgrwt>
<rscale>  0 0.30000000E+03</rscale>
<asrwt>  1 0.31933875E+02</asrwt>
<pdfrwt beam="1">  1        1 0.86609984E+00 0.30000000E+03</pdfrwt>
<pdfrwt beam="2">0</pdfrwt>
<totfact> 0.28290441E-04</totfact>
</mgrwt>
<clustering>
<clus scale="   31.934">  1  6  2 -1</clus>
<clus scale="  477.143">  4  5 -1 -1</clus>
<clus scale="  300.000">  1  4  2 -1</clus>
</clustering>
</event>
<event>
 6    1  0.1007353E-011  0.3000000E+03  0.7818608E-02  0.1093470E+00
          1   -1    0    0  502    0  0.00000000000E+00  0.00000000000E+00  0.23622379410E+03  0.23622379410E+03  0.00000000000E+00 0.  1.
         13   -1    0    0    0    0 -0.00000000000E+00 -0.00000000000E+00 -0.27500000000E+03  0.27500000000E+03  0.00000000000E+00 0.  1.
    9000005    2    1    2  501    0  0.39730883710E+02  0.86752703159E+01 -0.50912456831E+01  0.45841773403E+03  0.45658196927E+03 0.  0.
         13    1    3    3    0    0 -0.66365936473E+02  0.17833472441E+03 -0.12260412550E+03  0.22636139919E+03  0.00000000000E+00 0.  1.
          3    1    3    3  501    0  0.10609682018E+03 -0.16965945410E+03  0.11751287982E+03  0.23205633484E+03  0.00000000000E+00 0.  1.
         21    1    1    2  502  501 -0.39730883710E+02 -0.86752703159E+01 -0.33684960214E+02  0.52806060069E+02  0.00000000000E+00 0. -1.
<scales pt_clust_4="550.00000" pt_clust_5="550.00000" pt_clust_6="40.66700"></scales>
<mgrwt>
<rscale>  0 0.30000000E+03</rscale>
<asrwt>  1 0.40667002E+02</asrwt>
<pdfrwt beam="1">  1        1 0.85899561E+00 0.30000000E+03</pdfrwt>
<pdfrwt beam="2">0</pdfrwt>
<totfact> 0.32245295E-04</totfact>
</mgrwt>
<clustering>
<clus scale="   40.667">  1  6  2 -1</clus>
<clus scale="  456.582">  4  5 -1 -1</clus>
<clus scale="  300.000">  1  4  2 -1</clus>
</clustering>
</event>
<event>
 6    1  0.1007353E-011  0.3000000E+03  0.7818608E-02  0.1093470E+00
          1   -1    0    0  502    0  0.00000000000E+00  0.00000000000E+00  0.23532109976E+03  0.23532109976E+03  0.00000000000E+00 0.  1.
         13   -1    0    0    0    0 -0.00000000000E+00 -0.00000000000E+00 -0.27500000000E+03  0.27500000000E+03  0.00000000000E+00 0.  1.
    9000005    2    1    2  501    0  0.50937393180E+01  0.41382568765E+02 -0.59580305196E+02  0.46412013552E+03  0.45838763535E+03 0.  0.
         13    1    3    3    0    0 -0.11903519274E+03  0.16067636669E+03  0.10507944749E+03  0.22589369670E+03  0.00000000000E+00 0.  1.
          1    1    3    3  501    0  0.12412893206E+03 -0.11929379792E+03 -0.16465975269E+03  0.23822643882E+03  0.00000000000E+00 0.  1.
         21    1    1    2  502  501 -0.50937393180E+01 -0.41382568765E+02  0.19901404954E+02  0.46200964243E+02  0.00000000000E+00 0.  1.
<scales pt_clust_4="550.00000" pt_clust_5="550.00000" pt_clust_6="41.69488"></scales>
<mgrwt>
<rscale>  0 0.30000000E+03</rscale>
<asrwt>  1 0.41694882E+02</asrwt>
<pdfrwt beam="1">  1        1 0.85571309E+00 0.30000000E+03</pdfrwt>
<pdfrwt beam="2">0</pdfrwt>
<totfact> 0.34705068E-04</totfact>
</mgrwt>
<clustering>
<clus scale="   41.695">  1  6  2 -1</clus>
<clus scale="  458.388">  4  5 -1 -1</clus>
<clus scale="  300.000">  1  4  2 -1</clus>
</clustering>
</event>
<event>
 6    1  0.1007353E-011  0.3000000E+03  0.7818608E-02  0.1093470E+00
          1   -1    0    0  502    0  0.00000000000E+00  0.00000000000E+00  0.23868404196E+03  0.23868404196E+03  0.00000000000E+00 0.  1.
         13   -1    0    0    0    0 -0.00000000000E+00 -0.00000000000E+00 -0.27500000000E+03  0.27500000000E+03  0.00000000000E+00 0.  1.
    9000005    2    1    2  501    0  0.23860509337E+02 -0.18276141526E+02 -0.62278029442E+02  0.47396791921E+03  0.46889625103E+03 0.  0.
         13    1    3    3    0    0  0.16672136080E+03 -0.12616542352E+03  0.10052414181E+03  0.23198885604E+03  0.00000000000E+00 0.  1.
          1    1    3    3  501    0 -0.14286085147E+03  0.10788928199E+03 -0.16280217125E+03  0.24197906317E+03  0.00000000000E+00 0.  1.
         21    1    1    2  502  501 -0.23860509337E+02  0.18276141526E+02  0.25962071400E+02  0.39716122750E+02  0.00000000000E+00 0. -1.
<scales pt_clust_4="550.00000" pt_clust_5="550.00000" pt_clust_6="30.05564"></scales>
<mgrwt>
<rscale>  0 0.30000000E+03</rscale>
<asrwt>  1 0.30055636E+02</asrwt>
<pdfrwt beam="1">  1        1 0.86794197E+00 0.30000000E+03</pdfrwt>
<pdfrwt beam="2">0</pdfrwt>
<totfact> 0.27371412E-04</totfact>
</mgrwt>
<clustering>
<clus scale="   30.056">  1  6  2 -1</clus>
<clus scale="  468.896">  4  5 -1 -1</clus>
<clus scale="  300.000">  1  4  2 -1</clus>
</clustering>
</event>
<event>
 6    1  0.1007353E-011  0.3000000E+03  0.7818608E-02  0.1093470E+00
          1   -1    0    0  502    0  0.00000000000E+00  0.00000000000E+00  0.22461459336E+03  0.22461459336E+03  0.00000000000E+00 0.  1.
         13   -1    0    0    0    0 -0.00000000000E+00 -0.00000000000E+00 -0.27500000000E+03  0.27500000000E+03  0.00000000000E+00 0.  1.
    9000005    2    1    2  501    0 -0.19626105965E+02 -0.26430766155E+02 -0.56253238605E+02  0.46617508249E+03  0.46159615602E+03 0.  0.
         13    1    3    3    0    0  0.14299885590E+03  0.82929611430E+02 -0.17200997377E+03  0.23856534601E+03  0.00000000000E+00 0.  1.
          3    1    3    3  501    0 -0.16262496187E+03 -0.10936037759E+03  0.11575673516E+03  0.22760973648E+03  0.00000000000E+00 0.  1.
         21    1    1    2  502  501  0.19626105965E+02  0.26430766155E+02  0.58678319612E+01  0.33439510864E+02  0.00000000000E+00 0. -1.
<scales pt_clust_4="550.00000" pt_clust_5="550.00000" pt_clust_6="32.92065"></scales>
<mgrwt>
<rscale>  0 0.30000000E+03</rscale>
<asrwt>  1 0.32920654E+02</asrwt>
<pdfrwt beam="1">  1        1 0.81678034E+00 0.30000000E+03</pdfrwt>
<pdfrwt beam="2">0</pdfrwt>
<totfact> 0.77881551E-04</totfact>
</mgrwt>
<clustering>
<clus scale="   32.921">  1  6  2 -1</clus>
<clus scale="  461.596">  4  5 -1 -1</clus>
<clus scale="  300.000">  1  4  2 -1</clus>
</clustering>
</event>
<event>
 6    1  0.1007353E-011  0.3000000E+03  0.7818608E-02  0.1093470E+00
          1   -1    0    0  502    0  0.00000000000E+00  0.00000000000E+00  0.22753081960E+03  0.22753081960E+03  0.00000000000E+00 0.  1.
         13   -1    0    0    0    0 -0.00000000000E+00 -0.00000000000E+00 -0.27500000000E+03  0.27500000000E+03  0.00000000000E+00 0.  1.
    9000005    2    1    2  501    0 -0.31866527388E+02  0.21914690423E+02 -0.60384679364E+02  0.46175657114E+03  0.45615468020E+03 0.  0.
         13    1    3    3    0    0  0.10383966827E+03 -0.18055106401E+03  0.85497049120E+01  0.20845733586E+03  0.00000000000E+00 0.  1.
          3    1    3    3  501    0 -0.13570619566E+03  0.20246575443E+03 -0.68934384276E+02  0.25329923528E+03  0.00000000000E+00 0.  1.
         21    1    1    2  502  501  0.31866527388E+02 -0.21914690423E+02  0.12915498965E+02  0.40774248461E+02  0.00000000000E+00 0. -1.
<scales pt_clust_4="550.00000" pt_clust_5="550.00000" pt_clust_6="38.67466"></scales>
<mgrwt>
<rscale>  0 0.30000000E+03</rscale>
<asrwt>  1 0.38674659E+02</asrwt>
<pdfrwt beam="1">  1        1 0.82738480E+00 0.30000000E+03</pdfrwt>
<pdfrwt beam="2">0</pdfrwt>
<totfact> 0.61076388E-04</totfact>
</mgrwt>
<clustering>
<clus scale="   38.675">  1  6  2 -1</clus>
<clus scale="  456.155">  4  5 -1 -1</clus>
<clus scale="  300.000">  1  4  2 -1</clus>
</clustering>
</event>
<event>
 6    1  0.1007353E-011  0.3000000E+03  0.7818608E-02  0.1093470E+00
          1   -1    0    0  502    0  0.00000000000E+00  0.00000000000E+00  0.22524726363E+03  0.22524726363E+03  0.00000000000E+00 0.  1.
         13   -1    0    0    0    0 -0.00000000000E+00 -0.00000000000E+00 -0.27500000000E+03  0.27500000000E+03  0.00000000000E+00 0.  1.
    9000005    2    1    2  501    0  0.99185122557E+01 -0.37067416770E+02 -0.49050369167E+02  0.46186935865E+03  0.45765160927E+03 0.  0.
         13    1    3    3    0    0  0.56882736149E+00 -0.19489646362E+03  0.12121486387E+03  0.22951688025E+03  0.00000000000E+00 0.  1.
          3    1    3    3  501    0  0.93496848942E+01  0.15782904685E+03 -0.17026523303E+03  0.23235247840E+03  0.00000000000E+00 0.  1.
         21    1    1    2  502  501 -0.99185122557E+01  0.37067416770E+02 -0.70236720156E+00  0.38377904985E+02  0.00000000000E+00 0.  1.
<scales pt_clust_4="550.00000" pt_clust_5="550.00000" pt_clust_6="38.37148"></scales>
<mgrwt>
<rscale>  0 0.30000000E+03</rscale>
<asrwt>  1 0.38371477E+02</asrwt>
<pdfrwt beam="1">  1        1 0.81908096E+00 0.30000000E+03</pdfrwt>
<pdfrwt beam="2">0</pdfrwt>
<totfact> 0.72411153E-04</totfact>
</mgrwt>
<clustering>
<clus scale="   38.371">  1  6  2 -1</clus>
<clus scale="  457.652">  4  5 -1 -1</clus>
<clus scale="  300.000">  1  4  2 -1</clus>
</clustering>
</event>
<event>
 6    1  0.1007353E-011  0.3000000E+03  0.7818608E-02  0.1093470E+00
          1   -1    0    0  502    0  0.00000000000E+00  0.00000000000E+00  0.23262030009E+03  0.23262030009E+03  0.00000000000E+00 0.  1.
         13   -1    0    0    0    0 -0.00000000000E+00 -0.00000000000E+00 -0.27500000000E+03  0.27500000000E+03  0.00000000000E+00 0.  1.
    9000005    2    1    2  501    0 -0.25006120529E+02 -0.17188574062E+02 -0.66134584198E+02  0.46908398385E+03  0.46340613670E+03 0.  0.
         13    1    3    3    0    0  0.38109398367E+02 -0.23448279766E+03 -0.45423306770E+02  0.24186315437E+03  0.00000000000E+00 0.  1.
          1    1    3    3  501    0 -0.63115518896E+02  0.21729422360E+03 -0.20711277428E+02  0.22722082948E+03  0.00000000000E+00 0.  1.
         21    1    1    2  502  501  0.25006120529E+02  0.17188574062E+02  0.23754884292E+02  0.38536316248E+02  0.00000000000E+00 0.  1.
<scales pt_clust_4="550.00000" pt_clust_5="550.00000" pt_clust_6="30.34391"></scales>
<mgrwt>
<rscale>  0 0.30000000E+03</rscale>
<asrwt>  1 0.30343914E+02</asrwt>
<pdfrwt beam="1">  1        1 0.84589200E+00 0.30000000E+03</pdfrwt>
<pdfrwt beam="2">0</pdfrwt>
<totfact> 0.45590009E-04</totfact>
</mgrwt>
<clustering>
<clus scale="   30.344">  1  6  2 -1</clus>
<clus scale="  463.406">  4  5 -1 -1</clus>
<clus scale="  300.000">  1  4  2 -1</clus>
</clustering>
</event>
<event>
 6    1  0.1007353E-011  0.3000000E+03  0.7818608E-02  0.1093470E+00
          1   -1    0    0  502    0  0.00000000000E+00  0.00000000000E+00  0.23556368184E+03  0.23556368184E+03  0.00000000000E+00 0.  1.
         13   -1    0    0    0    0 -0.00000000000E+00 -0.00000000000E+00 -0.27500000000E+03  0.27500000000E+03  0.00000000000E+00 0.  1.
    9000005    2    1    2  501    0 -0.87413935744E+01  0.34050534460E+02 -0.52187552303E+02  0.47316789557E+03  0.46896531420E+03 0.  0.
         13    1    3    3    0    0 -0.44804496274E+02 -0.45579256057E+01  0.20536881072E+03  0.21024881924E+03  0.00000000000E+00 0.  1.
          1    1    3    3  501    0  0.36063102699E+02  0.38608460066E+02 -0.25755636303E+03  0.26291907633E+03  0.00000000000E+00 0.  1.
         21    1    1    2  502  501  0.87413935744E+01 -0.34050534460E+02  0.12751234143E+02  0.37395786271E+02  0.00000000000E+00 0.  1.
<scales pt_clust_4="550.00000" pt_clust_5="550.00000" pt_clust_6="35.15467"></scales>
<mgrwt>
<rscale>  0 0.30000000E+03</rscale>
<asrwt>  1 0.35154671E+02</asrwt>
<pdfrwt beam="1">  1        1 0.85659521E+00 0.30000000E+03</pdfrwt>
<pdfrwt beam="2">0</pdfrwt>
<totfact> 0.35082177E-04</totfact>
</mgrwt>
<clustering>
<clus scale="   35.155">  1  6  2 -1</clus>
<clus scale="  468.965">  4  5 -1 -1</clus>
<clus scale="  300.000">  1  4  2 -1</clus>
</clustering>
</event>
<event>
 6    1  0.1007353E-011  0.3000000E+03  0.7818608E-02  0.1093470E+00
          1   -1    0    0  502    0  0.00000000000E+00  0.00000000000E+00  0.23385243334E+03  0.23385243334E+03  0.00000000000E+00 0.  1.
         13   -1    0    0    0    0 -0.00000000000E+00 -0.00000000000E+00 -0.27500000000E+03  0.27500000000E+03  0.00000000000E+00 0.  1.
    9000005    2    1    2  501    0  0.29139771548E+02  0.10505129687E+02 -0.50413725188E+02  0.47652062657E+03  0.47283282439E+03 0.  0.
         13    1    3    3    0    0 -0.78747509163E+02 -0.19579701940E+03  0.59216627285E+02  0.21918999054E+03  0.00000000000E+00 0.  1.
          3    1    3    3  501    0  0.10788728071E+03  0.20630214908E+03 -0.10963035247E+03  0.25733063603E+03  0.00000000000E+00 0.  1.
         21    1    1    2  502  501 -0.29139771548E+02 -0.10505129687E+02  0.92661585316E+01  0.32331806778E+02  0.00000000000E+00 0.  1.
<scales pt_clust_4="550.00000" pt_clust_5="550.00000" pt_clust_6="30.97554"></scales>
<mgrwt>
<rscale>  0 0.30000000E+03</rscale>
<asrwt>  1 0.30975539E+02</asrwt>
<pdfrwt beam="1">  1        1 0.85037248E+00 0.30000000E+03</pdfrwt>
<pdfrwt beam="2">0</pdfrwt>
<totfact> 0.41315586E-04</totfact>
</mgrwt>
<clustering>
<clus scale="   30.976">  1  6  2 -1</clus>
<clus scale="  472.833">  4  5 -1 -1</clus>
<clus scale="  300.000">  1  4  2 -1</clus>
</clustering>
</event>
<event>
 6    1  0.1007353E-011  0.3000000E+03  0.7818608E-02  0.1093470E+00
          1   -1    0    0  502    0  0.00000000000E+00  0.00000000000E+00  0.23265736937E+03  0.23265736937E+03  0.00000000000E+00 0.  1.
         13   -1    0    0    0    0 -0.00000000000E+00 -0.00000000000E+00 -0.27500000000E+03  0.27500000000E+03  0.00000000000E+00 0.  1.
    9000005    2    1    2  501    0 -0.29222495351E+02  0.10566266812E+02 -0.68021841067E+02  0.46734580679E+03  0.46132367383E+03 0.  0.
         13    1    3    3    0    0  0.20457440863E+03 -0.14139087985E+02  0.39490522909E+02  0.20883032317E+03  0.00000000000E+00 0.  1.
          3    1    3    3  501    0 -0.23379690398E+03  0.24705354797E+02 -0.10751236398E+03  0.25851548362E+03  0.00000000000E+00 0.  1.
         21    1    1    2  502  501  0.29222495351E+02 -0.10566266812E+02  0.25679210440E+02  0.40311562580E+02  0.00000000000E+00 0.  1.
<scales pt_clust_4="550.00000" pt_clust_5="550.00000" pt_clust_6="31.07411"></scales>
<mgrwt>
<rscale>  0 0.30000000E+03</rscale>
<asrwt>  1 0.31074109E+02</asrwt>
<pdfrwt beam="1">  1        1 0.84602680E+00 0.30000000E+03</pdfrwt>
<pdfrwt beam="2">0</pdfrwt>
<totfact> 0.45257691E-04</totfact>
</mgrwt>
<clustering>
<clus scale="   31.074">  1  6  2 -1</clus>
<clus scale="  461.324">  4  5 -1 -1</clus>
<clus scale="  300.000">  1  4  2 -1</clus>
</clustering>
</event>
<event>
 6    1  0.1007353E-011  0.3000000E+03  0.7818608E-02  0.1093470E+00
          1   -1    0    0  502    0  0.00000000000E+00  0.00000000000E+00  0.22607864061E+03  0.22607864061E+03  0.00000000000E+00 0.  1.
         13   -1    0    0    0    0 -0.00000000000E+00 -0.00000000000E+00 -0.27500000000E+03  0.27500000000E+03  0.00000000000E+00 0.  1.
    9000005    2    1    2  501    0 -0.37207206212E+02 -0.81898158472E+01 -0.52426925196E+02  0.46281980804E+03  0.45825990764E+03 0.  0.
         13    1    3    3    0    0 -0.57054711540E+02 -0.19372802505E+03  0.96738936288E+02  0.22392902803E+03  0.00000000000E+00 0.  1.
          1    1    3    3  501    0  0.19847505328E+02  0.18553820921E+03 -0.14916586148E+03  0.23889078001E+03  0.00000000000E+00 0.  1.
         21    1    1    2  502  501  0.37207206212E+02  0.81898158472E+01  0.35055658029E+01  0.38258832566E+02  0.00000000000E+00 0. -1.
<scales pt_clust_4="550.00000" pt_clust_5="550.00000" pt_clust_6="38.09789"></scales>
<mgrwt>
<rscale>  0 0.30000000E+03</rscale>
<asrwt>  1 0.38097891E+02</asrwt>
<pdfrwt beam="1">  1        1 0.82210415E+00 0.30000000E+03</pdfrwt>
<pdfrwt beam="2">0</pdfrwt>
<totfact> 0.68236776E-04</totfact>
</mgrwt>
<clustering>
<clus scale="   38.098">  1  6  2 -1</clus>
<clus scale="  458.260">  4  5 -1 -1</clus>
<clus scale="  300.000">  1  4  2 -1</clus>
</clustering>
</event>
<event>
 6    1  0.1007353E-011  0.3000000E+03  0.7818608E-02  0.1093470E+00
          1   -1    0    0  502    0  0.00000000000E+00  0.00000000000E+00  0.23968833093E+03  0.23968833093E+03  0.00000000000E+00 0.  1.
         13   -1    0    0    0    0 -0.00000000000E+00 -0.00000000000E+00 -0.27500000000E+03  0.27500000000E+03  0.00000000000E+00 0.  1.
    9000005    2    1    2  501    0  0.27401688627E+01 -0.34854256929E+02 -0.57507611217E+01  0.46890432685E+03  0.46756375901E+03 0.  0.
         13    1    3    3    0    0  0.81277796526E+01  0.18198614175E+03 -0.12542745355E+03  0.22117202060E+03  0.00000000000E+00 0.  1.
          3    1    3    3  501    0 -0.53876107899E+01 -0.21684039868E+03  0.11967669243E+03  0.24773230625E+03  0.00000000000E+00 0.  1.
         21    1    1    2  502  501 -0.27401688627E+01  0.34854256929E+02 -0.29560907943E+02  0.45784004083E+02  0.00000000000E+00 0. -1.
<scales pt_clust_4="550.00000" pt_clust_5="550.00000" pt_clust_6="34.96182"></scales>
<mgrwt>
<rscale>  0 0.30000000E+03</rscale>
<asrwt>  1 0.34961822E+02</asrwt>
<pdfrwt beam="1">  1        1 0.87159393E+00 0.30000000E+03</pdfrwt>
<pdfrwt beam="2">0</pdfrwt>
<totfact> 0.24398681E-04</totfact>
</mgrwt>
<clustering>
<clus scale="   34.962">  1  6  2 -1</clus>
<clus scale="  467.564">  4  5 -1 -1</clus>
<clus scale="  300.000">  1  4  2 -1</clus>
</clustering>
</event>
<event>
 6    1  0.1007353E-011  0.3000000E+03  0.7818608E-02  0.1093470E+00
          1   -1    0    0  502    0  0.00000000000E+00  0.00000000000E+00  0.23593240389E+03  0.23593240389E+03  0.00000000000E+00 0.  1.
         13   -1    0    0    0    0 -0.00000000000E+00 -0.00000000000E+00 -0.27500000000E+03  0.27500000000E+03  0.00000000000E+00 0.  1.
    9000005    2    1    2  501    0 -0.33519583806E+02  0.16366817486E+02 -0.68274402798E+02  0.46355653693E+03  0.45698121804E+03 0.  0.
         13    1    3    3    0    0  0.13575286016E+03 -0.15956235388E+03 -0.65161491082E+02  0.21939690914E+03  0.00000000000E+00 0.  1.
          1    1    3    3  501    0 -0.16927244397E+03  0.17592917137E+03 -0.31129117163E+01  0.24415962780E+03  0.00000000000E+00 0.  1.
         21    1    1    2  502  501  0.33519583806E+02 -0.16366817486E+02  0.29206806692E+02  0.47375866961E+02  0.00000000000E+00 0.  1.
<scales pt_clust_4="550.00000" pt_clust_5="550.00000" pt_clust_6="37.30195"></scales>
<mgrwt>
<rscale>  0 0.30000000E+03</rscale>
<asrwt>  1 0.37301947E+02</asrwt>
<pdfrwt beam="1">  1        1 0.85793601E+00 0.30000000E+03</pdfrwt>
<pdfrwt beam="2">0</pdfrwt>
<totfact> 0.33609591E-04</totfact>
</mgrwt>
<clustering>
<clus scale="   37.302">  1  6  2 -1</clus>
<clus scale="  456.981">  4  5 -1 -1</clus>
<clus scale="  300.000">  1  4  2 -1</clus>
</clustering>
</event>
<event>
 6    1  0.1007353E-011  0.3000000E+03  0.7818608E-02  0.1093470E+00
          1   -1    0    0  502    0  0.00000000000E+00  0.00000000000E+00  0.23015411249E+03  0.23015411249E+03  0.00000000000E+00 0.  1.
         13   -1    0    0    0    0 -0.00000000000E+00 -0.00000000000E+00 -0.27500000000E+03  0.27500000000E+03  0.00000000000E+00 0.  1.
    9000005    2    1    2  501    0 -0.30115719131E+02  0.23452743882E+02 -0.48070621177E+02  0.46684762947E+03  0.46279470263E+03 0.  0.
         13    1    3    3    0    0  0.20154651549E+03 -0.59024220651E+01 -0.10378917071E+03  0.22677748664E+03  0.00000000000E+00 0.  1.
          1    1    3    3  501    0 -0.23166223462E+03  0.29355165947E+02  0.55718549529E+02  0.24007014283E+03  0.00000000000E+00 0.  1.
         21    1    1    2  502  501  0.30115719131E+02 -0.23452743882E+02  0.32247336687E+01  0.38306483023E+02  0.00000000000E+00 0.  1.
<scales pt_clust_4="550.00000" pt_clust_5="550.00000" pt_clust_6="38.17051"></scales>
<mgrwt>
<rscale>  0 0.30000000E+03</rscale>
<asrwt>  1 0.38170509E+02</asrwt>
<pdfrwt beam="1">  1        1 0.83692405E+00 0.30000000E+03</pdfrwt>
<pdfrwt beam="2">0</pdfrwt>
<totfact> 0.51549235E-04</totfact>
</mgrwt>
<clustering>
<clus scale="   38.171">  1  6  2 -1</clus>
<clus scale="  462.795">  4  5 -1 -1</clus>
<clus scale="  300.000">  1  4  2 -1</clus>
</clustering>
</event>
<event>
 6    1  0.1007353E-011  0.3000000E+03  0.7818608E-02  0.1093470E+00
          1   -1    0    0  502    0  0.00000000000E+00  0.00000000000E+00  0.23045809637E+03  0.23045809637E+03  0.00000000000E+00 0.  1.
         13   -1    0    0    0    0 -0.00000000000E+00 -0.00000000000E+00 -0.27500000000E+03  0.27500000000E+03  0.00000000000E+00 0.  1.
    9000005    2    1    2  501    0 -0.89184358278E+01 -0.43196524291E+02 -0.42986985656E+02  0.46132312182E+03  0.45719324534E+03 0.  0.
         13    1    3    3    0    0  0.56313950245E+01 -0.21498573957E+03 -0.14651277905E+03  0.26022408661E+03  0.00000000000E+00 0.  1.
          3    1    3    3  501    0 -0.14549830852E+02  0.17178921528E+03  0.10352579339E+03  0.20109903521E+03  0.00000000000E+00 0.  1.
         21    1    1    2  502  501  0.89184358278E+01  0.43196524291E+02 -0.15549179753E+01  0.44134974548E+02  0.00000000000E+00 0. -1.
<scales pt_clust_4="550.00000" pt_clust_5="550.00000" pt_clust_6="44.10758"></scales>
<mgrwt>
<rscale>  0 0.30000000E+03</rscale>
<asrwt>  1 0.44107575E+02</asrwt>
<pdfrwt beam="1">  1        1 0.83802944E+00 0.30000000E+03</pdfrwt>
<pdfrwt beam="2">0</pdfrwt>
<totfact> 0.49289303E-04</totfact>
</mgrwt>
<clustering>
<clus scale="   44.108">  1  6  2 -1</clus>
<clus scale="  457.193">  4  5 -1 -1</clus>
<clus scale="  300.000">  1  4  2 -1</clus>
</clustering>
</event>
<event>
 6    1  0.1007353E-011  0.3000000E+03  0.7818608E-02  0.1093470E+00
          1   -1    0    0  502    0  0.00000000000E+00  0.00000000000E+00  0.22612621883E+03  0.22612621883E+03  0.00000000000E+00 0.  1.
         13   -1    0    0    0    0 -0.00000000000E+00 -0.00000000000E+00 -0.27500000000E+03  0.27500000000E+03  0.00000000000E+00 0.  1.
    9000005    2    1    2  501    0 -0.37216494077E+02  0.29863078156E+01 -0.41077550381E+02  0.46298481507E+03  0.45964506783E+03 0.  0.
         13    1    3    3    0    0  0.11091652144E+03  0.18507032032E+03  0.29745862171E+02  0.21780338498E+03  0.00000000000E+00 0.  1.
          1    1    3    3  501    0 -0.14813301552E+03 -0.18208401251E+03 -0.70823412553E+02  0.24518143009E+03  0.00000000000E+00 0.  1.
         21    1    1    2  502  501  0.37216494077E+02 -0.29863078156E+01 -0.77962307916E+01  0.38141403754E+02  0.00000000000E+00 0.  1.
<scales pt_clust_4="550.00000" pt_clust_5="550.00000" pt_clust_6="37.33613"></scales>
<mgrwt>
<rscale>  0 0.30000000E+03</rscale>
<asrwt>  1 0.37336133E+02</asrwt>
<pdfrwt beam="1">  1        1 0.82227716E+00 0.30000000E+03</pdfrwt>
<pdfrwt beam="2">0</pdfrwt>
<totfact> 0.68249907E-04</totfact>
</mgrwt>
<clustering>
<clus scale="   37.336">  1  6  2 -1</clus>
<clus scale="  459.645">  4  5 -1 -1</clus>
<clus scale="  300.000">  1  4  2 -1</clus>
</clustering>
</event>
<event>
 6    1  0.1007353E-011  0.3000000E+03  0.7818608E-02  0.1093470E+00
          1   -1    0    0  502    0  0.00000000000E+00  0.00000000000E+00  0.24433126820E+03  0.24433126820E+03  0.00000000000E+00 0.  1.
         13   -1    0    0    0    0 -0.00000000000E+00 -0.00000000000E+00 -0.27500000000E+03  0.27500000000E+03  0.00000000000E+00 0.  1.
    9000005    2    1    2  501    0  0.25170910029E+02 -0.18067190822E+02 -0.62603640199E+02  0.47483591484E+03  0.46967002477E+03 0.  0.
         13    1    3    3    0    0  0.10109738215E+03  0.14309729302E+03 -0.18799255993E+03  0.25697999637E+03  0.00000000000E+00 0.  1.
          1    1    3    3  501    0 -0.75926472116E+02 -0.16116448384E+03  0.12538891973E+03  0.21785591847E+03  0.00000000000E+00 0.  1.
         21    1    1    2  502  501 -0.25170910029E+02  0.18067190822E+02  0.31934908400E+02  0.44495353357E+02  0.00000000000E+00 0.  1.
<scales pt_clust_4="550.00000" pt_clust_5="550.00000" pt_clust_6="30.98384"></scales>
<mgrwt>
<rscale>  0 0.30000000E+03</rscale>
<asrwt>  1 0.30983836E+02</asrwt>
<pdfrwt beam="1">  1        1 0.88847734E+00 0.30000000E+03</pdfrwt>
<pdfrwt beam="2">0</pdfrwt>
<totfact> 0.15553261E-04</totfact>
</mgrwt>
<clustering>
<clus scale="   30.984">  1  6  2 -1</clus>
<clus scale="  469.670">  4  5 -1 -1</clus>
<clus scale="  300.000">  1  4  2 -1</clus>
</clustering>
</event>
<event>
 6    1  0.1007353E-011  0.3000000E+03  0.7818608E-02  0.1093470E+00
          1   -1    0    0  502    0  0.00000000000E+00  0.00000000000E+00  0.24665361411E+03  0.24665361411E+03  0.00000000000E+00 0.  1.
         13   -1    0    0    0    0 -0.00000000000E+00 -0.00000000000E+00 -0.27500000000E+03  0.27500000000E+03  0.00000000000E+00 0.  1.
    9000005    2    1    2  501    0  0.84486818192E+01 -0.44706292055E+02 -0.30853649619E+02  0.47608696902E+03  0.47290254979E+03 0.  0.
         13    1    3    3    0    0  0.13128471745E+03 -0.14437924047E+03 -0.17496689863E+03  0.26209627569E+03  0.00000000000E+00 0.  1.
          1    1    3    3  501    0 -0.12283603563E+03  0.99672948411E+02  0.14411324901E+03  0.21399069333E+03  0.00000000000E+00 0.  1.
         21    1    1    2  502  501 -0.84486818192E+01  0.44706292055E+02  0.25072637339E+01  0.45566645095E+02  0.00000000000E+00 0. -1.
<scales pt_clust_4="550.00000" pt_clust_5="550.00000" pt_clust_6="45.49761"></scales>
<mgrwt>
<rscale>  0 0.30000000E+03</rscale>
<asrwt>  1 0.45497613E+02</asrwt>
<pdfrwt beam="1">  1        1 0.89692223E+00 0.30000000E+03</pdfrwt>
<pdfrwt beam="2">0</pdfrwt>
<totfact> 0.11439955E-04</totfact>
</mgrwt>
<clustering>
<clus scale="   45.498">  1  6  2 -1</clus>
<clus scale="  472.903">  4  5 -1 -1</clus>
<clus scale="  300.000">  1  4  2 -1</clus>
</clustering>
</event>
<event>
 6    1  0.1007353E-011  0.3000000E+03  0.7818608E-02  0.1093470E+00
          1   -1    0    0  502    0  0.00000000000E+00  0.00000000000E+00  0.24707755900E+03  0.24707755900E+03  0.00000000000E+00 0.  1.
         13   -1    0    0    0    0 -0.00000000000E+00 -0.00000000000E+00 -0.27500000000E+03  0.27500000000E+03  0.00000000000E+00 0.  1.
    9000005    2    1    2  501    0  0.13343409995E+02 -0.27912145560E+02 -0.28334322649E+02  0.49113722761E+03  0.48934221976E+03 0.  0.
         13    1    3    3    0    0  0.14336464854E+03  0.63942477834E+02 -0.20181861773E+03  0.25568108530E+03  0.00000000000E+00 0.  1.
          3    1    3    3  501    0 -0.13002123854E+03 -0.91854623393E+02  0.17348429508E+03  0.23545614230E+03  0.00000000000E+00 0.  1.
         21    1    1    2  502  501 -0.13343409995E+02  0.27912145560E+02  0.41188164797E+00  0.30940331390E+02  0.00000000000E+00 0. -1.
<scales pt_clust_4="550.00000" pt_clust_5="550.00000" pt_clust_6="30.93759"></scales>
<mgrwt>
<rscale>  0 0.30000000E+03</rscale>
<asrwt>  1 0.30937590E+02</asrwt>
<pdfrwt beam="1">  1        1 0.89846385E+00 0.30000000E+03</pdfrwt>
<pdfrwt beam="2">0</pdfrwt>
<totfact> 0.11797811E-04</totfact>
</mgrwt>
<clustering>
<clus scale="   30.938">  1  6  2 -1</clus>
<clus scale="  489.342">  4  5 -1 -1</clus>
<clus scale="  300.000">  1  4  2 -1</clus>
</clustering>
</event>
<event>
 6    1  0.1007353E-011  0.3000000E+03  0.7818608E-02  0.1093470E+00
          1   -1    0    0  502    0  0.00000000000E+00  0.00000000000E+00  0.21979672958E+03  0.21979672958E+03  0.00000000000E+00 0.  1.
         13   -1    0    0    0    0 -0.00000000000E+00 -0.00000000000E+00 -0.27500000000E+03  0.27500000000E+03  0.00000000000E+00 0.  1.
    9000005    2    1    2  501    0  0.30066107886E+02  0.72188685045E+01 -0.61765337369E+02  0.46318749630E+03  0.45800831535E+03 0.  0.
         13    1    3    3    0    0  0.19943719968E+03 -0.11008727282E+03  0.43354540147E+02  0.23189226034E+03  0.00000000000E+00 0.  1.
          1    1    3    3  501    0 -0.16937109180E+03  0.11730614133E+03 -0.10511987752E+03  0.23129523596E+03  0.00000000000E+00 0.  1.
         21    1    1    2  502  501 -0.30066107886E+02 -0.72188685045E+01  0.65620669536E+01  0.31609233281E+02  0.00000000000E+00 0.  1.
<scales pt_clust_4="550.00000" pt_clust_5="550.00000" pt_clust_6="30.92059"></scales>
<mgrwt>
<rscale>  0 0.30000000E+03</rscale>
<asrwt>  1 0.30920590E+02</asrwt>
<pdfrwt beam="1">  1        1 0.79926083E+00 0.30000000E+03</pdfrwt>
<pdfrwt beam="2">0</pdfrwt>
<totfact> 0.10747781E-03</totfact>
</mgrwt>
<clustering>
<clus scale="   30.921">  1  6  2 -1</clus>
<clus scale="  458.008">  4  5 -1 -1</clus>
<clus scale="  300.000">  1  4  2 -1</clus>
</clustering>
</event>
<event>
 6    1  0.1007353E-011  0.3000000E+03  0.7818608E-02  0.1093470E+00
          1   -1    0    0  502    0  0.00000000000E+00  0.00000000000E+00  0.23666001459E+03  0.23666001459E+03  0.00000000000E+00 0.  1.
         13   -1    0    0    0    0 -0.00000000000E+00 -0.00000000000E+00 -0.27500000000E+03  0.27500000000E+03  0.00000000000E+00 0.  1.
    9000005    2    1    2  501    0 -0.21636786833E+02  0.23259248637E+02 -0.59240229892E+02  0.47363418901E+03  0.46883984149E+03 0.  0.
         13    1    3    3    0    0 -0.77536646704E+02 -0.52342327185E+02 -0.24674073286E+03  0.26387997281E+03  0.00000000000E+00 0.  1.
          3    1    3    3  501    0  0.55899859871E+02  0.75601575822E+02  0.18750050297E+03  0.20975421620E+03  0.00000000000E+00 0.  1.
         21    1    1    2  502  501  0.21636786833E+02 -0.23259248637E+02  0.20900244484E+02  0.38025825580E+02  0.00000000000E+00 0. -1.
<scales pt_clust_4="550.00000" pt_clust_5="550.00000" pt_clust_6="31.76701"></scales>
<mgrwt>
<rscale>  0 0.30000000E+03</rscale>
<asrwt>  1 0.31767014E+02</asrwt>
<pdfrwt beam="1">  1        1 0.86058187E+00 0.30000000E+03</pdfrwt>
<pdfrwt beam="2">0</pdfrwt>
<totfact> 0.32474764E-04</totfact>
</mgrwt>
<clustering>
<clus scale="   31.767">  1  6  2 -1</clus>
<clus scale="  468.840">  4  5 -1 -1</clus>
<clus scale="  300.000">  1  4  2 -1</clus>
</clustering>
</event>
<event>
 6    1  0.1007353E-011  0.3000000E+03  0.7818608E-02  0.1093470E+00
          1   -1    0    0  502    0  0.00000000000E+00  0.00000000000E+00  0.22341062122E+03  0.22341062122E+03  0.00000000000E+00 0.  1.
         13   -1    0    0    0    0 -0.00000000000E+00 -0.00000000000E+00 -0.27500000000E+03  0.27500000000E+03  0.00000000000E+00 0.  1.
    9000005    2    1    2  501    0  0.21257082901E+02 -0.24521422457E+02 -0.60319282722E+02  0.46480444686E+03  0.45972991442E+03 0.  0.
         13    1    3    3    0    0  0.13821528368E+03 -0.76258445828E+02  0.15057967490E+03  0.21815832254E+03  0.00000000000E+00 0.  1.
          1    1    3    3  501    0 -0.11695820078E+03  0.51737023371E+02 -0.21089895762E+03  0.24664612432E+03  0.00000000000E+00 0.  1.
         21    1    1    2  502  501 -0.21257082901E+02  0.24521422457E+02  0.87299039449E+01  0.33606174368E+02  0.00000000000E+00 0.  1.
<scales pt_clust_4="550.00000" pt_clust_5="550.00000" pt_clust_6="32.45248"></scales>
<mgrwt>
<rscale>  0 0.30000000E+03</rscale>
<asrwt>  1 0.32452484E+02</asrwt>
<pdfrwt beam="1">  1        1 0.81240226E+00 0.30000000E+03</pdfrwt>
<pdfrwt beam="2">0</pdfrwt>
<totfact> 0.84702508E-04</totfact>
</mgrwt>
<clustering>
<clus scale="   32.452">  1  6  2 -1</clus>
<clus scale="  459.730">  4  5 -1 -1</clus>
<clus scale="  300.000">  1  4  2 -1</clus>
</clustering>
</event>
<event>
 6    1  0.1007353E-011  0.3000000E+03  0.7818608E-02  0.1093470E+00
          1   -1    0    0  502    0  0.00000000000E+00  0.00000000000E+00  0.24745193695E+03  0.24745193695E+03  0.00000000000E+00 0.  1.
         13   -1    0    0    0    0 -0.00000000000E+00 -0.00000000000E+00 -0.27500000000E+03  0.27500000000E+03  0.00000000000E+00 0.  1.
    9000005    2    1    2  501    0 -0.17466623020E+01 -0.31843770369E+02 -0.54199571590E+02  0.48089018232E+03  0.47676062898E+03 0.  0.
         13    1    3    3    0    0  0.12556712129E+03 -0.97337061151E+02 -0.21387412590E+03  0.26642775222E+03  0.00000000000E+00 0.  1.
          3    1    3    3  501    0 -0.12731378359E+03  0.65493290783E+02  0.15967455431E+03  0.21446243010E+03  0.00000000000E+00 0.  1.
         21    1    1    2  502  501  0.17466623020E+01  0.31843770369E+02  0.26651508537E+02  0.41561754628E+02  0.00000000000E+00 0.  1.
<scales pt_clust_4="550.00000" pt_clust_5="550.00000" pt_clust_6="31.89164"></scales>
<mgrwt>
<rscale>  0 0.30000000E+03</rscale>
<asrwt>  1 0.31891637E+02</asrwt>
<pdfrwt beam="1">  1        1 0.89982523E+00 0.30000000E+03</pdfrwt>
<pdfrwt beam="2">0</pdfrwt>
<totfact> 0.11296351E-04</totfact>
</mgrwt>
<clustering>
<clus scale="   31.892">  1  6  2 -1</clus>
<clus scale="  476.761">  4  5 -1 -1</clus>
<clus scale="  300.000">  1  4  2 -1</clus>
</clustering>
</event>
<event>
 6    1  0.1007353E-011  0.3000000E+03  0.7818608E-02  0.1093470E+00
          1   -1    0    0  502    0  0.00000000000E+00  0.00000000000E+00  0.22668016883E+03  0.22668016883E+03  0.00000000000E+00 0.  1.
         13   -1    0    0    0    0 -0.00000000000E+00 -0.00000000000E+00 -0.27500000000E+03  0.27500000000E+03  0.00000000000E+00 0.  1.
    9000005    2    1    2  501    0 -0.33109759163E+02  0.78045615309E+01 -0.22813015833E+02  0.45916234950E+03  0.45733189499E+03 0.  0.
         13    1    3    3    0    0  0.63247759240E+02 -0.84732565705E+02 -0.20652041767E+03  0.23201415831E+03  0.00000000000E+00 0.  1.
          1    1    3    3  501    0 -0.96357518403E+02  0.92537127235E+02  0.18370740184E+03  0.22714819119E+03  0.00000000000E+00 0.  1.
         21    1    1    2  502  501  0.33109759163E+02 -0.78045615309E+01 -0.25506815334E+02  0.42517819335E+02  0.00000000000E+00 0.  1.
<scales pt_clust_4="550.00000" pt_clust_5="550.00000" pt_clust_6="34.01718"></scales>
<mgrwt>
<rscale>  0 0.30000000E+03</rscale>
<asrwt>  1 0.34017179E+02</asrwt>
<pdfrwt beam="1">  1        1 0.82429152E+00 0.30000000E+03</pdfrwt>
<pdfrwt beam="2">0</pdfrwt>
<totfact> 0.66631000E-04</totfact>
</mgrwt>
<clustering>
<clus scale="   34.017">  1  6  2 -1</clus>
<clus scale="  457.332">  4  5 -1 -1</clus>
<clus scale="  300.000">  1  4  2 -1</clus>
</clustering>
</event>
<event>
 6    1  0.1007353E-011  0.3000000E+03  0.7818608E-02  0.1093470E+00
          1   -1    0    0  502    0  0.00000000000E+00  0.00000000000E+00  0.22866846817E+03  0.22866846817E+03  0.00000000000E+00 0.  1.
         13   -1    0    0    0    0 -0.00000000000E+00 -0.00000000000E+00 -0.27500000000E+03  0.27500000000E+03  0.00000000000E+00 0.  1.
    9000005    2    1    2  501    0 -0.29561340490E+02  0.13291664032E+02 -0.66014812341E+02  0.46574785747E+03  0.45990495769E+03 0.  0.
         13    1    3    3    0    0  0.16792011588E+03 -0.12989179418E+03  0.27530722162E+01  0.21231255949E+03  0.00000000000E+00 0.  1.
          3    1    3    3  501    0 -0.19748145637E+03  0.14318345821E+03 -0.68767884557E+02  0.25343529798E+03  0.00000000000E+00 0.  1.
         21    1    1    2  502  501  0.29561340490E+02 -0.13291664032E+02  0.19683280512E+02  0.37920610702E+02  0.00000000000E+00 0. -1.
<scales pt_clust_4="550.00000" pt_clust_5="550.00000" pt_clust_6="32.41205"></scales>
<mgrwt>
<rscale>  0 0.30000000E+03</rscale>
<asrwt>  1 0.32412053E+02</asrwt>
<pdfrwt beam="1">  1        1 0.83152170E+00 0.30000000E+03</pdfrwt>
<pdfrwt beam="2">0</pdfrwt>
<totfact> 0.58296788E-04</totfact>
</mgrwt>
<clustering>
<clus scale="   32.412">  1  6  2 -1</clus>
<clus scale="  459.905">  4  5 -1 -1</clus>
<clus scale="  300.000">  1  4  2 -1</clus>
</clustering>
</event>
<event>
 6    1  0.1007353E-011  0.3000000E+03  0.7818608E-02  0.1093470E+00
          1   -1    0    0  502    0  0.00000000000E+00  0.00000000000E+00  0.24881002340E+03  0.24881002340E+03  0.00000000000E+00 0.  1.
         13   -1    0    0    0    0 -0.00000000000E+00 -0.00000000000E+00 -0.27500000000E+03  0.27500000000E+03  0.00000000000E+00 0.  1.
    9000005    2    1    2  501    0 -0.33407922735E+02 -0.11526479790E+02 -0.29979948540E+02  0.48826690979E+03  0.48606257709E+03 0.  0.
         13    1    3    3    0    0  0.84283004625E+02  0.15789722398E+03  0.13494422280E+03  0.22415419129E+03  0.00000000000E+00 0.  1.
          3    1    3    3  501    0 -0.11769092736E+03 -0.16942370377E+03 -0.16492417134E+03  0.26411271850E+03  0.00000000000E+00 0.  1.
         21    1    1    2  502  501  0.33407922735E+02  0.11526479790E+02  0.37899719421E+01  0.35543113611E+02  0.00000000000E+00 0.  1.
<scales pt_clust_4="550.00000" pt_clust_5="550.00000" pt_clust_6="35.34047"></scales>
<mgrwt>
<rscale>  0 0.30000000E+03</rscale>
<asrwt>  1 0.35340473E+02</asrwt>
<pdfrwt beam="1">  1        1 0.90476372E+00 0.30000000E+03</pdfrwt>
<pdfrwt beam="2">0</pdfrwt>
<totfact> 0.93243652E-05</totfact>
</mgrwt>
<clustering>
<clus scale="   35.340">  1  6  2 -1</clus>
<clus scale="  486.063">  4  5 -1 -1</clus>
<clus scale="  300.000">  1  4  2 -1</clus>
</clustering>
</event>
<event>
 6    1  0.1007353E-011  0.3000000E+03  0.7818608E-02  0.1093470E+00
          1   -1    0    0  502    0  0.00000000000E+00  0.00000000000E+00  0.22531536114E+03  0.22531536114E+03  0.00000000000E+00 0.  1.
         13   -1    0    0    0    0 -0.00000000000E+00 -0.00000000000E+00 -0.27500000000E+03  0.27500000000E+03  0.00000000000E+00 0.  1.
    9000005    2    1    2  501    0 -0.16079527103E+02  0.29167381731E+02 -0.63570556480E+02  0.46423065445E+03  0.45864975475E+03 0.  0.
         13    1    3    3    0    0  0.10942032832E+03  0.13095929567E+03  0.12820896639E+03  0.21344948919E+03  0.00000000000E+00 0.  1.
          3    1    3    3  501    0 -0.12549985543E+03 -0.10179191394E+03 -0.19177952287E+03  0.25078116526E+03  0.00000000000E+00 0.  1.
         21    1    1    2  502  501  0.16079527103E+02 -0.29167381731E+02  0.13885917618E+02  0.36084706691E+02  0.00000000000E+00 0.  1.
<scales pt_clust_4="550.00000" pt_clust_5="550.00000" pt_clust_6="33.30597"></scales>
<mgrwt>
<rscale>  0 0.30000000E+03</rscale>
<asrwt>  1 0.33305966E+02</asrwt>
<pdfrwt beam="1">  1        1 0.81932859E+00 0.30000000E+03</pdfrwt>
<pdfrwt beam="2">0</pdfrwt>
<totfact> 0.73985204E-04</totfact>
</mgrwt>
<clustering>
<clus scale="   33.306">  1  6  2 -1</clus>
<clus scale="  458.650">  4  5 -1 -1</clus>
<clus scale="  300.000">  1  4  2 -1</clus>
</clustering>
</event>
<event>
 6    1  0.1007353E-011  0.3000000E+03  0.7818608E-02  0.1093470E+00
          1   -1    0    0  502    0  0.00000000000E+00  0.00000000000E+00  0.23232501555E+03  0.23232501555E+03  0.00000000000E+00 0.  1.
         13   -1    0    0    0    0 -0.00000000000E+00 -0.00000000000E+00 -0.27500000000E+03  0.27500000000E+03  0.00000000000E+00 0.  1.
    9000005    2    1    2  501    0 -0.41896179131E+02 -0.14164281357E+02 -0.22967272557E+02  0.45890693421E+03  0.45619311916E+03 0.  0.
         13    1    3    3    0    0 -0.13862143273E+03  0.17252301251E+03  0.65489272121E+02  0.23080064172E+03  0.00000000000E+00 0.  1.
          3    1    3    3  501    0  0.96725253600E+02 -0.18668729387E+03 -0.88456544677E+02  0.22810629249E+03  0.00000000000E+00 0.  1.
         21    1    1    2  502  501  0.41896179131E+02  0.14164281357E+02 -0.19707711896E+02  0.48418081336E+02  0.00000000000E+00 0.  1.
<scales pt_clust_4="550.00000" pt_clust_5="550.00000" pt_clust_6="44.22577"></scales>
<mgrwt>
<rscale>  0 0.30000000E+03</rscale>
<asrwt>  1 0.44225769E+02</asrwt>
<pdfrwt beam="1">  1        1 0.84481824E+00 0.30000000E+03</pdfrwt>
<pdfrwt beam="2">0</pdfrwt>
<totfact> 0.43446514E-04</totfact>
</mgrwt>
<clustering>
<clus scale="   44.226">  1  6  2 -1</clus>
<clus scale="  456.193">  4  5 -1 -1</clus>
<clus scale="  300.000">  1  4  2 -1</clus>
</clustering>
</event>
<event>
 6    1  0.1007353E-011  0.3000000E+03  0.7818608E-02  0.1093470E+00
          1   -1    0    0  502    0  0.00000000000E+00  0.00000000000E+00  0.24652398359E+03  0.24652398359E+03  0.00000000000E+00 0.  1.
         13   -1    0    0    0    0 -0.00000000000E+00 -0.00000000000E+00 -0.27500000000E+03  0.27500000000E+03  0.00000000000E+00 0.  1.
    9000005    2    1    2  501    0  0.31331356070E+02  0.28639348083E+01 -0.23948993258E+02  0.48973798142E+03  0.48813920163E+03 0.  0.
         13    1    3    3    0    0 -0.22770681001E+03 -0.78413409162E+00 -0.35287310364E+02  0.23042612799E+03  0.00000000000E+00 0.  1.
          1    1    3    3  501    0  0.25903816608E+03  0.36480689000E+01  0.11338317105E+02  0.25931185342E+03  0.00000000000E+00 0.  1.
         21    1    1    2  502  501 -0.31331356070E+02 -0.28639348083E+01 -0.45270231476E+01  0.31786002176E+02  0.00000000000E+00 0.  1.
<scales pt_clust_4="550.00000" pt_clust_5="550.00000" pt_clust_6="31.46199"></scales>
<mgrwt>
<rscale>  0 0.30000000E+03</rscale>
<asrwt>  1 0.31461993E+02</asrwt>
<pdfrwt beam="1">  1        1 0.89645085E+00 0.30000000E+03</pdfrwt>
<pdfrwt beam="2">0</pdfrwt>
<totfact> 0.12394778E-04</totfact>
</mgrwt>
<clustering>
<clus scale="   31.462">  1  6  2 -1</clus>
<clus scale="  488.139">  4  5 -1 -1</clus>
<clus scale="  300.000">  1  4  2 -1</clus>
</clustering>
</event>
<event>
 6    1  0.1007353E-011  0.3000000E+03  0.7818608E-02  0.1093470E+00
          1   -1    0    0  502    0  0.00000000000E+00  0.00000000000E+00  0.23444121812E+03  0.23444121812E+03  0.00000000000E+00 0.  1.
         13   -1    0    0    0    0 -0.00000000000E+00 -0.00000000000E+00 -0.27500000000E+03  0.27500000000E+03  0.00000000000E+00 0.  1.
    9000005    2    1    2  501    0 -0.28873757020E+02 -0.85415542251E+01 -0.67300827447E+02  0.46916977670E+03  0.46334029179E+03 0.  0.
         13    1    3    3    0    0  0.14209430182E+03 -0.17306077828E+03 -0.59857799804E+02  0.23178390752E+03  0.00000000000E+00 0.  1.
          1    1    3    3  501    0 -0.17096805884E+03  0.16451922405E+03 -0.74430276429E+01  0.23738586918E+03  0.00000000000E+00 0.  1.
         21    1    1    2  502  501  0.28873757020E+02  0.85415542251E+01  0.26742045564E+02  0.40271441419E+02  0.00000000000E+00 0.  1.
<scales pt_clust_4="550.00000" pt_clust_5="550.00000" pt_clust_6="30.11066"></scales>
<mgrwt>
<rscale>  0 0.30000000E+03</rscale>
<asrwt>  1 0.30110662E+02</asrwt>
<pdfrwt beam="1">  1        1 0.85251352E+00 0.30000000E+03</pdfrwt>
<pdfrwt beam="2">0</pdfrwt>
<totfact> 0.39635636E-04</totfact>
</mgrwt>
<clustering>
<clus scale="   30.111">  1  6  2 -1</clus>
<clus scale="  463.340">  4  5 -1 -1</clus>
<clus scale="  300.000">  1  4  2 -1</clus>
</clustering>
</event>
<event>
 6    1  0.1007353E-011  0.3000000E+03  0.7818608E-02  0.1093470E+00
          1   -1    0    0  502    0  0.00000000000E+00  0.00000000000E+00  0.24326304906E+03  0.24326304906E+03  0.00000000000E+00 0.  1.
         13   -1    0    0    0    0 -0.00000000000E+00 -0.00000000000E+00 -0.27500000000E+03  0.27500000000E+03  0.00000000000E+00 0.  1.
    9000005    2    1    2  501    0 -0.45457597794E+02 -0.36237744938E+01 -0.52965349649E+02  0.46796225533E+03  0.46271353904E+03 0.  0.
         13    1    3    3    0    0  0.17435833987E+03 -0.10019997884E+03  0.49205377272E+02  0.20703148455E+03  0.00000000000E+00 0.  1.
          3    1    3    3  501    0 -0.21981593767E+03  0.96576204343E+02 -0.10217072692E+03  0.26093077078E+03  0.00000000000E+00 0.  1.
         21    1    1    2  502  501  0.45457597794E+02  0.36237744938E+01  0.21228398714E+02  0.50300793739E+02  0.00000000000E+00 0.  1.
<scales pt_clust_4="550.00000" pt_clust_5="550.00000" pt_clust_6="45.60181"></scales>
<mgrwt>
<rscale>  0 0.30000000E+03</rscale>
<asrwt>  1 0.45601809E+02</asrwt>
<pdfrwt beam="1">  1        1 0.88459291E+00 0.30000000E+03</pdfrwt>
<pdfrwt beam="2">0</pdfrwt>
<totfact> 0.16379016E-04</totfact>
</mgrwt>
<clustering>
<clus scale="   45.602">  1  6  2 -1</clus>
<clus scale="  462.714">  4  5 -1 -1</clus>
<clus scale="  300.000">  1  4  2 -1</clus>
</clustering>
</event>
<event>
 6    1  0.1007353E-011  0.3000000E+03  0.7818608E-02  0.1093470E+00
          1   -1    0    0  502    0  0.00000000000E+00  0.00000000000E+00  0.24927042653E+03  0.24927042653E+03  0.00000000000E+00 0.  1.
         13   -1    0    0    0    0 -0.00000000000E+00 -0.00000000000E+00 -0.27500000000E+03  0.27500000000E+03  0.00000000000E+00 0.  1.
    9000005    2    1    2  501    0  0.21165105791E+02 -0.29923649736E+02 -0.37434298360E+02  0.48579462763E+03  0.48296139289E+03 0.  0.
         13    1    3    3    0    0  0.23333973712E+03 -0.77141901835E+02 -0.90759509392E+02  0.26198395844E+03  0.00000000000E+00 0.  1.
          3    1    3    3  501    0 -0.21217463132E+03  0.47218252099E+02  0.53325211033E+02  0.22381066918E+03  0.00000000000E+00 0.  1.
         21    1    1    2  502  501 -0.21165105791E+02  0.29923649736E+02  0.11704724891E+02  0.38475798906E+02  0.00000000000E+00 0.  1.
<scales pt_clust_4="550.00000" pt_clust_5="550.00000" pt_clust_6="36.65224"></scales>
<mgrwt>
<rscale>  0 0.30000000E+03</rscale>
<asrwt>  1 0.36652238E+02</asrwt>
<pdfrwt beam="1">  1        1 0.90643791E+00 0.30000000E+03</pdfrwt>
<pdfrwt beam="2">0</pdfrwt>
<totfact> 0.85838928E-05</totfact>
</mgrwt>
<clustering>
<clus scale="   36.652">  1  6  2 -1</clus>
<clus scale="  482.961">  4  5 -1 -1</clus>
<clus scale="  300.000">  1  4  2 -1</clus>
</clustering>
</event>
<event>
 6    1  0.1007353E-011  0.3000000E+03  0.7818608E-02  0.1093470E+00
          1   -1    0    0  502    0  0.00000000000E+00  0.00000000000E+00  0.23451673627E+03  0.23451673627E+03  0.00000000000E+00 0.  1.
         13   -1    0    0    0    0 -0.00000000000E+00 -0.00000000000E+00 -0.27500000000E+03  0.27500000000E+03  0.00000000000E+00 0.  1.
    9000005    2    1    2  501    0  0.13272472688E+02  0.43738573057E+02 -0.45483870808E+02  0.46353600796E+03  0.45902900439E+03 0.  0.
         13    1    3    3    0    0 -0.10142147119E+03 -0.26262577860E+02 -0.21977136351E+03  0.24346558286E+03  0.00000000000E+00 0.  1.
          1    1    3    3  501    0  0.11469394388E+03  0.70001150917E+02  0.17428749271E+03  0.22007042511E+03  0.00000000000E+00 0.  1.
         21    1    1    2  502  501 -0.13272472688E+02 -0.43738573057E+02  0.50006070739E+01  0.45980728305E+02  0.00000000000E+00 0.  1.
<scales pt_clust_4="550.00000" pt_clust_5="550.00000" pt_clust_6="45.70800"></scales>
<mgrwt>
<rscale>  0 0.30000000E+03</rscale>
<asrwt>  1 0.45708000E+02</asrwt>
<pdfrwt beam="1">  1        1 0.85278813E+00 0.30000000E+03</pdfrwt>
<pdfrwt beam="2">0</pdfrwt>
<totfact> 0.36465763E-04</totfact>
</mgrwt>
<clustering>
<clus scale="   45.708">  1  6  2 -1</clus>
<clus scale="  459.029">  4  5 -1 -1</clus>
<clus scale="  300.000">  1  4  2 -1</clus>
</clustering>
</event>
<event>
 6    1  0.1007353E-011  0.3000000E+03  0.7818608E-02  0.1093470E+00
          1   -1    0    0  502    0  0.00000000000E+00  0.00000000000E+00  0.22812085643E+03  0.22812085643E+03  0.00000000000E+00 0.  1.
         13   -1    0    0    0    0 -0.00000000000E+00 -0.00000000000E+00 -0.27500000000E+03  0.27500000000E+03  0.00000000000E+00 0.  1.
    9000005    2    1    2  501    0  0.10650063544E+02 -0.28558527719E+02 -0.49973942761E+02  0.47248442157E+03  0.46884445215E+03 0.  0.
         13    1    3    3    0    0 -0.77284853295E+01 -0.75146206883E+02  0.20195737260E+03  0.21562342693E+03  0.00000000000E+00 0.  1.
          1    1    3    3  501    0  0.18378548873E+02  0.46587679163E+02 -0.25193131536E+03  0.25686099464E+03  0.00000000000E+00 0.  1.
         21    1    1    2  502  501 -0.10650063544E+02  0.28558527719E+02  0.30947991923E+01  0.30636434862E+02  0.00000000000E+00 0. -1.
<scales pt_clust_4="550.00000" pt_clust_5="550.00000" pt_clust_6="30.47972"></scales>
<mgrwt>
<rscale>  0 0.30000000E+03</rscale>
<asrwt>  1 0.30479720E+02</asrwt>
<pdfrwt beam="1">  1        1 0.82953039E+00 0.30000000E+03</pdfrwt>
<pdfrwt beam="2">0</pdfrwt>
<totfact> 0.61218324E-04</totfact>
</mgrwt>
<clustering>
<clus scale="   30.480">  1  6  2 -1</clus>
<clus scale="  468.844">  4  5 -1 -1</clus>
<clus scale="  300.000">  1  4  2 -1</clus>
</clustering>
</event>
<event>
 6    1  0.1007353E-011  0.3000000E+03  0.7818608E-02  0.1093470E+00
          1   -1    0    0  502    0  0.00000000000E+00  0.00000000000E+00  0.23981424848E+03  0.23981424848E+03  0.00000000000E+00 0.  1.
         13   -1    0    0    0    0 -0.00000000000E+00 -0.00000000000E+00 -0.27500000000E+03  0.27500000000E+03  0.00000000000E+00 0.  1.
    9000005    2    1    2  501    0 -0.32776647599E+02 -0.86337650946E+01 -0.30506737075E+02  0.48059811627E+03  0.47842976269E+03 0.  0.
         13    1    3    3    0    0 -0.83984951063E+02  0.10070773149E+03  0.18902393056E+03  0.23005557048E+03  0.00000000000E+00 0.  1.
          1    1    3    3  501    0  0.51208303465E+02 -0.10934149658E+03 -0.21953066763E+03  0.25054254579E+03  0.00000000000E+00 0.  1.
         21    1    1    2  502  501  0.32776647599E+02  0.86337650946E+01 -0.46790144407E+01  0.34216132214E+02  0.00000000000E+00 0.  1.
<scales pt_clust_4="550.00000" pt_clust_5="550.00000" pt_clust_6="33.89471"></scales>
<mgrwt>
<rscale>  0 0.30000000E+03</rscale>
<asrwt>  1 0.33894715E+02</asrwt>
<pdfrwt beam="1">  1        1 0.87205181E+00 0.30000000E+03</pdfrwt>
<pdfrwt beam="2">0</pdfrwt>
<totfact> 0.24278020E-04</totfact>
</mgrwt>
<clustering>
<clus scale="   33.895">  1  6  2 -1</clus>
<clus scale="  478.430">  4  5 -1 -1</clus>
<clus scale="  300.000">  1  4  2 -1</clus>
</clustering>
</event>
<event>
 6    1  0.1007353E-011  0.3000000E+03  0.7818608E-02  0.1093470E+00
          1   -1    0    0  502    0  0.00000000000E+00  0.00000000000E+00  0.21807567100E+03  0.21807567100E+03  0.00000000000E+00 0.  1.
         13   -1    0    0    0    0 -0.00000000000E+00 -0.00000000000E+00 -0.27500000000E+03  0.27500000000E+03  0.00000000000E+00 0.  1.
    9000005    2    1    2  501    0 -0.52123968927E+01 -0.30449677440E+02 -0.49453414649E+02  0.46129255443E+03  0.45759242631E+03 0.  0.
         13    1    3    3    0    0 -0.10144662880E+03 -0.15565795521E+03 -0.17827685259E+03  0.25749457020E+03  0.00000000000E+00 0.  1.
          3    1    3    3  501    0  0.96234231903E+02  0.12520827777E+03  0.12882343794E+03  0.20379798423E+03  0.00000000000E+00 0.  1.
         21    1    1    2  502  501  0.52123968927E+01  0.30449677440E+02 -0.74709143540E+01  0.31783116569E+02  0.00000000000E+00 0.  1.
<scales pt_clust_4="550.00000" pt_clust_5="550.00000" pt_clust_6="30.89260"></scales>
<mgrwt>
<rscale>  0 0.30000000E+03</rscale>
<asrwt>  1 0.30892603E+02</asrwt>
<pdfrwt beam="1">  1        1 0.79300244E+00 0.30000000E+03</pdfrwt>
<pdfrwt beam="2">0</pdfrwt>
<totfact> 0.11960571E-03</totfact>
</mgrwt>
<clustering>
<clus scale="   30.893">  1  6  2 -1</clus>
<clus scale="  457.592">  4  5 -1 -1</clus>
<clus scale="  300.000">  1  4  2 -1</clus>
</clustering>
</event>
<event>
 6    1  0.1007353E-011  0.3000000E+03  0.7818608E-02  0.1093470E+00
          1   -1    0    0  502    0  0.00000000000E+00  0.00000000000E+00  0.22989464009E+03  0.22989464009E+03  0.00000000000E+00 0.  1.
         13   -1    0    0    0    0 -0.00000000000E+00 -0.00000000000E+00 -0.27500000000E+03  0.27500000000E+03  0.00000000000E+00 0.  1.
    9000005    2    1    2  501    0 -0.16179840327E+02 -0.37147899120E+02 -0.57669845968E+02  0.46247271236E+03  0.45707050321E+03 0.  0.
         13    1    3    3    0    0 -0.43046838524E+02  0.84133280963E+02 -0.23079353265E+03  0.24939345217E+03  0.00000000000E+00 0.  1.
          1    1    3    3  501    0  0.26866998197E+02 -0.12128118008E+03  0.17312368668E+03  0.21307926019E+03  0.00000000000E+00 0.  1.
         21    1    1    2  502  501  0.16179840327E+02  0.37147899120E+02  0.12564486057E+02  0.42421927725E+02  0.00000000000E+00 0.  1.
<scales pt_clust_4="550.00000" pt_clust_5="550.00000" pt_clust_6="40.51856"></scales>
<mgrwt>
<rscale>  0 0.30000000E+03</rscale>
<asrwt>  1 0.40518559E+02</asrwt>
<pdfrwt beam="1">  1        1 0.83598051E+00 0.30000000E+03</pdfrwt>
<pdfrwt beam="2">0</pdfrwt>
<totfact> 0.51799299E-04</totfact>
</mgrwt>
<clustering>
<clus scale="   40.519">  1  6  2 -1</clus>
<clus scale="  457.071">  4  5 -1 -1</clus>
<clus scale="  300.000">  1  4  2 -1</clus>
</clustering>
</event>
<event>
 6    1  0.1007353E-011  0.3000000E+03  0.7818608E-02  0.1093470E+00
          1   -1    0    0  502    0  0.00000000000E+00  0.00000000000E+00  0.22197202059E+03  0.22197202059E+03  0.00000000000E+00 0.  1.
         13   -1    0    0    0    0 -0.00000000000E+00 -0.00000000000E+00 -0.27500000000E+03  0.27500000000E+03  0.00000000000E+00 0.  1.
    9000005    2    1    2  501    0  0.41910267906E+01  0.32992921096E+02 -0.47769248742E+02  0.46330078960E+03  0.45962987607E+03 0.  0.
         13    1    3    3    0    0  0.20030222203E+03  0.41968067836E+02  0.89896808269E+02  0.22352569204E+03  0.00000000000E+00 0.  1.
          3    1    3    3  501    0 -0.19611119524E+03 -0.89751467399E+01 -0.13766605701E+03  0.23977509756E+03  0.00000000000E+00 0.  1.
         21    1    1    2  502  501 -0.41910267906E+01 -0.32992921096E+02 -0.52587306676E+01  0.33671230988E+02  0.00000000000E+00 0. -1.
<scales pt_clust_4="550.00000" pt_clust_5="550.00000" pt_clust_6="33.25806"></scales>
<mgrwt>
<rscale>  0 0.30000000E+03</rscale>
<asrwt>  1 0.33258061E+02</asrwt>
<pdfrwt beam="1">  1        1 0.80717098E+00 0.30000000E+03</pdfrwt>
<pdfrwt beam="2">0</pdfrwt>
<totfact> 0.92607190E-04</totfact>
</mgrwt>
<clustering>
<clus scale="   33.258">  1  6  2 -1</clus>
<clus scale="  459.630">  4  5 -1 -1</clus>
<clus scale="  300.000">  1  4  2 -1</clus>
</clustering>
</event>
<event>
 6    1  0.1007353E-011  0.3000000E+03  0.7818608E-02  0.1093470E+00
          1   -1    0    0  502    0  0.00000000000E+00  0.00000000000E+00  0.23699203276E+03  0.23699203276E+03  0.00000000000E+00 0.  1.
         13   -1    0    0    0    0 -0.00000000000E+00 -0.00000000000E+00 -0.27500000000E+03  0.27500000000E+03  0.00000000000E+00 0.  1.
    9000005    2    1    2  501    0  0.25384397034E+02 -0.25482223538E+02 -0.61864823061E+02  0.46883116045E+03  0.46333755443E+03 0.  0.
         13    1    3    3    0    0 -0.15251807891E+03  0.12513202469E+03 -0.11691452937E+03  0.22932246984E+03  0.00000000000E+00 0.  1.
          3    1    3    3  501    0  0.17790247594E+03 -0.15061424822E+03  0.55049706308E+02  0.23950869061E+03  0.00000000000E+00 0.  1.
         21    1    1    2  502  501 -0.25384397034E+02  0.25482223538E+02  0.23856855823E+02  0.43160872314E+02  0.00000000000E+00 0. -1.
<scales pt_clust_4="550.00000" pt_clust_5="550.00000" pt_clust_6="35.96820"></scales>
<mgrwt>
<rscale>  0 0.30000000E+03</rscale>
<asrwt>  1 0.35968199E+02</asrwt>
<pdfrwt beam="1">  1        1 0.86178921E+00 0.30000000E+03</pdfrwt>
<pdfrwt beam="2">0</pdfrwt>
<totfact> 0.30789384E-04</totfact>
</mgrwt>
<clustering>
<clus scale="   35.968">  1  6  2 -1</clus>
<clus scale="  463.338">  4  5 -1 -1</clus>
<clus scale="  300.000">  1  4  2 -1</clus>
</clustering>
</event>
<event>
 6    1  0.1007353E-011  0.3000000E+03  0.7818608E-02  0.1093470E+00
          1   -1    0    0  502    0  0.00000000000E+00  0.00000000000E+00  0.24244690482E+03  0.24244690482E+03  0.00000000000E+00 0.  1.
         13   -1    0    0    0    0 -0.00000000000E+00 -0.00000000000E+00 -0.27500000000E+03  0.27500000000E+03  0.00000000000E+00 0.  1.
    9000005    2    1    2  501    0  0.14753449980E+02 -0.29405323554E+02  0.14135337626E+01  0.47015981122E+03  0.46900523736E+03 0.  0.
         13    1    3    3    0    0 -0.73857110530E+02  0.17831765361E+03 -0.10587161947E+03  0.22013827059E+03  0.00000000000E+00 0.  1.
          1    1    3    3  501    0  0.88610560510E+02 -0.20772297717E+03  0.10728515324E+03  0.25002154064E+03  0.00000000000E+00 0.  1.
         21    1    1    2  502  501 -0.14753449980E+02  0.29405323554E+02 -0.33966628939E+02  0.47287093600E+02  0.00000000000E+00 0. -1.
<scales pt_clust_4="550.00000" pt_clust_5="550.00000" pt_clust_6="32.89891"></scales>
<mgrwt>
<rscale>  0 0.30000000E+03</rscale>
<asrwt>  1 0.32898912E+02</asrwt>
<pdfrwt beam="1">  1        1 0.88162511E+00 0.30000000E+03</pdfrwt>
<pdfrwt beam="2">0</pdfrwt>
<totfact> 0.19047526E-04</totfact>
</mgrwt>
<clustering>
<clus scale="   32.899">  1  6  2 -1</clus>
<clus scale="  469.005">  4  5 -1 -1</clus>
<clus scale="  300.000">  1  4  2 -1</clus>
</clustering>
</event>
<event>
 6    1  0.1007353E-011  0.3000000E+03  0.7818608E-02  0.1093470E+00
          1   -1    0    0  502    0  0.00000000000E+00  0.00000000000E+00  0.23423062122E+03  0.23423062122E+03  0.00000000000E+00 0.  1.
         13   -1    0    0    0    0 -0.00000000000E+00 -0.00000000000E+00 -0.27500000000E+03  0.27500000000E+03  0.00000000000E+00 0.  1.
    9000005    2    1    2  501    0  0.35937970698E+02 -0.14843738466E+02 -0.41552512390E+02  0.47033990758E+03  0.46688450720E+03 0.  0.
         13    1    3    3    0    0 -0.69303594336E+02 -0.80940109370E+02  0.18410859496E+03  0.21272109494E+03  0.00000000000E+00 0.  1.
          3    1    3    3  501    0  0.10524156503E+03  0.66096370904E+02 -0.22566110735E+03  0.25761881264E+03  0.00000000000E+00 0.  1.
         21    1    1    2  502  501 -0.35937970698E+02  0.14843738466E+02  0.78313361361E+00  0.38890713645E+02  0.00000000000E+00 0. -1.
<scales pt_clust_4="550.00000" pt_clust_5="550.00000" pt_clust_6="38.88283"></scales>
<mgrwt>
<rscale>  0 0.30000000E+03</rscale>
<asrwt>  1 0.38882828E+02</asrwt>
<pdfrwt beam="1">  1        1 0.85174771E+00 0.30000000E+03</pdfrwt>
<pdfrwt beam="2">0</pdfrwt>
<totfact> 0.38420613E-04</totfact>
</mgrwt>
<clustering>
<clus scale="   38.883">  1  6  2 -1</clus>
<clus scale="  466.885">  4  5 -1 -1</clus>
<clus scale="  300.000">  1  4  2 -1</clus>
</clustering>
</event>
<event>
 6    1  0.1007353E-011  0.3000000E+03  0.7818608E-02  0.1093470E+00
          1   -1    0    0  502    0  0.00000000000E+00  0.00000000000E+00  0.24299698069E+03  0.24299698069E+03  0.00000000000E+00 0.  1.
         13   -1    0    0    0    0 -0.00000000000E+00 -0.00000000000E+00 -0.27500000000E+03  0.27500000000E+03  0.00000000000E+00 0.  1.
    9000005    2    1    2  501    0 -0.34320589219E+02 -0.29178511479E+02 -0.62727729908E+02  0.46346904090E+03  0.45698960097E+03 0.  0.
         13    1    3    3    0    0  0.13090263424E+03 -0.16408586875E+03  0.58786972899E+02  0.21798068758E+03  0.00000000000E+00 0.  1.
          1    1    3    3  501    0 -0.16522322346E+03  0.13490735728E+03 -0.12151470281E+03  0.24548835332E+03  0.00000000000E+00 0.  1.
         21    1    1    2  502  501  0.34320589219E+02  0.29178511479E+02  0.30724710596E+02  0.54527939790E+02  0.00000000000E+00 0.  1.
<scales pt_clust_4="550.00000" pt_clust_5="550.00000" pt_clust_6="45.04762"></scales>
<mgrwt>
<rscale>  0 0.30000000E+03</rscale>
<asrwt>  1 0.45047623E+02</asrwt>
<pdfrwt beam="1">  1        1 0.88362538E+00 0.30000000E+03</pdfrwt>
<pdfrwt beam="2">0</pdfrwt>
<totfact> 0.16917962E-04</totfact>
</mgrwt>
<clustering>
<clus scale="   45.048">  1  6  2 -1</clus>
<clus scale="  456.990">  4  5 -1 -1</clus>
<clus scale="  300.000">  1  4  2 -1</clus>
</clustering>
</event>
<event>
 6    1  0.1007353E-011  0.3000000E+03  0.7818608E-02  0.1093470E+00
          1   -1    0    0  502    0  0.00000000000E+00  0.00000000000E+00  0.23738725582E+03  0.23738725582E+03  0.00000000000E+00 0.  1.
         13   -1    0    0    0    0 -0.00000000000E+00 -0.00000000000E+00 -0.27500000000E+03  0.27500000000E+03  0.00000000000E+00 0.  1.
    9000005    2    1    2  501    0 -0.18609239785E+01 -0.34428008341E+02 -0.57388391667E+02  0.47264021782E+03  0.46787455285E+03 0.  0.
         13    1    3    3    0    0 -0.61335865012E+02 -0.97082318029E+02 -0.24252619108E+03  0.26833937126E+03  0.00000000000E+00 0.  1.
          3    1    3    3  501    0  0.59474941034E+02  0.62654309688E+02  0.18513779941E+03  0.20430084656E+03  0.00000000000E+00 0.  1.
         21    1    1    2  502  501  0.18609239785E+01  0.34428008341E+02  0.19775647487E+02  0.39747038002E+02  0.00000000000E+00 0.  1.
<scales pt_clust_4="550.00000" pt_clust_5="550.00000" pt_clust_6="34.47827"></scales>
<mgrwt>
<rscale>  0 0.30000000E+03</rscale>
<asrwt>  1 0.34478266E+02</asrwt>
<pdfrwt beam="1">  1        1 0.86322638E+00 0.30000000E+03</pdfrwt>
<pdfrwt beam="2">0</pdfrwt>
<totfact> 0.29942783E-04</totfact>
</mgrwt>
<clustering>
<clus scale="   34.478">  1  6  2 -1</clus>
<clus scale="  467.875">  4  5 -1 -1</clus>
<clus scale="  300.000">  1  4  2 -1</clus>
</clustering>
</event>
<event>
 6    1  0.1007353E-011  0.3000000E+03  0.7818608E-02  0.1093470E+00
          1   -1    0    0  502    0  0.00000000000E+00  0.00000000000E+00  0.24159641185E+03  0.24159641185E+03  0.00000000000E+00 0.  1.
         13   -1    0    0    0    0 -0.00000000000E+00 -0.00000000000E+00 -0.27500000000E+03  0.27500000000E+03  0.00000000000E+00 0.  1.
    9000005    2    1    2  501    0  0.88074559365E+01  0.30019508733E+02 -0.55646800200E+02  0.47821018168E+03  0.47393002574E+03 0.  0.
         13    1    3    3    0    0 -0.21062537389E+03  0.66016985009E+01 -0.12729414721E+03  0.24619185702E+03  0.00000000000E+00 0.  1.
          1    1    3    3  501    0  0.21943282983E+03  0.23417810232E+02  0.71647347013E+02  0.23201832465E+03  0.00000000000E+00 0.  1.
         21    1    1    2  502  501 -0.88074559365E+01 -0.30019508733E+02  0.22243212049E+02  0.38386230173E+02  0.00000000000E+00 0. -1.
<scales pt_clust_4="550.00000" pt_clust_5="550.00000" pt_clust_6="31.28486"></scales>
<mgrwt>
<rscale>  0 0.30000000E+03</rscale>
<asrwt>  1 0.31284856E+02</asrwt>
<pdfrwt beam="1">  1        1 0.87853241E+00 0.30000000E+03</pdfrwt>
<pdfrwt beam="2">0</pdfrwt>
<totfact> 0.20996588E-04</totfact>
</mgrwt>
<clustering>
<clus scale="   31.285">  1  6  2 -1</clus>
<clus scale="  473.930">  4  5 -1 -1</clus>
<clus scale="  300.000">  1  4  2 -1</clus>
</clustering>
</event>
<event>
 6    1  0.1007353E-011  0.3000000E+03  0.7818608E-02  0.1093470E+00
          1   -1    0    0  502    0  0.00000000000E+00  0.00000000000E+00  0.23416305158E+03  0.23416305158E+03  0.00000000000E+00 0.  1.
         13   -1    0    0    0    0 -0.00000000000E+00 -0.00000000000E+00 -0.27500000000E+03  0.27500000000E+03  0.00000000000E+00 0.  1.
    9000005    2    1    2  501    0  0.95152004694E+00  0.36543787279E+02 -0.52863699083E+02  0.47067933411E+03  0.46627042700E+03 0.  0.
         13    1    3    3    0    0 -0.21470176872E+03  0.10777494911E+03 -0.36332255565E+02  0.24296568059E+03  0.00000000000E+00 0.  1.
          1    1    3    3  501    0  0.21565328877E+03 -0.71231161832E+02 -0.16531443518E+02  0.22771365352E+03  0.00000000000E+00 0.  1.
         21    1    1    2  502  501 -0.95152004694E+00 -0.36543787279E+02  0.12026750663E+02  0.38483717474E+02  0.00000000000E+00 0.  1.
<scales pt_clust_4="550.00000" pt_clust_5="550.00000" pt_clust_6="36.55617"></scales>
<mgrwt>
<rscale>  0 0.30000000E+03</rscale>
<asrwt>  1 0.36556173E+02</asrwt>
<pdfrwt beam="1">  1        1 0.85150201E+00 0.30000000E+03</pdfrwt>
<pdfrwt beam="2">0</pdfrwt>
<totfact> 0.39070874E-04</totfact>
</mgrwt>
<clustering>
<clus scale="   36.556">  1  6  2 -1</clus>
<clus scale="  466.270">  4  5 -1 -1</clus>
<clus scale="  300.000">  1  4  2 -1</clus>
</clustering>
</event>
<event>
 6    1  0.1007353E-011  0.3000000E+03  0.7818608E-02  0.1093470E+00
          1   -1    0    0  502    0  0.00000000000E+00  0.00000000000E+00  0.23887744716E+03  0.23887744716E+03  0.00000000000E+00 0.  1.
         13   -1    0    0    0    0 -0.00000000000E+00 -0.00000000000E+00 -0.27500000000E+03  0.27500000000E+03  0.00000000000E+00 0.  1.
    9000005    2    1    2  501    0 -0.32165944306E+01 -0.31316105152E+02 -0.55643909731E+02  0.47683519701E+03  0.47252990963E+03 0.  0.
         13    1    3    3    0    0 -0.33972317658E+02  0.21801713060E+03 -0.46210825750E+02  0.22543519694E+03  0.00000000000E+00 0.  1.
          3    1    3    3  501    0  0.30755723227E+02 -0.24933323575E+03 -0.94330839808E+01  0.25140000007E+03  0.00000000000E+00 0.  1.
         21    1    1    2  502  501  0.32165944306E+01  0.31316105152E+02  0.19521356896E+02  0.37042250157E+02  0.00000000000E+00 0.  1.
<scales pt_clust_4="550.00000" pt_clust_5="550.00000" pt_clust_6="31.48087"></scales>
<mgrwt>
<rscale>  0 0.30000000E+03</rscale>
<asrwt>  1 0.31480866E+02</asrwt>
<pdfrwt beam="1">  1        1 0.86864526E+00 0.30000000E+03</pdfrwt>
<pdfrwt beam="2">0</pdfrwt>
<totfact> 0.26678129E-04</totfact>
</mgrwt>
<clustering>
<clus scale="   31.481">  1  6  2 -1</clus>
<clus scale="  472.530">  4  5 -1 -1</clus>
<clus scale="  300.000">  1  4  2 -1</clus>
</clustering>
</event>
<event>
 6    1  0.1007353E-011  0.3000000E+03  0.7818608E-02  0.1093470E+00
          1   -1    0    0  502    0  0.00000000000E+00  0.00000000000E+00  0.23320973592E+03  0.23320973592E+03  0.00000000000E+00 0.  1.
         13   -1    0    0    0    0 -0.00000000000E+00 -0.00000000000E+00 -0.27500000000E+03  0.27500000000E+03  0.00000000000E+00 0.  1.
    9000005    2    1    2  501    0 -0.16820673241E+02 -0.32645044016E+02 -0.46596678644E+02  0.47117278723E+03  0.46742262571E+03 0.  0.
         13    1    3    3    0    0 -0.21524551893E+03  0.68413928334E+02  0.45167455045E+02  0.23032845678E+03  0.00000000000E+00 0.  1.
          3    1    3    3  501    0  0.19842484569E+03 -0.10105897235E+03 -0.91764133688E+02  0.24084433045E+03  0.00000000000E+00 0.  1.
         21    1    1    2  502  501  0.16820673241E+02  0.32645044016E+02  0.48064145638E+01  0.37036948687E+02  0.00000000000E+00 0.  1.
<scales pt_clust_4="550.00000" pt_clust_5="550.00000" pt_clust_6="36.72375"></scales>
<mgrwt>
<rscale>  0 0.30000000E+03</rscale>
<asrwt>  1 0.36723752E+02</asrwt>
<pdfrwt beam="1">  1        1 0.84803540E+00 0.30000000E+03</pdfrwt>
<pdfrwt beam="2">0</pdfrwt>
<totfact> 0.42063695E-04</totfact>
</mgrwt>
<clustering>
<clus scale="   36.724">  1  6  2 -1</clus>
<clus scale="  467.423">  4  5 -1 -1</clus>
<clus scale="  300.000">  1  4  2 -1</clus>
</clustering>
</event>
<event>
 6    1  0.1007353E-011  0.3000000E+03  0.7818608E-02  0.1093470E+00
          1   -1    0    0  502    0  0.00000000000E+00  0.00000000000E+00  0.24707949678E+03  0.24707949678E+03  0.00000000000E+00 0.  1.
         13   -1    0    0    0    0 -0.00000000000E+00 -0.00000000000E+00 -0.27500000000E+03  0.27500000000E+03  0.00000000000E+00 0.  1.
    9000005    2    1    2  501    0 -0.31785615341E+02  0.98304686711E+01 -0.55656521592E+02  0.47876379325E+03  0.47435235625E+03 0.  0.
         13    1    3    3    0    0  0.60845838783E+02 -0.20964032020E+03 -0.93654156202E+02  0.23753395742E+03  0.00000000000E+00 0.  1.
          3    1    3    3  501    0 -0.92631454124E+02  0.21947078887E+03  0.37997634610E+02  0.24122983584E+03  0.00000000000E+00 0.  1.
         21    1    1    2  502  501  0.31785615341E+02 -0.98304686711E+01  0.27736018375E+02  0.43315703529E+02  0.00000000000E+00 0.  1.
<scales pt_clust_4="550.00000" pt_clust_5="550.00000" pt_clust_6="33.27106"></scales>
<mgrwt>
<rscale>  0 0.30000000E+03</rscale>
<asrwt>  1 0.33271060E+02</asrwt>
<pdfrwt beam="1">  1        1 0.89847090E+00 0.30000000E+03</pdfrwt>
<pdfrwt beam="2">0</pdfrwt>
<totfact> 0.11633639E-04</totfact>
</mgrwt>
<clustering>
<clus scale="   33.271">  1  6  2 -1</clus>
<clus scale="  474.352">  4  5 -1 -1</clus>
<clus scale="  300.000">  1  4  2 -1</clus>
</clustering>
</event>
<event>
 6    1  0.1007353E-011  0.3000000E+03  0.7818608E-02  0.1093470E+00
          1   -1    0    0  502    0  0.00000000000E+00  0.00000000000E+00  0.23024119826E+03  0.23024119826E+03  0.00000000000E+00 0.  1.
         13   -1    0    0    0    0 -0.00000000000E+00 -0.00000000000E+00 -0.27500000000E+03  0.27500000000E+03  0.00000000000E+00 0.  1.
    9000005    2    1    2  501    0 -0.23578666618E+02 -0.25397685636E+02 -0.49180487953E+02  0.47030486669E+03  0.46644072644E+03 0.  0.
         13    1    3    3    0    0 -0.13952477896E+03  0.15323600918E+03 -0.12758773568E+03  0.24336612079E+03  0.00000000000E+00 0.  1.
          3    1    3    3  501    0  0.11594611235E+03 -0.17863369481E+03  0.78407247732E+02  0.22693874589E+03  0.00000000000E+00 0.  1.
         21    1    1    2  502  501  0.23578666618E+02  0.25397685636E+02  0.44216862167E+01  0.34936331578E+02  0.00000000000E+00 0.  1.
<scales pt_clust_4="550.00000" pt_clust_5="550.00000" pt_clust_6="34.65539"></scales>
<mgrwt>
<rscale>  0 0.30000000E+03</rscale>
<asrwt>  1 0.34655389E+02</asrwt>
<pdfrwt beam="1">  1        1 0.83724072E+00 0.30000000E+03</pdfrwt>
<pdfrwt beam="2">0</pdfrwt>
<totfact> 0.52205121E-04</totfact>
</mgrwt>
<clustering>
<clus scale="   34.655">  1  6  2 -1</clus>
<clus scale="  466.441">  4  5 -1 -1</clus>
<clus scale="  300.000">  1  4  2 -1</clus>
</clustering>
</event>
<event>
 6    1  0.1007353E-011  0.3000000E+03  0.7818608E-02  0.1093470E+00
          1   -1    0    0  502    0  0.00000000000E+00  0.00000000000E+00  0.23065344778E+03  0.23065344778E+03  0.00000000000E+00 0.  1.
         13   -1    0    0    0    0 -0.00000000000E+00 -0.00000000000E+00 -0.27500000000E+03  0.27500000000E+03  0.00000000000E+00 0.  1.
    9000005    2    1    2  501    0  0.36108816790E+02 -0.94679107881E+01 -0.38391508900E+02  0.46785198583E+03  0.46477745718E+03 0.  0.
         13    1    3    3    0    0  0.19744368170E+03 -0.14971206436E+03  0.12526768287E+02  0.24810205477E+03  0.00000000000E+00 0.  1.
          3    1    3    3  501    0 -0.16133486491E+03  0.14024415358E+03 -0.50918277187E+02  0.21974993106E+03  0.00000000000E+00 0.  1.
         21    1    1    2  502  501 -0.36108816790E+02  0.94679107881E+01 -0.59550433197E+01  0.37801461950E+02  0.00000000000E+00 0.  1.
<scales pt_clust_4="550.00000" pt_clust_5="550.00000" pt_clust_6="37.32947"></scales>
<mgrwt>
<rscale>  0 0.30000000E+03</rscale>
<asrwt>  1 0.37329471E+02</asrwt>
<pdfrwt beam="1">  1        1 0.83873981E+00 0.30000000E+03</pdfrwt>
<pdfrwt beam="2">0</pdfrwt>
<totfact> 0.50199024E-04</totfact>
</mgrwt>
<clustering>
<clus scale="   37.329">  1  6  2 -1</clus>
<clus scale="  464.777">  4  5 -1 -1</clus>
<clus scale="  300.000">  1  4  2 -1</clus>
</clustering>
</event>
<event>
 6    1  0.1007353E-011  0.3000000E+03  0.7818608E-02  0.1093470E+00
          1   -1    0    0  502    0  0.00000000000E+00  0.00000000000E+00  0.25130457825E+03  0.25130457825E+03  0.00000000000E+00 0.  1.
         13   -1    0    0    0    0 -0.00000000000E+00 -0.00000000000E+00 -0.27500000000E+03  0.27500000000E+03  0.00000000000E+00 0.  1.
    9000005    2    1    2  501    0 -0.45856628962E+02  0.13490236154E+02 -0.42168805902E+02  0.47505925834E+03  0.47076350097E+03 0.  0.
         13    1    3    3    0    0  0.21355582470E+03  0.37885978332E+01 -0.19458457220E+02  0.21447395016E+03  0.00000000000E+00 0.  1.
          3    1    3    3  501    0 -0.25941245366E+03  0.97016383205E+01 -0.22710348682E+02  0.26058530818E+03  0.00000000000E+00 0.  1.
         21    1    1    2  502  501  0.45856628962E+02 -0.13490236154E+02  0.18473384154E+02  0.51245319916E+02  0.00000000000E+00 0.  1.
<scales pt_clust_4="550.00000" pt_clust_5="550.00000" pt_clust_6="47.79976"></scales>
<mgrwt>
<rscale>  0 0.30000000E+03</rscale>
<asrwt>  1 0.47799758E+02</asrwt>
<pdfrwt beam="1">  1        1 0.91383483E+00 0.30000000E+03</pdfrwt>
<pdfrwt beam="2">0</pdfrwt>
<totfact> 0.54538948E-05</totfact>
</mgrwt>
<clustering>
<clus scale="   47.800">  1  6  2 -1</clus>
<clus scale="  470.764">  4  5 -1 -1</clus>
<clus scale="  300.000">  1  4  2 -1</clus>
</clustering>
</event>
<event>
 6    1  0.1007353E-011  0.3000000E+03  0.7818608E-02  0.1093470E+00
          1   -1    0    0  502    0  0.00000000000E+00  0.00000000000E+00  0.23994562942E+03  0.23994562942E+03  0.00000000000E+00 0.  1.
         13   -1    0    0    0    0 -0.00000000000E+00 -0.00000000000E+00 -0.27500000000E+03  0.27500000000E+03  0.00000000000E+00 0.  1.
    9000005    2    1    2  501    0 -0.30393446016E+02 -0.22682714592E+02 -0.64817667256E+02  0.46673649200E+03  0.46065535476E+03 0.  0.
         13    1    3    3    0    0 -0.41370895796E+02  0.82557901462E+02  0.17874129638E+03  0.20118600633E+03  0.00000000000E+00 0.  1.
          1    1    3    3  501    0  0.10977449780E+02 -0.10524061605E+03 -0.24355896363E+03  0.26555048567E+03  0.00000000000E+00 0.  1.
         21    1    1    2  502  501  0.30393446016E+02  0.22682714592E+02  0.29763296672E+02  0.48209137420E+02  0.00000000000E+00 0. -1.
<scales pt_clust_4="550.00000" pt_clust_5="550.00000" pt_clust_6="37.92449"></scales>
<mgrwt>
<rscale>  0 0.30000000E+03</rscale>
<asrwt>  1 0.37924492E+02</asrwt>
<pdfrwt beam="1">  1        1 0.87252956E+00 0.30000000E+03</pdfrwt>
<pdfrwt beam="2">0</pdfrwt>
<totfact> 0.23509089E-04</totfact>
</mgrwt>
<clustering>
<clus scale="   37.924">  1  6  2 -1</clus>
<clus scale="  460.655">  4  5 -1 -1</clus>
<clus scale="  300.000">  1  4  2 -1</clus>
</clustering>
</event>
<event>
 6    1  0.1007353E-011  0.3000000E+03  0.7818608E-02  0.1093470E+00
          1   -1    0    0  502    0  0.00000000000E+00  0.00000000000E+00  0.23132322312E+03  0.23132322312E+03  0.00000000000E+00 0.  1.
         13   -1    0    0    0    0 -0.00000000000E+00 -0.00000000000E+00 -0.27500000000E+03  0.27500000000E+03  0.00000000000E+00 0.  1.
    9000005    2    1    2  501    0  0.32509777675E+01  0.37610979424E+02 -0.65068571891E+02  0.46293240009E+03  0.45677930489E+03 0.  0.
         13    1    3    3    0    0 -0.19135771634E+03 -0.61141641210E+02 -0.12502368887E+03  0.23661571941E+03  0.00000000000E+00 0.  1.
          1    1    3    3  501    0  0.19460869410E+03  0.98752620634E+02  0.59955116978E+02  0.22631668068E+03  0.00000000000E+00 0.  1.
         21    1    1    2  502  501 -0.32509777675E+01 -0.37610979424E+02  0.21391795011E+02  0.43390823033E+02  0.00000000000E+00 0.  1.
<scales pt_clust_4="550.00000" pt_clust_5="550.00000" pt_clust_6="37.75122"></scales>
<mgrwt>
<rscale>  0 0.30000000E+03</rscale>
<asrwt>  1 0.37751220E+02</asrwt>
<pdfrwt beam="1">  1        1 0.84117536E+00 0.30000000E+03</pdfrwt>
<pdfrwt beam="2">0</pdfrwt>
<totfact> 0.47983269E-04</totfact>
</mgrwt>
<clustering>
<clus scale="   37.751">  1  6  2 -1</clus>
<clus scale="  456.779">  4  5 -1 -1</clus>
<clus scale="  300.000">  1  4  2 -1</clus>
</clustering>
</event>
<event>
 6    1  0.1007353E-011  0.3000000E+03  0.7818608E-02  0.1093470E+00
          1   -1    0    0  502    0  0.00000000000E+00  0.00000000000E+00  0.23187605655E+03  0.23187605655E+03  0.00000000000E+00 0.  1.
         13   -1    0    0    0    0 -0.00000000000E+00 -0.00000000000E+00 -0.27500000000E+03  0.27500000000E+03  0.00000000000E+00 0.  1.
    9000005    2    1    2  501    0 -0.27876319856E+02  0.23733799694E+02 -0.52281122577E+02  0.46913700004E+03  0.46477502791E+03 0.  0.
         13    1    3    3    0    0 -0.23197083690E+03  0.44263118652E+02  0.47728744072E+02  0.24093095662E+03  0.00000000000E+00 0.  1.
          3    1    3    3  501    0  0.20409451705E+03 -0.20529318959E+02 -0.10000986665E+03  0.22820604342E+03  0.00000000000E+00 0.  1.
         21    1    1    2  502  501  0.27876319856E+02 -0.23733799694E+02  0.91571791238E+01  0.37739056508E+02  0.00000000000E+00 0. -1.
<scales pt_clust_4="550.00000" pt_clust_5="550.00000" pt_clust_6="36.61123"></scales>
<mgrwt>
<rscale>  0 0.30000000E+03</rscale>
<asrwt>  1 0.36611234E+02</asrwt>
<pdfrwt beam="1">  1        1 0.84318566E+00 0.30000000E+03</pdfrwt>
<pdfrwt beam="2">0</pdfrwt>
<totfact> 0.46444131E-04</totfact>
</mgrwt>
<clustering>
<clus scale="   36.611">  1  6  2 -1</clus>
<clus scale="  464.775">  4  5 -1 -1</clus>
<clus scale="  300.000">  1  4  2 -1</clus>
</clustering>
</event>
<event>
 6    1  0.1007353E-011  0.3000000E+03  0.7818608E-02  0.1093470E+00
          1   -1    0    0  502    0  0.00000000000E+00  0.00000000000E+00  0.26902369953E+03  0.26902369953E+03  0.00000000000E+00 0.  1.
         13   -1    0    0    0    0 -0.00000000000E+00 -0.00000000000E+00 -0.27500000000E+03  0.27500000000E+03  0.00000000000E+00 0.  1.
    9000005    2    1    2  501    0  0.97104080401E+01  0.29672622741E+02 -0.46948734350E+02  0.49251159510E+03  0.48927367708E+03 0.  0.
         13    1    3    3    0    0 -0.13624608744E+03 -0.18496458871E+03 -0.37573881309E+02  0.23278035135E+03  0.00000000000E+00 0.  1.
          1    1    3    3  501    0  0.14595649548E+03  0.21463721145E+03 -0.93748530406E+01  0.25973124375E+03  0.00000000000E+00 0.  1.
         21    1    1    2  502  501 -0.97104080401E+01 -0.29672622741E+02  0.40972433883E+02  0.51512104431E+02  0.00000000000E+00 0.  1.
<scales pt_clust_4="550.00000" pt_clust_5="550.00000" pt_clust_6="31.22109"></scales>
<mgrwt>
<rscale>  0 0.30000000E+03</rscale>
<asrwt>  1 0.31221092E+02</asrwt>
<pdfrwt beam="1">  1        1 0.97826800E+00 0.30000000E+03</pdfrwt>
<pdfrwt beam="2">0</pdfrwt>
<totfact> 0.33881200E-06</totfact>
</mgrwt>
<clustering>
<clus scale="   31.221">  1  6  2 -1</clus>
<clus scale="  489.274">  4  5 -1 -1</clus>
<clus scale="  300.000">  1  4  2 -1</clus>
</clustering>
</event>
<event>
 6    1  0.1007353E-011  0.3000000E+03  0.7818608E-02  0.1093470E+00
          1   -1    0    0  502    0  0.00000000000E+00  0.00000000000E+00  0.22923043347E+03  0.22923043347E+03  0.00000000000E+00 0.  1.
         13   -1    0    0    0    0 -0.00000000000E+00 -0.00000000000E+00 -0.27500000000E+03  0.27500000000E+03  0.00000000000E+00 0.  1.
    9000005    2    1    2  501    0  0.25389711719E+02 -0.25061055402E+02 -0.67033286217E+02  0.46269924358E+03  0.45642571640E+03 0.  0.
         13    1    3    3    0    0 -0.74875210197E+02  0.16127989382E+03 -0.15273007519E+03  0.23440131638E+03  0.00000000000E+00 0.  1.
          3    1    3    3  501    0  0.10026492192E+03 -0.18634094922E+03  0.85696788977E+02  0.22829792720E+03  0.00000000000E+00 0.  1.
         21    1    1    2  502  501 -0.25389711719E+02  0.25061055402E+02  0.21263719689E+02  0.41531189895E+02  0.00000000000E+00 0. -1.
<scales pt_clust_4="550.00000" pt_clust_5="550.00000" pt_clust_6="35.67484"></scales>
<mgrwt>
<rscale>  0 0.30000000E+03</rscale>
<asrwt>  1 0.35674836E+02</asrwt>
<pdfrwt beam="1">  1        1 0.83356521E+00 0.30000000E+03</pdfrwt>
<pdfrwt beam="2">0</pdfrwt>
<totfact> 0.55234824E-04</totfact>
</mgrwt>
<clustering>
<clus scale="   35.675">  1  6  2 -1</clus>
<clus scale="  456.426">  4  5 -1 -1</clus>
<clus scale="  300.000">  1  4  2 -1</clus>
</clustering>
</event>
<event>
 6    1  0.1007353E-011  0.3000000E+03  0.7818608E-02  0.1093470E+00
          1   -1    0    0  502    0  0.00000000000E+00  0.00000000000E+00  0.23012017732E+03  0.23012017732E+03  0.00000000000E+00 0.  1.
         13   -1    0    0    0    0 -0.00000000000E+00 -0.00000000000E+00 -0.27500000000E+03  0.27500000000E+03  0.00000000000E+00 0.  1.
    9000005    2    1    2  501    0 -0.31986264270E+02 -0.88286920580E+01 -0.65226510508E+02  0.46619647489E+03  0.46041675536E+03 0.  0.
         13    1    3    3    0    0 -0.19900910640E+03  0.13047690794E+03  0.38479581799E+01  0.23799927462E+03  0.00000000000E+00 0.  1.
          1    1    3    3  501    0  0.16702284213E+03 -0.13930560000E+03 -0.69074468688E+02  0.22819720027E+03  0.00000000000E+00 0.  1.
         21    1    1    2  502  501  0.31986264270E+02  0.88286920580E+01  0.20346687824E+02  0.38923702430E+02  0.00000000000E+00 0. -1.
<scales pt_clust_4="550.00000" pt_clust_5="550.00000" pt_clust_6="33.18233"></scales>
<mgrwt>
<rscale>  0 0.30000000E+03</rscale>
<asrwt>  1 0.33182328E+02</asrwt>
<pdfrwt beam="1">  1        1 0.83680064E+00 0.30000000E+03</pdfrwt>
<pdfrwt beam="2">0</pdfrwt>
<totfact> 0.53022529E-04</totfact>
</mgrwt>
<clustering>
<clus scale="   33.182">  1  6  2 -1</clus>
<clus scale="  460.417">  4  5 -1 -1</clus>
<clus scale="  300.000">  1  4  2 -1</clus>
</clustering>
</event>
<event>
 6    1  0.1007353E-011  0.3000000E+03  0.7818608E-02  0.1093470E+00
          1   -1    0    0  502    0  0.00000000000E+00  0.00000000000E+00  0.23518271549E+03  0.23518271549E+03  0.00000000000E+00 0.  1.
         13   -1    0    0    0    0 -0.00000000000E+00 -0.00000000000E+00 -0.27500000000E+03  0.27500000000E+03  0.00000000000E+00 0.  1.
    9000005    2    1    2  501    0 -0.74017407512E+01  0.39154052206E+02 -0.58011230857E+02  0.46637808955E+03  0.46103730211E+03 0.  0.
         13    1    3    3    0    0 -0.14097681317E+03 -0.71145407239E+02  0.13448098968E+03  0.20741568747E+03  0.00000000000E+00 0.  1.
          1    1    3    3  501    0  0.13357507242E+03  0.11029945945E+03 -0.19249222053E+03  0.25896240208E+03  0.00000000000E+00 0.  1.
         21    1    1    2  502  501  0.74017407512E+01 -0.39154052206E+02  0.18193946352E+02  0.43804625945E+02  0.00000000000E+00 0.  1.
<scales pt_clust_4="550.00000" pt_clust_5="550.00000" pt_clust_6="39.84753"></scales>
<mgrwt>
<rscale>  0 0.30000000E+03</rscale>
<asrwt>  1 0.39847529E+02</asrwt>
<pdfrwt beam="1">  1        1 0.85520987E+00 0.30000000E+03</pdfrwt>
<pdfrwt beam="2">0</pdfrwt>
<totfact> 0.35400208E-04</totfact>
</mgrwt>
<clustering>
<clus scale="   39.848">  1  6  2 -1</clus>
<clus scale="  461.037">  4  5 -1 -1</clus>
<clus scale="  300.000">  1  4  2 -1</clus>
</clustering>
</event>
<event>
 6    1  0.1007353E-011  0.3000000E+03  0.7818608E-02  0.1093470E+00
          1   -1    0    0  502    0  0.00000000000E+00  0.00000000000E+00  0.24328286684E+03  0.24328286684E+03  0.00000000000E+00 0.  1.
         13   -1    0    0    0    0 -0.00000000000E+00 -0.00000000000E+00 -0.27500000000E+03  0.27500000000E+03  0.00000000000E+00 0.  1.
    9000005    2    1    2  501    0  0.13719991228E+02 -0.28760943819E+02 -0.69184678562E+02  0.46909702531E+03  0.46287154736E+03 0.  0.
         13    1    3    3    0    0 -0.95088460676E+02 -0.17024394271E+03 -0.17465359024E+03  0.26177985402E+03  0.00000000000E+00 0.  1.
          1    1    3    3  501    0  0.10880845190E+03  0.14148299889E+03  0.10546891168E+03  0.20731717129E+03  0.00000000000E+00 0.  1.
         21    1    1    2  502  501 -0.13719991228E+02  0.28760943819E+02  0.37467545402E+02  0.49185841531E+02  0.00000000000E+00 0. -1.
<scales pt_clust_4="550.00000" pt_clust_5="550.00000" pt_clust_6="31.86581"></scales>
<mgrwt>
<rscale>  0 0.30000000E+03</rscale>
<asrwt>  1 0.31865813E+02</asrwt>
<pdfrwt beam="1">  1        1 0.88466497E+00 0.30000000E+03</pdfrwt>
<pdfrwt beam="2">0</pdfrwt>
<totfact> 0.17457046E-04</totfact>
</mgrwt>
<clustering>
<clus scale="   31.866">  1  6  2 -1</clus>
<clus scale="  462.872">  4  5 -1 -1</clus>
<clus scale="  300.000">  1  4  2 -1</clus>
</clustering>
</event>
<event>
 6    1  0.1007353E-011  0.3000000E+03  0.7818608E-02  0.1093470E+00
          1   -1    0    0  502    0  0.00000000000E+00  0.00000000000E+00  0.24294761932E+03  0.24294761932E+03  0.00000000000E+00 0.  1.
         13   -1    0    0    0    0 -0.00000000000E+00 -0.00000000000E+00 -0.27500000000E+03  0.27500000000E+03  0.00000000000E+00 0.  1.
    9000005    2    1    2  501    0 -0.28754378027E+02  0.90017603316E+01 -0.65235329891E+02  0.47312626210E+03  0.46763764356E+03 0.  0.
         13    1    3    3    0    0 -0.10315773607E+03 -0.18798367910E+03 -0.13251475801E+03  0.25207051238E+03  0.00000000000E+00 0.  1.
          1    1    3    3  501    0  0.74403358044E+02  0.19698543943E+03  0.67279428116E+02  0.22105574972E+03  0.00000000000E+00 0.  1.
         21    1    1    2  502  501  0.28754378027E+02 -0.90017603316E+01  0.33182949209E+02  0.44821357220E+02  0.00000000000E+00 0.  1.
<scales pt_clust_4="550.00000" pt_clust_5="550.00000" pt_clust_6="30.13048"></scales>
<mgrwt>
<rscale>  0 0.30000000E+03</rscale>
<asrwt>  1 0.30130482E+02</asrwt>
<pdfrwt beam="1">  1        1 0.88344589E+00 0.30000000E+03</pdfrwt>
<pdfrwt beam="2">0</pdfrwt>
<totfact> 0.18328793E-04</totfact>
</mgrwt>
<clustering>
<clus scale="   30.130">  1  6  2 -1</clus>
<clus scale="  467.638">  4  5 -1 -1</clus>
<clus scale="  300.000">  1  4  2 -1</clus>
</clustering>
</event>
<event>
 6    1  0.1007353E-011  0.3000000E+03  0.7818608E-02  0.1093470E+00
          1   -1    0    0  502    0  0.00000000000E+00  0.00000000000E+00  0.23270384517E+03  0.23270384517E+03  0.00000000000E+00 0.  1.
         13   -1    0    0    0    0 -0.00000000000E+00 -0.00000000000E+00 -0.27500000000E+03  0.27500000000E+03  0.00000000000E+00 0.  1.
    9000005    2    1    2  501    0  0.11753480869E+02  0.28024261814E+02 -0.72728021873E+02  0.46469684464E+03  0.45796319578E+03 0.  0.
         13    1    3    3    0    0 -0.68745444902E+02  0.17192030177E+03 -0.18772562678E+03  0.26367297417E+03  0.00000000000E+00 0.  1.
          3    1    3    3  501    0  0.80498925771E+02 -0.14389603996E+03  0.11499760491E+03  0.20102387047E+03  0.00000000000E+00 0.  1.
         21    1    1    2  502  501 -0.11753480869E+02 -0.28024261814E+02  0.30431867041E+02  0.43007000527E+02  0.00000000000E+00 0. -1.
<scales pt_clust_4="550.00000" pt_clust_5="550.00000" pt_clust_6="30.38920"></scales>
<mgrwt>
<rscale>  0 0.30000000E+03</rscale>
<asrwt>  1 0.30389201E+02</asrwt>
<pdfrwt beam="1">  1        1 0.84619580E+00 0.30000000E+03</pdfrwt>
<pdfrwt beam="2">0</pdfrwt>
<totfact> 0.45294413E-04</totfact>
</mgrwt>
<clustering>
<clus scale="   30.389">  1  6  2 -1</clus>
<clus scale="  457.963">  4  5 -1 -1</clus>
<clus scale="  300.000">  1  4  2 -1</clus>
</clustering>
</event>
<event>
 6    1  0.1007353E-011  0.3000000E+03  0.7818608E-02  0.1093470E+00
          1   -1    0    0  502    0  0.00000000000E+00  0.00000000000E+00  0.23979055581E+03  0.23979055581E+03  0.00000000000E+00 0.  1.
         13   -1    0    0    0    0 -0.00000000000E+00 -0.00000000000E+00 -0.27500000000E+03  0.27500000000E+03  0.00000000000E+00 0.  1.
    9000005    2    1    2  501    0 -0.28182341986E+02  0.11002853286E+02 -0.18316540349E+02  0.48013976389E+03  0.47883545195E+03 0.  0.
         13    1    3    3    0    0  0.16862175652E+02 -0.14193721138E+03 -0.19524483239E+03  0.24197324132E+03  0.00000000000E+00 0.  1.
          3    1    3    3  501    0 -0.45044517638E+02  0.15294006467E+03  0.17692829204E+03  0.23816652257E+03  0.00000000000E+00 0.  1.
         21    1    1    2  502  501  0.28182341986E+02 -0.11002853286E+02 -0.16892903841E+02  0.34650791916E+02  0.00000000000E+00 0. -1.
<scales pt_clust_4="550.00000" pt_clust_5="550.00000" pt_clust_6="30.25406"></scales>
<mgrwt>
<rscale>  0 0.30000000E+03</rscale>
<asrwt>  1 0.30254059E+02</asrwt>
<pdfrwt beam="1">  1        1 0.87196566E+00 0.30000000E+03</pdfrwt>
<pdfrwt beam="2">0</pdfrwt>
<totfact> 0.24858795E-04</totfact>
</mgrwt>
<clustering>
<clus scale="   30.254">  1  6  2 -1</clus>
<clus scale="  478.835">  4  5 -1 -1</clus>
<clus scale="  300.000">  1  4  2 -1</clus>
</clustering>
</event>
<event>
 6    1  0.1007353E-011  0.3000000E+03  0.7818608E-02  0.1093470E+00
          1   -1    0    0  502    0  0.00000000000E+00  0.00000000000E+00  0.24430068709E+03  0.24430068709E+03  0.00000000000E+00 0.  1.
         13   -1    0    0    0    0 -0.00000000000E+00 -0.00000000000E+00 -0.27500000000E+03  0.27500000000E+03  0.00000000000E+00 0.  1.
    9000005    2    1    2  501    0  0.17734756916E+02 -0.45586450243E+02 -0.53480609106E+02  0.46534113275E+03  0.45966242856E+03 0.  0.
         13    1    3    3    0    0  0.13003512668E+03  0.16456125807E+03  0.32074017823E+02  0.21217512684E+03  0.00000000000E+00 0.  1.
          3    1    3    3  501    0 -0.11230036976E+03 -0.21014770831E+03 -0.85554626929E+02  0.25316600591E+03  0.00000000000E+00 0.  1.
         21    1    1    2  502  501 -0.17734756916E+02  0.45586450243E+02  0.22781296195E+02  0.53959554343E+02  0.00000000000E+00 0. -1.
<scales pt_clust_4="550.00000" pt_clust_5="550.00000" pt_clust_6="48.91468"></scales>
<mgrwt>
<rscale>  0 0.30000000E+03</rscale>
<asrwt>  1 0.48914681E+02</asrwt>
<pdfrwt beam="1">  1        1 0.88836613E+00 0.30000000E+03</pdfrwt>
<pdfrwt beam="2">0</pdfrwt>
<totfact> 0.14353435E-04</totfact>
</mgrwt>
<clustering>
<clus scale="   48.915">  1  6  2 -1</clus>
<clus scale="  459.662">  4  5 -1 -1</clus>
<clus scale="  300.000">  1  4  2 -1</clus>
</clustering>
</event>
<event>
 6    1  0.1007353E-011  0.3000000E+03  0.7818608E-02  0.1093470E+00
          1   -1    0    0  502    0  0.00000000000E+00  0.00000000000E+00  0.24942070249E+03  0.24942070249E+03  0.00000000000E+00 0.  1.
         13   -1    0    0    0    0 -0.00000000000E+00 -0.00000000000E+00 -0.27500000000E+03  0.27500000000E+03  0.00000000000E+00 0.  1.
    9000005    2    1    2  501    0  0.53696506416E+02 -0.62154801037E+01 -0.60786728730E+01  0.46695574486E+03  0.46377663848E+03 0.  0.
         13    1    3    3    0    0 -0.17944938902E+03 -0.11130039269E+03 -0.64565110032E+00  0.21116410087E+03  0.00000000000E+00 0.  1.
          3    1    3    3  501    0  0.23314589543E+03  0.10508491258E+03 -0.54330217727E+01  0.25579164399E+03  0.00000000000E+00 0.  1.
         21    1    1    2  502  501 -0.53696506416E+02  0.62154801037E+01 -0.19500624636E+02  0.57464957630E+02  0.00000000000E+00 0.  1.
<scales pt_clust_4="550.00000" pt_clust_5="550.00000" pt_clust_6="54.05506"></scales>
<mgrwt>
<rscale>  0 0.30000000E+03</rscale>
<asrwt>  1 0.54055064E+02</asrwt>
<pdfrwt beam="1">  1        1 0.90698437E+00 0.30000000E+03</pdfrwt>
<pdfrwt beam="2">0</pdfrwt>
<totfact> 0.77969940E-05</totfact>
</mgrwt>
<clustering>
<clus scale="   54.055">  1  6  2 -1</clus>
<clus scale="  463.777">  4  5 -1 -1</clus>
<clus scale="  300.000">  1  4  2 -1</clus>
</clustering>
</event>
<event>
 6    1  0.1007353E-011  0.3000000E+03  0.7818608E-02  0.1093470E+00
          1   -1    0    0  502    0  0.00000000000E+00  0.00000000000E+00  0.26009573516E+03  0.26009573516E+03  0.00000000000E+00 0.  1.
         13   -1    0    0    0    0 -0.00000000000E+00 -0.00000000000E+00 -0.27500000000E+03  0.27500000000E+03  0.00000000000E+00 0.  1.
    9000005    2    1    2  501    0 -0.39739570263E+02 -0.45257308125E+01 -0.33038895632E+02  0.49118012839E+03  0.48843283491E+03 0.  0.
         13    1    3    3    0    0 -0.14880567518E+03  0.16749208447E+03 -0.13688650961E+03  0.26255407793E+03  0.00000000000E+00 0.  1.
          1    1    3    3  501    0  0.10906610492E+03 -0.17201781529E+03  0.10384761398E+03  0.22862605045E+03  0.00000000000E+00 0.  1.
         21    1    1    2  502  501  0.39739570263E+02  0.45257308125E+01  0.18134630792E+02  0.43915606770E+02  0.00000000000E+00 0. -1.
<scales pt_clust_4="550.00000" pt_clust_5="550.00000" pt_clust_6="39.99645"></scales>
<mgrwt>
<rscale>  0 0.30000000E+03</rscale>
<asrwt>  1 0.39996446E+02</asrwt>
<pdfrwt beam="1">  1        1 0.94580267E+00 0.30000000E+03</pdfrwt>
<pdfrwt beam="2">0</pdfrwt>
<totfact> 0.14633327E-05</totfact>
</mgrwt>
<clustering>
<clus scale="   39.996">  1  6  2 -1</clus>
<clus scale="  488.433">  4  5 -1 -1</clus>
<clus scale="  300.000">  1  4  2 -1</clus>
</clustering>
</event>
<event>
 6    1  0.1007353E-011  0.3000000E+03  0.7818608E-02  0.1093470E+00
          1   -1    0    0  502    0  0.00000000000E+00  0.00000000000E+00  0.22280805021E+03  0.22280805021E+03  0.00000000000E+00 0.  1.
         13   -1    0    0    0    0 -0.00000000000E+00 -0.00000000000E+00 -0.27500000000E+03  0.27500000000E+03  0.00000000000E+00 0.  1.
    9000005    2    1    2  501    0 -0.81256993626E+01  0.29150962570E+02 -0.68959218274E+02  0.46321112981E+03  0.45704854379E+03 0.  0.
         13    1    3    3    0    0 -0.13533615287E+03  0.20137529056E+03 -0.54095239729E+02  0.24858434561E+03  0.00000000000E+00 0.  1.
          3    1    3    3  501    0  0.12721045351E+03 -0.17222432799E+03 -0.14863978545E+02  0.21462678419E+03  0.00000000000E+00 0.  1.
         21    1    1    2  502  501  0.81256993626E+01 -0.29150962570E+02  0.16767268483E+02  0.34596920402E+02  0.00000000000E+00 0. -1.
<scales pt_clust_4="550.00000" pt_clust_5="550.00000" pt_clust_6="30.26228"></scales>
<mgrwt>
<rscale>  0 0.30000000E+03</rscale>
<asrwt>  1 0.30262280E+02</asrwt>
<pdfrwt beam="1">  1        1 0.81021109E+00 0.30000000E+03</pdfrwt>
<pdfrwt beam="2">0</pdfrwt>
<totfact> 0.89314057E-04</totfact>
</mgrwt>
<clustering>
<clus scale="   30.262">  1  6  2 -1</clus>
<clus scale="  457.049">  4  5 -1 -1</clus>
<clus scale="  300.000">  1  4  2 -1</clus>
</clustering>
</event>
<event>
 6    1  0.1007353E-011  0.3000000E+03  0.7818608E-02  0.1093470E+00
          1   -1    0    0  502    0  0.00000000000E+00  0.00000000000E+00  0.23486218635E+03  0.23486218635E+03  0.00000000000E+00 0.  1.
         13   -1    0    0    0    0 -0.00000000000E+00 -0.00000000000E+00 -0.27500000000E+03  0.27500000000E+03  0.00000000000E+00 0.  1.
    9000005    2    1    2  501    0 -0.11290768052E+02  0.30019045142E+02 -0.42096491029E+02  0.47773025626E+03  0.47478991004E+03 0.  0.
         13    1    3    3    0    0  0.10127147016E+03  0.95748042334E+02 -0.21803205262E+03  0.25876934565E+03  0.00000000000E+00 0.  1.
          3    1    3    3  501    0 -0.11256223822E+03 -0.65728997192E+02  0.17593556159E+03  0.21896091061E+03  0.00000000000E+00 0.  1.
         21    1    1    2  502  501  0.11290768052E+02 -0.30019045142E+02  0.19586773805E+01  0.32131930093E+02  0.00000000000E+00 0. -1.
<scales pt_clust_4="550.00000" pt_clust_5="550.00000" pt_clust_6="32.07218"></scales>
<mgrwt>
<rscale>  0 0.30000000E+03</rscale>
<asrwt>  1 0.32072177E+02</asrwt>
<pdfrwt beam="1">  1        1 0.85404431E+00 0.30000000E+03</pdfrwt>
<pdfrwt beam="2">0</pdfrwt>
<totfact> 0.37847651E-04</totfact>
</mgrwt>
<clustering>
<clus scale="   32.072">  1  6  2 -1</clus>
<clus scale="  474.790">  4  5 -1 -1</clus>
<clus scale="  300.000">  1  4  2 -1</clus>
</clustering>
</event>
<event>
 6    1  0.1007353E-011  0.3000000E+03  0.7818608E-02  0.1093470E+00
          1   -1    0    0  502    0  0.00000000000E+00  0.00000000000E+00  0.24197548317E+03  0.24197548317E+03  0.00000000000E+00 0.  1.
         13   -1    0    0    0    0 -0.00000000000E+00 -0.00000000000E+00 -0.27500000000E+03  0.27500000000E+03  0.00000000000E+00 0.  1.
    9000005    2    1    2  501    0 -0.14750994146E+02  0.35624544475E+02 -0.47114316516E+02  0.47592402214E+03  0.47201399982E+03 0.  0.
         13    1    3    3    0    0 -0.21925079588E+03  0.12272771630E+03 -0.28318548993E+02  0.25285360203E+03  0.00000000000E+00 0.  1.
          1    1    3    3  501    0  0.20449980173E+03 -0.87103171827E+02 -0.18795767522E+02  0.22307042011E+03  0.00000000000E+00 0.  1.
         21    1    1    2  502  501  0.14750994146E+02 -0.35624544475E+02  0.14089799681E+02  0.41051461026E+02  0.00000000000E+00 0.  1.
<scales pt_clust_4="550.00000" pt_clust_5="550.00000" pt_clust_6="38.55775"></scales>
<mgrwt>
<rscale>  0 0.30000000E+03</rscale>
<asrwt>  1 0.38557749E+02</asrwt>
<pdfrwt beam="1">  1        1 0.87991085E+00 0.30000000E+03</pdfrwt>
<pdfrwt beam="2">0</pdfrwt>
<totfact> 0.19435641E-04</totfact>
</mgrwt>
<clustering>
<clus scale="   38.558">  1  6  2 -1</clus>
<clus scale="  472.014">  4  5 -1 -1</clus>
<clus scale="  300.000">  1  4  2 -1</clus>
</clustering>
</event>
<event>
 6    1  0.1007353E-011  0.3000000E+03  0.7818608E-02  0.1093470E+00
          1   -1    0    0  502    0  0.00000000000E+00  0.00000000000E+00  0.24550681236E+03  0.24550681236E+03  0.00000000000E+00 0.  1.
         13   -1    0    0    0    0 -0.00000000000E+00 -0.00000000000E+00 -0.27500000000E+03  0.27500000000E+03  0.00000000000E+00 0.  1.
    9000005    2    1    2  501    0  0.14411143979E+02  0.41993099570E+02 -0.29500115156E+02  0.47610972315E+03  0.47311638125E+03 0.  0.
         13    1    3    3    0    0  0.21929273221E+02 -0.39426428305E+02  0.21428246839E+03  0.21898016470E+03  0.00000000000E+00 0.  1.
          3    1    3    3  501    0 -0.75181292413E+01  0.81419527875E+02 -0.24378258355E+03  0.25712955845E+03  0.00000000000E+00 0.  1.
         21    1    1    2  502  501 -0.14411143979E+02 -0.41993099570E+02  0.69275198703E-02  0.44397089210E+02  0.00000000000E+00 0.  1.
<scales pt_clust_4="550.00000" pt_clust_5="550.00000" pt_clust_6="44.39709"></scales>
<mgrwt>
<rscale>  0 0.30000000E+03</rscale>
<asrwt>  1 0.44397089E+02</asrwt>
<pdfrwt beam="1">  1        1 0.89275204E+00 0.30000000E+03</pdfrwt>
<pdfrwt beam="2">0</pdfrwt>
<totfact> 0.12812764E-04</totfact>
</mgrwt>
<clustering>
<clus scale="   44.397">  1  6  2 -1</clus>
<clus scale="  473.116">  4  5 -1 -1</clus>
<clus scale="  300.000">  1  4  2 -1</clus>
</clustering>
</event>
<event>
 6    1  0.1007353E-011  0.3000000E+03  0.7818608E-02  0.1093470E+00
          1   -1    0    0  502    0  0.00000000000E+00  0.00000000000E+00  0.23540100312E+03  0.23540100312E+03  0.00000000000E+00 0.  1.
         13   -1    0    0    0    0 -0.00000000000E+00 -0.00000000000E+00 -0.27500000000E+03  0.27500000000E+03  0.00000000000E+00 0.  1.
    9000005    2    1    2  501    0 -0.14663781051E+02  0.33538203542E+02 -0.59964278656E+02  0.46851326896E+03  0.46321607367E+03 0.  0.
         13    1    3    3    0    0 -0.10806219997E+03 -0.13915777695E+03 -0.16882657909E+03  0.24401790867E+03  0.00000000000E+00 0.  1.
          3    1    3    3  501    0  0.93398418915E+02  0.17269598049E+03  0.10886230044E+03  0.22449536028E+03  0.00000000000E+00 0.  1.
         21    1    1    2  502  501  0.14663781051E+02 -0.33538203542E+02  0.20365281780E+02  0.41887734166E+02  0.00000000000E+00 0. -1.
<scales pt_clust_4="550.00000" pt_clust_5="550.00000" pt_clust_6="36.60379"></scales>
<mgrwt>
<rscale>  0 0.30000000E+03</rscale>
<asrwt>  1 0.36603792E+02</asrwt>
<pdfrwt beam="1">  1        1 0.85600365E+00 0.30000000E+03</pdfrwt>
<pdfrwt beam="2">0</pdfrwt>
<totfact> 0.35304430E-04</totfact>
</mgrwt>
<clustering>
<clus scale="   36.604">  1  6  2 -1</clus>
<clus scale="  463.216">  4  5 -1 -1</clus>
<clus scale="  300.000">  1  4  2 -1</clus>
</clustering>
</event>
<event>
 6    1  0.1007353E-011  0.3000000E+03  0.7818608E-02  0.1093470E+00
          1   -1    0    0  502    0  0.00000000000E+00  0.00000000000E+00  0.24796857827E+03  0.24796857827E+03  0.00000000000E+00 0.  1.
         13   -1    0    0    0    0 -0.00000000000E+00 -0.00000000000E+00 -0.27500000000E+03  0.27500000000E+03  0.00000000000E+00 0.  1.
    9000005    2    1    2  501    0  0.25774307882E+02  0.33440130721E+02 -0.39541060552E+02  0.47893395152E+03  0.47542788850E+03 0.  0.
         13    1    3    3    0    0  0.94493835416E+02  0.23752297090E+03  0.17308058448E+02  0.25621439367E+03  0.00000000000E+00 0.  1.
          1    1    3    3  501    0 -0.68719527534E+02 -0.20408284018E+03 -0.56849119000E+02  0.22271955785E+03  0.00000000000E+00 0.  1.
         21    1    1    2  502  501 -0.25774307882E+02 -0.33440130721E+02  0.12509638821E+02  0.44034626748E+02  0.00000000000E+00 0. -1.
<scales pt_clust_4="550.00000" pt_clust_5="550.00000" pt_clust_6="42.22034"></scales>
<mgrwt>
<rscale>  0 0.30000000E+03</rscale>
<asrwt>  1 0.42220342E+02</asrwt>
<pdfrwt beam="1">  1        1 0.90170392E+00 0.30000000E+03</pdfrwt>
<pdfrwt beam="2">0</pdfrwt>
<totfact> 0.10126696E-04</totfact>
</mgrwt>
<clustering>
<clus scale="   42.220">  1  6  2 -1</clus>
<clus scale="  475.428">  4  5 -1 -1</clus>
<clus scale="  300.000">  1  4  2 -1</clus>
</clustering>
</event>
<event>
 6    1  0.1007353E-011  0.3000000E+03  0.7818608E-02  0.1093470E+00
          1   -1    0    0  502    0  0.00000000000E+00  0.00000000000E+00  0.24780791078E+03  0.24780791078E+03  0.00000000000E+00 0.  1.
         13   -1    0    0    0    0 -0.00000000000E+00 -0.00000000000E+00 -0.27500000000E+03  0.27500000000E+03  0.00000000000E+00 0.  1.
    9000005    2    1    2  501    0  0.45424012098E+02  0.61595167232E+00 -0.62531416528E+02  0.46525282129E+03  0.45878784791E+03 0.  0.
         13    1    3    3    0    0 -0.79045021892E+02  0.93578759029E+02  0.15523933267E+03  0.19774819856E+03  0.00000000000E+00 0.  1.
          3    1    3    3  501    0  0.12446903399E+03 -0.92962807357E+02 -0.21777074920E+03  0.26750462273E+03  0.00000000000E+00 0.  1.
         21    1    1    2  502  501 -0.45424012098E+02 -0.61595167232E+00  0.35339327306E+02  0.57555089487E+02  0.00000000000E+00 0. -1.
<scales pt_clust_4="550.00000" pt_clust_5="550.00000" pt_clust_6="45.42819"></scales>
<mgrwt>
<rscale>  0 0.30000000E+03</rscale>
<asrwt>  1 0.45428188E+02</asrwt>
<pdfrwt beam="1">  1        1 0.90111968E+00 0.30000000E+03</pdfrwt>
<pdfrwt beam="2">0</pdfrwt>
<totfact> 0.10182668E-04</totfact>
</mgrwt>
<clustering>
<clus scale="   45.428">  1  6  2 -1</clus>
<clus scale="  458.788">  4  5 -1 -1</clus>
<clus scale="  300.000">  1  4  2 -1</clus>
</clustering>
</event>
<event>
 6    1  0.1007353E-011  0.3000000E+03  0.7818608E-02  0.1093470E+00
          1   -1    0    0  502    0  0.00000000000E+00  0.00000000000E+00  0.23245935393E+03  0.23245935393E+03  0.00000000000E+00 0.  1.
         13   -1    0    0    0    0 -0.00000000000E+00 -0.00000000000E+00 -0.27500000000E+03  0.27500000000E+03  0.00000000000E+00 0.  1.
    9000005    2    1    2  501    0  0.33545010636E+02  0.63716888977E+01 -0.65136877955E+02  0.46651480786E+03  0.46068143757E+03 0.  0.
         13    1    3    3    0    0 -0.58478778013E+02 -0.87954300318E+02  0.16815623917E+03  0.19857554531E+03  0.00000000000E+00 0.  1.
          3    1    3    3  501    0  0.92023788649E+02  0.94325989216E+02 -0.23329311712E+03  0.26793926255E+03  0.00000000000E+00 0.  1.
         21    1    1    2  502  501 -0.33545010636E+02 -0.63716888977E+01  0.22596231889E+02  0.40944546078E+02  0.00000000000E+00 0.  1.
<scales pt_clust_4="550.00000" pt_clust_5="550.00000" pt_clust_6="34.14478"></scales>
<mgrwt>
<rscale>  0 0.30000000E+03</rscale>
<asrwt>  1 0.34144782E+02</asrwt>
<pdfrwt beam="1">  1        1 0.84530674E+00 0.30000000E+03</pdfrwt>
<pdfrwt beam="2">0</pdfrwt>
<totfact> 0.45112467E-04</totfact>
</mgrwt>
<clustering>
<clus scale="   34.145">  1  6  2 -1</clus>
<clus scale="  460.681">  4  5 -1 -1</clus>
<clus scale="  300.000">  1  4  2 -1</clus>
</clustering>
</event>
<event>
 6    1  0.1007353E-011  0.3000000E+03  0.7818608E-02  0.1093470E+00
          1   -1    0    0  502    0  0.00000000000E+00  0.00000000000E+00  0.22775092559E+03  0.22775092559E+03  0.00000000000E+00 0.  1.
         13   -1    0    0    0    0 -0.00000000000E+00 -0.00000000000E+00 -0.27500000000E+03  0.27500000000E+03  0.00000000000E+00 0.  1.
    9000005    2    1    2  501    0 -0.28956739793E+02  0.11701101294E+02 -0.43328652195E+02  0.47127429519E+03  0.46823784625E+03 0.  0.
         13    1    3    3    0    0  0.36530240415E+02  0.18836632756E+03  0.11626720982E+03  0.22435328369E+03  0.00000000000E+00 0.  1.
          3    1    3    3  501    0 -0.65486980208E+02 -0.17666522627E+03 -0.15959586202E+03  0.24692101150E+03  0.00000000000E+00 0.  1.
         21    1    1    2  502  501  0.28956739793E+02 -0.11701101294E+02 -0.39204222143E+01  0.31476630399E+02  0.00000000000E+00 0.  1.
<scales pt_clust_4="550.00000" pt_clust_5="550.00000" pt_clust_6="31.23155"></scales>
<mgrwt>
<rscale>  0 0.30000000E+03</rscale>
<asrwt>  1 0.31231547E+02</asrwt>
<pdfrwt beam="1">  1        1 0.82818518E+00 0.30000000E+03</pdfrwt>
<pdfrwt beam="2">0</pdfrwt>
<totfact> 0.62561149E-04</totfact>
</mgrwt>
<clustering>
<clus scale="   31.232">  1  6  2 -1</clus>
<clus scale="  468.238">  4  5 -1 -1</clus>
<clus scale="  300.000">  1  4  2 -1</clus>
</clustering>
</event>
<event>
 6    1  0.1007353E-011  0.3000000E+03  0.7818608E-02  0.1093470E+00
          1   -1    0    0  502    0  0.00000000000E+00  0.00000000000E+00  0.24632144244E+03  0.24632144244E+03  0.00000000000E+00 0.  1.
         13   -1    0    0    0    0 -0.00000000000E+00 -0.00000000000E+00 -0.27500000000E+03  0.27500000000E+03  0.00000000000E+00 0.  1.
    9000005    2    1    2  501    0 -0.97105539987E+01  0.41289572204E+02 -0.41699595842E+02  0.47695173352E+03  0.47322824956E+03 0.  0.
         13    1    3    3    0    0  0.11189582016E+03  0.47471193348E+02  0.18398783506E+03  0.22051238563E+03  0.00000000000E+00 0.  1.
          1    1    3    3  501    0 -0.12160637416E+03 -0.61816211440E+01 -0.22568743090E+03  0.25643934789E+03  0.00000000000E+00 0.  1.
         21    1    1    2  502  501  0.97105539987E+01 -0.41289572204E+02  0.13021038281E+02  0.44369708920E+02  0.00000000000E+00 0.  1.
<scales pt_clust_4="550.00000" pt_clust_5="550.00000" pt_clust_6="42.41608"></scales>
<mgrwt>
<rscale>  0 0.30000000E+03</rscale>
<asrwt>  1 0.42416078E+02</asrwt>
<pdfrwt beam="1">  1        1 0.89571434E+00 0.30000000E+03</pdfrwt>
<pdfrwt beam="2">0</pdfrwt>
<totfact> 0.11950011E-04</totfact>
</mgrwt>
<clustering>
<clus scale="   42.416">  1  6  2 -1</clus>
<clus scale="  473.228">  4  5 -1 -1</clus>
<clus scale="  300.000">  1  4  2 -1</clus>
</clustering>
</event>
<event>
 6    1  0.1007353E-011  0.3000000E+03  0.7818608E-02  0.1093470E+00
          1   -1    0    0  502    0  0.00000000000E+00  0.00000000000E+00  0.24715466978E+03  0.24715466978E+03  0.00000000000E+00 0.  1.
         13   -1    0    0    0    0 -0.00000000000E+00 -0.00000000000E+00 -0.27500000000E+03  0.27500000000E+03  0.00000000000E+00 0.  1.
    9000005    2    1    2  501    0  0.31000963845E+02 -0.26817683116E+02 -0.34071554463E+02  0.48069367901E+03  0.47772931073E+03 0.  0.
         13    1    3    3    0    0 -0.66387014982E+02 -0.17493292520E+03  0.13889480019E+03  0.23302474031E+03  0.00000000000E+00 0.  1.
          1    1    3    3  501    0  0.97387978827E+02  0.14811524208E+03 -0.17296635465E+03  0.24766893870E+03  0.00000000000E+00 0.  1.
         21    1    1    2  502  501 -0.31000963845E+02  0.26817683116E+02  0.62262242387E+01  0.41460990766E+02  0.00000000000E+00 0. -1.
<scales pt_clust_4="550.00000" pt_clust_5="550.00000" pt_clust_6="40.99083"></scales>
<mgrwt>
<rscale>  0 0.30000000E+03</rscale>
<asrwt>  1 0.40990827E+02</asrwt>
<pdfrwt beam="1">  1        1 0.89874425E+00 0.30000000E+03</pdfrwt>
<pdfrwt beam="2">0</pdfrwt>
<totfact> 0.11110421E-04</totfact>
</mgrwt>
<clustering>
<clus scale="   40.991">  1  6  2 -1</clus>
<clus scale="  477.729">  4  5 -1 -1</clus>
<clus scale="  300.000">  1  4  2 -1</clus>
</clustering>
</event>
<event>
 6    1  0.1007353E-011  0.3000000E+03  0.7818608E-02  0.1093470E+00
          1   -1    0    0  502    0  0.00000000000E+00  0.00000000000E+00  0.24527464769E+03  0.24527464769E+03  0.00000000000E+00 0.  1.
         13   -1    0    0    0    0 -0.00000000000E+00 -0.00000000000E+00 -0.27500000000E+03  0.27500000000E+03  0.00000000000E+00 0.  1.
    9000005    2    1    2  501    0  0.32849390217E+02  0.30080680162E+01 -0.41943161714E+02  0.48509786874E+03  0.48215410662E+03 0.  0.
         13    1    3    3    0    0  0.14219004390E+03 -0.10141143983E+02  0.18458288056E+03  0.23322026324E+03  0.00000000000E+00 0.  1.
          3    1    3    3  501    0 -0.10934065369E+03  0.13149211999E+02 -0.22652604228E+03  0.25187760550E+03  0.00000000000E+00 0.  1.
         21    1    1    2  502  501 -0.32849390217E+02 -0.30080680162E+01  0.12217809407E+02  0.35176778953E+02  0.00000000000E+00 0. -1.
<scales pt_clust_4="550.00000" pt_clust_5="550.00000" pt_clust_6="32.98683"></scales>
<mgrwt>
<rscale>  0 0.30000000E+03</rscale>
<asrwt>  1 0.32986829E+02</asrwt>
<pdfrwt beam="1">  1        1 0.89190781E+00 0.30000000E+03</pdfrwt>
<pdfrwt beam="2">0</pdfrwt>
<totfact> 0.13854424E-04</totfact>
</mgrwt>
<clustering>
<clus scale="   32.987">  1  6  2 -1</clus>
<clus scale="  482.154">  4  5 -1 -1</clus>
<clus scale="  300.000">  1  4  2 -1</clus>
</clustering>
</event>
<event>
 6    1  0.1007353E-011  0.3000000E+03  0.7818608E-02  0.1093470E+00
          1   -1    0    0  502    0  0.00000000000E+00  0.00000000000E+00  0.24644649092E+03  0.24644649092E+03  0.00000000000E+00 0.  1.
         13   -1    0    0    0    0 -0.00000000000E+00 -0.00000000000E+00 -0.27500000000E+03  0.27500000000E+03  0.00000000000E+00 0.  1.
    9000005    2    1    2  501    0  0.33021496068E+02 -0.12276832422E+02 -0.32235907669E+02  0.48602474793E+03  0.48367319756E+03 0.  0.
         13    1    3    3    0    0 -0.15172566989E+03 -0.13651574689E+03  0.99785503923E+02  0.22718797250E+03  0.00000000000E+00 0.  1.
          3    1    3    3  501    0  0.18474716596E+03  0.12423891447E+03 -0.13202141159E+03  0.25883677544E+03  0.00000000000E+00 0.  1.
         21    1    1    2  502  501 -0.33021496068E+02  0.12276832422E+02  0.36823985878E+01  0.35421742987E+02  0.00000000000E+00 0.  1.
<scales pt_clust_4="550.00000" pt_clust_5="550.00000" pt_clust_6="35.22981"></scales>
<mgrwt>
<rscale>  0 0.30000000E+03</rscale>
<asrwt>  1 0.35229814E+02</asrwt>
<pdfrwt beam="1">  1        1 0.89616906E+00 0.30000000E+03</pdfrwt>
<pdfrwt beam="2">0</pdfrwt>
<totfact> 0.12221006E-04</totfact>
</mgrwt>
<clustering>
<clus scale="   35.230">  1  6  2 -1</clus>
<clus scale="  483.673">  4  5 -1 -1</clus>
<clus scale="  300.000">  1  4  2 -1</clus>
</clustering>
</event>
<event>
 6    1  0.1007353E-011  0.3000000E+03  0.7818608E-02  0.1093470E+00
          1   -1    0    0  502    0  0.00000000000E+00  0.00000000000E+00  0.23773372399E+03  0.23773372399E+03  0.00000000000E+00 0.  1.
         13   -1    0    0    0    0 -0.00000000000E+00 -0.00000000000E+00 -0.27500000000E+03  0.27500000000E+03  0.00000000000E+00 0.  1.
    9000005    2    1    2  501    0  0.27766393132E+02 -0.14689607676E+02 -0.23528105740E+02  0.47844823897E+03  0.47683580869E+03 0.  0.
         13    1    3    3    0    0  0.26396109766E+02 -0.47368248013E+02 -0.24685408611E+03  0.25273987687E+03  0.00000000000E+00 0.  1.
          1    1    3    3  501    0  0.13702833666E+01  0.32678640337E+02  0.22332598037E+03  0.22570836210E+03  0.00000000000E+00 0.  1.
         21    1    1    2  502  501 -0.27766393132E+02  0.14689607676E+02 -0.13738170267E+02  0.34285485027E+02  0.00000000000E+00 0. -1.
<scales pt_clust_4="550.00000" pt_clust_5="550.00000" pt_clust_6="31.41271"></scales>
<mgrwt>
<rscale>  0 0.30000000E+03</rscale>
<asrwt>  1 0.31412707E+02</asrwt>
<pdfrwt beam="1">  1        1 0.86448627E+00 0.30000000E+03</pdfrwt>
<pdfrwt beam="2">0</pdfrwt>
<totfact> 0.29533918E-04</totfact>
</mgrwt>
<clustering>
<clus scale="   31.413">  1  6  2 -1</clus>
<clus scale="  476.836">  4  5 -1 -1</clus>
<clus scale="  300.000">  1  4  2 -1</clus>
</clustering>
</event>
<event>
 6    1  0.1007353E-011  0.3000000E+03  0.7818608E-02  0.1093470E+00
          1   -1    0    0  502    0  0.00000000000E+00  0.00000000000E+00  0.23131911166E+03  0.23131911166E+03  0.00000000000E+00 0.  1.
         13   -1    0    0    0    0 -0.00000000000E+00 -0.00000000000E+00 -0.27500000000E+03  0.27500000000E+03  0.00000000000E+00 0.  1.
    9000005    2    1    2  501    0  0.20073011412E+02  0.24751080853E+02 -0.59079101273E+02  0.47092636167E+03  0.46611774920E+03 0.  0.
         13    1    3    3    0    0  0.13967457587E+03 -0.17664137160E+03  0.13819450493E+02  0.22561502281E+03  0.00000000000E+00 0.  1.
          1    1    3    3  501    0 -0.11960156445E+03  0.20139245245E+03 -0.72898551765E+02  0.24531133886E+03  0.00000000000E+00 0.  1.
         21    1    1    2  502  501 -0.20073011412E+02 -0.24751080853E+02  0.15398212938E+02  0.35392749995E+02  0.00000000000E+00 0.  1.
<scales pt_clust_4="550.00000" pt_clust_5="550.00000" pt_clust_6="31.86757"></scales>
<mgrwt>
<rscale>  0 0.30000000E+03</rscale>
<asrwt>  1 0.31867566E+02</asrwt>
<pdfrwt beam="1">  1        1 0.84116041E+00 0.30000000E+03</pdfrwt>
<pdfrwt beam="2">0</pdfrwt>
<totfact> 0.49544623E-04</totfact>
</mgrwt>
<clustering>
<clus scale="   31.868">  1  6  2 -1</clus>
<clus scale="  466.118">  4  5 -1 -1</clus>
<clus scale="  300.000">  1  4  2 -1</clus>
</clustering>
</event>
<event>
 6    1  0.1007353E-011  0.3000000E+03  0.7818608E-02  0.1093470E+00
          1   -1    0    0  502    0  0.00000000000E+00  0.00000000000E+00  0.23681659709E+03  0.23681659709E+03  0.00000000000E+00 0.  1.
         13   -1    0    0    0    0 -0.00000000000E+00 -0.00000000000E+00 -0.27500000000E+03  0.27500000000E+03  0.00000000000E+00 0.  1.
    9000005    2    1    2  501    0  0.29542284580E+02 -0.73528244697E+01 -0.35140680239E+02  0.48122135617E+03  0.47897005712E+03 0.  0.
         13    1    3    3    0    0  0.33336454420E+02 -0.23977705555E+03  0.18059661305E+02  0.24275606466E+03  0.00000000000E+00 0.  1.
          1    1    3    3  501    0 -0.37941698397E+01  0.23242423108E+03 -0.53200341544E+02  0.23846529152E+03  0.00000000000E+00 0.  1.
         21    1    1    2  502  501 -0.29542284580E+02  0.73528244697E+01 -0.30427226680E+01  0.30595240923E+02  0.00000000000E+00 0.  1.
<scales pt_clust_4="550.00000" pt_clust_5="550.00000" pt_clust_6="30.44358"></scales>
<mgrwt>
<rscale>  0 0.30000000E+03</rscale>
<asrwt>  1 0.30443579E+02</asrwt>
<pdfrwt beam="1">  1        1 0.86115126E+00 0.30000000E+03</pdfrwt>
<pdfrwt beam="2">0</pdfrwt>
<totfact> 0.32282416E-04</totfact>
</mgrwt>
<clustering>
<clus scale="   30.444">  1  6  2 -1</clus>
<clus scale="  478.970">  4  5 -1 -1</clus>
<clus scale="  300.000">  1  4  2 -1</clus>
</clustering>
</event>
<event>
 6    1  0.1007353E-011  0.3000000E+03  0.7818608E-02  0.1093470E+00
          1   -1    0    0  502    0  0.00000000000E+00  0.00000000000E+00  0.22845975196E+03  0.22845975196E+03  0.00000000000E+00 0.  1.
         13   -1    0    0    0    0 -0.00000000000E+00 -0.00000000000E+00 -0.27500000000E+03  0.27500000000E+03  0.00000000000E+00 0.  1.
    9000005    2    1    2  501    0 -0.16360512380E+02  0.26031118199E+02 -0.64759380970E+02  0.46772150516E+03  0.46219513572E+03 0.  0.
         13    1    3    3    0    0 -0.14031231669E+03  0.16193427705E+03  0.85015384825E+02  0.23051653293E+03  0.00000000000E+00 0.  1.
          3    1    3    3  501    0  0.12395180431E+03 -0.13590315885E+03 -0.14977476580E+03  0.23720497222E+03  0.00000000000E+00 0.  1.
         21    1    1    2  502  501  0.16360512380E+02 -0.26031118199E+02  0.18219132933E+02  0.35738246808E+02  0.00000000000E+00 0. -1.
<scales pt_clust_4="550.00000" pt_clust_5="550.00000" pt_clust_6="30.74550"></scales>
<mgrwt>
<rscale>  0 0.30000000E+03</rscale>
<asrwt>  1 0.30745495E+02</asrwt>
<pdfrwt beam="1">  1        1 0.83076273E+00 0.30000000E+03</pdfrwt>
<pdfrwt beam="2">0</pdfrwt>
<totfact> 0.59709266E-04</totfact>
</mgrwt>
<clustering>
<clus scale="   30.745">  1  6  2 -1</clus>
<clus scale="  462.195">  4  5 -1 -1</clus>
<clus scale="  300.000">  1  4  2 -1</clus>
</clustering>
</event>
<event>
 6    1  0.1007353E-011  0.3000000E+03  0.7818608E-02  0.1093470E+00
          1   -1    0    0  502    0  0.00000000000E+00  0.00000000000E+00  0.21741032338E+03  0.21741032338E+03  0.00000000000E+00 0.  1.
         13   -1    0    0    0    0 -0.00000000000E+00 -0.00000000000E+00 -0.27500000000E+03  0.27500000000E+03  0.00000000000E+00 0.  1.
    9000005    2    1    2  501    0 -0.18769890322E+01 -0.31510220716E+02 -0.54456585505E+02  0.46068914185E+03  0.45636887341E+03 0.  0.
         13    1    3    3    0    0  0.20556249020E+03 -0.83547145623E+02 -0.97775946547E+02  0.24247927466E+03  0.00000000000E+00 0.  1.
          1    1    3    3  501    0 -0.20743947923E+03  0.52036924908E+02  0.43319361042E+02  0.21820986719E+03  0.00000000000E+00 0.  1.
         21    1    1    2  502  501  0.18769890322E+01  0.31510220716E+02 -0.31330911185E+01  0.31721181525E+02  0.00000000000E+00 0. -1.
<scales pt_clust_4="550.00000" pt_clust_5="550.00000" pt_clust_6="31.56608"></scales>
<mgrwt>
<rscale>  0 0.30000000E+03</rscale>
<asrwt>  1 0.31566075E+02</asrwt>
<pdfrwt beam="1">  1        1 0.79058299E+00 0.30000000E+03</pdfrwt>
<pdfrwt beam="2">0</pdfrwt>
<totfact> 0.12441613E-03</totfact>
</mgrwt>
<clustering>
<clus scale="   31.566">  1  6  2 -1</clus>
<clus scale="  456.369">  4  5 -1 -1</clus>
<clus scale="  300.000">  1  4  2 -1</clus>
</clustering>
</event>
<event>
 6    1  0.1007353E-011  0.3000000E+03  0.7818608E-02  0.1093470E+00
          1   -1    0    0  502    0  0.00000000000E+00  0.00000000000E+00  0.22736192083E+03  0.22736192083E+03  0.00000000000E+00 0.  1.
         13   -1    0    0    0    0 -0.00000000000E+00 -0.00000000000E+00 -0.27500000000E+03  0.27500000000E+03  0.00000000000E+00 0.  1.
    9000005    2    1    2  501    0 -0.22447111995E+02  0.25910027361E+02 -0.60020937623E+02  0.46591281195E+03  0.46075702168E+03 0.  0.
         13    1    3    3    0    0  0.20492996393E+03  0.44157004323E+02  0.45604625726E+02  0.21453650746E+03  0.00000000000E+00 0.  1.
          1    1    3    3  501    0 -0.22737707592E+03 -0.18246976962E+02 -0.10562556335E+03  0.25137630449E+03  0.00000000000E+00 0.  1.
         21    1    1    2  502  501  0.22447111995E+02 -0.25910027361E+02  0.12382858454E+02  0.36449108881E+02  0.00000000000E+00 0. -1.
<scales pt_clust_4="550.00000" pt_clust_5="550.00000" pt_clust_6="34.28122"></scales>
<mgrwt>
<rscale>  0 0.30000000E+03</rscale>
<asrwt>  1 0.34281225E+02</asrwt>
<pdfrwt beam="1">  1        1 0.82677062E+00 0.30000000E+03</pdfrwt>
<pdfrwt beam="2">0</pdfrwt>
<totfact> 0.63240072E-04</totfact>
</mgrwt>
<clustering>
<clus scale="   34.281">  1  6  2 -1</clus>
<clus scale="  460.757">  4  5 -1 -1</clus>
<clus scale="  300.000">  1  4  2 -1</clus>
</clustering>
</event>
<event>
 6    1  0.1007353E-011  0.3000000E+03  0.7818608E-02  0.1093470E+00
          1   -1    0    0  502    0  0.00000000000E+00  0.00000000000E+00  0.25729685169E+03  0.25729685169E+03  0.00000000000E+00 0.  1.
         13   -1    0    0    0    0 -0.00000000000E+00 -0.00000000000E+00 -0.27500000000E+03  0.27500000000E+03  0.00000000000E+00 0.  1.
    9000005    2    1    2  501    0 -0.30495285274E+02 -0.74795902049E+01 -0.34547462534E+02  0.49666487707E+03  0.49446594044E+03 0.  0.
         13    1    3    3    0    0 -0.12191881355E+03 -0.20077413504E+03  0.87262930795E+02  0.25057787110E+03  0.00000000000E+00 0.  1.
          3    1    3    3  501    0  0.91423528273E+02  0.19329454483E+03 -0.12181039333E+03  0.24608700597E+03  0.00000000000E+00 0.  1.
         21    1    1    2  502  501  0.30495285274E+02  0.74795902049E+01  0.16844314227E+02  0.35631974621E+02  0.00000000000E+00 0.  1.
<scales pt_clust_4="550.00000" pt_clust_5="550.00000" pt_clust_6="31.39915"></scales>
<mgrwt>
<rscale>  0 0.30000000E+03</rscale>
<asrwt>  1 0.31399151E+02</asrwt>
<pdfrwt beam="1">  1        1 0.93562492E+00 0.30000000E+03</pdfrwt>
<pdfrwt beam="2">0</pdfrwt>
<totfact> 0.22591987E-05</totfact>
</mgrwt>
<clustering>
<clus scale="   31.399">  1  6  2 -1</clus>
<clus scale="  494.466">  4  5 -1 -1</clus>
<clus scale="  300.000">  1  4  2 -1</clus>
</clustering>
</event>
<event>
 6    1  0.1007353E-011  0.3000000E+03  0.7818608E-02  0.1093470E+00
          1   -1    0    0  502    0  0.00000000000E+00  0.00000000000E+00  0.24196603764E+03  0.24196603764E+03  0.00000000000E+00 0.  1.
         13   -1    0    0    0    0 -0.00000000000E+00 -0.00000000000E+00 -0.27500000000E+03  0.27500000000E+03  0.00000000000E+00 0.  1.
    9000005    2    1    2  501    0  0.19119479639E+02  0.38274205078E+02 -0.29133747192E+02  0.47400464853E+03  0.47116999303E+03 0.  0.
         13    1    3    3    0    0  0.17001047602E+03 -0.12907915789E+03 -0.10281537025E+03  0.23693035119E+03  0.00000000000E+00 0.  1.
          3    1    3    3  501    0 -0.15089099638E+03  0.16735336296E+03  0.73681623059E+02  0.23707429734E+03  0.00000000000E+00 0.  1.
         21    1    1    2  502  501 -0.19119479639E+02 -0.38274205078E+02 -0.39002151659E+01  0.42961389111E+02  0.00000000000E+00 0. -1.
<scales pt_clust_4="550.00000" pt_clust_5="550.00000" pt_clust_6="42.78401"></scales>
<mgrwt>
<rscale>  0 0.30000000E+03</rscale>
<asrwt>  1 0.42784005E+02</asrwt>
<pdfrwt beam="1">  1        1 0.87987650E+00 0.30000000E+03</pdfrwt>
<pdfrwt beam="2">0</pdfrwt>
<totfact> 0.19089854E-04</totfact>
</mgrwt>
<clustering>
<clus scale="   42.784">  1  6  2 -1</clus>
<clus scale="  471.170">  4  5 -1 -1</clus>
<clus scale="  300.000">  1  4  2 -1</clus>
</clustering>
</event>
<event>
 6    1  0.1007353E-011  0.3000000E+03  0.7818608E-02  0.1093470E+00
          1   -1    0    0  502    0  0.00000000000E+00  0.00000000000E+00  0.23307786744E+03  0.23307786744E+03  0.00000000000E+00 0.  1.
         13   -1    0    0    0    0 -0.00000000000E+00 -0.00000000000E+00 -0.27500000000E+03  0.27500000000E+03  0.00000000000E+00 0.  1.
    9000005    2    1    2  501    0 -0.32017513617E+02  0.10300353072E+02 -0.50153935474E+02  0.47345156197E+03  0.46958465247E+03 0.  0.
         13    1    3    3    0    0 -0.24100976929E+03 -0.37193254920E+02 -0.80910913033E+02  0.25693505590E+03  0.00000000000E+00 0.  1.
          1    1    3    3  501    0  0.20899225567E+03  0.47493607993E+02  0.30756977559E+02  0.21651650607E+03  0.00000000000E+00 0.  1.
         21    1    1    2  502  501  0.32017513617E+02 -0.10300353072E+02  0.82318029175E+01  0.34626305476E+02  0.00000000000E+00 0. -1.
<scales pt_clust_4="550.00000" pt_clust_5="550.00000" pt_clust_6="33.63359"></scales>
<mgrwt>
<rscale>  0 0.30000000E+03</rscale>
<asrwt>  1 0.33633591E+02</asrwt>
<pdfrwt beam="1">  1        1 0.84755588E+00 0.30000000E+03</pdfrwt>
<pdfrwt beam="2">0</pdfrwt>
<totfact> 0.43193441E-04</totfact>
</mgrwt>
<clustering>
<clus scale="   33.634">  1  6  2 -1</clus>
<clus scale="  469.585">  4  5 -1 -1</clus>
<clus scale="  300.000">  1  4  2 -1</clus>
</clustering>
</event>
<event>
 6    1  0.1007353E-011  0.3000000E+03  0.7818608E-02  0.1093470E+00
          1   -1    0    0  502    0  0.00000000000E+00  0.00000000000E+00  0.24361914440E+03  0.24361914440E+03  0.00000000000E+00 0.  1.
         13   -1    0    0    0    0 -0.00000000000E+00 -0.00000000000E+00 -0.27500000000E+03  0.27500000000E+03  0.00000000000E+00 0.  1.
    9000005    2    1    2  501    0  0.21516057598E+02  0.29368513630E+02 -0.48284994386E+02  0.47847938561E+03  0.47464263551E+03 0.  0.
         13    1    3    3    0    0 -0.10637816022E+03 -0.15113075469E+03 -0.14708611728E+03  0.23620149001E+03  0.00000000000E+00 0.  1.
          1    1    3    3  501    0  0.12789421781E+03  0.18049926832E+03  0.98801122899E+02  0.24227789561E+03  0.00000000000E+00 0.  1.
         21    1    1    2  502  501 -0.21516057598E+02 -0.29368513630E+02  0.16904138786E+02  0.40139758787E+02  0.00000000000E+00 0.  1.
<scales pt_clust_4="550.00000" pt_clust_5="550.00000" pt_clust_6="36.40673"></scales>
<mgrwt>
<rscale>  0 0.30000000E+03</rscale>
<asrwt>  1 0.36406735E+02</asrwt>
<pdfrwt beam="1">  1        1 0.88588780E+00 0.30000000E+03</pdfrwt>
<pdfrwt beam="2">0</pdfrwt>
<totfact> 0.16379744E-04</totfact>
</mgrwt>
<clustering>
<clus scale="   36.407">  1  6  2 -1</clus>
<clus scale="  474.643">  4  5 -1 -1</clus>
<clus scale="  300.000">  1  4  2 -1</clus>
</clustering>
</event>
<event>
 6    1  0.1007353E-011  0.3000000E+03  0.7818608E-02  0.1093470E+00
          1   -1    0    0  502    0  0.00000000000E+00  0.00000000000E+00  0.26335424370E+03  0.26335424370E+03  0.00000000000E+00 0.  1.
         13   -1    0    0    0    0 -0.00000000000E+00 -0.00000000000E+00 -0.27500000000E+03  0.27500000000E+03  0.00000000000E+00 0.  1.
    9000005    2    1    2  501    0  0.40047555913E+01 -0.49021166497E+02 -0.51393752315E+02  0.47511647003E+03  0.46976082157E+03 0.  0.
         13    1    3    3    0    0 -0.12200047050E+03 -0.16616685517E+03  0.11476036088E+03  0.23593532798E+03  0.00000000000E+00 0.  1.
          3    1    3    3  501    0  0.12600522609E+03  0.11714568867E+03 -0.16615411319E+03  0.23918114204E+03  0.00000000000E+00 0.  1.
         21    1    1    2  502  501 -0.40047555913E+01  0.49021166497E+02  0.39747996015E+02  0.63237773674E+02  0.00000000000E+00 0.  1.
<scales pt_clust_4="550.00000" pt_clust_5="550.00000" pt_clust_6="49.18448"></scales>
<mgrwt>
<rscale>  0 0.30000000E+03</rscale>
<asrwt>  1 0.49184478E+02</asrwt>
<pdfrwt beam="1">  1        1 0.95765180E+00 0.30000000E+03</pdfrwt>
<pdfrwt beam="2">0</pdfrwt>
<totfact> 0.80113970E-06</totfact>
</mgrwt>
<clustering>
<clus scale="   49.184">  1  6  2 -1</clus>
<clus scale="  469.761">  4  5 -1 -1</clus>
<clus scale="  300.000">  1  4  2 -1</clus>
</clustering>
</event>
<event>
 6    1  0.1007353E-011  0.3000000E+03  0.7818608E-02  0.1093470E+00
          1   -1    0    0  502    0  0.00000000000E+00  0.00000000000E+00  0.24731605246E+03  0.24731605246E+03  0.00000000000E+00 0.  1.
         13   -1    0    0    0    0 -0.00000000000E+00 -0.00000000000E+00 -0.27500000000E+03  0.27500000000E+03  0.00000000000E+00 0.  1.
    9000005    2    1    2  501    0 -0.14205075375E+02  0.34604129216E+02 -0.36807161551E+02  0.48381328686E+03  0.48095872949E+03 0.  0.
         13    1    3    3    0    0 -0.16510390896E+03 -0.16394774254E+03 -0.26963946015E+02  0.23423325431E+03  0.00000000000E+00 0.  1.
          3    1    3    3  501    0  0.15089883359E+03  0.19855187176E+03 -0.98432155360E+01  0.24958003255E+03  0.00000000000E+00 0.  1.
         21    1    1    2  502  501  0.14205075375E+02 -0.34604129216E+02  0.91232140158E+01  0.38502765604E+02  0.00000000000E+00 0.  1.
<scales pt_clust_4="550.00000" pt_clust_5="550.00000" pt_clust_6="37.40628"></scales>
<mgrwt>
<rscale>  0 0.30000000E+03</rscale>
<asrwt>  1 0.37406282E+02</asrwt>
<pdfrwt beam="1">  1        1 0.89933110E+00 0.30000000E+03</pdfrwt>
<pdfrwt beam="2">0</pdfrwt>
<totfact> 0.11117499E-04</totfact>
</mgrwt>
<clustering>
<clus scale="   37.406">  1  6  2 -1</clus>
<clus scale="  480.959">  4  5 -1 -1</clus>
<clus scale="  300.000">  1  4  2 -1</clus>
</clustering>
</event>
<event>
 6    1  0.1007353E-011  0.3000000E+03  0.7818608E-02  0.1093470E+00
          1   -1    0    0  502    0  0.00000000000E+00  0.00000000000E+00  0.22557485726E+03  0.22557485726E+03  0.00000000000E+00 0.  1.
         13   -1    0    0    0    0 -0.00000000000E+00 -0.00000000000E+00 -0.27500000000E+03  0.27500000000E+03  0.00000000000E+00 0.  1.
    9000005    2    1    2  501    0  0.13565408703E+02 -0.27957821475E+02 -0.63251088783E+02  0.46656284646E+03  0.46120985394E+03 0.  0.
         13    1    3    3    0    0 -0.67249753605E+02  0.17765012171E+03 -0.13639416490E+03  0.23384923203E+03  0.00000000000E+00 0.  1.
          1    1    3    3  501    0  0.80815162308E+02 -0.20560794318E+03  0.73143076114E+02  0.23271361443E+03  0.00000000000E+00 0.  1.
         21    1    1    2  502  501 -0.13565408703E+02  0.27957821475E+02  0.13825946047E+02  0.34012010805E+02  0.00000000000E+00 0. -1.
<scales pt_clust_4="550.00000" pt_clust_5="550.00000" pt_clust_6="31.07507"></scales>
<mgrwt>
<rscale>  0 0.30000000E+03</rscale>
<asrwt>  1 0.31075072E+02</asrwt>
<pdfrwt beam="1">  1        1 0.82027221E+00 0.30000000E+03</pdfrwt>
<pdfrwt beam="2">0</pdfrwt>
<totfact> 0.73573375E-04</totfact>
</mgrwt>
<clustering>
<clus scale="   31.075">  1  6  2 -1</clus>
<clus scale="  461.210">  4  5 -1 -1</clus>
<clus scale="  300.000">  1  4  2 -1</clus>
</clustering>
</event>
<event>
 6    1  0.1007353E-011  0.3000000E+03  0.7818608E-02  0.1093470E+00
          1   -1    0    0  502    0  0.00000000000E+00  0.00000000000E+00  0.24276316833E+03  0.24276316833E+03  0.00000000000E+00 0.  1.
         13   -1    0    0    0    0 -0.00000000000E+00 -0.00000000000E+00 -0.27500000000E+03  0.27500000000E+03  0.00000000000E+00 0.  1.
    9000005    2    1    2  501    0 -0.47826436481E+02 -0.12029042377E+02 -0.49027063066E+02  0.46566731669E+03  0.46044579598E+03 0.  0.
         13    1    3    3    0    0 -0.22541364060E+03  0.72900244668E+02 -0.10772617145E+03  0.26025119223E+03  0.00000000000E+00 0.  1.
          1    1    3    3  501    0  0.17758720412E+03 -0.84929287045E+02  0.58699108380E+02  0.20541612447E+03  0.00000000000E+00 0.  1.
         21    1    1    2  502  501  0.47826436481E+02  0.12029042377E+02  0.16790231391E+02  0.52095851631E+02  0.00000000000E+00 0. -1.
<scales pt_clust_4="550.00000" pt_clust_5="550.00000" pt_clust_6="49.31598"></scales>
<mgrwt>
<rscale>  0 0.30000000E+03</rscale>
<asrwt>  1 0.49315980E+02</asrwt>
<pdfrwt beam="1">  1        1 0.88277516E+00 0.30000000E+03</pdfrwt>
<pdfrwt beam="2">0</pdfrwt>
<totfact> 0.17089809E-04</totfact>
</mgrwt>
<clustering>
<clus scale="   49.316">  1  6  2 -1</clus>
<clus scale="  460.446">  4  5 -1 -1</clus>
<clus scale="  300.000">  1  4  2 -1</clus>
</clustering>
</event>
<event>
 6    1  0.1007353E-011  0.3000000E+03  0.7818608E-02  0.1093470E+00
          1   -1    0    0  502    0  0.00000000000E+00  0.00000000000E+00  0.22968586509E+03  0.22968586509E+03  0.00000000000E+00 0.  1.
         13   -1    0    0    0    0 -0.00000000000E+00 -0.00000000000E+00 -0.27500000000E+03  0.27500000000E+03  0.00000000000E+00 0.  1.
    9000005    2    1    2  501    0  0.13368390386E+02 -0.28806731365E+02 -0.43345931325E+02  0.47286738840E+03  0.46980438016E+03 0.  0.
         13    1    3    3    0    0  0.63975718348E+02  0.21361466879E+03 -0.13000208585E+02  0.22336768943E+03  0.00000000000E+00 0.  1.
          3    1    3    3  501    0 -0.50607327962E+02 -0.24242140015E+03 -0.30345722740E+02  0.24949969897E+03  0.00000000000E+00 0.  1.
         21    1    1    2  502  501 -0.13368390386E+02  0.28806731365E+02 -0.19682035879E+01  0.31818476689E+02  0.00000000000E+00 0. -1.
<scales pt_clust_4="550.00000" pt_clust_5="550.00000" pt_clust_6="31.75754"></scales>
<mgrwt>
<rscale>  0 0.30000000E+03</rscale>
<asrwt>  1 0.31757545E+02</asrwt>
<pdfrwt beam="1">  1        1 0.83522133E+00 0.30000000E+03</pdfrwt>
<pdfrwt beam="2">0</pdfrwt>
<totfact> 0.54896357E-04</totfact>
</mgrwt>
<clustering>
<clus scale="   31.758">  1  6  2 -1</clus>
<clus scale="  469.804">  4  5 -1 -1</clus>
<clus scale="  300.000">  1  4  2 -1</clus>
</clustering>
</event>
<event>
 6    1  0.1007353E-011  0.3000000E+03  0.7818608E-02  0.1093470E+00
          1   -1    0    0  502    0  0.00000000000E+00  0.00000000000E+00  0.26960231653E+03  0.26960231653E+03  0.00000000000E+00 0.  1.
         13   -1    0    0    0    0 -0.00000000000E+00 -0.00000000000E+00 -0.27500000000E+03  0.27500000000E+03  0.00000000000E+00 0.  1.
    9000005    2    1    2  501    0 -0.18574031445E+02  0.26300163231E+02  0.18556404971E+02  0.50447138602E+03  0.50310073139E+03 0.  0.
         13    1    3    3    0    0 -0.10605283251E+02 -0.15102472734E+02  0.25935435656E+03  0.26001007477E+03  0.00000000000E+00 0.  1.
          3    1    3    3  501    0 -0.79687481937E+01  0.41402635965E+02 -0.24079795159E+03  0.24446131126E+03  0.00000000000E+00 0.  1.
         21    1    1    2  502  501  0.18574031445E+02 -0.26300163231E+02 -0.23954088442E+02  0.40130930504E+02  0.00000000000E+00 0. -1.
<scales pt_clust_4="550.00000" pt_clust_5="550.00000" pt_clust_6="32.19774"></scales>
<mgrwt>
<rscale>  0 0.30000000E+03</rscale>
<asrwt>  1 0.32197737E+02</asrwt>
<pdfrwt beam="1">  1        1 0.98037206E+00 0.30000000E+03</pdfrwt>
<pdfrwt beam="2">0</pdfrwt>
<totfact> 0.28084891E-06</totfact>
</mgrwt>
<clustering>
<clus scale="   32.198">  1  6  2 -1</clus>
<clus scale="  503.101">  4  5 -1 -1</clus>
<clus scale="  300.000">  1  4  2 -1</clus>
</clustering>
</event>
<event>
 6    1  0.1007353E-011  0.3000000E+03  0.7818608E-02  0.1093470E+00
          1   -1    0    0  502    0  0.00000000000E+00  0.00000000000E+00  0.22890770912E+03  0.22890770912E+03  0.00000000000E+00 0.  1.
         13   -1    0    0    0    0 -0.00000000000E+00 -0.00000000000E+00 -0.27500000000E+03  0.27500000000E+03  0.00000000000E+00 0.  1.
    9000005    2    1    2  501    0  0.26378642734E+01 -0.35834108640E+02 -0.61549075454E+02  0.46479308450E+03  0.45929650667E+03 0.  0.
         13    1    3    3    0    0 -0.11949410154E+03  0.17490119722E+03 -0.63769850944E+02  0.22121451801E+03  0.00000000000E+00 0.  1.
          3    1    3    3  501    0  0.12213196581E+03 -0.21073530586E+03  0.22207754900E+01  0.24357856649E+03  0.00000000000E+00 0.  1.
         21    1    1    2  502  501 -0.26378642734E+01  0.35834108640E+02  0.15456784576E+02  0.39114624622E+02  0.00000000000E+00 0. -1.
<scales pt_clust_4="550.00000" pt_clust_5="550.00000" pt_clust_6="35.93107"></scales>
<mgrwt>
<rscale>  0 0.30000000E+03</rscale>
<asrwt>  1 0.35931068E+02</asrwt>
<pdfrwt beam="1">  1        1 0.83239167E+00 0.30000000E+03</pdfrwt>
<pdfrwt beam="2">0</pdfrwt>
<totfact> 0.56298078E-04</totfact>
</mgrwt>
<clustering>
<clus scale="   35.931">  1  6  2 -1</clus>
<clus scale="  459.297">  4  5 -1 -1</clus>
<clus scale="  300.000">  1  4  2 -1</clus>
</clustering>
</event>
<event>
 6    1  0.1007353E-011  0.3000000E+03  0.7818608E-02  0.1093470E+00
          1   -1    0    0  502    0  0.00000000000E+00  0.00000000000E+00  0.23805990379E+03  0.23805990379E+03  0.00000000000E+00 0.  1.
         13   -1    0    0    0    0 -0.00000000000E+00 -0.00000000000E+00 -0.27500000000E+03  0.27500000000E+03  0.00000000000E+00 0.  1.
    9000005    2    1    2  501    0  0.29553391960E+02 -0.30258940005E+02 -0.25556853571E+02  0.46925825269E+03  0.46664884927E+03 0.  0.
         13    1    3    3    0    0  0.18678190643E+02 -0.20224086843E+03 -0.15353879181E+03  0.25460637121E+03  0.00000000000E+00 0.  1.
          3    1    3    3  501    0  0.10875201318E+02  0.17198192842E+03  0.12798193824E+03  0.21465188148E+03  0.00000000000E+00 0.  1.
         21    1    1    2  502  501 -0.29553391960E+02  0.30258940005E+02 -0.11383242638E+02  0.43801651106E+02  0.00000000000E+00 0.  1.
<scales pt_clust_4="550.00000" pt_clust_5="550.00000" pt_clust_6="42.29667"></scales>
<mgrwt>
<rscale>  0 0.30000000E+03</rscale>
<asrwt>  1 0.42296669E+02</asrwt>
<pdfrwt beam="1">  1        1 0.86567238E+00 0.30000000E+03</pdfrwt>
<pdfrwt beam="2">0</pdfrwt>
<totfact> 0.27138148E-04</totfact>
</mgrwt>
<clustering>
<clus scale="   42.297">  1  6  2 -1</clus>
<clus scale="  466.649">  4  5 -1 -1</clus>
<clus scale="  300.000">  1  4  2 -1</clus>
</clustering>
</event>
<event>
 6    1  0.1007353E-011  0.3000000E+03  0.7818608E-02  0.1093470E+00
          1   -1    0    0  502    0  0.00000000000E+00  0.00000000000E+00  0.21835072695E+03  0.21835072695E+03  0.00000000000E+00 0.  1.
         13   -1    0    0    0    0 -0.00000000000E+00 -0.00000000000E+00 -0.27500000000E+03  0.27500000000E+03  0.00000000000E+00 0.  1.
    9000005    2    1    2  501    0 -0.47616526718E+00 -0.32342714616E+02 -0.54122573137E+02  0.46090597183E+03  0.45657286825E+03 0.  0.
         13    1    3    3    0    0  0.38350407216E+02  0.20898434616E+03 -0.38868989671E+02  0.21600002090E+03  0.00000000000E+00 0.  1.
          3    1    3    3  501    0 -0.38826572483E+02 -0.24132706077E+03 -0.15253583466E+02  0.24490595093E+03  0.00000000000E+00 0.  1.
         21    1    1    2  502  501  0.47616526718E+00  0.32342714616E+02 -0.25266999140E+01  0.32444755116E+02  0.00000000000E+00 0. -1.
<scales pt_clust_4="550.00000" pt_clust_5="550.00000" pt_clust_6="32.34622"></scales>
<mgrwt>
<rscale>  0 0.30000000E+03</rscale>
<asrwt>  1 0.32346220E+02</asrwt>
<pdfrwt beam="1">  1        1 0.79400264E+00 0.30000000E+03</pdfrwt>
<pdfrwt beam="2">0</pdfrwt>
<totfact> 0.11649425E-03</totfact>
</mgrwt>
<clustering>
<clus scale="   32.346">  1  6  2 -1</clus>
<clus scale="  456.573">  4  5 -1 -1</clus>
<clus scale="  300.000">  1  4  2 -1</clus>
</clustering>
</event>
<event>
 6    1  0.1007353E-011  0.3000000E+03  0.7818608E-02  0.1093470E+00
          1   -1    0    0  502    0  0.00000000000E+00  0.00000000000E+00  0.25707291738E+03  0.25707291738E+03  0.00000000000E+00 0.  1.
         13   -1    0    0    0    0 -0.00000000000E+00 -0.00000000000E+00 -0.27500000000E+03  0.27500000000E+03  0.00000000000E+00 0.  1.
    9000005    2    1    2  501    0 -0.55718415481E+01 -0.34866805933E+02 -0.41942217746E+02  0.48937085315E+03  0.48628997801E+03 0.  0.
         13    1    3    3    0    0  0.15055921939E+03  0.16941742918E+03  0.10771993207E+02  0.22690610325E+03  0.00000000000E+00 0.  1.
          3    1    3    3  501    0 -0.15613106094E+03 -0.20428423511E+03 -0.52714210952E+02  0.26246474990E+03  0.00000000000E+00 0.  1.
         21    1    1    2  502  501  0.55718415481E+01  0.34866805933E+02  0.24015135123E+02  0.42702064226E+02  0.00000000000E+00 0.  1.
<scales pt_clust_4="550.00000" pt_clust_5="550.00000" pt_clust_6="35.30920"></scales>
<mgrwt>
<rscale>  0 0.30000000E+03</rscale>
<asrwt>  1 0.35309200E+02</asrwt>
<pdfrwt beam="1">  1        1 0.93481061E+00 0.30000000E+03</pdfrwt>
<pdfrwt beam="2">0</pdfrwt>
<totfact> 0.22607798E-05</totfact>
</mgrwt>
<clustering>
<clus scale="   35.309">  1  6  2 -1</clus>
<clus scale="  486.290">  4  5 -1 -1</clus>
<clus scale="  300.000">  1  4  2 -1</clus>
</clustering>
</event>
<event>
 6    1  0.1007353E-011  0.3000000E+03  0.7818608E-02  0.1093470E+00
          1   -1    0    0  502    0  0.00000000000E+00  0.00000000000E+00  0.22554154681E+03  0.22554154681E+03  0.00000000000E+00 0.  1.
         13   -1    0    0    0    0 -0.00000000000E+00 -0.00000000000E+00 -0.27500000000E+03  0.27500000000E+03  0.00000000000E+00 0.  1.
    9000005    2    1    2  501    0 -0.95351079601E+01  0.29602811445E+02 -0.59331900148E+02  0.46791135092E+03  0.46309125798E+03 0.  0.
         13    1    3    3    0    0 -0.20723066062E+03  0.71667224873E+02  0.67335552750E+02  0.22937919367E+03  0.00000000000E+00 0.  1.
          1    1    3    3  501    0  0.19769555266E+03 -0.42064413428E+02 -0.12666745290E+03  0.23853215725E+03  0.00000000000E+00 0.  1.
         21    1    1    2  502  501  0.95351079601E+01 -0.29602811445E+02  0.98734469626E+01  0.32630195895E+02  0.00000000000E+00 0. -1.
<scales pt_clust_4="550.00000" pt_clust_5="550.00000" pt_clust_6="31.10056"></scales>
<mgrwt>
<rscale>  0 0.30000000E+03</rscale>
<asrwt>  1 0.31100558E+02</asrwt>
<pdfrwt beam="1">  1        1 0.82015108E+00 0.30000000E+03</pdfrwt>
<pdfrwt beam="2">0</pdfrwt>
<totfact> 0.73740243E-04</totfact>
</mgrwt>
<clustering>
<clus scale="   31.101">  1  6  2 -1</clus>
<clus scale="  463.091">  4  5 -1 -1</clus>
<clus scale="  300.000">  1  4  2 -1</clus>
</clustering>
</event>
<event>
 6    1  0.1007353E-011  0.3000000E+03  0.7818608E-02  0.1093470E+00
          1   -1    0    0  502    0  0.00000000000E+00  0.00000000000E+00  0.23045701691E+03  0.23045701691E+03  0.00000000000E+00 0.  1.
         13   -1    0    0    0    0 -0.00000000000E+00 -0.00000000000E+00 -0.27500000000E+03  0.27500000000E+03  0.00000000000E+00 0.  1.
    9000005    2    1    2  501    0  0.75112732718E+01 -0.30657850666E+02 -0.68739799716E+02  0.46568505482E+03  0.45950091097E+03 0.  0.
         13    1    3    3    0    0 -0.46933045829E+02  0.20885790530E+03 -0.17570177415E+02  0.21478604827E+03  0.00000000000E+00 0.  1.
          1    1    3    3  501    0  0.54444319101E+02 -0.23951575597E+03 -0.51169622302E+02  0.25089900655E+03  0.00000000000E+00 0.  1.
         21    1    1    2  502  501 -0.75112732718E+01  0.30657850666E+02  0.24196816625E+02  0.39771962089E+02  0.00000000000E+00 0. -1.
<scales pt_clust_4="550.00000" pt_clust_5="550.00000" pt_clust_6="31.56459"></scales>
<mgrwt>
<rscale>  0 0.30000000E+03</rscale>
<asrwt>  1 0.31564585E+02</asrwt>
<pdfrwt beam="1">  1        1 0.83802552E+00 0.30000000E+03</pdfrwt>
<pdfrwt beam="2">0</pdfrwt>
<totfact> 0.52438014E-04</totfact>
</mgrwt>
<clustering>
<clus scale="   31.565">  1  6  2 -1</clus>
<clus scale="  459.501">  4  5 -1 -1</clus>
<clus scale="  300.000">  1  4  2 -1</clus>
</clustering>
</event>
<event>
 6    1  0.1007353E-011  0.3000000E+03  0.7818608E-02  0.1093470E+00
          1   -1    0    0  502    0  0.00000000000E+00  0.00000000000E+00  0.22372807938E+03  0.22372807938E+03  0.00000000000E+00 0.  1.
         13   -1    0    0    0    0 -0.00000000000E+00 -0.00000000000E+00 -0.27500000000E+03  0.27500000000E+03  0.00000000000E+00 0.  1.
    9000005    2    1    2  501    0  0.29917661118E+02 -0.27036112527E+01 -0.28042557850E+02  0.46075467744E+03  0.45891841516E+03 0.  0.
         13    1    3    3    0    0  0.22188457417E+03  0.80499198499E+02  0.42758371685E+02  0.23987739277E+03  0.00000000000E+00 0.  1.
          3    1    3    3  501    0 -0.19196691305E+03 -0.83202809752E+02 -0.70800929535E+02  0.22087728467E+03  0.00000000000E+00 0.  1.
         21    1    1    2  502  501 -0.29917661118E+02  0.27036112527E+01 -0.23229362767E+02  0.37973401943E+02  0.00000000000E+00 0.  1.
<scales pt_clust_4="550.00000" pt_clust_5="550.00000" pt_clust_6="30.03959"></scales>
<mgrwt>
<rscale>  0 0.30000000E+03</rscale>
<asrwt>  1 0.30039588E+02</asrwt>
<pdfrwt beam="1">  1        1 0.81355665E+00 0.30000000E+03</pdfrwt>
<pdfrwt beam="2">0</pdfrwt>
<totfact> 0.84164346E-04</totfact>
</mgrwt>
<clustering>
<clus scale="   30.040">  1  6  2 -1</clus>
<clus scale="  458.918">  4  5 -1 -1</clus>
<clus scale="  300.000">  1  4  2 -1</clus>
</clustering>
</event>
<event>
 6    1  0.1007353E-011  0.3000000E+03  0.7818608E-02  0.1093470E+00
          1   -1    0    0  502    0  0.00000000000E+00  0.00000000000E+00  0.21992233707E+03  0.21992233707E+03  0.00000000000E+00 0.  1.
         13   -1    0    0    0    0 -0.00000000000E+00 -0.00000000000E+00 -0.27500000000E+03  0.27500000000E+03  0.00000000000E+00 0.  1.
    9000005    2    1    2  501    0 -0.20359913209E+02 -0.23219146457E+02 -0.64940263718E+02  0.46250435252E+03  0.45688005365E+03 0.  0.
         13    1    3    3    0    0  0.11516690263E+03 -0.16890079691E+03 -0.14223809700E+03  0.24904331129E+03  0.00000000000E+00 0.  1.
          3    1    3    3  501    0 -0.13552681584E+03  0.14568165046E+03  0.77297833284E+02  0.21346104123E+03  0.00000000000E+00 0.  1.
         21    1    1    2  502  501  0.20359913209E+02  0.23219146457E+02  0.98626007884E+01  0.32417984551E+02  0.00000000000E+00 0.  1.
<scales pt_clust_4="550.00000" pt_clust_5="550.00000" pt_clust_6="30.88130"></scales>
<mgrwt>
<rscale>  0 0.30000000E+03</rscale>
<asrwt>  1 0.30881302E+02</asrwt>
<pdfrwt beam="1">  1        1 0.79971759E+00 0.30000000E+03</pdfrwt>
<pdfrwt beam="2">0</pdfrwt>
<totfact> 0.10668933E-03</totfact>
</mgrwt>
<clustering>
<clus scale="   30.881">  1  6  2 -1</clus>
<clus scale="  456.880">  4  5 -1 -1</clus>
<clus scale="  300.000">  1  4  2 -1</clus>
</clustering>
</event>
<event>
 6    1  0.1007353E-011  0.3000000E+03  0.7818608E-02  0.1093470E+00
          1   -1    0    0  502    0  0.00000000000E+00  0.00000000000E+00  0.23124459220E+03  0.23124459220E+03  0.00000000000E+00 0.  1.
         13   -1    0    0    0    0 -0.00000000000E+00 -0.00000000000E+00 -0.27500000000E+03  0.27500000000E+03  0.00000000000E+00 0.  1.
    9000005    2    1    2  501    0  0.33305213424E+02  0.13755723336E+01 -0.49177010264E+02  0.47247295893E+03  0.46872293430E+03 0.  0.
         13    1    3    3    0    0  0.98302672672E+02  0.13225531385E+03 -0.20222601539E+03  0.26086441842E+03  0.00000000000E+00 0.  1.
          1    1    3    3  501    0 -0.64997459249E+02 -0.13087974152E+03  0.15304900512E+03  0.21160854051E+03  0.00000000000E+00 0.  1.
         21    1    1    2  502  501 -0.33305213424E+02 -0.13755723336E+01  0.54216024604E+01  0.33771633270E+02  0.00000000000E+00 0. -1.
<scales pt_clust_4="550.00000" pt_clust_5="550.00000" pt_clust_6="33.33361"></scales>
<mgrwt>
<rscale>  0 0.30000000E+03</rscale>
<asrwt>  1 0.33333608E+02</asrwt>
<pdfrwt beam="1">  1        1 0.84088943E+00 0.30000000E+03</pdfrwt>
<pdfrwt beam="2">0</pdfrwt>
<totfact> 0.49368376E-04</totfact>
</mgrwt>
<clustering>
<clus scale="   33.334">  1  6  2 -1</clus>
<clus scale="  468.723">  4  5 -1 -1</clus>
<clus scale="  300.000">  1  4  2 -1</clus>
</clustering>
</event>
<event>
 6    1  0.1007353E-011  0.3000000E+03  0.7818608E-02  0.1093470E+00
          1   -1    0    0  502    0  0.00000000000E+00  0.00000000000E+00  0.23206008930E+03  0.23206008930E+03  0.00000000000E+00 0.  1.
         13   -1    0    0    0    0 -0.00000000000E+00 -0.00000000000E+00 -0.27500000000E+03  0.27500000000E+03  0.00000000000E+00 0.  1.
    9000005    2    1    2  501    0  0.27860983961E+02 -0.17881147294E+02 -0.51280981287E+02  0.47292003490E+03  0.46896444483E+03 0.  0.
         13    1    3    3    0    0 -0.11095364799E+03  0.11419165833E+03  0.13271361588E+03  0.20727602533E+03  0.00000000000E+00 0.  1.
          3    1    3    3  501    0  0.13881463196E+03 -0.13207280563E+03 -0.18399459717E+03  0.26564400957E+03  0.00000000000E+00 0.  1.
         21    1    1    2  502  501 -0.27860983961E+02  0.17881147294E+02  0.83410705868E+01  0.34140054399E+02  0.00000000000E+00 0. -1.
<scales pt_clust_4="550.00000" pt_clust_5="550.00000" pt_clust_6="33.10544"></scales>
<mgrwt>
<rscale>  0 0.30000000E+03</rscale>
<asrwt>  1 0.33105435E+02</asrwt>
<pdfrwt beam="1">  1        1 0.84385487E+00 0.30000000E+03</pdfrwt>
<pdfrwt beam="2">0</pdfrwt>
<totfact> 0.46711091E-04</totfact>
</mgrwt>
<clustering>
<clus scale="   33.105">  1  6  2 -1</clus>
<clus scale="  468.964">  4  5 -1 -1</clus>
<clus scale="  300.000">  1  4  2 -1</clus>
</clustering>
</event>
<event>
 6    1  0.1007353E-011  0.3000000E+03  0.7818608E-02  0.1093470E+00
          1   -1    0    0  502    0  0.00000000000E+00  0.00000000000E+00  0.24442977845E+03  0.24442977845E+03  0.00000000000E+00 0.  1.
         13   -1    0    0    0    0 -0.00000000000E+00 -0.00000000000E+00 -0.27500000000E+03  0.27500000000E+03  0.00000000000E+00 0.  1.
    9000005    2    1    2  501    0 -0.23447299146E+01  0.32553867938E+02 -0.47779395223E+02  0.48253251928E+03  0.47905063352E+03 0.  0.
         13    1    3    3    0    0  0.22071472785E+03  0.19411146953E+02 -0.11441166345E+03  0.24936281288E+03  0.00000000000E+00 0.  1.
          1    1    3    3  501    0 -0.22305945776E+03  0.13142720986E+02  0.66632268223E+02  0.23316970640E+03  0.00000000000E+00 0.  1.
         21    1    1    2  502  501  0.23447299146E+01 -0.32553867938E+02  0.17209173677E+02  0.36897259177E+02  0.00000000000E+00 0.  1.
<scales pt_clust_4="550.00000" pt_clust_5="550.00000" pt_clust_6="32.63820"></scales>
<mgrwt>
<rscale>  0 0.30000000E+03</rscale>
<asrwt>  1 0.32638200E+02</asrwt>
<pdfrwt beam="1">  1        1 0.88883556E+00 0.30000000E+03</pdfrwt>
<pdfrwt beam="2">0</pdfrwt>
<totfact> 0.15227600E-04</totfact>
</mgrwt>
<clustering>
<clus scale="   32.638">  1  6  2 -1</clus>
<clus scale="  479.051">  4  5 -1 -1</clus>
<clus scale="  300.000">  1  4  2 -1</clus>
</clustering>
</event>
<event>
 6    1  0.1007353E-011  0.3000000E+03  0.7818608E-02  0.1093470E+00
          1   -1    0    0  502    0  0.00000000000E+00  0.00000000000E+00  0.21897539305E+03  0.21897539305E+03  0.00000000000E+00 0.  1.
         13   -1    0    0    0    0 -0.00000000000E+00 -0.00000000000E+00 -0.27500000000E+03  0.27500000000E+03  0.00000000000E+00 0.  1.
    9000005    2    1    2  501    0 -0.23154147754E+02  0.24005196368E+02 -0.50176198890E+02  0.46011438468E+03  0.45615264117E+03 0.  0.
         13    1    3    3    0    0  0.33065022806E+02  0.20710662263E+03  0.84348295306E+02  0.22605548830E+03  0.00000000000E+00 0.  1.
          3    1    3    3  501    0 -0.56219170560E+02 -0.18310142626E+03 -0.13452449420E+03  0.23405889638E+03  0.00000000000E+00 0.  1.
         21    1    1    2  502  501  0.23154147754E+02 -0.24005196368E+02 -0.58484080598E+01  0.33861008368E+02  0.00000000000E+00 0. -1.
<scales pt_clust_4="550.00000" pt_clust_5="550.00000" pt_clust_6="33.35214"></scales>
<mgrwt>
<rscale>  0 0.30000000E+03</rscale>
<asrwt>  1 0.33352138E+02</asrwt>
<pdfrwt beam="1">  1        1 0.79627416E+00 0.30000000E+03</pdfrwt>
<pdfrwt beam="2">0</pdfrwt>
<totfact> 0.11138574E-03</totfact>
</mgrwt>
<clustering>
<clus scale="   33.352">  1  6  2 -1</clus>
<clus scale="  456.153">  4  5 -1 -1</clus>
<clus scale="  300.000">  1  4  2 -1</clus>
</clustering>
</event>
<event>
 6    1  0.1007353E-011  0.3000000E+03  0.7818608E-02  0.1093470E+00
          1   -1    0    0  502    0  0.00000000000E+00  0.00000000000E+00  0.23887933853E+03  0.23887933853E+03  0.00000000000E+00 0.  1.
         13   -1    0    0    0    0 -0.00000000000E+00 -0.00000000000E+00 -0.27500000000E+03  0.27500000000E+03  0.00000000000E+00 0.  1.
    9000005    2    1    2  501    0 -0.22209931597E+02  0.24410128381E+02 -0.31733334677E+02  0.48058693601E+03  0.47840115291E+03 0.  0.
         13    1    3    3    0    0 -0.21054918781E+02  0.24569344320E+03  0.35905083916E+02  0.24919420677E+03  0.00000000000E+00 0.  1.
          1    1    3    3  501    0 -0.11550128156E+01 -0.22128331482E+03 -0.67638418593E+02  0.23139272924E+03  0.00000000000E+00 0.  1.
         21    1    1    2  502  501  0.22209931597E+02 -0.24410128381E+02 -0.43873267958E+01  0.33292402520E+02  0.00000000000E+00 0.  1.
<scales pt_clust_4="550.00000" pt_clust_5="550.00000" pt_clust_6="33.00207"></scales>
<mgrwt>
<rscale>  0 0.30000000E+03</rscale>
<asrwt>  1 0.33002068E+02</asrwt>
<pdfrwt beam="1">  1        1 0.86865214E+00 0.30000000E+03</pdfrwt>
<pdfrwt beam="2">0</pdfrwt>
<totfact> 0.26435762E-04</totfact>
</mgrwt>
<clustering>
<clus scale="   33.002">  1  6  2 -1</clus>
<clus scale="  478.401">  4  5 -1 -1</clus>
<clus scale="  300.000">  1  4  2 -1</clus>
</clustering>
</event>
<event>
 6    1  0.1007353E-011  0.3000000E+03  0.7818608E-02  0.1093470E+00
          1   -1    0    0  502    0  0.00000000000E+00  0.00000000000E+00  0.24180396594E+03  0.24180396594E+03  0.00000000000E+00 0.  1.
         13   -1    0    0    0    0 -0.00000000000E+00 -0.00000000000E+00 -0.27500000000E+03  0.27500000000E+03  0.00000000000E+00 0.  1.
    9000005    2    1    2  501    0 -0.40233773695E+02  0.98688637392E+01 -0.53249374287E+02  0.47077910883E+03  0.46591986697E+03 0.  0.
         13    1    3    3    0    0 -0.13651246623E+03  0.53572184568E+02  0.16954537502E+03  0.22416794281E+03  0.00000000000E+00 0.  1.
          3    1    3    3  501    0  0.96278692532E+02 -0.43703320828E+02 -0.22279474931E+03  0.24661116602E+03  0.00000000000E+00 0.  1.
         21    1    1    2  502  501  0.40233773695E+02 -0.98688637392E+01  0.20053340225E+02  0.46024857104E+02  0.00000000000E+00 0.  1.
<scales pt_clust_4="550.00000" pt_clust_5="550.00000" pt_clust_6="41.42645"></scales>
<mgrwt>
<rscale>  0 0.30000000E+03</rscale>
<asrwt>  1 0.41426453E+02</asrwt>
<pdfrwt beam="1">  1        1 0.87928715E+00 0.30000000E+03</pdfrwt>
<pdfrwt beam="2">0</pdfrwt>
<totfact> 0.19520770E-04</totfact>
</mgrwt>
<clustering>
<clus scale="   41.426">  1  6  2 -1</clus>
<clus scale="  465.920">  4  5 -1 -1</clus>
<clus scale="  300.000">  1  4  2 -1</clus>
</clustering>
</event>
<event>
 6    1  0.1007353E-011  0.3000000E+03  0.7818608E-02  0.1093470E+00
          1   -1    0    0  502    0  0.00000000000E+00  0.00000000000E+00  0.24627675893E+03  0.24627675893E+03  0.00000000000E+00 0.  1.
         13   -1    0    0    0    0 -0.00000000000E+00 -0.00000000000E+00 -0.27500000000E+03  0.27500000000E+03  0.00000000000E+00 0.  1.
    9000005    2    1    2  501    0  0.15867219526E+02  0.37545703886E+02 -0.51006117689E+02  0.47482274806E+03  0.47031220428E+03 0.  0.
         13    1    3    3    0    0 -0.82526645511E+01  0.24126079297E+03  0.49440504228E+02  0.24641274349E+03  0.00000000000E+00 0.  1.
          1    1    3    3  501    0  0.24119884077E+02 -0.20371508909E+03 -0.10044662192E+03  0.22841000456E+03  0.00000000000E+00 0.  1.
         21    1    1    2  502  501 -0.15867219526E+02 -0.37545703886E+02  0.22282876618E+02  0.46454010873E+02  0.00000000000E+00 0. -1.
<scales pt_clust_4="550.00000" pt_clust_5="550.00000" pt_clust_6="40.76087"></scales>
<mgrwt>
<rscale>  0 0.30000000E+03</rscale>
<asrwt>  1 0.40760870E+02</asrwt>
<pdfrwt beam="1">  1        1 0.89555185E+00 0.30000000E+03</pdfrwt>
<pdfrwt beam="2">0</pdfrwt>
<totfact> 0.12086819E-04</totfact>
</mgrwt>
<clustering>
<clus scale="   40.761">  1  6  2 -1</clus>
<clus scale="  470.312">  4  5 -1 -1</clus>
<clus scale="  300.000">  1  4  2 -1</clus>
</clustering>
</event>
<event>
 6    1  0.1007353E-011  0.3000000E+03  0.7818608E-02  0.1093470E+00
          1   -1    0    0  502    0  0.00000000000E+00  0.00000000000E+00  0.23095858993E+03  0.23095858993E+03  0.00000000000E+00 0.  1.
         13   -1    0    0    0    0 -0.00000000000E+00 -0.00000000000E+00 -0.27500000000E+03  0.27500000000E+03  0.00000000000E+00 0.  1.
    9000005    2    1    2  501    0  0.25074566902E+02  0.22327168383E+02 -0.54061532964E+02  0.47092090713E+03  0.46660113059E+03 0.  0.
         13    1    3    3    0    0 -0.33503300382E+02  0.13417894805E+03  0.16670183356E+03  0.21660092925E+03  0.00000000000E+00 0.  1.
          1    1    3    3  501    0  0.58577867284E+02 -0.11185177967E+03 -0.22076336653E+03  0.25431997788E+03  0.00000000000E+00 0.  1.
         21    1    1    2  502  501 -0.25074566902E+02 -0.22327168383E+02  0.10020122897E+02  0.35037682803E+02  0.00000000000E+00 0.  1.
<scales pt_clust_4="550.00000" pt_clust_5="550.00000" pt_clust_6="33.57434"></scales>
<mgrwt>
<rscale>  0 0.30000000E+03</rscale>
<asrwt>  1 0.33574341E+02</asrwt>
<pdfrwt beam="1">  1        1 0.83984942E+00 0.30000000E+03</pdfrwt>
<pdfrwt beam="2">0</pdfrwt>
<totfact> 0.50226987E-04</totfact>
</mgrwt>
<clustering>
<clus scale="   33.574">  1  6  2 -1</clus>
<clus scale="  466.601">  4  5 -1 -1</clus>
<clus scale="  300.000">  1  4  2 -1</clus>
</clustering>
</event>
<event>
 6    1  0.1007353E-011  0.3000000E+03  0.7818608E-02  0.1093470E+00
          1   -1    0    0  502    0  0.00000000000E+00  0.00000000000E+00  0.23437016354E+03  0.23437016354E+03  0.00000000000E+00 0.  1.
         13   -1    0    0    0    0 -0.00000000000E+00 -0.00000000000E+00 -0.27500000000E+03  0.27500000000E+03  0.00000000000E+00 0.  1.
    9000005    2    1    2  501    0  0.37033392446E+02 -0.81413930955E+01 -0.47881811121E+02  0.47076516938E+03  0.46678627061E+03 0.  0.
         13    1    3    3    0    0 -0.89350739063E+02 -0.84299216749E+02  0.16870601455E+03  0.20869027735E+03  0.00000000000E+00 0.  1.
          1    1    3    3  501    0  0.12638413151E+03  0.76157823653E+02 -0.21658782567E+03  0.26207489203E+03  0.00000000000E+00 0.  1.
         21    1    1    2  502  501 -0.37033392446E+02  0.81413930955E+01  0.72519746597E+01  0.38604994159E+02  0.00000000000E+00 0. -1.
<scales pt_clust_4="550.00000" pt_clust_5="550.00000" pt_clust_6="37.91773"></scales>
<mgrwt>
<rscale>  0 0.30000000E+03</rscale>
<asrwt>  1 0.37917732E+02</asrwt>
<pdfrwt beam="1">  1        1 0.85225514E+00 0.30000000E+03</pdfrwt>
<pdfrwt beam="2">0</pdfrwt>
<totfact> 0.38169187E-04</totfact>
</mgrwt>
<clustering>
<clus scale="   37.918">  1  6  2 -1</clus>
<clus scale="  466.786">  4  5 -1 -1</clus>
<clus scale="  300.000">  1  4  2 -1</clus>
</clustering>
</event>
<event>
 6    1  0.1007353E-011  0.3000000E+03  0.7818608E-02  0.1093470E+00
          1   -1    0    0  502    0  0.00000000000E+00  0.00000000000E+00  0.23265605261E+03  0.23265605261E+03  0.00000000000E+00 0.  1.
         13   -1    0    0    0    0 -0.00000000000E+00 -0.00000000000E+00 -0.27500000000E+03  0.27500000000E+03  0.00000000000E+00 0.  1.
    9000005    2    1    2  501    0 -0.24518170926E+01  0.38943603173E+02 -0.46146470893E+02  0.46845050682E+03  0.46453607495E+03 0.  0.
         13    1    3    3    0    0  0.21992667722E+03  0.69625381393E+02  0.27209588910E+02  0.23228387549E+03  0.00000000000E+00 0.  1.
          1    1    3    3  501    0 -0.22237849431E+03 -0.30681778220E+02 -0.73356059802E+02  0.23616663133E+03  0.00000000000E+00 0.  1.
         21    1    1    2  502  501  0.24518170926E+01 -0.38943603173E+02  0.38025235001E+01  0.39205545783E+02  0.00000000000E+00 0.  1.
<scales pt_clust_4="550.00000" pt_clust_5="550.00000" pt_clust_6="39.02071"></scales>
<mgrwt>
<rscale>  0 0.30000000E+03</rscale>
<asrwt>  1 0.39020708E+02</asrwt>
<pdfrwt beam="1">  1        1 0.84602201E+00 0.30000000E+03</pdfrwt>
<pdfrwt beam="2">0</pdfrwt>
<totfact> 0.43372756E-04</totfact>
</mgrwt>
<clustering>
<clus scale="   39.021">  1  6  2 -1</clus>
<clus scale="  464.536">  4  5 -1 -1</clus>
<clus scale="  300.000">  1  4  2 -1</clus>
</clustering>
</event>
<event>
 6    1  0.1007353E-011  0.3000000E+03  0.7818608E-02  0.1093470E+00
          1   -1    0    0  502    0  0.00000000000E+00  0.00000000000E+00  0.25239348335E+03  0.25239348335E+03  0.00000000000E+00 0.  1.
         13   -1    0    0    0    0 -0.00000000000E+00 -0.00000000000E+00 -0.27500000000E+03  0.27500000000E+03  0.00000000000E+00 0.  1.
    9000005    2    1    2  501    0 -0.32247003018E+02  0.25804806055E+01 -0.55092476780E+02  0.48154737458E+03  0.47729044080E+03 0.  0.
         13    1    3    3    0    0 -0.23862846704E+02  0.16467523919E+03 -0.20263485893E+03  0.26219888617E+03  0.00000000000E+00 0.  1.
          1    1    3    3  501    0 -0.83841563142E+01 -0.16209475859E+03  0.14754238215E+03  0.21934848841E+03  0.00000000000E+00 0.  1.
         21    1    1    2  502  501  0.32247003018E+02 -0.25804806055E+01  0.32485960131E+02  0.45846108771E+02  0.00000000000E+00 0. -1.
<scales pt_clust_4="550.00000" pt_clust_5="550.00000" pt_clust_6="32.35009"></scales>
<mgrwt>
<rscale>  0 0.30000000E+03</rscale>
<asrwt>  1 0.32350086E+02</asrwt>
<pdfrwt beam="1">  1        1 0.91779448E+00 0.30000000E+03</pdfrwt>
<pdfrwt beam="2">0</pdfrwt>
<totfact> 0.47450814E-05</totfact>
</mgrwt>
<clustering>
<clus scale="   32.350">  1  6  2 -1</clus>
<clus scale="  477.290">  4  5 -1 -1</clus>
<clus scale="  300.000">  1  4  2 -1</clus>
</clustering>
</event>
<event>
 6    1  0.1007353E-011  0.3000000E+03  0.7818608E-02  0.1093470E+00
          1   -1    0    0  502    0  0.00000000000E+00  0.00000000000E+00  0.24731025548E+03  0.24731025548E+03  0.00000000000E+00 0.  1.
         13   -1    0    0    0    0 -0.00000000000E+00 -0.00000000000E+00 -0.27500000000E+03  0.27500000000E+03  0.00000000000E+00 0.  1.
    9000005    2    1    2  501    0 -0.26252391364E+02  0.22906450476E+02 -0.10178860963E+02  0.48331635122E+03  0.48195144218E+03 0.  0.
         13    1    3    3    0    0 -0.22021419799E+03  0.10040837960E+03  0.81264750121E+02  0.25530392732E+03  0.00000000000E+00 0.  1.
          3    1    3    3  501    0  0.19396180663E+03 -0.77501929126E+02 -0.91443611084E+02  0.22801242391E+03  0.00000000000E+00 0.  1.
         21    1    1    2  502  501  0.26252391364E+02 -0.22906450476E+02 -0.17510883561E+02  0.38993904252E+02  0.00000000000E+00 0. -1.
<scales pt_clust_4="550.00000" pt_clust_5="550.00000" pt_clust_6="34.84099"></scales>
<mgrwt>
<rscale>  0 0.30000000E+03</rscale>
<asrwt>  1 0.34840992E+02</asrwt>
<pdfrwt beam="1">  1        1 0.89931002E+00 0.30000000E+03</pdfrwt>
<pdfrwt beam="2">0</pdfrwt>
<totfact> 0.11272010E-04</totfact>
</mgrwt>
<clustering>
<clus scale="   34.841">  1  6  2 -1</clus>
<clus scale="  481.951">  4  5 -1 -1</clus>
<clus scale="  300.000">  1  4  2 -1</clus>
</clustering>
</event>
<event>
 6    1  0.1007353E-011  0.3000000E+03  0.7818608E-02  0.1093470E+00
          1   -1    0    0  502    0  0.00000000000E+00  0.00000000000E+00  0.23691283049E+03  0.23691283049E+03  0.00000000000E+00 0.  1.
         13   -1    0    0    0    0 -0.00000000000E+00 -0.00000000000E+00 -0.27500000000E+03  0.27500000000E+03  0.00000000000E+00 0.  1.
    9000005    2    1    2  501    0 -0.21444144528E+02  0.24113343569E+02 -0.60572999197E+02  0.47258196208E+03  0.46757172496E+03 0.  0.
         13    1    3    3    0    0  0.30845191507E+02  0.17166503211E+03 -0.19829108967E+03  0.26408268655E+03  0.00000000000E+00 0.  1.
          3    1    3    3  501    0 -0.52289336035E+02 -0.14755168855E+03  0.13771809048E+03  0.20849927554E+03  0.00000000000E+00 0.  1.
         21    1    1    2  502  501  0.21444144528E+02 -0.24113343569E+02  0.22485829682E+02  0.39330868400E+02  0.00000000000E+00 0. -1.
<scales pt_clust_4="550.00000" pt_clust_5="550.00000" pt_clust_6="32.26925"></scales>
<mgrwt>
<rscale>  0 0.30000000E+03</rscale>
<asrwt>  1 0.32269253E+02</asrwt>
<pdfrwt beam="1">  1        1 0.86150120E+00 0.30000000E+03</pdfrwt>
<pdfrwt beam="2">0</pdfrwt>
<totfact> 0.31649464E-04</totfact>
</mgrwt>
<clustering>
<clus scale="   32.269">  1  6  2 -1</clus>
<clus scale="  467.572">  4  5 -1 -1</clus>
<clus scale="  300.000">  1  4  2 -1</clus>
</clustering>
</event>
<event>
 6    1  0.1007353E-011  0.3000000E+03  0.7818608E-02  0.1093470E+00
          1   -1    0    0  502    0  0.00000000000E+00  0.00000000000E+00  0.22803117293E+03  0.22803117293E+03  0.00000000000E+00 0.  1.
         13   -1    0    0    0    0 -0.00000000000E+00 -0.00000000000E+00 -0.27500000000E+03  0.27500000000E+03  0.00000000000E+00 0.  1.
    9000005    2    1    2  501    0  0.24531745471E+02 -0.24930821033E+02 -0.32822335066E+02  0.46530219720E+03  0.46282337524E+03 0.  0.
         13    1    3    3    0    0  0.18646012214E+03 -0.14498048928E+03 -0.94660051888E+02  0.25445479921E+03  0.00000000000E+00 0.  1.
          1    1    3    3  501    0 -0.16192837667E+03  0.12004966825E+03  0.61837716823E+02  0.21084739799E+03  0.00000000000E+00 0.  1.
         21    1    1    2  502  501 -0.24531745471E+02  0.24930821033E+02 -0.14146492006E+02  0.37728975726E+02  0.00000000000E+00 0. -1.
<scales pt_clust_4="550.00000" pt_clust_5="550.00000" pt_clust_6="34.97647"></scales>
<mgrwt>
<rscale>  0 0.30000000E+03</rscale>
<asrwt>  1 0.34976472E+02</asrwt>
<pdfrwt beam="1">  1        1 0.82920427E+00 0.30000000E+03</pdfrwt>
<pdfrwt beam="2">0</pdfrwt>
<totfact> 0.60020576E-04</totfact>
</mgrwt>
<clustering>
<clus scale="   34.976">  1  6  2 -1</clus>
<clus scale="  462.823">  4  5 -1 -1</clus>
<clus scale="  300.000">  1  4  2 -1</clus>
</clustering>
</event>
<event>
 6    1  0.1007353E-011  0.3000000E+03  0.7818608E-02  0.1093470E+00
          1   -1    0    0  502    0  0.00000000000E+00  0.00000000000E+00  0.25660064510E+03  0.25660064510E+03  0.00000000000E+00 0.  1.
         13   -1    0    0    0    0 -0.00000000000E+00 -0.00000000000E+00 -0.27500000000E+03  0.27500000000E+03  0.00000000000E+00 0.  1.
    9000005    2    1    2  501    0  0.43894386491E+02 -0.13997296204E+02 -0.18528035542E+02  0.48552833210E+03  0.48298222711E+03 0.  0.
         13    1    3    3    0    0 -0.17491059633E+03  0.11748595171E+03  0.58882105752E+02  0.21877789636E+03  0.00000000000E+00 0.  1.
          1    1    3    3  501    0  0.21880498283E+03 -0.13148324792E+03 -0.77410141294E+02  0.26675043574E+03  0.00000000000E+00 0.  1.
         21    1    1    2  502  501 -0.43894386491E+02  0.13997296204E+02  0.12868064553E+00  0.46072313000E+02  0.00000000000E+00 0.  1.
<scales pt_clust_4="550.00000" pt_clust_5="550.00000" pt_clust_6="46.07213"></scales>
<mgrwt>
<rscale>  0 0.30000000E+03</rscale>
<asrwt>  1 0.46072133E+02</asrwt>
<pdfrwt beam="1">  1        1 0.93309325E+00 0.30000000E+03</pdfrwt>
<pdfrwt beam="2">0</pdfrwt>
<totfact> 0.22614875E-05</totfact>
</mgrwt>
<clustering>
<clus scale="   46.072">  1  6  2 -1</clus>
<clus scale="  482.982">  4  5 -1 -1</clus>
<clus scale="  300.000">  1  4  2 -1</clus>
</clustering>
</event>
<event>
 6    1  0.1007353E-011  0.3000000E+03  0.7818608E-02  0.1093470E+00
          1   -1    0    0  502    0  0.00000000000E+00  0.00000000000E+00  0.22860655544E+03  0.22860655544E+03  0.00000000000E+00 0.  1.
         13   -1    0    0    0    0 -0.00000000000E+00 -0.00000000000E+00 -0.27500000000E+03  0.27500000000E+03  0.00000000000E+00 0.  1.
    9000005    2    1    2  501    0  0.35470835714E+02  0.11769927361E+02 -0.41635182483E+02  0.46593226136E+03  0.46256099314E+03 0.  0.
         13    1    3    3    0    0 -0.59267546621E+01 -0.21817190825E+03  0.32843440884E+02  0.22070976322E+03  0.00000000000E+00 0.  1.
          1    1    3    3  501    0  0.41397590377E+02  0.22994183561E+03 -0.74478623367E+02  0.24522249814E+03  0.00000000000E+00 0.  1.
         21    1    1    2  502  501 -0.35470835714E+02 -0.11769927361E+02 -0.47582620802E+01  0.37674294080E+02  0.00000000000E+00 0.  1.
<scales pt_clust_4="550.00000" pt_clust_5="550.00000" pt_clust_6="37.37262"></scales>
<mgrwt>
<rscale>  0 0.30000000E+03</rscale>
<asrwt>  1 0.37372621E+02</asrwt>
<pdfrwt beam="1">  1        1 0.83129657E+00 0.30000000E+03</pdfrwt>
<pdfrwt beam="2">0</pdfrwt>
<totfact> 0.56994915E-04</totfact>
</mgrwt>
<clustering>
<clus scale="   37.373">  1  6  2 -1</clus>
<clus scale="  462.561">  4  5 -1 -1</clus>
<clus scale="  300.000">  1  4  2 -1</clus>
</clustering>
</event>
<event>
 6    1  0.1007353E-011  0.3000000E+03  0.7818608E-02  0.1093470E+00
          1   -1    0    0  502    0  0.00000000000E+00  0.00000000000E+00  0.25936547440E+03  0.25936547440E+03  0.00000000000E+00 0.  1.
         13   -1    0    0    0    0 -0.00000000000E+00 -0.00000000000E+00 -0.27500000000E+03  0.27500000000E+03  0.00000000000E+00 0.  1.
    9000005    2    1    2  501    0  0.19952328385E+02  0.35559923178E+02 -0.30249734333E+02  0.49105025917E+03  0.48841857771E+03 0.  0.
         13    1    3    3    0    0  0.83698249053E+02 -0.21101230496E+03  0.30991694922E+02  0.22911149009E+03  0.00000000000E+00 0.  1.
          1    1    3    3  501    0 -0.63745920668E+02  0.24657222813E+03 -0.61241429254E+02  0.26193876908E+03  0.00000000000E+00 0.  1.
         21    1    1    2  502  501 -0.19952328385E+02 -0.35559923178E+02  0.14615208734E+02  0.43315215234E+02  0.00000000000E+00 0.  1.
<scales pt_clust_4="550.00000" pt_clust_5="550.00000" pt_clust_6="40.77504"></scales>
<mgrwt>
<rscale>  0 0.30000000E+03</rscale>
<asrwt>  1 0.40775036E+02</asrwt>
<pdfrwt beam="1">  1        1 0.94314718E+00 0.30000000E+03</pdfrwt>
<pdfrwt beam="2">0</pdfrwt>
<totfact> 0.16385069E-05</totfact>
</mgrwt>
<clustering>
<clus scale="   40.775">  1  6  2 -1</clus>
<clus scale="  488.419">  4  5 -1 -1</clus>
<clus scale="  300.000">  1  4  2 -1</clus>
</clustering>
</event>
<event>
 6    1  0.1007353E-011  0.3000000E+03  0.7818608E-02  0.1093470E+00
          1   -1    0    0  502    0  0.00000000000E+00  0.00000000000E+00  0.24996821980E+03  0.24996821980E+03  0.00000000000E+00 0.  1.
         13   -1    0    0    0    0 -0.00000000000E+00 -0.00000000000E+00 -0.27500000000E+03  0.27500000000E+03  0.00000000000E+00 0.  1.
    9000005    2    1    2  501    0 -0.72612592433E+01  0.53494215355E+02 -0.17473732161E+02  0.47045692691E+03  0.46702251745E+03 0.  0.
         13    1    3    3    0    0  0.12705247104E+03 -0.16824671377E+03 -0.11413069993E+02  0.21113868726E+03  0.00000000000E+00 0.  1.
          3    1    3    3  501    0 -0.13431373029E+03  0.22174092912E+03 -0.60606621687E+01  0.25931823965E+03  0.00000000000E+00 0.  1.
         21    1    1    2  502  501  0.72612592433E+01 -0.53494215355E+02 -0.75580480390E+01  0.54511292888E+02  0.00000000000E+00 0. -1.
<scales pt_clust_4="550.00000" pt_clust_5="550.00000" pt_clust_6="53.98481"></scales>
<mgrwt>
<rscale>  0 0.30000000E+03</rscale>
<asrwt>  1 0.53984812E+02</asrwt>
<pdfrwt beam="1">  1        1 0.90897534E+00 0.30000000E+03</pdfrwt>
<pdfrwt beam="2">0</pdfrwt>
<totfact> 0.70332214E-05</totfact>
</mgrwt>
<clustering>
<clus scale="   53.985">  1  6  2 -1</clus>
<clus scale="  467.023">  4  5 -1 -1</clus>
<clus scale="  300.000">  1  4  2 -1</clus>
</clustering>
</event>
<event>
 6    1  0.1007353E-011  0.3000000E+03  0.7818608E-02  0.1093470E+00
          1   -1    0    0  502    0  0.00000000000E+00  0.00000000000E+00  0.25079362700E+03  0.25079362700E+03  0.00000000000E+00 0.  1.
         13   -1    0    0    0    0 -0.00000000000E+00 -0.00000000000E+00 -0.27500000000E+03  0.27500000000E+03  0.00000000000E+00 0.  1.
    9000005    2    1    2  501    0  0.28663558034E+02 -0.21987981146E+02 -0.24222585903E+02  0.48966785868E+03  0.48773231109E+03 0.  0.
         13    1    3    3    0    0 -0.18759822316E+02 -0.25132538891E+03 -0.38946796707E+02  0.25501614659E+03  0.00000000000E+00 0.  1.
          1    1    3    3  501    0  0.47423380350E+02  0.22933740777E+03  0.14724210803E+02  0.23465171209E+03  0.00000000000E+00 0.  1.
         21    1    1    2  502  501 -0.28663558034E+02  0.21987981146E+02  0.16212906836E-01  0.36125768323E+02  0.00000000000E+00 0. -1.
<scales pt_clust_4="550.00000" pt_clust_5="550.00000" pt_clust_6="36.12576"></scales>
<mgrwt>
<rscale>  0 0.30000000E+03</rscale>
<asrwt>  1 0.36125765E+02</asrwt>
<pdfrwt beam="1">  1        1 0.91197683E+00 0.30000000E+03</pdfrwt>
<pdfrwt beam="2">0</pdfrwt>
<totfact> 0.63816213E-05</totfact>
</mgrwt>
<clustering>
<clus scale="   36.126">  1  6  2 -1</clus>
<clus scale="  487.732">  4  5 -1 -1</clus>
<clus scale="  300.000">  1  4  2 -1</clus>
</clustering>
</event>
<event>
 6    1  0.1007353E-011  0.3000000E+03  0.7818608E-02  0.1093470E+00
          1   -1    0    0  502    0  0.00000000000E+00  0.00000000000E+00  0.23933589151E+03  0.23933589151E+03  0.00000000000E+00 0.  1.
         13   -1    0    0    0    0 -0.00000000000E+00 -0.00000000000E+00 -0.27500000000E+03  0.27500000000E+03  0.00000000000E+00 0.  1.
    9000005    2    1    2  501    0 -0.41188948068E+02  0.18095298372E+01 -0.42811546359E+02  0.47249225748E+03  0.46873905431E+03 0.  0.
         13    1    3    3    0    0  0.99089936462E+02 -0.12213443828E+03 -0.18102636513E+03  0.23980446492E+03  0.00000000000E+00 0.  1.
          1    1    3    3  501    0 -0.14027888453E+03  0.12394396812E+03  0.13821481877E+03  0.23268779256E+03  0.00000000000E+00 0.  1.
         21    1    1    2  502  501  0.41188948068E+02 -0.18095298372E+01  0.71474378740E+01  0.41843634036E+02  0.00000000000E+00 0.  1.
<scales pt_clust_4="550.00000" pt_clust_5="550.00000" pt_clust_6="41.22868"></scales>
<mgrwt>
<rscale>  0 0.30000000E+03</rscale>
<asrwt>  1 0.41228677E+02</asrwt>
<pdfrwt beam="1">  1        1 0.87031233E+00 0.30000000E+03</pdfrwt>
<pdfrwt beam="2">0</pdfrwt>
<totfact> 0.24392374E-04</totfact>
</mgrwt>
<clustering>
<clus scale="   41.229">  1  6  2 -1</clus>
<clus scale="  468.739">  4  5 -1 -1</clus>
<clus scale="  300.000">  1  4  2 -1</clus>
</clustering>
</event>
<event>
 6    1  0.1007353E-011  0.3000000E+03  0.7818608E-02  0.1093470E+00
          1   -1    0    0  502    0  0.00000000000E+00  0.00000000000E+00  0.24513970697E+03  0.24513970697E+03  0.00000000000E+00 0.  1.
         13   -1    0    0    0    0 -0.00000000000E+00 -0.00000000000E+00 -0.27500000000E+03  0.27500000000E+03  0.00000000000E+00 0.  1.
    9000005    2    1    2  501    0 -0.24300241887E+01 -0.38329586246E+02 -0.59307625123E+02  0.47174334795E+03  0.46642183668E+03 0.  0.
         13    1    3    3    0    0  0.15762706044E+03 -0.52260211316E+01 -0.20096010560E+03  0.25545756110E+03  0.00000000000E+00 0.  1.
          3    1    3    3  501    0 -0.16005708463E+03 -0.33103565114E+02  0.14165248048E+03  0.21628578684E+03  0.00000000000E+00 0.  1.
         21    1    1    2  502  501  0.24300241887E+01  0.38329586246E+02  0.29447332097E+02  0.48396359026E+02  0.00000000000E+00 0.  1.
<scales pt_clust_4="550.00000" pt_clust_5="550.00000" pt_clust_6="38.40654"></scales>
<mgrwt>
<rscale>  0 0.30000000E+03</rscale>
<asrwt>  1 0.38406538E+02</asrwt>
<pdfrwt beam="1">  1        1 0.89141712E+00 0.30000000E+03</pdfrwt>
<pdfrwt beam="2">0</pdfrwt>
<totfact> 0.13657439E-04</totfact>
</mgrwt>
<clustering>
<clus scale="   38.407">  1  6  2 -1</clus>
<clus scale="  466.422">  4  5 -1 -1</clus>
<clus scale="  300.000">  1  4  2 -1</clus>
</clustering>
</event>
<event>
 6    1  0.1007353E-011  0.3000000E+03  0.7818608E-02  0.1093470E+00
          1   -1    0    0  502    0  0.00000000000E+00  0.00000000000E+00  0.24875789748E+03  0.24875789748E+03  0.00000000000E+00 0.  1.
         13   -1    0    0    0    0 -0.00000000000E+00 -0.00000000000E+00 -0.27500000000E+03  0.27500000000E+03  0.00000000000E+00 0.  1.
    9000005    2    1    2  501    0 -0.36111756762E+02  0.88705356274E+01 -0.71527946322E+02  0.46516137004E+03  0.45812237197E+03 0.  0.
         13    1    3    3    0    0 -0.97296470725E+02  0.21411571506E+03 -0.86209330447E+02  0.25048790651E+03  0.00000000000E+00 0.  1.
          1    1    3    3  501    0  0.61184713963E+02 -0.20524517944E+03  0.14681384126E+02  0.21467346353E+03  0.00000000000E+00 0.  1.
         21    1    1    2  502  501  0.36111756762E+02 -0.88705356274E+01  0.45285843797E+02  0.58596527432E+02  0.00000000000E+00 0. -1.
<scales pt_clust_4="550.00000" pt_clust_5="550.00000" pt_clust_6="37.18528"></scales>
<mgrwt>
<rscale>  0 0.30000000E+03</rscale>
<asrwt>  1 0.37185284E+02</asrwt>
<pdfrwt beam="1">  1        1 0.90457417E+00 0.30000000E+03</pdfrwt>
<pdfrwt beam="2">0</pdfrwt>
<totfact> 0.93112319E-05</totfact>
</mgrwt>
<clustering>
<clus scale="   37.185">  1  6  2 -1</clus>
<clus scale="  458.122">  4  5 -1 -1</clus>
<clus scale="  300.000">  1  4  2 -1</clus>
</clustering>
</event>
<event>
 6    1  0.1007353E-011  0.3000000E+03  0.7818608E-02  0.1093470E+00
          1   -1    0    0  502    0  0.00000000000E+00  0.00000000000E+00  0.22085766942E+03  0.22085766942E+03  0.00000000000E+00 0.  1.
         13   -1    0    0    0    0 -0.00000000000E+00 -0.00000000000E+00 -0.27500000000E+03  0.27500000000E+03  0.00000000000E+00 0.  1.
    9000005    2    1    2  501    0  0.24744214716E+02  0.21871502737E+02 -0.60867322124E+02  0.46215508339E+03  0.45693746991E+03 0.  0.
         13    1    3    3    0    0  0.68802785027E+02 -0.81467850317E+02 -0.23320932424E+03  0.25643210169E+03  0.00000000000E+00 0.  1.
          3    1    3    3  501    0 -0.44058570311E+02  0.10333935305E+03  0.17234200212E+03  0.20572298170E+03  0.00000000000E+00 0.  1.
         21    1    1    2  502  501 -0.24744214716E+02 -0.21871502737E+02  0.67249915445E+01  0.33702586031E+02  0.00000000000E+00 0.  1.
<scales pt_clust_4="550.00000" pt_clust_5="550.00000" pt_clust_6="33.02482"></scales>
<mgrwt>
<rscale>  0 0.30000000E+03</rscale>
<asrwt>  1 0.33024821E+02</asrwt>
<pdfrwt beam="1">  1        1 0.80311880E+00 0.30000000E+03</pdfrwt>
<pdfrwt beam="2">0</pdfrwt>
<totfact> 0.99503600E-04</totfact>
</mgrwt>
<clustering>
<clus scale="   33.025">  1  6  2 -1</clus>
<clus scale="  456.937">  4  5 -1 -1</clus>
<clus scale="  300.000">  1  4  2 -1</clus>
</clustering>
</event>
<event>
 6    1  0.1007353E-011  0.3000000E+03  0.7818608E-02  0.1093470E+00
          1   -1    0    0  502    0  0.00000000000E+00  0.00000000000E+00  0.23006838851E+03  0.23006838851E+03  0.00000000000E+00 0.  1.
         13   -1    0    0    0    0 -0.00000000000E+00 -0.00000000000E+00 -0.27500000000E+03  0.27500000000E+03  0.00000000000E+00 0.  1.
    9000005    2    1    2  501    0 -0.21126035491E+02 -0.28865941395E+02 -0.53117028244E+02  0.46837298014E+03  0.46397443667E+03 0.  0.
         13    1    3    3    0    0 -0.10609090756E+03 -0.21365905900E+03  0.44672524256E+02  0.24269550590E+03  0.00000000000E+00 0.  1.
          1    1    3    3  501    0  0.84964872065E+02  0.18479311761E+03 -0.97789552500E+02  0.22567747424E+03  0.00000000000E+00 0.  1.
         21    1    1    2  502  501  0.21126035491E+02  0.28865941395E+02  0.81854167516E+01  0.36695408372E+02  0.00000000000E+00 0.  1.
<scales pt_clust_4="550.00000" pt_clust_5="550.00000" pt_clust_6="35.77083"></scales>
<mgrwt>
<rscale>  0 0.30000000E+03</rscale>
<asrwt>  1 0.35770825E+02</asrwt>
<pdfrwt beam="1">  1        1 0.83661232E+00 0.30000000E+03</pdfrwt>
<pdfrwt beam="2">0</pdfrwt>
<totfact> 0.52445532E-04</totfact>
</mgrwt>
<clustering>
<clus scale="   35.771">  1  6  2 -1</clus>
<clus scale="  463.974">  4  5 -1 -1</clus>
<clus scale="  300.000">  1  4  2 -1</clus>
</clustering>
</event>
<event>
 6    1  0.1007353E-011  0.3000000E+03  0.7818608E-02  0.1093470E+00
          1   -1    0    0  502    0  0.00000000000E+00  0.00000000000E+00  0.22633378961E+03  0.22633378961E+03  0.00000000000E+00 0.  1.
         13   -1    0    0    0    0 -0.00000000000E+00 -0.00000000000E+00 -0.27500000000E+03  0.27500000000E+03  0.00000000000E+00 0.  1.
    9000005    2    1    2  501    0  0.34721921907E+02 -0.10176326103E+02 -0.63800968195E+02  0.46211350955E+03  0.45625558922E+03 0.  0.
         13    1    3    3    0    0 -0.14559103913E+03  0.86405962258E+01 -0.19124231909E+03  0.24050994821E+03  0.00000000000E+00 0.  1.
          1    1    3    3  501    0  0.18031296103E+03 -0.18816922329E+02  0.12744135089E+03  0.22160356134E+03  0.00000000000E+00 0.  1.
         21    1    1    2  502  501 -0.34721921907E+02  0.10176326103E+02  0.15134757802E+02  0.39220280055E+02  0.00000000000E+00 0.  1.
<scales pt_clust_4="550.00000" pt_clust_5="550.00000" pt_clust_6="36.18245"></scales>
<mgrwt>
<rscale>  0 0.30000000E+03</rscale>
<asrwt>  1 0.36182447E+02</asrwt>
<pdfrwt beam="1">  1        1 0.82303196E+00 0.30000000E+03</pdfrwt>
<pdfrwt beam="2">0</pdfrwt>
<totfact> 0.67594967E-04</totfact>
</mgrwt>
<clustering>
<clus scale="   36.182">  1  6  2 -1</clus>
<clus scale="  456.256">  4  5 -1 -1</clus>
<clus scale="  300.000">  1  4  2 -1</clus>
</clustering>
</event>
<event>
 6    1  0.1007353E-011  0.3000000E+03  0.7818608E-02  0.1093470E+00
          1   -1    0    0  502    0  0.00000000000E+00  0.00000000000E+00  0.25145686314E+03  0.25145686314E+03  0.00000000000E+00 0.  1.
         13   -1    0    0    0    0 -0.00000000000E+00 -0.00000000000E+00 -0.27500000000E+03  0.27500000000E+03  0.00000000000E+00 0.  1.
    9000005    2    1    2  501    0  0.33498774179E+02 -0.57073989011E+00 -0.51735309967E+02  0.48266996738E+03  0.47871835300E+03 0.  0.
         13    1    3    3    0    0 -0.41361039037E+02 -0.71591497455E+02  0.19685518074E+03  0.21351355986E+03  0.00000000000E+00 0.  1.
          3    1    3    3  501    0  0.74859813216E+02  0.71020757565E+02 -0.24859049071E+03  0.26915640753E+03  0.00000000000E+00 0.  1.
         21    1    1    2  502  501 -0.33498774179E+02  0.57073989011E+00  0.28192173110E+02  0.43786895759E+02  0.00000000000E+00 0.  1.
<scales pt_clust_4="550.00000" pt_clust_5="550.00000" pt_clust_6="33.50364"></scales>
<mgrwt>
<rscale>  0 0.30000000E+03</rscale>
<asrwt>  1 0.33503636E+02</asrwt>
<pdfrwt beam="1">  1        1 0.91438859E+00 0.30000000E+03</pdfrwt>
<pdfrwt beam="2">0</pdfrwt>
<totfact> 0.56429441E-05</totfact>
</mgrwt>
<clustering>
<clus scale="   33.504">  1  6  2 -1</clus>
<clus scale="  478.718">  4  5 -1 -1</clus>
<clus scale="  300.000">  1  4  2 -1</clus>
</clustering>
</event>
<event>
 6    1  0.1007353E-011  0.3000000E+03  0.7818608E-02  0.1093470E+00
          1   -1    0    0  502    0  0.00000000000E+00  0.00000000000E+00  0.22705704911E+03  0.22705704911E+03  0.00000000000E+00 0.  1.
         13   -1    0    0    0    0 -0.00000000000E+00 -0.00000000000E+00 -0.27500000000E+03  0.27500000000E+03  0.00000000000E+00 0.  1.
    9000005    2    1    2  501    0  0.29426621474E+02  0.59790868828E+01 -0.52542095745E+02  0.47167897042E+03  0.46778061501E+03 0.  0.
         13    1    3    3    0    0 -0.21460507330E+03  0.48906744550E+02 -0.38956991910E+02  0.22352819591E+03  0.00000000000E+00 0.  1.
          3    1    3    3  501    0  0.24403169477E+03 -0.42927657667E+02 -0.13585103836E+02  0.24815077451E+03  0.00000000000E+00 0.  1.
         21    1    1    2  502  501 -0.29426621474E+02 -0.59790868828E+01  0.45991448543E+01  0.30378078687E+02  0.00000000000E+00 0.  1.
<scales pt_clust_4="550.00000" pt_clust_5="550.00000" pt_clust_6="30.02791"></scales>
<mgrwt>
<rscale>  0 0.30000000E+03</rscale>
<asrwt>  1 0.30027913E+02</asrwt>
<pdfrwt beam="1">  1        1 0.82566200E+00 0.30000000E+03</pdfrwt>
<pdfrwt beam="2">0</pdfrwt>
<totfact> 0.66336775E-04</totfact>
</mgrwt>
<clustering>
<clus scale="   30.028">  1  6  2 -1</clus>
<clus scale="  467.781">  4  5 -1 -1</clus>
<clus scale="  300.000">  1  4  2 -1</clus>
</clustering>
</event>
<event>
 6    1  0.1007353E-011  0.3000000E+03  0.7818608E-02  0.1093470E+00
          1   -1    0    0  502    0  0.00000000000E+00  0.00000000000E+00  0.22860362732E+03  0.22860362732E+03  0.00000000000E+00 0.  1.
         13   -1    0    0    0    0 -0.00000000000E+00 -0.00000000000E+00 -0.27500000000E+03  0.27500000000E+03  0.00000000000E+00 0.  1.
    9000005    2    1    2  501    0  0.36837761036E+02 -0.15613990118E+01 -0.57561174184E+02  0.46507946091E+03  0.46002843127E+03 0.  0.
         13    1    3    3    0    0 -0.30463075751E+02  0.19071461489E+03 -0.14688521018E+03  0.24264238765E+03  0.00000000000E+00 0.  1.
          3    1    3    3  501    0  0.67300836787E+02 -0.19227601390E+03  0.89324035996E+02  0.22243707326E+03  0.00000000000E+00 0.  1.
         21    1    1    2  502  501 -0.36837761036E+02  0.15613990118E+01  0.11164801502E+02  0.38524166410E+02  0.00000000000E+00 0.  1.
<scales pt_clust_4="550.00000" pt_clust_5="550.00000" pt_clust_6="36.87084"></scales>
<mgrwt>
<rscale>  0 0.30000000E+03</rscale>
<asrwt>  1 0.36870837E+02</asrwt>
<pdfrwt beam="1">  1        1 0.83128592E+00 0.30000000E+03</pdfrwt>
<pdfrwt beam="2">0</pdfrwt>
<totfact> 0.57148747E-04</totfact>
</mgrwt>
<clustering>
<clus scale="   36.871">  1  6  2 -1</clus>
<clus scale="  460.028">  4  5 -1 -1</clus>
<clus scale="  300.000">  1  4  2 -1</clus>
</clustering>
</event>
<event>
 6    1  0.1007353E-011  0.3000000E+03  0.7818608E-02  0.1093470E+00
          1   -1    0    0  502    0  0.00000000000E+00  0.00000000000E+00  0.23962667096E+03  0.23962667096E+03  0.00000000000E+00 0.  1.
         13   -1    0    0    0    0 -0.00000000000E+00 -0.00000000000E+00 -0.27500000000E+03  0.27500000000E+03  0.00000000000E+00 0.  1.
    9000005    2    1    2  501    0  0.18207307533E+02 -0.26966167750E+02 -0.56003479951E+02  0.47610027251E+03  0.47167403943E+03 0.  0.
         13    1    3    3    0    0 -0.14503113558E+03 -0.26897188419E+02  0.15192403236E+03  0.21175079844E+03  0.00000000000E+00 0.  1.
          1    1    3    3  501    0  0.16323844311E+03 -0.68979331097E-01 -0.20792751231E+03  0.26434947407E+03  0.00000000000E+00 0.  1.
         21    1    1    2  502  501 -0.18207307533E+02  0.26966167750E+02  0.20630150908E+02  0.38526398446E+02  0.00000000000E+00 0. -1.
<scales pt_clust_4="550.00000" pt_clust_5="550.00000" pt_clust_6="32.53737"></scales>
<mgrwt>
<rscale>  0 0.30000000E+03</rscale>
<asrwt>  1 0.32537367E+02</asrwt>
<pdfrwt beam="1">  1        1 0.87136971E+00 0.30000000E+03</pdfrwt>
<pdfrwt beam="2">0</pdfrwt>
<totfact> 0.24861785E-04</totfact>
</mgrwt>
<clustering>
<clus scale="   32.537">  1  6  2 -1</clus>
<clus scale="  471.674">  4  5 -1 -1</clus>
<clus scale="  300.000">  1  4  2 -1</clus>
</clustering>
</event>
<event>
 6    1  0.1007353E-011  0.3000000E+03  0.7818608E-02  0.1093470E+00
          1   -1    0    0  502    0  0.00000000000E+00  0.00000000000E+00  0.24187635603E+03  0.24187635603E+03  0.00000000000E+00 0.  1.
         13   -1    0    0    0    0 -0.00000000000E+00 -0.00000000000E+00 -0.27500000000E+03  0.27500000000E+03  0.00000000000E+00 0.  1.
    9000005    2    1    2  501    0 -0.19520125588E+01 -0.34604499468E+02 -0.67685709543E+02  0.46792926099E+03  0.46170895191E+03 0.  0.
         13    1    3    3    0    0  0.81785406760E+02  0.16826319375E+03 -0.14344665531E+03  0.23575049958E+03  0.00000000000E+00 0.  1.
          1    1    3    3  501    0 -0.83737419318E+02 -0.20286769322E+03  0.75760945768E+02  0.23217876141E+03  0.00000000000E+00 0.  1.
         21    1    1    2  502  501  0.19520125588E+01  0.34604499468E+02  0.34562065572E+02  0.48947095042E+02  0.00000000000E+00 0.  1.
<scales pt_clust_4="550.00000" pt_clust_5="550.00000" pt_clust_6="34.65951"></scales>
<mgrwt>
<rscale>  0 0.30000000E+03</rscale>
<asrwt>  1 0.34659511E+02</asrwt>
<pdfrwt beam="1">  1        1 0.87955039E+00 0.30000000E+03</pdfrwt>
<pdfrwt beam="2">0</pdfrwt>
<totfact> 0.20025893E-04</totfact>
</mgrwt>
<clustering>
<clus scale="   34.660">  1  6  2 -1</clus>
<clus scale="  461.709">  4  5 -1 -1</clus>
<clus scale="  300.000">  1  4  2 -1</clus>
</clustering>
</event>
<event>
 6    1  0.1007353E-011  0.3000000E+03  0.7818608E-02  0.1093470E+00
          1   -1    0    0  502    0  0.00000000000E+00  0.00000000000E+00  0.23410872738E+03  0.23410872738E+03  0.00000000000E+00 0.  1.
         13   -1    0    0    0    0 -0.00000000000E+00 -0.00000000000E+00 -0.27500000000E+03  0.27500000000E+03  0.00000000000E+00 0.  1.
    9000005    2    1    2  501    0 -0.31198014711E+02 -0.14594702152E+02 -0.64909699892E+02  0.46711817723E+03  0.46130228800E+03 0.  0.
         13    1    3    3    0    0  0.13563653314E+02 -0.22862294053E+03 -0.91949633371E+02  0.24679375337E+03  0.00000000000E+00 0.  1.
          1    1    3    3  501    0 -0.44761668025E+02  0.21402823838E+03  0.27039933480E+02  0.22032442386E+03  0.00000000000E+00 0.  1.
         21    1    1    2  502  501  0.31198014711E+02  0.14594702152E+02  0.24018427268E+02  0.41990550142E+02  0.00000000000E+00 0. -1.
<scales pt_clust_4="550.00000" pt_clust_5="550.00000" pt_clust_6="34.44302"></scales>
<mgrwt>
<rscale>  0 0.30000000E+03</rscale>
<asrwt>  1 0.34443017E+02</asrwt>
<pdfrwt beam="1">  1        1 0.85130446E+00 0.30000000E+03</pdfrwt>
<pdfrwt beam="2">0</pdfrwt>
<totfact> 0.39678853E-04</totfact>
</mgrwt>
<clustering>
<clus scale="   34.443">  1  6  2 -1</clus>
<clus scale="  461.302">  4  5 -1 -1</clus>
<clus scale="  300.000">  1  4  2 -1</clus>
</clustering>
</event>
<event>
 6    1  0.1007353E-011  0.3000000E+03  0.7818608E-02  0.1093470E+00
          1   -1    0    0  502    0  0.00000000000E+00  0.00000000000E+00  0.23557997126E+03  0.23557997126E+03  0.00000000000E+00 0.  1.
         13   -1    0    0    0    0 -0.00000000000E+00 -0.00000000000E+00 -0.27500000000E+03  0.27500000000E+03  0.00000000000E+00 0.  1.
    9000005    2    1    2  501    0  0.45733910438E+02 -0.82707107920E+01 -0.54447219362E+02  0.46173520000E+03  0.45615227721E+03 0.  0.
         13    1    3    3    0    0  0.14376267956E+03  0.18020517970E+03 -0.87818310102E+02  0.24668536725E+03  0.00000000000E+00 0.  1.
          1    1    3    3  501    0 -0.98028769121E+02 -0.18847589049E+03  0.33371090740E+02  0.21504983276E+03  0.00000000000E+00 0.  1.
         21    1    1    2  502  501 -0.45733910438E+02  0.82707107920E+01  0.15027190621E+02  0.48844771255E+02  0.00000000000E+00 0.  1.
<scales pt_clust_4="550.00000" pt_clust_5="550.00000" pt_clust_6="46.47575"></scales>
<mgrwt>
<rscale>  0 0.30000000E+03</rscale>
<asrwt>  1 0.46475749E+02</asrwt>
<pdfrwt beam="1">  1        1 0.85665444E+00 0.30000000E+03</pdfrwt>
<pdfrwt beam="2">0</pdfrwt>
<totfact> 0.33296022E-04</totfact>
</mgrwt>
<clustering>
<clus scale="   46.476">  1  6  2 -1</clus>
<clus scale="  456.152">  4  5 -1 -1</clus>
<clus scale="  300.000">  1  4  2 -1</clus>
</clustering>
</event>
<event>
 6    1  0.1007353E-011  0.3000000E+03  0.7818608E-02  0.1093470E+00
          1   -1    0    0  502    0  0.00000000000E+00  0.00000000000E+00  0.23958648493E+03  0.23958648493E+03  0.00000000000E+00 0.  1.
         13   -1    0    0    0    0 -0.00000000000E+00 -0.00000000000E+00 -0.27500000000E+03  0.27500000000E+03  0.00000000000E+00 0.  1.
    9000005    2    1    2  501    0 -0.28536243731E+02 -0.36558005029E+02 -0.48925484490E+02  0.46628143079E+03  0.46138255789E+03 0.  0.
         13    1    3    3    0    0 -0.77969415410E+02 -0.24041510055E+03 -0.10032611663E+02  0.25294130467E+03  0.00000000000E+00 0.  1.
          1    1    3    3  501    0  0.49433171678E+02  0.20385709552E+03 -0.38892872827E+02  0.21334012612E+03  0.00000000000E+00 0.  1.
         21    1    1    2  502  501  0.28536243731E+02  0.36558005029E+02  0.13511969421E+02  0.48305054141E+02  0.00000000000E+00 0.  1.
<scales pt_clust_4="550.00000" pt_clust_5="550.00000" pt_clust_6="46.37677"></scales>
<mgrwt>
<rscale>  0 0.30000000E+03</rscale>
<asrwt>  1 0.46376772E+02</asrwt>
<pdfrwt beam="1">  1        1 0.87122358E+00 0.30000000E+03</pdfrwt>
<pdfrwt beam="2">0</pdfrwt>
<totfact> 0.23376273E-04</totfact>
</mgrwt>
<clustering>
<clus scale="   46.377">  1  6  2 -1</clus>
<clus scale="  461.383">  4  5 -1 -1</clus>
<clus scale="  300.000">  1  4  2 -1</clus>
</clustering>
</event>
<event>
 6    1  0.1007353E-011  0.3000000E+03  0.7818608E-02  0.1093470E+00
          1   -1    0    0  502    0  0.00000000000E+00  0.00000000000E+00  0.24782206246E+03  0.24782206246E+03  0.00000000000E+00 0.  1.
         13   -1    0    0    0    0 -0.00000000000E+00 -0.00000000000E+00 -0.27500000000E+03  0.27500000000E+03  0.00000000000E+00 0.  1.
    9000005    2    1    2  501    0  0.22732049287E+02 -0.31442992397E+02 -0.17308244434E+02  0.48278684450E+03  0.48091387385E+03 0.  0.
         13    1    3    3    0    0 -0.92894738770E+02  0.18954285862E+03  0.63813580308E+02  0.22051780150E+03  0.00000000000E+00 0.  1.
          3    1    3    3  501    0  0.11562678806E+03 -0.22098585102E+03 -0.81121824742E+02  0.26226904300E+03  0.00000000000E+00 0.  1.
         21    1    1    2  502  501 -0.22732049287E+02  0.31442992397E+02 -0.98696931015E+01  0.40035217966E+02  0.00000000000E+00 0.  1.
<scales pt_clust_4="550.00000" pt_clust_5="550.00000" pt_clust_6="38.79960"></scales>
<mgrwt>
<rscale>  0 0.30000000E+03</rscale>
<asrwt>  1 0.38799605E+02</asrwt>
<pdfrwt beam="1">  1        1 0.90117114E+00 0.30000000E+03</pdfrwt>
<pdfrwt beam="2">0</pdfrwt>
<totfact> 0.10460522E-04</totfact>
</mgrwt>
<clustering>
<clus scale="   38.800">  1  6  2 -1</clus>
<clus scale="  480.914">  4  5 -1 -1</clus>
<clus scale="  300.000">  1  4  2 -1</clus>
</clustering>
</event>
<event>
 6    1  0.1007353E-011  0.3000000E+03  0.7818608E-02  0.1093470E+00
          1   -1    0    0  502    0  0.00000000000E+00  0.00000000000E+00  0.22620693551E+03  0.22620693551E+03  0.00000000000E+00 0.  1.
         13   -1    0    0    0    0 -0.00000000000E+00 -0.00000000000E+00 -0.27500000000E+03  0.27500000000E+03  0.00000000000E+00 0.  1.
    9000005    2    1    2  501    0 -0.28615459709E+02 -0.22742554955E+02 -0.54539683627E+02  0.46420569267E+03  0.45953920364E+03 0.  0.
         13    1    3    3    0    0 -0.10772876423E+03  0.10652639330E+03  0.14762923830E+03  0.21153664248E+03  0.00000000000E+00 0.  1.
          1    1    3    3  501    0  0.79113304521E+02 -0.12926894825E+03 -0.20216892192E+03  0.25266905019E+03  0.00000000000E+00 0.  1.
         21    1    1    2  502  501  0.28615459709E+02  0.22742554955E+02  0.57466191387E+01  0.37001242840E+02  0.00000000000E+00 0.  1.
<scales pt_clust_4="550.00000" pt_clust_5="550.00000" pt_clust_6="36.55227"></scales>
<mgrwt>
<rscale>  0 0.30000000E+03</rscale>
<asrwt>  1 0.36552269E+02</asrwt>
<pdfrwt beam="1">  1        1 0.82257067E+00 0.30000000E+03</pdfrwt>
<pdfrwt beam="2">0</pdfrwt>
<totfact> 0.68108500E-04</totfact>
</mgrwt>
<clustering>
<clus scale="   36.552">  1  6  2 -1</clus>
<clus scale="  459.539">  4  5 -1 -1</clus>
<clus scale="  300.000">  1  4  2 -1</clus>
</clustering>
</event>
<event>
 6    1  0.1007353E-011  0.3000000E+03  0.7818608E-02  0.1093470E+00
          1   -1    0    0  502    0  0.00000000000E+00  0.00000000000E+00  0.22960723371E+03  0.22960723371E+03  0.00000000000E+00 0.  1.
         13   -1    0    0    0    0 -0.00000000000E+00 -0.00000000000E+00 -0.27500000000E+03  0.27500000000E+03  0.00000000000E+00 0.  1.
    9000005    2    1    2  501    0  0.19111409001E+02  0.30271212017E+02 -0.49875503382E+02  0.46852833180E+03  0.46448857858E+03 0.  0.
         13    1    3    3    0    0 -0.55956908528E+02  0.14424961926E+03  0.15716992636E+03  0.22054821246E+03  0.00000000000E+00 0.  1.
          3    1    3    3  501    0  0.75068317529E+02 -0.11397840724E+03 -0.20704542974E+03  0.24798011934E+03  0.00000000000E+00 0.  1.
         21    1    1    2  502  501 -0.19111409001E+02 -0.30271212017E+02  0.44827370910E+01  0.36078901907E+02  0.00000000000E+00 0. -1.
<scales pt_clust_4="550.00000" pt_clust_5="550.00000" pt_clust_6="35.79933"></scales>
<mgrwt>
<rscale>  0 0.30000000E+03</rscale>
<asrwt>  1 0.35799333E+02</asrwt>
<pdfrwt beam="1">  1        1 0.83493540E+00 0.30000000E+03</pdfrwt>
<pdfrwt beam="2">0</pdfrwt>
<totfact> 0.53930057E-04</totfact>
</mgrwt>
<clustering>
<clus scale="   35.799">  1  6  2 -1</clus>
<clus scale="  464.489">  4  5 -1 -1</clus>
<clus scale="  300.000">  1  4  2 -1</clus>
</clustering>
</event>
<event>
 6    1  0.1007353E-011  0.3000000E+03  0.7818608E-02  0.1093470E+00
          1   -1    0    0  502    0  0.00000000000E+00  0.00000000000E+00  0.24422721670E+03  0.24422721670E+03  0.00000000000E+00 0.  1.
         13   -1    0    0    0    0 -0.00000000000E+00 -0.00000000000E+00 -0.27500000000E+03  0.27500000000E+03  0.00000000000E+00 0.  1.
    9000005    2    1    2  501    0  0.41021110239E+02  0.14225511997E+02 -0.66034052049E+02  0.46329463451E+03  0.45650446401E+03 0.  0.
         13    1    3    3    0    0 -0.10289819350E+03 -0.61992119223E+02  0.15036637569E+03  0.19246066614E+03  0.00000000000E+00 0.  1.
          1    1    3    3  501    0  0.14391930374E+03  0.76217631220E+02 -0.21640042774E+03  0.27083396837E+03  0.00000000000E+00 0.  1.
         21    1    1    2  502  501 -0.41021110239E+02 -0.14225511997E+02  0.35261268750E+02  0.55932582192E+02  0.00000000000E+00 0.  1.
<scales pt_clust_4="550.00000" pt_clust_5="550.00000" pt_clust_6="43.41770"></scales>
<mgrwt>
<rscale>  0 0.30000000E+03</rscale>
<asrwt>  1 0.43417700E+02</asrwt>
<pdfrwt beam="1">  1        1 0.88809897E+00 0.30000000E+03</pdfrwt>
<pdfrwt beam="2">0</pdfrwt>
<totfact> 0.14785319E-04</totfact>
</mgrwt>
<clustering>
<clus scale="   43.418">  1  6  2 -1</clus>
<clus scale="  456.504">  4  5 -1 -1</clus>
<clus scale="  300.000">  1  4  2 -1</clus>
</clustering>
</event>
<event>
 6    1  0.1007353E-011  0.3000000E+03  0.7818608E-02  0.1093470E+00
          1   -1    0    0  502    0  0.00000000000E+00  0.00000000000E+00  0.24805828119E+03  0.24805828119E+03  0.00000000000E+00 0.  1.
         13   -1    0    0    0    0 -0.00000000000E+00 -0.00000000000E+00 -0.27500000000E+03  0.27500000000E+03  0.00000000000E+00 0.  1.
    9000005    2    1    2  501    0  0.29862618399E+02 -0.29393312496E+02 -0.45923525098E+02  0.47705771851E+03  0.47298980309E+03 0.  0.
         13    1    3    3    0    0  0.23144972330E+03  0.50176646164E+02  0.46674498003E+02  0.24138181166E+03  0.00000000000E+00 0.  1.
          1    1    3    3  501    0 -0.20158710490E+03 -0.79569958661E+02 -0.92598023101E+02  0.23567590684E+03  0.00000000000E+00 0.  1.
         21    1    1    2  502  501 -0.29862618399E+02  0.29393312496E+02  0.18981806286E+02  0.46000562682E+02  0.00000000000E+00 0.  1.
<scales pt_clust_4="550.00000" pt_clust_5="550.00000" pt_clust_6="41.90158"></scales>
<mgrwt>
<rscale>  0 0.30000000E+03</rscale>
<asrwt>  1 0.41901585E+02</asrwt>
<pdfrwt beam="1">  1        1 0.90203011E+00 0.30000000E+03</pdfrwt>
<pdfrwt beam="2">0</pdfrwt>
<totfact> 0.10031473E-04</totfact>
</mgrwt>
<clustering>
<clus scale="   41.902">  1  6  2 -1</clus>
<clus scale="  472.990">  4  5 -1 -1</clus>
<clus scale="  300.000">  1  4  2 -1</clus>
</clustering>
</event>
<event>
 6    1  0.1007353E-011  0.3000000E+03  0.7818608E-02  0.1093470E+00
          1   -1    0    0  502    0  0.00000000000E+00  0.00000000000E+00  0.23763400859E+03  0.23763400859E+03  0.00000000000E+00 0.  1.
         13   -1    0    0    0    0 -0.00000000000E+00 -0.00000000000E+00 -0.27500000000E+03  0.27500000000E+03  0.00000000000E+00 0.  1.
    9000005    2    1    2  501    0  0.36639871153E+02  0.31325779623E+02 -0.47643994707E+02  0.46334484163E+03  0.45836089210E+03 0.  0.
         13    1    3    3    0    0 -0.18145421113E+03  0.11322234016E+02  0.91842377213E+02  0.20368810955E+03  0.00000000000E+00 0.  1.
          3    1    3    3  501    0  0.21809408228E+03  0.20003545608E+02 -0.13948637192E+03  0.25965673208E+03  0.00000000000E+00 0.  1.
         21    1    1    2  502  501 -0.36639871153E+02 -0.31325779623E+02  0.10278003293E+02  0.49289166952E+02  0.00000000000E+00 0.  1.
<scales pt_clust_4="550.00000" pt_clust_5="550.00000" pt_clust_6="48.20565"></scales>
<mgrwt>
<rscale>  0 0.30000000E+03</rscale>
<asrwt>  1 0.48205649E+02</asrwt>
<pdfrwt beam="1">  1        1 0.86412367E+00 0.30000000E+03</pdfrwt>
<pdfrwt beam="2">0</pdfrwt>
<totfact> 0.27549130E-04</totfact>
</mgrwt>
<clustering>
<clus scale="   48.206">  1  6  2 -1</clus>
<clus scale="  458.361">  4  5 -1 -1</clus>
<clus scale="  300.000">  1  4  2 -1</clus>
</clustering>
</event>
<event>
 6    1  0.1007353E-011  0.3000000E+03  0.7818608E-02  0.1093470E+00
          1   -1    0    0  502    0  0.00000000000E+00  0.00000000000E+00  0.24020923459E+03  0.24020923459E+03  0.00000000000E+00 0.  1.
         13   -1    0    0    0    0 -0.00000000000E+00 -0.00000000000E+00 -0.27500000000E+03  0.27500000000E+03  0.00000000000E+00 0.  1.
    9000005    2    1    2  501    0 -0.24682891973E+02  0.45497779409E+02 -0.26214748522E+02  0.46274170984E+03  0.45908973404E+03 0.  0.
         13    1    3    3    0    0 -0.40317329766E+02 -0.16891459332E+03 -0.13672137425E+03  0.22102117792E+03  0.00000000000E+00 0.  1.
          3    1    3    3  501    0  0.15634437793E+02  0.21441237272E+03  0.11050662572E+03  0.24172053192E+03  0.00000000000E+00 0.  1.
         21    1    1    2  502  501  0.24682891973E+02 -0.45497779409E+02 -0.85760168900E+01  0.52467524747E+02  0.00000000000E+00 0.  1.
<scales pt_clust_4="550.00000" pt_clust_5="550.00000" pt_clust_6="51.76191"></scales>
<mgrwt>
<rscale>  0 0.30000000E+03</rscale>
<asrwt>  1 0.51761914E+02</asrwt>
<pdfrwt beam="1">  1        1 0.87348813E+00 0.30000000E+03</pdfrwt>
<pdfrwt beam="2">0</pdfrwt>
<totfact> 0.21735254E-04</totfact>
</mgrwt>
<clustering>
<clus scale="   51.762">  1  6  2 -1</clus>
<clus scale="  459.090">  4  5 -1 -1</clus>
<clus scale="  300.000">  1  4  2 -1</clus>
</clustering>
</event>
<event>
 6    1  0.1007353E-011  0.3000000E+03  0.7818608E-02  0.1093470E+00
          1   -1    0    0  502    0  0.00000000000E+00  0.00000000000E+00  0.22053013501E+03  0.22053013501E+03  0.00000000000E+00 0.  1.
         13   -1    0    0    0    0 -0.00000000000E+00 -0.00000000000E+00 -0.27500000000E+03  0.27500000000E+03  0.00000000000E+00 0.  1.
    9000005    2    1    2  501    0 -0.32054352342E+02  0.11805919094E+02 -0.53739524299E+02  0.46136297787E+03  0.45694748018E+03 0.  0.
         13    1    3    3    0    0  0.20766190541E+03  0.54094690086E+02 -0.32195140670E+02  0.21699361635E+03  0.00000000000E+00 0.  1.
          1    1    3    3  501    0 -0.23971625775E+03 -0.42288770991E+02 -0.21544383629E+02  0.24436936152E+03  0.00000000000E+00 0.  1.
         21    1    1    2  502  501  0.32054352342E+02 -0.11805919094E+02 -0.73034069046E+00  0.34167157143E+02  0.00000000000E+00 0. -1.
<scales pt_clust_4="550.00000" pt_clust_5="550.00000" pt_clust_6="34.15935"></scales>
<mgrwt>
<rscale>  0 0.30000000E+03</rscale>
<asrwt>  1 0.34159351E+02</asrwt>
<pdfrwt beam="1">  1        1 0.80192776E+00 0.30000000E+03</pdfrwt>
<pdfrwt beam="2">0</pdfrwt>
<totfact> 0.10087711E-03</totfact>
</mgrwt>
<clustering>
<clus scale="   34.159">  1  6  2 -1</clus>
<clus scale="  456.947">  4  5 -1 -1</clus>
<clus scale="  300.000">  1  4  2 -1</clus>
</clustering>
</event>
<event>
 6    1  0.1007353E-011  0.3000000E+03  0.7818608E-02  0.1093470E+00
          1   -1    0    0  502    0  0.00000000000E+00  0.00000000000E+00  0.25711474075E+03  0.25711474075E+03  0.00000000000E+00 0.  1.
         13   -1    0    0    0    0 -0.00000000000E+00 -0.00000000000E+00 -0.27500000000E+03  0.27500000000E+03  0.00000000000E+00 0.  1.
    9000005    2    1    2  501    0 -0.16733401584E+02  0.36973593909E+02 -0.64981398677E+02  0.46994481455E+03  0.46365773278E+03 0.  0.
         13    1    3    3    0    0 -0.10488290374E+03  0.73382959141E+02  0.17205029738E+03  0.21444530076E+03  0.00000000000E+00 0.  1.
          1    1    3    3  501    0  0.88149502161E+02 -0.36409365233E+02 -0.23703169606E+03  0.25549951378E+03  0.00000000000E+00 0.  1.
         21    1    1    2  502  501  0.16733401584E+02 -0.36973593909E+02  0.47096139428E+02  0.62169926203E+02  0.00000000000E+00 0. -1.
<scales pt_clust_4="550.00000" pt_clust_5="550.00000" pt_clust_6="40.58391"></scales>
<mgrwt>
<rscale>  0 0.30000000E+03</rscale>
<asrwt>  1 0.40583905E+02</asrwt>
<pdfrwt beam="1">  1        1 0.93496269E+00 0.30000000E+03</pdfrwt>
<pdfrwt beam="2">0</pdfrwt>
<totfact> 0.21941318E-05</totfact>
</mgrwt>
<clustering>
<clus scale="   40.584">  1  6  2 -1</clus>
<clus scale="  463.658">  4  5 -1 -1</clus>
<clus scale="  300.000">  1  4  2 -1</clus>
</clustering>
</event>
<event>
 6    1  0.1007353E-011  0.3000000E+03  0.7818608E-02  0.1093470E+00
          1   -1    0    0  502    0  0.00000000000E+00  0.00000000000E+00  0.25525804170E+03  0.25525804170E+03  0.00000000000E+00 0.  1.
         13   -1    0    0    0    0 -0.00000000000E+00 -0.00000000000E+00 -0.27500000000E+03  0.27500000000E+03  0.00000000000E+00 0.  1.
    9000005    2    1    2  501    0  0.11761323230E+02 -0.34441553855E+02 -0.42729336437E+02  0.48721191633E+03  0.48396808352E+03 0.  0.
         13    1    3    3    0    0  0.13616914775E+03 -0.21942196988E+03  0.88762700313E+01  0.25839277435E+03  0.00000000000E+00 0.  1.
          1    1    3    3  501    0 -0.12440782452E+03  0.18498041603E+03 -0.51605606468E+02  0.22881914198E+03  0.00000000000E+00 0.  1.
         21    1    1    2  502  501 -0.11761323230E+02  0.34441553855E+02  0.22987378139E+02  0.43046125375E+02  0.00000000000E+00 0.  1.
<scales pt_clust_4="550.00000" pt_clust_5="550.00000" pt_clust_6="36.39436"></scales>
<mgrwt>
<rscale>  0 0.30000000E+03</rscale>
<asrwt>  1 0.36394359E+02</asrwt>
<pdfrwt beam="1">  1        1 0.92821106E+00 0.30000000E+03</pdfrwt>
<pdfrwt beam="2">0</pdfrwt>
<totfact> 0.28025550E-05</totfact>
</mgrwt>
<clustering>
<clus scale="   36.394">  1  6  2 -1</clus>
<clus scale="  483.968">  4  5 -1 -1</clus>
<clus scale="  300.000">  1  4  2 -1</clus>
</clustering>
</event>
<event>
 6    1  0.1007353E-011  0.3000000E+03  0.7818608E-02  0.1093470E+00
          1   -1    0    0  502    0  0.00000000000E+00  0.00000000000E+00  0.25751139364E+03  0.25751139364E+03  0.00000000000E+00 0.  1.
         13   -1    0    0    0    0 -0.00000000000E+00 -0.00000000000E+00 -0.27500000000E+03  0.27500000000E+03  0.00000000000E+00 0.  1.
    9000005    2    1    2  501    0  0.47931303419E+02 -0.14216243144E+02 -0.49355600263E+02  0.47322381723E+03  0.46798001506E+03 0.  0.
         13    1    3    3    0    0 -0.20830156894E+03 -0.35011168659E+02 -0.45760071065E+02  0.21612336675E+03  0.00000000000E+00 0.  1.
          3    1    3    3  501    0  0.25623287236E+03  0.20794925515E+02 -0.35955291979E+01  0.25710045047E+03  0.00000000000E+00 0.  1.
         21    1    1    2  502  501 -0.47931303419E+02  0.14216243144E+02  0.31866993905E+02  0.59287576415E+02  0.00000000000E+00 0.  1.
<scales pt_clust_4="550.00000" pt_clust_5="550.00000" pt_clust_6="49.99511"></scales>
<mgrwt>
<rscale>  0 0.30000000E+03</rscale>
<asrwt>  1 0.49995114E+02</asrwt>
<pdfrwt beam="1">  1        1 0.93640507E+00 0.30000000E+03</pdfrwt>
<pdfrwt beam="2">0</pdfrwt>
<totfact> 0.20290993E-05</totfact>
</mgrwt>
<clustering>
<clus scale="   49.995">  1  6  2 -1</clus>
<clus scale="  467.980">  4  5 -1 -1</clus>
<clus scale="  300.000">  1  4  2 -1</clus>
</clustering>
</event>
<event>
 6    1  0.1007353E-011  0.3000000E+03  0.7818608E-02  0.1093470E+00
          1   -1    0    0  502    0  0.00000000000E+00  0.00000000000E+00  0.24172215793E+03  0.24172215793E+03  0.00000000000E+00 0.  1.
         13   -1    0    0    0    0 -0.00000000000E+00 -0.00000000000E+00 -0.27500000000E+03  0.27500000000E+03  0.00000000000E+00 0.  1.
    9000005    2    1    2  501    0 -0.63326815273E+01  0.38687165512E+02 -0.32622725974E+02  0.47751464835E+03  0.47478331638E+03 0.  0.
         13    1    3    3    0    0 -0.21955327194E+03  0.70747781192E+01  0.80660420882E+02  0.23400810927E+03  0.00000000000E+00 0.  1.
          1    1    3    3  501    0  0.21322059042E+03  0.31612387393E+02 -0.11328314686E+03  0.24350653908E+03  0.00000000000E+00 0.  1.
         21    1    1    2  502  501  0.63326815273E+01 -0.38687165512E+02 -0.65511609225E+00  0.39207509584E+02  0.00000000000E+00 0.  1.
<scales pt_clust_4="550.00000" pt_clust_5="550.00000" pt_clust_6="39.20204"></scales>
<mgrwt>
<rscale>  0 0.30000000E+03</rscale>
<asrwt>  1 0.39202036E+02</asrwt>
<pdfrwt beam="1">  1        1 0.87898967E+00 0.30000000E+03</pdfrwt>
<pdfrwt beam="2">0</pdfrwt>
<totfact> 0.19880371E-04</totfact>
</mgrwt>
<clustering>
<clus scale="   39.202">  1  6  2 -1</clus>
<clus scale="  474.783">  4  5 -1 -1</clus>
<clus scale="  300.000">  1  4  2 -1</clus>
</clustering>
</event>
<event>
 6    1  0.1007353E-011  0.3000000E+03  0.7818608E-02  0.1093470E+00
          1   -1    0    0  502    0  0.00000000000E+00  0.00000000000E+00  0.24539478386E+03  0.24539478386E+03  0.00000000000E+00 0.  1.
         13   -1    0    0    0    0 -0.00000000000E+00 -0.00000000000E+00 -0.27500000000E+03  0.27500000000E+03  0.00000000000E+00 0.  1.
    9000005    2    1    2  501    0 -0.30634742358E+02  0.24282361909E+02 -0.62693240269E+02  0.46918015822E+03  0.46332651332E+03 0.  0.
         13    1    3    3    0    0  0.11741333450E+03 -0.16764807300E+03 -0.93157418154E+02  0.22487790477E+03  0.00000000000E+00 0.  1.
          3    1    3    3  501    0 -0.14804807685E+03  0.19193043491E+03  0.30464177885E+02  0.24430225344E+03  0.00000000000E+00 0.  1.
         21    1    1    2  502  501  0.30634742358E+02 -0.24282361909E+02  0.33088024130E+02  0.51214625646E+02  0.00000000000E+00 0.  1.
<scales pt_clust_4="550.00000" pt_clust_5="550.00000" pt_clust_6="39.09118"></scales>
<mgrwt>
<rscale>  0 0.30000000E+03</rscale>
<asrwt>  1 0.39091182E+02</asrwt>
<pdfrwt beam="1">  1        1 0.89234467E+00 0.30000000E+03</pdfrwt>
<pdfrwt beam="2">0</pdfrwt>
<totfact> 0.13259788E-04</totfact>
</mgrwt>
<clustering>
<clus scale="   39.091">  1  6  2 -1</clus>
<clus scale="  463.327">  4  5 -1 -1</clus>
<clus scale="  300.000">  1  4  2 -1</clus>
</clustering>
</event>
<event>
 6    1  0.1007353E-011  0.3000000E+03  0.7818608E-02  0.1093470E+00
          1   -1    0    0  502    0  0.00000000000E+00  0.00000000000E+00  0.26514163103E+03  0.26514163103E+03  0.00000000000E+00 0.  1.
         13   -1    0    0    0    0 -0.00000000000E+00 -0.00000000000E+00 -0.27500000000E+03  0.27500000000E+03  0.00000000000E+00 0.  1.
    9000005    2    1    2  501    0 -0.34764769602E+02 -0.37476234670E+02 -0.40423305998E+02  0.48058264560E+03  0.47614344289E+03 0.  0.
         13    1    3    3    0    0 -0.18743308832E+03  0.11877531660E+03 -0.11477280402E+03  0.24982300729E+03  0.00000000000E+00 0.  1.
          3    1    3    3  501    0  0.15266831872E+03 -0.15625155127E+03  0.74349498023E+02  0.23075963830E+03  0.00000000000E+00 0.  1.
         21    1    1    2  502  501  0.34764769602E+02  0.37476234670E+02  0.30564937032E+02  0.59558985437E+02  0.00000000000E+00 0.  1.
<scales pt_clust_4="550.00000" pt_clust_5="550.00000" pt_clust_6="51.11807"></scales>
<mgrwt>
<rscale>  0 0.30000000E+03</rscale>
<asrwt>  1 0.51118073E+02</asrwt>
<pdfrwt beam="1">  1        1 0.96415139E+00 0.30000000E+03</pdfrwt>
<pdfrwt beam="2">0</pdfrwt>
<totfact> 0.57763991E-06</totfact>
</mgrwt>
<clustering>
<clus scale="   51.118">  1  6  2 -1</clus>
<clus scale="  476.143">  4  5 -1 -1</clus>
<clus scale="  300.000">  1  4  2 -1</clus>
</clustering>
</event>
<event>
 6    1  0.1007353E-011  0.3000000E+03  0.7818608E-02  0.1093470E+00
          1   -1    0    0  502    0  0.00000000000E+00  0.00000000000E+00  0.23514657508E+03  0.23514657508E+03  0.00000000000E+00 0.  1.
         13   -1    0    0    0    0 -0.00000000000E+00 -0.00000000000E+00 -0.27500000000E+03  0.27500000000E+03  0.00000000000E+00 0.  1.
    9000005    2    1    2  501    0 -0.33235477418E+02 -0.35838049890E+01 -0.46927642774E+02  0.47597809288E+03  0.47247804248E+03 0.  0.
         13    1    3    3    0    0  0.19183846514E+03  0.81745949082E+02  0.53308873742E+02  0.21523529664E+03  0.00000000000E+00 0.  1.
          3    1    3    3  501    0 -0.22507394256E+03 -0.85329754071E+02 -0.10023651652E+03  0.26074279624E+03  0.00000000000E+00 0.  1.
         21    1    1    2  502  501  0.33235477418E+02  0.35838049890E+01  0.70742178496E+01  0.34168482196E+02  0.00000000000E+00 0.  1.
<scales pt_clust_4="550.00000" pt_clust_5="550.00000" pt_clust_6="33.42814"></scales>
<mgrwt>
<rscale>  0 0.30000000E+03</rscale>
<asrwt>  1 0.33428141E+02</asrwt>
<pdfrwt beam="1">  1        1 0.85507845E+00 0.30000000E+03</pdfrwt>
<pdfrwt beam="2">0</pdfrwt>
<totfact> 0.36683648E-04</totfact>
</mgrwt>
<clustering>
<clus scale="   33.428">  1  6  2 -1</clus>
<clus scale="  472.478">  4  5 -1 -1</clus>
<clus scale="  300.000">  1  4  2 -1</clus>
</clustering>
</event>
<event>
 6    1  0.1007353E-011  0.3000000E+03  0.7818608E-02  0.1093470E+00
          1   -1    0    0  502    0  0.00000000000E+00  0.00000000000E+00  0.22216149490E+03  0.22216149490E+03  0.00000000000E+00 0.  1.
         13   -1    0    0    0    0 -0.00000000000E+00 -0.00000000000E+00 -0.27500000000E+03  0.27500000000E+03  0.00000000000E+00 0.  1.
    9000005    2    1    2  501    0  0.28166080728E+02 -0.14734047356E+02 -0.62273203111E+02  0.46400378416E+03  0.45870594026E+03 0.  0.
         13    1    3    3    0    0  0.86945873842E+02  0.15176197236E+03 -0.18063384025E+03  0.25143560901E+03  0.00000000000E+00 0.  1.
          3    1    3    3  501    0 -0.58779793114E+02 -0.16649601972E+03  0.11836063714E+03  0.21256817515E+03  0.00000000000E+00 0.  1.
         21    1    1    2  502  501 -0.28166080728E+02  0.14734047356E+02  0.94346980073E+01  0.33157710741E+02  0.00000000000E+00 0. -1.
<scales pt_clust_4="550.00000" pt_clust_5="550.00000" pt_clust_6="31.78711"></scales>
<mgrwt>
<rscale>  0 0.30000000E+03</rscale>
<asrwt>  1 0.31787108E+02</asrwt>
<pdfrwt beam="1">  1        1 0.80785998E+00 0.30000000E+03</pdfrwt>
<pdfrwt beam="2">0</pdfrwt>
<totfact> 0.92271601E-04</totfact>
</mgrwt>
<clustering>
<clus scale="   31.787">  1  6  2 -1</clus>
<clus scale="  458.706">  4  5 -1 -1</clus>
<clus scale="  300.000">  1  4  2 -1</clus>
</clustering>
</event>
<event>
 6    1  0.1007353E-011  0.3000000E+03  0.7818608E-02  0.1093470E+00
          1   -1    0    0  502    0  0.00000000000E+00  0.00000000000E+00  0.22394150767E+03  0.22394150767E+03  0.00000000000E+00 0.  1.
         13   -1    0    0    0    0 -0.00000000000E+00 -0.00000000000E+00 -0.27500000000E+03  0.27500000000E+03  0.00000000000E+00 0.  1.
    9000005    2    1    2  501    0 -0.33498484394E+02 -0.19414576660E+01 -0.54526745155E+02  0.46520804517E+03  0.46078133821E+03 0.  0.
         13    1    3    3    0    0 -0.88762795672E+02 -0.19876951606E+03  0.66514853051E+02  0.22762332940E+03  0.00000000000E+00 0.  1.
          3    1    3    3  501    0  0.55264311278E+02  0.19682805839E+03 -0.12104159821E+03  0.23758471577E+03  0.00000000000E+00 0.  1.
         21    1    1    2  502  501  0.33498484394E+02  0.19414576660E+01  0.34682528240E+01  0.33733462500E+02  0.00000000000E+00 0.  1.
<scales pt_clust_4="550.00000" pt_clust_5="550.00000" pt_clust_6="33.55470"></scales>
<mgrwt>
<rscale>  0 0.30000000E+03</rscale>
<asrwt>  1 0.33554697E+02</asrwt>
<pdfrwt beam="1">  1        1 0.81433276E+00 0.30000000E+03</pdfrwt>
<pdfrwt beam="2">0</pdfrwt>
<totfact> 0.81236829E-04</totfact>
</mgrwt>
<clustering>
<clus scale="   33.555">  1  6  2 -1</clus>
<clus scale="  460.781">  4  5 -1 -1</clus>
<clus scale="  300.000">  1  4  2 -1</clus>
</clustering>
</event>
<event>
 6    1  0.1007353E-011  0.3000000E+03  0.7818608E-02  0.1093470E+00
          1   -1    0    0  502    0  0.00000000000E+00  0.00000000000E+00  0.25556725346E+03  0.25556725346E+03  0.00000000000E+00 0.  1.
         13   -1    0    0    0    0 -0.00000000000E+00 -0.00000000000E+00 -0.27500000000E+03  0.27500000000E+03  0.00000000000E+00 0.  1.
    9000005    2    1    2  501    0 -0.18666692550E+02 -0.44514778948E+02 -0.29179348634E+02  0.48132289127E+03  0.47800656932E+03 0.  0.
         13    1    3    3    0    0  0.11827297912E+03 -0.13474546881E+03  0.15336262521E+03  0.23593417253E+03  0.00000000000E+00 0.  1.
          3    1    3    3  501    0 -0.13693967167E+03  0.90230689865E+02 -0.18254197384E+03  0.24538871874E+03  0.00000000000E+00 0.  1.
         21    1    1    2  502  501  0.18666692550E+02  0.44514778948E+02  0.97466020944E+01  0.49244362194E+02  0.00000000000E+00 0.  1.
<scales pt_clust_4="550.00000" pt_clust_5="550.00000" pt_clust_6="48.27019"></scales>
<mgrwt>
<rscale>  0 0.30000000E+03</rscale>
<asrwt>  1 0.48270187E+02</asrwt>
<pdfrwt beam="1">  1        1 0.92933547E+00 0.30000000E+03</pdfrwt>
<pdfrwt beam="2">0</pdfrwt>
<totfact> 0.25431592E-05</totfact>
</mgrwt>
<clustering>
<clus scale="   48.270">  1  6  2 -1</clus>
<clus scale="  478.007">  4  5 -1 -1</clus>
<clus scale="  300.000">  1  4  2 -1</clus>
</clustering>
</event>
<event>
 6    1  0.1007353E-011  0.3000000E+03  0.7818608E-02  0.1093470E+00
          1   -1    0    0  502    0  0.00000000000E+00  0.00000000000E+00  0.24069823719E+03  0.24069823719E+03  0.00000000000E+00 0.  1.
         13   -1    0    0    0    0 -0.00000000000E+00 -0.00000000000E+00 -0.27500000000E+03  0.27500000000E+03  0.00000000000E+00 0.  1.
    9000005    2    1    2  501    0 -0.27496270883E+02 -0.20762980941E+02 -0.72874334182E+02  0.46397793603E+03  0.45692199580E+03 0.  0.
         13    1    3    3    0    0 -0.14968818468E+03 -0.17253322935E+03 -0.12753562046E+03  0.26160963734E+03  0.00000000000E+00 0.  1.
          3    1    3    3  501    0  0.12219191379E+03  0.15177024840E+03  0.54661286281E+02  0.20236829869E+03  0.00000000000E+00 0.  1.
         21    1    1    2  502  501  0.27496270883E+02  0.20762980941E+02  0.38572571374E+02  0.51720301164E+02  0.00000000000E+00 0.  1.
<scales pt_clust_4="550.00000" pt_clust_5="550.00000" pt_clust_6="34.45499"></scales>
<mgrwt>
<rscale>  0 0.30000000E+03</rscale>
<asrwt>  1 0.34454989E+02</asrwt>
<pdfrwt beam="1">  1        1 0.87526632E+00 0.30000000E+03</pdfrwt>
<pdfrwt beam="2">0</pdfrwt>
<totfact> 0.22412690E-04</totfact>
</mgrwt>
<clustering>
<clus scale="   34.455">  1  6  2 -1</clus>
<clus scale="  456.922">  4  5 -1 -1</clus>
<clus scale="  300.000">  1  4  2 -1</clus>
</clustering>
</event>
<event>
 6    1  0.1007353E-011  0.3000000E+03  0.7818608E-02  0.1093470E+00
          1   -1    0    0  502    0  0.00000000000E+00  0.00000000000E+00  0.26839840785E+03  0.26839840785E+03  0.00000000000E+00 0.  1.
         13   -1    0    0    0    0 -0.00000000000E+00 -0.00000000000E+00 -0.27500000000E+03  0.27500000000E+03  0.00000000000E+00 0.  1.
    9000005    2    1    2  501    0  0.12002110140E+02  0.29567885057E+02 -0.20930219031E+02  0.50841812736E+03  0.50698383375E+03 0.  0.
         13    1    3    3    0    0  0.26392042909E+02  0.29246445719E+02 -0.26299335694E+03  0.26592743430E+03  0.00000000000E+00 0.  1.
          1    1    3    3  501    0 -0.14389932769E+02  0.32143933836E+00  0.24206313791E+03  0.24249069307E+03  0.00000000000E+00 0.  1.
         21    1    1    2  502  501 -0.12002110140E+02 -0.29567885057E+02  0.14328626877E+02  0.34980280485E+02  0.00000000000E+00 0.  1.
<scales pt_clust_4="550.00000" pt_clust_5="550.00000" pt_clust_6="31.91098"></scales>
<mgrwt>
<rscale>  0 0.30000000E+03</rscale>
<asrwt>  1 0.31910977E+02</asrwt>
<pdfrwt beam="1">  1        1 0.97599421E+00 0.30000000E+03</pdfrwt>
<pdfrwt beam="2">0</pdfrwt>
<totfact> 0.39347960E-06</totfact>
</mgrwt>
<clustering>
<clus scale="   31.911">  1  6  2 -1</clus>
<clus scale="  506.984">  4  5 -1 -1</clus>
<clus scale="  300.000">  1  4  2 -1</clus>
</clustering>
</event>
<event>
 6    1  0.1007353E-011  0.3000000E+03  0.7818608E-02  0.1093470E+00
          1   -1    0    0  502    0  0.00000000000E+00  0.00000000000E+00  0.23811425105E+03  0.23811425105E+03  0.00000000000E+00 0.  1.
         13   -1    0    0    0    0 -0.00000000000E+00 -0.00000000000E+00 -0.27500000000E+03  0.27500000000E+03  0.00000000000E+00 0.  1.
    9000005    2    1    2  501    0  0.24465001342E+02 -0.23600980225E+02 -0.73003319058E+01  0.46804941486E+03  0.46675627189E+03 0.  0.
         13    1    3    3    0    0 -0.88290155566E+02  0.16695580647E+03 -0.11573709328E+03  0.22150500592E+03  0.00000000000E+00 0.  1.
          3    1    3    3  501    0  0.11275515691E+03 -0.19055678670E+03  0.10843676138E+03  0.24654440895E+03  0.00000000000E+00 0.  1.
         21    1    1    2  502  501 -0.24465001342E+02  0.23600980225E+02 -0.29585417049E+02  0.45064836183E+02  0.00000000000E+00 0.  1.
<scales pt_clust_4="550.00000" pt_clust_5="550.00000" pt_clust_6="33.99329"></scales>
<mgrwt>
<rscale>  0 0.30000000E+03</rscale>
<asrwt>  1 0.33993289E+02</asrwt>
<pdfrwt beam="1">  1        1 0.86587000E+00 0.30000000E+03</pdfrwt>
<pdfrwt beam="2">0</pdfrwt>
<totfact> 0.28116363E-04</totfact>
</mgrwt>
<clustering>
<clus scale="   33.993">  1  6  2 -1</clus>
<clus scale="  466.756">  4  5 -1 -1</clus>
<clus scale="  300.000">  1  4  2 -1</clus>
</clustering>
</event>
<event>
 6    1  0.1007353E-011  0.3000000E+03  0.7818608E-02  0.1093470E+00
          1   -1    0    0  502    0  0.00000000000E+00  0.00000000000E+00  0.24198940862E+03  0.24198940862E+03  0.00000000000E+00 0.  1.
         13   -1    0    0    0    0 -0.00000000000E+00 -0.00000000000E+00 -0.27500000000E+03  0.27500000000E+03  0.00000000000E+00 0.  1.
    9000005    2    1    2  501    0 -0.32204337446E+01 -0.35596165046E+02 -0.14782399870E+02  0.47686802872E+03  0.47529689597E+03 0.  0.
         13    1    3    3    0    0 -0.18368958307E+03  0.12587800691E+03 -0.59765174098E+02  0.23056238112E+03  0.00000000000E+00 0.  1.
          3    1    3    3  501    0  0.18046914932E+03 -0.16147417196E+03  0.44982774228E+02  0.24630564761E+03  0.00000000000E+00 0.  1.
         21    1    1    2  502  501  0.32204337446E+01  0.35596165046E+02 -0.18228191505E+02  0.40121379900E+02  0.00000000000E+00 0.  1.
<scales pt_clust_4="550.00000" pt_clust_5="550.00000" pt_clust_6="35.74156"></scales>
<mgrwt>
<rscale>  0 0.30000000E+03</rscale>
<asrwt>  1 0.35741565E+02</asrwt>
<pdfrwt beam="1">  1        1 0.87996149E+00 0.30000000E+03</pdfrwt>
<pdfrwt beam="2">0</pdfrwt>
<totfact> 0.19682107E-04</totfact>
</mgrwt>
<clustering>
<clus scale="   35.742">  1  6  2 -1</clus>
<clus scale="  475.297">  4  5 -1 -1</clus>
<clus scale="  300.000">  1  4  2 -1</clus>
</clustering>
</event>
<event>
 6    1  0.1007353E-011  0.3000000E+03  0.7818608E-02  0.1093470E+00
          1   -1    0    0  502    0  0.00000000000E+00  0.00000000000E+00  0.24254024497E+03  0.24254024497E+03  0.00000000000E+00 0.  1.
         13   -1    0    0    0    0 -0.00000000000E+00 -0.00000000000E+00 -0.27500000000E+03  0.27500000000E+03  0.00000000000E+00 0.  1.
    9000005    2    1    2  501    0  0.31543335439E+02 -0.77188424561E+01 -0.30589936642E+02  0.48501242979E+03  0.48295626126E+03 0.  0.
         13    1    3    3    0    0  0.89734447870E+02  0.21190580839E+03 -0.94840146736E+02  0.24889957050E+03  0.00000000000E+00 0.  1.
          3    1    3    3  501    0 -0.58191112431E+02 -0.21962465084E+03  0.64250210094E+02  0.23611285929E+03  0.00000000000E+00 0.  1.
         21    1    1    2  502  501 -0.31543335439E+02  0.77188424561E+01 -0.18698183909E+01  0.32527815178E+02  0.00000000000E+00 0. -1.
<scales pt_clust_4="550.00000" pt_clust_5="550.00000" pt_clust_6="32.47403"></scales>
<mgrwt>
<rscale>  0 0.30000000E+03</rscale>
<asrwt>  1 0.32474029E+02</asrwt>
<pdfrwt beam="1">  1        1 0.88196453E+00 0.30000000E+03</pdfrwt>
<pdfrwt beam="2">0</pdfrwt>
<totfact> 0.18902034E-04</totfact>
</mgrwt>
<clustering>
<clus scale="   32.474">  1  6  2 -1</clus>
<clus scale="  482.956">  4  5 -1 -1</clus>
<clus scale="  300.000">  1  4  2 -1</clus>
</clustering>
</event>
<event>
 6    1  0.1007353E-011  0.3000000E+03  0.7818608E-02  0.1093470E+00
          1   -1    0    0  502    0  0.00000000000E+00  0.00000000000E+00  0.23443903070E+03  0.23443903070E+03  0.00000000000E+00 0.  1.
         13   -1    0    0    0    0 -0.00000000000E+00 -0.00000000000E+00 -0.27500000000E+03  0.27500000000E+03  0.00000000000E+00 0.  1.
    9000005    2    1    2  501    0  0.37909468014E+02  0.11834520721E+02 -0.20183212161E+02  0.46480231228E+03  0.46266255933E+03 0.  0.
         13    1    3    3    0    0  0.13294459810E+03  0.36936136230E+02  0.18880636734E+03  0.23385121054E+03  0.00000000000E+00 0.  1.
          3    1    3    3  501    0 -0.95035130087E+02 -0.25101615509E+02 -0.20898957950E+03  0.23095110174E+03  0.00000000000E+00 0.  1.
         21    1    1    2  502  501 -0.37909468014E+02 -0.11834520721E+02 -0.20377757135E+02  0.44636718424E+02  0.00000000000E+00 0. -1.
<scales pt_clust_4="550.00000" pt_clust_5="550.00000" pt_clust_6="39.71379"></scales>
<mgrwt>
<rscale>  0 0.30000000E+03</rscale>
<asrwt>  1 0.39713791E+02</asrwt>
<pdfrwt beam="1">  1        1 0.85250557E+00 0.30000000E+03</pdfrwt>
<pdfrwt beam="2">0</pdfrwt>
<totfact> 0.37637417E-04</totfact>
</mgrwt>
<clustering>
<clus scale="   39.714">  1  6  2 -1</clus>
<clus scale="  462.663">  4  5 -1 -1</clus>
<clus scale="  300.000">  1  4  2 -1</clus>
</clustering>
</event>
<event>
 6    1  0.1007353E-011  0.3000000E+03  0.7818608E-02  0.1093470E+00
          1   -1    0    0  502    0  0.00000000000E+00  0.00000000000E+00  0.24221929765E+03  0.24221929765E+03  0.00000000000E+00 0.  1.
         13   -1    0    0    0    0 -0.00000000000E+00 -0.00000000000E+00 -0.27500000000E+03  0.27500000000E+03  0.00000000000E+00 0.  1.
    9000005    2    1    2  501    0 -0.14468816475E+02  0.39491968938E+02 -0.42369299737E+01  0.46638909795E+03  0.46446945739E+03 0.  0.
         13    1    3    3    0    0  0.72379108287E+02 -0.15383158639E+03 -0.13523553660E+03  0.21723614489E+03  0.00000000000E+00 0.  1.
          1    1    3    3  501    0 -0.86847924763E+02  0.19332355533E+03  0.13099860662E+03  0.24915295306E+03  0.00000000000E+00 0.  1.
         21    1    1    2  502  501  0.14468816475E+02 -0.39491968938E+02 -0.28543772374E+02  0.50830199705E+02  0.00000000000E+00 0. -1.
<scales pt_clust_4="550.00000" pt_clust_5="550.00000" pt_clust_6="42.05905"></scales>
<mgrwt>
<rscale>  0 0.30000000E+03</rscale>
<asrwt>  1 0.42059054E+02</asrwt>
<pdfrwt beam="1">  1        1 0.88079745E+00 0.30000000E+03</pdfrwt>
<pdfrwt beam="2">0</pdfrwt>
<totfact> 0.18649858E-04</totfact>
</mgrwt>
<clustering>
<clus scale="   42.059">  1  6  2 -1</clus>
<clus scale="  464.469">  4  5 -1 -1</clus>
<clus scale="  300.000">  1  4  2 -1</clus>
</clustering>
</event>
<event>
 6    1  0.1007353E-011  0.3000000E+03  0.7818608E-02  0.1093470E+00
          1   -1    0    0  502    0  0.00000000000E+00  0.00000000000E+00  0.22993175330E+03  0.22993175330E+03  0.00000000000E+00 0.  1.
         13   -1    0    0    0    0 -0.00000000000E+00 -0.00000000000E+00 -0.27500000000E+03  0.27500000000E+03  0.00000000000E+00 0.  1.
    9000005    2    1    2  501    0 -0.26896356057E+02  0.14310512122E+02 -0.73310277731E+02  0.46338879911E+03  0.45653759713E+03 0.  0.
         13    1    3    3    0    0  0.15395175907E+03 -0.12409233782E+03 -0.11947071994E+03  0.23102663342E+03  0.00000000000E+00 0.  1.
          3    1    3    3  501    0 -0.18084811513E+03  0.13840284994E+03  0.46160442212E+02  0.23236216569E+03  0.00000000000E+00 0.  1.
         21    1    1    2  502  501  0.26896356057E+02 -0.14310512122E+02  0.28242031028E+02  0.41542954191E+02  0.00000000000E+00 0. -1.
<scales pt_clust_4="550.00000" pt_clust_5="550.00000" pt_clust_6="30.46645"></scales>
<mgrwt>
<rscale>  0 0.30000000E+03</rscale>
<asrwt>  1 0.30466452E+02</asrwt>
<pdfrwt beam="1">  1        1 0.83611547E+00 0.30000000E+03</pdfrwt>
<pdfrwt beam="2">0</pdfrwt>
<totfact> 0.54512314E-04</totfact>
</mgrwt>
<clustering>
<clus scale="   30.466">  1  6  2 -1</clus>
<clus scale="  456.538">  4  5 -1 -1</clus>
<clus scale="  300.000">  1  4  2 -1</clus>
</clustering>
</event>
<event>
 6    1  0.1007353E-011  0.3000000E+03  0.7818608E-02  0.1093470E+00
          1   -1    0    0  502    0  0.00000000000E+00  0.00000000000E+00  0.23209056352E+03  0.23209056352E+03  0.00000000000E+00 0.  1.
         13   -1    0    0    0    0 -0.00000000000E+00 -0.00000000000E+00 -0.27500000000E+03  0.27500000000E+03  0.00000000000E+00 0.  1.
    9000005    2    1    2  501    0  0.14495822779E+02  0.29286233606E+02 -0.54068824600E+02  0.47256022469E+03  0.46831817796E+03 0.  0.
         13    1    3    3    0    0  0.16679304862E+03  0.10973554828E+03  0.11566790782E+03  0.23073984598E+03  0.00000000000E+00 0.  1.
          3    1    3    3  501    0 -0.15229722584E+03 -0.80449314672E+02 -0.16973673242E+03  0.24182037871E+03  0.00000000000E+00 0.  1.
         21    1    1    2  502  501 -0.14495822779E+02 -0.29286233606E+02  0.11159388124E+02  0.34530338837E+02  0.00000000000E+00 0.  1.
<scales pt_clust_4="550.00000" pt_clust_5="550.00000" pt_clust_6="32.67740"></scales>
<mgrwt>
<rscale>  0 0.30000000E+03</rscale>
<asrwt>  1 0.32677398E+02</asrwt>
<pdfrwt beam="1">  1        1 0.84396569E+00 0.30000000E+03</pdfrwt>
<pdfrwt beam="2">0</pdfrwt>
<totfact> 0.46723927E-04</totfact>
</mgrwt>
<clustering>
<clus scale="   32.677">  1  6  2 -1</clus>
<clus scale="  468.318">  4  5 -1 -1</clus>
<clus scale="  300.000">  1  4  2 -1</clus>
</clustering>
</event>
<event>
 6    1  0.1007353E-011  0.3000000E+03  0.7818608E-02  0.1093470E+00
          1   -1    0    0  502    0  0.00000000000E+00  0.00000000000E+00  0.23002713003E+03  0.23002713003E+03  0.00000000000E+00 0.  1.
         13   -1    0    0    0    0 -0.00000000000E+00 -0.00000000000E+00 -0.27500000000E+03  0.27500000000E+03  0.00000000000E+00 0.  1.
    9000005    2    1    2  501    0  0.20834775060E+01 -0.30726101937E+02 -0.66479748791E+02  0.46746411557E+03  0.46168680740E+03 0.  0.
         13    1    3    3    0    0  0.16411089399E+03 -0.98404318015E+02 -0.17643965779E+03  0.26028205503E+03  0.00000000000E+00 0.  1.
          1    1    3    3  501    0 -0.16202741648E+03  0.67678216078E+02  0.10995990900E+03  0.20718206054E+03  0.00000000000E+00 0.  1.
         21    1    1    2  502  501 -0.20834775060E+01  0.30726101937E+02  0.21506878817E+02  0.37563014459E+02  0.00000000000E+00 0.  1.
<scales pt_clust_4="550.00000" pt_clust_5="550.00000" pt_clust_6="30.79666"></scales>
<mgrwt>
<rscale>  0 0.30000000E+03</rscale>
<asrwt>  1 0.30796659E+02</asrwt>
<pdfrwt beam="1">  1        1 0.83646229E+00 0.30000000E+03</pdfrwt>
<pdfrwt beam="2">0</pdfrwt>
<totfact> 0.54085457E-04</totfact>
</mgrwt>
<clustering>
<clus scale="   30.797">  1  6  2 -1</clus>
<clus scale="  461.687">  4  5 -1 -1</clus>
<clus scale="  300.000">  1  4  2 -1</clus>
</clustering>
</event>
<event>
 6    1  0.1007353E-011  0.3000000E+03  0.7818608E-02  0.1093470E+00
          1   -1    0    0  502    0  0.00000000000E+00  0.00000000000E+00  0.24804091532E+03  0.24804091532E+03  0.00000000000E+00 0.  1.
         13   -1    0    0    0    0 -0.00000000000E+00 -0.00000000000E+00 -0.27500000000E+03  0.27500000000E+03  0.00000000000E+00 0.  1.
    9000005    2    1    2  501    0  0.21314327060E+02  0.39778214634E+02 -0.57381735271E+02  0.46861532789E+03  0.46289421588E+03 0.  0.
         13    1    3    3    0    0  0.50466201331E+02  0.23782743586E+03  0.39348694846E+02  0.24628651305E+03  0.00000000000E+00 0.  1.
          3    1    3    3  501    0 -0.29151874271E+02 -0.19804922122E+03 -0.96730430116E+02  0.22232881485E+03  0.00000000000E+00 0.  1.
         21    1    1    2  502  501 -0.21314327060E+02 -0.39778214634E+02  0.30422650586E+02  0.54425587421E+02  0.00000000000E+00 0.  1.
<scales pt_clust_4="550.00000" pt_clust_5="550.00000" pt_clust_6="45.12878"></scales>
<mgrwt>
<rscale>  0 0.30000000E+03</rscale>
<asrwt>  1 0.45128781E+02</asrwt>
<pdfrwt beam="1">  1        1 0.90196696E+00 0.30000000E+03</pdfrwt>
<pdfrwt beam="2">0</pdfrwt>
<totfact> 0.99195436E-05</totfact>
</mgrwt>
<clustering>
<clus scale="   45.129">  1  6  2 -1</clus>
<clus scale="  462.894">  4  5 -1 -1</clus>
<clus scale="  300.000">  1  4  2 -1</clus>
</clustering>
</event>
<event>
 6    1  0.1007353E-011  0.3000000E+03  0.7818608E-02  0.1093470E+00
          1   -1    0    0  502    0  0.00000000000E+00  0.00000000000E+00  0.23641555708E+03  0.23641555708E+03  0.00000000000E+00 0.  1.
         13   -1    0    0    0    0 -0.00000000000E+00 -0.00000000000E+00 -0.27500000000E+03  0.27500000000E+03  0.00000000000E+00 0.  1.
    9000005    2    1    2  501    0  0.72286464219E+01 -0.36503375490E+02 -0.37493264140E+02  0.47418733630E+03  0.47123575342E+03 0.  0.
         13    1    3    3    0    0  0.19963463918E+03 -0.59022315819E+02 -0.14399250333E+03  0.25312341642E+03  0.00000000000E+00 0.  1.
          3    1    3    3  501    0 -0.19240599276E+03  0.22518940329E+02  0.10649923918E+03  0.22106391988E+03  0.00000000000E+00 0.  1.
         21    1    1    2  502  501 -0.72286464219E+01  0.36503375490E+02 -0.10911787819E+01  0.37228220779E+02  0.00000000000E+00 0.  1.
<scales pt_clust_4="550.00000" pt_clust_5="550.00000" pt_clust_6="37.21223"></scales>
<mgrwt>
<rscale>  0 0.30000000E+03</rscale>
<asrwt>  1 0.37212226E+02</asrwt>
<pdfrwt beam="1">  1        1 0.85969293E+00 0.30000000E+03</pdfrwt>
<pdfrwt beam="2">0</pdfrwt>
<totfact> 0.32221478E-04</totfact>
</mgrwt>
<clustering>
<clus scale="   37.212">  1  6  2 -1</clus>
<clus scale="  471.236">  4  5 -1 -1</clus>
<clus scale="  300.000">  1  4  2 -1</clus>
</clustering>
</event>
<event>
 6    1  0.1007353E-011  0.3000000E+03  0.7818608E-02  0.1093470E+00
          1   -1    0    0  502    0  0.00000000000E+00  0.00000000000E+00  0.25292946079E+03  0.25292946079E+03  0.00000000000E+00 0.  1.
         13   -1    0    0    0    0 -0.00000000000E+00 -0.00000000000E+00 -0.27500000000E+03  0.27500000000E+03  0.00000000000E+00 0.  1.
    9000005    2    1    2  501    0  0.27699573664E+02  0.56177793026E+02 -0.37883456096E+02  0.46332869337E+03  0.45750968410E+03 0.  0.
         13    1    3    3    0    0 -0.17168389376E+03 -0.66418997628E+02  0.80639118789E+02  0.20097141613E+03  0.00000000000E+00 0.  1.
          3    1    3    3  501    0  0.19938346743E+03  0.12259679065E+03 -0.11852257489E+03  0.26235727724E+03  0.00000000000E+00 0.  1.
         21    1    1    2  502  501 -0.27699573664E+02 -0.56177793026E+02  0.15812916884E+02  0.64600767417E+02  0.00000000000E+00 0. -1.
<scales pt_clust_4="550.00000" pt_clust_5="550.00000" pt_clust_6="62.63554"></scales>
<mgrwt>
<rscale>  0 0.30000000E+03</rscale>
<asrwt>  1 0.62635540E+02</asrwt>
<pdfrwt beam="1">  1        1 0.91974349E+00 0.30000000E+03</pdfrwt>
<pdfrwt beam="2">0</pdfrwt>
<totfact> 0.38183997E-05</totfact>
</mgrwt>
<clustering>
<clus scale="   62.636">  1  6  2 -1</clus>
<clus scale="  457.510">  4  5 -1 -1</clus>
<clus scale="  300.000">  1  4  2 -1</clus>
</clustering>
</event>
<event>
 6    1  0.1007353E-011  0.3000000E+03  0.7818608E-02  0.1093470E+00
          1   -1    0    0  502    0  0.00000000000E+00  0.00000000000E+00  0.23303432089E+03  0.23303432089E+03  0.00000000000E+00 0.  1.
         13   -1    0    0    0    0 -0.00000000000E+00 -0.00000000000E+00 -0.27500000000E+03  0.27500000000E+03  0.00000000000E+00 0.  1.
    9000005    2    1    2  501    0  0.22207412138E+01  0.39810075858E+02 -0.61824972574E+02  0.46349034971E+03  0.45761468859E+03 0.  0.
         13    1    3    3    0    0 -0.11690642112E+03  0.21151907149E+03 -0.77810797487E+02  0.25389357831E+03  0.00000000000E+00 0.  1.
          3    1    3    3  501    0  0.11912716233E+03 -0.17170899563E+03  0.15985824913E+02  0.20959677140E+03  0.00000000000E+00 0.  1.
         21    1    1    2  502  501 -0.22207412138E+01 -0.39810075858E+02  0.19859293460E+02  0.44543971176E+02  0.00000000000E+00 0. -1.
<scales pt_clust_4="550.00000" pt_clust_5="550.00000" pt_clust_6="39.87197"></scales>
<mgrwt>
<rscale>  0 0.30000000E+03</rscale>
<asrwt>  1 0.39871968E+02</asrwt>
<pdfrwt beam="1">  1        1 0.84739753E+00 0.30000000E+03</pdfrwt>
<pdfrwt beam="2">0</pdfrwt>
<totfact> 0.41990329E-04</totfact>
</mgrwt>
<clustering>
<clus scale="   39.872">  1  6  2 -1</clus>
<clus scale="  457.615">  4  5 -1 -1</clus>
<clus scale="  300.000">  1  4  2 -1</clus>
</clustering>
</event>
<event>
 6    1  0.1007353E-011  0.3000000E+03  0.7818608E-02  0.1093470E+00
          1   -1    0    0  502    0  0.00000000000E+00  0.00000000000E+00  0.24071856322E+03  0.24071856322E+03  0.00000000000E+00 0.  1.
         13   -1    0    0    0    0 -0.00000000000E+00 -0.00000000000E+00 -0.27500000000E+03  0.27500000000E+03  0.00000000000E+00 0.  1.
    9000005    2    1    2  501    0 -0.38456443695E+01 -0.30478500766E+02 -0.38720517607E+02  0.48467933920E+03  0.48215252293E+03 0.  0.
         13    1    3    3    0    0 -0.68311313777E+02 -0.97400973401E+02  0.19765439135E+03  0.23069599829E+03  0.00000000000E+00 0.  1.
          1    1    3    3  501    0  0.64465669408E+02  0.66922472636E+02 -0.23637490895E+03  0.25398334091E+03  0.00000000000E+00 0.  1.
         21    1    1    2  502  501  0.38456443695E+01  0.30478500766E+02  0.44390808315E+01  0.31039224026E+02  0.00000000000E+00 0. -1.
<scales pt_clust_4="550.00000" pt_clust_5="550.00000" pt_clust_6="30.72016"></scales>
<mgrwt>
<rscale>  0 0.30000000E+03</rscale>
<asrwt>  1 0.30720156E+02</asrwt>
<pdfrwt beam="1">  1        1 0.87534023E+00 0.30000000E+03</pdfrwt>
<pdfrwt beam="2">0</pdfrwt>
<totfact> 0.22864160E-04</totfact>
</mgrwt>
<clustering>
<clus scale="   30.720">  1  6  2 -1</clus>
<clus scale="  482.153">  4  5 -1 -1</clus>
<clus scale="  300.000">  1  4  2 -1</clus>
</clustering>
</event>
<event>
 6    1  0.1007353E-011  0.3000000E+03  0.7818608E-02  0.1093470E+00
          1   -1    0    0  502    0  0.00000000000E+00  0.00000000000E+00  0.22970814010E+03  0.22970814010E+03  0.00000000000E+00 0.  1.
         13   -1    0    0    0    0 -0.00000000000E+00 -0.00000000000E+00 -0.27500000000E+03  0.27500000000E+03  0.00000000000E+00 0.  1.
    9000005    2    1    2  501    0  0.30128987080E+02  0.15560493957E+02 -0.54659806934E+02  0.46952798566E+03  0.46510101052E+03 0.  0.
         13    1    3    3    0    0 -0.25279416193E+02 -0.27494292426E+02 -0.25475885531E+03  0.25748215348E+03  0.00000000000E+00 0.  1.
          1    1    3    3  501    0  0.55408403272E+02  0.43054786383E+02  0.20009904838E+03  0.21204583218E+03  0.00000000000E+00 0.  1.
         21    1    1    2  502  501 -0.30128987080E+02 -0.15560493957E+02  0.93679470304E+01  0.35180154437E+02  0.00000000000E+00 0.  1.
<scales pt_clust_4="550.00000" pt_clust_5="550.00000" pt_clust_6="33.90995"></scales>
<mgrwt>
<rscale>  0 0.30000000E+03</rscale>
<asrwt>  1 0.33909952E+02</asrwt>
<pdfrwt beam="1">  1        1 0.83530233E+00 0.30000000E+03</pdfrwt>
<pdfrwt beam="2">0</pdfrwt>
<totfact> 0.54145580E-04</totfact>
</mgrwt>
<clustering>
<clus scale="   33.910">  1  6  2 -1</clus>
<clus scale="  465.101">  4  5 -1 -1</clus>
<clus scale="  300.000">  1  4  2 -1</clus>
</clustering>
</event>
<event>
 6    1  0.1007353E-011  0.3000000E+03  0.7818608E-02  0.1093470E+00
          1   -1    0    0  502    0  0.00000000000E+00  0.00000000000E+00  0.23178747874E+03  0.23178747874E+03  0.00000000000E+00 0.  1.
         13   -1    0    0    0    0 -0.00000000000E+00 -0.00000000000E+00 -0.27500000000E+03  0.27500000000E+03  0.00000000000E+00 0.  1.
    9000005    2    1    2  501    0 -0.76868897356E+01 -0.31874203265E+02 -0.64230459725E+02  0.46784127424E+03  0.46224977320E+03 0.  0.
         13    1    3    3    0    0 -0.10502142834E+03 -0.61678343739E+02  0.17191722626E+03  0.21068756769E+03  0.00000000000E+00 0.  1.
          1    1    3    3  501    0  0.97334538600E+02  0.29804140474E+02 -0.23614768599E+03  0.25715370655E+03  0.00000000000E+00 0.  1.
         21    1    1    2  502  501  0.76868897356E+01  0.31874203265E+02  0.21017938466E+02  0.38946204500E+02  0.00000000000E+00 0. -1.
<scales pt_clust_4="550.00000" pt_clust_5="550.00000" pt_clust_6="32.78800"></scales>
<mgrwt>
<rscale>  0 0.30000000E+03</rscale>
<asrwt>  1 0.32788002E+02</asrwt>
<pdfrwt beam="1">  1        1 0.84286356E+00 0.30000000E+03</pdfrwt>
<pdfrwt beam="2">0</pdfrwt>
<totfact> 0.47711455E-04</totfact>
</mgrwt>
<clustering>
<clus scale="   32.788">  1  6  2 -1</clus>
<clus scale="  462.250">  4  5 -1 -1</clus>
<clus scale="  300.000">  1  4  2 -1</clus>
</clustering>
</event>
<event>
 6    1  0.1007353E-011  0.3000000E+03  0.7818608E-02  0.1093470E+00
          1   -1    0    0  502    0  0.00000000000E+00  0.00000000000E+00  0.23289664909E+03  0.23289664909E+03  0.00000000000E+00 0.  1.
         13   -1    0    0    0    0 -0.00000000000E+00 -0.00000000000E+00 -0.27500000000E+03  0.27500000000E+03  0.00000000000E+00 0.  1.
    9000005    2    1    2  501    0 -0.68348001702E+01 -0.32471490055E+02 -0.58235408372E+02  0.47100009860E+03  0.46620662580E+03 0.  0.
         13    1    3    3    0    0 -0.18533658845E+03 -0.15710998158E+03  0.90308115320E+01  0.24313525636E+03  0.00000000000E+00 0.  1.
          1    1    3    3  501    0  0.17850178828E+03  0.12463849152E+03 -0.67266219904E+02  0.22786484224E+03  0.00000000000E+00 0.  1.
         21    1    1    2  502  501  0.68348001702E+01  0.32471490055E+02  0.16132057460E+02  0.36896550485E+02  0.00000000000E+00 0.  1.
<scales pt_clust_4="550.00000" pt_clust_5="550.00000" pt_clust_6="33.18301"></scales>
<mgrwt>
<rscale>  0 0.30000000E+03</rscale>
<asrwt>  1 0.33183010E+02</asrwt>
<pdfrwt beam="1">  1        1 0.84689691E+00 0.30000000E+03</pdfrwt>
<pdfrwt beam="2">0</pdfrwt>
<totfact> 0.43902254E-04</totfact>
</mgrwt>
<clustering>
<clus scale="   33.183">  1  6  2 -1</clus>
<clus scale="  466.207">  4  5 -1 -1</clus>
<clus scale="  300.000">  1  4  2 -1</clus>
</clustering>
</event>
<event>
 6    1  0.1007353E-011  0.3000000E+03  0.7818608E-02  0.1093470E+00
          1   -1    0    0  502    0  0.00000000000E+00  0.00000000000E+00  0.23756700955E+03  0.23756700955E+03  0.00000000000E+00 0.  1.
         13   -1    0    0    0    0 -0.00000000000E+00 -0.00000000000E+00 -0.27500000000E+03  0.27500000000E+03  0.00000000000E+00 0.  1.
    9000005    2    1    2  501    0  0.23552296370E+02 -0.19897396211E+02 -0.25477731145E+02  0.47949821361E+03  0.47782717067E+03 0.  0.
         13    1    3    3    0    0  0.10195936914E+03  0.53459146534E+02  0.19943066111E+03  0.23027414509E+03  0.00000000000E+00 0.  1.
          1    1    3    3  501    0 -0.78407072774E+02 -0.73356542745E+02 -0.22490839225E+03  0.24922406852E+03  0.00000000000E+00 0.  1.
         21    1    1    2  502  501 -0.23552296370E+02  0.19897396211E+02 -0.11955259302E+02  0.33068795945E+02  0.00000000000E+00 0.  1.
<scales pt_clust_4="550.00000" pt_clust_5="550.00000" pt_clust_6="30.83209"></scales>
<mgrwt>
<rscale>  0 0.30000000E+03</rscale>
<asrwt>  1 0.30832094E+02</asrwt>
<pdfrwt beam="1">  1        1 0.86388003E+00 0.30000000E+03</pdfrwt>
<pdfrwt beam="2">0</pdfrwt>
<totfact> 0.30089853E-04</totfact>
</mgrwt>
<clustering>
<clus scale="   30.832">  1  6  2 -1</clus>
<clus scale="  477.827">  4  5 -1 -1</clus>
<clus scale="  300.000">  1  4  2 -1</clus>
</clustering>
</event>
<event>
 6    1  0.1007353E-011  0.3000000E+03  0.7818608E-02  0.1093470E+00
          1   -1    0    0  502    0  0.00000000000E+00  0.00000000000E+00  0.22222023752E+03  0.22222023752E+03  0.00000000000E+00 0.  1.
         13   -1    0    0    0    0 -0.00000000000E+00 -0.00000000000E+00 -0.27500000000E+03  0.27500000000E+03  0.00000000000E+00 0.  1.
    9000005    2    1    2  501    0  0.28518644524E+02 -0.15836218937E+02 -0.42961608908E+02  0.46315419790E+03  0.46000218725E+03 0.  0.
         13    1    3    3    0    0 -0.11137507625E+03 -0.45940071492E+02  0.16891745045E+03  0.20748012639E+03  0.00000000000E+00 0.  1.
          1    1    3    3  501    0  0.13989372077E+03  0.30103852556E+02 -0.21187905936E+03  0.25567407152E+03  0.00000000000E+00 0.  1.
         21    1    1    2  502  501 -0.28518644524E+02  0.15836218937E+02 -0.98181535716E+01  0.34066039618E+02  0.00000000000E+00 0.  1.
<scales pt_clust_4="550.00000" pt_clust_5="550.00000" pt_clust_6="32.62055"></scales>
<mgrwt>
<rscale>  0 0.30000000E+03</rscale>
<asrwt>  1 0.32620545E+02</asrwt>
<pdfrwt beam="1">  1        1 0.80807359E+00 0.30000000E+03</pdfrwt>
<pdfrwt beam="2">0</pdfrwt>
<totfact> 0.91471441E-04</totfact>
</mgrwt>
<clustering>
<clus scale="   32.621">  1  6  2 -1</clus>
<clus scale="  460.002">  4  5 -1 -1</clus>
<clus scale="  300.000">  1  4  2 -1</clus>
</clustering>
</event>
<event>
 6    1  0.1007353E-011  0.3000000E+03  0.7818608E-02  0.1093470E+00
          1   -1    0    0  502    0  0.00000000000E+00  0.00000000000E+00  0.23890769187E+03  0.23890769187E+03  0.00000000000E+00 0.  1.
         13   -1    0    0    0    0 -0.00000000000E+00 -0.00000000000E+00 -0.27500000000E+03  0.27500000000E+03  0.00000000000E+00 0.  1.
    9000005    2    1    2  501    0 -0.24750460571E+02 -0.25847913202E+02 -0.39553549071E+02  0.47795383110E+03  0.47496808472E+03 0.  0.
         13    1    3    3    0    0 -0.57312377397E+02 -0.13813161317E+03  0.17708385246E+03  0.23178382593E+03  0.00000000000E+00 0.  1.
          3    1    3    3  501    0  0.32561916827E+02  0.11228369996E+03 -0.21663740153E+03  0.24617000517E+03  0.00000000000E+00 0.  1.
         21    1    1    2  502  501  0.24750460571E+02  0.25847913202E+02  0.34612409381E+01  0.35953860769E+02  0.00000000000E+00 0.  1.
<scales pt_clust_4="550.00000" pt_clust_5="550.00000" pt_clust_6="35.78687"></scales>
<mgrwt>
<rscale>  0 0.30000000E+03</rscale>
<asrwt>  1 0.35786868E+02</asrwt>
<pdfrwt beam="1">  1        1 0.86875524E+00 0.30000000E+03</pdfrwt>
<pdfrwt beam="2">0</pdfrwt>
<totfact> 0.25973236E-04</totfact>
</mgrwt>
<clustering>
<clus scale="   35.787">  1  6  2 -1</clus>
<clus scale="  474.968">  4  5 -1 -1</clus>
<clus scale="  300.000">  1  4  2 -1</clus>
</clustering>
</event>
<event>
 6    1  0.1007353E-011  0.3000000E+03  0.7818608E-02  0.1093470E+00
          1   -1    0    0  502    0  0.00000000000E+00  0.00000000000E+00  0.23013521769E+03  0.23013521769E+03  0.00000000000E+00 0.  1.
         13   -1    0    0    0    0 -0.00000000000E+00 -0.00000000000E+00 -0.27500000000E+03  0.27500000000E+03  0.00000000000E+00 0.  1.
    9000005    2    1    2  501    0  0.30540566853E+02 -0.81378924643E+01 -0.46592762351E+02  0.47348182241E+03  0.47012253630E+03 0.  0.
         13    1    3    3    0    0 -0.35859523120E+02  0.18855097475E+03 -0.14807321256E+03  0.24241091509E+03  0.00000000000E+00 0.  1.
          1    1    3    3  501    0  0.66400089973E+02 -0.19668886722E+03  0.10148045021E+03  0.23107090732E+03  0.00000000000E+00 0.  1.
         21    1    1    2  502  501 -0.30540566853E+02  0.81378924643E+01  0.17279800406E+01  0.31653395276E+02  0.00000000000E+00 0.  1.
<scales pt_clust_4="550.00000" pt_clust_5="550.00000" pt_clust_6="31.60619"></scales>
<mgrwt>
<rscale>  0 0.30000000E+03</rscale>
<asrwt>  1 0.31606194E+02</asrwt>
<pdfrwt beam="1">  1        1 0.83685534E+00 0.30000000E+03</pdfrwt>
<pdfrwt beam="2">0</pdfrwt>
<totfact> 0.53465512E-04</totfact>
</mgrwt>
<clustering>
<clus scale="   31.606">  1  6  2 -1</clus>
<clus scale="  470.123">  4  5 -1 -1</clus>
<clus scale="  300.000">  1  4  2 -1</clus>
</clustering>
</event>
<event>
 6    1  0.1007353E-011  0.3000000E+03  0.7818608E-02  0.1093470E+00
          1   -1    0    0  502    0  0.00000000000E+00  0.00000000000E+00  0.25921728545E+03  0.25921728545E+03  0.00000000000E+00 0.  1.
         13   -1    0    0    0    0 -0.00000000000E+00 -0.00000000000E+00 -0.27500000000E+03  0.27500000000E+03  0.00000000000E+00 0.  1.
    9000005    2    1    2  501    0  0.30044548352E+02  0.23912025052E+02 -0.47169350561E+02  0.48462312503E+03  0.48079118737E+03 0.  0.
         13    1    3    3    0    0  0.10500327825E+03 -0.20879595630E+03  0.85603880230E+01  0.23386902329E+03  0.00000000000E+00 0.  1.
          1    1    3    3  501    0 -0.74958729900E+02  0.23270798136E+03 -0.55729738584E+02  0.25075410174E+03  0.00000000000E+00 0.  1.
         21    1    1    2  502  501 -0.30044548352E+02 -0.23912025052E+02  0.31386636012E+02  0.49594160422E+02  0.00000000000E+00 0. -1.
<scales pt_clust_4="550.00000" pt_clust_5="550.00000" pt_clust_6="38.39870"></scales>
<mgrwt>
<rscale>  0 0.30000000E+03</rscale>
<asrwt>  1 0.38398696E+02</asrwt>
<pdfrwt beam="1">  1        1 0.94260831E+00 0.30000000E+03</pdfrwt>
<pdfrwt beam="2">0</pdfrwt>
<totfact> 0.16947287E-05</totfact>
</mgrwt>
<clustering>
<clus scale="   38.399">  1  6  2 -1</clus>
<clus scale="  480.791">  4  5 -1 -1</clus>
<clus scale="  300.000">  1  4  2 -1</clus>
</clustering>
</event>
<event>
 6    1  0.1007353E-011  0.3000000E+03  0.7818608E-02  0.1093470E+00
          1   -1    0    0  502    0  0.00000000000E+00  0.00000000000E+00  0.24586014245E+03  0.24586014245E+03  0.00000000000E+00 0.  1.
         13   -1    0    0    0    0 -0.00000000000E+00 -0.00000000000E+00 -0.27500000000E+03  0.27500000000E+03  0.00000000000E+00 0.  1.
    9000005    2    1    2  501    0  0.16441426401E+02  0.48945092073E+02 -0.29839733110E+02  0.46922263316E+03  0.46541758374E+03 0.  0.
         13    1    3    3    0    0 -0.56073860538E+02  0.19181980950E+03  0.13356470251E+03  0.24037189293E+03  0.00000000000E+00 0.  1.
          1    1    3    3  501    0  0.72515286939E+02 -0.14287471743E+03 -0.16340443562E+03  0.22885074023E+03  0.00000000000E+00 0.  1.
         21    1    1    2  502  501 -0.16441426401E+02 -0.48945092073E+02  0.69987556048E+00  0.51637509292E+02  0.00000000000E+00 0. -1.
<scales pt_clust_4="550.00000" pt_clust_5="550.00000" pt_clust_6="51.63277"></scales>
<mgrwt>
<rscale>  0 0.30000000E+03</rscale>
<asrwt>  1 0.51632766E+02</asrwt>
<pdfrwt beam="1">  1        1 0.89403688E+00 0.30000000E+03</pdfrwt>
<pdfrwt beam="2">0</pdfrwt>
<totfact> 0.12053054E-04</totfact>
</mgrwt>
<clustering>
<clus scale="   51.633">  1  6  2 -1</clus>
<clus scale="  465.418">  4  5 -1 -1</clus>
<clus scale="  300.000">  1  4  2 -1</clus>
</clustering>
</event>
<event>
 6    1  0.1007353E-011  0.3000000E+03  0.7818608E-02  0.1093470E+00
          1   -1    0    0  502    0  0.00000000000E+00  0.00000000000E+00  0.24991015358E+03  0.24991015358E+03  0.00000000000E+00 0.  1.
         13   -1    0    0    0    0 -0.00000000000E+00 -0.00000000000E+00 -0.27500000000E+03  0.27500000000E+03  0.00000000000E+00 0.  1.
    9000005    2    1    2  501    0 -0.39890691838E+02 -0.36048413934E+00 -0.26863576102E+02  0.48497841981E+03  0.48258783524E+03 0.  0.
         13    1    3    3    0    0  0.11338815906E+03 -0.19829319456E+03 -0.49130202887E+02  0.23364683276E+03  0.00000000000E+00 0.  1.
          1    1    3    3  501    0 -0.15327885089E+03  0.19793271042E+03  0.22266626785E+02  0.25133158706E+03  0.00000000000E+00 0.  1.
         21    1    1    2  502  501  0.39890691838E+02  0.36048413934E+00  0.17737296773E+01  0.39931733760E+02  0.00000000000E+00 0. -1.
<scales pt_clust_4="550.00000" pt_clust_5="550.00000" pt_clust_6="39.89232"></scales>
<mgrwt>
<rscale>  0 0.30000000E+03</rscale>
<asrwt>  1 0.39892321E+02</asrwt>
<pdfrwt beam="1">  1        1 0.90876419E+00 0.30000000E+03</pdfrwt>
<pdfrwt beam="2">0</pdfrwt>
<totfact> 0.75066701E-05</totfact>
</mgrwt>
<clustering>
<clus scale="   39.892">  1  6  2 -1</clus>
<clus scale="  482.588">  4  5 -1 -1</clus>
<clus scale="  300.000">  1  4  2 -1</clus>
</clustering>
</event>
<event>
 6    1  0.1007353E-011  0.3000000E+03  0.7818608E-02  0.1093470E+00
          1   -1    0    0  502    0  0.00000000000E+00  0.00000000000E+00  0.23982189005E+03  0.23982189005E+03  0.00000000000E+00 0.  1.
         13   -1    0    0    0    0 -0.00000000000E+00 -0.00000000000E+00 -0.27500000000E+03  0.27500000000E+03  0.00000000000E+00 0.  1.
    9000005    2    1    2  501    0  0.27144607125E+02 -0.19386955058E+02 -0.52941675130E+02  0.47702998655E+03  0.47290813418E+03 0.  0.
         13    1    3    3    0    0 -0.30375017152E+02  0.10295351538E+03  0.17891218844E+03  0.20864237146E+03  0.00000000000E+00 0.  1.
          1    1    3    3  501    0  0.57519624276E+02 -0.12234047043E+03 -0.23185386357E+03  0.26838761509E+03  0.00000000000E+00 0.  1.
         21    1    1    2  502  501 -0.27144607125E+02  0.19386955058E+02  0.17763565176E+02  0.37791903500E+02  0.00000000000E+00 0.  1.
<scales pt_clust_4="550.00000" pt_clust_5="550.00000" pt_clust_6="33.35691"></scales>
<mgrwt>
<rscale>  0 0.30000000E+03</rscale>
<asrwt>  1 0.33356914E+02</asrwt>
<pdfrwt beam="1">  1        1 0.87207960E+00 0.30000000E+03</pdfrwt>
<pdfrwt beam="2">0</pdfrwt>
<totfact> 0.24335356E-04</totfact>
</mgrwt>
<clustering>
<clus scale="   33.357">  1  6  2 -1</clus>
<clus scale="  472.908">  4  5 -1 -1</clus>
<clus scale="  300.000">  1  4  2 -1</clus>
</clustering>
</event>
<event>
 6    1  0.1007353E-011  0.3000000E+03  0.7818608E-02  0.1093470E+00
          1   -1    0    0  502    0  0.00000000000E+00  0.00000000000E+00  0.25199376854E+03  0.25199376854E+03  0.00000000000E+00 0.  1.
         13   -1    0    0    0    0 -0.00000000000E+00 -0.00000000000E+00 -0.27500000000E+03  0.27500000000E+03  0.00000000000E+00 0.  1.
    9000005    2    1    2  501    0 -0.23158747769E+02 -0.31705824063E+02 -0.58039311066E+02  0.47437339659E+03  0.46916944794E+03 0.  0.
         13    1    3    3    0    0 -0.26548646033E+02 -0.16023183190E+03 -0.21628697081E+03  0.27047943416E+03  0.00000000000E+00 0.  1.
          1    1    3    3  501    0  0.33898982639E+01  0.12852600784E+03  0.15824765974E+03  0.20389396243E+03  0.00000000000E+00 0.  1.
         21    1    1    2  502  501  0.23158747769E+02  0.31705824063E+02  0.35033079602E+02  0.52620371950E+02  0.00000000000E+00 0.  1.
<scales pt_clust_4="550.00000" pt_clust_5="550.00000" pt_clust_6="39.26305"></scales>
<mgrwt>
<rscale>  0 0.30000000E+03</rscale>
<asrwt>  1 0.39263047E+02</asrwt>
<pdfrwt beam="1">  1        1 0.91634098E+00 0.30000000E+03</pdfrwt>
<pdfrwt beam="2">0</pdfrwt>
<totfact> 0.49367044E-05</totfact>
</mgrwt>
<clustering>
<clus scale="   39.263">  1  6  2 -1</clus>
<clus scale="  469.169">  4  5 -1 -1</clus>
<clus scale="  300.000">  1  4  2 -1</clus>
</clustering>
</event>
<event>
 6    1  0.1007353E-011  0.3000000E+03  0.7818608E-02  0.1093470E+00
          1   -1    0    0  502    0  0.00000000000E+00  0.00000000000E+00  0.23980249342E+03  0.23980249342E+03  0.00000000000E+00 0.  1.
         13   -1    0    0    0    0 -0.00000000000E+00 -0.00000000000E+00 -0.27500000000E+03  0.27500000000E+03  0.00000000000E+00 0.  1.
    9000005    2    1    2  501    0  0.41163796827E+02  0.41202476780E+00 -0.50361974485E+02  0.47093235528E+03  0.46641861760E+03 0.  0.
         13    1    3    3    0    0  0.13787486251E+03  0.18916153934E+03  0.45055751753E+02  0.23837278881E+03  0.00000000000E+00 0.  1.
          3    1    3    3  501    0 -0.96711065686E+02 -0.18874951457E+03 -0.95417726238E+02  0.23255956647E+03  0.00000000000E+00 0.  1.
         21    1    1    2  502  501 -0.41163796827E+02 -0.41202476780E+00  0.15164467902E+02  0.43870138140E+02  0.00000000000E+00 0.  1.
<scales pt_clust_4="550.00000" pt_clust_5="550.00000" pt_clust_6="41.16586"></scales>
<mgrwt>
<rscale>  0 0.30000000E+03</rscale>
<asrwt>  1 0.41165859E+02</asrwt>
<pdfrwt beam="1">  1        1 0.87200907E+00 0.30000000E+03</pdfrwt>
<pdfrwt beam="2">0</pdfrwt>
<totfact> 0.23445064E-04</totfact>
</mgrwt>
<clustering>
<clus scale="   41.166">  1  6  2 -1</clus>
<clus scale="  466.419">  4  5 -1 -1</clus>
<clus scale="  300.000">  1  4  2 -1</clus>
</clustering>
</event>
<event>
 6    1  0.1007353E-011  0.3000000E+03  0.7818608E-02  0.1093470E+00
          1   -1    0    0  502    0  0.00000000000E+00  0.00000000000E+00  0.23536063005E+03  0.23536063005E+03  0.00000000000E+00 0.  1.
         13   -1    0    0    0    0 -0.00000000000E+00 -0.00000000000E+00 -0.27500000000E+03  0.27500000000E+03  0.00000000000E+00 0.  1.
    9000005    2    1    2  501    0 -0.25221016337E+02 -0.19693972231E+02 -0.60831381456E+02  0.47198025018E+03  0.46694854897E+03 0.  0.
         13    1    3    3    0    0 -0.54213966149E+02 -0.14961389882E+03 -0.21551832005E+03  0.26790225666E+03  0.00000000000E+00 0.  1.
          1    1    3    3  501    0  0.28992949812E+02  0.12991992659E+03  0.15468693860E+03  0.20407799352E+03  0.00000000000E+00 0.  1.
         21    1    1    2  502  501  0.25221016337E+02  0.19693972231E+02  0.21192011501E+02  0.38380379868E+02  0.00000000000E+00 0. -1.
<scales pt_clust_4="550.00000" pt_clust_5="550.00000" pt_clust_6="31.99925"></scales>
<mgrwt>
<rscale>  0 0.30000000E+03</rscale>
<asrwt>  1 0.31999253E+02</asrwt>
<pdfrwt beam="1">  1        1 0.85585684E+00 0.30000000E+03</pdfrwt>
<pdfrwt beam="2">0</pdfrwt>
<totfact> 0.36330984E-04</totfact>
</mgrwt>
<clustering>
<clus scale="   31.999">  1  6  2 -1</clus>
<clus scale="  466.949">  4  5 -1 -1</clus>
<clus scale="  300.000">  1  4  2 -1</clus>
</clustering>
</event>
<event>
 6    1  0.1007353E-011  0.3000000E+03  0.7818608E-02  0.1093470E+00
          1   -1    0    0  502    0  0.00000000000E+00  0.00000000000E+00  0.25079268099E+03  0.25079268099E+03  0.00000000000E+00 0.  1.
         13   -1    0    0    0    0 -0.00000000000E+00 -0.00000000000E+00 -0.27500000000E+03  0.27500000000E+03  0.00000000000E+00 0.  1.
    9000005    2    1    2  501    0  0.41608987626E+00  0.33743874445E+02 -0.40748778649E+02  0.48821021060E+03  0.48533485820E+03 0.  0.
         13    1    3    3    0    0  0.29641009018E+02 -0.21939646613E+03 -0.68838132646E+02  0.23184496387E+03  0.00000000000E+00 0.  1.
          3    1    3    3  501    0 -0.29224919142E+02  0.25314034057E+03  0.28089353997E+02  0.25636524673E+03  0.00000000000E+00 0.  1.
         21    1    1    2  502  501 -0.41608987626E+00 -0.33743874445E+02  0.16541459634E+02  0.37582470384E+02  0.00000000000E+00 0. -1.
<scales pt_clust_4="550.00000" pt_clust_5="550.00000" pt_clust_6="33.74644"></scales>
<mgrwt>
<rscale>  0 0.30000000E+03</rscale>
<asrwt>  1 0.33746440E+02</asrwt>
<pdfrwt beam="1">  1        1 0.91197339E+00 0.30000000E+03</pdfrwt>
<pdfrwt beam="2">0</pdfrwt>
<totfact> 0.64647811E-05</totfact>
</mgrwt>
<clustering>
<clus scale="   33.746">  1  6  2 -1</clus>
<clus scale="  485.335">  4  5 -1 -1</clus>
<clus scale="  300.000">  1  4  2 -1</clus>
</clustering>
</event>
<event>
 6    1  0.1007353E-011  0.3000000E+03  0.7818608E-02  0.1093470E+00
          1   -1    0    0  502    0  0.00000000000E+00  0.00000000000E+00  0.23125488460E+03  0.23125488460E+03  0.00000000000E+00 0.  1.
         13   -1    0    0    0    0 -0.00000000000E+00 -0.00000000000E+00 -0.27500000000E+03  0.27500000000E+03  0.00000000000E+00 0.  1.
    9000005    2    1    2  501    0 -0.17081307889E+02  0.38277697285E+02 -0.45395794664E+02  0.46430636936E+03  0.46017678480E+03 0.  0.
         13    1    3    3    0    0  0.67869814801E+02  0.18476803319E+02  0.19567817844E+03  0.20793665751E+03  0.00000000000E+00 0.  1.
          1    1    3    3  501    0 -0.84951122690E+02  0.19800893966E+02 -0.24107397310E+03  0.25636971185E+03  0.00000000000E+00 0.  1.
         21    1    1    2  502  501  0.17081307889E+02 -0.38277697285E+02  0.16506792663E+01  0.41948515238E+02  0.00000000000E+00 0. -1.
<scales pt_clust_4="550.00000" pt_clust_5="550.00000" pt_clust_6="41.91603"></scales>
<mgrwt>
<rscale>  0 0.30000000E+03</rscale>
<asrwt>  1 0.41916025E+02</asrwt>
<pdfrwt beam="1">  1        1 0.84092685E+00 0.30000000E+03</pdfrwt>
<pdfrwt beam="2">0</pdfrwt>
<totfact> 0.47289727E-04</totfact>
</mgrwt>
<clustering>
<clus scale="   41.916">  1  6  2 -1</clus>
<clus scale="  460.177">  4  5 -1 -1</clus>
<clus scale="  300.000">  1  4  2 -1</clus>
</clustering>
</event>
<event>
 6    1  0.1007353E-011  0.3000000E+03  0.7818608E-02  0.1093470E+00
          1   -1    0    0  502    0  0.00000000000E+00  0.00000000000E+00  0.23468280897E+03  0.23468280897E+03  0.00000000000E+00 0.  1.
         13   -1    0    0    0    0 -0.00000000000E+00 -0.00000000000E+00 -0.27500000000E+03  0.27500000000E+03  0.00000000000E+00 0.  1.
    9000005    2    1    2  501    0  0.25881087630E+01 -0.45360390154E+02 -0.41586271687E+02  0.46423092378E+03  0.46012679698E+03 0.  0.
         13    1    3    3    0    0  0.10735489042E+03  0.44269815259E+02 -0.21399494380E+03  0.24347222637E+03  0.00000000000E+00 0.  1.
          1    1    3    3  501    0 -0.10476678165E+03 -0.89630205413E+02  0.17240867212E+03  0.22075869741E+03  0.00000000000E+00 0.  1.
         21    1    1    2  502  501 -0.25881087630E+01  0.45360390154E+02  0.12690806605E+01  0.45451885194E+02  0.00000000000E+00 0.  1.
<scales pt_clust_4="550.00000" pt_clust_5="550.00000" pt_clust_6="45.43416"></scales>
<mgrwt>
<rscale>  0 0.30000000E+03</rscale>
<asrwt>  1 0.45434164E+02</asrwt>
<pdfrwt beam="1">  1        1 0.85339203E+00 0.30000000E+03</pdfrwt>
<pdfrwt beam="2">0</pdfrwt>
<totfact> 0.36017871E-04</totfact>
</mgrwt>
<clustering>
<clus scale="   45.434">  1  6  2 -1</clus>
<clus scale="  460.127">  4  5 -1 -1</clus>
<clus scale="  300.000">  1  4  2 -1</clus>
</clustering>
</event>
<event>
 6    1  0.1007353E-011  0.3000000E+03  0.7818608E-02  0.1093470E+00
          1   -1    0    0  502    0  0.00000000000E+00  0.00000000000E+00  0.23438105890E+03  0.23438105890E+03  0.00000000000E+00 0.  1.
         13   -1    0    0    0    0 -0.00000000000E+00 -0.00000000000E+00 -0.27500000000E+03  0.27500000000E+03  0.00000000000E+00 0.  1.
    9000005    2    1    2  501    0  0.67986660448E+00  0.40084758272E+02 -0.46403490542E+02  0.46887536700E+03  0.46484790607E+03 0.  0.
         13    1    3    3    0    0  0.15488798327E+03 -0.91737129768E+02  0.11153848113E+03  0.21177068048E+03  0.00000000000E+00 0.  1.
          1    1    3    3  501    0 -0.15420811667E+03  0.13182188804E+03 -0.15794197167E+03  0.25710468651E+03  0.00000000000E+00 0.  1.
         21    1    1    2  502  501 -0.67986660448E+00 -0.40084758272E+02  0.57845494445E+01  0.40505691904E+02  0.00000000000E+00 0.  1.
<scales pt_clust_4="550.00000" pt_clust_5="550.00000" pt_clust_6="40.09052"></scales>
<mgrwt>
<rscale>  0 0.30000000E+03</rscale>
<asrwt>  1 0.40090523E+02</asrwt>
<pdfrwt beam="1">  1        1 0.85229476E+00 0.30000000E+03</pdfrwt>
<pdfrwt beam="2">0</pdfrwt>
<totfact> 0.37748233E-04</totfact>
</mgrwt>
<clustering>
<clus scale="   40.091">  1  6  2 -1</clus>
<clus scale="  464.848">  4  5 -1 -1</clus>
<clus scale="  300.000">  1  4  2 -1</clus>
</clustering>
</event>
<event>
 6    1  0.1007353E-011  0.3000000E+03  0.7818608E-02  0.1093470E+00
          1   -1    0    0  502    0  0.00000000000E+00  0.00000000000E+00  0.24619515601E+03  0.24619515601E+03  0.00000000000E+00 0.  1.
         13   -1    0    0    0    0 -0.00000000000E+00 -0.00000000000E+00 -0.27500000000E+03  0.27500000000E+03  0.00000000000E+00 0.  1.
    9000005    2    1    2  501    0 -0.30158819828E+02 -0.36614743183E+01 -0.43949379366E+02  0.48724934980E+03  0.48431128432E+03 0.  0.
         13    1    3    3    0    0  0.21839142451E+03  0.37523492524E+02  0.32509500272E+02  0.22396360061E+03  0.00000000000E+00 0.  1.
          3    1    3    3  501    0 -0.24855024433E+03 -0.41184966842E+02 -0.76458879638E+02  0.26328574919E+03  0.00000000000E+00 0.  1.
         21    1    1    2  502  501  0.30158819828E+02  0.36614743183E+01  0.15144535376E+02  0.33945806212E+02  0.00000000000E+00 0.  1.
<scales pt_clust_4="550.00000" pt_clust_5="550.00000" pt_clust_6="30.38027"></scales>
<mgrwt>
<rscale>  0 0.30000000E+03</rscale>
<asrwt>  1 0.30380270E+02</asrwt>
<pdfrwt beam="1">  1        1 0.89525511E+00 0.30000000E+03</pdfrwt>
<pdfrwt beam="2">0</pdfrwt>
<totfact> 0.12867192E-04</totfact>
</mgrwt>
<clustering>
<clus scale="   30.380">  1  6  2 -1</clus>
<clus scale="  484.311">  4  5 -1 -1</clus>
<clus scale="  300.000">  1  4  2 -1</clus>
</clustering>
</event>
<event>
 6    1  0.1007353E-011  0.3000000E+03  0.7818608E-02  0.1093470E+00
          1   -1    0    0  502    0  0.00000000000E+00  0.00000000000E+00  0.24486623878E+03  0.24486623878E+03  0.00000000000E+00 0.  1.
         13   -1    0    0    0    0 -0.00000000000E+00 -0.00000000000E+00 -0.27500000000E+03  0.27500000000E+03  0.00000000000E+00 0.  1.
    9000005    2    1    2  501    0 -0.20157985152E+02  0.31208318873E+02 -0.29044137479E+02  0.48269782730E+03  0.48038872491E+03 0.  0.
         13    1    3    3    0    0 -0.17273349714E+03  0.10140344563E+03  0.14002427601E+03  0.24438968409E+03  0.00000000000E+00 0.  1.
          1    1    3    3  501    0  0.15257551199E+03 -0.70195126756E+02 -0.16906841349E+03  0.23830814321E+03  0.00000000000E+00 0.  1.
         21    1    1    2  502  501  0.20157985152E+02 -0.31208318873E+02 -0.10896237392E+01  0.37168411483E+02  0.00000000000E+00 0.  1.
<scales pt_clust_4="550.00000" pt_clust_5="550.00000" pt_clust_6="37.15244"></scales>
<mgrwt>
<rscale>  0 0.30000000E+03</rscale>
<asrwt>  1 0.37152436E+02</asrwt>
<pdfrwt beam="1">  1        1 0.89042269E+00 0.30000000E+03</pdfrwt>
<pdfrwt beam="2">0</pdfrwt>
<totfact> 0.14152168E-04</totfact>
</mgrwt>
<clustering>
<clus scale="   37.152">  1  6  2 -1</clus>
<clus scale="  480.389">  4  5 -1 -1</clus>
<clus scale="  300.000">  1  4  2 -1</clus>
</clustering>
</event>
<event>
 6    1  0.1007353E-011  0.3000000E+03  0.7818608E-02  0.1093470E+00
          1   -1    0    0  502    0  0.00000000000E+00  0.00000000000E+00  0.22333318745E+03  0.22333318745E+03  0.00000000000E+00 0.  1.
         13   -1    0    0    0    0 -0.00000000000E+00 -0.00000000000E+00 -0.27500000000E+03  0.27500000000E+03  0.00000000000E+00 0.  1.
    9000005    2    1    2  501    0 -0.11983357157E+02  0.29963718295E+02 -0.30836661395E+02  0.45992328691E+03  0.45775223090E+03 0.  0.
         13    1    3    3    0    0  0.54246816932E+02 -0.20164132660E+03  0.31315253162E+02  0.21114588990E+03  0.00000000000E+00 0.  1.
          1    1    3    3  501    0 -0.66230174090E+02  0.23160504489E+03 -0.62151914558E+02  0.24877739701E+03  0.00000000000E+00 0.  1.
         21    1    1    2  502  501  0.11983357157E+02 -0.29963718295E+02 -0.20830151153E+02  0.38409900545E+02  0.00000000000E+00 0.  1.
<scales pt_clust_4="550.00000" pt_clust_5="550.00000" pt_clust_6="32.27114"></scales>
<mgrwt>
<rscale>  0 0.30000000E+03</rscale>
<asrwt>  1 0.32271137E+02</asrwt>
<pdfrwt beam="1">  1        1 0.81212068E+00 0.30000000E+03</pdfrwt>
<pdfrwt beam="2">0</pdfrwt>
<totfact> 0.85228747E-04</totfact>
</mgrwt>
<clustering>
<clus scale="   32.271">  1  6  2 -1</clus>
<clus scale="  457.752">  4  5 -1 -1</clus>
<clus scale="  300.000">  1  4  2 -1</clus>
</clustering>
</event>
<event>
 6    1  0.1007353E-011  0.3000000E+03  0.7818608E-02  0.1093470E+00
          1   -1    0    0  502    0  0.00000000000E+00  0.00000000000E+00  0.22940349786E+03  0.22940349786E+03  0.00000000000E+00 0.  1.
         13   -1    0    0    0    0 -0.00000000000E+00 -0.00000000000E+00 -0.27500000000E+03  0.27500000000E+03  0.00000000000E+00 0.  1.
    9000005    2    1    2  501    0  0.51124124487E+01  0.37338560468E+02 -0.59711991294E+02  0.46415984131E+03  0.45875759560E+03 0.  0.
         13    1    3    3    0    0  0.15685022463E+03 -0.15139133329E+03 -0.22467072845E+02  0.21914857545E+03  0.00000000000E+00 0.  1.
          3    1    3    3  501    0 -0.15173781218E+03  0.18872989376E+03 -0.37244918449E+02  0.24501126585E+03  0.00000000000E+00 0.  1.
         21    1    1    2  502  501 -0.51124124487E+01 -0.37338560468E+02  0.14115489155E+02  0.40243656555E+02  0.00000000000E+00 0. -1.
<scales pt_clust_4="550.00000" pt_clust_5="550.00000" pt_clust_6="37.68693"></scales>
<mgrwt>
<rscale>  0 0.30000000E+03</rscale>
<asrwt>  1 0.37686932E+02</asrwt>
<pdfrwt beam="1">  1        1 0.83419454E+00 0.30000000E+03</pdfrwt>
<pdfrwt beam="2">0</pdfrwt>
<totfact> 0.54091376E-04</totfact>
</mgrwt>
<clustering>
<clus scale="   37.687">  1  6  2 -1</clus>
<clus scale="  458.758">  4  5 -1 -1</clus>
<clus scale="  300.000">  1  4  2 -1</clus>
</clustering>
</event>
<event>
 6    1  0.1007353E-011  0.3000000E+03  0.7818608E-02  0.1093470E+00
          1   -1    0    0  502    0  0.00000000000E+00  0.00000000000E+00  0.24127163800E+03  0.24127163800E+03  0.00000000000E+00 0.  1.
         13   -1    0    0    0    0 -0.00000000000E+00 -0.00000000000E+00 -0.27500000000E+03  0.27500000000E+03  0.00000000000E+00 0.  1.
    9000005    2    1    2  501    0  0.88939400091E+01 -0.28793332187E+02 -0.74773016174E+02  0.46535187972E+03  0.45831562254E+03 0.  0.
         13    1    3    3    0    0  0.10639760475E+03  0.84459884625E+02 -0.21896894975E+03  0.25768454234E+03  0.00000000000E+00 0.  1.
          3    1    3    3  501    0 -0.97503664739E+02 -0.11325321681E+03  0.14419593357E+03  0.20766733738E+03  0.00000000000E+00 0.  1.
         21    1    1    2  502  501 -0.88939400091E+01  0.28793332187E+02  0.41044654175E+02  0.50919758283E+02  0.00000000000E+00 0.  1.
<scales pt_clust_4="550.00000" pt_clust_5="550.00000" pt_clust_6="30.13566"></scales>
<mgrwt>
<rscale>  0 0.30000000E+03</rscale>
<asrwt>  1 0.30135662E+02</asrwt>
<pdfrwt beam="1">  1        1 0.87735141E+00 0.30000000E+03</pdfrwt>
<pdfrwt beam="2">0</pdfrwt>
<totfact> 0.21817195E-04</totfact>
</mgrwt>
<clustering>
<clus scale="   30.136">  1  6  2 -1</clus>
<clus scale="  458.316">  4  5 -1 -1</clus>
<clus scale="  300.000">  1  4  2 -1</clus>
</clustering>
</event>
<event>
 6    1  0.1007353E-011  0.3000000E+03  0.7818608E-02  0.1093470E+00
          1   -1    0    0  502    0  0.00000000000E+00  0.00000000000E+00  0.23477001548E+03  0.23477001548E+03  0.00000000000E+00 0.  1.
         13   -1    0    0    0    0 -0.00000000000E+00 -0.00000000000E+00 -0.27500000000E+03  0.27500000000E+03  0.00000000000E+00 0.  1.
    9000005    2    1    2  501    0 -0.13250275766E+02  0.31385867513E+02 -0.53332610995E+02  0.47326903867E+03  0.46901873425E+03 0.  0.
         13    1    3    3    0    0  0.10769173719E+03 -0.17498888263E+03  0.51927374227E+02  0.21193176142E+03  0.00000000000E+00 0.  1.
          1    1    3    3  501    0 -0.12094201295E+03  0.20637475014E+03 -0.10525998522E+03  0.26133727725E+03  0.00000000000E+00 0.  1.
         21    1    1    2  502  501  0.13250275766E+02 -0.31385867513E+02  0.13102626473E+02  0.36500976808E+02  0.00000000000E+00 0.  1.
<scales pt_clust_4="550.00000" pt_clust_5="550.00000" pt_clust_6="34.06820"></scales>
<mgrwt>
<rscale>  0 0.30000000E+03</rscale>
<asrwt>  1 0.34068203E+02</asrwt>
<pdfrwt beam="1">  1        1 0.85370915E+00 0.30000000E+03</pdfrwt>
<pdfrwt beam="2">0</pdfrwt>
<totfact> 0.37699637E-04</totfact>
</mgrwt>
<clustering>
<clus scale="   34.068">  1  6  2 -1</clus>
<clus scale="  469.019">  4  5 -1 -1</clus>
<clus scale="  300.000">  1  4  2 -1</clus>
</clustering>
</event>
<event>
 6    1  0.1007353E-011  0.3000000E+03  0.7818608E-02  0.1093470E+00
          1   -1    0    0  502    0  0.00000000000E+00  0.00000000000E+00  0.22134764426E+03  0.22134764426E+03  0.00000000000E+00 0.  1.
         13   -1    0    0    0    0 -0.00000000000E+00 -0.00000000000E+00 -0.27500000000E+03  0.27500000000E+03  0.00000000000E+00 0.  1.
    9000005    2    1    2  501    0  0.71707989983E+01  0.29994884284E+02 -0.56526358177E+02  0.46537389196E+03  0.46089751215E+03 0.  0.
         13    1    3    3    0    0  0.77017657096E+02  0.86174132389E+02  0.17916763174E+03  0.21321055523E+03  0.00000000000E+00 0.  1.
          3    1    3    3  501    0 -0.69846858098E+02 -0.56179248105E+02 -0.23569398992E+03  0.25216333673E+03  0.00000000000E+00 0.  1.
         21    1    1    2  502  501 -0.71707989983E+01 -0.29994884284E+02  0.28740024336E+01  0.30973752299E+02  0.00000000000E+00 0.  1.
<scales pt_clust_4="550.00000" pt_clust_5="550.00000" pt_clust_6="30.84013"></scales>
<mgrwt>
<rscale>  0 0.30000000E+03</rscale>
<asrwt>  1 0.30840127E+02</asrwt>
<pdfrwt beam="1">  1        1 0.80490052E+00 0.30000000E+03</pdfrwt>
<pdfrwt beam="2">0</pdfrwt>
<totfact> 0.97773521E-04</totfact>
</mgrwt>
<clustering>
<clus scale="   30.840">  1  6  2 -1</clus>
<clus scale="  460.898">  4  5 -1 -1</clus>
<clus scale="  300.000">  1  4  2 -1</clus>
</clustering>
</event>
<event>
 6    1  0.1007353E-011  0.3000000E+03  0.7818608E-02  0.1093470E+00
          1   -1    0    0  502    0  0.00000000000E+00  0.00000000000E+00  0.22440564008E+03  0.22440564008E+03  0.00000000000E+00 0.  1.
         13   -1    0    0    0    0 -0.00000000000E+00 -0.00000000000E+00 -0.27500000000E+03  0.27500000000E+03  0.00000000000E+00 0.  1.
    9000005    2    1    2  501    0  0.29137113006E+02  0.15428315851E+02 -0.58644711311E+02  0.46546727769E+03  0.46057961326E+03 0.  0.
         13    1    3    3    0    0  0.81445698244E+00 -0.10659599246E+03  0.17237324788E+03  0.20267191599E+03  0.00000000000E+00 0.  1.
          3    1    3    3  501    0  0.28322656023E+02  0.12202430831E+03 -0.23101795919E+03  0.26279536170E+03  0.00000000000E+00 0.  1.
         21    1    1    2  502  501 -0.29137113006E+02 -0.15428315851E+02  0.80503513931E+01  0.33938362392E+02  0.00000000000E+00 0. -1.
<scales pt_clust_4="550.00000" pt_clust_5="550.00000" pt_clust_6="32.96975"></scales>
<mgrwt>
<rscale>  0 0.30000000E+03</rscale>
<asrwt>  1 0.32969748E+02</asrwt>
<pdfrwt beam="1">  1        1 0.81602051E+00 0.30000000E+03</pdfrwt>
<pdfrwt beam="2">0</pdfrwt>
<totfact> 0.78982571E-04</totfact>
</mgrwt>
<clustering>
<clus scale="   32.970">  1  6  2 -1</clus>
<clus scale="  460.580">  4  5 -1 -1</clus>
<clus scale="  300.000">  1  4  2 -1</clus>
</clustering>
</event>
<event>
 6    1  0.1007353E-011  0.3000000E+03  0.7818608E-02  0.1093470E+00
          1   -1    0    0  502    0  0.00000000000E+00  0.00000000000E+00  0.23639957770E+03  0.23639957770E+03  0.00000000000E+00 0.  1.
         13   -1    0    0    0    0 -0.00000000000E+00 -0.00000000000E+00 -0.27500000000E+03  0.27500000000E+03  0.00000000000E+00 0.  1.
    9000005    2    1    2  501    0  0.12776576526E+02 -0.30759582877E+02 -0.59437802003E+02  0.47211103943E+03  0.46716869372E+03 0.  0.
         13    1    3    3    0    0  0.23833136476E+03 -0.35530553426E+02 -0.10116901977E+02  0.24117755153E+03  0.00000000000E+00 0.  1.
          1    1    3    3  501    0 -0.22555478823E+03  0.47709705490E+01 -0.49320900025E+02  0.23093348790E+03  0.00000000000E+00 0.  1.
         21    1    1    2  502  501 -0.12776576526E+02  0.30759582877E+02  0.20837379698E+02  0.39288538267E+02  0.00000000000E+00 0.  1.
<scales pt_clust_4="550.00000" pt_clust_5="550.00000" pt_clust_6="33.30755"></scales>
<mgrwt>
<rscale>  0 0.30000000E+03</rscale>
<asrwt>  1 0.33307549E+02</asrwt>
<pdfrwt beam="1">  1        1 0.85963483E+00 0.30000000E+03</pdfrwt>
<pdfrwt beam="2">0</pdfrwt>
<totfact> 0.32942693E-04</totfact>
</mgrwt>
<clustering>
<clus scale="   33.308">  1  6  2 -1</clus>
<clus scale="  467.169">  4  5 -1 -1</clus>
<clus scale="  300.000">  1  4  2 -1</clus>
</clustering>
</event>
<event>
 6    1  0.1007353E-011  0.3000000E+03  0.7818608E-02  0.1093470E+00
          1   -1    0    0  502    0  0.00000000000E+00  0.00000000000E+00  0.21944055355E+03  0.21944055355E+03  0.00000000000E+00 0.  1.
         13   -1    0    0    0    0 -0.00000000000E+00 -0.00000000000E+00 -0.27500000000E+03  0.27500000000E+03  0.00000000000E+00 0.  1.
    9000005    2    1    2  501    0 -0.23631731799E+02  0.20577715438E+02 -0.54295871233E+02  0.46307978597E+03  0.45881689749E+03 0.  0.
         13    1    3    3    0    0  0.16543384888E+03  0.33248091606E+02  0.11885152710E+03  0.20639641335E+03  0.00000000000E+00 0.  1.
          3    1    3    3  501    0 -0.18906558068E+03 -0.12670376168E+02 -0.17314739834E+03  0.25668337262E+03  0.00000000000E+00 0.  1.
         21    1    1    2  502  501  0.23631731799E+02 -0.20577715438E+02 -0.12635752212E+01  0.31360767573E+02  0.00000000000E+00 0.  1.
<scales pt_clust_4="550.00000" pt_clust_5="550.00000" pt_clust_6="31.33530"></scales>
<mgrwt>
<rscale>  0 0.30000000E+03</rscale>
<asrwt>  1 0.31335302E+02</asrwt>
<pdfrwt beam="1">  1        1 0.79796565E+00 0.30000000E+03</pdfrwt>
<pdfrwt beam="2">0</pdfrwt>
<totfact> 0.10954721E-03</totfact>
</mgrwt>
<clustering>
<clus scale="   31.335">  1  6  2 -1</clus>
<clus scale="  458.817">  4  5 -1 -1</clus>
<clus scale="  300.000">  1  4  2 -1</clus>
</clustering>
</event>
<event>
 6    1  0.1007353E-011  0.3000000E+03  0.7818608E-02  0.1093470E+00
          1   -1    0    0  502    0  0.00000000000E+00  0.00000000000E+00  0.25618500301E+03  0.25618500301E+03  0.00000000000E+00 0.  1.
         13   -1    0    0    0    0 -0.00000000000E+00 -0.00000000000E+00 -0.27500000000E+03  0.27500000000E+03  0.00000000000E+00 0.  1.
    9000005    2    1    2  501    0 -0.19150026476E+02 -0.37610930463E+02 -0.35087826884E+02  0.48595104898E+03  0.48284154835E+03 0.  0.
         13    1    3    3    0    0 -0.22376090462E+03 -0.77777280168E+02 -0.11413522112E+03  0.26295455206E+03  0.00000000000E+00 0.  1.
          3    1    3    3  501    0  0.20461087815E+03  0.40166349705E+02  0.79047394236E+02  0.22299649692E+03  0.00000000000E+00 0.  1.
         21    1    1    2  502  501  0.19150026476E+02  0.37610930463E+02  0.16272829899E+02  0.45233954031E+02  0.00000000000E+00 0.  1.
<scales pt_clust_4="550.00000" pt_clust_5="550.00000" pt_clust_6="42.20552"></scales>
<mgrwt>
<rscale>  0 0.30000000E+03</rscale>
<asrwt>  1 0.42205516E+02</asrwt>
<pdfrwt beam="1">  1        1 0.93158183E+00 0.30000000E+03</pdfrwt>
<pdfrwt beam="2">0</pdfrwt>
<totfact> 0.24060442E-05</totfact>
</mgrwt>
<clustering>
<clus scale="   42.206">  1  6  2 -1</clus>
<clus scale="  482.842">  4  5 -1 -1</clus>
<clus scale="  300.000">  1  4  2 -1</clus>
</clustering>
</event>
<event>
 6    1  0.1007353E-011  0.3000000E+03  0.7818608E-02  0.1093470E+00
          1   -1    0    0  502    0  0.00000000000E+00  0.00000000000E+00  0.23694335460E+03  0.23694335460E+03  0.00000000000E+00 0.  1.
         13   -1    0    0    0    0 -0.00000000000E+00 -0.00000000000E+00 -0.27500000000E+03  0.27500000000E+03  0.00000000000E+00 0.  1.
    9000005    2    1    2  501    0 -0.33423985332E+02  0.18055482942E+01 -0.73229982102E+02  0.46338837118E+03  0.45633948927E+03 0.  0.
         13    1    3    3    0    0 -0.75642292656E+02 -0.16384099471E+03  0.11116185354E+03  0.21194948848E+03  0.00000000000E+00 0.  1.
          1    1    3    3  501    0  0.42218307324E+02  0.16564654300E+03 -0.18439183564E+03  0.25143888270E+03  0.00000000000E+00 0.  1.
         21    1    1    2  502  501  0.33423985332E+02 -0.18055482942E+01  0.35173336702E+02  0.48554983419E+02  0.00000000000E+00 0.  1.
<scales pt_clust_4="550.00000" pt_clust_5="550.00000" pt_clust_6="33.47272"></scales>
<mgrwt>
<rscale>  0 0.30000000E+03</rscale>
<asrwt>  1 0.33472717E+02</asrwt>
<pdfrwt beam="1">  1        1 0.86161220E+00 0.30000000E+03</pdfrwt>
<pdfrwt beam="2">0</pdfrwt>
<totfact> 0.31344449E-04</totfact>
</mgrwt>
<clustering>
<clus scale="   33.473">  1  6  2 -1</clus>
<clus scale="  456.339">  4  5 -1 -1</clus>
<clus scale="  300.000">  1  4  2 -1</clus>
</clustering>
</event>
<event>
 6    1  0.1007353E-011  0.3000000E+03  0.7818608E-02  0.1093470E+00
          1   -1    0    0  502    0  0.00000000000E+00  0.00000000000E+00  0.22671452833E+03  0.22671452833E+03  0.00000000000E+00 0.  1.
         13   -1    0    0    0    0 -0.00000000000E+00 -0.00000000000E+00 -0.27500000000E+03  0.27500000000E+03  0.00000000000E+00 0.  1.
    9000005    2    1    2  501    0  0.32439372113E+02  0.63839222547E+00 -0.50935668074E+02  0.46916081965E+03  0.46525768344E+03 0.  0.
         13    1    3    3    0    0 -0.54175779733E+02  0.22148442148E+03 -0.85073084638E+01  0.22817260652E+03  0.00000000000E+00 0.  1.
          3    1    3    3  501    0  0.86615151846E+02 -0.22084602926E+03 -0.42428359610E+02  0.24098821313E+03  0.00000000000E+00 0.  1.
         21    1    1    2  502  501 -0.32439372113E+02 -0.63839222547E+00  0.26501964001E+01  0.32553708678E+02  0.00000000000E+00 0.  1.
<scales pt_clust_4="550.00000" pt_clust_5="550.00000" pt_clust_6="32.44565"></scales>
<mgrwt>
<rscale>  0 0.30000000E+03</rscale>
<asrwt>  1 0.32445653E+02</asrwt>
<pdfrwt beam="1">  1        1 0.82441647E+00 0.30000000E+03</pdfrwt>
<pdfrwt beam="2">0</pdfrwt>
<totfact> 0.67056139E-04</totfact>
</mgrwt>
<clustering>
<clus scale="   32.446">  1  6  2 -1</clus>
<clus scale="  465.258">  4  5 -1 -1</clus>
<clus scale="  300.000">  1  4  2 -1</clus>
</clustering>
</event>
<event>
 6    1  0.1007353E-011  0.3000000E+03  0.7818608E-02  0.1093470E+00
          1   -1    0    0  502    0  0.00000000000E+00  0.00000000000E+00  0.24157122118E+03  0.24157122118E+03  0.00000000000E+00 0.  1.
         13   -1    0    0    0    0 -0.00000000000E+00 -0.00000000000E+00 -0.27500000000E+03  0.27500000000E+03  0.00000000000E+00 0.  1.
    9000005    2    1    2  501    0 -0.25247428854E+02  0.21668930704E+02 -0.58045638268E+02  0.47518323994E+03  0.47044961492E+03 0.  0.
         13    1    3    3    0    0 -0.20221073768E+03  0.76015589705E+02  0.94033417349E+02  0.23560525437E+03  0.00000000000E+00 0.  1.
          3    1    3    3  501    0  0.17696330882E+03 -0.54346659001E+02 -0.15207905562E+03  0.23957798557E+03  0.00000000000E+00 0.  1.
         21    1    1    2  502  501  0.25247428854E+02 -0.21668930704E+02  0.24616859445E+02  0.41387981232E+02  0.00000000000E+00 0.  1.
<scales pt_clust_4="550.00000" pt_clust_5="550.00000" pt_clust_6="33.27124"></scales>
<mgrwt>
<rscale>  0 0.30000000E+03</rscale>
<asrwt>  1 0.33271237E+02</asrwt>
<pdfrwt beam="1">  1        1 0.87844080E+00 0.30000000E+03</pdfrwt>
<pdfrwt beam="2">0</pdfrwt>
<totfact> 0.20803778E-04</totfact>
</mgrwt>
<clustering>
<clus scale="   33.271">  1  6  2 -1</clus>
<clus scale="  470.450">  4  5 -1 -1</clus>
<clus scale="  300.000">  1  4  2 -1</clus>
</clustering>
</event>
<event>
 6    1  0.1007353E-011  0.3000000E+03  0.7818608E-02  0.1093470E+00
          1   -1    0    0  502    0  0.00000000000E+00  0.00000000000E+00  0.24039323500E+03  0.24039323500E+03  0.00000000000E+00 0.  1.
         13   -1    0    0    0    0 -0.00000000000E+00 -0.00000000000E+00 -0.27500000000E+03  0.27500000000E+03  0.00000000000E+00 0.  1.
    9000005    2    1    2  501    0  0.12505818835E+02 -0.29713065223E+02 -0.64531922257E+02  0.47140713735E+03  0.46585519038E+03 0.  0.
         13    1    3    3    0    0 -0.27716965514E+02 -0.11430599129E+03  0.17690491405E+03  0.21243690460E+03  0.00000000000E+00 0.  1.
          3    1    3    3  501    0  0.40222784349E+02  0.84592926063E+02 -0.24143683631E+03  0.25897023275E+03  0.00000000000E+00 0.  1.
         21    1    1    2  502  501 -0.12505818835E+02  0.29713065223E+02  0.29925157258E+02  0.43986097651E+02  0.00000000000E+00 0.  1.
<scales pt_clust_4="550.00000" pt_clust_5="550.00000" pt_clust_6="32.23758"></scales>
<mgrwt>
<rscale>  0 0.30000000E+03</rscale>
<asrwt>  1 0.32237583E+02</asrwt>
<pdfrwt beam="1">  1        1 0.87415722E+00 0.30000000E+03</pdfrwt>
<pdfrwt beam="2">0</pdfrwt>
<totfact> 0.23314276E-04</totfact>
</mgrwt>
<clustering>
<clus scale="   32.238">  1  6  2 -1</clus>
<clus scale="  465.855">  4  5 -1 -1</clus>
<clus scale="  300.000">  1  4  2 -1</clus>
</clustering>
</event>
<event>
 6    1  0.1007353E-011  0.3000000E+03  0.7818608E-02  0.1093470E+00
          1   -1    0    0  502    0  0.00000000000E+00  0.00000000000E+00  0.23234381932E+03  0.23234381932E+03  0.00000000000E+00 0.  1.
         13   -1    0    0    0    0 -0.00000000000E+00 -0.00000000000E+00 -0.27500000000E+03  0.27500000000E+03  0.00000000000E+00 0.  1.
    9000005    2    1    2  501    0 -0.14635681744E+02  0.34909262110E+02 -0.55861541562E+02  0.46725340504E+03  0.46235524539E+03 0.  0.
         13    1    3    3    0    0  0.17818554665E+03  0.15463007718E+03 -0.13046158728E+02  0.23628531918E+03  0.00000000000E+00 0.  1.
          1    1    3    3  501    0 -0.19282122839E+03 -0.11972081507E+03 -0.42815382834E+02  0.23096808586E+03  0.00000000000E+00 0.  1.
         21    1    1    2  502  501  0.14635681744E+02 -0.34909262110E+02  0.13205360884E+02  0.40090414281E+02  0.00000000000E+00 0.  1.
<scales pt_clust_4="550.00000" pt_clust_5="550.00000" pt_clust_6="37.85313"></scales>
<mgrwt>
<rscale>  0 0.30000000E+03</rscale>
<asrwt>  1 0.37853134E+02</asrwt>
<pdfrwt beam="1">  1        1 0.84488662E+00 0.30000000E+03</pdfrwt>
<pdfrwt beam="2">0</pdfrwt>
<totfact> 0.44631195E-04</totfact>
</mgrwt>
<clustering>
<clus scale="   37.853">  1  6  2 -1</clus>
<clus scale="  462.355">  4  5 -1 -1</clus>
<clus scale="  300.000">  1  4  2 -1</clus>
</clustering>
</event>
<event>
 6    1  0.1007353E-011  0.3000000E+03  0.7818608E-02  0.1093470E+00
          1   -1    0    0  502    0  0.00000000000E+00  0.00000000000E+00  0.23555339686E+03  0.23555339686E+03  0.00000000000E+00 0.  1.
         13   -1    0    0    0    0 -0.00000000000E+00 -0.00000000000E+00 -0.27500000000E+03  0.27500000000E+03  0.00000000000E+00 0.  1.
    9000005    2    1    2  501    0 -0.26117641640E+02  0.16086098566E+02 -0.50483707943E+02  0.47795414144E+03  0.47428964017E+03 0.  0.
         13    1    3    3    0    0  0.17219000259E+03 -0.13293333808E+03 -0.71563506462E+02  0.22900219393E+03  0.00000000000E+00 0.  1.
          1    1    3    3  501    0 -0.19830764423E+03  0.14901943665E+03  0.21079798519E+02  0.24895194751E+03  0.00000000000E+00 0.  1.
         21    1    1    2  502  501  0.26117641640E+02 -0.16086098566E+02  0.11037104806E+02  0.32599255428E+02  0.00000000000E+00 0.  1.
<scales pt_clust_4="550.00000" pt_clust_5="550.00000" pt_clust_6="30.67399"></scales>
<mgrwt>
<rscale>  0 0.30000000E+03</rscale>
<asrwt>  1 0.30673992E+02</asrwt>
<pdfrwt beam="1">  1        1 0.85655781E+00 0.30000000E+03</pdfrwt>
<pdfrwt beam="2">0</pdfrwt>
<totfact> 0.36030984E-04</totfact>
</mgrwt>
<clustering>
<clus scale="   30.674">  1  6  2 -1</clus>
<clus scale="  474.290">  4  5 -1 -1</clus>
<clus scale="  300.000">  1  4  2 -1</clus>
</clustering>
</event>
<event>
 6    1  0.1007353E-011  0.3000000E+03  0.7818608E-02  0.1093470E+00
          1   -1    0    0  502    0  0.00000000000E+00  0.00000000000E+00  0.24425419240E+03  0.24425419240E+03  0.00000000000E+00 0.  1.
         13   -1    0    0    0    0 -0.00000000000E+00 -0.00000000000E+00 -0.27500000000E+03  0.27500000000E+03  0.00000000000E+00 0.  1.
    9000005    2    1    2  501    0 -0.15264281434E+02 -0.27390896532E+02 -0.45801720626E+02  0.48447000034E+03  0.48127967349E+03 0.  0.
         13    1    3    3    0    0  0.15270203580E+03  0.15541918251E+03 -0.83560149614E+02  0.23335666400E+03  0.00000000000E+00 0.  1.
          1    1    3    3  501    0 -0.16796631724E+03 -0.18281007904E+03  0.37758428988E+02  0.25111333633E+03  0.00000000000E+00 0.  1.
         21    1    1    2  502  501  0.15264281434E+02  0.27390896532E+02  0.15055913025E+02  0.34784192064E+02  0.00000000000E+00 0. -1.
<scales pt_clust_4="550.00000" pt_clust_5="550.00000" pt_clust_6="31.35697"></scales>
<mgrwt>
<rscale>  0 0.30000000E+03</rscale>
<asrwt>  1 0.31356969E+02</asrwt>
<pdfrwt beam="1">  1        1 0.88819706E+00 0.30000000E+03</pdfrwt>
<pdfrwt beam="2">0</pdfrwt>
<totfact> 0.15655488E-04</totfact>
</mgrwt>
<clustering>
<clus scale="   31.357">  1  6  2 -1</clus>
<clus scale="  481.280">  4  5 -1 -1</clus>
<clus scale="  300.000">  1  4  2 -1</clus>
</clustering>
</event>
<event>
 6    1  0.1007353E-011  0.3000000E+03  0.7818608E-02  0.1093470E+00
          1   -1    0    0  502    0  0.00000000000E+00  0.00000000000E+00  0.25558469044E+03  0.25558469044E+03  0.00000000000E+00 0.  1.
         13   -1    0    0    0    0 -0.00000000000E+00 -0.00000000000E+00 -0.27500000000E+03  0.27500000000E+03  0.00000000000E+00 0.  1.
    9000005    2    1    2  501    0 -0.24686512786E+02  0.33710681056E+02 -0.48293716938E+02  0.47979299482E+03  0.47552413278E+03 0.  0.
         13    1    3    3    0    0 -0.29852550722E+02  0.65362345202E+02  0.20874227279E+03  0.22076400840E+03  0.00000000000E+00 0.  1.
          3    1    3    3  501    0  0.51660379352E+01 -0.31651664147E+02 -0.25703598973E+03  0.25902898642E+03  0.00000000000E+00 0.  1.
         21    1    1    2  502  501  0.24686512786E+02 -0.33710681056E+02  0.28878407374E+02  0.50791695613E+02  0.00000000000E+00 0.  1.
<scales pt_clust_4="550.00000" pt_clust_5="550.00000" pt_clust_6="41.78318"></scales>
<mgrwt>
<rscale>  0 0.30000000E+03</rscale>
<asrwt>  1 0.41783178E+02</asrwt>
<pdfrwt beam="1">  1        1 0.92939887E+00 0.30000000E+03</pdfrwt>
<pdfrwt beam="2">0</pdfrwt>
<totfact> 0.26032030E-05</totfact>
</mgrwt>
<clustering>
<clus scale="   41.783">  1  6  2 -1</clus>
<clus scale="  475.524">  4  5 -1 -1</clus>
<clus scale="  300.000">  1  4  2 -1</clus>
</clustering>
</event>
<event>
 6    1  0.1007353E-011  0.3000000E+03  0.7818608E-02  0.1093470E+00
          1   -1    0    0  502    0  0.00000000000E+00  0.00000000000E+00  0.24475043982E+03  0.24475043982E+03  0.00000000000E+00 0.  1.
         13   -1    0    0    0    0 -0.00000000000E+00 -0.00000000000E+00 -0.27500000000E+03  0.27500000000E+03  0.00000000000E+00 0.  1.
    9000005    2    1    2  501    0 -0.33862073403E+02  0.24470080884E+02 -0.43387313906E+02  0.47595517242E+03  0.47212862895E+03 0.  0.
         13    1    3    3    0    0 -0.96515187931E+02  0.20721639431E+03 -0.13139695337E+03  0.26366451207E+03  0.00000000000E+00 0.  1.
          3    1    3    3  501    0  0.62653114528E+02 -0.18274631342E+03  0.88009639465E+02  0.21229066034E+03  0.00000000000E+00 0.  1.
         21    1    1    2  502  501  0.33862073403E+02 -0.24470080884E+02  0.13137753723E+02  0.43795267399E+02  0.00000000000E+00 0.  1.
<scales pt_clust_4="550.00000" pt_clust_5="550.00000" pt_clust_6="41.77828"></scales>
<mgrwt>
<rscale>  0 0.30000000E+03</rscale>
<asrwt>  1 0.41778282E+02</asrwt>
<pdfrwt beam="1">  1        1 0.89000160E+00 0.30000000E+03</pdfrwt>
<pdfrwt beam="2">0</pdfrwt>
<totfact> 0.14030337E-04</totfact>
</mgrwt>
<clustering>
<clus scale="   41.778">  1  6  2 -1</clus>
<clus scale="  472.129">  4  5 -1 -1</clus>
<clus scale="  300.000">  1  4  2 -1</clus>
</clustering>
</event>
<event>
 6    1  0.1007353E-011  0.3000000E+03  0.7818608E-02  0.1093470E+00
          1   -1    0    0  502    0  0.00000000000E+00  0.00000000000E+00  0.23622248687E+03  0.23622248687E+03  0.00000000000E+00 0.  1.
         13   -1    0    0    0    0 -0.00000000000E+00 -0.00000000000E+00 -0.27500000000E+03  0.27500000000E+03  0.00000000000E+00 0.  1.
    9000005    2    1    2  501    0  0.31950992159E+02 -0.21966472955E+02 -0.52561402279E+02  0.47007169789E+03  0.46551187773E+03 0.  0.
         13    1    3    3    0    0 -0.97791685509E+02  0.12954213735E+03  0.12355008240E+03  0.20398284723E+03  0.00000000000E+00 0.  1.
          1    1    3    3  501    0  0.12974267767E+03 -0.15150861030E+03 -0.17611148468E+03  0.26608885065E+03  0.00000000000E+00 0.  1.
         21    1    1    2  502  501 -0.31950992159E+02  0.21966472955E+02  0.13783889152E+02  0.41150788986E+02  0.00000000000E+00 0.  1.
<scales pt_clust_4="550.00000" pt_clust_5="550.00000" pt_clust_6="38.77360"></scales>
<mgrwt>
<rscale>  0 0.30000000E+03</rscale>
<asrwt>  1 0.38773597E+02</asrwt>
<pdfrwt beam="1">  1        1 0.85899086E+00 0.30000000E+03</pdfrwt>
<pdfrwt beam="2">0</pdfrwt>
<totfact> 0.32531129E-04</totfact>
</mgrwt>
<clustering>
<clus scale="   38.774">  1  6  2 -1</clus>
<clus scale="  465.512">  4  5 -1 -1</clus>
<clus scale="  300.000">  1  4  2 -1</clus>
</clustering>
</event>
<event>
 6    1  0.1007353E-011  0.3000000E+03  0.7818608E-02  0.1093470E+00
          1   -1    0    0  502    0  0.00000000000E+00  0.00000000000E+00  0.24011223213E+03  0.24011223213E+03  0.00000000000E+00 0.  1.
         13   -1    0    0    0    0 -0.00000000000E+00 -0.00000000000E+00 -0.27500000000E+03  0.27500000000E+03  0.00000000000E+00 0.  1.
    9000005    2    1    2  501    0  0.32540088957E+02  0.19400693626E+02 -0.35355915049E+02  0.47722472147E+03  0.47440294028E+03 0.  0.
         13    1    3    3    0    0  0.19891202682E+03 -0.71259321559E+02  0.11019726612E+03  0.23830090806E+03  0.00000000000E+00 0.  1.
          3    1    3    3  501    0 -0.16637193786E+03  0.90660015185E+02 -0.14555318117E+03  0.23892381340E+03  0.00000000000E+00 0.  1.
         21    1    1    2  502  501 -0.32540088957E+02 -0.19400693626E+02  0.46814718009E+00  0.37887510664E+02  0.00000000000E+00 0.  1.
<scales pt_clust_4="550.00000" pt_clust_5="550.00000" pt_clust_6="37.88462"></scales>
<mgrwt>
<rscale>  0 0.30000000E+03</rscale>
<asrwt>  1 0.37884618E+02</asrwt>
<pdfrwt beam="1">  1        1 0.87313539E+00 0.30000000E+03</pdfrwt>
<pdfrwt beam="2">0</pdfrwt>
<totfact> 0.23178973E-04</totfact>
</mgrwt>
<clustering>
<clus scale="   37.885">  1  6  2 -1</clus>
<clus scale="  474.403">  4  5 -1 -1</clus>
<clus scale="  300.000">  1  4  2 -1</clus>
</clustering>
</event>
<event>
 6    1  0.1007353E-011  0.3000000E+03  0.7818608E-02  0.1093470E+00
          1   -1    0    0  502    0  0.00000000000E+00  0.00000000000E+00  0.23183937070E+03  0.23183937070E+03  0.00000000000E+00 0.  1.
         13   -1    0    0    0    0 -0.00000000000E+00 -0.00000000000E+00 -0.27500000000E+03  0.27500000000E+03  0.00000000000E+00 0.  1.
    9000005    2    1    2  501    0 -0.25609850578E+02 -0.23548600071E+02 -0.44338854682E+02  0.47202860761E+03  0.46865197253E+03 0.  0.
         13    1    3    3    0    0  0.20144328838E+02 -0.25613113562E+02 -0.25468132142E+03  0.25675747517E+03  0.00000000000E+00 0.  1.
          1    1    3    3  501    0 -0.45754179416E+02  0.20645134908E+01  0.21034246674E+03  0.21527113245E+03  0.00000000000E+00 0.  1.
         21    1    1    2  502  501  0.25609850578E+02  0.23548600071E+02  0.11782253865E+01  0.34810763092E+02  0.00000000000E+00 0.  1.
<scales pt_clust_4="550.00000" pt_clust_5="550.00000" pt_clust_6="34.79082"></scales>
<mgrwt>
<rscale>  0 0.30000000E+03</rscale>
<asrwt>  1 0.34790818E+02</asrwt>
<pdfrwt beam="1">  1        1 0.84305226E+00 0.30000000E+03</pdfrwt>
<pdfrwt beam="2">0</pdfrwt>
<totfact> 0.47009578E-04</totfact>
</mgrwt>
<clustering>
<clus scale="   34.791">  1  6  2 -1</clus>
<clus scale="  468.652">  4  5 -1 -1</clus>
<clus scale="  300.000">  1  4  2 -1</clus>
</clustering>
</event>
<event>
 6    1  0.1007353E-011  0.3000000E+03  0.7818608E-02  0.1093470E+00
          1   -1    0    0  502    0  0.00000000000E+00  0.00000000000E+00  0.23504858557E+03  0.23504858557E+03  0.00000000000E+00 0.  1.
         13   -1    0    0    0    0 -0.00000000000E+00 -0.00000000000E+00 -0.27500000000E+03  0.27500000000E+03  0.00000000000E+00 0.  1.
    9000005    2    1    2  501    0  0.20515082479E+02  0.27817801894E+02 -0.53194109895E+02  0.47303416008E+03  0.46876113806E+03 0.  0.
         13    1    3    3    0    0 -0.49854263270E+02  0.31348460476E+02  0.20089925370E+03  0.20935301211E+03  0.00000000000E+00 0.  1.
          1    1    3    3  501    0  0.70369345748E+02 -0.35306585818E+01 -0.25409336360E+03  0.26368114797E+03  0.00000000000E+00 0.  1.
         21    1    1    2  502  501 -0.20515082479E+02 -0.27817801894E+02  0.13242695461E+02  0.37014425490E+02  0.00000000000E+00 0. -1.
<scales pt_clust_4="550.00000" pt_clust_5="550.00000" pt_clust_6="34.56441"></scales>
<mgrwt>
<rscale>  0 0.30000000E+03</rscale>
<asrwt>  1 0.34564414E+02</asrwt>
<pdfrwt beam="1">  1        1 0.85472213E+00 0.30000000E+03</pdfrwt>
<pdfrwt beam="2">0</pdfrwt>
<totfact> 0.36750986E-04</totfact>
</mgrwt>
<clustering>
<clus scale="   34.564">  1  6  2 -1</clus>
<clus scale="  468.761">  4  5 -1 -1</clus>
<clus scale="  300.000">  1  4  2 -1</clus>
</clustering>
</event>
<event>
 6    1  0.1007353E-011  0.3000000E+03  0.7818608E-02  0.1093470E+00
          1   -1    0    0  502    0  0.00000000000E+00  0.00000000000E+00  0.24133364003E+03  0.24133364003E+03  0.00000000000E+00 0.  1.
         13   -1    0    0    0    0 -0.00000000000E+00 -0.00000000000E+00 -0.27500000000E+03  0.27500000000E+03  0.00000000000E+00 0.  1.
    9000005    2    1    2  501    0 -0.40942899777E+02  0.21624692060E+02 -0.60575809568E+02  0.46277930476E+03  0.45645515427E+03 0.  0.
         13    1    3    3    0    0  0.42118590632E+02 -0.19922038743E+03 -0.94358796098E+02  0.22442442123E+03  0.00000000000E+00 0.  1.
          3    1    3    3  501    0 -0.83061490409E+02  0.22084507949E+03  0.33782986531E+02  0.23835488353E+03  0.00000000000E+00 0.  1.
         21    1    1    2  502  501  0.40942899777E+02 -0.21624692060E+02  0.26909449594E+02  0.53554335271E+02  0.00000000000E+00 0.  1.
<scales pt_clust_4="550.00000" pt_clust_5="550.00000" pt_clust_6="46.30279"></scales>
<mgrwt>
<rscale>  0 0.30000000E+03</rscale>
<asrwt>  1 0.46302790E+02</asrwt>
<pdfrwt beam="1">  1        1 0.87757687E+00 0.30000000E+03</pdfrwt>
<pdfrwt beam="2">0</pdfrwt>
<totfact> 0.20034139E-04</totfact>
</mgrwt>
<clustering>
<clus scale="   46.303">  1  6  2 -1</clus>
<clus scale="  456.455">  4  5 -1 -1</clus>
<clus scale="  300.000">  1  4  2 -1</clus>
</clustering>
</event>
<event>
 6    1  0.1007353E-011  0.3000000E+03  0.7818608E-02  0.1093470E+00
          1   -1    0    0  502    0  0.00000000000E+00  0.00000000000E+00  0.24542396715E+03  0.24542396715E+03  0.00000000000E+00 0.  1.
         13   -1    0    0    0    0 -0.00000000000E+00 -0.00000000000E+00 -0.27500000000E+03  0.27500000000E+03  0.00000000000E+00 0.  1.
    9000005    2    1    2  501    0  0.43950434879E+02 -0.11565945963E+02 -0.29844926016E+02  0.47497636946E+03  0.47185423608E+03 0.  0.
         13    1    3    3    0    0  0.12545871819E+03  0.19118401284E+03  0.63542812236E+02  0.23733711408E+03  0.00000000000E+00 0.  1.
          1    1    3    3  501    0 -0.81508283310E+02 -0.20274995880E+03 -0.93387738252E+02  0.23763925538E+03  0.00000000000E+00 0.  1.
         21    1    1    2  502  501 -0.43950434879E+02  0.11565945963E+02  0.26889316366E+00  0.45447597688E+02  0.00000000000E+00 0. -1.
<scales pt_clust_4="550.00000" pt_clust_5="550.00000" pt_clust_6="45.44680"></scales>
<mgrwt>
<rscale>  0 0.30000000E+03</rscale>
<asrwt>  1 0.45446802E+02</asrwt>
<pdfrwt beam="1">  1        1 0.89245079E+00 0.30000000E+03</pdfrwt>
<pdfrwt beam="2">0</pdfrwt>
<totfact> 0.12865633E-04</totfact>
</mgrwt>
<clustering>
<clus scale="   45.447">  1  6  2 -1</clus>
<clus scale="  471.854">  4  5 -1 -1</clus>
<clus scale="  300.000">  1  4  2 -1</clus>
</clustering>
</event>
<event>
 6    1  0.1007353E-011  0.3000000E+03  0.7818608E-02  0.1093470E+00
          1   -1    0    0  502    0  0.00000000000E+00  0.00000000000E+00  0.23253113839E+03  0.23253113839E+03  0.00000000000E+00 0.  1.
         13   -1    0    0    0    0 -0.00000000000E+00 -0.00000000000E+00 -0.27500000000E+03  0.27500000000E+03  0.00000000000E+00 0.  1.
    9000005    2    1    2  501    0  0.32848298903E+02 -0.20129210429E+02 -0.61963614955E+02  0.46435427814E+03  0.45858609900E+03 0.  0.
         13    1    3    3    0    0  0.14049193082E+03 -0.19798008623E+03 -0.80195833057E+02  0.25566671432E+03  0.00000000000E+00 0.  1.
          1    1    3    3  501    0 -0.10764363192E+03  0.17785087580E+03  0.18232218102E+02  0.20868756382E+03  0.00000000000E+00 0.  1.
         21    1    1    2  502  501 -0.32848298903E+02  0.20129210429E+02  0.19494753349E+02  0.43176860255E+02  0.00000000000E+00 0.  1.
<scales pt_clust_4="550.00000" pt_clust_5="550.00000" pt_clust_6="38.52526"></scales>
<mgrwt>
<rscale>  0 0.30000000E+03</rscale>
<asrwt>  1 0.38525263E+02</asrwt>
<pdfrwt beam="1">  1        1 0.84556778E+00 0.30000000E+03</pdfrwt>
<pdfrwt beam="2">0</pdfrwt>
<totfact> 0.43879033E-04</totfact>
</mgrwt>
<clustering>
<clus scale="   38.525">  1  6  2 -1</clus>
<clus scale="  458.586">  4  5 -1 -1</clus>
<clus scale="  300.000">  1  4  2 -1</clus>
</clustering>
</event>
<event>
 6    1  0.1007353E-011  0.3000000E+03  0.7818608E-02  0.1093470E+00
          1   -1    0    0  502    0  0.00000000000E+00  0.00000000000E+00  0.24133728262E+03  0.24133728262E+03  0.00000000000E+00 0.  1.
         13   -1    0    0    0    0 -0.00000000000E+00 -0.00000000000E+00 -0.27500000000E+03  0.27500000000E+03  0.00000000000E+00 0.  1.
    9000005    2    1    2  501    0  0.20412076534E+02 -0.32168593669E+02 -0.62186667562E+02  0.46874435225E+03  0.46303629972E+03 0.  0.
         13    1    3    3    0    0  0.13334076436E+03 -0.20728507411E+03  0.14038787723E+02  0.24686828259E+03  0.00000000000E+00 0.  1.
          1    1    3    3  501    0 -0.11292868783E+03  0.17511648044E+03 -0.76225455284E+02  0.22187606966E+03  0.00000000000E+00 0.  1.
         21    1    1    2  502  501 -0.20412076534E+02  0.32168593669E+02  0.28523950181E+02  0.47592930368E+02  0.00000000000E+00 0.  1.
<scales pt_clust_4="550.00000" pt_clust_5="550.00000" pt_clust_6="38.09818"></scales>
<mgrwt>
<rscale>  0 0.30000000E+03</rscale>
<asrwt>  1 0.38098180E+02</asrwt>
<pdfrwt beam="1">  1        1 0.87759012E+00 0.30000000E+03</pdfrwt>
<pdfrwt beam="2">0</pdfrwt>
<totfact> 0.20746392E-04</totfact>
</mgrwt>
<clustering>
<clus scale="   38.098">  1  6  2 -1</clus>
<clus scale="  463.036">  4  5 -1 -1</clus>
<clus scale="  300.000">  1  4  2 -1</clus>
</clustering>
</event>
<event>
 6    1  0.1007353E-011  0.3000000E+03  0.7818608E-02  0.1093470E+00
          1   -1    0    0  502    0  0.00000000000E+00  0.00000000000E+00  0.24137591984E+03  0.24137591984E+03  0.00000000000E+00 0.  1.
         13   -1    0    0    0    0 -0.00000000000E+00 -0.00000000000E+00 -0.27500000000E+03  0.27500000000E+03  0.00000000000E+00 0.  1.
    9000005    2    1    2  501    0  0.13164677419E+02  0.29394920778E+02 -0.74689346244E+02  0.46418658973E+03  0.45700472814E+03 0.  0.
         13    1    3    3    0    0  0.26519436616E+02  0.24283535448E+03 -0.39263663648E+02  0.24741448055E+03  0.00000000000E+00 0.  1.
          3    1    3    3  501    0 -0.13354759197E+02 -0.21344043370E+03 -0.35425682596E+02  0.21677210918E+03  0.00000000000E+00 0.  1.
         21    1    1    2  502  501 -0.13164677419E+02 -0.29394920778E+02  0.41065266084E+02  0.52189330113E+02  0.00000000000E+00 0.  1.
<scales pt_clust_4="550.00000" pt_clust_5="550.00000" pt_clust_6="32.20823"></scales>
<mgrwt>
<rscale>  0 0.30000000E+03</rscale>
<asrwt>  1 0.32208230E+02</asrwt>
<pdfrwt beam="1">  1        1 0.87773062E+00 0.30000000E+03</pdfrwt>
<pdfrwt beam="2">0</pdfrwt>
<totfact> 0.21329957E-04</totfact>
</mgrwt>
<clustering>
<clus scale="   32.208">  1  6  2 -1</clus>
<clus scale="  457.005">  4  5 -1 -1</clus>
<clus scale="  300.000">  1  4  2 -1</clus>
</clustering>
</event>
<event>
 6    1  0.1007353E-011  0.3000000E+03  0.7818608E-02  0.1093470E+00
          1   -1    0    0  502    0  0.00000000000E+00  0.00000000000E+00  0.23447289853E+03  0.23447289853E+03  0.00000000000E+00 0.  1.
         13   -1    0    0    0    0 -0.00000000000E+00 -0.00000000000E+00 -0.27500000000E+03  0.27500000000E+03  0.00000000000E+00 0.  1.
    9000005    2    1    2  501    0 -0.35105769340E+02  0.14668848343E+02 -0.58260593248E+02  0.46749591813E+03  0.46228838033E+03 0.  0.
         13    1    3    3    0    0  0.42517961531E+02  0.20747955184E+03 -0.12894479168E+03  0.24795624772E+03  0.00000000000E+00 0.  1.
          3    1    3    3  501    0 -0.77623730871E+02 -0.19281070349E+03  0.70684198431E+02  0.21953967041E+03  0.00000000000E+00 0.  1.
         21    1    1    2  502  501  0.35105769340E+02 -0.14668848343E+02  0.17733491778E+02  0.41976980397E+02  0.00000000000E+00 0. -1.
<scales pt_clust_4="550.00000" pt_clust_5="550.00000" pt_clust_6="38.04721"></scales>
<mgrwt>
<rscale>  0 0.30000000E+03</rscale>
<asrwt>  1 0.38047210E+02</asrwt>
<pdfrwt beam="1">  1        1 0.85262872E+00 0.30000000E+03</pdfrwt>
<pdfrwt beam="2">0</pdfrwt>
<totfact> 0.37831192E-04</totfact>
</mgrwt>
<clustering>
<clus scale="   38.047">  1  6  2 -1</clus>
<clus scale="  462.288">  4  5 -1 -1</clus>
<clus scale="  300.000">  1  4  2 -1</clus>
</clustering>
</event>
<event>
 6    1  0.1007353E-011  0.3000000E+03  0.7818608E-02  0.1093470E+00
          1   -1    0    0  502    0  0.00000000000E+00  0.00000000000E+00  0.22990969269E+03  0.22990969269E+03  0.00000000000E+00 0.  1.
         13   -1    0    0    0    0 -0.00000000000E+00 -0.00000000000E+00 -0.27500000000E+03  0.27500000000E+03  0.00000000000E+00 0.  1.
    9000005    2    1    2  501    0 -0.26581028434E+02  0.15127384716E+02 -0.39514299833E+02  0.47382141997E+03  0.47117933878E+03 0.  0.
         13    1    3    3    0    0  0.11139874270E+03 -0.85042011178E+01 -0.21920682342E+03  0.24603583631E+03  0.00000000000E+00 0.  1.
          3    1    3    3  501    0 -0.13797977114E+03  0.23631585834E+02  0.17969252359E+03  0.22778558367E+03  0.00000000000E+00 0.  1.
         21    1    1    2  502  501  0.26581028434E+02 -0.15127384716E+02 -0.55760074807E+01  0.31088272715E+02  0.00000000000E+00 0.  1.
<scales pt_clust_4="550.00000" pt_clust_5="550.00000" pt_clust_6="30.58414"></scales>
<mgrwt>
<rscale>  0 0.30000000E+03</rscale>
<asrwt>  1 0.30584143E+02</asrwt>
<pdfrwt beam="1">  1        1 0.83603525E+00 0.30000000E+03</pdfrwt>
<pdfrwt beam="2">0</pdfrwt>
<totfact> 0.54545013E-04</totfact>
</mgrwt>
<clustering>
<clus scale="   30.584">  1  6  2 -1</clus>
<clus scale="  471.179">  4  5 -1 -1</clus>
<clus scale="  300.000">  1  4  2 -1</clus>
</clustering>
</event>
<event>
 6    1  0.1007353E-011  0.3000000E+03  0.7818608E-02  0.1093470E+00
          1   -1    0    0  502    0  0.00000000000E+00  0.00000000000E+00  0.24500974640E+03  0.24500974640E+03  0.00000000000E+00 0.  1.
         13   -1    0    0    0    0 -0.00000000000E+00 -0.00000000000E+00 -0.27500000000E+03  0.27500000000E+03  0.00000000000E+00 0.  1.
    9000005    2    1    2  501    0  0.52720171148E+01 -0.30623863542E+02 -0.23285893665E+02  0.48822038301E+03  0.48667370420E+03 0.  0.
         13    1    3    3    0    0  0.10552958437E+03 -0.21641981270E+03 -0.10389201809E+03  0.26223573351E+03  0.00000000000E+00 0.  1.
          1    1    3    3  501    0 -0.10025756726E+03  0.18579594915E+03  0.80606124429E+02  0.22598464950E+03  0.00000000000E+00 0.  1.
         21    1    1    2  502  501 -0.52720171148E+01  0.30623863542E+02 -0.67043599315E+01  0.31789363391E+02  0.00000000000E+00 0.  1.
<scales pt_clust_4="550.00000" pt_clust_5="550.00000" pt_clust_6="31.07436"></scales>
<mgrwt>
<rscale>  0 0.30000000E+03</rscale>
<asrwt>  1 0.31074365E+02</asrwt>
<pdfrwt beam="1">  1        1 0.89094453E+00 0.30000000E+03</pdfrwt>
<pdfrwt beam="2">0</pdfrwt>
<totfact> 0.14408775E-04</totfact>
</mgrwt>
<clustering>
<clus scale="   31.074">  1  6  2 -1</clus>
<clus scale="  486.674">  4  5 -1 -1</clus>
<clus scale="  300.000">  1  4  2 -1</clus>
</clustering>
</event>
<event>
 6    1  0.1007353E-011  0.3000000E+03  0.7818608E-02  0.1093470E+00
          1   -1    0    0  502    0  0.00000000000E+00  0.00000000000E+00  0.23438685194E+03  0.23438685194E+03  0.00000000000E+00 0.  1.
         13   -1    0    0    0    0 -0.00000000000E+00 -0.00000000000E+00 -0.27500000000E+03  0.27500000000E+03  0.00000000000E+00 0.  1.
    9000005    2    1    2  501    0  0.27586645746E+02 -0.16205368350E+02 -0.67472786350E+02  0.46761273129E+03  0.46161179857E+03 0.  0.
         13    1    3    3    0    0  0.23805522770E+03  0.43933642081E+02 -0.15119703003E+02  0.24254702999E+03  0.00000000000E+00 0.  1.
          1    1    3    3  501    0 -0.21046858195E+03 -0.60139010431E+02 -0.52353083347E+02  0.22506570130E+03  0.00000000000E+00 0.  1.
         21    1    1    2  502  501 -0.27586645746E+02  0.16205368350E+02  0.26859638287E+02  0.41774120647E+02  0.00000000000E+00 0.  1.
<scales pt_clust_4="550.00000" pt_clust_5="550.00000" pt_clust_6="31.99433"></scales>
<mgrwt>
<rscale>  0 0.30000000E+03</rscale>
<asrwt>  1 0.31994327E+02</asrwt>
<pdfrwt beam="1">  1        1 0.85231583E+00 0.30000000E+03</pdfrwt>
<pdfrwt beam="2">0</pdfrwt>
<totfact> 0.39349751E-04</totfact>
</mgrwt>
<clustering>
<clus scale="   31.994">  1  6  2 -1</clus>
<clus scale="  461.612">  4  5 -1 -1</clus>
<clus scale="  300.000">  1  4  2 -1</clus>
</clustering>
</event>
<event>
 6    1  0.1007353E-011  0.3000000E+03  0.7818608E-02  0.1093470E+00
          1   -1    0    0  502    0  0.00000000000E+00  0.00000000000E+00  0.24622663100E+03  0.24622663100E+03  0.00000000000E+00 0.  1.
         13   -1    0    0    0    0 -0.00000000000E+00 -0.00000000000E+00 -0.27500000000E+03  0.27500000000E+03  0.00000000000E+00 0.  1.
    9000005    2    1    2  501    0 -0.49719612200E+02  0.11112725580E+02 -0.38269236389E+02  0.46940285263E+03  0.46505802982E+03 0.  0.
         13    1    3    3    0    0 -0.22801849755E+03 -0.85130720417E+02 -0.91315183129E+02  0.25995795324E+03  0.00000000000E+00 0.  1.
          3    1    3    3  501    0  0.17829888535E+03  0.96243445997E+02  0.53045946740E+02  0.20944489939E+03  0.00000000000E+00 0.  1.
         21    1    1    2  502  501  0.49719612200E+02 -0.11112725580E+02  0.94958673891E+01  0.51823778370E+02  0.00000000000E+00 0. -1.
<scales pt_clust_4="550.00000" pt_clust_5="550.00000" pt_clust_6="50.94637"></scales>
<mgrwt>
<rscale>  0 0.30000000E+03</rscale>
<asrwt>  1 0.50946369E+02</asrwt>
<pdfrwt beam="1">  1        1 0.89536957E+00 0.30000000E+03</pdfrwt>
<pdfrwt beam="2">0</pdfrwt>
<totfact> 0.11670221E-04</totfact>
</mgrwt>
<clustering>
<clus scale="   50.946">  1  6  2 -1</clus>
<clus scale="  465.058">  4  5 -1 -1</clus>
<clus scale="  300.000">  1  4  2 -1</clus>
</clustering>
</event>
<event>
 6    1  0.1007353E-011  0.3000000E+03  0.7818608E-02  0.1093470E+00
          1   -1    0    0  502    0  0.00000000000E+00  0.00000000000E+00  0.23722707229E+03  0.23722707229E+03  0.00000000000E+00 0.  1.
         13   -1    0    0    0    0 -0.00000000000E+00 -0.00000000000E+00 -0.27500000000E+03  0.27500000000E+03  0.00000000000E+00 0.  1.
    9000005    2    1    2  501    0 -0.26206685774E+02 -0.42843556848E+02 -0.37764901844E+02  0.46200396200E+03  0.45771072999E+03 0.  0.
         13    1    3    3    0    0 -0.23174097696E+03 -0.88198300907E+02  0.11382987526E+01  0.24795990887E+03  0.00000000000E+00 0.  1.
          3    1    3    3  501    0  0.20553429118E+03  0.45354744059E+02 -0.38903200597E+02  0.21404405312E+03  0.00000000000E+00 0.  1.
         21    1    1    2  502  501  0.26206685774E+02  0.42843556848E+02 -0.80258703064E-02  0.50223110289E+02  0.00000000000E+00 0.  1.
<scales pt_clust_4="550.00000" pt_clust_5="550.00000" pt_clust_6="50.22311"></scales>
<mgrwt>
<rscale>  0 0.30000000E+03</rscale>
<asrwt>  1 0.50223110E+02</asrwt>
<pdfrwt beam="1">  1        1 0.86264390E+00 0.30000000E+03</pdfrwt>
<pdfrwt beam="2">0</pdfrwt>
<totfact> 0.28378380E-04</totfact>
</mgrwt>
<clustering>
<clus scale="   50.223">  1  6  2 -1</clus>
<clus scale="  457.711">  4  5 -1 -1</clus>
<clus scale="  300.000">  1  4  2 -1</clus>
</clustering>
</event>
<event>
 6    1  0.1007353E-011  0.3000000E+03  0.7818608E-02  0.1093470E+00
          1   -1    0    0  502    0  0.00000000000E+00  0.00000000000E+00  0.25624453202E+03  0.25624453202E+03  0.00000000000E+00 0.  1.
         13   -1    0    0    0    0 -0.00000000000E+00 -0.00000000000E+00 -0.27500000000E+03  0.27500000000E+03  0.00000000000E+00 0.  1.
    9000005    2    1    2  501    0 -0.12163276557E+02  0.29510312688E+02 -0.40420515227E+02  0.49266762022E+03  0.48996812357E+03 0.  0.
         13    1    3    3    0    0 -0.15297897615E+03  0.20953590369E+03 -0.48663366258E+02  0.26396209064E+03  0.00000000000E+00 0.  1.
          1    1    3    3  501    0  0.14081569959E+03 -0.18002559101E+03  0.82428510306E+01  0.22870552958E+03  0.00000000000E+00 0.  1.
         21    1    1    2  502  501  0.12163276557E+02 -0.29510312688E+02  0.21665047250E+02  0.38576911798E+02  0.00000000000E+00 0.  1.
<scales pt_clust_4="550.00000" pt_clust_5="550.00000" pt_clust_6="31.91871"></scales>
<mgrwt>
<rscale>  0 0.30000000E+03</rscale>
<asrwt>  1 0.31918707E+02</asrwt>
<pdfrwt beam="1">  1        1 0.93179830E+00 0.30000000E+03</pdfrwt>
<pdfrwt beam="2">0</pdfrwt>
<totfact> 0.25165052E-05</totfact>
</mgrwt>
<clustering>
<clus scale="   31.919">  1  6  2 -1</clus>
<clus scale="  489.968">  4  5 -1 -1</clus>
<clus scale="  300.000">  1  4  2 -1</clus>
</clustering>
</event>
<event>
 6    1  0.1007353E-011  0.3000000E+03  0.7818608E-02  0.1093470E+00
          1   -1    0    0  502    0  0.00000000000E+00  0.00000000000E+00  0.22384037007E+03  0.22384037007E+03  0.00000000000E+00 0.  1.
         13   -1    0    0    0    0 -0.00000000000E+00 -0.00000000000E+00 -0.27500000000E+03  0.27500000000E+03  0.00000000000E+00 0.  1.
    9000005    2    1    2  501    0  0.56226320759E+01  0.31459253674E+02 -0.58968777871E+02  0.46594232416E+03  0.46108961607E+03 0.  0.
         13    1    3    3    0    0  0.73565628001E+02 -0.10364425094E+03  0.15718410972E+03  0.20214073495E+03  0.00000000000E+00 0.  1.
          3    1    3    3  501    0 -0.67942995925E+02  0.13510350461E+03 -0.21615288759E+03  0.26380158921E+03  0.00000000000E+00 0.  1.
         21    1    1    2  502  501 -0.56226320759E+01 -0.31459253674E+02  0.78091479415E+01  0.32898045911E+02  0.00000000000E+00 0.  1.
<scales pt_clust_4="550.00000" pt_clust_5="550.00000" pt_clust_6="31.95776"></scales>
<mgrwt>
<rscale>  0 0.30000000E+03</rscale>
<asrwt>  1 0.31957763E+02</asrwt>
<pdfrwt beam="1">  1        1 0.81396498E+00 0.30000000E+03</pdfrwt>
<pdfrwt beam="2">0</pdfrwt>
<totfact> 0.82549513E-04</totfact>
</mgrwt>
<clustering>
<clus scale="   31.958">  1  6  2 -1</clus>
<clus scale="  461.090">  4  5 -1 -1</clus>
<clus scale="  300.000">  1  4  2 -1</clus>
</clustering>
</event>
<event>
 6    1  0.1007353E-011  0.3000000E+03  0.7818608E-02  0.1093470E+00
          1   -1    0    0  502    0  0.00000000000E+00  0.00000000000E+00  0.23355614446E+03  0.23355614446E+03  0.00000000000E+00 0.  1.
         13   -1    0    0    0    0 -0.00000000000E+00 -0.00000000000E+00 -0.27500000000E+03  0.27500000000E+03  0.00000000000E+00 0.  1.
    9000005    2    1    2  501    0 -0.59308621724E+01  0.34952811666E+02 -0.65191040232E+02  0.46588527676E+03  0.45993732748E+03 0.  0.
         13    1    3    3    0    0 -0.31773435180E+02  0.23330634887E+03 -0.11155982181E+03  0.26055133362E+03  0.00000000000E+00 0.  1.
          3    1    3    3  501    0  0.25842573008E+02 -0.19835353721E+03  0.46368781577E+02  0.20533394314E+03  0.00000000000E+00 0.  1.
         21    1    1    2  502  501  0.59308621724E+01 -0.34952811666E+02  0.23747184690E+02  0.42670867699E+02  0.00000000000E+00 0. -1.
<scales pt_clust_4="550.00000" pt_clust_5="550.00000" pt_clust_6="35.45242"></scales>
<mgrwt>
<rscale>  0 0.30000000E+03</rscale>
<asrwt>  1 0.35452421E+02</asrwt>
<pdfrwt beam="1">  1        1 0.84929507E+00 0.30000000E+03</pdfrwt>
<pdfrwt beam="2">0</pdfrwt>
<totfact> 0.41221690E-04</totfact>
</mgrwt>
<clustering>
<clus scale="   35.452">  1  6  2 -1</clus>
<clus scale="  459.937">  4  5 -1 -1</clus>
<clus scale="  300.000">  1  4  2 -1</clus>
</clustering>
</event>
<event>
 6    1  0.1007353E-011  0.3000000E+03  0.7818608E-02  0.1093470E+00
          1   -1    0    0  502    0  0.00000000000E+00  0.00000000000E+00  0.25179950925E+03  0.25179950925E+03  0.00000000000E+00 0.  1.
         13   -1    0    0    0    0 -0.00000000000E+00 -0.00000000000E+00 -0.27500000000E+03  0.27500000000E+03  0.00000000000E+00 0.  1.
    9000005    2    1    2  501    0  0.26323526286E+02  0.16313597198E+02 -0.35926476569E+02  0.49331798890E+03  0.49103244798E+03 0.  0.
         13    1    3    3    0    0 -0.52343051429E+02  0.23597016022E+03  0.45980411565E+02  0.24604046374E+03  0.00000000000E+00 0.  1.
          3    1    3    3  501    0  0.78666577716E+02 -0.21965656302E+03 -0.81906888134E+02  0.24727752517E+03  0.00000000000E+00 0.  1.
         21    1    1    2  502  501 -0.26323526286E+02 -0.16313597198E+02  0.12725985819E+02  0.33481520347E+02  0.00000000000E+00 0.  1.
<scales pt_clust_4="550.00000" pt_clust_5="550.00000" pt_clust_6="30.96872"></scales>
<mgrwt>
<rscale>  0 0.30000000E+03</rscale>
<asrwt>  1 0.30968718E+02</asrwt>
<pdfrwt beam="1">  1        1 0.91563458E+00 0.30000000E+03</pdfrwt>
<pdfrwt beam="2">0</pdfrwt>
<totfact> 0.53572076E-05</totfact>
</mgrwt>
<clustering>
<clus scale="   30.969">  1  6  2 -1</clus>
<clus scale="  491.032">  4  5 -1 -1</clus>
<clus scale="  300.000">  1  4  2 -1</clus>
</clustering>
</event>
<event>
 6    1  0.1007353E-011  0.3000000E+03  0.7818608E-02  0.1093470E+00
          1   -1    0    0  502    0  0.00000000000E+00  0.00000000000E+00  0.23750039613E+03  0.23750039613E+03  0.00000000000E+00 0.  1.
         13   -1    0    0    0    0 -0.00000000000E+00 -0.00000000000E+00 -0.27500000000E+03  0.27500000000E+03  0.00000000000E+00 0.  1.
    9000005    2    1    2  501    0 -0.11623867696E+02  0.27857519451E+02 -0.35370492245E+02  0.48224004573E+03  0.47999295234E+03 0.  0.
         13    1    3    3    0    0 -0.18810036849E+03  0.16393200650E+03  0.26637008412E+02  0.25092823994E+03  0.00000000000E+00 0.  1.
          1    1    3    3  501    0  0.17647650080E+03 -0.13607448705E+03 -0.62007500657E+02  0.23131180579E+03  0.00000000000E+00 0.  1.
         21    1    1    2  502  501  0.11623867696E+02 -0.27857519451E+02 -0.21291116242E+01  0.30260350403E+02  0.00000000000E+00 0.  1.
<scales pt_clust_4="550.00000" pt_clust_5="550.00000" pt_clust_6="30.18536"></scales>
<mgrwt>
<rscale>  0 0.30000000E+03</rscale>
<asrwt>  1 0.30185356E+02</asrwt>
<pdfrwt beam="1">  1        1 0.86363780E+00 0.30000000E+03</pdfrwt>
<pdfrwt beam="2">0</pdfrwt>
<totfact> 0.30395431E-04</totfact>
</mgrwt>
<clustering>
<clus scale="   30.185">  1  6  2 -1</clus>
<clus scale="  479.993">  4  5 -1 -1</clus>
<clus scale="  300.000">  1  4  2 -1</clus>
</clustering>
</event>
<event>
 6    1  0.1007353E-011  0.3000000E+03  0.7818608E-02  0.1093470E+00
          1   -1    0    0  502    0  0.00000000000E+00  0.00000000000E+00  0.23780999391E+03  0.23780999391E+03  0.00000000000E+00 0.  1.
         13   -1    0    0    0    0 -0.00000000000E+00 -0.00000000000E+00 -0.27500000000E+03  0.27500000000E+03  0.00000000000E+00 0.  1.
    9000005    2    1    2  501    0 -0.31180327770E+02  0.15003962884E+02 -0.50842551363E+02  0.47561155665E+03  0.47161854931E+03 0.  0.
         13    1    3    3    0    0 -0.19709395146E+03 -0.13238136212E+03  0.30233024826E+02  0.23934261327E+03  0.00000000000E+00 0.  1.
          3    1    3    3  501    0  0.16591362369E+03  0.14738532500E+03 -0.81075576189E+02  0.23626894338E+03  0.00000000000E+00 0.  1.
         21    1    1    2  502  501  0.31180327770E+02 -0.15003962884E+02  0.13652545273E+02  0.37198437259E+02  0.00000000000E+00 0.  1.
<scales pt_clust_4="550.00000" pt_clust_5="550.00000" pt_clust_6="34.60248"></scales>
<mgrwt>
<rscale>  0 0.30000000E+03</rscale>
<asrwt>  1 0.34602482E+02</asrwt>
<pdfrwt beam="1">  1        1 0.86476361E+00 0.30000000E+03</pdfrwt>
<pdfrwt beam="2">0</pdfrwt>
<totfact> 0.28799643E-04</totfact>
</mgrwt>
<clustering>
<clus scale="   34.602">  1  6  2 -1</clus>
<clus scale="  471.619">  4  5 -1 -1</clus>
<clus scale="  300.000">  1  4  2 -1</clus>
</clustering>
</event>
<event>
 6    1  0.1007353E-011  0.3000000E+03  0.7818608E-02  0.1093470E+00
          1   -1    0    0  502    0  0.00000000000E+00  0.00000000000E+00  0.22906009172E+03  0.22906009172E+03  0.00000000000E+00 0.  1.
         13   -1    0    0    0    0 -0.00000000000E+00 -0.00000000000E+00 -0.27500000000E+03  0.27500000000E+03  0.00000000000E+00 0.  1.
    9000005    2    1    2  501    0 -0.26703188831E+02  0.22539892379E+02 -0.40314671320E+02  0.46866587845E+03  0.46561929283E+03 0.  0.
         13    1    3    3    0    0 -0.21510248035E+03 -0.97588357712E+02 -0.61916659931E+02  0.24418484267E+03  0.00000000000E+00 0.  1.
          3    1    3    3  501    0  0.18839929152E+03  0.12012825009E+03  0.21601988611E+02  0.22448103578E+03  0.00000000000E+00 0.  1.
         21    1    1    2  502  501  0.26703188831E+02 -0.22539892379E+02 -0.56252369579E+01  0.35394213271E+02  0.00000000000E+00 0. -1.
<scales pt_clust_4="550.00000" pt_clust_5="550.00000" pt_clust_6="34.94436"></scales>
<mgrwt>
<rscale>  0 0.30000000E+03</rscale>
<asrwt>  1 0.34944360E+02</asrwt>
<pdfrwt beam="1">  1        1 0.83294579E+00 0.30000000E+03</pdfrwt>
<pdfrwt beam="2">0</pdfrwt>
<totfact> 0.56045098E-04</totfact>
</mgrwt>
<clustering>
<clus scale="   34.944">  1  6  2 -1</clus>
<clus scale="  465.619">  4  5 -1 -1</clus>
<clus scale="  300.000">  1  4  2 -1</clus>
</clustering>
</event>
<event>
 6    1  0.1007353E-011  0.3000000E+03  0.7818608E-02  0.1093470E+00
          1   -1    0    0  502    0  0.00000000000E+00  0.00000000000E+00  0.22916467575E+03  0.22916467575E+03  0.00000000000E+00 0.  1.
         13   -1    0    0    0    0 -0.00000000000E+00 -0.00000000000E+00 -0.27500000000E+03  0.27500000000E+03  0.00000000000E+00 0.  1.
    9000005    2    1    2  501    0  0.38324339833E+02  0.46102888359E+00 -0.21596754831E+02  0.45881629299E+03  0.45670231368E+03 0.  0.
         13    1    3    3    0    0  0.67734360374E+02  0.34032823404E+02 -0.23182439633E+03  0.24390311064E+03  0.00000000000E+00 0.  1.
          3    1    3    3  501    0 -0.29410020542E+02 -0.33571794521E+02  0.21022764150E+03  0.21491318235E+03  0.00000000000E+00 0.  1.
         21    1    1    2  502  501 -0.38324339833E+02 -0.46102888359E+00 -0.24238569420E+02  0.45348382758E+02  0.00000000000E+00 0.  1.
<scales pt_clust_4="550.00000" pt_clust_5="550.00000" pt_clust_6="38.32713"></scales>
<mgrwt>
<rscale>  0 0.30000000E+03</rscale>
<asrwt>  1 0.38327132E+02</asrwt>
<pdfrwt beam="1">  1        1 0.83332609E+00 0.30000000E+03</pdfrwt>
<pdfrwt beam="2">0</pdfrwt>
<totfact> 0.54730805E-04</totfact>
</mgrwt>
<clustering>
<clus scale="   38.327">  1  6  2 -1</clus>
<clus scale="  456.702">  4  5 -1 -1</clus>
<clus scale="  300.000">  1  4  2 -1</clus>
</clustering>
</event>
<event>
 6    1  0.1007353E-011  0.3000000E+03  0.7818608E-02  0.1093470E+00
          1   -1    0    0  502    0  0.00000000000E+00  0.00000000000E+00  0.22876592773E+03  0.22876592773E+03  0.00000000000E+00 0.  1.
         13   -1    0    0    0    0 -0.00000000000E+00 -0.00000000000E+00 -0.27500000000E+03  0.27500000000E+03  0.00000000000E+00 0.  1.
    9000005    2    1    2  501    0  0.81577344048E+00 -0.38432205516E+02 -0.39130225699E+02  0.46467418252E+03  0.46142520676E+03 0.  0.
         13    1    3    3    0    0 -0.10245960015E+02 -0.17629061351E+03  0.14908811464E+03  0.23110739070E+03  0.00000000000E+00 0.  1.
          3    1    3    3  501    0  0.11061733455E+02  0.13785840799E+03 -0.18821834034E+03  0.23356679182E+03  0.00000000000E+00 0.  1.
         21    1    1    2  502  501 -0.81577344048E+00  0.38432205516E+02 -0.71038465722E+01  0.39091745206E+02  0.00000000000E+00 0.  1.
<scales pt_clust_4="550.00000" pt_clust_5="550.00000" pt_clust_6="38.44088"></scales>
<mgrwt>
<rscale>  0 0.30000000E+03</rscale>
<asrwt>  1 0.38440882E+02</asrwt>
<pdfrwt beam="1">  1        1 0.83187610E+00 0.30000000E+03</pdfrwt>
<pdfrwt beam="2">0</pdfrwt>
<totfact> 0.56110275E-04</totfact>
</mgrwt>
<clustering>
<clus scale="   38.441">  1  6  2 -1</clus>
<clus scale="  461.425">  4  5 -1 -1</clus>
<clus scale="  300.000">  1  4  2 -1</clus>
</clustering>
</event>
<event>
 6    1  0.1007353E-011  0.3000000E+03  0.7818608E-02  0.1093470E+00
          1   -1    0    0  502    0  0.00000000000E+00  0.00000000000E+00  0.23184318535E+03  0.23184318535E+03  0.00000000000E+00 0.  1.
         13   -1    0    0    0    0 -0.00000000000E+00 -0.00000000000E+00 -0.27500000000E+03  0.27500000000E+03  0.00000000000E+00 0.  1.
    9000005    2    1    2  501    0 -0.27113047669E+02 -0.29671523710E+02 -0.52760852974E+02  0.46551820229E+03  0.46076889259E+03 0.  0.
         13    1    3    3    0    0 -0.92377894130E+02  0.30174999366E+02  0.18655264581E+03  0.21034755898E+03  0.00000000000E+00 0.  1.
          1    1    3    3  501    0  0.65264846461E+02 -0.59846523076E+02 -0.23931349878E+03  0.25517064331E+03  0.00000000000E+00 0.  1.
         21    1    1    2  502  501  0.27113047669E+02  0.29671523710E+02  0.96040383257E+01  0.41324983065E+02  0.00000000000E+00 0. -1.
<scales pt_clust_4="550.00000" pt_clust_5="550.00000" pt_clust_6="40.19349"></scales>
<mgrwt>
<rscale>  0 0.30000000E+03</rscale>
<asrwt>  1 0.40193490E+02</asrwt>
<pdfrwt beam="1">  1        1 0.84306613E+00 0.30000000E+03</pdfrwt>
<pdfrwt beam="2">0</pdfrwt>
<totfact> 0.45759918E-04</totfact>
</mgrwt>
<clustering>
<clus scale="   40.193">  1  6  2 -1</clus>
<clus scale="  460.769">  4  5 -1 -1</clus>
<clus scale="  300.000">  1  4  2 -1</clus>
</clustering>
</event>
<event>
 6    1  0.1007353E-011  0.3000000E+03  0.7818608E-02  0.1093470E+00
          1   -1    0    0  502    0  0.00000000000E+00  0.00000000000E+00  0.24998337943E+03  0.24998337943E+03  0.00000000000E+00 0.  1.
         13   -1    0    0    0    0 -0.00000000000E+00 -0.00000000000E+00 -0.27500000000E+03  0.27500000000E+03  0.00000000000E+00 0.  1.
    9000005    2    1    2  501    0 -0.26828272855E+02 -0.14019041437E+02 -0.73266587525E+02  0.46802419177E+03  0.46126170608E+03 0.  0.
         13    1    3    3    0    0 -0.23461293165E+03  0.18577604638E+02  0.23477011641E+02  0.23651538040E+03  0.00000000000E+00 0.  1.
          3    1    3    3  501    0  0.20778465879E+03 -0.32596646075E+02 -0.96743599166E+02  0.23150881137E+03  0.00000000000E+00 0.  1.
         21    1    1    2  502  501  0.26828272855E+02  0.14019041437E+02  0.48249966955E+02  0.56959187655E+02  0.00000000000E+00 0. -1.
<scales pt_clust_4="550.00000" pt_clust_5="550.00000" pt_clust_6="30.27028"></scales>
<mgrwt>
<rscale>  0 0.30000000E+03</rscale>
<asrwt>  1 0.30270278E+02</asrwt>
<pdfrwt beam="1">  1        1 0.90903047E+00 0.30000000E+03</pdfrwt>
<pdfrwt beam="2">0</pdfrwt>
<totfact> 0.77921799E-05</totfact>
</mgrwt>
<clustering>
<clus scale="   30.270">  1  6  2 -1</clus>
<clus scale="  461.262">  4  5 -1 -1</clus>
<clus scale="  300.000">  1  4  2 -1</clus>
</clustering>
</event>
<event>
 6    1  0.1007353E-011  0.3000000E+03  0.7818608E-02  0.1093470E+00
          1   -1    0    0  502    0  0.00000000000E+00  0.00000000000E+00  0.22429873288E+03  0.22429873288E+03  0.00000000000E+00 0.  1.
         13   -1    0    0    0    0 -0.00000000000E+00 -0.00000000000E+00 -0.27500000000E+03  0.27500000000E+03  0.00000000000E+00 0.  1.
    9000005    2    1    2  501    0 -0.24202411704E+02  0.23625752934E+02 -0.33883703228E+02  0.46152621126E+03  0.45903638789E+03 0.  0.
         13    1    3    3    0    0 -0.17733052265E+03  0.56282626754E+02 -0.17152895816E+03  0.25305341694E+03  0.00000000000E+00 0.  1.
          1    1    3    3  501    0  0.15312811095E+03 -0.32656873820E+02  0.13764525493E+03  0.20847279433E+03  0.00000000000E+00 0.  1.
         21    1    1    2  502  501  0.24202411704E+02 -0.23625752934E+02 -0.16817563893E+02  0.37772521617E+02  0.00000000000E+00 0.  1.
<scales pt_clust_4="550.00000" pt_clust_5="550.00000" pt_clust_6="33.82209"></scales>
<mgrwt>
<rscale>  0 0.30000000E+03</rscale>
<asrwt>  1 0.33822095E+02</asrwt>
<pdfrwt beam="1">  1        1 0.81563176E+00 0.30000000E+03</pdfrwt>
<pdfrwt beam="2">0</pdfrwt>
<totfact> 0.79178141E-04</totfact>
</mgrwt>
<clustering>
<clus scale="   33.822">  1  6  2 -1</clus>
<clus scale="  459.036">  4  5 -1 -1</clus>
<clus scale="  300.000">  1  4  2 -1</clus>
</clustering>
</event>
<event>
 6    1  0.1007353E-011  0.3000000E+03  0.7818608E-02  0.1093470E+00
          1   -1    0    0  502    0  0.00000000000E+00  0.00000000000E+00  0.23351128013E+03  0.23351128013E+03  0.00000000000E+00 0.  1.
         13   -1    0    0    0    0 -0.00000000000E+00 -0.00000000000E+00 -0.27500000000E+03  0.27500000000E+03  0.00000000000E+00 0.  1.
    9000005    2    1    2  501    0 -0.32153442041E+01 -0.31495937150E+02 -0.57151199378E+02  0.47318925075E+03  0.46865709739E+03 0.  0.
         13    1    3    3    0    0  0.15272929046E+03  0.10481915909E+03 -0.15739950588E+03  0.24308002125E+03  0.00000000000E+00 0.  1.
          3    1    3    3  501    0 -0.15594463466E+03 -0.13631509624E+03  0.10024830651E+03  0.23010922950E+03  0.00000000000E+00 0.  1.
         21    1    1    2  502  501  0.32153442041E+01  0.31495937150E+02  0.15662479504E+02  0.35322029380E+02  0.00000000000E+00 0.  1.
<scales pt_clust_4="550.00000" pt_clust_5="550.00000" pt_clust_6="31.65964"></scales>
<mgrwt>
<rscale>  0 0.30000000E+03</rscale>
<asrwt>  1 0.31659635E+02</asrwt>
<pdfrwt beam="1">  1        1 0.84913193E+00 0.30000000E+03</pdfrwt>
<pdfrwt beam="2">0</pdfrwt>
<totfact> 0.42257885E-04</totfact>
</mgrwt>
<clustering>
<clus scale="   31.660">  1  6  2 -1</clus>
<clus scale="  468.657">  4  5 -1 -1</clus>
<clus scale="  300.000">  1  4  2 -1</clus>
</clustering>
</event>
<event>
 6    1  0.1007353E-011  0.3000000E+03  0.7818608E-02  0.1093470E+00
          1   -1    0    0  502    0  0.00000000000E+00  0.00000000000E+00  0.24056382605E+03  0.24056382605E+03  0.00000000000E+00 0.  1.
         13   -1    0    0    0    0 -0.00000000000E+00 -0.00000000000E+00 -0.27500000000E+03  0.27500000000E+03  0.00000000000E+00 0.  1.
    9000005    2    1    2  501    0  0.44625587116E+02 -0.67498157324E+01 -0.44033765373E+02  0.46942147242E+03  0.46516722072E+03 0.  0.
         13    1    3    3    0    0 -0.34691126397E+02 -0.22355730056E+03 -0.70707321547E+02  0.23702503286E+03  0.00000000000E+00 0.  1.
          3    1    3    3  501    0  0.79316713513E+02  0.21680748482E+03  0.26673556174E+02  0.23239643955E+03  0.00000000000E+00 0.  1.
         21    1    1    2  502  501 -0.44625587116E+02  0.67498157324E+01  0.95975914249E+01  0.46142353635E+02  0.00000000000E+00 0. -1.
<scales pt_clust_4="550.00000" pt_clust_5="550.00000" pt_clust_6="45.13317"></scales>
<mgrwt>
<rscale>  0 0.30000000E+03</rscale>
<asrwt>  1 0.45133170E+02</asrwt>
<pdfrwt beam="1">  1        1 0.87477755E+00 0.30000000E+03</pdfrwt>
<pdfrwt beam="2">0</pdfrwt>
<totfact> 0.21587965E-04</totfact>
</mgrwt>
<clustering>
<clus scale="   45.133">  1  6  2 -1</clus>
<clus scale="  465.167">  4  5 -1 -1</clus>
<clus scale="  300.000">  1  4  2 -1</clus>
</clustering>
</event>
<event>
 6    1  0.1007353E-011  0.3000000E+03  0.7818608E-02  0.1093470E+00
          1   -1    0    0  502    0  0.00000000000E+00  0.00000000000E+00  0.22422236994E+03  0.22422236994E+03  0.00000000000E+00 0.  1.
         13   -1    0    0    0    0 -0.00000000000E+00 -0.00000000000E+00 -0.27500000000E+03  0.27500000000E+03  0.00000000000E+00 0.  1.
    9000005    2    1    2  501    0 -0.14562864439E+02 -0.30845315362E+02 -0.33972823135E+02  0.46119721989E+03  0.45867767813E+03 0.  0.
         13    1    3    3    0    0 -0.64160659245E+02 -0.17836912117E+03 -0.16990306716E+03  0.25455684201E+03  0.00000000000E+00 0.  1.
          1    1    3    3  501    0  0.49597794805E+02  0.14752380581E+03  0.13593024402E+03  0.20664037788E+03  0.00000000000E+00 0.  1.
         21    1    1    2  502  501  0.14562864439E+02  0.30845315362E+02 -0.16804806929E+02  0.38025150051E+02  0.00000000000E+00 0.  1.
<scales pt_clust_4="550.00000" pt_clust_5="550.00000" pt_clust_6="34.11029"></scales>
<mgrwt>
<rscale>  0 0.30000000E+03</rscale>
<asrwt>  1 0.34110287E+02</asrwt>
<pdfrwt beam="1">  1        1 0.81535407E+00 0.30000000E+03</pdfrwt>
<pdfrwt beam="2">0</pdfrwt>
<totfact> 0.79463278E-04</totfact>
</mgrwt>
<clustering>
<clus scale="   34.110">  1  6  2 -1</clus>
<clus scale="  458.678">  4  5 -1 -1</clus>
<clus scale="  300.000">  1  4  2 -1</clus>
</clustering>
</event>
<event>
 6    1  0.1007353E-011  0.3000000E+03  0.7818608E-02  0.1093470E+00
          1   -1    0    0  502    0  0.00000000000E+00  0.00000000000E+00  0.24772996193E+03  0.24772996193E+03  0.00000000000E+00 0.  1.
         13   -1    0    0    0    0 -0.00000000000E+00 -0.00000000000E+00 -0.27500000000E+03  0.27500000000E+03  0.00000000000E+00 0.  1.
    9000005    2    1    2  501    0  0.25814422609E+02  0.29774525819E+02 -0.28357792260E+02  0.48330801358E+03  0.48086335357E+03 0.  0.
         13    1    3    3    0    0  0.14878992069E+02  0.61865432759E+01  0.22652760492E+03  0.22710000774E+03  0.00000000000E+00 0.  1.
          3    1    3    3  501    0  0.10935430540E+02  0.23587982543E+02 -0.25488539718E+03  0.25620800584E+03  0.00000000000E+00 0.  1.
         21    1    1    2  502  501 -0.25814422609E+02 -0.29774525819E+02  0.10877541853E+01  0.39421948348E+02  0.00000000000E+00 0.  1.
<scales pt_clust_4="550.00000" pt_clust_5="550.00000" pt_clust_6="39.40694"></scales>
<mgrwt>
<rscale>  0 0.30000000E+03</rscale>
<asrwt>  1 0.39406939E+02</asrwt>
<pdfrwt beam="1">  1        1 0.90083623E+00 0.30000000E+03</pdfrwt>
<pdfrwt beam="2">0</pdfrwt>
<totfact> 0.10539454E-04</totfact>
</mgrwt>
<clustering>
<clus scale="   39.407">  1  6  2 -1</clus>
<clus scale="  480.863">  4  5 -1 -1</clus>
<clus scale="  300.000">  1  4  2 -1</clus>
</clustering>
</event>
<event>
 6    1  0.1007353E-011  0.3000000E+03  0.7818608E-02  0.1093470E+00
          1   -1    0    0  502    0  0.00000000000E+00  0.00000000000E+00  0.23063264848E+03  0.23063264848E+03  0.00000000000E+00 0.  1.
         13   -1    0    0    0    0 -0.00000000000E+00 -0.00000000000E+00 -0.27500000000E+03  0.27500000000E+03  0.00000000000E+00 0.  1.
    9000005    2    1    2  501    0  0.32137533670E+02  0.70720085302E+01 -0.60675471901E+02  0.46890678341E+03  0.46379868937E+03 0.  0.
         13    1    3    3    0    0  0.77525159635E+02  0.21369869541E+03  0.46071284434E+02  0.23194793822E+03  0.00000000000E+00 0.  1.
          1    1    3    3  501    0 -0.45387625965E+02 -0.20662668688E+03 -0.10674675633E+03  0.23695884518E+03  0.00000000000E+00 0.  1.
         21    1    1    2  502  501 -0.32137533670E+02 -0.70720085302E+01  0.16308120380E+02  0.36725865073E+02  0.00000000000E+00 0.  1.
<scales pt_clust_4="550.00000" pt_clust_5="550.00000" pt_clust_6="32.90645"></scales>
<mgrwt>
<rscale>  0 0.30000000E+03</rscale>
<asrwt>  1 0.32906449E+02</asrwt>
<pdfrwt beam="1">  1        1 0.83866418E+00 0.30000000E+03</pdfrwt>
<pdfrwt beam="2">0</pdfrwt>
<totfact> 0.51463510E-04</totfact>
</mgrwt>
<clustering>
<clus scale="   32.906">  1  6  2 -1</clus>
<clus scale="  463.799">  4  5 -1 -1</clus>
<clus scale="  300.000">  1  4  2 -1</clus>
</clustering>
</event>
<event>
 6    1  0.1007353E-011  0.3000000E+03  0.7818608E-02  0.1093470E+00
          1   -1    0    0  502    0  0.00000000000E+00  0.00000000000E+00  0.24703653071E+03  0.24703653071E+03  0.00000000000E+00 0.  1.
         13   -1    0    0    0    0 -0.00000000000E+00 -0.00000000000E+00 -0.27500000000E+03  0.27500000000E+03  0.00000000000E+00 0.  1.
    9000005    2    1    2  501    0  0.31382390944E+02  0.19138242285E+01 -0.43946977696E+02  0.48676629219E+03  0.48375775878E+03 0.  0.
         13    1    3    3    0    0  0.22667852717E+03 -0.10203800099E+03 -0.83063295853E+02  0.26209620265E+03  0.00000000000E+00 0.  1.
          3    1    3    3  501    0 -0.19529613622E+03  0.10395182521E+03  0.39116318157E+02  0.22467008954E+03  0.00000000000E+00 0.  1.
         21    1    1    2  502  501 -0.31382390944E+02 -0.19138242285E+01  0.15983508407E+02  0.35270238524E+02  0.00000000000E+00 0. -1.
<scales pt_clust_4="550.00000" pt_clust_5="550.00000" pt_clust_6="31.44069"></scales>
<mgrwt>
<rscale>  0 0.30000000E+03</rscale>
<asrwt>  1 0.31440693E+02</asrwt>
<pdfrwt beam="1">  1        1 0.89831466E+00 0.30000000E+03</pdfrwt>
<pdfrwt beam="2">0</pdfrwt>
<totfact> 0.11808521E-04</totfact>
</mgrwt>
<clustering>
<clus scale="   31.441">  1  6  2 -1</clus>
<clus scale="  483.758">  4  5 -1 -1</clus>
<clus scale="  300.000">  1  4  2 -1</clus>
</clustering>
</event>
<event>
 6    1  0.1007353E-011  0.3000000E+03  0.7818608E-02  0.1093470E+00
          1   -1    0    0  502    0  0.00000000000E+00  0.00000000000E+00  0.22763392905E+03  0.22763392905E+03  0.00000000000E+00 0.  1.
         13   -1    0    0    0    0 -0.00000000000E+00 -0.00000000000E+00 -0.27500000000E+03  0.27500000000E+03  0.00000000000E+00 0.  1.
    9000005    2    1    2  501    0  0.30602696890E+02  0.65670872837E+01 -0.56811489708E+02  0.46994038797E+03  0.46544255413E+03 0.  0.
         13    1    3    3    0    0  0.74996338191E+02 -0.45938790880E+02 -0.24992691045E+03  0.26494958731E+03  0.00000000000E+00 0.  1.
          1    1    3    3  501    0 -0.44393641301E+02  0.52505878163E+02  0.19311542074E+03  0.20499080066E+03  0.00000000000E+00 0.  1.
         21    1    1    2  502  501 -0.30602696890E+02 -0.65670872837E+01  0.94454187532E+01  0.32693541071E+02  0.00000000000E+00 0. -1.
<scales pt_clust_4="550.00000" pt_clust_5="550.00000" pt_clust_6="31.29939"></scales>
<mgrwt>
<rscale>  0 0.30000000E+03</rscale>
<asrwt>  1 0.31299388E+02</asrwt>
<pdfrwt beam="1">  1        1 0.82775974E+00 0.30000000E+03</pdfrwt>
<pdfrwt beam="2">0</pdfrwt>
<totfact> 0.63068350E-04</totfact>
</mgrwt>
<clustering>
<clus scale="   31.299">  1  6  2 -1</clus>
<clus scale="  465.443">  4  5 -1 -1</clus>
<clus scale="  300.000">  1  4  2 -1</clus>
</clustering>
</event>
<event>
 6    1  0.1007353E-011  0.3000000E+03  0.7818608E-02  0.1093470E+00
          1   -1    0    0  502    0  0.00000000000E+00  0.00000000000E+00  0.24696025888E+03  0.24696025888E+03  0.00000000000E+00 0.  1.
         13   -1    0    0    0    0 -0.00000000000E+00 -0.00000000000E+00 -0.27500000000E+03  0.27500000000E+03  0.00000000000E+00 0.  1.
    9000005    2    1    2  501    0 -0.56588890476E+01 -0.48079162780E+02 -0.47481456080E+02  0.46979121443E+03  0.46487166784E+03 0.  0.
         13    1    3    3    0    0 -0.38515861914E+02 -0.25318751594E+03 -0.54967922603E+02  0.26193293486E+03  0.00000000000E+00 0.  1.
          3    1    3    3  501    0  0.32856972866E+02  0.20510835316E+03  0.74864665227E+01  0.20785827957E+03  0.00000000000E+00 0.  1.
         21    1    1    2  502  501  0.56588890476E+01  0.48079162780E+02  0.19441714962E+02  0.52169044457E+02  0.00000000000E+00 0. -1.
<scales pt_clust_4="550.00000" pt_clust_5="550.00000" pt_clust_6="48.41104"></scales>
<mgrwt>
<rscale>  0 0.30000000E+03</rscale>
<asrwt>  1 0.48411041E+02</asrwt>
<pdfrwt beam="1">  1        1 0.89803731E+00 0.30000000E+03</pdfrwt>
<pdfrwt beam="2">0</pdfrwt>
<totfact> 0.10990412E-04</totfact>
</mgrwt>
<clustering>
<clus scale="   48.411">  1  6  2 -1</clus>
<clus scale="  464.872">  4  5 -1 -1</clus>
<clus scale="  300.000">  1  4  2 -1</clus>
</clustering>
</event>
<event>
 6    1  0.1007353E-011  0.3000000E+03  0.7818608E-02  0.1093470E+00
          1   -1    0    0  502    0  0.00000000000E+00  0.00000000000E+00  0.23210485325E+03  0.23210485325E+03  0.00000000000E+00 0.  1.
         13   -1    0    0    0    0 -0.00000000000E+00 -0.00000000000E+00 -0.27500000000E+03  0.27500000000E+03  0.00000000000E+00 0.  1.
    9000005    2    1    2  501    0  0.24130286830E+02 -0.25952144326E+02 -0.58287422213E+02  0.46846929086E+03  0.46347628672E+03 0.  0.
         13    1    3    3    0    0  0.84698584925E+02 -0.23361084358E+02  0.19189167152E+03  0.21104976699E+03  0.00000000000E+00 0.  1.
          1    1    3    3  501    0 -0.60568298095E+02 -0.25910599679E+01 -0.25017909373E+03  0.25741952386E+03  0.00000000000E+00 0.  1.
         21    1    1    2  502  501 -0.24130286830E+02  0.25952144326E+02  0.15392275465E+02  0.38635562395E+02  0.00000000000E+00 0.  1.
<scales pt_clust_4="550.00000" pt_clust_5="550.00000" pt_clust_6="35.43705"></scales>
<mgrwt>
<rscale>  0 0.30000000E+03</rscale>
<asrwt>  1 0.35437050E+02</asrwt>
<pdfrwt beam="1">  1        1 0.84401765E+00 0.30000000E+03</pdfrwt>
<pdfrwt beam="2">0</pdfrwt>
<totfact> 0.45969949E-04</totfact>
</mgrwt>
<clustering>
<clus scale="   35.437">  1  6  2 -1</clus>
<clus scale="  463.476">  4  5 -1 -1</clus>
<clus scale="  300.000">  1  4  2 -1</clus>
</clustering>
</event>
<event>
 6    1  0.1007353E-011  0.3000000E+03  0.7818608E-02  0.1093470E+00
          1   -1    0    0  502    0  0.00000000000E+00  0.00000000000E+00  0.22595737308E+03  0.22595737308E+03  0.00000000000E+00 0.  1.
         13   -1    0    0    0    0 -0.00000000000E+00 -0.00000000000E+00 -0.27500000000E+03  0.27500000000E+03  0.00000000000E+00 0.  1.
    9000005    2    1    2  501    0 -0.63853998564E+01 -0.38021657115E+02 -0.54672558058E+02  0.46199436671E+03  0.45712502286E+03 0.  0.
         13    1    3    3    0    0 -0.20199776804E+02 -0.49499682374E+02 -0.25516167073E+03  0.26070237388E+03  0.00000000000E+00 0.  1.
          3    1    3    3  501    0  0.13814376948E+02  0.11478025259E+02  0.20048911267E+03  0.20129199282E+03  0.00000000000E+00 0.  1.
         21    1    1    2  502  501  0.63853998564E+01  0.38021657115E+02  0.56299311396E+01  0.38963006374E+02  0.00000000000E+00 0.  1.
<scales pt_clust_4="550.00000" pt_clust_5="550.00000" pt_clust_6="38.55411"></scales>
<mgrwt>
<rscale>  0 0.30000000E+03</rscale>
<asrwt>  1 0.38554114E+02</asrwt>
<pdfrwt beam="1">  1        1 0.82166317E+00 0.30000000E+03</pdfrwt>
<pdfrwt beam="2">0</pdfrwt>
<totfact> 0.68702076E-04</totfact>
</mgrwt>
<clustering>
<clus scale="   38.554">  1  6  2 -1</clus>
<clus scale="  457.125">  4  5 -1 -1</clus>
<clus scale="  300.000">  1  4  2 -1</clus>
</clustering>
</event>
<event>
 6    1  0.1007353E-011  0.3000000E+03  0.7818608E-02  0.1093470E+00
          1   -1    0    0  502    0  0.00000000000E+00  0.00000000000E+00  0.25237522871E+03  0.25237522871E+03  0.00000000000E+00 0.  1.
         13   -1    0    0    0    0 -0.00000000000E+00 -0.00000000000E+00 -0.27500000000E+03  0.27500000000E+03  0.00000000000E+00 0.  1.
    9000005    2    1    2  501    0 -0.30998707506E+02 -0.69654680155E+01 -0.74925327481E+01  0.49218400459E+03  0.49110031431E+03 0.  0.
         13    1    3    3    0    0  0.14643924152E+03  0.15656255864E+03  0.89253345627E+02  0.23221207103E+03  0.00000000000E+00 0.  1.
          1    1    3    3  501    0 -0.17743794903E+03 -0.16352802666E+03 -0.96745878375E+02  0.25997193356E+03  0.00000000000E+00 0.  1.
         21    1    1    2  502  501  0.30998707506E+02  0.69654680155E+01 -0.15132238540E+02  0.35191224119E+02  0.00000000000E+00 0.  1.
<scales pt_clust_4="550.00000" pt_clust_5="550.00000" pt_clust_6="31.77166"></scales>
<mgrwt>
<rscale>  0 0.30000000E+03</rscale>
<asrwt>  1 0.31771664E+02</asrwt>
<pdfrwt beam="1">  1        1 0.91772810E+00 0.30000000E+03</pdfrwt>
<pdfrwt beam="2">0</pdfrwt>
<totfact> 0.47777172E-05</totfact>
</mgrwt>
<clustering>
<clus scale="   31.772">  1  6  2 -1</clus>
<clus scale="  491.100">  4  5 -1 -1</clus>
<clus scale="  300.000">  1  4  2 -1</clus>
</clustering>
</event>
<event>
 6    1  0.1007353E-011  0.3000000E+03  0.7818608E-02  0.1093470E+00
          1   -1    0    0  502    0  0.00000000000E+00  0.00000000000E+00  0.22866754290E+03  0.22866754290E+03  0.00000000000E+00 0.  1.
         13   -1    0    0    0    0 -0.00000000000E+00 -0.00000000000E+00 -0.27500000000E+03  0.27500000000E+03  0.00000000000E+00 0.  1.
    9000005    2    1    2  501    0 -0.12061207876E+02  0.29377985244E+02 -0.41451680348E+02  0.47153717200E+03  0.46863687864E+03 0.  0.
         13    1    3    3    0    0 -0.25173662031E+02 -0.21777581337E+03 -0.45972970886E+02  0.22399449145E+03  0.00000000000E+00 0.  1.
          3    1    3    3  501    0  0.13112454155E+02  0.24715379861E+03  0.45212905374E+01  0.24754268054E+03  0.00000000000E+00 0.  1.
         21    1    1    2  502  501  0.12061207876E+02 -0.29377985244E+02 -0.48807767551E+01  0.32130370900E+02  0.00000000000E+00 0.  1.
<scales pt_clust_4="550.00000" pt_clust_5="550.00000" pt_clust_6="31.75752"></scales>
<mgrwt>
<rscale>  0 0.30000000E+03</rscale>
<asrwt>  1 0.31757515E+02</asrwt>
<pdfrwt beam="1">  1        1 0.83151834E+00 0.30000000E+03</pdfrwt>
<pdfrwt beam="2">0</pdfrwt>
<totfact> 0.58526874E-04</totfact>
</mgrwt>
<clustering>
<clus scale="   31.758">  1  6  2 -1</clus>
<clus scale="  468.637">  4  5 -1 -1</clus>
<clus scale="  300.000">  1  4  2 -1</clus>
</clustering>
</event>
<event>
 6    1  0.1007353E-011  0.3000000E+03  0.7818608E-02  0.1093470E+00
          1   -1    0    0  502    0  0.00000000000E+00  0.00000000000E+00  0.23787546794E+03  0.23787546794E+03  0.00000000000E+00 0.  1.
         13   -1    0    0    0    0 -0.00000000000E+00 -0.00000000000E+00 -0.27500000000E+03  0.27500000000E+03  0.00000000000E+00 0.  1.
    9000005    2    1    2  501    0  0.33727416400E+02 -0.83333128348E+01 -0.45334324264E+02  0.47717696086E+03  0.47374641772E+03 0.  0.
         13    1    3    3    0    0 -0.23308364761E+02  0.21198605925E+03  0.66784027824E+02  0.22347589480E+03  0.00000000000E+00 0.  1.
          3    1    3    3  501    0  0.57035781161E+02 -0.22031937208E+03 -0.11211835209E+03  0.25370106606E+03  0.00000000000E+00 0.  1.
         21    1    1    2  502  501 -0.33727416400E+02  0.83333128348E+01  0.82097922077E+01  0.35698507083E+02  0.00000000000E+00 0.  1.
<scales pt_clust_4="550.00000" pt_clust_5="550.00000" pt_clust_6="34.74166"></scales>
<mgrwt>
<rscale>  0 0.30000000E+03</rscale>
<asrwt>  1 0.34741657E+02</asrwt>
<pdfrwt beam="1">  1        1 0.86500170E+00 0.30000000E+03</pdfrwt>
<pdfrwt beam="2">0</pdfrwt>
<totfact> 0.28608613E-04</totfact>
</mgrwt>
<clustering>
<clus scale="   34.742">  1  6  2 -1</clus>
<clus scale="  473.746">  4  5 -1 -1</clus>
<clus scale="  300.000">  1  4  2 -1</clus>
</clustering>
</event>
<event>
 6    1  0.1007353E-011  0.3000000E+03  0.7818608E-02  0.1093470E+00
          1   -1    0    0  502    0  0.00000000000E+00  0.00000000000E+00  0.22290247474E+03  0.22290247474E+03  0.00000000000E+00 0.  1.
         13   -1    0    0    0    0 -0.00000000000E+00 -0.00000000000E+00 -0.27500000000E+03  0.27500000000E+03  0.00000000000E+00 0.  1.
    9000005    2    1    2  501    0 -0.18591674216E+02 -0.31634058289E+02 -0.54521404400E+02  0.46112966979E+03  0.45642263839E+03 0.  0.
         13    1    3    3    0    0  0.74810451897E+02 -0.21818364257E+03  0.36481160079E+02  0.23351997910E+03  0.00000000000E+00 0.  1.
          1    1    3    3  501    0 -0.93402126113E+02  0.18654958428E+03 -0.91002564479E+02  0.22760969070E+03  0.00000000000E+00 0.  1.
         21    1    1    2  502  501  0.18591674216E+02  0.31634058289E+02  0.24238791446E+01  0.36772804952E+02  0.00000000000E+00 0. -1.
<scales pt_clust_4="550.00000" pt_clust_5="550.00000" pt_clust_6="36.69283"></scales>
<mgrwt>
<rscale>  0 0.30000000E+03</rscale>
<asrwt>  1 0.36692833E+02</asrwt>
<pdfrwt beam="1">  1        1 0.81055445E+00 0.30000000E+03</pdfrwt>
<pdfrwt beam="2">0</pdfrwt>
<totfact> 0.85592987E-04</totfact>
</mgrwt>
<clustering>
<clus scale="   36.693">  1  6  2 -1</clus>
<clus scale="  456.423">  4  5 -1 -1</clus>
<clus scale="  300.000">  1  4  2 -1</clus>
</clustering>
</event>
<event>
 6    1  0.1007353E-011  0.3000000E+03  0.7818608E-02  0.1093470E+00
          1   -1    0    0  502    0  0.00000000000E+00  0.00000000000E+00  0.23331191418E+03  0.23331191418E+03  0.00000000000E+00 0.  1.
         13   -1    0    0    0    0 -0.00000000000E+00 -0.00000000000E+00 -0.27500000000E+03  0.27500000000E+03  0.00000000000E+00 0.  1.
    9000005    2    1    2  501    0  0.64841098803E+01 -0.31621990481E+02 -0.72927107231E+02  0.46339120157E+03  0.45647677789E+03 0.  0.
         13    1    3    3    0    0 -0.21687437335E+03 -0.68558992938E+02 -0.68611534040E+01  0.22755637709E+03  0.00000000000E+00 0.  1.
          1    1    3    3  501    0  0.22335848323E+03  0.36937002457E+02 -0.66065953827E+02  0.23583482448E+03  0.00000000000E+00 0.  1.
         21    1    1    2  502  501 -0.64841098803E+01  0.31621990481E+02  0.31239021407E+02  0.44920712610E+02  0.00000000000E+00 0. -1.
<scales pt_clust_4="550.00000" pt_clust_5="550.00000" pt_clust_6="32.27993"></scales>
<mgrwt>
<rscale>  0 0.30000000E+03</rscale>
<asrwt>  1 0.32279931E+02</asrwt>
<pdfrwt beam="1">  1        1 0.84840696E+00 0.30000000E+03</pdfrwt>
<pdfrwt beam="2">0</pdfrwt>
<totfact> 0.42756914E-04</totfact>
</mgrwt>
<clustering>
<clus scale="   32.280">  1  6  2 -1</clus>
<clus scale="  456.477">  4  5 -1 -1</clus>
<clus scale="  300.000">  1  4  2 -1</clus>
</clustering>
</event>
<event>
 6    1  0.1007353E-011  0.3000000E+03  0.7818608E-02  0.1093470E+00
          1   -1    0    0  502    0  0.00000000000E+00  0.00000000000E+00  0.22000716448E+03  0.22000716448E+03  0.00000000000E+00 0.  1.
         13   -1    0    0    0    0 -0.00000000000E+00 -0.00000000000E+00 -0.27500000000E+03  0.27500000000E+03  0.00000000000E+00 0.  1.
    9000005    2    1    2  501    0 -0.32454505623E+02 -0.58814751138E+00 -0.46398930968E+02  0.46142895655E+03  0.45794124109E+03 0.  0.
         13    1    3    3    0    0  0.21044841402E+03 -0.36282909846E+02 -0.24004505873E+02  0.21489811729E+03  0.00000000000E+00 0.  1.
          1    1    3    3  501    0 -0.24290291964E+03  0.35694762335E+02 -0.22394425095E+02  0.24653083926E+03  0.00000000000E+00 0.  1.
         21    1    1    2  502  501  0.32454505623E+02  0.58814751138E+00 -0.85939045516E+01  0.33578207935E+02  0.00000000000E+00 0. -1.
<scales pt_clust_4="550.00000" pt_clust_5="550.00000" pt_clust_6="32.45985"></scales>
<mgrwt>
<rscale>  0 0.30000000E+03</rscale>
<asrwt>  1 0.32459851E+02</asrwt>
<pdfrwt beam="1">  1        1 0.80002605E+00 0.30000000E+03</pdfrwt>
<pdfrwt beam="2">0</pdfrwt>
<totfact> 0.10513893E-03</totfact>
</mgrwt>
<clustering>
<clus scale="   32.460">  1  6  2 -1</clus>
<clus scale="  457.941">  4  5 -1 -1</clus>
<clus scale="  300.000">  1  4  2 -1</clus>
</clustering>
</event>
<event>
 6    1  0.1007353E-011  0.3000000E+03  0.7818608E-02  0.1093470E+00
          1   -1    0    0  502    0  0.00000000000E+00  0.00000000000E+00  0.22893749191E+03  0.22893749191E+03  0.00000000000E+00 0.  1.
         13   -1    0    0    0    0 -0.00000000000E+00 -0.00000000000E+00 -0.27500000000E+03  0.27500000000E+03  0.00000000000E+00 0.  1.
    9000005    2    1    2  501    0 -0.44104963209E+01 -0.30445880984E+02 -0.57681554293E+02  0.47105274801E+03  0.46649450753E+03 0.  0.
         13    1    3    3    0    0  0.54541473850E+02 -0.11157309273E+03  0.17678100279E+03  0.21604363064E+03  0.00000000000E+00 0.  1.
          1    1    3    3  501    0 -0.58951970171E+02  0.81127211751E+02 -0.23446255708E+03  0.25500911738E+03  0.00000000000E+00 0.  1.
         21    1    1    2  502  501  0.44104963209E+01  0.30445880984E+02  0.11619046207E+02  0.32884743901E+02  0.00000000000E+00 0. -1.
<scales pt_clust_4="550.00000" pt_clust_5="550.00000" pt_clust_6="30.76368"></scales>
<mgrwt>
<rscale>  0 0.30000000E+03</rscale>
<asrwt>  1 0.30763682E+02</asrwt>
<pdfrwt beam="1">  1        1 0.83249997E+00 0.30000000E+03</pdfrwt>
<pdfrwt beam="2">0</pdfrwt>
<totfact> 0.57862859E-04</totfact>
</mgrwt>
<clustering>
<clus scale="   30.764">  1  6  2 -1</clus>
<clus scale="  466.495">  4  5 -1 -1</clus>
<clus scale="  300.000">  1  4  2 -1</clus>
</clustering>
</event>
<event>
 6    1  0.1007353E-011  0.3000000E+03  0.7818608E-02  0.1093470E+00
          1   -1    0    0  502    0  0.00000000000E+00  0.00000000000E+00  0.23443181420E+03  0.23443181420E+03  0.00000000000E+00 0.  1.
         13   -1    0    0    0    0 -0.00000000000E+00 -0.00000000000E+00 -0.27500000000E+03  0.27500000000E+03  0.00000000000E+00 0.  1.
    9000005    2    1    2  501    0 -0.12079288914E+02 -0.33103640409E+02 -0.65778184144E+02  0.46610394504E+03  0.46009168418E+03 0.  0.
         13    1    3    3    0    0  0.20036260090E+03  0.55093207169E+02 -0.10490483932E+03  0.23277770217E+03  0.00000000000E+00 0.  1.
          3    1    3    3  501    0 -0.21244188981E+03 -0.88196847577E+02  0.39126655178E+02  0.23332624287E+03  0.00000000000E+00 0.  1.
         21    1    1    2  502  501  0.12079288914E+02  0.33103640409E+02  0.25209998339E+02  0.43327869152E+02  0.00000000000E+00 0.  1.
<scales pt_clust_4="550.00000" pt_clust_5="550.00000" pt_clust_6="35.23862"></scales>
<mgrwt>
<rscale>  0 0.30000000E+03</rscale>
<asrwt>  1 0.35238618E+02</asrwt>
<pdfrwt beam="1">  1        1 0.85247932E+00 0.30000000E+03</pdfrwt>
<pdfrwt beam="2">0</pdfrwt>
<totfact> 0.38500468E-04</totfact>
</mgrwt>
<clustering>
<clus scale="   35.239">  1  6  2 -1</clus>
<clus scale="  460.092">  4  5 -1 -1</clus>
<clus scale="  300.000">  1  4  2 -1</clus>
</clustering>
</event>
<event>
 6    1  0.1007353E-011  0.3000000E+03  0.7818608E-02  0.1093470E+00
          1   -1    0    0  502    0  0.00000000000E+00  0.00000000000E+00  0.23742829709E+03  0.23742829709E+03  0.00000000000E+00 0.  1.
         13   -1    0    0    0    0 -0.00000000000E+00 -0.00000000000E+00 -0.27500000000E+03  0.27500000000E+03  0.00000000000E+00 0.  1.
    9000005    2    1    2  501    0  0.24447197262E+02 -0.17954995339E+02 -0.54720606697E+02  0.47758389707E+03  0.47346804183E+03 0.  0.
         13    1    3    3    0    0 -0.19318647842E+03 -0.11699560870E+03 -0.74082841292E+02  0.23769151284E+03  0.00000000000E+00 0.  1.
          3    1    3    3  501    0  0.21763367568E+03  0.99040613361E+02  0.19362234594E+02  0.23989238424E+03  0.00000000000E+00 0.  1.
         21    1    1    2  502  501 -0.24447197262E+02  0.17954995339E+02  0.17148903792E+02  0.34844400022E+02  0.00000000000E+00 0.  1.
<scales pt_clust_4="550.00000" pt_clust_5="550.00000" pt_clust_6="30.33228"></scales>
<mgrwt>
<rscale>  0 0.30000000E+03</rscale>
<asrwt>  1 0.30332282E+02</asrwt>
<pdfrwt beam="1">  1        1 0.86337563E+00 0.30000000E+03</pdfrwt>
<pdfrwt beam="2">0</pdfrwt>
<totfact> 0.30566070E-04</totfact>
</mgrwt>
<clustering>
<clus scale="   30.332">  1  6  2 -1</clus>
<clus scale="  473.468">  4  5 -1 -1</clus>
<clus scale="  300.000">  1  4  2 -1</clus>
</clustering>
</event>
<event>
 6    1  0.1007353E-011  0.3000000E+03  0.7818608E-02  0.1093470E+00
          1   -1    0    0  502    0  0.00000000000E+00  0.00000000000E+00  0.23691936367E+03  0.23691936367E+03  0.00000000000E+00 0.  1.
         13   -1    0    0    0    0 -0.00000000000E+00 -0.00000000000E+00 -0.27500000000E+03  0.27500000000E+03  0.00000000000E+00 0.  1.
    9000005    2    1    2  501    0  0.30498175889E+02  0.18246574784E+02 -0.65269138165E+02  0.46717239890E+03  0.46122327963E+03 0.  0.
         13    1    3    3    0    0  0.17884634983E+03  0.17109175418E+03 -0.57157093051E+02  0.25401838217E+03  0.00000000000E+00 0.  1.
          1    1    3    3  501    0 -0.14834817394E+03 -0.15284517939E+03 -0.81120451136E+01  0.21315401673E+03  0.00000000000E+00 0.  1.
         21    1    1    2  502  501 -0.30498175889E+02 -0.18246574784E+02  0.27188501838E+02  0.44746964770E+02  0.00000000000E+00 0.  1.
<scales pt_clust_4="550.00000" pt_clust_5="550.00000" pt_clust_6="35.53978"></scales>
<mgrwt>
<rscale>  0 0.30000000E+03</rscale>
<asrwt>  1 0.35539784E+02</asrwt>
<pdfrwt beam="1">  1        1 0.86152496E+00 0.30000000E+03</pdfrwt>
<pdfrwt beam="2">0</pdfrwt>
<totfact> 0.31061414E-04</totfact>
</mgrwt>
<clustering>
<clus scale="   35.540">  1  6  2 -1</clus>
<clus scale="  461.223">  4  5 -1 -1</clus>
<clus scale="  300.000">  1  4  2 -1</clus>
</clustering>
</event>
<event>
 6    1  0.1007353E-011  0.3000000E+03  0.7818608E-02  0.1093470E+00
          1   -1    0    0  502    0  0.00000000000E+00  0.00000000000E+00  0.22824531310E+03  0.22824531310E+03  0.00000000000E+00 0.  1.
         13   -1    0    0    0    0 -0.00000000000E+00 -0.00000000000E+00 -0.27500000000E+03  0.27500000000E+03  0.00000000000E+00 0.  1.
    9000005    2    1    2  501    0 -0.95358280068E+01 -0.34548533455E+02 -0.63005059078E+02  0.46389295897E+03  0.45819483491E+03 0.  0.
         13    1    3    3    0    0  0.11426016200E+03  0.16921018185E+03 -0.91572093473E+02  0.22376978921E+03  0.00000000000E+00 0.  1.
          1    1    3    3  501    0 -0.12379599000E+03 -0.20375871530E+03  0.28567034394E+02  0.24012316976E+03  0.00000000000E+00 0.  1.
         21    1    1    2  502  501  0.95358280068E+01  0.34548533455E+02  0.16250372182E+02  0.39352354132E+02  0.00000000000E+00 0.  1.
<scales pt_clust_4="550.00000" pt_clust_5="550.00000" pt_clust_6="35.84038"></scales>
<mgrwt>
<rscale>  0 0.30000000E+03</rscale>
<asrwt>  1 0.35840385E+02</asrwt>
<pdfrwt beam="1">  1        1 0.82998296E+00 0.30000000E+03</pdfrwt>
<pdfrwt beam="2">0</pdfrwt>
<totfact> 0.58859014E-04</totfact>
</mgrwt>
<clustering>
<clus scale="   35.840">  1  6  2 -1</clus>
<clus scale="  458.195">  4  5 -1 -1</clus>
<clus scale="  300.000">  1  4  2 -1</clus>
</clustering>
</event>
<event>
 6    1  0.1007353E-011  0.3000000E+03  0.7818608E-02  0.1093470E+00
          1   -1    0    0  502    0  0.00000000000E+00  0.00000000000E+00  0.23832540147E+03  0.23832540147E+03  0.00000000000E+00 0.  1.
         13   -1    0    0    0    0 -0.00000000000E+00 -0.00000000000E+00 -0.27500000000E+03  0.27500000000E+03  0.00000000000E+00 0.  1.
    9000005    2    1    2  501    0 -0.27549197086E+02  0.27552314210E+02 -0.49944462286E+02  0.47216501320E+03  0.46789663613E+03 0.  0.
         13    1    3    3    0    0  0.99671024526E+02 -0.18669865284E+03  0.22085394238E+02  0.21278736979E+03  0.00000000000E+00 0.  1.
          1    1    3    3  501    0 -0.12722022161E+03  0.21425096706E+03 -0.72029856524E+02  0.25937764341E+03  0.00000000000E+00 0.  1.
         21    1    1    2  502  501  0.27549197086E+02 -0.27552314210E+02  0.13269863761E+02  0.41160388271E+02  0.00000000000E+00 0. -1.
<scales pt_clust_4="550.00000" pt_clust_5="550.00000" pt_clust_6="38.96265"></scales>
<mgrwt>
<rscale>  0 0.30000000E+03</rscale>
<asrwt>  1 0.38962652E+02</asrwt>
<pdfrwt beam="1">  1        1 0.86663782E+00 0.30000000E+03</pdfrwt>
<pdfrwt beam="2">0</pdfrwt>
<totfact> 0.26902268E-04</totfact>
</mgrwt>
<clustering>
<clus scale="   38.963">  1  6  2 -1</clus>
<clus scale="  467.897">  4  5 -1 -1</clus>
<clus scale="  300.000">  1  4  2 -1</clus>
</clustering>
</event>
<event>
 6    1  0.1007353E-011  0.3000000E+03  0.7818608E-02  0.1093470E+00
          1   -1    0    0  502    0  0.00000000000E+00  0.00000000000E+00  0.22167499294E+03  0.22167499294E+03  0.00000000000E+00 0.  1.
         13   -1    0    0    0    0 -0.00000000000E+00 -0.00000000000E+00 -0.27500000000E+03  0.27500000000E+03  0.00000000000E+00 0.  1.
    9000005    2    1    2  501    0 -0.10141936989E+02 -0.31718005095E+02 -0.52741274087E+02  0.46336986604E+03  0.45915258905E+03 0.  0.
         13    1    3    3    0    0 -0.42096426733E+02 -0.23901705796E+03 -0.70894119379E+02  0.25283836596E+03  0.00000000000E+00 0.  1.
          1    1    3    3  501    0  0.31954489744E+02  0.20729905287E+03  0.18152845291E+02  0.21053150008E+03  0.00000000000E+00 0.  1.
         21    1    1    2  502  501  0.10141936989E+02  0.31718005095E+02 -0.58373297704E+00  0.33305126892E+02  0.00000000000E+00 0. -1.
<scales pt_clust_4="550.00000" pt_clust_5="550.00000" pt_clust_6="33.30001"></scales>
<mgrwt>
<rscale>  0 0.30000000E+03</rscale>
<asrwt>  1 0.33300011E+02</asrwt>
<pdfrwt beam="1">  1        1 0.80609088E+00 0.30000000E+03</pdfrwt>
<pdfrwt beam="2">0</pdfrwt>
<totfact> 0.94366726E-04</totfact>
</mgrwt>
<clustering>
<clus scale="   33.300">  1  6  2 -1</clus>
<clus scale="  459.153">  4  5 -1 -1</clus>
<clus scale="  300.000">  1  4  2 -1</clus>
</clustering>
</event>
<event>
 6    1  0.1007353E-011  0.3000000E+03  0.7818608E-02  0.1093470E+00
          1   -1    0    0  502    0  0.00000000000E+00  0.00000000000E+00  0.22608667120E+03  0.22608667120E+03  0.00000000000E+00 0.  1.
         13   -1    0    0    0    0 -0.00000000000E+00 -0.00000000000E+00 -0.27500000000E+03  0.27500000000E+03  0.00000000000E+00 0.  1.
    9000005    2    1    2  501    0  0.30763165726E+02 -0.15886381847E+02 -0.56649603157E+02  0.46560992622E+03  0.46085211984E+03 0.  0.
         13    1    3    3    0    0  0.23567510282E+02 -0.22833709943E+03 -0.97066638276E+02  0.24922919328E+03  0.00000000000E+00 0.  1.
          3    1    3    3  501    0  0.71956554442E+01  0.21245071758E+03  0.40417035119E+02  0.21638073294E+03  0.00000000000E+00 0.  1.
         21    1    1    2  502  501 -0.30763165726E+02  0.15886381847E+02  0.77362743544E+01  0.35476744983E+02  0.00000000000E+00 0.  1.
<scales pt_clust_4="550.00000" pt_clust_5="550.00000" pt_clust_6="34.62296"></scales>
<mgrwt>
<rscale>  0 0.30000000E+03</rscale>
<asrwt>  1 0.34622962E+02</asrwt>
<pdfrwt beam="1">  1        1 0.82213335E+00 0.30000000E+03</pdfrwt>
<pdfrwt beam="2">0</pdfrwt>
<totfact> 0.69418809E-04</totfact>
</mgrwt>
<clustering>
<clus scale="   34.623">  1  6  2 -1</clus>
<clus scale="  460.852">  4  5 -1 -1</clus>
<clus scale="  300.000">  1  4  2 -1</clus>
</clustering>
</event>
<event>
 6    1  0.1007353E-011  0.3000000E+03  0.7818608E-02  0.1093470E+00
          1   -1    0    0  502    0  0.00000000000E+00  0.00000000000E+00  0.22505850445E+03  0.22505850445E+03  0.00000000000E+00 0.  1.
         13   -1    0    0    0    0 -0.00000000000E+00 -0.00000000000E+00 -0.27500000000E+03  0.27500000000E+03  0.00000000000E+00 0.  1.
    9000005    2    1    2  501    0 -0.32207983115E+02 -0.41227047237E+00 -0.49650360861E+02  0.46784656718E+03  0.46408806055E+03 0.  0.
         13    1    3    3    0    0  0.15376987818E+03 -0.34366122849E+02  0.13208962911E+03  0.20560611847E+03  0.00000000000E+00 0.  1.
          1    1    3    3  501    0 -0.18597786129E+03  0.33953852376E+02 -0.18173998997E+03  0.26224044870E+03  0.00000000000E+00 0.  1.
         21    1    1    2  502  501  0.32207983115E+02  0.41227047237E+00 -0.29113469267E+00  0.32211937270E+02  0.00000000000E+00 0.  1.
<scales pt_clust_4="550.00000" pt_clust_5="550.00000" pt_clust_6="32.21062"></scales>
<mgrwt>
<rscale>  0 0.30000000E+03</rscale>
<asrwt>  1 0.32210622E+02</asrwt>
<pdfrwt beam="1">  1        1 0.81839456E+00 0.30000000E+03</pdfrwt>
<pdfrwt beam="2">0</pdfrwt>
<totfact> 0.75828289E-04</totfact>
</mgrwt>
<clustering>
<clus scale="   32.211">  1  6  2 -1</clus>
<clus scale="  464.088">  4  5 -1 -1</clus>
<clus scale="  300.000">  1  4  2 -1</clus>
</clustering>
</event>
<event>
 6    1  0.1007353E-011  0.3000000E+03  0.7818608E-02  0.1093470E+00
          1   -1    0    0  502    0  0.00000000000E+00  0.00000000000E+00  0.25644996908E+03  0.25644996908E+03  0.00000000000E+00 0.  1.
         13   -1    0    0    0    0 -0.00000000000E+00 -0.00000000000E+00 -0.27500000000E+03  0.27500000000E+03  0.00000000000E+00 0.  1.
    9000005    2    1    2  501    0  0.14065721486E+02 -0.33740127409E+02 -0.58772802405E+02  0.47709822518E+03  0.47205109199E+03 0.  0.
         13    1    3    3    0    0  0.21547896634E+03 -0.60232810522E+01 -0.14122356864E+03  0.25770440661E+03  0.00000000000E+00 0.  1.
          3    1    3    3  501    0 -0.20141324485E+03 -0.27716846357E+02  0.82450766237E+02  0.21939381857E+03  0.00000000000E+00 0.  1.
         21    1    1    2  502  501 -0.14065721486E+02  0.33740127409E+02  0.40222771485E+02  0.54351743895E+02  0.00000000000E+00 0.  1.
<scales pt_clust_4="550.00000" pt_clust_5="550.00000" pt_clust_6="36.55463"></scales>
<mgrwt>
<rscale>  0 0.30000000E+03</rscale>
<asrwt>  1 0.36554626E+02</asrwt>
<pdfrwt beam="1">  1        1 0.93254534E+00 0.30000000E+03</pdfrwt>
<pdfrwt beam="2">0</pdfrwt>
<totfact> 0.23972534E-05</totfact>
</mgrwt>
<clustering>
<clus scale="   36.555">  1  6  2 -1</clus>
<clus scale="  472.051">  4  5 -1 -1</clus>
<clus scale="  300.000">  1  4  2 -1</clus>
</clustering>
</event>
<event>
 6    1  0.1007353E-011  0.3000000E+03  0.7818608E-02  0.1093470E+00
          1   -1    0    0  502    0  0.00000000000E+00  0.00000000000E+00  0.22581076787E+03  0.22581076787E+03  0.00000000000E+00 0.  1.
         13   -1    0    0    0    0 -0.00000000000E+00 -0.00000000000E+00 -0.27500000000E+03  0.27500000000E+03  0.00000000000E+00 0.  1.
    9000005    2    1    2  501    0 -0.22572851557E+02 -0.21344502558E+02 -0.71032314094E+02  0.46283391115E+03  0.45629433291E+03 0.  0.
         13    1    3    3    0    0  0.13390686739E+03  0.13884744241E+03 -0.12832763201E+03  0.23168435971E+03  0.00000000000E+00 0.  1.
          1    1    3    3  501    0 -0.15647971895E+03 -0.16019194497E+03  0.57295317911E+02  0.23114955144E+03  0.00000000000E+00 0.  1.
         21    1    1    2  502  501  0.22572851557E+02  0.21344502558E+02  0.21843081964E+02  0.37976856724E+02  0.00000000000E+00 0. -1.
<scales pt_clust_4="550.00000" pt_clust_5="550.00000" pt_clust_6="31.06640"></scales>
<mgrwt>
<rscale>  0 0.30000000E+03</rscale>
<asrwt>  1 0.31066403E+02</asrwt>
<pdfrwt beam="1">  1        1 0.82113006E+00 0.30000000E+03</pdfrwt>
<pdfrwt beam="2">0</pdfrwt>
<totfact> 0.72317934E-04</totfact>
</mgrwt>
<clustering>
<clus scale="   31.066">  1  6  2 -1</clus>
<clus scale="  456.294">  4  5 -1 -1</clus>
<clus scale="  300.000">  1  4  2 -1</clus>
</clustering>
</event>
<event>
 6    1  0.1007353E-011  0.3000000E+03  0.7818608E-02  0.1093470E+00
          1   -1    0    0  502    0  0.00000000000E+00  0.00000000000E+00  0.24920641211E+03  0.24920641211E+03  0.00000000000E+00 0.  1.
         13   -1    0    0    0    0 -0.00000000000E+00 -0.00000000000E+00 -0.27500000000E+03  0.27500000000E+03  0.00000000000E+00 0.  1.
    9000005    2    1    2  501    0  0.13662191459E+02 -0.32828773011E+02 -0.31868862524E+02  0.48813297625E+03  0.48579192489E+03 0.  0.
         13    1    3    3    0    0  0.10017496919E+03  0.75125216561E+02  0.18947570763E+03  0.22711201289E+03  0.00000000000E+00 0.  1.
          1    1    3    3  501    0 -0.86512777731E+02 -0.10795398957E+03 -0.22134457016E+03  0.26102096336E+03  0.00000000000E+00 0.  1.
         21    1    1    2  502  501 -0.13662191459E+02  0.32828773011E+02  0.60752746308E+01  0.36073435859E+02  0.00000000000E+00 0.  1.
<scales pt_clust_4="550.00000" pt_clust_5="550.00000" pt_clust_6="35.55818"></scales>
<mgrwt>
<rscale>  0 0.30000000E+03</rscale>
<asrwt>  1 0.35558175E+02</asrwt>
<pdfrwt beam="1">  1        1 0.90620513E+00 0.30000000E+03</pdfrwt>
<pdfrwt beam="2">0</pdfrwt>
<totfact> 0.87284750E-05</totfact>
</mgrwt>
<clustering>
<clus scale="   35.558">  1  6  2 -1</clus>
<clus scale="  485.792">  4  5 -1 -1</clus>
<clus scale="  300.000">  1  4  2 -1</clus>
</clustering>
</event>
<event>
 6    1  0.1007353E-011  0.3000000E+03  0.7818608E-02  0.1093470E+00
          1   -1    0    0  502    0  0.00000000000E+00  0.00000000000E+00  0.23601894253E+03  0.23601894253E+03  0.00000000000E+00 0.  1.
         13   -1    0    0    0    0 -0.00000000000E+00 -0.00000000000E+00 -0.27500000000E+03  0.27500000000E+03  0.00000000000E+00 0.  1.
    9000005    2    1    2  501    0  0.33099257227E+02  0.14472752797E+02 -0.36488984227E+02  0.47480800729E+03  0.47202349138E+03 0.  0.
         13    1    3    3    0    0 -0.56644222362E+02  0.21885167128E+03  0.56471494668E+02  0.23300998189E+03  0.00000000000E+00 0.  1.
          1    1    3    3  501    0  0.89743479589E+02 -0.20437891848E+03 -0.92960478895E+02  0.24179802540E+03  0.00000000000E+00 0.  1.
         21    1    1    2  502  501 -0.33099257227E+02 -0.14472752797E+02 -0.24920732397E+01  0.36210935248E+02  0.00000000000E+00 0. -1.
<scales pt_clust_4="550.00000" pt_clust_5="550.00000" pt_clust_6="36.12508"></scales>
<mgrwt>
<rscale>  0 0.30000000E+03</rscale>
<asrwt>  1 0.36125080E+02</asrwt>
<pdfrwt beam="1">  1        1 0.85825070E+00 0.30000000E+03</pdfrwt>
<pdfrwt beam="2">0</pdfrwt>
<totfact> 0.33555132E-04</totfact>
</mgrwt>
<clustering>
<clus scale="   36.125">  1  6  2 -1</clus>
<clus scale="  472.023">  4  5 -1 -1</clus>
<clus scale="  300.000">  1  4  2 -1</clus>
</clustering>
</event>
<event>
 6    1  0.1007353E-011  0.3000000E+03  0.7818608E-02  0.1093470E+00
          1   -1    0    0  502    0  0.00000000000E+00  0.00000000000E+00  0.22873646792E+03  0.22873646792E+03  0.00000000000E+00 0.  1.
         13   -1    0    0    0    0 -0.00000000000E+00 -0.00000000000E+00 -0.27500000000E+03  0.27500000000E+03  0.00000000000E+00 0.  1.
    9000005    2    1    2  501    0  0.11520533527E+00  0.31066791482E+02 -0.70104213794E+02  0.46457606816E+03  0.45820428141E+03 0.  0.
         13    1    3    3    0    0 -0.20930155420E+03  0.10877870789E+03 -0.35009165627E+02  0.23846506990E+03  0.00000000000E+00 0.  1.
          1    1    3    3  501    0  0.20941675954E+03 -0.77711916410E+02 -0.35095048167E+02  0.22611099826E+03  0.00000000000E+00 0.  1.
         21    1    1    2  502  501 -0.11520533527E+00 -0.31066791482E+02  0.23840681717E+02  0.39160399768E+02  0.00000000000E+00 0.  1.
<scales pt_clust_4="550.00000" pt_clust_5="550.00000" pt_clust_6="31.06701"></scales>
<mgrwt>
<rscale>  0 0.30000000E+03</rscale>
<asrwt>  1 0.31067005E+02</asrwt>
<pdfrwt beam="1">  1        1 0.83176897E+00 0.30000000E+03</pdfrwt>
<pdfrwt beam="2">0</pdfrwt>
<totfact> 0.58508495E-04</totfact>
</mgrwt>
<clustering>
<clus scale="   31.067">  1  6  2 -1</clus>
<clus scale="  458.204">  4  5 -1 -1</clus>
<clus scale="  300.000">  1  4  2 -1</clus>
</clustering>
</event>
<event>
 6    1  0.1007353E-011  0.3000000E+03  0.7818608E-02  0.1093470E+00
          1   -1    0    0  502    0  0.00000000000E+00  0.00000000000E+00  0.23223272719E+03  0.23223272719E+03  0.00000000000E+00 0.  1.
         13   -1    0    0    0    0 -0.00000000000E+00 -0.00000000000E+00 -0.27500000000E+03  0.27500000000E+03  0.00000000000E+00 0.  1.
    9000005    2    1    2  501    0 -0.31097548331E+02  0.20966396655E+02 -0.66128049371E+02  0.46304706003E+03  0.45676362988E+03 0.  0.
         13    1    3    3    0    0  0.65897408957E+02  0.17439166690E+03  0.10467759638E+03  0.21380439934E+03  0.00000000000E+00 0.  1.
          3    1    3    3  501    0 -0.96994957288E+02 -0.15342527025E+03 -0.17080564575E+03  0.24924266069E+03  0.00000000000E+00 0.  1.
         21    1    1    2  502  501  0.31097548331E+02 -0.20966396655E+02  0.23360776557E+02  0.44185667159E+02  0.00000000000E+00 0. -1.
<scales pt_clust_4="550.00000" pt_clust_5="550.00000" pt_clust_6="37.50530"></scales>
<mgrwt>
<rscale>  0 0.30000000E+03</rscale>
<asrwt>  1 0.37505297E+02</asrwt>
<pdfrwt beam="1">  1        1 0.84448264E+00 0.30000000E+03</pdfrwt>
<pdfrwt beam="2">0</pdfrwt>
<totfact> 0.45070160E-04</totfact>
</mgrwt>
<clustering>
<clus scale="   37.505">  1  6  2 -1</clus>
<clus scale="  456.764">  4  5 -1 -1</clus>
<clus scale="  300.000">  1  4  2 -1</clus>
</clustering>
</event>
<event>
 6    1  0.1007353E-011  0.3000000E+03  0.7818608E-02  0.1093470E+00
          1   -1    0    0  502    0  0.00000000000E+00  0.00000000000E+00  0.23340747864E+03  0.23340747864E+03  0.00000000000E+00 0.  1.
         13   -1    0    0    0    0 -0.00000000000E+00 -0.00000000000E+00 -0.27500000000E+03  0.27500000000E+03  0.00000000000E+00 0.  1.
    9000005    2    1    2  501    0  0.15017986213E+02 -0.38390006009E+02 -0.60557839432E+02  0.46303109975E+03  0.45719931644E+03 0.  0.
         13    1    3    3    0    0  0.21504718847E+03  0.12723218817E+02  0.60426235467E+02  0.22373757730E+03  0.00000000000E+00 0.  1.
          3    1    3    3  501    0 -0.20002920226E+03 -0.51113224826E+02 -0.12098407490E+03  0.23929352245E+03  0.00000000000E+00 0.  1.
         21    1    1    2  502  501 -0.15017986213E+02  0.38390006009E+02  0.18965318073E+02  0.45376378887E+02  0.00000000000E+00 0.  1.
<scales pt_clust_4="550.00000" pt_clust_5="550.00000" pt_clust_6="41.22296"></scales>
<mgrwt>
<rscale>  0 0.30000000E+03</rscale>
<asrwt>  1 0.41222960E+02</asrwt>
<pdfrwt beam="1">  1        1 0.84875447E+00 0.30000000E+03</pdfrwt>
<pdfrwt beam="2">0</pdfrwt>
<totfact> 0.40559001E-04</totfact>
</mgrwt>
<clustering>
<clus scale="   41.223">  1  6  2 -1</clus>
<clus scale="  457.199">  4  5 -1 -1</clus>
<clus scale="  300.000">  1  4  2 -1</clus>
</clustering>
</event>
<event>
 6    1  0.1007353E-011  0.3000000E+03  0.7818608E-02  0.1093470E+00
          1   -1    0    0  502    0  0.00000000000E+00  0.00000000000E+00  0.24170589100E+03  0.24170589100E+03  0.00000000000E+00 0.  1.
         13   -1    0    0    0    0 -0.00000000000E+00 -0.00000000000E+00 -0.27500000000E+03  0.27500000000E+03  0.00000000000E+00 0.  1.
    9000005    2    1    2  501    0 -0.28442501544E+02  0.17241373042E+02 -0.71181728352E+02  0.46629049118E+03  0.45962347947E+03 0.  0.
         13    1    3    3    0    0  0.16419859285E+03  0.74492942145E+02  0.96544161291E+02  0.20452665206E+03  0.00000000000E+00 0.  1.
          3    1    3    3  501    0 -0.19264109440E+03 -0.57251569103E+02 -0.16772588964E+03  0.26176383912E+03  0.00000000000E+00 0.  1.
         21    1    1    2  502  501  0.28442501544E+02 -0.17241373042E+02  0.37887619353E+02  0.50415399817E+02  0.00000000000E+00 0.  1.
<scales pt_clust_4="550.00000" pt_clust_5="550.00000" pt_clust_6="33.26020"></scales>
<mgrwt>
<rscale>  0 0.30000000E+03</rscale>
<asrwt>  1 0.33260199E+02</asrwt>
<pdfrwt beam="1">  1        1 0.87893051E+00 0.30000000E+03</pdfrwt>
<pdfrwt beam="2">0</pdfrwt>
<totfact> 0.20530704E-04</totfact>
</mgrwt>
<clustering>
<clus scale="   33.260">  1  6  2 -1</clus>
<clus scale="  459.623">  4  5 -1 -1</clus>
<clus scale="  300.000">  1  4  2 -1</clus>
</clustering>
</event>
<event>
 6    1  0.1007353E-011  0.3000000E+03  0.7818608E-02  0.1093470E+00
          1   -1    0    0  502    0  0.00000000000E+00  0.00000000000E+00  0.25569223730E+03  0.25569223730E+03  0.00000000000E+00 0.  1.
         13   -1    0    0    0    0 -0.00000000000E+00 -0.00000000000E+00 -0.27500000000E+03  0.27500000000E+03  0.00000000000E+00 0.  1.
    9000005    2    1    2  501    0 -0.24991324696E+02  0.38039475968E+02 -0.55728032622E+02  0.47239983554E+03  0.46688801972E+03 0.  0.
         13    1    3    3    0    0  0.15386322157E+03 -0.11820671021E+03 -0.11772664103E+03  0.22694994888E+03  0.00000000000E+00 0.  1.
          3    1    3    3  501    0 -0.17885454626E+03  0.15624618618E+03  0.61998608411E+02  0.24544988666E+03  0.00000000000E+00 0.  1.
         21    1    1    2  502  501  0.24991324696E+02 -0.38039475968E+02  0.36420269926E+02  0.58292401764E+02  0.00000000000E+00 0.  1.
<scales pt_clust_4="550.00000" pt_clust_5="550.00000" pt_clust_6="45.51448"></scales>
<mgrwt>
<rscale>  0 0.30000000E+03</rscale>
<asrwt>  1 0.45514482E+02</asrwt>
<pdfrwt beam="1">  1        1 0.92978995E+00 0.30000000E+03</pdfrwt>
<pdfrwt beam="2">0</pdfrwt>
<totfact> 0.25256653E-05</totfact>
</mgrwt>
<clustering>
<clus scale="   45.514">  1  6  2 -1</clus>
<clus scale="  466.888">  4  5 -1 -1</clus>
<clus scale="  300.000">  1  4  2 -1</clus>
</clustering>
</event>
<event>
 6    1  0.1007353E-011  0.3000000E+03  0.7818608E-02  0.1093470E+00
          1   -1    0    0  502    0  0.00000000000E+00  0.00000000000E+00  0.22725825301E+03  0.22725825301E+03  0.00000000000E+00 0.  1.
         13   -1    0    0    0    0 -0.00000000000E+00 -0.00000000000E+00 -0.27500000000E+03  0.27500000000E+03  0.00000000000E+00 0.  1.
    9000005    2    1    2  501    0 -0.16059799732E+02  0.31886421302E+02 -0.46839249763E+02  0.46654445270E+03  0.46281221894E+03 0.  0.
         13    1    3    3    0    0  0.11711859452E+03  0.78117485225E+02  0.16197080372E+03  0.21460113685E+03  0.00000000000E+00 0.  1.
          3    1    3    3  501    0 -0.13317839425E+03 -0.46231063923E+02 -0.20881005348E+03  0.25194331585E+03  0.00000000000E+00 0.  1.
         21    1    1    2  502  501  0.16059799732E+02 -0.31886421302E+02 -0.90249723145E+00  0.35713800303E+02  0.00000000000E+00 0.  1.
<scales pt_clust_4="550.00000" pt_clust_5="550.00000" pt_clust_6="35.70240"></scales>
<mgrwt>
<rscale>  0 0.30000000E+03</rscale>
<asrwt>  1 0.35702395E+02</asrwt>
<pdfrwt beam="1">  1        1 0.82639365E+00 0.30000000E+03</pdfrwt>
<pdfrwt beam="2">0</pdfrwt>
<totfact> 0.63244420E-04</totfact>
</mgrwt>
<clustering>
<clus scale="   35.702">  1  6  2 -1</clus>
<clus scale="  462.812">  4  5 -1 -1</clus>
<clus scale="  300.000">  1  4  2 -1</clus>
</clustering>
</event>
<event>
 6    1  0.1007353E-011  0.3000000E+03  0.7818608E-02  0.1093470E+00
          1   -1    0    0  502    0  0.00000000000E+00  0.00000000000E+00  0.24010624775E+03  0.24010624775E+03  0.00000000000E+00 0.  1.
         13   -1    0    0    0    0 -0.00000000000E+00 -0.00000000000E+00 -0.27500000000E+03  0.27500000000E+03  0.00000000000E+00 0.  1.
    9000005    2    1    2  501    0 -0.21692400063E+01  0.33113888608E+02 -0.49722803554E+02  0.47875881340E+03  0.47501200932E+03 0.  0.
         13    1    3    3    0    0  0.18930512233E+03 -0.12413336274E+03 -0.45789469617E+02  0.23095929644E+03  0.00000000000E+00 0.  1.
          3    1    3    3  501    0 -0.19147436234E+03  0.15724725135E+03 -0.39333339373E+01  0.24779951696E+03  0.00000000000E+00 0.  1.
         21    1    1    2  502  501  0.21692400063E+01 -0.33113888608E+02  0.14829051304E+02  0.36347434346E+02  0.00000000000E+00 0. -1.
<scales pt_clust_4="550.00000" pt_clust_5="550.00000" pt_clust_6="33.18486"></scales>
<mgrwt>
<rscale>  0 0.30000000E+03</rscale>
<asrwt>  1 0.33184864E+02</asrwt>
<pdfrwt beam="1">  1        1 0.87311363E+00 0.30000000E+03</pdfrwt>
<pdfrwt beam="2">0</pdfrwt>
<totfact> 0.23771287E-04</totfact>
</mgrwt>
<clustering>
<clus scale="   33.185">  1  6  2 -1</clus>
<clus scale="  475.012">  4  5 -1 -1</clus>
<clus scale="  300.000">  1  4  2 -1</clus>
</clustering>
</event>
<event>
 6    1  0.1007353E-011  0.3000000E+03  0.7818608E-02  0.1093470E+00
          1   -1    0    0  502    0  0.00000000000E+00  0.00000000000E+00  0.21987839487E+03  0.21987839487E+03  0.00000000000E+00 0.  1.
         13   -1    0    0    0    0 -0.00000000000E+00 -0.00000000000E+00 -0.27500000000E+03  0.27500000000E+03  0.00000000000E+00 0.  1.
    9000005    2    1    2  501    0  0.30979466376E+02  0.11978275146E+02 -0.55436294277E+02  0.46166235293E+03  0.45711676734E+03 0.  0.
         13    1    3    3    0    0 -0.27711726895E+02 -0.12467386077E+02 -0.25264111398E+03  0.25446199716E+03  0.00000000000E+00 0.  1.
          3    1    3    3  501    0  0.58691193271E+02  0.24445661223E+02  0.19720481970E+03  0.20720035578E+03  0.00000000000E+00 0.  1.
         21    1    1    2  502  501 -0.30979466376E+02 -0.11978275146E+02  0.31468914255E+00  0.33216041933E+02  0.00000000000E+00 0. -1.
<scales pt_clust_4="550.00000" pt_clust_5="550.00000" pt_clust_6="33.21455"></scales>
<mgrwt>
<rscale>  0 0.30000000E+03</rscale>
<asrwt>  1 0.33214551E+02</asrwt>
<pdfrwt beam="1">  1        1 0.79955780E+00 0.30000000E+03</pdfrwt>
<pdfrwt beam="2">0</pdfrwt>
<totfact> 0.10550200E-03</totfact>
</mgrwt>
<clustering>
<clus scale="   33.215">  1  6  2 -1</clus>
<clus scale="  457.117">  4  5 -1 -1</clus>
<clus scale="  300.000">  1  4  2 -1</clus>
</clustering>
</event>
<event>
 6    1  0.1007353E-011  0.3000000E+03  0.7818608E-02  0.1093470E+00
          1   -1    0    0  502    0  0.00000000000E+00  0.00000000000E+00  0.22490706641E+03  0.22490706641E+03  0.00000000000E+00 0.  1.
         13   -1    0    0    0    0 -0.00000000000E+00 -0.00000000000E+00 -0.27500000000E+03  0.27500000000E+03  0.00000000000E+00 0.  1.
    9000005    2    1    2  501    0 -0.29469152420E+02  0.94959732518E+01 -0.61937619784E+02  0.46675739004E+03  0.46159244790E+03 0.  0.
         13    1    3    3    0    0 -0.18210747768E+03 -0.14354494375E+03  0.26148757354E+02  0.23334961285E+03  0.00000000000E+00 0.  1.
          3    1    3    3  501    0  0.15263832526E+03  0.15304091700E+03 -0.88086377138E+02  0.23340777719E+03  0.00000000000E+00 0.  1.
         21    1    1    2  502  501  0.29469152420E+02 -0.94959732518E+01  0.11844686192E+02  0.33149676369E+02  0.00000000000E+00 0.  1.
<scales pt_clust_4="550.00000" pt_clust_5="550.00000" pt_clust_6="30.96134"></scales>
<mgrwt>
<rscale>  0 0.30000000E+03</rscale>
<asrwt>  1 0.30961338E+02</asrwt>
<pdfrwt beam="1">  1        1 0.81784388E+00 0.30000000E+03</pdfrwt>
<pdfrwt beam="2">0</pdfrwt>
<totfact> 0.77218272E-04</totfact>
</mgrwt>
<clustering>
<clus scale="   30.961">  1  6  2 -1</clus>
<clus scale="  461.592">  4  5 -1 -1</clus>
<clus scale="  300.000">  1  4  2 -1</clus>
</clustering>
</event>
<event>
 6    1  0.1007353E-011  0.3000000E+03  0.7818608E-02  0.1093470E+00
          1   -1    0    0  502    0  0.00000000000E+00  0.00000000000E+00  0.24174917267E+03  0.24174917267E+03  0.00000000000E+00 0.  1.
         13   -1    0    0    0    0 -0.00000000000E+00 -0.00000000000E+00 -0.27500000000E+03  0.27500000000E+03  0.00000000000E+00 0.  1.
    9000005    2    1    2  501    0  0.31196263735E+02 -0.26915381856E+02 -0.31708211564E+02  0.47551782155E+03  0.47266705331E+03 0.  0.
         13    1    3    3    0    0 -0.27370176541E+02  0.10006931355E+03  0.18820738024E+03  0.21490698465E+03  0.00000000000E+00 0.  1.
          1    1    3    3  501    0  0.58566440277E+02 -0.12698469540E+03 -0.21991559180E+03  0.26061083690E+03  0.00000000000E+00 0.  1.
         21    1    1    2  502  501 -0.31196263735E+02  0.26915381856E+02 -0.15426157649E+01  0.41231351117E+02  0.00000000000E+00 0. -1.
<scales pt_clust_4="550.00000" pt_clust_5="550.00000" pt_clust_6="41.20248"></scales>
<mgrwt>
<rscale>  0 0.30000000E+03</rscale>
<asrwt>  1 0.41202484E+02</asrwt>
<pdfrwt beam="1">  1        1 0.87908790E+00 0.30000000E+03</pdfrwt>
<pdfrwt beam="2">0</pdfrwt>
<totfact> 0.19647759E-04</totfact>
</mgrwt>
<clustering>
<clus scale="   41.202">  1  6  2 -1</clus>
<clus scale="  472.667">  4  5 -1 -1</clus>
<clus scale="  300.000">  1  4  2 -1</clus>
</clustering>
</event>
<event>
 6    1  0.1007353E-011  0.3000000E+03  0.7818608E-02  0.1093470E+00
          1   -1    0    0  502    0  0.00000000000E+00  0.00000000000E+00  0.24497141750E+03  0.24497141750E+03  0.00000000000E+00 0.  1.
         13   -1    0    0    0    0 -0.00000000000E+00 -0.00000000000E+00 -0.27500000000E+03  0.27500000000E+03  0.00000000000E+00 0.  1.
    9000005    2    1    2  501    0  0.78311848189E+01 -0.31879035474E+02 -0.55241108146E+02  0.47857972983E+03  0.47424611482E+03 0.  0.
         13    1    3    3    0    0 -0.20097371378E+03 -0.86908190329E+02 -0.12441204192E+03  0.25183689832E+03  0.00000000000E+00 0.  1.
          3    1    3    3  501    0  0.20880489860E+03  0.55029154855E+02  0.69170933777E+02  0.22674283152E+03  0.00000000000E+00 0.  1.
         21    1    1    2  502  501 -0.78311848189E+01  0.31879035474E+02  0.25212525646E+02  0.41391687666E+02  0.00000000000E+00 0.  1.
<scales pt_clust_4="550.00000" pt_clust_5="550.00000" pt_clust_6="32.82682"></scales>
<mgrwt>
<rscale>  0 0.30000000E+03</rscale>
<asrwt>  1 0.32826824E+02</asrwt>
<pdfrwt beam="1">  1        1 0.89080515E+00 0.30000000E+03</pdfrwt>
<pdfrwt beam="2">0</pdfrwt>
<totfact> 0.14318263E-04</totfact>
</mgrwt>
<clustering>
<clus scale="   32.827">  1  6  2 -1</clus>
<clus scale="  474.246">  4  5 -1 -1</clus>
<clus scale="  300.000">  1  4  2 -1</clus>
</clustering>
</event>
<event>
 6    1  0.1007353E-011  0.3000000E+03  0.7818608E-02  0.1093470E+00
          1   -1    0    0  502    0  0.00000000000E+00  0.00000000000E+00  0.22329102580E+03  0.22329102580E+03  0.00000000000E+00 0.  1.
         13   -1    0    0    0    0 -0.00000000000E+00 -0.00000000000E+00 -0.27500000000E+03  0.27500000000E+03  0.00000000000E+00 0.  1.
    9000005    2    1    2  501    0 -0.28457232900E+02  0.20146254021E+02 -0.60576204974E+02  0.46231445792E+03  0.45700054238E+03 0.  0.
         13    1    3    3    0    0 -0.34919483019E+02 -0.40074655542E+02  0.19373291561E+03  0.20089248593E+03  0.00000000000E+00 0.  1.
          1    1    3    3  501    0  0.64622501192E+01  0.60220909563E+02 -0.25430912058E+03  0.26142197199E+03  0.00000000000E+00 0.  1.
         21    1    1    2  502  501  0.28457232900E+02 -0.20146254021E+02  0.88672307779E+01  0.35976567889E+02  0.00000000000E+00 0. -1.
<scales pt_clust_4="550.00000" pt_clust_5="550.00000" pt_clust_6="34.86668"></scales>
<mgrwt>
<rscale>  0 0.30000000E+03</rscale>
<asrwt>  1 0.34866684E+02</asrwt>
<pdfrwt beam="1">  1        1 0.81196737E+00 0.30000000E+03</pdfrwt>
<pdfrwt beam="2">0</pdfrwt>
<totfact> 0.84229591E-04</totfact>
</mgrwt>
<clustering>
<clus scale="   34.867">  1  6  2 -1</clus>
<clus scale="  457.001">  4  5 -1 -1</clus>
<clus scale="  300.000">  1  4  2 -1</clus>
</clustering>
</event>
<event>
 6    1  0.1007353E-011  0.3000000E+03  0.7818608E-02  0.1093470E+00
          1   -1    0    0  502    0  0.00000000000E+00  0.00000000000E+00  0.22628910525E+03  0.22628910525E+03  0.00000000000E+00 0.  1.
         13   -1    0    0    0    0 -0.00000000000E+00 -0.00000000000E+00 -0.27500000000E+03  0.27500000000E+03  0.00000000000E+00 0.  1.
    9000005    2    1    2  501    0 -0.20386277679E+02  0.24812812632E+02 -0.56295622316E+02  0.46829207386E+03  0.46378550361E+03 0.  0.
         13    1    3    3    0    0  0.19352261923E+03 -0.94627503438E+02 -0.58739726253E+02  0.22328395374E+03  0.00000000000E+00 0.  1.
          1    1    3    3  501    0 -0.21390889691E+03  0.11944031607E+03  0.24441039367E+01  0.24500812012E+03  0.00000000000E+00 0.  1.
         21    1    1    2  502  501  0.20386277679E+02 -0.24812812632E+02  0.75847275683E+01  0.32997031391E+02  0.00000000000E+00 0.  1.
<scales pt_clust_4="550.00000" pt_clust_5="550.00000" pt_clust_6="32.11349"></scales>
<mgrwt>
<rscale>  0 0.30000000E+03</rscale>
<asrwt>  1 0.32113486E+02</asrwt>
<pdfrwt beam="1">  1        1 0.82286947E+00 0.30000000E+03</pdfrwt>
<pdfrwt beam="2">0</pdfrwt>
<totfact> 0.69358571E-04</totfact>
</mgrwt>
<clustering>
<clus scale="   32.113">  1  6  2 -1</clus>
<clus scale="  463.786">  4  5 -1 -1</clus>
<clus scale="  300.000">  1  4  2 -1</clus>
</clustering>
</event>
<event>
 6    1  0.1007353E-011  0.3000000E+03  0.7818608E-02  0.1093470E+00
          1   -1    0    0  502    0  0.00000000000E+00  0.00000000000E+00  0.24110823970E+03  0.24110823970E+03  0.00000000000E+00 0.  1.
         13   -1    0    0    0    0 -0.00000000000E+00 -0.00000000000E+00 -0.27500000000E+03  0.27500000000E+03  0.00000000000E+00 0.  1.
    9000005    2    1    2  501    0 -0.19892452649E+02  0.22833956559E+02 -0.74762625028E+02  0.46524050112E+03  0.45819447240E+03 0.  0.
         13    1    3    3    0    0 -0.18186755994E+03  0.14857415362E+03  0.26888471112E+02  0.23637486830E+03  0.00000000000E+00 0.  1.
          3    1    3    3  501    0  0.16197510729E+03 -0.12574019707E+03 -0.10165109614E+03  0.22886563282E+03  0.00000000000E+00 0.  1.
         21    1    1    2  502  501  0.19892452649E+02 -0.22833956559E+02  0.40870864726E+02  0.50867738578E+02  0.00000000000E+00 0.  1.
<scales pt_clust_4="550.00000" pt_clust_5="550.00000" pt_clust_6="30.28365"></scales>
<mgrwt>
<rscale>  0 0.30000000E+03</rscale>
<asrwt>  1 0.30283646E+02</asrwt>
<pdfrwt beam="1">  1        1 0.87675724E+00 0.30000000E+03</pdfrwt>
<pdfrwt beam="2">0</pdfrwt>
<totfact> 0.22131043E-04</totfact>
</mgrwt>
<clustering>
<clus scale="   30.284">  1  6  2 -1</clus>
<clus scale="  458.194">  4  5 -1 -1</clus>
<clus scale="  300.000">  1  4  2 -1</clus>
</clustering>
</event>
<event>
 6    1  0.1007353E-011  0.3000000E+03  0.7818608E-02  0.1093470E+00
          1   -1    0    0  502    0  0.00000000000E+00  0.00000000000E+00  0.23619392616E+03  0.23619392616E+03  0.00000000000E+00 0.  1.
         13   -1    0    0    0    0 -0.00000000000E+00 -0.00000000000E+00 -0.27500000000E+03  0.27500000000E+03  0.00000000000E+00 0.  1.
    9000005    2    1    2  501    0 -0.39906428787E+02  0.19835481304E+02 -0.55792093453E+02  0.46350226820E+03  0.45796902249E+03 0.  0.
         13    1    3    3    0    0  0.20274403936E+03 -0.42618155261E+02 -0.48805840547E+02  0.21284610103E+03  0.00000000000E+00 0.  1.
          1    1    3    3  501    0 -0.24265046814E+03  0.62453636565E+02 -0.69862529055E+01  0.25065616717E+03  0.00000000000E+00 0.  1.
         21    1    1    2  502  501  0.39906428787E+02 -0.19835481304E+02  0.16986019617E+02  0.47691657965E+02  0.00000000000E+00 0. -1.
<scales pt_clust_4="550.00000" pt_clust_5="550.00000" pt_clust_6="44.56422"></scales>
<mgrwt>
<rscale>  0 0.30000000E+03</rscale>
<asrwt>  1 0.44564216E+02</asrwt>
<pdfrwt beam="1">  1        1 0.85888700E+00 0.30000000E+03</pdfrwt>
<pdfrwt beam="2">0</pdfrwt>
<totfact> 0.31801069E-04</totfact>
</mgrwt>
<clustering>
<clus scale="   44.564">  1  6  2 -1</clus>
<clus scale="  457.969">  4  5 -1 -1</clus>
<clus scale="  300.000">  1  4  2 -1</clus>
</clustering>
</event>
<event>
 6    1  0.1007353E-011  0.3000000E+03  0.7818608E-02  0.1093470E+00
          1   -1    0    0  502    0  0.00000000000E+00  0.00000000000E+00  0.23349736975E+03  0.23349736975E+03  0.00000000000E+00 0.  1.
         13   -1    0    0    0    0 -0.00000000000E+00 -0.00000000000E+00 -0.27500000000E+03  0.27500000000E+03  0.00000000000E+00 0.  1.
    9000005    2    1    2  501    0  0.38830432366E+02 -0.13366592856E+02 -0.50443657844E+02  0.46646868601E+03  0.46191125136E+03 0.  0.
         13    1    3    3    0    0 -0.12033017538E+03  0.46830956190E+02 -0.20123997249E+03  0.23910252213E+03  0.00000000000E+00 0.  1.
          3    1    3    3  501    0  0.15916060774E+03 -0.60197549045E+02  0.15079631464E+03  0.22736616388E+03  0.00000000000E+00 0.  1.
         21    1    1    2  502  501 -0.38830432366E+02  0.13366592856E+02  0.89410275966E+01  0.42028683738E+02  0.00000000000E+00 0.  1.
<scales pt_clust_4="550.00000" pt_clust_5="550.00000" pt_clust_6="41.06663"></scales>
<mgrwt>
<rscale>  0 0.30000000E+03</rscale>
<asrwt>  1 0.41066632E+02</asrwt>
<pdfrwt beam="1">  1        1 0.84908134E+00 0.30000000E+03</pdfrwt>
<pdfrwt beam="2">0</pdfrwt>
<totfact> 0.40305033E-04</totfact>
</mgrwt>
<clustering>
<clus scale="   41.067">  1  6  2 -1</clus>
<clus scale="  461.911">  4  5 -1 -1</clus>
<clus scale="  300.000">  1  4  2 -1</clus>
</clustering>
</event>
<event>
 6    1  0.1007353E-011  0.3000000E+03  0.7818608E-02  0.1093470E+00
          1   -1    0    0  502    0  0.00000000000E+00  0.00000000000E+00  0.22992166585E+03  0.22992166585E+03  0.00000000000E+00 0.  1.
         13   -1    0    0    0    0 -0.00000000000E+00 -0.00000000000E+00 -0.27500000000E+03  0.27500000000E+03  0.00000000000E+00 0.  1.
    9000005    2    1    2  501    0  0.28956289777E+02 -0.81799479243E+01 -0.73587459314E+02  0.46347111117E+03  0.45660155328E+03 0.  0.
         13    1    3    3    0    0 -0.64180098842E+02  0.19443851254E+03 -0.11766473683E+03  0.23615759683E+03  0.00000000000E+00 0.  1.
          1    1    3    3  501    0  0.93136388619E+02 -0.20261846047E+03  0.44077277518E+02  0.22731351434E+03  0.00000000000E+00 0.  1.
         21    1    1    2  502  501 -0.28956289777E+02  0.81799479243E+01  0.28509125162E+02  0.41450554679E+02  0.00000000000E+00 0. -1.
<scales pt_clust_4="550.00000" pt_clust_5="550.00000" pt_clust_6="30.08950"></scales>
<mgrwt>
<rscale>  0 0.30000000E+03</rscale>
<asrwt>  1 0.30089504E+02</asrwt>
<pdfrwt beam="1">  1        1 0.83607878E+00 0.30000000E+03</pdfrwt>
<pdfrwt beam="2">0</pdfrwt>
<totfact> 0.54676505E-04</totfact>
</mgrwt>
<clustering>
<clus scale="   30.090">  1  6  2 -1</clus>
<clus scale="  456.602">  4  5 -1 -1</clus>
<clus scale="  300.000">  1  4  2 -1</clus>
</clustering>
</event>
<event>
 6    1  0.1007353E-011  0.3000000E+03  0.7818608E-02  0.1093470E+00
          1   -1    0    0  502    0  0.00000000000E+00  0.00000000000E+00  0.22736312776E+03  0.22736312776E+03  0.00000000000E+00 0.  1.
         13   -1    0    0    0    0 -0.00000000000E+00 -0.00000000000E+00 -0.27500000000E+03  0.27500000000E+03  0.00000000000E+00 0.  1.
    9000005    2    1    2  501    0 -0.58797795151E+01  0.37274216310E+02 -0.58275088141E+02  0.46315712508E+03  0.45792422693E+03 0.  0.
         13    1    3    3    0    0 -0.12526207007E+03 -0.12373298696E+03  0.10467880283E+03  0.20483673993E+03  0.00000000000E+00 0.  1.
          3    1    3    3  501    0  0.11938229056E+03  0.16100720327E+03 -0.16295389097E+03  0.25832038516E+03  0.00000000000E+00 0.  1.
         21    1    1    2  502  501  0.58797795151E+01 -0.37274216310E+02  0.10638215903E+02  0.39206002681E+02  0.00000000000E+00 0.  1.
<scales pt_clust_4="550.00000" pt_clust_5="550.00000" pt_clust_6="37.73512"></scales>
<mgrwt>
<rscale>  0 0.30000000E+03</rscale>
<asrwt>  1 0.37735116E+02</asrwt>
<pdfrwt beam="1">  1        1 0.82677501E+00 0.30000000E+03</pdfrwt>
<pdfrwt beam="2">0</pdfrwt>
<totfact> 0.62114636E-04</totfact>
</mgrwt>
<clustering>
<clus scale="   37.735">  1  6  2 -1</clus>
<clus scale="  457.924">  4  5 -1 -1</clus>
<clus scale="  300.000">  1  4  2 -1</clus>
</clustering>
</event>
<event>
 6    1  0.1007353E-011  0.3000000E+03  0.7818608E-02  0.1093470E+00
          1   -1    0    0  502    0  0.00000000000E+00  0.00000000000E+00  0.22517632051E+03  0.22517632051E+03  0.00000000000E+00 0.  1.
         13   -1    0    0    0    0 -0.00000000000E+00 -0.00000000000E+00 -0.27500000000E+03  0.27500000000E+03  0.00000000000E+00 0.  1.
    9000005    2    1    2  501    0  0.22192076014E+02  0.21164981103E+02 -0.45432289976E+02  0.46919682787E+03  0.46598404012E+03 0.  0.
         13    1    3    3    0    0 -0.16518876832E+03  0.16094519880E+03 -0.47224786116E+02  0.23541636863E+03  0.00000000000E+00 0.  1.
          3    1    3    3  501    0  0.18738084433E+03 -0.13978021769E+03  0.17924961401E+01  0.23378045924E+03  0.00000000000E+00 0.  1.
         21    1    1    2  502  501 -0.22192076014E+02 -0.21164981103E+02 -0.43913895098E+01  0.30979492649E+02  0.00000000000E+00 0.  1.
<scales pt_clust_4="550.00000" pt_clust_5="550.00000" pt_clust_6="30.66669"></scales>
<mgrwt>
<rscale>  0 0.30000000E+03</rscale>
<asrwt>  1 0.30666686E+02</asrwt>
<pdfrwt beam="1">  1        1 0.81882298E+00 0.30000000E+03</pdfrwt>
<pdfrwt beam="2">0</pdfrwt>
<totfact> 0.75906637E-04</totfact>
</mgrwt>
<clustering>
<clus scale="   30.667">  1  6  2 -1</clus>
<clus scale="  465.984">  4  5 -1 -1</clus>
<clus scale="  300.000">  1  4  2 -1</clus>
</clustering>
</event>
<event>
 6    1  0.1007353E-011  0.3000000E+03  0.7818608E-02  0.1093470E+00
          1   -1    0    0  502    0  0.00000000000E+00  0.00000000000E+00  0.24953031598E+03  0.24953031598E+03  0.00000000000E+00 0.  1.
         13   -1    0    0    0    0 -0.00000000000E+00 -0.00000000000E+00 -0.27500000000E+03  0.27500000000E+03  0.00000000000E+00 0.  1.
    9000005    2    1    2  501    0  0.84110945363E+01 -0.33851639967E+02 -0.27907109191E+02  0.48956431705E+03  0.48752203411E+03 0.  0.
         13    1    3    3    0    0 -0.22873175272E+03 -0.78246681551E+02  0.23503068716E+02  0.24288505948E+03  0.00000000000E+00 0.  1.
          3    1    3    3  501    0  0.23714284726E+03  0.44395041584E+02 -0.51410177907E+02  0.24667925757E+03  0.00000000000E+00 0.  1.
         21    1    1    2  502  501 -0.84110945363E+01  0.33851639967E+02  0.24374251679E+01  0.34965998931E+02  0.00000000000E+00 0. -1.
<scales pt_clust_4="550.00000" pt_clust_5="550.00000" pt_clust_6="34.88094"></scales>
<mgrwt>
<rscale>  0 0.30000000E+03</rscale>
<asrwt>  1 0.34880941E+02</asrwt>
<pdfrwt beam="1">  1        1 0.90738297E+00 0.30000000E+03</pdfrwt>
<pdfrwt beam="2">0</pdfrwt>
<totfact> 0.82700107E-05</totfact>
</mgrwt>
<clustering>
<clus scale="   34.881">  1  6  2 -1</clus>
<clus scale="  487.522">  4  5 -1 -1</clus>
<clus scale="  300.000">  1  4  2 -1</clus>
</clustering>
</event>
<event>
 6    1  0.1007353E-011  0.3000000E+03  0.7818608E-02  0.1093470E+00
          1   -1    0    0  502    0  0.00000000000E+00  0.00000000000E+00  0.24461670024E+03  0.24461670024E+03  0.00000000000E+00 0.  1.
         13   -1    0    0    0    0 -0.00000000000E+00 -0.00000000000E+00 -0.27500000000E+03  0.27500000000E+03  0.00000000000E+00 0.  1.
    9000005    2    1    2  501    0 -0.34635102659E+02  0.54205245060E+01 -0.24473063575E+02  0.48406528235E+03  0.48217351059E+03 0.  0.
         13    1    3    3    0    0  0.62139934074E+02 -0.11475407288E+03 -0.20722275275E+03  0.24489005269E+03  0.00000000000E+00 0.  1.
          1    1    3    3  501    0 -0.96775036733E+02  0.12017459739E+03  0.18274968917E+03  0.23917522966E+03  0.00000000000E+00 0.  1.
         21    1    1    2  502  501  0.34635102659E+02 -0.54205245060E+01 -0.59102361847E+01  0.35551417889E+02  0.00000000000E+00 0. -1.
<scales pt_clust_4="550.00000" pt_clust_5="550.00000" pt_clust_6="35.05672"></scales>
<mgrwt>
<rscale>  0 0.30000000E+03</rscale>
<asrwt>  1 0.35056720E+02</asrwt>
<pdfrwt beam="1">  1        1 0.88951527E+00 0.30000000E+03</pdfrwt>
<pdfrwt beam="2">0</pdfrwt>
<totfact> 0.14709218E-04</totfact>
</mgrwt>
<clustering>
<clus scale="   35.057">  1  6  2 -1</clus>
<clus scale="  482.174">  4  5 -1 -1</clus>
<clus scale="  300.000">  1  4  2 -1</clus>
</clustering>
</event>
<event>
 6    1  0.1007353E-011  0.3000000E+03  0.7818608E-02  0.1093470E+00
          1   -1    0    0  502    0  0.00000000000E+00  0.00000000000E+00  0.22219976062E+03  0.22219976062E+03  0.00000000000E+00 0.  1.
         13   -1    0    0    0    0 -0.00000000000E+00 -0.00000000000E+00 -0.27500000000E+03  0.27500000000E+03  0.00000000000E+00 0.  1.
    9000005    2    1    2  501    0  0.26811932592E+02 -0.17605497083E+02 -0.52548199240E+02  0.46512333967E+03  0.46103099094E+03 0.  0.
         13    1    3    3    0    0 -0.77888650833E+02 -0.20281022365E+03  0.58698389786E+02  0.22504250645E+03  0.00000000000E+00 0.  1.
          3    1    3    3  501    0  0.10470058343E+03  0.18520472656E+03 -0.11124658903E+03  0.24008083322E+03  0.00000000000E+00 0.  1.
         21    1    1    2  502  501 -0.26811932592E+02  0.17605497083E+02 -0.25204014028E+00  0.32076420952E+02  0.00000000000E+00 0.  1.
<scales pt_clust_4="550.00000" pt_clust_5="550.00000" pt_clust_6="32.07543"></scales>
<mgrwt>
<rscale>  0 0.30000000E+03</rscale>
<asrwt>  1 0.32075431E+02</asrwt>
<pdfrwt beam="1">  1        1 0.80799913E+00 0.30000000E+03</pdfrwt>
<pdfrwt beam="2">0</pdfrwt>
<totfact> 0.91885929E-04</totfact>
</mgrwt>
<clustering>
<clus scale="   32.075">  1  6  2 -1</clus>
<clus scale="  461.031">  4  5 -1 -1</clus>
<clus scale="  300.000">  1  4  2 -1</clus>
</clustering>
</event>
<event>
 6    1  0.1007353E-011  0.3000000E+03  0.7818608E-02  0.1093470E+00
          1   -1    0    0  502    0  0.00000000000E+00  0.00000000000E+00  0.24665622276E+03  0.24665622276E+03  0.00000000000E+00 0.  1.
         13   -1    0    0    0    0 -0.00000000000E+00 -0.00000000000E+00 -0.27500000000E+03  0.27500000000E+03  0.00000000000E+00 0.  1.
    9000005    2    1    2  501    0 -0.30513118700E+02  0.10075751382E+02 -0.50038315065E+02  0.48288478804E+03  0.47920905080E+03 0.  0.
         13    1    3    3    0    0 -0.66756140868E+01  0.23266529777E+02 -0.26505050793E+03  0.26615346510E+03  0.00000000000E+00 0.  1.
          1    1    3    3  501    0 -0.23837504613E+02 -0.13190778395E+02  0.21501219287E+03  0.21673132294E+03  0.00000000000E+00 0.  1.
         21    1    1    2  502  501  0.30513118700E+02 -0.10075751382E+02  0.21694537829E+02  0.38771434721E+02  0.00000000000E+00 0. -1.
<scales pt_clust_4="550.00000" pt_clust_5="550.00000" pt_clust_6="32.13365"></scales>
<mgrwt>
<rscale>  0 0.30000000E+03</rscale>
<asrwt>  1 0.32133646E+02</asrwt>
<pdfrwt beam="1">  1        1 0.89693172E+00 0.30000000E+03</pdfrwt>
<pdfrwt beam="2">0</pdfrwt>
<totfact> 0.12193146E-04</totfact>
</mgrwt>
<clustering>
<clus scale="   32.134">  1  6  2 -1</clus>
<clus scale="  479.209">  4  5 -1 -1</clus>
<clus scale="  300.000">  1  4  2 -1</clus>
</clustering>
</event>
<event>
 6    1  0.1007353E-011  0.3000000E+03  0.7818608E-02  0.1093470E+00
          1   -1    0    0  502    0  0.00000000000E+00  0.00000000000E+00  0.24580715581E+03  0.24580715581E+03  0.00000000000E+00 0.  1.
         13   -1    0    0    0    0 -0.00000000000E+00 -0.00000000000E+00 -0.27500000000E+03  0.27500000000E+03  0.00000000000E+00 0.  1.
    9000005    2    1    2  501    0  0.30228891620E+02 -0.26181366182E+02 -0.20278729714E+02  0.47983507677E+03  0.47773551699E+03 0.  0.
         13    1    3    3    0    0 -0.18611292960E+03  0.47442080960E+02 -0.12426912669E+03  0.22876098762E+03  0.00000000000E+00 0.  1.
          3    1    3    3  501    0  0.21634182122E+03 -0.73623447142E+02  0.10399039698E+03  0.25107408915E+03  0.00000000000E+00 0.  1.
         21    1    1    2  502  501 -0.30228891620E+02  0.26181366182E+02 -0.89141144776E+01  0.40972079038E+02  0.00000000000E+00 0.  1.
<scales pt_clust_4="550.00000" pt_clust_5="550.00000" pt_clust_6="39.99064"></scales>
<mgrwt>
<rscale>  0 0.30000000E+03</rscale>
<asrwt>  1 0.39990642E+02</asrwt>
<pdfrwt beam="1">  1        1 0.89384420E+00 0.30000000E+03</pdfrwt>
<pdfrwt beam="2">0</pdfrwt>
<totfact> 0.12679310E-04</totfact>
</mgrwt>
<clustering>
<clus scale="   39.991">  1  6  2 -1</clus>
<clus scale="  477.736">  4  5 -1 -1</clus>
<clus scale="  300.000">  1  4  2 -1</clus>
</clustering>
</event>
<event>
 6    1  0.1007353E-011  0.3000000E+03  0.7818608E-02  0.1093470E+00
          1   -1    0    0  502    0  0.00000000000E+00  0.00000000000E+00  0.22004455679E+03  0.22004455679E+03  0.00000000000E+00 0.  1.
         13   -1    0    0    0    0 -0.00000000000E+00 -0.00000000000E+00 -0.27500000000E+03  0.27500000000E+03  0.00000000000E+00 0.  1.
    9000005    2    1    2  501    0  0.26921086713E+02 -0.13399289123E+02 -0.54594365427E+02  0.46497104293E+03  0.46077460885E+03 0.  0.
         13    1    3    3    0    0 -0.15905371146E+03 -0.75992703241E+02  0.11091350107E+03  0.20826612494E+03  0.00000000000E+00 0.  1.
          1    1    3    3  501    0  0.18597479817E+03  0.62593414118E+02 -0.16550786650E+03  0.25670491799E+03  0.00000000000E+00 0.  1.
         21    1    1    2  502  501 -0.26921086713E+02  0.13399289123E+02 -0.36107778720E+00  0.30073513861E+02  0.00000000000E+00 0.  1.
<scales pt_clust_4="550.00000" pt_clust_5="550.00000" pt_clust_6="30.07135"></scales>
<mgrwt>
<rscale>  0 0.30000000E+03</rscale>
<asrwt>  1 0.30071346E+02</asrwt>
<pdfrwt beam="1">  1        1 0.80016202E+00 0.30000000E+03</pdfrwt>
<pdfrwt beam="2">0</pdfrwt>
<totfact> 0.10644477E-03</totfact>
</mgrwt>
<clustering>
<clus scale="   30.071">  1  6  2 -1</clus>
<clus scale="  460.775">  4  5 -1 -1</clus>
<clus scale="  300.000">  1  4  2 -1</clus>
</clustering>
</event>
<event>
 6    1  0.1007353E-011  0.3000000E+03  0.7818608E-02  0.1093470E+00
          1   -1    0    0  502    0  0.00000000000E+00  0.00000000000E+00  0.23642267720E+03  0.23642267720E+03  0.00000000000E+00 0.  1.
         13   -1    0    0    0    0 -0.00000000000E+00 -0.00000000000E+00 -0.27500000000E+03  0.27500000000E+03  0.00000000000E+00 0.  1.
    9000005    2    1    2  501    0  0.85193580221E+01  0.30042903855E+02 -0.51134091243E+02  0.47776516739E+03  0.47399335897E+03 0.  0.
         13    1    3    3    0    0  0.10925607050E+03  0.64560145611E+02 -0.23397529700E+03  0.26617539509E+03  0.00000000000E+00 0.  1.
          1    1    3    3  501    0 -0.10073671248E+03 -0.34517241756E+02  0.18284120576E+03  0.21158977230E+03  0.00000000000E+00 0.  1.
         21    1    1    2  502  501 -0.85193580221E+01 -0.30042903855E+02  0.12556768447E+02  0.33657509816E+02  0.00000000000E+00 0.  1.
<scales pt_clust_4="550.00000" pt_clust_5="550.00000" pt_clust_6="31.22748"></scales>
<mgrwt>
<rscale>  0 0.30000000E+03</rscale>
<asrwt>  1 0.31227480E+02</asrwt>
<pdfrwt beam="1">  1        1 0.85971883E+00 0.30000000E+03</pdfrwt>
<pdfrwt beam="2">0</pdfrwt>
<totfact> 0.33280077E-04</totfact>
</mgrwt>
<clustering>
<clus scale="   31.227">  1  6  2 -1</clus>
<clus scale="  473.993">  4  5 -1 -1</clus>
<clus scale="  300.000">  1  4  2 -1</clus>
</clustering>
</event>
<event>
 6    1  0.1007353E-011  0.3000000E+03  0.7818608E-02  0.1093470E+00
          1   -1    0    0  502    0  0.00000000000E+00  0.00000000000E+00  0.25954491129E+03  0.25954491129E+03  0.00000000000E+00 0.  1.
         13   -1    0    0    0    0 -0.00000000000E+00 -0.00000000000E+00 -0.27500000000E+03  0.27500000000E+03  0.00000000000E+00 0.  1.
    9000005    2    1    2  501    0 -0.44198392966E+02  0.11755518768E+02 -0.48967669476E+02  0.47784585281E+03  0.47312486326E+03 0.  0.
         13    1    3    3    0    0 -0.12252340117E+03 -0.20003768346E+03  0.34498455332E+02  0.23710167030E+03  0.00000000000E+00 0.  1.
          3    1    3    3  501    0  0.78325008205E+02  0.21179320223E+03 -0.83466124808E+02  0.24074418251E+03  0.00000000000E+00 0.  1.
         21    1    1    2  502  501  0.44198392966E+02 -0.11755518768E+02  0.33512580764E+02  0.56699058473E+02  0.00000000000E+00 0.  1.
<scales pt_clust_4="550.00000" pt_clust_5="550.00000" pt_clust_6="45.73500"></scales>
<mgrwt>
<rscale>  0 0.30000000E+03</rscale>
<asrwt>  1 0.45734999E+02</asrwt>
<pdfrwt beam="1">  1        1 0.94379968E+00 0.30000000E+03</pdfrwt>
<pdfrwt beam="2">0</pdfrwt>
<totfact> 0.15607077E-05</totfact>
</mgrwt>
<clustering>
<clus scale="   45.735">  1  6  2 -1</clus>
<clus scale="  473.125">  4  5 -1 -1</clus>
<clus scale="  300.000">  1  4  2 -1</clus>
</clustering>
</event>
<event>
 6    1  0.1007353E-011  0.3000000E+03  0.7818608E-02  0.1093470E+00
          1   -1    0    0  502    0  0.00000000000E+00  0.00000000000E+00  0.24242792472E+03  0.24242792472E+03  0.00000000000E+00 0.  1.
         13   -1    0    0    0    0 -0.00000000000E+00 -0.00000000000E+00 -0.27500000000E+03  0.27500000000E+03  0.00000000000E+00 0.  1.
    9000005    2    1    2  501    0  0.32982562715E+02  0.39311042653E+01 -0.64556073648E+02  0.47131632991E+03  0.46569119937E+03 0.  0.
         13    1    3    3    0    0  0.43188527625E+02  0.22480494180E+03 -0.95527160931E+02  0.24804828008E+03  0.00000000000E+00 0.  1.
          1    1    3    3  501    0 -0.10205964910E+02 -0.22087383754E+03  0.30971087283E+02  0.22326804983E+03  0.00000000000E+00 0.  1.
         21    1    1    2  502  501 -0.32982562715E+02 -0.39311042653E+01  0.31983998365E+02  0.46111594804E+02  0.00000000000E+00 0.  1.
<scales pt_clust_4="550.00000" pt_clust_5="550.00000" pt_clust_6="33.21601"></scales>
<mgrwt>
<rscale>  0 0.30000000E+03</rscale>
<asrwt>  1 0.33216006E+02</asrwt>
<pdfrwt beam="1">  1        1 0.88155609E+00 0.30000000E+03</pdfrwt>
<pdfrwt beam="2">0</pdfrwt>
<totfact> 0.19052032E-04</totfact>
</mgrwt>
<clustering>
<clus scale="   33.216">  1  6  2 -1</clus>
<clus scale="  465.691">  4  5 -1 -1</clus>
<clus scale="  300.000">  1  4  2 -1</clus>
</clustering>
</event>
<event>
 6    1  0.1007353E-011  0.3000000E+03  0.7818608E-02  0.1093470E+00
          1   -1    0    0  502    0  0.00000000000E+00  0.00000000000E+00  0.24256725762E+03  0.24256725762E+03  0.00000000000E+00 0.  1.
         13   -1    0    0    0    0 -0.00000000000E+00 -0.00000000000E+00 -0.27500000000E+03  0.27500000000E+03  0.00000000000E+00 0.  1.
    9000005    2    1    2  501    0 -0.29703382451E+02 -0.10981540540E+02 -0.42438518973E+02  0.48435580286E+03  0.48145262562E+03 0.  0.
         13    1    3    3    0    0  0.17068829431E+03  0.12707464222E+03 -0.98731373840E+02  0.23458546991E+03  0.00000000000E+00 0.  1.
          1    1    3    3  501    0 -0.20039167676E+03 -0.13805618276E+03  0.56292854867E+02  0.24977033296E+03  0.00000000000E+00 0.  1.
         21    1    1    2  502  501  0.29703382451E+02  0.10981540540E+02  0.10005776589E+02  0.33211454753E+02  0.00000000000E+00 0.  1.
<scales pt_clust_4="550.00000" pt_clust_5="550.00000" pt_clust_6="31.66836"></scales>
<mgrwt>
<rscale>  0 0.30000000E+03</rscale>
<asrwt>  1 0.31668362E+02</asrwt>
<pdfrwt beam="1">  1        1 0.88206275E+00 0.30000000E+03</pdfrwt>
<pdfrwt beam="2">0</pdfrwt>
<totfact> 0.18936642E-04</totfact>
</mgrwt>
<clustering>
<clus scale="   31.668">  1  6  2 -1</clus>
<clus scale="  481.453">  4  5 -1 -1</clus>
<clus scale="  300.000">  1  4  2 -1</clus>
</clustering>
</event>
<event>
 6    1  0.1007353E-011  0.3000000E+03  0.7818608E-02  0.1093470E+00
          1   -1    0    0  502    0  0.00000000000E+00  0.00000000000E+00  0.24458107362E+03  0.24458107362E+03  0.00000000000E+00 0.  1.
         13   -1    0    0    0    0 -0.00000000000E+00 -0.00000000000E+00 -0.27500000000E+03  0.27500000000E+03  0.00000000000E+00 0.  1.
    9000005    2    1    2  501    0 -0.24875029873E+02 -0.25752144186E+02 -0.52392337191E+02  0.47757189814E+03  0.47333711122E+03 0.  0.
         13    1    3    3    0    0 -0.19816751847E+03 -0.16059672638E+03 -0.24985503178E+02  0.25629270233E+03  0.00000000000E+00 0.  1.
          3    1    3    3  501    0  0.17329248859E+03  0.13484458219E+03 -0.27406834014E+02  0.22127919581E+03  0.00000000000E+00 0.  1.
         21    1    1    2  502  501  0.24875029873E+02  0.25752144186E+02  0.21973410808E+02  0.42009175472E+02  0.00000000000E+00 0.  1.
<scales pt_clust_4="550.00000" pt_clust_5="550.00000" pt_clust_6="35.80419"></scales>
<mgrwt>
<rscale>  0 0.30000000E+03</rscale>
<asrwt>  1 0.35804190E+02</asrwt>
<pdfrwt beam="1">  1        1 0.88938572E+00 0.30000000E+03</pdfrwt>
<pdfrwt beam="2">0</pdfrwt>
<totfact> 0.14710389E-04</totfact>
</mgrwt>
<clustering>
<clus scale="   35.804">  1  6  2 -1</clus>
<clus scale="  473.337">  4  5 -1 -1</clus>
<clus scale="  300.000">  1  4  2 -1</clus>
</clustering>
</event>
<event>
 6    1  0.1007353E-011  0.3000000E+03  0.7818608E-02  0.1093470E+00
          1   -1    0    0  502    0  0.00000000000E+00  0.00000000000E+00  0.22085523086E+03  0.22085523086E+03  0.00000000000E+00 0.  1.
         13   -1    0    0    0    0 -0.00000000000E+00 -0.00000000000E+00 -0.27500000000E+03  0.27500000000E+03  0.00000000000E+00 0.  1.
    9000005    2    1    2  501    0  0.26963485649E+02  0.22513646923E+02 -0.46986658859E+02  0.46000648753E+03  0.45625029162E+03 0.  0.
         13    1    3    3    0    0  0.15463198757E+03 -0.15588568207E+03 -0.88504224963E+02  0.23673697491E+03  0.00000000000E+00 0.  1.
          3    1    3    3  501    0 -0.12766850192E+03  0.17839932899E+03  0.41517566104E+02  0.22326951261E+03  0.00000000000E+00 0.  1.
         21    1    1    2  502  501 -0.26963485649E+02 -0.22513646923E+02 -0.71581102781E+01  0.35848743337E+02  0.00000000000E+00 0.  1.
<scales pt_clust_4="550.00000" pt_clust_5="550.00000" pt_clust_6="35.12684"></scales>
<mgrwt>
<rscale>  0 0.30000000E+03</rscale>
<asrwt>  1 0.35126843E+02</asrwt>
<pdfrwt beam="1">  1        1 0.80310993E+00 0.30000000E+03</pdfrwt>
<pdfrwt beam="2">0</pdfrwt>
<totfact> 0.98371007E-04</totfact>
</mgrwt>
<clustering>
<clus scale="   35.127">  1  6  2 -1</clus>
<clus scale="  456.250">  4  5 -1 -1</clus>
<clus scale="  300.000">  1  4  2 -1</clus>
</clustering>
</event>
<event>
 6    1  0.1007353E-011  0.3000000E+03  0.7818608E-02  0.1093470E+00
          1   -1    0    0  502    0  0.00000000000E+00  0.00000000000E+00  0.22284897594E+03  0.22284897594E+03  0.00000000000E+00 0.  1.
         13   -1    0    0    0    0 -0.00000000000E+00 -0.00000000000E+00 -0.27500000000E+03  0.27500000000E+03  0.00000000000E+00 0.  1.
    9000005    2    1    2  501    0  0.30646910534E+02  0.15125276252E+02 -0.45775896757E+02  0.46308334125E+03  0.45954623392E+03 0.  0.
         13    1    3    3    0    0  0.80329151508E+01 -0.59983130117E+02  0.19797715491E+03  0.20702042771E+03  0.00000000000E+00 0.  1.
          1    1    3    3  501    0  0.22613995384E+02  0.75108406369E+02 -0.24375305167E+03  0.25606291354E+03  0.00000000000E+00 0.  1.
         21    1    1    2  502  501 -0.30646910534E+02 -0.15125276252E+02 -0.63751273044E+01  0.34765634687E+02  0.00000000000E+00 0.  1.
<scales pt_clust_4="550.00000" pt_clust_5="550.00000" pt_clust_6="34.17614"></scales>
<mgrwt>
<rscale>  0 0.30000000E+03</rscale>
<asrwt>  1 0.34176136E+02</asrwt>
<pdfrwt beam="1">  1        1 0.81035991E+00 0.30000000E+03</pdfrwt>
<pdfrwt beam="2">0</pdfrwt>
<totfact> 0.87040053E-04</totfact>
</mgrwt>
<clustering>
<clus scale="   34.176">  1  6  2 -1</clus>
<clus scale="  459.546">  4  5 -1 -1</clus>
<clus scale="  300.000">  1  4  2 -1</clus>
</clustering>
</event>
<event>
 6    1  0.1007353E-011  0.3000000E+03  0.7818608E-02  0.1093470E+00
          1   -1    0    0  502    0  0.00000000000E+00  0.00000000000E+00  0.22977408582E+03  0.22977408582E+03  0.00000000000E+00 0.  1.
         13   -1    0    0    0    0 -0.00000000000E+00 -0.00000000000E+00 -0.27500000000E+03  0.27500000000E+03  0.00000000000E+00 0.  1.
    9000005    2    1    2  501    0  0.31776068757E+02  0.21206735978E+02 -0.29758227497E+02  0.46355887591E+03  0.46102259720E+03 0.  0.
         13    1    3    3    0    0  0.91650080945E+02  0.21603179142E+03 -0.89514310024E+02  0.25116186801E+03  0.00000000000E+00 0.  1.
          1    1    3    3  501    0 -0.59874012187E+02 -0.19482505545E+03  0.59756082528E+02  0.21239700790E+03  0.00000000000E+00 0.  1.
         21    1    1    2  502  501 -0.31776068757E+02 -0.21206735978E+02 -0.15467686686E+02  0.41215209910E+02  0.00000000000E+00 0. -1.
<scales pt_clust_4="550.00000" pt_clust_5="550.00000" pt_clust_6="38.20269"></scales>
<mgrwt>
<rscale>  0 0.30000000E+03</rscale>
<asrwt>  1 0.38202692E+02</asrwt>
<pdfrwt beam="1">  1        1 0.83554213E+00 0.30000000E+03</pdfrwt>
<pdfrwt beam="2">0</pdfrwt>
<totfact> 0.52745417E-04</totfact>
</mgrwt>
<clustering>
<clus scale="   38.203">  1  6  2 -1</clus>
<clus scale="  461.023">  4  5 -1 -1</clus>
<clus scale="  300.000">  1  4  2 -1</clus>
</clustering>
</event>
<event>
 6    1  0.1007353E-011  0.3000000E+03  0.7818608E-02  0.1093470E+00
          1   -1    0    0  502    0  0.00000000000E+00  0.00000000000E+00  0.22601033298E+03  0.22601033298E+03  0.00000000000E+00 0.  1.
         13   -1    0    0    0    0 -0.00000000000E+00 -0.00000000000E+00 -0.27500000000E+03  0.27500000000E+03  0.00000000000E+00 0.  1.
    9000005    2    1    2  501    0 -0.35383116290E+02 -0.13493262619E+02 -0.53346783179E+02  0.46289186612E+03  0.45824553178E+03 0.  0.
         13    1    3    3    0    0 -0.20524482175E+02  0.11583672646E+03  0.16859908972E+03  0.20558466533E+03  0.00000000000E+00 0.  1.
          3    1    3    3  501    0 -0.14858634116E+02 -0.12932998908E+03 -0.22194587290E+03  0.25730720079E+03  0.00000000000E+00 0.  1.
         21    1    1    2  502  501  0.35383116290E+02  0.13493262619E+02  0.43571161616E+01  0.38118466860E+02  0.00000000000E+00 0. -1.
<scales pt_clust_4="550.00000" pt_clust_5="550.00000" pt_clust_6="37.86863"></scales>
<mgrwt>
<rscale>  0 0.30000000E+03</rscale>
<asrwt>  1 0.37868629E+02</asrwt>
<pdfrwt beam="1">  1        1 0.82185576E+00 0.30000000E+03</pdfrwt>
<pdfrwt beam="2">0</pdfrwt>
<totfact> 0.68659595E-04</totfact>
</mgrwt>
<clustering>
<clus scale="   37.869">  1  6  2 -1</clus>
<clus scale="  458.246">  4  5 -1 -1</clus>
<clus scale="  300.000">  1  4  2 -1</clus>
</clustering>
</event>
<event>
 6    1  0.1007353E-011  0.3000000E+03  0.7818608E-02  0.1093470E+00
          1   -1    0    0  502    0  0.00000000000E+00  0.00000000000E+00  0.26491384006E+03  0.26491384006E+03  0.00000000000E+00 0.  1.
         13   -1    0    0    0    0 -0.00000000000E+00 -0.00000000000E+00 -0.27500000000E+03  0.27500000000E+03  0.00000000000E+00 0.  1.
    9000005    2    1    2  501    0 -0.12040900984E+02 -0.33863028151E+02 -0.66477153426E+02  0.47304357673E+03  0.46696822759E+03 0.  0.
         13    1    3    3    0    0  0.20544270633E+03  0.48595045396E+02  0.43842411725E+02  0.21561618930E+03  0.00000000000E+00 0.  1.
          3    1    3    3  501    0 -0.21748360731E+03 -0.82458073547E+02 -0.11031956515E+03  0.25742738743E+03  0.00000000000E+00 0.  1.
         21    1    1    2  502  501  0.12040900984E+02  0.33863028151E+02  0.56390993488E+02  0.66870263336E+02  0.00000000000E+00 0. -1.
<scales pt_clust_4="550.00000" pt_clust_5="550.00000" pt_clust_6="35.94006"></scales>
<mgrwt>
<rscale>  0 0.30000000E+03</rscale>
<asrwt>  1 0.35940061E+02</asrwt>
<pdfrwt beam="1">  1        1 0.96332305E+00 0.30000000E+03</pdfrwt>
<pdfrwt beam="2">0</pdfrwt>
<totfact> 0.64044129E-06</totfact>
</mgrwt>
<clustering>
<clus scale="   35.940">  1  6  2 -1</clus>
<clus scale="  466.968">  4  5 -1 -1</clus>
<clus scale="  300.000">  1  4  2 -1</clus>
</clustering>
</event>
<event>
 6    1  0.1007353E-011  0.3000000E+03  0.7818608E-02  0.1093470E+00
          1   -1    0    0  502    0  0.00000000000E+00  0.00000000000E+00  0.23678686639E+03  0.23678686639E+03  0.00000000000E+00 0.  1.
         13   -1    0    0    0    0 -0.00000000000E+00 -0.00000000000E+00 -0.27500000000E+03  0.27500000000E+03  0.00000000000E+00 0.  1.
    9000005    2    1    2  501    0 -0.31195180050E+02 -0.16799553988E+02 -0.52319436840E+02  0.47365089829E+03  0.46941717662E+03 0.  0.
         13    1    3    3    0    0  0.16967026827E+03 -0.12192070404E+03 -0.11492681235E+03  0.23845509054E+03  0.00000000000E+00 0.  1.
          1    1    3    3  501    0 -0.20086544832E+03  0.10512115005E+03  0.62607375510E+02  0.23519580775E+03  0.00000000000E+00 0.  1.
         21    1    1    2  502  501  0.31195180050E+02  0.16799553988E+02  0.14106303235E+02  0.38135968107E+02  0.00000000000E+00 0. -1.
<scales pt_clust_4="550.00000" pt_clust_5="550.00000" pt_clust_6="35.43112"></scales>
<mgrwt>
<rscale>  0 0.30000000E+03</rscale>
<asrwt>  1 0.35431120E+02</asrwt>
<pdfrwt beam="1">  1        1 0.86104315E+00 0.30000000E+03</pdfrwt>
<pdfrwt beam="2">0</pdfrwt>
<totfact> 0.31452638E-04</totfact>
</mgrwt>
<clustering>
<clus scale="   35.431">  1  6  2 -1</clus>
<clus scale="  469.417">  4  5 -1 -1</clus>
<clus scale="  300.000">  1  4  2 -1</clus>
</clustering>
</event>
<event>
 6    1  0.1007353E-011  0.3000000E+03  0.7818608E-02  0.1093470E+00
          1   -1    0    0  502    0  0.00000000000E+00  0.00000000000E+00  0.22594023298E+03  0.22594023298E+03  0.00000000000E+00 0.  1.
         13   -1    0    0    0    0 -0.00000000000E+00 -0.00000000000E+00 -0.27500000000E+03  0.27500000000E+03  0.00000000000E+00 0.  1.
    9000005    2    1    2  501    0 -0.34058147289E+02  0.66944039917E+01 -0.51037770768E+02  0.46617408651E+03  0.46206996488E+03 0.  0.
         13    1    3    3    0    0  0.15126825459E+03 -0.15308492773E+03  0.44801340340E+01  0.21526065954E+03  0.00000000000E+00 0.  1.
          1    1    3    3  501    0 -0.18532640188E+03  0.15977933172E+03 -0.55517904802E+02  0.25091342697E+03  0.00000000000E+00 0.  1.
         21    1    1    2  502  501  0.34058147289E+02 -0.66944039917E+01  0.19780037442E+01  0.34766146470E+02  0.00000000000E+00 0. -1.
<scales pt_clust_4="550.00000" pt_clust_5="550.00000" pt_clust_6="34.70983"></scales>
<mgrwt>
<rscale>  0 0.30000000E+03</rscale>
<asrwt>  1 0.34709832E+02</asrwt>
<pdfrwt beam="1">  1        1 0.82160085E+00 0.30000000E+03</pdfrwt>
<pdfrwt beam="2">0</pdfrwt>
<totfact> 0.70143052E-04</totfact>
</mgrwt>
<clustering>
<clus scale="   34.710">  1  6  2 -1</clus>
<clus scale="  462.070">  4  5 -1 -1</clus>
<clus scale="  300.000">  1  4  2 -1</clus>
</clustering>
</event>
<event>
 6    1  0.1007353E-011  0.3000000E+03  0.7818608E-02  0.1093470E+00
          1   -1    0    0  502    0  0.00000000000E+00  0.00000000000E+00  0.23941094738E+03  0.23941094738E+03  0.00000000000E+00 0.  1.
         13   -1    0    0    0    0 -0.00000000000E+00 -0.00000000000E+00 -0.27500000000E+03  0.27500000000E+03  0.00000000000E+00 0.  1.
    9000005    2    1    2  501    0 -0.36187250989E+02 -0.22039965721E+01 -0.48169394835E+02  0.47603595884E+03  0.47220288942E+03 0.  0.
         13    1    3    3    0    0  0.14788714890E+03 -0.11477402929E+03 -0.14766914459E+03  0.23843209279E+03  0.00000000000E+00 0.  1.
          1    1    3    3  501    0 -0.18407439989E+03  0.11257003272E+03  0.99499749754E+02  0.23760386605E+03  0.00000000000E+00 0.  1.
         21    1    1    2  502  501  0.36187250989E+02  0.22039965721E+01  0.12580342212E+02  0.38374988537E+02  0.00000000000E+00 0. -1.
<scales pt_clust_4="550.00000" pt_clust_5="550.00000" pt_clust_6="36.25431"></scales>
<mgrwt>
<rscale>  0 0.30000000E+03</rscale>
<asrwt>  1 0.36254306E+02</asrwt>
<pdfrwt beam="1">  1        1 0.87058526E+00 0.30000000E+03</pdfrwt>
<pdfrwt beam="2">0</pdfrwt>
<totfact> 0.24815375E-04</totfact>
</mgrwt>
<clustering>
<clus scale="   36.254">  1  6  2 -1</clus>
<clus scale="  472.203">  4  5 -1 -1</clus>
<clus scale="  300.000">  1  4  2 -1</clus>
</clustering>
</event>
<event>
 6    1  0.1007353E-011  0.3000000E+03  0.7818608E-02  0.1093470E+00
          1   -1    0    0  502    0  0.00000000000E+00  0.00000000000E+00  0.23010741454E+03  0.23010741454E+03  0.00000000000E+00 0.  1.
         13   -1    0    0    0    0 -0.00000000000E+00 -0.00000000000E+00 -0.27500000000E+03  0.27500000000E+03  0.00000000000E+00 0.  1.
    9000005    2    1    2  501    0 -0.34633892560E+02 -0.46961060768E+01 -0.55856445697E+02  0.46847728818E+03  0.46382051171E+03 0.  0.
         13    1    3    3    0    0 -0.20374605542E+03  0.13340895556E+03 -0.17905936942E+01  0.24354385796E+03  0.00000000000E+00 0.  1.
          1    1    3    3  501    0  0.16911216286E+03 -0.13810506164E+03 -0.54065852003E+02  0.22493343022E+03  0.00000000000E+00 0.  1.
         21    1    1    2  502  501  0.34633892560E+02  0.46961060768E+01  0.10963860238E+02  0.36630126364E+02  0.00000000000E+00 0.  1.
<scales pt_clust_4="550.00000" pt_clust_5="550.00000" pt_clust_6="34.95082"></scales>
<mgrwt>
<rscale>  0 0.30000000E+03</rscale>
<asrwt>  1 0.34950822E+02</asrwt>
<pdfrwt beam="1">  1        1 0.83675423E+00 0.30000000E+03</pdfrwt>
<pdfrwt beam="2">0</pdfrwt>
<totfact> 0.52548319E-04</totfact>
</mgrwt>
<clustering>
<clus scale="   34.951">  1  6  2 -1</clus>
<clus scale="  463.821">  4  5 -1 -1</clus>
<clus scale="  300.000">  1  4  2 -1</clus>
</clustering>
</event>
<event>
 6    1  0.1007353E-011  0.3000000E+03  0.7818608E-02  0.1093470E+00
          1   -1    0    0  502    0  0.00000000000E+00  0.00000000000E+00  0.22501549578E+03  0.22501549578E+03  0.00000000000E+00 0.  1.
         13   -1    0    0    0    0 -0.00000000000E+00 -0.00000000000E+00 -0.27500000000E+03  0.27500000000E+03  0.00000000000E+00 0.  1.
    9000005    2    1    2  501    0 -0.84411609494E+01  0.31185509485E+02 -0.57787027309E+02  0.46677894111E+03  0.46206000708E+03 0.  0.
         13    1    3    3    0    0  0.21533204935E+03  0.48342549994E+02 -0.93214234925E+02  0.23957000482E+03  0.00000000000E+00 0.  1.
          1    1    3    3  501    0 -0.22377321030E+03 -0.17157040509E+02  0.35427207616E+02  0.22720893629E+03  0.00000000000E+00 0.  1.
         21    1    1    2  502  501  0.84411609494E+01 -0.31185509485E+02  0.78025230936E+01  0.33236554675E+02  0.00000000000E+00 0. -1.
<scales pt_clust_4="550.00000" pt_clust_5="550.00000" pt_clust_6="32.30773"></scales>
<mgrwt>
<rscale>  0 0.30000000E+03</rscale>
<asrwt>  1 0.32307727E+02</asrwt>
<pdfrwt beam="1">  1        1 0.81823817E+00 0.30000000E+03</pdfrwt>
<pdfrwt beam="2">0</pdfrwt>
<totfact> 0.76014825E-04</totfact>
</mgrwt>
<clustering>
<clus scale="   32.308">  1  6  2 -1</clus>
<clus scale="  462.060">  4  5 -1 -1</clus>
<clus scale="  300.000">  1  4  2 -1</clus>
</clustering>
</event>
<event>
 6    1  0.1007353E-011  0.3000000E+03  0.7818608E-02  0.1093470E+00
          1   -1    0    0  502    0  0.00000000000E+00  0.00000000000E+00  0.24497268400E+03  0.24497268400E+03  0.00000000000E+00 0.  1.
         13   -1    0    0    0    0 -0.00000000000E+00 -0.00000000000E+00 -0.27500000000E+03  0.27500000000E+03  0.00000000000E+00 0.  1.
    9000005    2    1    2  501    0  0.51888422357E+01 -0.29733030860E+02 -0.55075145494E+02  0.48075061151E+03  0.47663078122E+03 0.  0.
         13    1    3    3    0    0  0.47704315695E+02  0.10456501670E+03  0.17595240550E+03  0.21016373012E+03  0.00000000000E+00 0.  1.
          3    1    3    3  501    0 -0.42515473459E+02 -0.13429804756E+03 -0.23102755100E+03  0.27058688139E+03  0.00000000000E+00 0.  1.
         21    1    1    2  502  501 -0.51888422357E+01  0.29733030860E+02  0.25047829491E+02  0.39222072486E+02  0.00000000000E+00 0.  1.
<scales pt_clust_4="550.00000" pt_clust_5="550.00000" pt_clust_6="30.18240"></scales>
<mgrwt>
<rscale>  0 0.30000000E+03</rscale>
<asrwt>  1 0.30182399E+02</asrwt>
<pdfrwt beam="1">  1        1 0.89080976E+00 0.30000000E+03</pdfrwt>
<pdfrwt beam="2">0</pdfrwt>
<totfact> 0.14547610E-04</totfact>
</mgrwt>
<clustering>
<clus scale="   30.182">  1  6  2 -1</clus>
<clus scale="  476.631">  4  5 -1 -1</clus>
<clus scale="  300.000">  1  4  2 -1</clus>
</clustering>
</event>
<event>
 6    1  0.1007353E-011  0.3000000E+03  0.7818608E-02  0.1093470E+00
          1   -1    0    0  502    0  0.00000000000E+00  0.00000000000E+00  0.22948220343E+03  0.22948220343E+03  0.00000000000E+00 0.  1.
         13   -1    0    0    0    0 -0.00000000000E+00 -0.00000000000E+00 -0.27500000000E+03  0.27500000000E+03  0.00000000000E+00 0.  1.
    9000005    2    1    2  501    0  0.36295573431E+02  0.21497602924E+01 -0.47339075031E+02  0.46807743485E+03  0.46425586358E+03 0.  0.
         13    1    3    3    0    0  0.17913596267E+03 -0.14160890477E+03  0.63603204114E+02  0.23704038180E+03  0.00000000000E+00 0.  1.
          3    1    3    3  501    0 -0.14284038924E+03  0.14375866506E+03 -0.11094227915E+03  0.23103705305E+03  0.00000000000E+00 0.  1.
         21    1    1    2  502  501 -0.36295573431E+02 -0.21497602924E+01  0.18212784578E+01  0.36404768578E+02  0.00000000000E+00 0.  1.
<scales pt_clust_4="550.00000" pt_clust_5="550.00000" pt_clust_6="36.35918"></scales>
<mgrwt>
<rscale>  0 0.30000000E+03</rscale>
<asrwt>  1 0.36359182E+02</asrwt>
<pdfrwt beam="1">  1        1 0.83448074E+00 0.30000000E+03</pdfrwt>
<pdfrwt beam="2">0</pdfrwt>
<totfact> 0.54188424E-04</totfact>
</mgrwt>
<clustering>
<clus scale="   36.359">  1  6  2 -1</clus>
<clus scale="  464.256">  4  5 -1 -1</clus>
<clus scale="  300.000">  1  4  2 -1</clus>
</clustering>
</event>
<event>
 6    1  0.1007353E-011  0.3000000E+03  0.7818608E-02  0.1093470E+00
          1   -1    0    0  502    0  0.00000000000E+00  0.00000000000E+00  0.22597915119E+03  0.22597915119E+03  0.00000000000E+00 0.  1.
         13   -1    0    0    0    0 -0.00000000000E+00 -0.00000000000E+00 -0.27500000000E+03  0.27500000000E+03  0.00000000000E+00 0.  1.
    9000005    2    1    2  501    0  0.88619488981E+01  0.33313991996E+02 -0.37538858183E+02  0.46464470047E+03  0.46184107180E+03 0.  0.
         13    1    3    3    0    0  0.21171935364E+03  0.60279446084E+02 -0.11186145198E+03  0.24692444343E+03  0.00000000000E+00 0.  1.
          3    1    3    3  501    0 -0.20285740475E+03 -0.26965454088E+02  0.74322593793E+02  0.21772025703E+03  0.00000000000E+00 0.  1.
         21    1    1    2  502  501 -0.88619488981E+01 -0.33313991996E+02 -0.11481990623E+02  0.36334450727E+02  0.00000000000E+00 0.  1.
<scales pt_clust_4="550.00000" pt_clust_5="550.00000" pt_clust_6="34.47256"></scales>
<mgrwt>
<rscale>  0 0.30000000E+03</rscale>
<asrwt>  1 0.34472560E+02</asrwt>
<pdfrwt beam="1">  1        1 0.82174237E+00 0.30000000E+03</pdfrwt>
<pdfrwt beam="2">0</pdfrwt>
<totfact> 0.70031424E-04</totfact>
</mgrwt>
<clustering>
<clus scale="   34.473">  1  6  2 -1</clus>
<clus scale="  461.841">  4  5 -1 -1</clus>
<clus scale="  300.000">  1  4  2 -1</clus>
</clustering>
</event>
<event>
 6    1  0.1007353E-011  0.3000000E+03  0.7818608E-02  0.1093470E+00
          1   -1    0    0  502    0  0.00000000000E+00  0.00000000000E+00  0.25009072191E+03  0.25009072191E+03  0.00000000000E+00 0.  1.
         13   -1    0    0    0    0 -0.00000000000E+00 -0.00000000000E+00 -0.27500000000E+03  0.27500000000E+03  0.00000000000E+00 0.  1.
    9000005    2    1    2  501    0  0.15601773909E+02 -0.27601067945E+02 -0.41880365180E+02  0.48912890747E+03  0.48630020444E+03 0.  0.
         13    1    3    3    0    0  0.17134353203E+03  0.68940696652E-01 -0.20143661537E+03  0.26445287053E+03  0.00000000000E+00 0.  1.
          3    1    3    3  501    0 -0.15574175812E+03 -0.27670008641E+02  0.15955625019E+03  0.22467603694E+03  0.00000000000E+00 0.  1.
         21    1    1    2  502  501 -0.15601773909E+02  0.27601067945E+02  0.16971087094E+02  0.35961814442E+02  0.00000000000E+00 0. -1.
<scales pt_clust_4="550.00000" pt_clust_5="550.00000" pt_clust_6="31.70543"></scales>
<mgrwt>
<rscale>  0 0.30000000E+03</rscale>
<asrwt>  1 0.31705430E+02</asrwt>
<pdfrwt beam="1">  1        1 0.90942081E+00 0.30000000E+03</pdfrwt>
<pdfrwt beam="2">0</pdfrwt>
<totfact> 0.75603832E-05</totfact>
</mgrwt>
<clustering>
<clus scale="   31.705">  1  6  2 -1</clus>
<clus scale="  486.300">  4  5 -1 -1</clus>
<clus scale="  300.000">  1  4  2 -1</clus>
</clustering>
</event>
<event>
 6    1  0.1007353E-011  0.3000000E+03  0.7818608E-02  0.1093470E+00
          1   -1    0    0  502    0  0.00000000000E+00  0.00000000000E+00  0.22437782850E+03  0.22437782850E+03  0.00000000000E+00 0.  1.
         13   -1    0    0    0    0 -0.00000000000E+00 -0.00000000000E+00 -0.27500000000E+03  0.27500000000E+03  0.00000000000E+00 0.  1.
    9000005    2    1    2  501    0 -0.46778829162E+01  0.35769101425E+02 -0.47125619769E+02  0.46313507640E+03  0.45931684462E+03 0.  0.
         13    1    3    3    0    0  0.12647881625E+03 -0.16085804229E+03  0.44900658663E+02  0.20949527412E+03  0.00000000000E+00 0.  1.
          1    1    3    3  501    0 -0.13115669916E+03  0.19662714372E+03 -0.92026278433E+02  0.25363980229E+03  0.00000000000E+00 0.  1.
         21    1    1    2  502  501  0.46778829162E+01 -0.35769101425E+02 -0.34965517341E+01  0.36242752095E+02  0.00000000000E+00 0.  1.
<scales pt_clust_4="550.00000" pt_clust_5="550.00000" pt_clust_6="36.07369"></scales>
<mgrwt>
<rscale>  0 0.30000000E+03</rscale>
<asrwt>  1 0.36073691E+02</asrwt>
<pdfrwt beam="1">  1        1 0.81591938E+00 0.30000000E+03</pdfrwt>
<pdfrwt beam="2">0</pdfrwt>
<totfact> 0.77808606E-04</totfact>
</mgrwt>
<clustering>
<clus scale="   36.074">  1  6  2 -1</clus>
<clus scale="  459.317">  4  5 -1 -1</clus>
<clus scale="  300.000">  1  4  2 -1</clus>
</clustering>
</event>
<event>
 6    1  0.1007353E-011  0.3000000E+03  0.7818608E-02  0.1093470E+00
          1   -1    0    0  502    0  0.00000000000E+00  0.00000000000E+00  0.24188312800E+03  0.24188312800E+03  0.00000000000E+00 0.  1.
         13   -1    0    0    0    0 -0.00000000000E+00 -0.00000000000E+00 -0.27500000000E+03  0.27500000000E+03  0.00000000000E+00 0.  1.
    9000005    2    1    2  501    0 -0.11679126577E+02 -0.37095406354E+02 -0.61891760838E+02  0.46850477129E+03  0.46276739243E+03 0.  0.
         13    1    3    3    0    0 -0.16536632493E+03  0.10699867908E+03 -0.14232040142E+03  0.24300171894E+03  0.00000000000E+00 0.  1.
          3    1    3    3  501    0  0.15368719836E+03 -0.14409408543E+03  0.80428640580E+02  0.22550305235E+03  0.00000000000E+00 0.  1.
         21    1    1    2  502  501  0.11679126577E+02  0.37095406354E+02  0.28774888835E+02  0.48378356706E+02  0.00000000000E+00 0. -1.
<scales pt_clust_4="550.00000" pt_clust_5="550.00000" pt_clust_6="38.89050"></scales>
<mgrwt>
<rscale>  0 0.30000000E+03</rscale>
<asrwt>  1 0.38890502E+02</asrwt>
<pdfrwt beam="1">  1        1 0.87957501E+00 0.30000000E+03</pdfrwt>
<pdfrwt beam="2">0</pdfrwt>
<totfact> 0.19589248E-04</totfact>
</mgrwt>
<clustering>
<clus scale="   38.891">  1  6  2 -1</clus>
<clus scale="  462.767">  4  5 -1 -1</clus>
<clus scale="  300.000">  1  4  2 -1</clus>
</clustering>
</event>
<event>
 6    1  0.1007353E-011  0.3000000E+03  0.7818608E-02  0.1093470E+00
          1   -1    0    0  502    0  0.00000000000E+00  0.00000000000E+00  0.22829973087E+03  0.22829973087E+03  0.00000000000E+00 0.  1.
         13   -1    0    0    0    0 -0.00000000000E+00 -0.00000000000E+00 -0.27500000000E+03  0.27500000000E+03  0.00000000000E+00 0.  1.
    9000005    2    1    2  501    0 -0.78717198766E+01 -0.31844710766E+02 -0.30322703850E+02  0.46663538549E+03  0.46449226801E+03 0.  0.
         13    1    3    3    0    0  0.20818936654E+03  0.51007119537E+02  0.52804921948E+02  0.22075529069E+03  0.00000000000E+00 0.  1.
          1    1    3    3  501    0 -0.21606108642E+03 -0.82851830303E+02 -0.83127625799E+02  0.24588009480E+03  0.00000000000E+00 0.  1.
         21    1    1    2  502  501  0.78717198766E+01  0.31844710766E+02 -0.16377565280E+02  0.36664345379E+02  0.00000000000E+00 0.  1.
<scales pt_clust_4="550.00000" pt_clust_5="550.00000" pt_clust_6="32.80321"></scales>
<mgrwt>
<rscale>  0 0.30000000E+03</rscale>
<asrwt>  1 0.32803211E+02</asrwt>
<pdfrwt beam="1">  1        1 0.83018084E+00 0.30000000E+03</pdfrwt>
<pdfrwt beam="2">0</pdfrwt>
<totfact> 0.59621742E-04</totfact>
</mgrwt>
<clustering>
<clus scale="   32.803">  1  6  2 -1</clus>
<clus scale="  464.492">  4  5 -1 -1</clus>
<clus scale="  300.000">  1  4  2 -1</clus>
</clustering>
</event>
<event>
 6    1  0.1007353E-011  0.3000000E+03  0.7818608E-02  0.1093470E+00
          1   -1    0    0  502    0  0.00000000000E+00  0.00000000000E+00  0.23137782445E+03  0.23137782445E+03  0.00000000000E+00 0.  1.
         13   -1    0    0    0    0 -0.00000000000E+00 -0.00000000000E+00 -0.27500000000E+03  0.27500000000E+03  0.00000000000E+00 0.  1.
    9000005    2    1    2  501    0  0.36705600969E+02  0.14646106975E+02 -0.45309401569E+02  0.46682208753E+03  0.46293423933E+03 0.  0.
         13    1    3    3    0    0 -0.21244204733E+03  0.10000830263E+02  0.43934641175E+01  0.21272268945E+03  0.00000000000E+00 0.  1.
          3    1    3    3  501    0  0.24914764830E+03  0.46452767115E+01 -0.49702865686E+02  0.25409939808E+03  0.00000000000E+00 0.  1.
         21    1    1    2  502  501 -0.36705600969E+02 -0.14646106975E+02  0.16872260212E+01  0.39555736925E+02  0.00000000000E+00 0. -1.
<scales pt_clust_4="550.00000" pt_clust_5="550.00000" pt_clust_6="39.51974"></scales>
<mgrwt>
<rscale>  0 0.30000000E+03</rscale>
<asrwt>  1 0.39519737E+02</asrwt>
<pdfrwt beam="1">  1        1 0.84137391E+00 0.30000000E+03</pdfrwt>
<pdfrwt beam="2">0</pdfrwt>
<totfact> 0.47407199E-04</totfact>
</mgrwt>
<clustering>
<clus scale="   39.520">  1  6  2 -1</clus>
<clus scale="  462.934">  4  5 -1 -1</clus>
<clus scale="  300.000">  1  4  2 -1</clus>
</clustering>
</event>
<event>
 6    1  0.1007353E-011  0.3000000E+03  0.7818608E-02  0.1093470E+00
          1   -1    0    0  502    0  0.00000000000E+00  0.00000000000E+00  0.24794071586E+03  0.24794071586E+03  0.00000000000E+00 0.  1.
         13   -1    0    0    0    0 -0.00000000000E+00 -0.00000000000E+00 -0.27500000000E+03  0.27500000000E+03  0.00000000000E+00 0.  1.
    9000005    2    1    2  501    0 -0.52719740232E+02  0.13580734172E+02 -0.37075615663E+02  0.46758609322E+03  0.46292369343E+03 0.  0.
         13    1    3    3    0    0 -0.24314675937E+03  0.73423381846E+02 -0.74086173393E+02  0.26457532138E+03  0.00000000000E+00 0.  1.
          1    1    3    3  501    0  0.19042701914E+03 -0.59842647674E+02  0.37010557730E+02  0.20301077184E+03  0.00000000000E+00 0.  1.
         21    1    1    2  502  501  0.52719740232E+02 -0.13580734172E+02  0.10016331520E+02  0.55354622642E+02  0.00000000000E+00 0. -1.
<scales pt_clust_4="550.00000" pt_clust_5="550.00000" pt_clust_6="54.44086"></scales>
<mgrwt>
<rscale>  0 0.30000000E+03</rscale>
<asrwt>  1 0.54440861E+02</asrwt>
<pdfrwt beam="1">  1        1 0.90160260E+00 0.30000000E+03</pdfrwt>
<pdfrwt beam="2">0</pdfrwt>
<totfact> 0.97139395E-05</totfact>
</mgrwt>
<clustering>
<clus scale="   54.441">  1  6  2 -1</clus>
<clus scale="  462.924">  4  5 -1 -1</clus>
<clus scale="  300.000">  1  4  2 -1</clus>
</clustering>
</event>
<event>
 6    1  0.1007353E-011  0.3000000E+03  0.7818608E-02  0.1093470E+00
          1   -1    0    0  502    0  0.00000000000E+00  0.00000000000E+00  0.24761248097E+03  0.24761248097E+03  0.00000000000E+00 0.  1.
         13   -1    0    0    0    0 -0.00000000000E+00 -0.00000000000E+00 -0.27500000000E+03  0.27500000000E+03  0.00000000000E+00 0.  1.
    9000005    2    1    2  501    0  0.27663741658E+01  0.42575459606E+02 -0.18881898682E+02  0.47910767475E+03  0.47683048908E+03 0.  0.
         13    1    3    3    0    0 -0.14240005946E+03  0.35196953758E+02 -0.19927495480E+03  0.24744112451E+03  0.00000000000E+00 0.  1.
          1    1    3    3  501    0  0.14516643363E+03  0.73785058484E+01  0.18039305612E+03  0.23166655023E+03  0.00000000000E+00 0.  1.
         21    1    1    2  502  501 -0.27663741658E+01 -0.42575459606E+02 -0.85056203492E+01  0.43504806220E+02  0.00000000000E+00 0.  1.
<scales pt_clust_4="550.00000" pt_clust_5="550.00000" pt_clust_6="42.66526"></scales>
<mgrwt>
<rscale>  0 0.30000000E+03</rscale>
<asrwt>  1 0.42665260E+02</asrwt>
<pdfrwt beam="1">  1        1 0.90040902E+00 0.30000000E+03</pdfrwt>
<pdfrwt beam="2">0</pdfrwt>
<totfact> 0.10522961E-04</totfact>
</mgrwt>
<clustering>
<clus scale="   42.665">  1  6  2 -1</clus>
<clus scale="  476.830">  4  5 -1 -1</clus>
<clus scale="  300.000">  1  4  2 -1</clus>
</clustering>
</event>
<event>
 6    1  0.1007353E-011  0.3000000E+03  0.7818608E-02  0.1093470E+00
          1   -1    0    0  502    0  0.00000000000E+00  0.00000000000E+00  0.22638615796E+03  0.22638615796E+03  0.00000000000E+00 0.  1.
         13   -1    0    0    0    0 -0.00000000000E+00 -0.00000000000E+00 -0.27500000000E+03  0.27500000000E+03  0.00000000000E+00 0.  1.
    9000005    2    1    2  501    0  0.18598310429E+02  0.27518701711E+02 -0.62533280413E+02  0.46537328721E+03  0.45995511650E+03 0.  0.
         13    1    3    3    0    0  0.88537289068E+02  0.14439791262E+03 -0.20656979746E+03  0.26713421710E+03  0.00000000000E+00 0.  1.
          1    1    3    3  501    0 -0.69938978639E+02 -0.11687921091E+03  0.14403651705E+03  0.19823907011E+03  0.00000000000E+00 0.  1.
         21    1    1    2  502  501 -0.18598310429E+02 -0.27518701711E+02  0.13919438368E+02  0.36012870743E+02  0.00000000000E+00 0.  1.
<scales pt_clust_4="550.00000" pt_clust_5="550.00000" pt_clust_6="33.21409"></scales>
<mgrwt>
<rscale>  0 0.30000000E+03</rscale>
<asrwt>  1 0.33214095E+02</asrwt>
<pdfrwt beam="1">  1        1 0.82322239E+00 0.30000000E+03</pdfrwt>
<pdfrwt beam="2">0</pdfrwt>
<totfact> 0.68419733E-04</totfact>
</mgrwt>
<clustering>
<clus scale="   33.214">  1  6  2 -1</clus>
<clus scale="  459.955">  4  5 -1 -1</clus>
<clus scale="  300.000">  1  4  2 -1</clus>
</clustering>
</event>
<event>
 6    1  0.1007353E-011  0.3000000E+03  0.7818608E-02  0.1093470E+00
          1   -1    0    0  502    0  0.00000000000E+00  0.00000000000E+00  0.23045832592E+03  0.23045832592E+03  0.00000000000E+00 0.  1.
         13   -1    0    0    0    0 -0.00000000000E+00 -0.00000000000E+00 -0.27500000000E+03  0.27500000000E+03  0.00000000000E+00 0.  1.
    9000005    2    1    2  501    0 -0.29499135426E+02 -0.30949401524E+02 -0.45788760210E+02  0.46268427223E+03  0.45842345136E+03 0.  0.
         13    1    3    3    0    0  0.18477381548E+03 -0.81761062811E+02 -0.11419121783E+03  0.23209021632E+03  0.00000000000E+00 0.  1.
          1    1    3    3  501    0 -0.21427295091E+03  0.50811661287E+02  0.68402457623E+02  0.23059405591E+03  0.00000000000E+00 0.  1.
         21    1    1    2  502  501  0.29499135426E+02  0.30949401524E+02  0.12470861314E+01  0.42774053694E+02  0.00000000000E+00 0.  1.
<scales pt_clust_4="550.00000" pt_clust_5="550.00000" pt_clust_6="42.75587"></scales>
<mgrwt>
<rscale>  0 0.30000000E+03</rscale>
<asrwt>  1 0.42755870E+02</asrwt>
<pdfrwt beam="1">  1        1 0.83803028E+00 0.30000000E+03</pdfrwt>
<pdfrwt beam="2">0</pdfrwt>
<totfact> 0.49565228E-04</totfact>
</mgrwt>
<clustering>
<clus scale="   42.756">  1  6  2 -1</clus>
<clus scale="  458.423">  4  5 -1 -1</clus>
<clus scale="  300.000">  1  4  2 -1</clus>
</clustering>
</event>
<event>
 6    1  0.1007353E-011  0.3000000E+03  0.7818608E-02  0.1093470E+00
          1   -1    0    0  502    0  0.00000000000E+00  0.00000000000E+00  0.23570137687E+03  0.23570137687E+03  0.00000000000E+00 0.  1.
         13   -1    0    0    0    0 -0.00000000000E+00 -0.00000000000E+00 -0.27500000000E+03  0.27500000000E+03  0.00000000000E+00 0.  1.
    9000005    2    1    2  501    0  0.31771285382E+02 -0.79087824940E+01 -0.40280958169E+02  0.47794579113E+03  0.47511857494E+03 0.  0.
         13    1    3    3    0    0 -0.14607649632E+03  0.13976482045E+03  0.79924895770E+02  0.21739488673E+03  0.00000000000E+00 0.  1.
          1    1    3    3  501    0  0.17784778170E+03 -0.14767360294E+03 -0.12020585394E+03  0.26055090440E+03  0.00000000000E+00 0.  1.
         21    1    1    2  502  501 -0.31771285382E+02  0.79087824940E+01  0.98233504148E+00  0.32755585745E+02  0.00000000000E+00 0.  1.
<scales pt_clust_4="550.00000" pt_clust_5="550.00000" pt_clust_6="32.74085"></scales>
<mgrwt>
<rscale>  0 0.30000000E+03</rscale>
<asrwt>  1 0.32740852E+02</asrwt>
<pdfrwt beam="1">  1        1 0.85709592E+00 0.30000000E+03</pdfrwt>
<pdfrwt beam="2">0</pdfrwt>
<totfact> 0.35136922E-04</totfact>
</mgrwt>
<clustering>
<clus scale="   32.741">  1  6  2 -1</clus>
<clus scale="  475.119">  4  5 -1 -1</clus>
<clus scale="  300.000">  1  4  2 -1</clus>
</clustering>
</event>
<event>
 6    1  0.1007353E-011  0.3000000E+03  0.7818608E-02  0.1093470E+00
          1   -1    0    0  502    0  0.00000000000E+00  0.00000000000E+00  0.21876403114E+03  0.21876403114E+03  0.00000000000E+00 0.  1.
         13   -1    0    0    0    0 -0.00000000000E+00 -0.00000000000E+00 -0.27500000000E+03  0.27500000000E+03  0.00000000000E+00 0.  1.
    9000005    2    1    2  501    0 -0.12146072078E+02  0.29801455081E+02 -0.44415999370E+02  0.45948042761E+03  0.45619494579E+03 0.  0.
         13    1    3    3    0    0  0.17690592588E+03 -0.89050284573E+02 -0.11024640747E+03  0.22667141451E+03  0.00000000000E+00 0.  1.
          3    1    3    3  501    0 -0.18905199796E+03  0.11885173965E+03  0.65830408102E+02  0.23280901310E+03  0.00000000000E+00 0.  1.
         21    1    1    2  502  501  0.12146072078E+02 -0.29801455081E+02 -0.11819969491E+02  0.34283603525E+02  0.00000000000E+00 0.  1.
<scales pt_clust_4="550.00000" pt_clust_5="550.00000" pt_clust_6="32.18159"></scales>
<mgrwt>
<rscale>  0 0.30000000E+03</rscale>
<asrwt>  1 0.32181591E+02</asrwt>
<pdfrwt beam="1">  1        1 0.79550557E+00 0.30000000E+03</pdfrwt>
<pdfrwt beam="2">0</pdfrwt>
<totfact> 0.11361933E-03</totfact>
</mgrwt>
<clustering>
<clus scale="   32.182">  1  6  2 -1</clus>
<clus scale="  456.195">  4  5 -1 -1</clus>
<clus scale="  300.000">  1  4  2 -1</clus>
</clustering>
</event>
<event>
 6    1  0.1007353E-011  0.3000000E+03  0.7818608E-02  0.1093470E+00
          1   -1    0    0  502    0  0.00000000000E+00  0.00000000000E+00  0.24630168629E+03  0.24630168629E+03  0.00000000000E+00 0.  1.
         13   -1    0    0    0    0 -0.00000000000E+00 -0.00000000000E+00 -0.27500000000E+03  0.27500000000E+03  0.00000000000E+00 0.  1.
    9000005    2    1    2  501    0  0.99004941506E+01  0.42177849494E+02 -0.52507794871E+02  0.47186604969E+03  0.46692987649E+03 0.  0.
         13    1    3    3    0    0 -0.18867243320E+03  0.13959381969E+03  0.28270767417E+02  0.23639576526E+03  0.00000000000E+00 0.  1.
          1    1    3    3  501    0  0.19857292735E+03 -0.97415970198E+02 -0.80778562289E+02  0.23547028443E+03  0.00000000000E+00 0.  1.
         21    1    1    2  502  501 -0.99004941506E+01 -0.42177849494E+02  0.23809481160E+02  0.49435636594E+02  0.00000000000E+00 0.  1.
<scales pt_clust_4="550.00000" pt_clust_5="550.00000" pt_clust_6="43.32425"></scales>
<mgrwt>
<rscale>  0 0.30000000E+03</rscale>
<asrwt>  1 0.43324252E+02</asrwt>
<pdfrwt beam="1">  1        1 0.89564250E+00 0.30000000E+03</pdfrwt>
<pdfrwt beam="2">0</pdfrwt>
<totfact> 0.11926454E-04</totfact>
</mgrwt>
<clustering>
<clus scale="   43.324">  1  6  2 -1</clus>
<clus scale="  466.930">  4  5 -1 -1</clus>
<clus scale="  300.000">  1  4  2 -1</clus>
</clustering>
</event>
<event>
 6    1  0.1007353E-011  0.3000000E+03  0.7818608E-02  0.1093470E+00
          1   -1    0    0  502    0  0.00000000000E+00  0.00000000000E+00  0.26896735688E+03  0.26896735688E+03  0.00000000000E+00 0.  1.
         13   -1    0    0    0    0 -0.00000000000E+00 -0.00000000000E+00 -0.27500000000E+03  0.27500000000E+03  0.00000000000E+00 0.  1.
    9000005    2    1    2  501    0  0.33992146742E+02  0.15827143494E+00 -0.59656963006E+02  0.48047673731E+03  0.47554542451E+03 0.  0.
         13    1    3    3    0    0 -0.21756628120E+03  0.38885051247E+02 -0.10583394265E+02  0.22126712851E+03  0.00000000000E+00 0.  1.
          3    1    3    3  501    0  0.25155842794E+03 -0.38726779813E+02 -0.49073568741E+02  0.25920960880E+03  0.00000000000E+00 0.  1.
         21    1    1    2  502  501 -0.33992146742E+02 -0.15827143494E+00  0.53624319890E+02  0.63490619572E+02  0.00000000000E+00 0.  1.
<scales pt_clust_4="550.00000" pt_clust_5="550.00000" pt_clust_6="33.99252"></scales>
<mgrwt>
<rscale>  0 0.30000000E+03</rscale>
<asrwt>  1 0.33992515E+02</asrwt>
<pdfrwt beam="1">  1        1 0.97806312E+00 0.30000000E+03</pdfrwt>
<pdfrwt beam="2">0</pdfrwt>
<totfact> 0.33864317E-06</totfact>
</mgrwt>
<clustering>
<clus scale="   33.993">  1  6  2 -1</clus>
<clus scale="  475.545">  4  5 -1 -1</clus>
<clus scale="  300.000">  1  4  2 -1</clus>
</clustering>
</event>
<event>
 6    1  0.1007353E-011  0.3000000E+03  0.7818608E-02  0.1093470E+00
          1   -1    0    0  502    0  0.00000000000E+00  0.00000000000E+00  0.25471160753E+03  0.25471160753E+03  0.00000000000E+00 0.  1.
         13   -1    0    0    0    0 -0.00000000000E+00 -0.00000000000E+00 -0.27500000000E+03  0.27500000000E+03  0.00000000000E+00 0.  1.
    9000005    2    1    2  501    0  0.16107218739E+02 -0.25532191591E+02 -0.51740150198E+02  0.48611632835E+03  0.48241134547E+03 0.  0.
         13    1    3    3    0    0 -0.20274906589E+03  0.10508904263E+03 -0.19116466487E+02  0.22916441672E+03  0.00000000000E+00 0.  1.
          1    1    3    3  501    0  0.21885628463E+03 -0.13062123422E+03 -0.32623683710E+02  0.25695191163E+03  0.00000000000E+00 0.  1.
         21    1    1    2  502  501 -0.16107218739E+02  0.25532191591E+02  0.31451757730E+02  0.43595279186E+02  0.00000000000E+00 0. -1.
<scales pt_clust_4="550.00000" pt_clust_5="550.00000" pt_clust_6="30.18833"></scales>
<mgrwt>
<rscale>  0 0.30000000E+03</rscale>
<asrwt>  1 0.30188331E+02</asrwt>
<pdfrwt beam="1">  1        1 0.92622403E+00 0.30000000E+03</pdfrwt>
<pdfrwt beam="2">0</pdfrwt>
<totfact> 0.31824000E-05</totfact>
</mgrwt>
<clustering>
<clus scale="   30.188">  1  6  2 -1</clus>
<clus scale="  482.411">  4  5 -1 -1</clus>
<clus scale="  300.000">  1  4  2 -1</clus>
</clustering>
</event>
<event>
 6    1  0.1007353E-011  0.3000000E+03  0.7818608E-02  0.1093470E+00
          1   -1    0    0  502    0  0.00000000000E+00  0.00000000000E+00  0.22830669959E+03  0.22830669959E+03  0.00000000000E+00 0.  1.
         13   -1    0    0    0    0 -0.00000000000E+00 -0.00000000000E+00 -0.27500000000E+03  0.27500000000E+03  0.00000000000E+00 0.  1.
    9000005    2    1    2  501    0  0.31969175004E+02 -0.40849907300E+01 -0.58675059536E+02  0.46892243209E+03  0.46411934824E+03 0.  0.
         13    1    3    3    0    0 -0.12263866056E+03  0.46526419860E+02  0.15327458612E+03  0.20173757101E+03  0.00000000000E+00 0.  1.
          3    1    3    3  501    0  0.15460783556E+03 -0.50611410590E+02 -0.21194964565E+03  0.26718486108E+03  0.00000000000E+00 0.  1.
         21    1    1    2  502  501 -0.31969175004E+02  0.40849907300E+01  0.11981759130E+02  0.34384267500E+02  0.00000000000E+00 0. -1.
<scales pt_clust_4="550.00000" pt_clust_5="550.00000" pt_clust_6="32.22911"></scales>
<mgrwt>
<rscale>  0 0.30000000E+03</rscale>
<asrwt>  1 0.32229106E+02</asrwt>
<pdfrwt beam="1">  1        1 0.83020618E+00 0.30000000E+03</pdfrwt>
<pdfrwt beam="2">0</pdfrwt>
<totfact> 0.59793079E-04</totfact>
</mgrwt>
<clustering>
<clus scale="   32.229">  1  6  2 -1</clus>
<clus scale="  464.119">  4  5 -1 -1</clus>
<clus scale="  300.000">  1  4  2 -1</clus>
</clustering>
</event>
<event>
 6    1  0.1007353E-011  0.3000000E+03  0.7818608E-02  0.1093470E+00
          1   -1    0    0  502    0  0.00000000000E+00  0.00000000000E+00  0.22894397169E+03  0.22894397169E+03  0.00000000000E+00 0.  1.
         13   -1    0    0    0    0 -0.00000000000E+00 -0.00000000000E+00 -0.27500000000E+03  0.27500000000E+03  0.00000000000E+00 0.  1.
    9000005    2    1    2  501    0  0.10439971471E+02 -0.35052307199E+02 -0.60986571721E+02  0.46443981532E+03  0.45896331321E+03 0.  0.
         13    1    3    3    0    0 -0.71207542570E+02 -0.22168008476E+03 -0.10598455787E+03  0.25582279141E+03  0.00000000000E+00 0.  1.
          3    1    3    3  501    0  0.81647514041E+02  0.18662777756E+03  0.44997986152E+02  0.20861702391E+03  0.00000000000E+00 0.  1.
         21    1    1    2  502  501 -0.10439971471E+02  0.35052307199E+02  0.14930543410E+02  0.39504156374E+02  0.00000000000E+00 0. -1.
<scales pt_clust_4="550.00000" pt_clust_5="550.00000" pt_clust_6="36.57400"></scales>
<mgrwt>
<rscale>  0 0.30000000E+03</rscale>
<asrwt>  1 0.36573997E+02</asrwt>
<pdfrwt beam="1">  1        1 0.83252353E+00 0.30000000E+03</pdfrwt>
<pdfrwt beam="2">0</pdfrwt>
<totfact> 0.55982715E-04</totfact>
</mgrwt>
<clustering>
<clus scale="   36.574">  1  6  2 -1</clus>
<clus scale="  458.963">  4  5 -1 -1</clus>
<clus scale="  300.000">  1  4  2 -1</clus>
</clustering>
</event>
<event>
 6    1  0.1007353E-011  0.3000000E+03  0.7818608E-02  0.1093470E+00
          1   -1    0    0  502    0  0.00000000000E+00  0.00000000000E+00  0.23520815850E+03  0.23520815850E+03  0.00000000000E+00 0.  1.
         13   -1    0    0    0    0 -0.00000000000E+00 -0.00000000000E+00 -0.27500000000E+03  0.27500000000E+03  0.00000000000E+00 0.  1.
    9000005    2    1    2  501    0 -0.23305623878E+02  0.25874674364E+02 -0.55120703020E+02  0.47216049270E+03  0.46763723984E+03 0.  0.
         13    1    3    3    0    0  0.70046554280E+02  0.23885401833E+02 -0.24749498476E+03  0.25832305292E+03  0.00000000000E+00 0.  1.
          1    1    3    3  501    0 -0.93352178158E+02  0.19892725317E+01  0.19237428174E+03  0.21383743977E+03  0.00000000000E+00 0.  1.
         21    1    1    2  502  501  0.23305623878E+02 -0.25874674364E+02  0.15328861524E+02  0.38047665808E+02  0.00000000000E+00 0.  1.
<scales pt_clust_4="550.00000" pt_clust_5="550.00000" pt_clust_6="34.82314"></scales>
<mgrwt>
<rscale>  0 0.30000000E+03</rscale>
<asrwt>  1 0.34823137E+02</asrwt>
<pdfrwt beam="1">  1        1 0.85530239E+00 0.30000000E+03</pdfrwt>
<pdfrwt beam="2">0</pdfrwt>
<totfact> 0.36216588E-04</totfact>
</mgrwt>
<clustering>
<clus scale="   34.823">  1  6  2 -1</clus>
<clus scale="  467.637">  4  5 -1 -1</clus>
<clus scale="  300.000">  1  4  2 -1</clus>
</clustering>
</event>
<event>
 6    1  0.1007353E-011  0.3000000E+03  0.7818608E-02  0.1093470E+00
          1   -1    0    0  502    0  0.00000000000E+00  0.00000000000E+00  0.22101438672E+03  0.22101438672E+03  0.00000000000E+00 0.  1.
         13   -1    0    0    0    0 -0.00000000000E+00 -0.00000000000E+00 -0.27500000000E+03  0.27500000000E+03  0.00000000000E+00 0.  1.
    9000005    2    1    2  501    0 -0.16109276395E+02  0.26631854863E+02 -0.63849234371E+02  0.46336388136E+03  0.45788710108E+03 0.  0.
         13    1    3    3    0    0  0.11330255235E+03 -0.14957976468E+03  0.77500979284E+02  0.20302210757E+03  0.00000000000E+00 0.  1.
          3    1    3    3  501    0 -0.12941182875E+03  0.17621161954E+03 -0.14135021366E+03  0.26034177379E+03  0.00000000000E+00 0.  1.
         21    1    1    2  502  501  0.16109276395E+02 -0.26631854863E+02  0.98636210916E+01  0.32650505362E+02  0.00000000000E+00 0. -1.
<scales pt_clust_4="550.00000" pt_clust_5="550.00000" pt_clust_6="31.12498"></scales>
<mgrwt>
<rscale>  0 0.30000000E+03</rscale>
<asrwt>  1 0.31124982E+02</asrwt>
<pdfrwt beam="1">  1        1 0.80368868E+00 0.30000000E+03</pdfrwt>
<pdfrwt beam="2">0</pdfrwt>
<totfact> 0.99660114E-04</totfact>
</mgrwt>
<clustering>
<clus scale="   31.125">  1  6  2 -1</clus>
<clus scale="  457.887">  4  5 -1 -1</clus>
<clus scale="  300.000">  1  4  2 -1</clus>
</clustering>
</event>
<event>
 6    1  0.1007353E-011  0.3000000E+03  0.7818608E-02  0.1093470E+00
          1   -1    0    0  502    0  0.00000000000E+00  0.00000000000E+00  0.22084579026E+03  0.22084579026E+03  0.00000000000E+00 0.  1.
         13   -1    0    0    0    0 -0.00000000000E+00 -0.00000000000E+00 -0.27500000000E+03  0.27500000000E+03  0.00000000000E+00 0.  1.
    9000005    2    1    2  501    0 -0.30326244087E+02  0.12049826426E+02 -0.57805795126E+02  0.46300962920E+03  0.45822650228E+03 0.  0.
         13    1    3    3    0    0  0.68880834365E+02 -0.18385628150E+03 -0.12573950291E+03  0.23314828797E+03  0.00000000000E+00 0.  1.
          1    1    3    3  501    0 -0.99207078451E+02  0.19590610793E+03  0.67933707788E+02  0.22986134123E+03  0.00000000000E+00 0.  1.
         21    1    1    2  502  501  0.30326244087E+02 -0.12049826426E+02  0.36515853904E+01  0.32836161060E+02  0.00000000000E+00 0.  1.
<scales pt_clust_4="550.00000" pt_clust_5="550.00000" pt_clust_6="32.63249"></scales>
<mgrwt>
<rscale>  0 0.30000000E+03</rscale>
<asrwt>  1 0.32632490E+02</asrwt>
<pdfrwt beam="1">  1        1 0.80307560E+00 0.30000000E+03</pdfrwt>
<pdfrwt beam="2">0</pdfrwt>
<totfact> 0.99801948E-04</totfact>
</mgrwt>
<clustering>
<clus scale="   32.632">  1  6  2 -1</clus>
<clus scale="  458.227">  4  5 -1 -1</clus>
<clus scale="  300.000">  1  4  2 -1</clus>
</clustering>
</event>
<event>
 6    1  0.1007353E-011  0.3000000E+03  0.7818608E-02  0.1093470E+00
          1   -1    0    0  502    0  0.00000000000E+00  0.00000000000E+00  0.25342004303E+03  0.25342004303E+03  0.00000000000E+00 0.  1.
         13   -1    0    0    0    0 -0.00000000000E+00 -0.00000000000E+00 -0.27500000000E+03  0.27500000000E+03  0.00000000000E+00 0.  1.
    9000005    2    1    2  501    0  0.12640131291E+02 -0.29786546529E+02 -0.52017888083E+02  0.48399618769E+03  0.48010356981E+03 0.  0.
         13    1    3    3    0    0  0.12984644781E+03 -0.40433615583E+02  0.17895614589E+03  0.22476716716E+03  0.00000000000E+00 0.  1.
          3    1    3    3  501    0 -0.11720631652E+03  0.10647069055E+02 -0.23097403398E+03  0.25922902053E+03  0.00000000000E+00 0.  1.
         21    1    1    2  502  501 -0.12640131291E+02  0.29786546529E+02  0.30437931114E+02  0.44423855344E+02  0.00000000000E+00 0.  1.
<scales pt_clust_4="550.00000" pt_clust_5="550.00000" pt_clust_6="32.35755"></scales>
<mgrwt>
<rscale>  0 0.30000000E+03</rscale>
<asrwt>  1 0.32357554E+02</asrwt>
<pdfrwt beam="1">  1        1 0.92152743E+00 0.30000000E+03</pdfrwt>
<pdfrwt beam="2">0</pdfrwt>
<totfact> 0.39335522E-05</totfact>
</mgrwt>
<clustering>
<clus scale="   32.358">  1  6  2 -1</clus>
<clus scale="  480.104">  4  5 -1 -1</clus>
<clus scale="  300.000">  1  4  2 -1</clus>
</clustering>
</event>
<event>
 6    1  0.1007353E-011  0.3000000E+03  0.7818608E-02  0.1093470E+00
          1   -1    0    0  502    0  0.00000000000E+00  0.00000000000E+00  0.23199774276E+03  0.23199774276E+03  0.00000000000E+00 0.  1.
         13   -1    0    0    0    0 -0.00000000000E+00 -0.00000000000E+00 -0.27500000000E+03  0.27500000000E+03  0.00000000000E+00 0.  1.
    9000005    2    1    2  501    0 -0.21108985036E+02 -0.23133680480E+02 -0.45732599665E+02  0.47556191620E+03  0.47232076923E+03 0.  0.
         13    1    3    3    0    0 -0.16128727365E+03 -0.33703343415E+02 -0.20507746677E+03  0.26307084099E+03  0.00000000000E+00 0.  1.
          3    1    3    3  501    0  0.14017828862E+03  0.10569662935E+02  0.15934486711E+03  0.21249107522E+03  0.00000000000E+00 0.  1.
         21    1    1    2  502  501  0.21108985036E+02  0.23133680480E+02  0.27303424295E+01  0.31435826562E+02  0.00000000000E+00 0.  1.
<scales pt_clust_4="550.00000" pt_clust_5="550.00000" pt_clust_6="31.31703"></scales>
<mgrwt>
<rscale>  0 0.30000000E+03</rscale>
<asrwt>  1 0.31317031E+02</asrwt>
<pdfrwt beam="1">  1        1 0.84362816E+00 0.30000000E+03</pdfrwt>
<pdfrwt beam="2">0</pdfrwt>
<totfact> 0.47417574E-04</totfact>
</mgrwt>
<clustering>
<clus scale="   31.317">  1  6  2 -1</clus>
<clus scale="  472.321">  4  5 -1 -1</clus>
<clus scale="  300.000">  1  4  2 -1</clus>
</clustering>
</event>
<event>
 6    1  0.1007353E-011  0.3000000E+03  0.7818608E-02  0.1093470E+00
          1   -1    0    0  502    0  0.00000000000E+00  0.00000000000E+00  0.25333389891E+03  0.25333389891E+03  0.00000000000E+00 0.  1.
         13   -1    0    0    0    0 -0.00000000000E+00 -0.00000000000E+00 -0.27500000000E+03  0.27500000000E+03  0.00000000000E+00 0.  1.
    9000005    2    1    2  501    0  0.23546586914E+01 -0.34574046062E+02 -0.93546097720E+01  0.49155779394E+03  0.49024549664E+03 0.  0.
         13    1    3    3    0    0 -0.13259065642E+03  0.11386528065E+03  0.15393024375E+03  0.23289504986E+03  0.00000000000E+00 0.  1.
          3    1    3    3  501    0  0.13494531512E+03 -0.14843932671E+03 -0.16328485352E+03  0.25866274408E+03  0.00000000000E+00 0.  1.
         21    1    1    2  502  501 -0.23546586914E+01  0.34574046062E+02 -0.12311491316E+02  0.36776104975E+02  0.00000000000E+00 0. -1.
<scales pt_clust_4="550.00000" pt_clust_5="550.00000" pt_clust_6="34.65415"></scales>
<mgrwt>
<rscale>  0 0.30000000E+03</rscale>
<asrwt>  1 0.34654152E+02</asrwt>
<pdfrwt beam="1">  1        1 0.92121418E+00 0.30000000E+03</pdfrwt>
<pdfrwt beam="2">0</pdfrwt>
<totfact> 0.39431774E-05</totfact>
</mgrwt>
<clustering>
<clus scale="   34.654">  1  6  2 -1</clus>
<clus scale="  490.245">  4  5 -1 -1</clus>
<clus scale="  300.000">  1  4  2 -1</clus>
</clustering>
</event>
<event>
 6    1  0.1007353E-011  0.3000000E+03  0.7818608E-02  0.1093470E+00
          1   -1    0    0  502    0  0.00000000000E+00  0.00000000000E+00  0.21990856412E+03  0.21990856412E+03  0.00000000000E+00 0.  1.
         13   -1    0    0    0    0 -0.00000000000E+00 -0.00000000000E+00 -0.27500000000E+03  0.27500000000E+03  0.00000000000E+00 0.  1.
    9000005    2    1    2  501    0  0.22818782103E+02 -0.21560251862E+02 -0.64357229328E+02  0.46217637499E+03  0.45659567164E+03 0.  0.
         13    1    3    3    0    0  0.20922740706E+03 -0.10298923057E+03 -0.10331335348E+03  0.25506183267E+03  0.00000000000E+00 0.  1.
          3    1    3    3  501    0 -0.18640862496E+03  0.81428978709E+02  0.38956124148E+02  0.20711454232E+03  0.00000000000E+00 0.  1.
         21    1    1    2  502  501 -0.22818782103E+02  0.21560251862E+02  0.92657934518E+01  0.32732189131E+02  0.00000000000E+00 0.  1.
<scales pt_clust_4="550.00000" pt_clust_5="550.00000" pt_clust_6="31.39333"></scales>
<mgrwt>
<rscale>  0 0.30000000E+03</rscale>
<asrwt>  1 0.31393332E+02</asrwt>
<pdfrwt beam="1">  1        1 0.79966751E+00 0.30000000E+03</pdfrwt>
<pdfrwt beam="2">0</pdfrwt>
<totfact> 0.10644305E-03</totfact>
</mgrwt>
<clustering>
<clus scale="   31.393">  1  6  2 -1</clus>
<clus scale="  456.596">  4  5 -1 -1</clus>
<clus scale="  300.000">  1  4  2 -1</clus>
</clustering>
</event>
<event>
 6    1  0.1007353E-011  0.3000000E+03  0.7818608E-02  0.1093470E+00
          1   -1    0    0  502    0  0.00000000000E+00  0.00000000000E+00  0.23099789181E+03  0.23099789181E+03  0.00000000000E+00 0.  1.
         13   -1    0    0    0    0 -0.00000000000E+00 -0.00000000000E+00 -0.27500000000E+03  0.27500000000E+03  0.00000000000E+00 0.  1.
    9000005    2    1    2  501    0 -0.55203019244E+01 -0.30266179403E+02 -0.45584789069E+02  0.47519171990E+03  0.47199860415E+03 0.  0.
         13    1    3    3    0    0 -0.98103813093E+02 -0.14881841665E+03 -0.19429566621E+03  0.26367041015E+03  0.00000000000E+00 0.  1.
          3    1    3    3  501    0  0.92583511169E+02  0.11855223725E+03  0.14871087714E+03  0.21152130975E+03  0.00000000000E+00 0.  1.
         21    1    1    2  502  501  0.55203019244E+01  0.30266179403E+02  0.15826808765E+01  0.30806171910E+02  0.00000000000E+00 0.  1.
<scales pt_clust_4="550.00000" pt_clust_5="550.00000" pt_clust_6="30.76549"></scales>
<mgrwt>
<rscale>  0 0.30000000E+03</rscale>
<asrwt>  1 0.30765490E+02</asrwt>
<pdfrwt beam="1">  1        1 0.83999233E+00 0.30000000E+03</pdfrwt>
<pdfrwt beam="2">0</pdfrwt>
<totfact> 0.50939475E-04</totfact>
</mgrwt>
<clustering>
<clus scale="   30.765">  1  6  2 -1</clus>
<clus scale="  471.999">  4  5 -1 -1</clus>
<clus scale="  300.000">  1  4  2 -1</clus>
</clustering>
</event>
<event>
 6    1  0.1007353E-011  0.3000000E+03  0.7818608E-02  0.1093470E+00
          1   -1    0    0  502    0  0.00000000000E+00  0.00000000000E+00  0.23218030773E+03  0.23218030773E+03  0.00000000000E+00 0.  1.
         13   -1    0    0    0    0 -0.00000000000E+00 -0.00000000000E+00 -0.27500000000E+03  0.27500000000E+03  0.00000000000E+00 0.  1.
    9000005    2    1    2  501    0  0.38775488329E+02 -0.11569287140E+02 -0.36572445045E+02  0.46623626057E+03  0.46303490153E+03 0.  0.
         13    1    3    3    0    0  0.23048448837E+03 -0.39583409274E+02  0.71298180068E+02  0.24448594265E+03  0.00000000000E+00 0.  1.
          1    1    3    3  501    0 -0.19170900004E+03  0.28014122134E+02 -0.10787062511E+03  0.22175031792E+03  0.00000000000E+00 0.  1.
         21    1    1    2  502  501 -0.38775488329E+02  0.11569287140E+02 -0.62472472258E+01  0.40944047162E+02  0.00000000000E+00 0. -1.
<scales pt_clust_4="550.00000" pt_clust_5="550.00000" pt_clust_6="40.46466"></scales>
<mgrwt>
<rscale>  0 0.30000000E+03</rscale>
<asrwt>  1 0.40464658E+02</asrwt>
<pdfrwt beam="1">  1        1 0.84429203E+00 0.30000000E+03</pdfrwt>
<pdfrwt beam="2">0</pdfrwt>
<totfact> 0.44615905E-04</totfact>
</mgrwt>
<clustering>
<clus scale="   40.465">  1  6  2 -1</clus>
<clus scale="  463.035">  4  5 -1 -1</clus>
<clus scale="  300.000">  1  4  2 -1</clus>
</clustering>
</event>
<event>
 6    1  0.1007353E-011  0.3000000E+03  0.7818608E-02  0.1093470E+00
          1   -1    0    0  502    0  0.00000000000E+00  0.00000000000E+00  0.22293201160E+03  0.22293201160E+03  0.00000000000E+00 0.  1.
         13   -1    0    0    0    0 -0.00000000000E+00 -0.00000000000E+00 -0.27500000000E+03  0.27500000000E+03  0.00000000000E+00 0.  1.
    9000005    2    1    2  501    0  0.32470315359E+02 -0.11596844787E+02 -0.47669581076E+02  0.46317349933E+03  0.45942191211E+03 0.  0.
         13    1    3    3    0    0  0.18684051624E+03 -0.15749889224E+03  0.46675081672E+01  0.24441167157E+03  0.00000000000E+00 0.  1.
          1    1    3    3  501    0 -0.15437020089E+03  0.14590204745E+03 -0.52337089243E+02  0.21876182776E+03  0.00000000000E+00 0.  1.
         21    1    1    2  502  501 -0.32470315359E+02  0.11596844787E+02 -0.43984073223E+01  0.34758512274E+02  0.00000000000E+00 0.  1.
<scales pt_clust_4="550.00000" pt_clust_5="550.00000" pt_clust_6="34.47912"></scales>
<mgrwt>
<rscale>  0 0.30000000E+03</rscale>
<asrwt>  1 0.34479115E+02</asrwt>
<pdfrwt beam="1">  1        1 0.81066186E+00 0.30000000E+03</pdfrwt>
<pdfrwt beam="2">0</pdfrwt>
<totfact> 0.86424728E-04</totfact>
</mgrwt>
<clustering>
<clus scale="   34.479">  1  6  2 -1</clus>
<clus scale="  459.422">  4  5 -1 -1</clus>
<clus scale="  300.000">  1  4  2 -1</clus>
</clustering>
</event>
<event>
 6    1  0.1007353E-011  0.3000000E+03  0.7818608E-02  0.1093470E+00
          1   -1    0    0  502    0  0.00000000000E+00  0.00000000000E+00  0.25691725426E+03  0.25691725426E+03  0.00000000000E+00 0.  1.
         13   -1    0    0    0    0 -0.00000000000E+00 -0.00000000000E+00 -0.27500000000E+03  0.27500000000E+03  0.00000000000E+00 0.  1.
    9000005    2    1    2  501    0 -0.45673837456E+02  0.52696880839E+01 -0.47058034772E+02  0.47757172625E+03  0.47301842039E+03 0.  0.
         13    1    3    3    0    0  0.10439119234E+03  0.10958790383E+03 -0.19187992588E+03  0.24438685656E+03  0.00000000000E+00 0.  1.
          1    1    3    3  501    0 -0.15006502980E+03 -0.10431821575E+03  0.14482189111E+03  0.23318486968E+03  0.00000000000E+00 0.  1.
         21    1    1    2  502  501  0.45673837456E+02 -0.52696880839E+01  0.28975289029E+02  0.54345528010E+02  0.00000000000E+00 0.  1.
<scales pt_clust_4="550.00000" pt_clust_5="550.00000" pt_clust_6="45.97683"></scales>
<mgrwt>
<rscale>  0 0.30000000E+03</rscale>
<asrwt>  1 0.45976832E+02</asrwt>
<pdfrwt beam="1">  1        1 0.93424456E+00 0.30000000E+03</pdfrwt>
<pdfrwt beam="2">0</pdfrwt>
<totfact> 0.21890203E-05</totfact>
</mgrwt>
<clustering>
<clus scale="   45.977">  1  6  2 -1</clus>
<clus scale="  473.018">  4  5 -1 -1</clus>
<clus scale="  300.000">  1  4  2 -1</clus>
</clustering>
</event>
<event>
 6    1  0.1007353E-011  0.3000000E+03  0.7818608E-02  0.1093470E+00
          1   -1    0    0  502    0  0.00000000000E+00  0.00000000000E+00  0.24179449275E+03  0.24179449275E+03  0.00000000000E+00 0.  1.
         13   -1    0    0    0    0 -0.00000000000E+00 -0.00000000000E+00 -0.27500000000E+03  0.27500000000E+03  0.00000000000E+00 0.  1.
    9000005    2    1    2  501    0  0.99840269768E+00  0.35089469603E+02 -0.37673736283E+02  0.48140759185E+03  0.47864568461E+03 0.  0.
         13    1    3    3    0    0  0.23531190965E+02  0.43094406590E+02 -0.25656145681E+03  0.26121758353E+03  0.00000000000E+00 0.  1.
          3    1    3    3  501    0 -0.22532788268E+02 -0.80049369868E+01  0.21888772053E+03  0.22019000831E+03  0.00000000000E+00 0.  1.
         21    1    1    2  502  501 -0.99840269768E+00 -0.35089469603E+02  0.44682290335E+01  0.35386900905E+02  0.00000000000E+00 0. -1.
<scales pt_clust_4="550.00000" pt_clust_5="550.00000" pt_clust_6="35.10367"></scales>
<mgrwt>
<rscale>  0 0.30000000E+03</rscale>
<asrwt>  1 0.35103671E+02</asrwt>
<pdfrwt beam="1">  1        1 0.87925270E+00 0.30000000E+03</pdfrwt>
<pdfrwt beam="2">0</pdfrwt>
<totfact> 0.20144341E-04</totfact>
</mgrwt>
<clustering>
<clus scale="   35.104">  1  6  2 -1</clus>
<clus scale="  478.646">  4  5 -1 -1</clus>
<clus scale="  300.000">  1  4  2 -1</clus>
</clustering>
</event>
<event>
 6    1  0.1007353E-011  0.3000000E+03  0.7818608E-02  0.1093470E+00
          1   -1    0    0  502    0  0.00000000000E+00  0.00000000000E+00  0.25455255886E+03  0.25455255886E+03  0.00000000000E+00 0.  1.
         13   -1    0    0    0    0 -0.00000000000E+00 -0.00000000000E+00 -0.27500000000E+03  0.27500000000E+03  0.00000000000E+00 0.  1.
    9000005    2    1    2  501    0 -0.15738387760E+02 -0.33146635549E+02  0.10577151949E+02  0.48150131877E+03  0.47998463260E+03 0.  0.
         13    1    3    3    0    0 -0.24415239992E+03  0.22825768960E+02 -0.10077325807E+02  0.24542404652E+03  0.00000000000E+00 0.  1.
          1    1    3    3  501    0  0.22841401216E+03 -0.55972404509E+02  0.20654477755E+02  0.23607727224E+03  0.00000000000E+00 0.  1.
         21    1    1    2  502  501  0.15738387760E+02  0.33146635549E+02 -0.31024593092E+02  0.48051240088E+02  0.00000000000E+00 0.  1.
<scales pt_clust_4="550.00000" pt_clust_5="550.00000" pt_clust_6="36.69329"></scales>
<mgrwt>
<rscale>  0 0.30000000E+03</rscale>
<asrwt>  1 0.36693292E+02</asrwt>
<pdfrwt beam="1">  1        1 0.92564567E+00 0.30000000E+03</pdfrwt>
<pdfrwt beam="2">0</pdfrwt>
<totfact> 0.31525827E-05</totfact>
</mgrwt>
<clustering>
<clus scale="   36.693">  1  6  2 -1</clus>
<clus scale="  479.985">  4  5 -1 -1</clus>
<clus scale="  300.000">  1  4  2 -1</clus>
</clustering>
</event>
<event>
 6    1  0.1007353E-011  0.3000000E+03  0.7818608E-02  0.1093470E+00
          1   -1    0    0  502    0  0.00000000000E+00  0.00000000000E+00  0.23458983639E+03  0.23458983639E+03  0.00000000000E+00 0.  1.
         13   -1    0    0    0    0 -0.00000000000E+00 -0.00000000000E+00 -0.27500000000E+03  0.27500000000E+03  0.00000000000E+00 0.  1.
    9000005    2    1    2  501    0 -0.32127329448E+02  0.14296819638E+02 -0.43397157494E+02  0.47429838584E+03  0.47099796304E+03 0.  0.
         13    1    3    3    0    0  0.78384358326E+02  0.97982179413E+02  0.17517264404E+03  0.21547637999E+03  0.00000000000E+00 0.  1.
          1    1    3    3  501    0 -0.11051168777E+03 -0.83685359775E+02 -0.21856980153E+03  0.25882200586E+03  0.00000000000E+00 0.  1.
         21    1    1    2  502  501  0.32127329448E+02 -0.14296819638E+02  0.29869938856E+01  0.35291450547E+02  0.00000000000E+00 0.  1.
<scales pt_clust_4="550.00000" pt_clust_5="550.00000" pt_clust_6="35.16482"></scales>
<mgrwt>
<rscale>  0 0.30000000E+03</rscale>
<asrwt>  1 0.35164817E+02</asrwt>
<pdfrwt beam="1">  1        1 0.85305395E+00 0.30000000E+03</pdfrwt>
<pdfrwt beam="2">0</pdfrwt>
<totfact> 0.38027670E-04</totfact>
</mgrwt>
<clustering>
<clus scale="   35.165">  1  6  2 -1</clus>
<clus scale="  470.998">  4  5 -1 -1</clus>
<clus scale="  300.000">  1  4  2 -1</clus>
</clustering>
</event>
<event>
 6    1  0.1007353E-011  0.3000000E+03  0.7818608E-02  0.1093470E+00
          1   -1    0    0  502    0  0.00000000000E+00  0.00000000000E+00  0.23146640444E+03  0.23146640444E+03  0.00000000000E+00 0.  1.
         13   -1    0    0    0    0 -0.00000000000E+00 -0.00000000000E+00 -0.27500000000E+03  0.27500000000E+03  0.00000000000E+00 0.  1.
    9000005    2    1    2  501    0  0.42495332397E+01  0.31418716922E+02 -0.65029589809E+02  0.46816141684E+03  0.46253764211E+03 0.  0.
         13    1    3    3    0    0 -0.88932944091E+02  0.19986762138E+03  0.73739175934E+02  0.23085406795E+03  0.00000000000E+00 0.  1.
          3    1    3    3  501    0  0.93182477331E+02 -0.16844890446E+03 -0.13876876574E+03  0.23730734890E+03  0.00000000000E+00 0.  1.
         21    1    1    2  502  501 -0.42495332397E+01 -0.31418716922E+02  0.21495994245E+02  0.38304987591E+02  0.00000000000E+00 0.  1.
<scales pt_clust_4="550.00000" pt_clust_5="550.00000" pt_clust_6="31.70480"></scales>
<mgrwt>
<rscale>  0 0.30000000E+03</rscale>
<asrwt>  1 0.31704799E+02</asrwt>
<pdfrwt beam="1">  1        1 0.84169602E+00 0.30000000E+03</pdfrwt>
<pdfrwt beam="2">0</pdfrwt>
<totfact> 0.49101158E-04</totfact>
</mgrwt>
<clustering>
<clus scale="   31.705">  1  6  2 -1</clus>
<clus scale="  462.538">  4  5 -1 -1</clus>
<clus scale="  300.000">  1  4  2 -1</clus>
</clustering>
</event>
<event>
 6    1  0.1007353E-011  0.3000000E+03  0.7818608E-02  0.1093470E+00
          1   -1    0    0  502    0  0.00000000000E+00  0.00000000000E+00  0.23224211674E+03  0.23224211674E+03  0.00000000000E+00 0.  1.
         13   -1    0    0    0    0 -0.00000000000E+00 -0.00000000000E+00 -0.27500000000E+03  0.27500000000E+03  0.00000000000E+00 0.  1.
    9000005    2    1    2  501    0  0.21154077491E+02 -0.25530150580E+02 -0.62652558724E+02  0.46857583046E+03  0.46318320586E+03 0.  0.
         13    1    3    3    0    0  0.16536137276E+03 -0.13299078879E+03 -0.15842663805E+03  0.26482056784E+03  0.00000000000E+00 0.  1.
          3    1    3    3  501    0 -0.14420729527E+03  0.10746063821E+03  0.95774079330E+02  0.20375526262E+03  0.00000000000E+00 0.  1.
         21    1    1    2  502  501 -0.21154077491E+02  0.25530150580E+02  0.19894675461E+02  0.38666286282E+02  0.00000000000E+00 0.  1.
<scales pt_clust_4="550.00000" pt_clust_5="550.00000" pt_clust_6="33.15545"></scales>
<mgrwt>
<rscale>  0 0.30000000E+03</rscale>
<asrwt>  1 0.33155446E+02</asrwt>
<pdfrwt beam="1">  1        1 0.84451679E+00 0.30000000E+03</pdfrwt>
<pdfrwt beam="2">0</pdfrwt>
<totfact> 0.46088654E-04</totfact>
</mgrwt>
<clustering>
<clus scale="   33.155">  1  6  2 -1</clus>
<clus scale="  463.183">  4  5 -1 -1</clus>
<clus scale="  300.000">  1  4  2 -1</clus>
</clustering>
</event>
<event>
 6    1  0.1007353E-011  0.3000000E+03  0.7818608E-02  0.1093470E+00
          1   -1    0    0  502    0  0.00000000000E+00  0.00000000000E+00  0.24228221397E+03  0.24228221397E+03  0.00000000000E+00 0.  1.
         13   -1    0    0    0    0 -0.00000000000E+00 -0.00000000000E+00 -0.27500000000E+03  0.27500000000E+03  0.00000000000E+00 0.  1.
    9000005    2    1    2  501    0  0.51467919384E+02 -0.11957830441E+02 -0.43704714217E+02  0.46331325043E+03  0.45821079161E+03 0.  0.
         13    1    3    3    0    0  0.14655146231E+03 -0.17147667457E+03 -0.12801537220E+03  0.25936367623E+03  0.00000000000E+00 0.  1.
          1    1    3    3  501    0 -0.95083542923E+02  0.15951884413E+03  0.84310657983E+02  0.20394957420E+03  0.00000000000E+00 0.  1.
         21    1    1    2  502  501 -0.51467919384E+02  0.11957830441E+02  0.10986928185E+02  0.53968963539E+02  0.00000000000E+00 0.  1.
<scales pt_clust_4="550.00000" pt_clust_5="550.00000" pt_clust_6="52.83878"></scales>
<mgrwt>
<rscale>  0 0.30000000E+03</rscale>
<asrwt>  1 0.52838778E+02</asrwt>
<pdfrwt beam="1">  1        1 0.88102623E+00 0.30000000E+03</pdfrwt>
<pdfrwt beam="2">0</pdfrwt>
<totfact> 0.17791789E-04</totfact>
</mgrwt>
<clustering>
<clus scale="   52.839">  1  6  2 -1</clus>
<clus scale="  458.211">  4  5 -1 -1</clus>
<clus scale="  300.000">  1  4  2 -1</clus>
</clustering>
</event>
<event>
 6    1  0.1007353E-011  0.3000000E+03  0.7818608E-02  0.1093470E+00
          1   -1    0    0  502    0  0.00000000000E+00  0.00000000000E+00  0.22189947538E+03  0.22189947538E+03  0.00000000000E+00 0.  1.
         13   -1    0    0    0    0 -0.00000000000E+00 -0.00000000000E+00 -0.27500000000E+03  0.27500000000E+03  0.00000000000E+00 0.  1.
    9000005    2    1    2  501    0 -0.50825607044E+01  0.31428076988E+02 -0.55944836860E+02  0.46493626906E+03  0.46045885057E+03 0.  0.
         13    1    3    3    0    0 -0.91899344814E+02  0.14233487973E+03 -0.20091387191E+03  0.26281379623E+03  0.00000000000E+00 0.  1.
          1    1    3    3  501    0  0.86816784110E+02 -0.11090680274E+03  0.14496903505E+03  0.20212247283E+03  0.00000000000E+00 0.  1.
         21    1    1    2  502  501  0.50825607044E+01 -0.31428076988E+02  0.28443122449E+01  0.31963206325E+02  0.00000000000E+00 0. -1.
<scales pt_clust_4="550.00000" pt_clust_5="550.00000" pt_clust_6="31.83640"></scales>
<mgrwt>
<rscale>  0 0.30000000E+03</rscale>
<asrwt>  1 0.31836401E+02</asrwt>
<pdfrwt beam="1">  1        1 0.80690718E+00 0.30000000E+03</pdfrwt>
<pdfrwt beam="2">0</pdfrwt>
<totfact> 0.93813848E-04</totfact>
</mgrwt>
<clustering>
<clus scale="   31.836">  1  6  2 -1</clus>
<clus scale="  460.459">  4  5 -1 -1</clus>
<clus scale="  300.000">  1  4  2 -1</clus>
</clustering>
</event>
<event>
 6    1  0.1007353E-011  0.3000000E+03  0.7818608E-02  0.1093470E+00
          1   -1    0    0  502    0  0.00000000000E+00  0.00000000000E+00  0.24520284828E+03  0.24520284828E+03  0.00000000000E+00 0.  1.
         13   -1    0    0    0    0 -0.00000000000E+00 -0.00000000000E+00 -0.27500000000E+03  0.27500000000E+03  0.00000000000E+00 0.  1.
    9000005    2    1    2  501    0 -0.31014132761E+02  0.19338669661E+02 -0.46001914802E+02  0.48022216642E+03  0.47661440640E+03 0.  0.
         13    1    3    3    0    0  0.21594940817E+03  0.50214945752E+02  0.20351254985E+02  0.22264290073E+03  0.00000000000E+00 0.  1.
          3    1    3    3  501    0 -0.24696354093E+03 -0.30876276091E+02 -0.66353169787E+02  0.25757926569E+03  0.00000000000E+00 0.  1.
         21    1    1    2  502  501  0.31014132761E+02 -0.19338669661E+02  0.16204763081E+02  0.39980681856E+02  0.00000000000E+00 0. -1.
<scales pt_clust_4="550.00000" pt_clust_5="550.00000" pt_clust_6="36.54943"></scales>
<mgrwt>
<rscale>  0 0.30000000E+03</rscale>
<asrwt>  1 0.36549426E+02</asrwt>
<pdfrwt beam="1">  1        1 0.89164672E+00 0.30000000E+03</pdfrwt>
<pdfrwt beam="2">0</pdfrwt>
<totfact> 0.13692248E-04</totfact>
</mgrwt>
<clustering>
<clus scale="   36.549">  1  6  2 -1</clus>
<clus scale="  476.614">  4  5 -1 -1</clus>
<clus scale="  300.000">  1  4  2 -1</clus>
</clustering>
</event>
<event>
 6    1  0.1007353E-011  0.3000000E+03  0.7818608E-02  0.1093470E+00
          1   -1    0    0  502    0  0.00000000000E+00  0.00000000000E+00  0.22862321179E+03  0.22862321179E+03  0.00000000000E+00 0.  1.
         13   -1    0    0    0    0 -0.00000000000E+00 -0.00000000000E+00 -0.27500000000E+03  0.27500000000E+03  0.00000000000E+00 0.  1.
    9000005    2    1    2  501    0  0.25007090408E+01  0.30824455159E+02 -0.60505990918E+02  0.46962269782E+03  0.46468064602E+03 0.  0.
         13    1    3    3    0    0  0.55403396561E+02 -0.18816024568E+03 -0.12827299103E+03  0.23436675240E+03  0.00000000000E+00 0.  1.
          1    1    3    3  501    0 -0.52902687521E+02  0.21898470084E+03  0.67767000111E+02  0.23525594541E+03  0.00000000000E+00 0.  1.
         21    1    1    2  502  501 -0.25007090408E+01 -0.30824455159E+02  0.14129202712E+02  0.34000513979E+02  0.00000000000E+00 0. -1.
<scales pt_clust_4="550.00000" pt_clust_5="550.00000" pt_clust_6="30.92573"></scales>
<mgrwt>
<rscale>  0 0.30000000E+03</rscale>
<asrwt>  1 0.30925727E+02</asrwt>
<pdfrwt beam="1">  1        1 0.83135713E+00 0.30000000E+03</pdfrwt>
<pdfrwt beam="2">0</pdfrwt>
<totfact> 0.58996286E-04</totfact>
</mgrwt>
<clustering>
<clus scale="   30.926">  1  6  2 -1</clus>
<clus scale="  464.681">  4  5 -1 -1</clus>
<clus scale="  300.000">  1  4  2 -1</clus>
</clustering>
</event>
<event>
 6    1  0.1007353E-011  0.3000000E+03  0.7818608E-02  0.1093470E+00
          1   -1    0    0  502    0  0.00000000000E+00  0.00000000000E+00  0.21871977578E+03  0.21871977578E+03  0.00000000000E+00 0.  1.
         13   -1    0    0    0    0 -0.00000000000E+00 -0.00000000000E+00 -0.27500000000E+03  0.27500000000E+03  0.00000000000E+00 0.  1.
    9000005    2    1    2  501    0 -0.13567358599E+02 -0.27348841621E+02 -0.65242541965E+02  0.46190224136E+03  0.45625109198E+03 0.  0.
         13    1    3    3    0    0  0.18408270557E+03  0.86211134778E+02 -0.10768794359E+03  0.23003368328E+03  0.00000000000E+00 0.  1.
          1    1    3    3  501    0 -0.19765006417E+03 -0.11355997640E+03  0.42445401625E+02  0.23186855808E+03  0.00000000000E+00 0.  1.
         21    1    1    2  502  501  0.13567358599E+02  0.27348841621E+02  0.89623177433E+01  0.31817534422E+02  0.00000000000E+00 0. -1.
<scales pt_clust_4="550.00000" pt_clust_5="550.00000" pt_clust_6="30.52920"></scales>
<mgrwt>
<rscale>  0 0.30000000E+03</rscale>
<asrwt>  1 0.30529205E+02</asrwt>
<pdfrwt beam="1">  1        1 0.79534464E+00 0.30000000E+03</pdfrwt>
<pdfrwt beam="2">0</pdfrwt>
<totfact> 0.11508561E-03</totfact>
</mgrwt>
<clustering>
<clus scale="   30.529">  1  6  2 -1</clus>
<clus scale="  456.251">  4  5 -1 -1</clus>
<clus scale="  300.000">  1  4  2 -1</clus>
</clustering>
</event>
<event>
 6    1  0.1007353E-011  0.3000000E+03  0.7818608E-02  0.1093470E+00
          1   -1    0    0  502    0  0.00000000000E+00  0.00000000000E+00  0.23086869801E+03  0.23086869801E+03  0.00000000000E+00 0.  1.
         13   -1    0    0    0    0 -0.00000000000E+00 -0.00000000000E+00 -0.27500000000E+03  0.27500000000E+03  0.00000000000E+00 0.  1.
    9000005    2    1    2  501    0 -0.27063124619E+02 -0.22056667474E+02 -0.64747379553E+02  0.46532326734E+03  0.45947210000E+03 0.  0.
         13    1    3    3    0    0 -0.65438124890E+02 -0.10644177057E+02 -0.25881366066E+03  0.26717027835E+03  0.00000000000E+00 0.  1.
          3    1    3    3  501    0  0.38375000271E+02 -0.11412490417E+02  0.19406628110E+03  0.19815298899E+03  0.00000000000E+00 0.  1.
         21    1    1    2  502  501  0.27063124619E+02  0.22056667474E+02  0.20616077566E+02  0.40545430672E+02  0.00000000000E+00 0. -1.
<scales pt_clust_4="550.00000" pt_clust_5="550.00000" pt_clust_6="34.91288"></scales>
<mgrwt>
<rscale>  0 0.30000000E+03</rscale>
<asrwt>  1 0.34912881E+02</asrwt>
<pdfrwt beam="1">  1        1 0.83952254E+00 0.30000000E+03</pdfrwt>
<pdfrwt beam="2">0</pdfrwt>
<totfact> 0.50145762E-04</totfact>
</mgrwt>
<clustering>
<clus scale="   34.913">  1  6  2 -1</clus>
<clus scale="  459.472">  4  5 -1 -1</clus>
<clus scale="  300.000">  1  4  2 -1</clus>
</clustering>
</event>
<event>
 6    1  0.1007353E-011  0.3000000E+03  0.7818608E-02  0.1093470E+00
          1   -1    0    0  502    0  0.00000000000E+00  0.00000000000E+00  0.23501779685E+03  0.23501779685E+03  0.00000000000E+00 0.  1.
         13   -1    0    0    0    0 -0.00000000000E+00 -0.00000000000E+00 -0.27500000000E+03  0.27500000000E+03  0.00000000000E+00 0.  1.
    9000005    2    1    2  501    0 -0.28365759689E+02 -0.22296408426E+02 -0.57357387113E+02  0.46997228313E+03  0.46506164205E+03 0.  0.
         13    1    3    3    0    0 -0.81933243381E+02 -0.23291501719E+03 -0.53389594991E+02  0.25261217400E+03  0.00000000000E+00 0.  1.
          1    1    3    3  501    0  0.53567483691E+02  0.21061860876E+03 -0.39677921223E+01  0.21736010913E+03  0.00000000000E+00 0.  1.
         21    1    1    2  502  501  0.28365759689E+02  0.22296408426E+02  0.17375183968E+02  0.40045513723E+02  0.00000000000E+00 0.  1.
<scales pt_clust_4="550.00000" pt_clust_5="550.00000" pt_clust_6="36.07972"></scales>
<mgrwt>
<rscale>  0 0.30000000E+03</rscale>
<asrwt>  1 0.36079719E+02</asrwt>
<pdfrwt beam="1">  1        1 0.85461017E+00 0.30000000E+03</pdfrwt>
<pdfrwt beam="2">0</pdfrwt>
<totfact> 0.36550379E-04</totfact>
</mgrwt>
<clustering>
<clus scale="   36.080">  1  6  2 -1</clus>
<clus scale="  465.062">  4  5 -1 -1</clus>
<clus scale="  300.000">  1  4  2 -1</clus>
</clustering>
</event>
<event>
 6    1  0.1007353E-011  0.3000000E+03  0.7818608E-02  0.1093470E+00
          1   -1    0    0  502    0  0.00000000000E+00  0.00000000000E+00  0.23849549895E+03  0.23849549895E+03  0.00000000000E+00 0.  1.
         13   -1    0    0    0    0 -0.00000000000E+00 -0.00000000000E+00 -0.27500000000E+03  0.27500000000E+03  0.00000000000E+00 0.  1.
    9000005    2    1    2  501    0 -0.97778149137E+01  0.31606511137E+02 -0.41255412213E+02  0.48007172945E+03  0.47715016417E+03 0.  0.
         13    1    3    3    0    0 -0.10759214579E+03 -0.19966456976E+03 -0.10001480019E+02  0.22702872033E+03  0.00000000000E+00 0.  1.
          1    1    3    3  501    0  0.97814330874E+02  0.23127108090E+03 -0.31253932194E+02  0.25304300912E+03  0.00000000000E+00 0.  1.
         21    1    1    2  502  501  0.97778149137E+01 -0.31606511137E+02  0.47509111630E+01  0.33423769500E+02  0.00000000000E+00 0.  1.
<scales pt_clust_4="550.00000" pt_clust_5="550.00000" pt_clust_6="33.08440"></scales>
<mgrwt>
<rscale>  0 0.30000000E+03</rscale>
<asrwt>  1 0.33084395E+02</asrwt>
<pdfrwt beam="1">  1        1 0.86725636E+00 0.30000000E+03</pdfrwt>
<pdfrwt beam="2">0</pdfrwt>
<totfact> 0.27321176E-04</totfact>
</mgrwt>
<clustering>
<clus scale="   33.084">  1  6  2 -1</clus>
<clus scale="  477.150">  4  5 -1 -1</clus>
<clus scale="  300.000">  1  4  2 -1</clus>
</clustering>
</event>
<event>
 6    1  0.1007353E-011  0.3000000E+03  0.7818608E-02  0.1093470E+00
          1   -1    0    0  502    0  0.00000000000E+00  0.00000000000E+00  0.24694515956E+03  0.24694515956E+03  0.00000000000E+00 0.  1.
         13   -1    0    0    0    0 -0.00000000000E+00 -0.00000000000E+00 -0.27500000000E+03  0.27500000000E+03  0.00000000000E+00 0.  1.
    9000005    2    1    2  501    0  0.41512884709E+02 -0.15901074765E+01 -0.30417122768E+02  0.48033472317E+03  0.47756716479E+03 0.  0.
         13    1    3    3    0    0 -0.38232398499E+02  0.17759059603E+03 -0.16261877076E+03  0.24381345471E+03  0.00000000000E+00 0.  1.
          3    1    3    3  501    0  0.79745283208E+02 -0.17918070351E+03  0.13220164799E+03  0.23652126846E+03  0.00000000000E+00 0.  1.
         21    1    1    2  502  501 -0.41512884709E+02  0.15901074765E+01  0.23622823246E+01  0.41610436389E+02  0.00000000000E+00 0. -1.
<scales pt_clust_4="550.00000" pt_clust_5="550.00000" pt_clust_6="41.54333"></scales>
<mgrwt>
<rscale>  0 0.30000000E+03</rscale>
<asrwt>  1 0.41543327E+02</asrwt>
<pdfrwt beam="1">  1        1 0.89798240E+00 0.30000000E+03</pdfrwt>
<pdfrwt beam="2">0</pdfrwt>
<totfact> 0.11311565E-04</totfact>
</mgrwt>
<clustering>
<clus scale="   41.543">  1  6  2 -1</clus>
<clus scale="  477.567">  4  5 -1 -1</clus>
<clus scale="  300.000">  1  4  2 -1</clus>
</clustering>
</event>
<event>
 6    1  0.1007353E-011  0.3000000E+03  0.7818608E-02  0.1093470E+00
          1   -1    0    0  502    0  0.00000000000E+00  0.00000000000E+00  0.23086962689E+03  0.23086962689E+03  0.00000000000E+00 0.  1.
         13   -1    0    0    0    0 -0.00000000000E+00 -0.00000000000E+00 -0.27500000000E+03  0.27500000000E+03  0.00000000000E+00 0.  1.
    9000005    2    1    2  501    0  0.23495306257E+02 -0.20203050941E+02 -0.33532794492E+02  0.47312056040E+03  0.47091233121E+03 0.  0.
         13    1    3    3    0    0 -0.49073509161E+02 -0.10873115158E+02  0.21150349176E+03  0.21739402237E+03  0.00000000000E+00 0.  1.
          3    1    3    3  501    0  0.72568815418E+02 -0.93299357835E+01 -0.24503628626E+03  0.25572653803E+03  0.00000000000E+00 0.  1.
         21    1    1    2  502  501 -0.23495306257E+02  0.20203050941E+02 -0.10597578614E+02  0.32749066489E+02  0.00000000000E+00 0. -1.
<scales pt_clust_4="550.00000" pt_clust_5="550.00000" pt_clust_6="30.98699"></scales>
<mgrwt>
<rscale>  0 0.30000000E+03</rscale>
<asrwt>  1 0.30986992E+02</asrwt>
<pdfrwt beam="1">  1        1 0.83952592E+00 0.30000000E+03</pdfrwt>
<pdfrwt beam="2">0</pdfrwt>
<totfact> 0.51287445E-04</totfact>
</mgrwt>
<clustering>
<clus scale="   30.987">  1  6  2 -1</clus>
<clus scale="  470.912">  4  5 -1 -1</clus>
<clus scale="  300.000">  1  4  2 -1</clus>
</clustering>
</event>
<event>
 6    1  0.1007353E-011  0.3000000E+03  0.7818608E-02  0.1093470E+00
          1   -1    0    0  502    0  0.00000000000E+00  0.00000000000E+00  0.25201519655E+03  0.25201519655E+03  0.00000000000E+00 0.  1.
         13   -1    0    0    0    0 -0.00000000000E+00 -0.00000000000E+00 -0.27500000000E+03  0.27500000000E+03  0.00000000000E+00 0.  1.
    9000005    2    1    2  501    0  0.20114996932E+02 -0.34190358516E+02 -0.37885910374E+02  0.48464024281E+03  0.48152593806E+03 0.  0.
         13    1    3    3    0    0  0.84788956517E+02 -0.52546328952E+02  0.20748937322E+03  0.23022190129E+03  0.00000000000E+00 0.  1.
          1    1    3    3  501    0 -0.64673959585E+02  0.18355970436E+02 -0.24537528360E+03  0.25441834152E+03  0.00000000000E+00 0.  1.
         21    1    1    2  502  501 -0.20114996932E+02  0.34190358516E+02  0.14901106925E+02  0.42374953742E+02  0.00000000000E+00 0. -1.
<scales pt_clust_4="550.00000" pt_clust_5="550.00000" pt_clust_6="39.66855"></scales>
<mgrwt>
<rscale>  0 0.30000000E+03</rscale>
<asrwt>  1 0.39668548E+02</asrwt>
<pdfrwt beam="1">  1        1 0.91641890E+00 0.30000000E+03</pdfrwt>
<pdfrwt beam="2">0</pdfrwt>
<totfact> 0.49072961E-05</totfact>
</mgrwt>
<clustering>
<clus scale="   39.669">  1  6  2 -1</clus>
<clus scale="  481.526">  4  5 -1 -1</clus>
<clus scale="  300.000">  1  4  2 -1</clus>
</clustering>
</event>
<event>
 6    1  0.1007353E-011  0.3000000E+03  0.7818608E-02  0.1093470E+00
          1   -1    0    0  502    0  0.00000000000E+00  0.00000000000E+00  0.23738957911E+03  0.23738957911E+03  0.00000000000E+00 0.  1.
         13   -1    0    0    0    0 -0.00000000000E+00 -0.00000000000E+00 -0.27500000000E+03  0.27500000000E+03  0.00000000000E+00 0.  1.
    9000005    2    1    2  501    0 -0.20753390018E+02 -0.39460711545E+02 -0.49651164874E+02  0.46620700157E+03  0.46140641433E+03 0.  0.
         13    1    3    3    0    0 -0.21594352192E+03 -0.11804417253E+03  0.13639414317E+02  0.24647933980E+03  0.00000000000E+00 0.  1.
          1    1    3    3  501    0  0.19519013190E+03  0.78583460980E+02 -0.63290579190E+02  0.21972766177E+03  0.00000000000E+00 0.  1.
         21    1    1    2  502  501  0.20753390018E+02  0.39460711545E+02  0.12040743987E+02  0.46182577544E+02  0.00000000000E+00 0.  1.
<scales pt_clust_4="550.00000" pt_clust_5="550.00000" pt_clust_6="44.58532"></scales>
<mgrwt>
<rscale>  0 0.30000000E+03</rscale>
<asrwt>  1 0.44585322E+02</asrwt>
<pdfrwt beam="1">  1        1 0.86323483E+00 0.30000000E+03</pdfrwt>
<pdfrwt beam="2">0</pdfrwt>
<totfact> 0.28559354E-04</totfact>
</mgrwt>
<clustering>
<clus scale="   44.585">  1  6  2 -1</clus>
<clus scale="  461.406">  4  5 -1 -1</clus>
<clus scale="  300.000">  1  4  2 -1</clus>
</clustering>
</event>
<event>
 6    1  0.1007353E-011  0.3000000E+03  0.7818608E-02  0.1093470E+00
          1   -1    0    0  502    0  0.00000000000E+00  0.00000000000E+00  0.24640589489E+03  0.24640589489E+03  0.00000000000E+00 0.  1.
         13   -1    0    0    0    0 -0.00000000000E+00 -0.00000000000E+00 -0.27500000000E+03  0.27500000000E+03  0.00000000000E+00 0.  1.
    9000005    2    1    2  501    0 -0.23796210789E+02 -0.22778204091E+02 -0.56656676339E+02  0.47813218309E+03  0.47361936119E+03 0.  0.
         13    1    3    3    0    0  0.48795145623E+01  0.13200271677E+03 -0.21661160014E+03  0.25371068604E+03  0.00000000000E+00 0.  1.
          1    1    3    3  501    0 -0.28675725351E+02 -0.15478092086E+03  0.15995492380E+03  0.22442149704E+03  0.00000000000E+00 0.  1.
         21    1    1    2  502  501  0.23796210789E+02  0.22778204091E+02  0.28062571232E+02  0.43273711808E+02  0.00000000000E+00 0.  1.
<scales pt_clust_4="550.00000" pt_clust_5="550.00000" pt_clust_6="32.94095"></scales>
<mgrwt>
<rscale>  0 0.30000000E+03</rscale>
<asrwt>  1 0.32940951E+02</asrwt>
<pdfrwt beam="1">  1        1 0.89602144E+00 0.30000000E+03</pdfrwt>
<pdfrwt beam="2">0</pdfrwt>
<totfact> 0.12423244E-04</totfact>
</mgrwt>
<clustering>
<clus scale="   32.941">  1  6  2 -1</clus>
<clus scale="  473.619">  4  5 -1 -1</clus>
<clus scale="  300.000">  1  4  2 -1</clus>
</clustering>
</event>
<event>
 6    1  0.1007353E-011  0.3000000E+03  0.7818608E-02  0.1093470E+00
          1   -1    0    0  502    0  0.00000000000E+00  0.00000000000E+00  0.23935225347E+03  0.23935225347E+03  0.00000000000E+00 0.  1.
         13   -1    0    0    0    0 -0.00000000000E+00 -0.00000000000E+00 -0.27500000000E+03  0.27500000000E+03  0.00000000000E+00 0.  1.
    9000005    2    1    2  501    0  0.34306011949E+02  0.32018986368E+02 -0.58152978546E+02  0.46230800872E+03  0.45622889876E+03 0.  0.
         13    1    3    3    0    0  0.60452758466E+02 -0.20753958025E+03 -0.89185460351E+01  0.21634868578E+03  0.00000000000E+00 0.  1.
          3    1    3    3  501    0 -0.26146746517E+02  0.23955856662E+03 -0.49234432511E+02  0.24595932293E+03  0.00000000000E+00 0.  1.
         21    1    1    2  502  501 -0.34306011949E+02 -0.32018986368E+02  0.22505232018E+02  0.52044244754E+02  0.00000000000E+00 0.  1.
<scales pt_clust_4="550.00000" pt_clust_5="550.00000" pt_clust_6="46.92673"></scales>
<mgrwt>
<rscale>  0 0.30000000E+03</rscale>
<asrwt>  1 0.46926730E+02</asrwt>
<pdfrwt beam="1">  1        1 0.87037183E+00 0.30000000E+03</pdfrwt>
<pdfrwt beam="2">0</pdfrwt>
<totfact> 0.23799074E-04</totfact>
</mgrwt>
<clustering>
<clus scale="   46.927">  1  6  2 -1</clus>
<clus scale="  456.229">  4  5 -1 -1</clus>
<clus scale="  300.000">  1  4  2 -1</clus>
</clustering>
</event>
<event>
 6    1  0.1007353E-011  0.3000000E+03  0.7818608E-02  0.1093470E+00
          1   -1    0    0  502    0  0.00000000000E+00  0.00000000000E+00  0.23552855309E+03  0.23552855309E+03  0.00000000000E+00 0.  1.
         13   -1    0    0    0    0 -0.00000000000E+00 -0.00000000000E+00 -0.27500000000E+03  0.27500000000E+03  0.00000000000E+00 0.  1.
    9000005    2    1    2  501    0  0.14272141052E+02 -0.29435448594E+02 -0.36904114937E+02  0.47771497606E+03  0.47516265111E+03 0.  0.
         13    1    3    3    0    0 -0.17296969631E+03 -0.16773997082E+03 -0.43487542789E+02  0.24483949850E+03  0.00000000000E+00 0.  1.
          3    1    3    3  501    0  0.18724183736E+03  0.13830452222E+03  0.65834278513E+01  0.23287547756E+03  0.00000000000E+00 0.  1.
         21    1    1    2  502  501 -0.14272141052E+02  0.29435448594E+02 -0.25673319712E+01  0.32813577031E+02  0.00000000000E+00 0. -1.
<scales pt_clust_4="550.00000" pt_clust_5="550.00000" pt_clust_6="32.71301"></scales>
<mgrwt>
<rscale>  0 0.30000000E+03</rscale>
<asrwt>  1 0.32713005E+02</asrwt>
<pdfrwt beam="1">  1        1 0.85646747E+00 0.30000000E+03</pdfrwt>
<pdfrwt beam="2">0</pdfrwt>
<totfact> 0.35667302E-04</totfact>
</mgrwt>
<clustering>
<clus scale="   32.713">  1  6  2 -1</clus>
<clus scale="  475.163">  4  5 -1 -1</clus>
<clus scale="  300.000">  1  4  2 -1</clus>
</clustering>
</event>
<event>
 6    1  0.1007353E-011  0.3000000E+03  0.7818608E-02  0.1093470E+00
          1   -1    0    0  502    0  0.00000000000E+00  0.00000000000E+00  0.24705489146E+03  0.24705489146E+03  0.00000000000E+00 0.  1.
         13   -1    0    0    0    0 -0.00000000000E+00 -0.00000000000E+00 -0.27500000000E+03  0.27500000000E+03  0.00000000000E+00 0.  1.
    9000005    2    1    2  501    0  0.71061454888E+01  0.30826542054E+02 -0.47442221465E+02  0.48489428852E+03  0.48152978481E+03 0.  0.
         13    1    3    3    0    0 -0.89275637758E+02  0.22378046622E+03 -0.10322189436E+03  0.26211180064E+03  0.00000000000E+00 0.  1.
          3    1    3    3  501    0  0.96381783247E+02 -0.19295392417E+03  0.55779672900E+02  0.22278248787E+03  0.00000000000E+00 0.  1.
         21    1    1    2  502  501 -0.71061454888E+01 -0.30826542054E+02  0.19497112930E+02  0.37160602946E+02  0.00000000000E+00 0. -1.
<scales pt_clust_4="550.00000" pt_clust_5="550.00000" pt_clust_6="31.63500"></scales>
<mgrwt>
<rscale>  0 0.30000000E+03</rscale>
<asrwt>  1 0.31634996E+02</asrwt>
<pdfrwt beam="1">  1        1 0.89838142E+00 0.30000000E+03</pdfrwt>
<pdfrwt beam="2">0</pdfrwt>
<totfact> 0.11773634E-04</totfact>
</mgrwt>
<clustering>
<clus scale="   31.635">  1  6  2 -1</clus>
<clus scale="  481.530">  4  5 -1 -1</clus>
<clus scale="  300.000">  1  4  2 -1</clus>
</clustering>
</event>
<event>
 6    1  0.1007353E-011  0.3000000E+03  0.7818608E-02  0.1093470E+00
          1   -1    0    0  502    0  0.00000000000E+00  0.00000000000E+00  0.23859556150E+03  0.23859556150E+03  0.00000000000E+00 0.  1.
         13   -1    0    0    0    0 -0.00000000000E+00 -0.00000000000E+00 -0.27500000000E+03  0.27500000000E+03  0.00000000000E+00 0.  1.
    9000005    2    1    2  501    0 -0.63912800813E+01 -0.44888045125E+02 -0.55871003378E+02  0.46425255587E+03  0.45864265126E+03 0.  0.
         13    1    3    3    0    0 -0.15466151540E+03  0.27078433318E+02  0.13853022191E+03  0.20938970433E+03  0.00000000000E+00 0.  1.
          1    1    3    3  501    0  0.14827023532E+03 -0.71966478443E+02 -0.19440122529E+03  0.25486285154E+03  0.00000000000E+00 0.  1.
         21    1    1    2  502  501  0.63912800813E+01  0.44888045125E+02  0.19466564876E+02  0.49343005626E+02  0.00000000000E+00 0.  1.
<scales pt_clust_4="550.00000" pt_clust_5="550.00000" pt_clust_6="45.34077"></scales>
<mgrwt>
<rscale>  0 0.30000000E+03</rscale>
<asrwt>  1 0.45340766E+02</asrwt>
<pdfrwt beam="1">  1        1 0.86762022E+00 0.30000000E+03</pdfrwt>
<pdfrwt beam="2">0</pdfrwt>
<totfact> 0.25560131E-04</totfact>
</mgrwt>
<clustering>
<clus scale="   45.341">  1  6  2 -1</clus>
<clus scale="  458.643">  4  5 -1 -1</clus>
<clus scale="  300.000">  1  4  2 -1</clus>
</clustering>
</event>
<event>
 6    1  0.1007353E-011  0.3000000E+03  0.7818608E-02  0.1093470E+00
          1   -1    0    0  502    0  0.00000000000E+00  0.00000000000E+00  0.22509529163E+03  0.22509529163E+03  0.00000000000E+00 0.  1.
         13   -1    0    0    0    0 -0.00000000000E+00 -0.00000000000E+00 -0.27500000000E+03  0.27500000000E+03  0.00000000000E+00 0.  1.
    9000005    2    1    2  501    0  0.36319218391E+01 -0.34352971080E+02 -0.59577472642E+02  0.46422218406E+03  0.45908544243E+03 0.  0.
         13    1    3    3    0    0  0.21989217972E+03 -0.36454013347E+02  0.39450715457E+02  0.22635773620E+03  0.00000000000E+00 0.  1.
          3    1    3    3  501    0 -0.21626025788E+03  0.21010422676E+01 -0.99028188099E+02  0.23786444786E+03  0.00000000000E+00 0.  1.
         21    1    1    2  502  501 -0.36319218391E+01  0.34352971080E+02  0.96727642735E+01  0.35873107573E+02  0.00000000000E+00 0.  1.
<scales pt_clust_4="550.00000" pt_clust_5="550.00000" pt_clust_6="34.54443"></scales>
<mgrwt>
<rscale>  0 0.30000000E+03</rscale>
<asrwt>  1 0.34544428E+02</asrwt>
<pdfrwt beam="1">  1        1 0.81852833E+00 0.30000000E+03</pdfrwt>
<pdfrwt beam="2">0</pdfrwt>
<totfact> 0.74639869E-04</totfact>
</mgrwt>
<clustering>
<clus scale="   34.544">  1  6  2 -1</clus>
<clus scale="  459.085">  4  5 -1 -1</clus>
<clus scale="  300.000">  1  4  2 -1</clus>
</clustering>
</event>
<event>
 6    1  0.1007353E-011  0.3000000E+03  0.7818608E-02  0.1093470E+00
          1   -1    0    0  502    0  0.00000000000E+00  0.00000000000E+00  0.24921199579E+03  0.24921199579E+03  0.00000000000E+00 0.  1.
         13   -1    0    0    0    0 -0.00000000000E+00 -0.00000000000E+00 -0.27500000000E+03  0.27500000000E+03  0.00000000000E+00 0.  1.
    9000005    2    1    2  501    0 -0.29217285799E+02 -0.28037526455E+02 -0.21182032149E+02  0.48345702483E+03  0.48129228509E+03 0.  0.
         13    1    3    3    0    0  0.80632582557E+02  0.20217378365E+02  0.20842528570E+03  0.22439129991E+03  0.00000000000E+00 0.  1.
          3    1    3    3  501    0 -0.10984986836E+03 -0.48254904820E+02 -0.22960731785E+03  0.25906572492E+03  0.00000000000E+00 0.  1.
         21    1    1    2  502  501  0.29217285799E+02  0.28037526455E+02 -0.46059720640E+01  0.40754970958E+02  0.00000000000E+00 0.  1.
<scales pt_clust_4="550.00000" pt_clust_5="550.00000" pt_clust_6="40.49388"></scales>
<mgrwt>
<rscale>  0 0.30000000E+03</rscale>
<asrwt>  1 0.40493880E+02</asrwt>
<pdfrwt beam="1">  1        1 0.90622544E+00 0.30000000E+03</pdfrwt>
<pdfrwt beam="2">0</pdfrwt>
<totfact> 0.85137202E-05</totfact>
</mgrwt>
<clustering>
<clus scale="   40.494">  1  6  2 -1</clus>
<clus scale="  481.292">  4  5 -1 -1</clus>
<clus scale="  300.000">  1  4  2 -1</clus>
</clustering>
</event>
<event>
 6    1  0.1007353E-011  0.3000000E+03  0.7818608E-02  0.1093470E+00
          1   -1    0    0  502    0  0.00000000000E+00  0.00000000000E+00  0.23211174155E+03  0.23211174155E+03  0.00000000000E+00 0.  1.
         13   -1    0    0    0    0 -0.00000000000E+00 -0.00000000000E+00 -0.27500000000E+03  0.27500000000E+03  0.00000000000E+00 0.  1.
    9000005    2    1    2  501    0 -0.24162563867E+02  0.28914601324E+02 -0.38966380332E+02  0.46922685287E+03  0.46608537522E+03 0.  0.
         13    1    3    3    0    0  0.19333443796E+03 -0.96882343236E+01 -0.12690831905E+03  0.23146876297E+03  0.00000000000E+00 0.  1.
          1    1    3    3  501    0 -0.21749700183E+03  0.38602835648E+02  0.87941938723E+02  0.23775808989E+03  0.00000000000E+00 0.  1.
         21    1    1    2  502  501  0.24162563867E+02 -0.28914601324E+02 -0.39218781211E+01  0.37884888681E+02  0.00000000000E+00 0.  1.
<scales pt_clust_4="550.00000" pt_clust_5="550.00000" pt_clust_6="37.68136"></scales>
<mgrwt>
<rscale>  0 0.30000000E+03</rscale>
<asrwt>  1 0.37681363E+02</asrwt>
<pdfrwt beam="1">  1        1 0.84404270E+00 0.30000000E+03</pdfrwt>
<pdfrwt beam="2">0</pdfrwt>
<totfact> 0.45426449E-04</totfact>
</mgrwt>
<clustering>
<clus scale="   37.681">  1  6  2 -1</clus>
<clus scale="  466.085">  4  5 -1 -1</clus>
<clus scale="  300.000">  1  4  2 -1</clus>
</clustering>
</event>
<event>
 6    1  0.1007353E-011  0.3000000E+03  0.7818608E-02  0.1093470E+00
          1   -1    0    0  502    0  0.00000000000E+00  0.00000000000E+00  0.24603502067E+03  0.24603502067E+03  0.00000000000E+00 0.  1.
         13   -1    0    0    0    0 -0.00000000000E+00 -0.00000000000E+00 -0.27500000000E+03  0.27500000000E+03  0.00000000000E+00 0.  1.
    9000005    2    1    2  501    0 -0.14171623561E+02  0.27035956475E+02 -0.67450427360E+02  0.47191366516E+03  0.46606991896E+03 0.  0.
         13    1    3    3    0    0 -0.61029987850E+02 -0.21235977158E+03 -0.54787486872E+02  0.22764665761E+03  0.00000000000E+00 0.  1.
          3    1    3    3  501    0  0.46858364289E+02  0.23939572806E+03 -0.12662940488E+02  0.24426700755E+03  0.00000000000E+00 0.  1.
         21    1    1    2  502  501  0.14171623561E+02 -0.27035956475E+02  0.38485448032E+02  0.49121355510E+02  0.00000000000E+00 0.  1.
<scales pt_clust_4="550.00000" pt_clust_5="550.00000" pt_clust_6="30.52504"></scales>
<mgrwt>
<rscale>  0 0.30000000E+03</rscale>
<asrwt>  1 0.30525037E+02</asrwt>
<pdfrwt beam="1">  1        1 0.89467280E+00 0.30000000E+03</pdfrwt>
<pdfrwt beam="2">0</pdfrwt>
<totfact> 0.13050409E-04</totfact>
</mgrwt>
<clustering>
<clus scale="   30.525">  1  6  2 -1</clus>
<clus scale="  466.070">  4  5 -1 -1</clus>
<clus scale="  300.000">  1  4  2 -1</clus>
</clustering>
</event>
<event>
 6    1  0.1007353E-011  0.3000000E+03  0.7818608E-02  0.1093470E+00
          1   -1    0    0  502    0  0.00000000000E+00  0.00000000000E+00  0.24133567387E+03  0.24133567387E+03  0.00000000000E+00 0.  1.
         13   -1    0    0    0    0 -0.00000000000E+00 -0.00000000000E+00 -0.27500000000E+03  0.27500000000E+03  0.00000000000E+00 0.  1.
    9000005    2    1    2  501    0  0.32572528731E+02 -0.51854467426E+01 -0.44785365762E+02  0.48152854804E+03  0.47830550395E+03 0.  0.
         13    1    3    3    0    0  0.19707955457E+03 -0.77618488545E+02 -0.16223996514E+03  0.26680852101E+03  0.00000000000E+00 0.  1.
          3    1    3    3  501    0 -0.16450702584E+03  0.72433041802E+02  0.11745459938E+03  0.21472002704E+03  0.00000000000E+00 0.  1.
         21    1    1    2  502  501 -0.32572528731E+02  0.51854467426E+01  0.11121039633E+02  0.34807125827E+02  0.00000000000E+00 0. -1.
<scales pt_clust_4="550.00000" pt_clust_5="550.00000" pt_clust_6="32.98270"></scales>
<mgrwt>
<rscale>  0 0.30000000E+03</rscale>
<asrwt>  1 0.32982700E+02</asrwt>
<pdfrwt beam="1">  1        1 0.87758427E+00 0.30000000E+03</pdfrwt>
<pdfrwt beam="2">0</pdfrwt>
<totfact> 0.21315443E-04</totfact>
</mgrwt>
<clustering>
<clus scale="   32.983">  1  6  2 -1</clus>
<clus scale="  478.306">  4  5 -1 -1</clus>
<clus scale="  300.000">  1  4  2 -1</clus>
</clustering>
</event>
<event>
 6    1  0.1007353E-011  0.3000000E+03  0.7818608E-02  0.1093470E+00
          1   -1    0    0  502    0  0.00000000000E+00  0.00000000000E+00  0.26355854890E+03  0.26355854890E+03  0.00000000000E+00 0.  1.
         13   -1    0    0    0    0 -0.00000000000E+00 -0.00000000000E+00 -0.27500000000E+03  0.27500000000E+03  0.00000000000E+00 0.  1.
    9000005    2    1    2  501    0 -0.13417450147E+02 -0.38480746153E+02 -0.33834964362E+02  0.49205838515E+03  0.48919919643E+03 0.  0.
         13    1    3    3    0    0 -0.82691187512E+01  0.20649305238E+03  0.80352220364E+02  0.22173010243E+03  0.00000000000E+00 0.  1.
          1    1    3    3  501    0 -0.51483313961E+01 -0.24497379853E+03 -0.11418718473E+03  0.27032828272E+03  0.00000000000E+00 0.  1.
         21    1    1    2  502  501  0.13417450147E+02  0.38480746153E+02  0.22393513262E+02  0.46500163754E+02  0.00000000000E+00 0. -1.
<scales pt_clust_4="550.00000" pt_clust_5="550.00000" pt_clust_6="40.75286"></scales>
<mgrwt>
<rscale>  0 0.30000000E+03</rscale>
<asrwt>  1 0.40752862E+02</asrwt>
<pdfrwt beam="1">  1        1 0.95839472E+00 0.30000000E+03</pdfrwt>
<pdfrwt beam="2">0</pdfrwt>
<totfact> 0.79861765E-06</totfact>
</mgrwt>
<clustering>
<clus scale="   40.753">  1  6  2 -1</clus>
<clus scale="  489.199">  4  5 -1 -1</clus>
<clus scale="  300.000">  1  4  2 -1</clus>
</clustering>
</event>
<event>
 6    1  0.1007353E-011  0.3000000E+03  0.7818608E-02  0.1093470E+00
          1   -1    0    0  502    0  0.00000000000E+00  0.00000000000E+00  0.25210006329E+03  0.25210006329E+03  0.00000000000E+00 0.  1.
         13   -1    0    0    0    0 -0.00000000000E+00 -0.00000000000E+00 -0.27500000000E+03  0.27500000000E+03  0.00000000000E+00 0.  1.
    9000005    2    1    2  501    0 -0.13157508638E+02  0.31338573222E+02 -0.54943507839E+02  0.48038800215E+03  0.47602375713E+03 0.  0.
         13    1    3    3    0    0 -0.19731924890E+03 -0.10286596601E+03  0.52229142206E+02  0.22856984982E+03  0.00000000000E+00 0.  1.
          3    1    3    3  501    0  0.18416174027E+03  0.13420453923E+03 -0.10717265004E+03  0.25181815233E+03  0.00000000000E+00 0.  1.
         21    1    1    2  502  501  0.13157508638E+02 -0.31338573222E+02  0.32043571131E+02  0.46712061140E+02  0.00000000000E+00 0. -1.
<scales pt_clust_4="550.00000" pt_clust_5="550.00000" pt_clust_6="33.98862"></scales>
<mgrwt>
<rscale>  0 0.30000000E+03</rscale>
<asrwt>  1 0.33988619E+02</asrwt>
<pdfrwt beam="1">  1        1 0.91672750E+00 0.30000000E+03</pdfrwt>
<pdfrwt beam="2">0</pdfrwt>
<totfact> 0.49688800E-05</totfact>
</mgrwt>
<clustering>
<clus scale="   33.989">  1  6  2 -1</clus>
<clus scale="  476.024">  4  5 -1 -1</clus>
<clus scale="  300.000">  1  4  2 -1</clus>
</clustering>
</event>
<event>
 6    1  0.1007353E-011  0.3000000E+03  0.7818608E-02  0.1093470E+00
          1   -1    0    0  502    0  0.00000000000E+00  0.00000000000E+00  0.24078418125E+03  0.24078418125E+03  0.00000000000E+00 0.  1.
         13   -1    0    0    0    0 -0.00000000000E+00 -0.00000000000E+00 -0.27500000000E+03  0.27500000000E+03  0.00000000000E+00 0.  1.
    9000005    2    1    2  501    0 -0.20056043983E+02  0.26726062120E+02 -0.41650918599E+02  0.48155249992E+03  0.47858278684E+03 0.  0.
         13    1    3    3    0    0  0.16322016678E+03 -0.11626240320E+03  0.84026496410E+02  0.21729754104E+03  0.00000000000E+00 0.  1.
          1    1    3    3  501    0 -0.18327621077E+03  0.14298846532E+03 -0.12567741501E+03  0.26425495888E+03  0.00000000000E+00 0.  1.
         21    1    1    2  502  501  0.20056043983E+02 -0.26726062120E+02  0.74350998470E+01  0.34231681327E+02  0.00000000000E+00 0.  1.
<scales pt_clust_4="550.00000" pt_clust_5="550.00000" pt_clust_6="33.41448"></scales>
<mgrwt>
<rscale>  0 0.30000000E+03</rscale>
<asrwt>  1 0.33414477E+02</asrwt>
<pdfrwt beam="1">  1        1 0.87557884E+00 0.30000000E+03</pdfrwt>
<pdfrwt beam="2">0</pdfrwt>
<totfact> 0.22369890E-04</totfact>
</mgrwt>
<clustering>
<clus scale="   33.414">  1  6  2 -1</clus>
<clus scale="  478.583">  4  5 -1 -1</clus>
<clus scale="  300.000">  1  4  2 -1</clus>
</clustering>
</event>
<event>
 6    1  0.1007353E-011  0.3000000E+03  0.7818608E-02  0.1093470E+00
          1   -1    0    0  502    0  0.00000000000E+00  0.00000000000E+00  0.23522515979E+03  0.23522515979E+03  0.00000000000E+00 0.  1.
         13   -1    0    0    0    0 -0.00000000000E+00 -0.00000000000E+00 -0.27500000000E+03  0.27500000000E+03  0.00000000000E+00 0.  1.
    9000005    2    1    2  501    0  0.21664260681E+02  0.21535573661E+02 -0.67837611560E+02  0.46874455879E+03  0.46280276439E+03 0.  0.
         13    1    3    3    0    0  0.13102553704E+03  0.59207167755E+02 -0.22898429719E+03  0.27038304020E+03  0.00000000000E+00 0.  1.
          1    1    3    3  501    0 -0.10936127636E+03 -0.37671594094E+02  0.16114668563E+03  0.19836151859E+03  0.00000000000E+00 0.  1.
         21    1    1    2  502  501 -0.21664260681E+02 -0.21535573661E+02  0.28062771351E+02  0.41480601004E+02  0.00000000000E+00 0. -1.
<scales pt_clust_4="550.00000" pt_clust_5="550.00000" pt_clust_6="30.54703"></scales>
<mgrwt>
<rscale>  0 0.30000000E+03</rscale>
<asrwt>  1 0.30547031E+02</asrwt>
<pdfrwt beam="1">  1        1 0.85536422E+00 0.30000000E+03</pdfrwt>
<pdfrwt beam="2">0</pdfrwt>
<totfact> 0.37074416E-04</totfact>
</mgrwt>
<clustering>
<clus scale="   30.547">  1  6  2 -1</clus>
<clus scale="  462.803">  4  5 -1 -1</clus>
<clus scale="  300.000">  1  4  2 -1</clus>
</clustering>
</event>
<event>
 6    1  0.1007353E-011  0.3000000E+03  0.7818608E-02  0.1093470E+00
          1   -1    0    0  502    0  0.00000000000E+00  0.00000000000E+00  0.23189306787E+03  0.23189306787E+03  0.00000000000E+00 0.  1.
         13   -1    0    0    0    0 -0.00000000000E+00 -0.00000000000E+00 -0.27500000000E+03  0.27500000000E+03  0.00000000000E+00 0.  1.
    9000005    2    1    2  501    0  0.13985536219E+02  0.34048665059E+02 -0.57781685793E+02  0.46726662202E+03  0.46221690366E+03 0.  0.
         13    1    3    3    0    0 -0.91122913851E+02 -0.96978775014E+02 -0.20466859272E+03  0.24412599427E+03  0.00000000000E+00 0.  1.
          1    1    3    3  501    0  0.10510845007E+03  0.13102744007E+03  0.14688690693E+03  0.22314062775E+03  0.00000000000E+00 0.  1.
         21    1    1    2  502  501 -0.13985536219E+02 -0.34048665059E+02  0.14674753666E+02  0.39626445851E+02  0.00000000000E+00 0.  1.
<scales pt_clust_4="550.00000" pt_clust_5="550.00000" pt_clust_6="36.80906"></scales>
<mgrwt>
<rscale>  0 0.30000000E+03</rscale>
<asrwt>  1 0.36809059E+02</asrwt>
<pdfrwt beam="1">  1        1 0.84324752E+00 0.30000000E+03</pdfrwt>
<pdfrwt beam="2">0</pdfrwt>
<totfact> 0.46341837E-04</totfact>
</mgrwt>
<clustering>
<clus scale="   36.809">  1  6  2 -1</clus>
<clus scale="  462.217">  4  5 -1 -1</clus>
<clus scale="  300.000">  1  4  2 -1</clus>
</clustering>
</event>
<event>
 6    1  0.1007353E-011  0.3000000E+03  0.7818608E-02  0.1093470E+00
          1   -1    0    0  502    0  0.00000000000E+00  0.00000000000E+00  0.24232145902E+03  0.24232145902E+03  0.00000000000E+00 0.  1.
         13   -1    0    0    0    0 -0.00000000000E+00 -0.00000000000E+00 -0.27500000000E+03  0.27500000000E+03  0.00000000000E+00 0.  1.
    9000005    2    1    2  501    0 -0.24815194853E+02  0.37700707588E+02 -0.56482436807E+02  0.46629438087E+03  0.46065501920E+03 0.  0.
         13    1    3    3    0    0  0.15947411310E+03  0.13686350906E+03 -0.12689576748E+03  0.24549164683E+03  0.00000000000E+00 0.  1.
          1    1    3    3  501    0 -0.18428930795E+03 -0.99162801467E+02  0.70413330674E+02  0.22080273403E+03  0.00000000000E+00 0.  1.
         21    1    1    2  502  501  0.24815194853E+02 -0.37700707588E+02  0.23803895828E+02  0.51027078153E+02  0.00000000000E+00 0.  1.
<scales pt_clust_4="550.00000" pt_clust_5="550.00000" pt_clust_6="45.13466"></scales>
<mgrwt>
<rscale>  0 0.30000000E+03</rscale>
<asrwt>  1 0.45134657E+02</asrwt>
<pdfrwt beam="1">  1        1 0.88116894E+00 0.30000000E+03</pdfrwt>
<pdfrwt beam="2">0</pdfrwt>
<totfact> 0.18216003E-04</totfact>
</mgrwt>
<clustering>
<clus scale="   45.135">  1  6  2 -1</clus>
<clus scale="  460.655">  4  5 -1 -1</clus>
<clus scale="  300.000">  1  4  2 -1</clus>
</clustering>
</event>
<event>
 6    1  0.1007353E-011  0.3000000E+03  0.7818608E-02  0.1093470E+00
          1   -1    0    0  502    0  0.00000000000E+00  0.00000000000E+00  0.24084711300E+03  0.24084711300E+03  0.00000000000E+00 0.  1.
         13   -1    0    0    0    0 -0.00000000000E+00 -0.00000000000E+00 -0.27500000000E+03  0.27500000000E+03  0.00000000000E+00 0.  1.
    9000005    2    1    2  501    0  0.39204158540E+02  0.25027801339E+02 -0.50178300366E+02  0.46665188193E+03  0.46160888227E+03 0.  0.
         13    1    3    3    0    0 -0.16868168754E+03 -0.36164600098E+02 -0.14949107903E+03  0.22827389847E+03  0.00000000000E+00 0.  1.
          3    1    3    3  501    0  0.20788584608E+03  0.61192401437E+02  0.99312778664E+02  0.23837798346E+03  0.00000000000E+00 0.  1.
         21    1    1    2  502  501 -0.39204158540E+02 -0.25027801339E+02  0.16025413368E+02  0.49195231073E+02  0.00000000000E+00 0.  1.
<scales pt_clust_4="550.00000" pt_clust_5="550.00000" pt_clust_6="46.51190"></scales>
<mgrwt>
<rscale>  0 0.30000000E+03</rscale>
<asrwt>  1 0.46511900E+02</asrwt>
<pdfrwt beam="1">  1        1 0.87580768E+00 0.30000000E+03</pdfrwt>
<pdfrwt beam="2">0</pdfrwt>
<totfact> 0.20937218E-04</totfact>
</mgrwt>
<clustering>
<clus scale="   46.512">  1  6  2 -1</clus>
<clus scale="  461.609">  4  5 -1 -1</clus>
<clus scale="  300.000">  1  4  2 -1</clus>
</clustering>
</event>
<event>
 6    1  0.1007353E-011  0.3000000E+03  0.7818608E-02  0.1093470E+00
          1   -1    0    0  502    0  0.00000000000E+00  0.00000000000E+00  0.23323446160E+03  0.23323446160E+03  0.00000000000E+00 0.  1.
         13   -1    0    0    0    0 -0.00000000000E+00 -0.00000000000E+00 -0.27500000000E+03  0.27500000000E+03  0.00000000000E+00 0.  1.
    9000005    2    1    2  501    0 -0.79156910967E+01 -0.33178286300E+02 -0.57484441604E+02  0.47067729497E+03  0.46590685563E+03 0.  0.
         13    1    3    3    0    0 -0.54282758188E+02 -0.15666025808E+03 -0.21095659389E+03  0.26831276302E+03  0.00000000000E+00 0.  1.
          1    1    3    3  501    0  0.46367067091E+02  0.12348197178E+03  0.15347215228E+03  0.20236453195E+03  0.00000000000E+00 0.  1.
         21    1    1    2  502  501  0.79156910967E+01  0.33178286300E+02  0.15718903204E+02  0.37557166630E+02  0.00000000000E+00 0. -1.
<scales pt_clust_4="550.00000" pt_clust_5="550.00000" pt_clust_6="34.10948"></scales>
<mgrwt>
<rscale>  0 0.30000000E+03</rscale>
<asrwt>  1 0.34109483E+02</asrwt>
<pdfrwt beam="1">  1        1 0.84812531E+00 0.30000000E+03</pdfrwt>
<pdfrwt beam="2">0</pdfrwt>
<totfact> 0.42566776E-04</totfact>
</mgrwt>
<clustering>
<clus scale="   34.109">  1  6  2 -1</clus>
<clus scale="  465.907">  4  5 -1 -1</clus>
<clus scale="  300.000">  1  4  2 -1</clus>
</clustering>
</event>
<event>
 6    1  0.1007353E-011  0.3000000E+03  0.7818608E-02  0.1093470E+00
          1   -1    0    0  502    0  0.00000000000E+00  0.00000000000E+00  0.22747483921E+03  0.22747483921E+03  0.00000000000E+00 0.  1.
         13   -1    0    0    0    0 -0.00000000000E+00 -0.00000000000E+00 -0.27500000000E+03  0.27500000000E+03  0.00000000000E+00 0.  1.
    9000005    2    1    2  501    0 -0.22274516117E+02  0.21965160795E+02 -0.33454306467E+02  0.46817307106E+03  0.46592725987E+03 0.  0.
         13    1    3    3    0    0 -0.16660228046E+03 -0.16147995015E+03  0.23408213833E+01  0.23202925160E+03  0.00000000000E+00 0.  1.
          1    1    3    3  501    0  0.14432776435E+03  0.18344511094E+03 -0.35795127850E+02  0.23614381946E+03  0.00000000000E+00 0.  1.
         21    1    1    2  502  501  0.22274516117E+02 -0.21965160795E+02 -0.14070854321E+02  0.34301768151E+02  0.00000000000E+00 0.  1.
<scales pt_clust_4="550.00000" pt_clust_5="550.00000" pt_clust_6="31.28296"></scales>
<mgrwt>
<rscale>  0 0.30000000E+03</rscale>
<asrwt>  1 0.31282956E+02</asrwt>
<pdfrwt beam="1">  1        1 0.82718123E+00 0.30000000E+03</pdfrwt>
<pdfrwt beam="2">0</pdfrwt>
<totfact> 0.63812892E-04</totfact>
</mgrwt>
<clustering>
<clus scale="   31.283">  1  6  2 -1</clus>
<clus scale="  465.927">  4  5 -1 -1</clus>
<clus scale="  300.000">  1  4  2 -1</clus>
</clustering>
</event>
<event>
 6    1  0.1007353E-011  0.3000000E+03  0.7818608E-02  0.1093470E+00
          1   -1    0    0  502    0  0.00000000000E+00  0.00000000000E+00  0.24068717915E+03  0.24068717915E+03  0.00000000000E+00 0.  1.
         13   -1    0    0    0    0 -0.00000000000E+00 -0.00000000000E+00 -0.27500000000E+03  0.27500000000E+03  0.00000000000E+00 0.  1.
    9000005    2    1    2  501    0  0.21928243429E+02  0.21944713151E+02 -0.64378169430E+02  0.47248598148E+03  0.46705035670E+03 0.  0.
         13    1    3    3    0    0 -0.11905041402E+03 -0.30316003510E+02  0.16041087552E+03  0.20204878157E+03  0.00000000000E+00 0.  1.
          3    1    3    3  501    0  0.14097865745E+03  0.52260716660E+02 -0.22478904495E+03  0.27043719991E+03  0.00000000000E+00 0.  1.
         21    1    1    2  502  501 -0.21928243429E+02 -0.21944713151E+02  0.30065348580E+02  0.43201197673E+02  0.00000000000E+00 0.  1.
<scales pt_clust_4="550.00000" pt_clust_5="550.00000" pt_clust_6="31.02287"></scales>
<mgrwt>
<rscale>  0 0.30000000E+03</rscale>
<asrwt>  1 0.31022867E+02</asrwt>
<pdfrwt beam="1">  1        1 0.87522611E+00 0.30000000E+03</pdfrwt>
<pdfrwt beam="2">0</pdfrwt>
<totfact> 0.22885142E-04</totfact>
</mgrwt>
<clustering>
<clus scale="   31.023">  1  6  2 -1</clus>
<clus scale="  467.050">  4  5 -1 -1</clus>
<clus scale="  300.000">  1  4  2 -1</clus>
</clustering>
</event>
<event>
 6    1  0.1007353E-011  0.3000000E+03  0.7818608E-02  0.1093470E+00
          1   -1    0    0  502    0  0.00000000000E+00  0.00000000000E+00  0.24357120882E+03  0.24357120882E+03  0.00000000000E+00 0.  1.
         13   -1    0    0    0    0 -0.00000000000E+00 -0.00000000000E+00 -0.27500000000E+03  0.27500000000E+03  0.00000000000E+00 0.  1.
    9000005    2    1    2  501    0  0.95514031536E+00 -0.36987744946E+02 -0.69525744205E+02  0.46546392684E+03  0.45875247413E+03 0.  0.
         13    1    3    3    0    0 -0.60028518136E+02 -0.16823657755E+03  0.12860491808E+03  0.22010496125E+03  0.00000000000E+00 0.  1.
          3    1    3    3  501    0  0.60983658452E+02  0.13124883260E+03 -0.19813066229E+03  0.24535896559E+03  0.00000000000E+00 0.  1.
         21    1    1    2  502  501 -0.95514031536E+00  0.36987744946E+02  0.38096953024E+02  0.53107281976E+02  0.00000000000E+00 0.  1.
<scales pt_clust_4="550.00000" pt_clust_5="550.00000" pt_clust_6="37.00008"></scales>
<mgrwt>
<rscale>  0 0.30000000E+03</rscale>
<asrwt>  1 0.37000075E+02</asrwt>
<pdfrwt beam="1">  1        1 0.88571349E+00 0.30000000E+03</pdfrwt>
<pdfrwt beam="2">0</pdfrwt>
<totfact> 0.16421283E-04</totfact>
</mgrwt>
<clustering>
<clus scale="   37.000">  1  6  2 -1</clus>
<clus scale="  458.752">  4  5 -1 -1</clus>
<clus scale="  300.000">  1  4  2 -1</clus>
</clustering>
</event>
<event>
 6    1  0.1007353E-011  0.3000000E+03  0.7818608E-02  0.1093470E+00
          1   -1    0    0  502    0  0.00000000000E+00  0.00000000000E+00  0.22749721831E+03  0.22749721831E+03  0.00000000000E+00 0.  1.
         13   -1    0    0    0    0 -0.00000000000E+00 -0.00000000000E+00 -0.27500000000E+03  0.27500000000E+03  0.00000000000E+00 0.  1.
    9000005    2    1    2  501    0 -0.30203508113E+01  0.37216927751E+02 -0.49983771956E+02  0.46507559965E+03  0.46087168898E+03 0.  0.
         13    1    3    3    0    0 -0.16401696277E+03 -0.25747386383E+02 -0.18289805251E+03  0.24701455340E+03  0.00000000000E+00 0.  1.
          1    1    3    3  501    0  0.16099661196E+03  0.62964314134E+02  0.13291428055E+03  0.21806104625E+03  0.00000000000E+00 0.  1.
         21    1    1    2  502  501  0.30203508113E+01 -0.37216927751E+02  0.24809902612E+01  0.37421618657E+02  0.00000000000E+00 0.  1.
<scales pt_clust_4="550.00000" pt_clust_5="550.00000" pt_clust_6="37.33929"></scales>
<mgrwt>
<rscale>  0 0.30000000E+03</rscale>
<asrwt>  1 0.37339285E+02</asrwt>
<pdfrwt beam="1">  1        1 0.82726261E+00 0.30000000E+03</pdfrwt>
<pdfrwt beam="2">0</pdfrwt>
<totfact> 0.61624621E-04</totfact>
</mgrwt>
<clustering>
<clus scale="   37.339">  1  6  2 -1</clus>
<clus scale="  460.872">  4  5 -1 -1</clus>
<clus scale="  300.000">  1  4  2 -1</clus>
</clustering>
</event>
<event>
 6    1  0.1007353E-011  0.3000000E+03  0.7818608E-02  0.1093470E+00
          1   -1    0    0  502    0  0.00000000000E+00  0.00000000000E+00  0.23198179827E+03  0.23198179827E+03  0.00000000000E+00 0.  1.
         13   -1    0    0    0    0 -0.00000000000E+00 -0.00000000000E+00 -0.27500000000E+03  0.27500000000E+03  0.00000000000E+00 0.  1.
    9000005    2    1    2  501    0 -0.14177317894E+02 -0.27980788205E+02 -0.61282004767E+02  0.47068458966E+03  0.46562278508E+03 0.  0.
         13    1    3    3    0    0 -0.12692867595E+03 -0.16450663547E+02 -0.23247134550E+03  0.26537603432E+03  0.00000000000E+00 0.  1.
          1    1    3    3  501    0  0.11275135806E+03 -0.11530124658E+02  0.17118934073E+03  0.20530855535E+03  0.00000000000E+00 0.  1.
         21    1    1    2  502  501  0.14177317894E+02  0.27980788205E+02  0.18263803039E+02  0.36297208608E+02  0.00000000000E+00 0.  1.
<scales pt_clust_4="550.00000" pt_clust_5="550.00000" pt_clust_6="31.36751"></scales>
<mgrwt>
<rscale>  0 0.30000000E+03</rscale>
<asrwt>  1 0.31367513E+02</asrwt>
<pdfrwt beam="1">  1        1 0.84357018E+00 0.30000000E+03</pdfrwt>
<pdfrwt beam="2">0</pdfrwt>
<totfact> 0.47456959E-04</totfact>
</mgrwt>
<clustering>
<clus scale="   31.368">  1  6  2 -1</clus>
<clus scale="  465.623">  4  5 -1 -1</clus>
<clus scale="  300.000">  1  4  2 -1</clus>
</clustering>
</event>
<event>
 6    1  0.1007353E-011  0.3000000E+03  0.7818608E-02  0.1093470E+00
          1   -1    0    0  502    0  0.00000000000E+00  0.00000000000E+00  0.23295763061E+03  0.23295763061E+03  0.00000000000E+00 0.  1.
         13   -1    0    0    0    0 -0.00000000000E+00 -0.00000000000E+00 -0.27500000000E+03  0.27500000000E+03  0.00000000000E+00 0.  1.
    9000005    2    1    2  501    0 -0.33935892521E+02 -0.20338430738E+02 -0.39839326997E+02  0.46833251279E+03  0.46495470101E+03 0.  0.
         13    1    3    3    0    0  0.20109874565E+03 -0.50856995196E+02  0.52502587921E+02  0.21397116909E+03  0.00000000000E+00 0.  1.
          1    1    3    3  501    0 -0.23503463817E+03  0.30518564458E+02 -0.92341914918E+02  0.25436134370E+03  0.00000000000E+00 0.  1.
         21    1    1    2  502  501  0.33935892521E+02  0.20338430738E+02 -0.22030423964E+01  0.39625117815E+02  0.00000000000E+00 0.  1.
<scales pt_clust_4="550.00000" pt_clust_5="550.00000" pt_clust_6="39.56383"></scales>
<mgrwt>
<rscale>  0 0.30000000E+03</rscale>
<asrwt>  1 0.39563829E+02</asrwt>
<pdfrwt beam="1">  1        1 0.84711866E+00 0.30000000E+03</pdfrwt>
<pdfrwt beam="2">0</pdfrwt>
<totfact> 0.42295089E-04</totfact>
</mgrwt>
<clustering>
<clus scale="   39.564">  1  6  2 -1</clus>
<clus scale="  464.955">  4  5 -1 -1</clus>
<clus scale="  300.000">  1  4  2 -1</clus>
</clustering>
</event>
<event>
 6    1  0.1007353E-011  0.3000000E+03  0.7818608E-02  0.1093470E+00
          1   -1    0    0  502    0  0.00000000000E+00  0.00000000000E+00  0.26162677081E+03  0.26162677081E+03  0.00000000000E+00 0.  1.
         13   -1    0    0    0    0 -0.00000000000E+00 -0.00000000000E+00 -0.27500000000E+03  0.27500000000E+03  0.00000000000E+00 0.  1.
    9000005    2    1    2  501    0 -0.28060659179E+02 -0.16738388451E+02 -0.66110986627E+02  0.47458770811E+03  0.46882326723E+03 0.  0.
         13    1    3    3    0    0 -0.32340711030E+02 -0.23518120940E+03  0.23259555139E+02  0.23853119241E+03  0.00000000000E+00 0.  1.
          1    1    3    3  501    0  0.42800518511E+01  0.21844282095E+03 -0.89370541766E+02  0.23605651570E+03  0.00000000000E+00 0.  1.
         21    1    1    2  502  501  0.28060659179E+02  0.16738388451E+02  0.52737757434E+02  0.62039062700E+02  0.00000000000E+00 0.  1.
<scales pt_clust_4="550.00000" pt_clust_5="550.00000" pt_clust_6="32.67375"></scales>
<mgrwt>
<rscale>  0 0.30000000E+03</rscale>
<asrwt>  1 0.32673755E+02</asrwt>
<pdfrwt beam="1">  1        1 0.95137008E+00 0.30000000E+03</pdfrwt>
<pdfrwt beam="2">0</pdfrwt>
<totfact> 0.11710493E-05</totfact>
</mgrwt>
<clustering>
<clus scale="   32.674">  1  6  2 -1</clus>
<clus scale="  468.823">  4  5 -1 -1</clus>
<clus scale="  300.000">  1  4  2 -1</clus>
</clustering>
</event>
<event>
 6    1  0.1007353E-011  0.3000000E+03  0.7818608E-02  0.1093470E+00
          1   -1    0    0  502    0  0.00000000000E+00  0.00000000000E+00  0.23798376358E+03  0.23798376358E+03  0.00000000000E+00 0.  1.
         13   -1    0    0    0    0 -0.00000000000E+00 -0.00000000000E+00 -0.27500000000E+03  0.27500000000E+03  0.00000000000E+00 0.  1.
    9000005    2    1    2  501    0 -0.20100510123E+02  0.31808764120E+02 -0.40530473921E+02  0.47519252323E+03  0.47196333209E+03 0.  0.
         13    1    3    3    0    0  0.14034160797E+03 -0.93156057670E+02  0.12760561437E+03  0.21132205476E+03  0.00000000000E+00 0.  1.
          3    1    3    3  501    0 -0.16044211809E+03  0.12496482179E+03 -0.16813608830E+03  0.26387046847E+03  0.00000000000E+00 0.  1.
         21    1    1    2  502  501  0.20100510123E+02 -0.31808764120E+02  0.35142375018E+01  0.37791240351E+02  0.00000000000E+00 0.  1.
<scales pt_clust_4="550.00000" pt_clust_5="550.00000" pt_clust_6="37.62749"></scales>
<mgrwt>
<rscale>  0 0.30000000E+03</rscale>
<asrwt>  1 0.37627490E+02</asrwt>
<pdfrwt beam="1">  1        1 0.86539550E+00 0.30000000E+03</pdfrwt>
<pdfrwt beam="2">0</pdfrwt>
<totfact> 0.27913922E-04</totfact>
</mgrwt>
<clustering>
<clus scale="   37.627">  1  6  2 -1</clus>
<clus scale="  471.963">  4  5 -1 -1</clus>
<clus scale="  300.000">  1  4  2 -1</clus>
</clustering>
</event>
<event>
 6    1  0.1007353E-011  0.3000000E+03  0.7818608E-02  0.1093470E+00
          1   -1    0    0  502    0  0.00000000000E+00  0.00000000000E+00  0.25173263603E+03  0.25173263603E+03  0.00000000000E+00 0.  1.
         13   -1    0    0    0    0 -0.00000000000E+00 -0.00000000000E+00 -0.27500000000E+03  0.27500000000E+03  0.00000000000E+00 0.  1.
    9000005    2    1    2  501    0 -0.22621854710E+02 -0.22854845854E+02 -0.28291596582E+02  0.49418520598E+03  0.49232561490E+03 0.  0.
         13    1    3    3    0    0 -0.17292015646E+02  0.21831626692E+03 -0.10249855216E+03  0.24179941977E+03  0.00000000000E+00 0.  1.
          1    1    3    3  501    0 -0.53298390649E+01 -0.24117111278E+03  0.74206955581E+02  0.25238578621E+03  0.00000000000E+00 0.  1.
         21    1    1    2  502  501  0.22621854710E+02  0.22854845854E+02  0.50242326138E+01  0.32547430051E+02  0.00000000000E+00 0. -1.
<scales pt_clust_4="550.00000" pt_clust_5="550.00000" pt_clust_6="32.15731"></scales>
<mgrwt>
<rscale>  0 0.30000000E+03</rscale>
<asrwt>  1 0.32157305E+02</asrwt>
<pdfrwt beam="1">  1        1 0.91539140E+00 0.30000000E+03</pdfrwt>
<pdfrwt beam="2">0</pdfrwt>
<totfact> 0.53880616E-05</totfact>
</mgrwt>
<clustering>
<clus scale="   32.157">  1  6  2 -1</clus>
<clus scale="  492.326">  4  5 -1 -1</clus>
<clus scale="  300.000">  1  4  2 -1</clus>
</clustering>
</event>
<event>
 6    1  0.1007353E-011  0.3000000E+03  0.7818608E-02  0.1093470E+00
          1   -1    0    0  502    0  0.00000000000E+00  0.00000000000E+00  0.24577058239E+03  0.24577058239E+03  0.00000000000E+00 0.  1.
         13   -1    0    0    0    0 -0.00000000000E+00 -0.00000000000E+00 -0.27500000000E+03  0.27500000000E+03  0.00000000000E+00 0.  1.
    9000005    2    1    2  501    0  0.37008766170E+02 -0.11136802167E+02 -0.49720604104E+02  0.47702625865E+03  0.47285117725E+03 0.  0.
         13    1    3    3    0    0  0.83559081451E+02  0.10521082465E+03  0.17445935008E+03  0.22019877963E+03  0.00000000000E+00 0.  1.
          1    1    3    3  501    0 -0.46550315281E+02 -0.11634762682E+03 -0.22417995419E+03  0.25682747902E+03  0.00000000000E+00 0.  1.
         21    1    1    2  502  501 -0.37008766170E+02  0.11136802167E+02  0.20491186497E+02  0.43744323746E+02  0.00000000000E+00 0.  1.
<scales pt_clust_4="550.00000" pt_clust_5="550.00000" pt_clust_6="38.64812"></scales>
<mgrwt>
<rscale>  0 0.30000000E+03</rscale>
<asrwt>  1 0.38648119E+02</asrwt>
<pdfrwt beam="1">  1        1 0.89371121E+00 0.30000000E+03</pdfrwt>
<pdfrwt beam="2">0</pdfrwt>
<totfact> 0.12803833E-04</totfact>
</mgrwt>
<clustering>
<clus scale="   38.648">  1  6  2 -1</clus>
<clus scale="  472.851">  4  5 -1 -1</clus>
<clus scale="  300.000">  1  4  2 -1</clus>
</clustering>
</event>
<event>
 6    1  0.1007353E-011  0.3000000E+03  0.7818608E-02  0.1093470E+00
          1   -1    0    0  502    0  0.00000000000E+00  0.00000000000E+00  0.23037363772E+03  0.23037363772E+03  0.00000000000E+00 0.  1.
         13   -1    0    0    0    0 -0.00000000000E+00 -0.00000000000E+00 -0.27500000000E+03  0.27500000000E+03  0.00000000000E+00 0.  1.
    9000005    2    1    2  501    0 -0.29599855252E+02 -0.21433494490E+02 -0.55189272996E+02  0.46733259147E+03  0.46262117232E+03 0.  0.
         13    1    3    3    0    0  0.99059490789E+02 -0.15512458221E+03  0.11377622994E+03  0.21638264538E+03  0.00000000000E+00 0.  1.
          3    1    3    3  501    0 -0.12865934604E+03  0.13369108772E+03 -0.16896550294E+03  0.25094994609E+03  0.00000000000E+00 0.  1.
         21    1    1    2  502  501  0.29599855252E+02  0.21433494490E+02  0.10562910712E+02  0.38041046248E+02  0.00000000000E+00 0. -1.
<scales pt_clust_4="550.00000" pt_clust_5="550.00000" pt_clust_6="36.54512"></scales>
<mgrwt>
<rscale>  0 0.30000000E+03</rscale>
<asrwt>  1 0.36545124E+02</asrwt>
<pdfrwt beam="1">  1        1 0.83772232E+00 0.30000000E+03</pdfrwt>
<pdfrwt beam="2">0</pdfrwt>
<totfact> 0.51274282E-04</totfact>
</mgrwt>
<clustering>
<clus scale="   36.545">  1  6  2 -1</clus>
<clus scale="  462.621">  4  5 -1 -1</clus>
<clus scale="  300.000">  1  4  2 -1</clus>
</clustering>
</event>
<event>
 6    1  0.1007353E-011  0.3000000E+03  0.7818608E-02  0.1093470E+00
          1   -1    0    0  502    0  0.00000000000E+00  0.00000000000E+00  0.23484614746E+03  0.23484614746E+03  0.00000000000E+00 0.  1.
         13   -1    0    0    0    0 -0.00000000000E+00 -0.00000000000E+00 -0.27500000000E+03  0.27500000000E+03  0.00000000000E+00 0.  1.
    9000005    2    1    2  501    0 -0.33276278256E+02  0.21682845948E+02 -0.54447173214E+02  0.46763530147E+03  0.46275352404E+03 0.  0.
         13    1    3    3    0    0  0.57677638054E+02  0.17972299604E+03  0.11306754566E+03  0.22002576012E+03  0.00000000000E+00 0.  1.
          3    1    3    3  501    0 -0.90953916310E+02 -0.15804015009E+03 -0.16751471887E+03  0.24760954135E+03  0.00000000000E+00 0.  1.
         21    1    1    2  502  501  0.33276278256E+02 -0.21682845948E+02  0.14293320673E+02  0.42210845986E+02  0.00000000000E+00 0. -1.
<scales pt_clust_4="550.00000" pt_clust_5="550.00000" pt_clust_6="39.71721"></scales>
<mgrwt>
<rscale>  0 0.30000000E+03</rscale>
<asrwt>  1 0.39717207E+02</asrwt>
<pdfrwt beam="1">  1        1 0.85398599E+00 0.30000000E+03</pdfrwt>
<pdfrwt beam="2">0</pdfrwt>
<totfact> 0.36416680E-04</totfact>
</mgrwt>
<clustering>
<clus scale="   39.717">  1  6  2 -1</clus>
<clus scale="  462.754">  4  5 -1 -1</clus>
<clus scale="  300.000">  1  4  2 -1</clus>
</clustering>
</event>
<event>
 6    1  0.1007353E-011  0.3000000E+03  0.7818608E-02  0.1093470E+00
          1   -1    0    0  502    0  0.00000000000E+00  0.00000000000E+00  0.23575939358E+03  0.23575939358E+03  0.00000000000E+00 0.  1.
         13   -1    0    0    0    0 -0.00000000000E+00 -0.00000000000E+00 -0.27500000000E+03  0.27500000000E+03  0.00000000000E+00 0.  1.
    9000005    2    1    2  501    0  0.22819392430E+02 -0.35596586747E+02 -0.59502881871E+02  0.46387227952E+03  0.45809284768E+03 0.  0.
         13    1    3    3    0    0 -0.11067169821E+03  0.16714364694E+03 -0.89026144583E+02  0.21934192010E+03  0.00000000000E+00 0.  1.
          3    1    3    3  501    0  0.13349109064E+03 -0.20274023368E+03  0.29523262712E+02  0.24453035941E+03  0.00000000000E+00 0.  1.
         21    1    1    2  502  501 -0.22819392430E+02  0.35596586747E+02  0.20262275455E+02  0.46887114067E+02  0.00000000000E+00 0.  1.
<scales pt_clust_4="550.00000" pt_clust_5="550.00000" pt_clust_6="42.28288"></scales>
<mgrwt>
<rscale>  0 0.30000000E+03</rscale>
<asrwt>  1 0.42282877E+02</asrwt>
<pdfrwt beam="1">  1        1 0.85730689E+00 0.30000000E+03</pdfrwt>
<pdfrwt beam="2">0</pdfrwt>
<totfact> 0.33346145E-04</totfact>
</mgrwt>
<clustering>
<clus scale="   42.283">  1  6  2 -1</clus>
<clus scale="  458.093">  4  5 -1 -1</clus>
<clus scale="  300.000">  1  4  2 -1</clus>
</clustering>
</event>
<event>
 6    1  0.1007353E-011  0.3000000E+03  0.7818608E-02  0.1093470E+00
          1   -1    0    0  502    0  0.00000000000E+00  0.00000000000E+00  0.21990692728E+03  0.21990692728E+03  0.00000000000E+00 0.  1.
         13   -1    0    0    0    0 -0.00000000000E+00 -0.00000000000E+00 -0.27500000000E+03  0.27500000000E+03  0.00000000000E+00 0.  1.
    9000005    2    1    2  501    0 -0.21705256974E+02 -0.23271902638E+02 -0.42222294371E+02  0.46057972862E+03  0.45753498734E+03 0.  0.
         13    1    3    3    0    0  0.15786535783E+03 -0.11733582319E+03 -0.13405496835E+03  0.23803340342E+03  0.00000000000E+00 0.  1.
          3    1    3    3  501    0 -0.17957061481E+03  0.94063920548E+02  0.91832673976E+02  0.22254632520E+03  0.00000000000E+00 0.  1.
         21    1    1    2  502  501  0.21705256974E+02  0.23271902638E+02 -0.12870778345E+02  0.34327198661E+02  0.00000000000E+00 0.  1.
<scales pt_clust_4="550.00000" pt_clust_5="550.00000" pt_clust_6="31.82296"></scales>
<mgrwt>
<rscale>  0 0.30000000E+03</rscale>
<asrwt>  1 0.31822958E+02</asrwt>
<pdfrwt beam="1">  1        1 0.79966155E+00 0.30000000E+03</pdfrwt>
<pdfrwt beam="2">0</pdfrwt>
<totfact> 0.10617807E-03</totfact>
</mgrwt>
<clustering>
<clus scale="   31.823">  1  6  2 -1</clus>
<clus scale="  457.535">  4  5 -1 -1</clus>
<clus scale="  300.000">  1  4  2 -1</clus>
</clustering>
</event>
<event>
 6    1  0.1007353E-011  0.3000000E+03  0.7818608E-02  0.1093470E+00
          1   -1    0    0  502    0  0.00000000000E+00  0.00000000000E+00  0.23033913921E+03  0.23033913921E+03  0.00000000000E+00 0.  1.
         13   -1    0    0    0    0 -0.00000000000E+00 -0.00000000000E+00 -0.27500000000E+03  0.27500000000E+03  0.00000000000E+00 0.  1.
    9000005    2    1    2  501    0 -0.15545148341E+02  0.39707596205E+02 -0.35084280001E+02  0.46163495482E+03  0.45832039010E+03 0.  0.
         13    1    3    3    0    0  0.69129994666E+02  0.10445726539E+03 -0.21713403791E+03  0.25067402513E+03  0.00000000000E+00 0.  1.
          1    1    3    3  501    0 -0.84675143007E+02 -0.64749669182E+02  0.18204975791E+03  0.21096092969E+03  0.00000000000E+00 0.  1.
         21    1    1    2  502  501  0.15545148341E+02 -0.39707596205E+02 -0.95765807886E+01  0.43704184387E+02  0.00000000000E+00 0.  1.
<scales pt_clust_4="550.00000" pt_clust_5="550.00000" pt_clust_6="42.64208"></scales>
<mgrwt>
<rscale>  0 0.30000000E+03</rscale>
<asrwt>  1 0.42642076E+02</asrwt>
<pdfrwt beam="1">  1        1 0.83759687E+00 0.30000000E+03</pdfrwt>
<pdfrwt beam="2">0</pdfrwt>
<totfact> 0.49952706E-04</totfact>
</mgrwt>
<clustering>
<clus scale="   42.642">  1  6  2 -1</clus>
<clus scale="  458.320">  4  5 -1 -1</clus>
<clus scale="  300.000">  1  4  2 -1</clus>
</clustering>
</event>
<event>
 6    1  0.1007353E-011  0.3000000E+03  0.7818608E-02  0.1093470E+00
          1   -1    0    0  502    0  0.00000000000E+00  0.00000000000E+00  0.23673163500E+03  0.23673163500E+03  0.00000000000E+00 0.  1.
         13   -1    0    0    0    0 -0.00000000000E+00 -0.00000000000E+00 -0.27500000000E+03  0.27500000000E+03  0.00000000000E+00 0.  1.
    9000005    2    1    2  501    0 -0.29870059972E+02  0.75006670178E+01 -0.32579188570E+02  0.48041315456E+03  0.47831675180E+03 0.  0.
         13    1    3    3    0    0 -0.95817928928E+01  0.21587002872E+03 -0.12712032349E+03  0.25070152911E+03  0.00000000000E+00 0.  1.
          3    1    3    3  501    0 -0.20288267080E+02 -0.20836936170E+03  0.94541134919E+02  0.22971162545E+03  0.00000000000E+00 0.  1.
         21    1    1    2  502  501  0.29870059972E+02 -0.75006670178E+01 -0.56891764332E+01  0.31318480438E+02  0.00000000000E+00 0. -1.
<scales pt_clust_4="550.00000" pt_clust_5="550.00000" pt_clust_6="30.79743"></scales>
<mgrwt>
<rscale>  0 0.30000000E+03</rscale>
<asrwt>  1 0.30797426E+02</asrwt>
<pdfrwt beam="1">  1        1 0.86084231E+00 0.30000000E+03</pdfrwt>
<pdfrwt beam="2">0</pdfrwt>
<totfact> 0.32458163E-04</totfact>
</mgrwt>
<clustering>
<clus scale="   30.797">  1  6  2 -1</clus>
<clus scale="  478.317">  4  5 -1 -1</clus>
<clus scale="  300.000">  1  4  2 -1</clus>
</clustering>
</event>
<event>
 6    1  0.1007353E-011  0.3000000E+03  0.7818608E-02  0.1093470E+00
          1   -1    0    0  502    0  0.00000000000E+00  0.00000000000E+00  0.23367129234E+03  0.23367129234E+03  0.00000000000E+00 0.  1.
         13   -1    0    0    0    0 -0.00000000000E+00 -0.00000000000E+00 -0.27500000000E+03  0.27500000000E+03  0.00000000000E+00 0.  1.
    9000005    2    1    2  501    0  0.31357233815E+02 -0.20003836951E+02 -0.51419468507E+02  0.47013231130E+03  0.46582936659E+03 0.  0.
         13    1    3    3    0    0 -0.39809739799E+02  0.77770152697E+02 -0.23476575212E+03  0.25049544986E+03  0.00000000000E+00 0.  1.
          3    1    3    3  501    0  0.71166973614E+02 -0.97773989648E+02  0.18334628361E+03  0.21963686143E+03  0.00000000000E+00 0.  1.
         21    1    1    2  502  501 -0.31357233815E+02  0.20003836951E+02  0.10090760845E+02  0.38538981042E+02  0.00000000000E+00 0.  1.
<scales pt_clust_4="550.00000" pt_clust_5="550.00000" pt_clust_6="37.19448"></scales>
<mgrwt>
<rscale>  0 0.30000000E+03</rscale>
<asrwt>  1 0.37194484E+02</asrwt>
<pdfrwt beam="1">  1        1 0.84971379E+00 0.30000000E+03</pdfrwt>
<pdfrwt beam="2">0</pdfrwt>
<totfact> 0.40490047E-04</totfact>
</mgrwt>
<clustering>
<clus scale="   37.194">  1  6  2 -1</clus>
<clus scale="  465.829">  4  5 -1 -1</clus>
<clus scale="  300.000">  1  4  2 -1</clus>
</clustering>
</event>
<event>
 6    1  0.1007353E-011  0.3000000E+03  0.7818608E-02  0.1093470E+00
          1   -1    0    0  502    0  0.00000000000E+00  0.00000000000E+00  0.23224163434E+03  0.23224163434E+03  0.00000000000E+00 0.  1.
         13   -1    0    0    0    0 -0.00000000000E+00 -0.00000000000E+00 -0.27500000000E+03  0.27500000000E+03  0.00000000000E+00 0.  1.
    9000005    2    1    2  501    0 -0.21358078451E+02  0.33449485599E+02 -0.47105758636E+02  0.46731751347E+03  0.46324040227E+03 0.  0.
         13    1    3    3    0    0  0.85874638356E+02 -0.18710215753E+03  0.34746870278E+02  0.20877982627E+03  0.00000000000E+00 0.  1.
          1    1    3    3  501    0 -0.10723271681E+03  0.22055164313E+03 -0.81852628914E+02  0.25853768719E+03  0.00000000000E+00 0.  1.
         21    1    1    2  502  501  0.21358078451E+02 -0.33449485599E+02  0.43473929763E+01  0.39924120875E+02  0.00000000000E+00 0.  1.
<scales pt_clust_4="550.00000" pt_clust_5="550.00000" pt_clust_6="39.68672"></scales>
<mgrwt>
<rscale>  0 0.30000000E+03</rscale>
<asrwt>  1 0.39686718E+02</asrwt>
<pdfrwt beam="1">  1        1 0.84451503E+00 0.30000000E+03</pdfrwt>
<pdfrwt beam="2">0</pdfrwt>
<totfact> 0.44575746E-04</totfact>
</mgrwt>
<clustering>
<clus scale="   39.687">  1  6  2 -1</clus>
<clus scale="  463.240">  4  5 -1 -1</clus>
<clus scale="  300.000">  1  4  2 -1</clus>
</clustering>
</event>
<event>
 6    1  0.1007353E-011  0.3000000E+03  0.7818608E-02  0.1093470E+00
          1   -1    0    0  502    0  0.00000000000E+00  0.00000000000E+00  0.26929250219E+03  0.26929250219E+03  0.00000000000E+00 0.  1.
         13   -1    0    0    0    0 -0.00000000000E+00 -0.00000000000E+00 -0.27500000000E+03  0.27500000000E+03  0.00000000000E+00 0.  1.
    9000005    2    1    2  501    0 -0.26191725359E+02 -0.26035765292E+02 -0.25576685970E+02  0.50235621492E+03  0.50034361418E+03 0.  0.
         13    1    3    3    0    0 -0.20672108065E+03 -0.17186192567E+03 -0.27903972073E+02  0.27027533801E+03  0.00000000000E+00 0.  1.
          3    1    3    3  501    0  0.18052935529E+03  0.14582616037E+03  0.23272861023E+01  0.23208087692E+03  0.00000000000E+00 0.  1.
         21    1    1    2  502  501  0.26191725359E+02  0.26035765292E+02  0.19869188157E+02  0.41936287266E+02  0.00000000000E+00 0.  1.
<scales pt_clust_4="550.00000" pt_clust_5="550.00000" pt_clust_6="36.93058"></scales>
<mgrwt>
<rscale>  0 0.30000000E+03</rscale>
<asrwt>  1 0.36930577E+02</asrwt>
<pdfrwt beam="1">  1        1 0.97924546E+00 0.30000000E+03</pdfrwt>
<pdfrwt beam="2">0</pdfrwt>
<totfact> 0.30317911E-06</totfact>
</mgrwt>
<clustering>
<clus scale="   36.931">  1  6  2 -1</clus>
<clus scale="  500.344">  4  5 -1 -1</clus>
<clus scale="  300.000">  1  4  2 -1</clus>
</clustering>
</event>
<event>
 6    1  0.1007353E-011  0.3000000E+03  0.7818608E-02  0.1093470E+00
          1   -1    0    0  502    0  0.00000000000E+00  0.00000000000E+00  0.22327235891E+03  0.22327235891E+03  0.00000000000E+00 0.  1.
         13   -1    0    0    0    0 -0.00000000000E+00 -0.00000000000E+00 -0.27500000000E+03  0.27500000000E+03  0.00000000000E+00 0.  1.
    9000005    2    1    2  501    0 -0.41562643527E+01 -0.34087009773E+02 -0.49476644166E+02  0.46385919637E+03  0.45993283963E+03 0.  0.
         13    1    3    3    0    0  0.92601898825E+02  0.78311729123E+02  0.16396969779E+03  0.20394582707E+03  0.00000000000E+00 0.  1.
          1    1    3    3  501    0 -0.96758163178E+02 -0.11239873890E+03 -0.21344634196E+03  0.25991336930E+03  0.00000000000E+00 0.  1.
         21    1    1    2  502  501  0.41562643527E+01  0.34087009773E+02 -0.22509969247E+01  0.34413162537E+02  0.00000000000E+00 0.  1.
<scales pt_clust_4="550.00000" pt_clust_5="550.00000" pt_clust_6="34.33946"></scales>
<mgrwt>
<rscale>  0 0.30000000E+03</rscale>
<asrwt>  1 0.34339464E+02</asrwt>
<pdfrwt beam="1">  1        1 0.81189949E+00 0.30000000E+03</pdfrwt>
<pdfrwt beam="2">0</pdfrwt>
<totfact> 0.84574741E-04</totfact>
</mgrwt>
<clustering>
<clus scale="   34.339">  1  6  2 -1</clus>
<clus scale="  459.933">  4  5 -1 -1</clus>
<clus scale="  300.000">  1  4  2 -1</clus>
</clustering>
</event>
<event>
 6    1  0.1007353E-011  0.3000000E+03  0.7818608E-02  0.1093470E+00
          1   -1    0    0  502    0  0.00000000000E+00  0.00000000000E+00  0.23443697662E+03  0.23443697662E+03  0.00000000000E+00 0.  1.
         13   -1    0    0    0    0 -0.00000000000E+00 -0.00000000000E+00 -0.27500000000E+03  0.27500000000E+03  0.00000000000E+00 0.  1.
    9000005    2    1    2  501    0  0.25027571521E+02 -0.23798073136E+02 -0.70615449428E+02  0.46365623905E+03  0.45694402140E+03 0.  0.
         13    1    3    3    0    0  0.11419584784E+03 -0.21350050353E+03  0.10664799877E+01  0.24212454244E+03  0.00000000000E+00 0.  1.
          1    1    3    3  501    0 -0.89168276320E+02  0.18970243039E+03 -0.71681929416E+02  0.22153169661E+03  0.00000000000E+00 0.  1.
         21    1    1    2  502  501 -0.25027571521E+02  0.23798073136E+02  0.30052426048E+02  0.45780737571E+02  0.00000000000E+00 0. -1.
<scales pt_clust_4="550.00000" pt_clust_5="550.00000" pt_clust_6="34.53589"></scales>
<mgrwt>
<rscale>  0 0.30000000E+03</rscale>
<asrwt>  1 0.34535889E+02</asrwt>
<pdfrwt beam="1">  1        1 0.85249810E+00 0.30000000E+03</pdfrwt>
<pdfrwt beam="2">0</pdfrwt>
<totfact> 0.38629817E-04</totfact>
</mgrwt>
<clustering>
<clus scale="   34.536">  1  6  2 -1</clus>
<clus scale="  456.944">  4  5 -1 -1</clus>
<clus scale="  300.000">  1  4  2 -1</clus>
</clustering>
</event>
<event>
 6    1  0.1007353E-011  0.3000000E+03  0.7818608E-02  0.1093470E+00
          1   -1    0    0  502    0  0.00000000000E+00  0.00000000000E+00  0.23165672440E+03  0.23165672440E+03  0.00000000000E+00 0.  1.
         13   -1    0    0    0    0 -0.00000000000E+00 -0.00000000000E+00 -0.27500000000E+03  0.27500000000E+03  0.00000000000E+00 0.  1.
    9000005    2    1    2  501    0  0.17298360821E+02 -0.34988124566E+02 -0.51895466615E+02  0.46669997129E+03  0.46216049334E+03 0.  0.
         13    1    3    3    0    0 -0.49983914059E+02 -0.65574443871E+02  0.19354346451E+03  0.21037459925E+03  0.00000000000E+00 0.  1.
          3    1    3    3  501    0  0.67282274880E+02  0.30586319306E+02 -0.24543893113E+03  0.25632537204E+03  0.00000000000E+00 0.  1.
         21    1    1    2  502  501 -0.17298360821E+02  0.34988124566E+02  0.85521910128E+01  0.39956753107E+02  0.00000000000E+00 0.  1.
<scales pt_clust_4="550.00000" pt_clust_5="550.00000" pt_clust_6="39.03078"></scales>
<mgrwt>
<rscale>  0 0.30000000E+03</rscale>
<asrwt>  1 0.39030785E+02</asrwt>
<pdfrwt beam="1">  1        1 0.84238809E+00 0.30000000E+03</pdfrwt>
<pdfrwt beam="2">0</pdfrwt>
<totfact> 0.46612187E-04</totfact>
</mgrwt>
<clustering>
<clus scale="   39.031">  1  6  2 -1</clus>
<clus scale="  462.160">  4  5 -1 -1</clus>
<clus scale="  300.000">  1  4  2 -1</clus>
</clustering>
</event>
<event>
 6    1  0.1007353E-011  0.3000000E+03  0.7818608E-02  0.1093470E+00
          1   -1    0    0  502    0  0.00000000000E+00  0.00000000000E+00  0.22299314534E+03  0.22299314534E+03  0.00000000000E+00 0.  1.
         13   -1    0    0    0    0 -0.00000000000E+00 -0.00000000000E+00 -0.27500000000E+03  0.27500000000E+03  0.00000000000E+00 0.  1.
    9000005    2    1    2  501    0  0.55266209745E+01 -0.31461647762E+02 -0.51174579406E+02  0.46603893589E+03  0.46211802969E+03 0.  0.
         13    1    3    3    0    0  0.97038283574E+02 -0.47602513346E+02  0.18387392043E+03  0.21328864567E+03  0.00000000000E+00 0.  1.
          3    1    3    3  501    0 -0.91511662599E+02  0.16140865584E+02 -0.23504849984E+03  0.25275029022E+03  0.00000000000E+00 0.  1.
         21    1    1    2  502  501 -0.55266209745E+01  0.31461647762E+02 -0.83227525658E+00  0.31954209447E+02  0.00000000000E+00 0.  1.
<scales pt_clust_4="550.00000" pt_clust_5="550.00000" pt_clust_6="31.94337"></scales>
<mgrwt>
<rscale>  0 0.30000000E+03</rscale>
<asrwt>  1 0.31943369E+02</asrwt>
<pdfrwt beam="1">  1        1 0.81088416E+00 0.30000000E+03</pdfrwt>
<pdfrwt beam="2">0</pdfrwt>
<totfact> 0.87329771E-04</totfact>
</mgrwt>
<clustering>
<clus scale="   31.943">  1  6  2 -1</clus>
<clus scale="  462.118">  4  5 -1 -1</clus>
<clus scale="  300.000">  1  4  2 -1</clus>
</clustering>
</event>
<event>
 6    1  0.1007353E-011  0.3000000E+03  0.7818608E-02  0.1093470E+00
          1   -1    0    0  502    0  0.00000000000E+00  0.00000000000E+00  0.23430408512E+03  0.23430408512E+03  0.00000000000E+00 0.  1.
         13   -1    0    0    0    0 -0.00000000000E+00 -0.00000000000E+00 -0.27500000000E+03  0.27500000000E+03  0.00000000000E+00 0.  1.
    9000005    2    1    2  501    0  0.32244542263E+02  0.13252120901E+02 -0.43821094060E+02  0.47430271430E+03  0.47098561262E+03 0.  0.
         13    1    3    3    0    0  0.17657082573E+03  0.73206277919E+02 -0.18329925792E+03  0.26483019764E+03  0.00000000000E+00 0.  1.
          1    1    3    3  501    0 -0.14432628347E+03 -0.59954157019E+02  0.13947816386E+03  0.20947251667E+03  0.00000000000E+00 0.  1.
         21    1    1    2  502  501 -0.32244542263E+02 -0.13252120901E+02  0.31251791801E+01  0.35001370817E+02  0.00000000000E+00 0. -1.
<scales pt_clust_4="550.00000" pt_clust_5="550.00000" pt_clust_6="34.86157"></scales>
<mgrwt>
<rscale>  0 0.30000000E+03</rscale>
<asrwt>  1 0.34861572E+02</asrwt>
<pdfrwt beam="1">  1        1 0.85201485E+00 0.30000000E+03</pdfrwt>
<pdfrwt beam="2">0</pdfrwt>
<totfact> 0.38975876E-04</totfact>
</mgrwt>
<clustering>
<clus scale="   34.862">  1  6  2 -1</clus>
<clus scale="  470.986">  4  5 -1 -1</clus>
<clus scale="  300.000">  1  4  2 -1</clus>
</clustering>
</event>
<event>
 6    1  0.1007353E-011  0.3000000E+03  0.7818608E-02  0.1093470E+00
          1   -1    0    0  502    0  0.00000000000E+00  0.00000000000E+00  0.24851957184E+03  0.24851957184E+03  0.00000000000E+00 0.  1.
         13   -1    0    0    0    0 -0.00000000000E+00 -0.00000000000E+00 -0.27500000000E+03  0.27500000000E+03  0.00000000000E+00 0.  1.
    9000005    2    1    2  501    0  0.30321253090E+02  0.33691228014E+02 -0.57791204246E+02  0.46843017238E+03  0.46263649431E+03 0.  0.
         13    1    3    3    0    0  0.16218133039E+03  0.19179128680E+03 -0.74214638280E+02  0.26190550615E+03  0.00000000000E+00 0.  1.
          3    1    3    3  501    0 -0.13186007730E+03 -0.15810005879E+03  0.16423434034E+02  0.20652466622E+03  0.00000000000E+00 0.  1.
         21    1    1    2  502  501 -0.30321253090E+02 -0.33691228014E+02  0.31310776084E+02  0.55089399461E+02  0.00000000000E+00 0. -1.
<scales pt_clust_4="550.00000" pt_clust_5="550.00000" pt_clust_6="45.32634"></scales>
<mgrwt>
<rscale>  0 0.30000000E+03</rscale>
<asrwt>  1 0.45326342E+02</asrwt>
<pdfrwt beam="1">  1        1 0.90370753E+00 0.30000000E+03</pdfrwt>
<pdfrwt beam="2">0</pdfrwt>
<totfact> 0.93050599E-05</totfact>
</mgrwt>
<clustering>
<clus scale="   45.326">  1  6  2 -1</clus>
<clus scale="  462.636">  4  5 -1 -1</clus>
<clus scale="  300.000">  1  4  2 -1</clus>
</clustering>
</event>
<event>
 6    1  0.1007353E-011  0.3000000E+03  0.7818608E-02  0.1093470E+00
          1   -1    0    0  502    0  0.00000000000E+00  0.00000000000E+00  0.22945850535E+03  0.22945850535E+03  0.00000000000E+00 0.  1.
         13   -1    0    0    0    0 -0.00000000000E+00 -0.00000000000E+00 -0.27500000000E+03  0.27500000000E+03  0.00000000000E+00 0.  1.
    9000005    2    1    2  501    0 -0.28805229678E+02  0.15195055377E+02 -0.25046084336E+02  0.46597873393E+03  0.46416402614E+03 0.  0.
         13    1    3    3    0    0 -0.15991196577E+03  0.12627316227E+03 -0.15042276030E+03  0.25326617446E+03  0.00000000000E+00 0.  1.
          3    1    3    3  501    0  0.13110673610E+03 -0.11107810689E+03  0.12537667596E+03  0.21271255947E+03  0.00000000000E+00 0.  1.
         21    1    1    2  502  501  0.28805229678E+02 -0.15195055377E+02 -0.20495410316E+02  0.38479771422E+02  0.00000000000E+00 0.  1.
<scales pt_clust_4="550.00000" pt_clust_5="550.00000" pt_clust_6="32.56735"></scales>
<mgrwt>
<rscale>  0 0.30000000E+03</rscale>
<asrwt>  1 0.32567346E+02</asrwt>
<pdfrwt beam="1">  1        1 0.83439456E+00 0.30000000E+03</pdfrwt>
<pdfrwt beam="2">0</pdfrwt>
<totfact> 0.55400544E-04</totfact>
</mgrwt>
<clustering>
<clus scale="   32.567">  1  6  2 -1</clus>
<clus scale="  464.164">  4  5 -1 -1</clus>
<clus scale="  300.000">  1  4  2 -1</clus>
</clustering>
</event>
<event>
 6    1  0.1007353E-011  0.3000000E+03  0.7818608E-02  0.1093470E+00
          1   -1    0    0  502    0  0.00000000000E+00  0.00000000000E+00  0.22958658210E+03  0.22958658210E+03  0.00000000000E+00 0.  1.
         13   -1    0    0    0    0 -0.00000000000E+00 -0.00000000000E+00 -0.27500000000E+03  0.27500000000E+03  0.00000000000E+00 0.  1.
    9000005    2    1    2  501    0 -0.31782557545E+02  0.31131669328E+01 -0.71122405011E+02  0.46358932865E+03  0.45698670262E+03 0.  0.
         13    1    3    3    0    0  0.18124550572E+03  0.11723901960E+03 -0.22019197972E+02  0.21697872278E+03  0.00000000000E+00 0.  1.
          3    1    3    3  501    0 -0.21302806326E+03 -0.11412585267E+03 -0.49103207039E+02  0.24661060587E+03  0.00000000000E+00 0.  1.
         21    1    1    2  502  501  0.31782557545E+02 -0.31131669328E+01  0.25708987111E+02  0.40997253454E+02  0.00000000000E+00 0. -1.
<scales pt_clust_4="550.00000" pt_clust_5="550.00000" pt_clust_6="31.93466"></scales>
<mgrwt>
<rscale>  0 0.30000000E+03</rscale>
<asrwt>  1 0.31934664E+02</asrwt>
<pdfrwt beam="1">  1        1 0.83486030E+00 0.30000000E+03</pdfrwt>
<pdfrwt beam="2">0</pdfrwt>
<totfact> 0.55171925E-04</totfact>
</mgrwt>
<clustering>
<clus scale="   31.935">  1  6  2 -1</clus>
<clus scale="  456.987">  4  5 -1 -1</clus>
<clus scale="  300.000">  1  4  2 -1</clus>
</clustering>
</event>
<event>
 6    1  0.1007353E-011  0.3000000E+03  0.7818608E-02  0.1093470E+00
          1   -1    0    0  502    0  0.00000000000E+00  0.00000000000E+00  0.25483876238E+03  0.25483876238E+03  0.00000000000E+00 0.  1.
         13   -1    0    0    0    0 -0.00000000000E+00 -0.00000000000E+00 -0.27500000000E+03  0.27500000000E+03  0.00000000000E+00 0.  1.
    9000005    2    1    2  501    0  0.29642672292E+02  0.59892781129E+01  0.80809613718E+01  0.48846025012E+03  0.48745620782E+03 0.  0.
         13    1    3    3    0    0  0.48877985829E+02 -0.15620040079E+03 -0.17736735745E+03  0.24134374281E+03  0.00000000000E+00 0.  1.
          1    1    3    3  501    0 -0.19235313537E+02  0.16218967891E+03  0.18544831882E+03  0.24711650731E+03  0.00000000000E+00 0.  1.
         21    1    1    2  502  501 -0.29642672292E+02 -0.59892781129E+01 -0.28242198991E+02  0.41378512259E+02  0.00000000000E+00 0.  1.
<scales pt_clust_4="550.00000" pt_clust_5="550.00000" pt_clust_6="30.24170"></scales>
<mgrwt>
<rscale>  0 0.30000000E+03</rscale>
<asrwt>  1 0.30241699E+02</asrwt>
<pdfrwt beam="1">  1        1 0.92668641E+00 0.30000000E+03</pdfrwt>
<pdfrwt beam="2">0</pdfrwt>
<totfact> 0.31122370E-05</totfact>
</mgrwt>
<clustering>
<clus scale="   30.242">  1  6  2 -1</clus>
<clus scale="  487.456">  4  5 -1 -1</clus>
<clus scale="  300.000">  1  4  2 -1</clus>
</clustering>
</event>
<event>
 6    1  0.1007353E-011  0.3000000E+03  0.7818608E-02  0.1093470E+00
          1   -1    0    0  502    0  0.00000000000E+00  0.00000000000E+00  0.23412157811E+03  0.23412157811E+03  0.00000000000E+00 0.  1.
         13   -1    0    0    0    0 -0.00000000000E+00 -0.00000000000E+00 -0.27500000000E+03  0.27500000000E+03  0.00000000000E+00 0.  1.
    9000005    2    1    2  501    0  0.35191745952E+02 -0.83988048125E+00 -0.39297644914E+02  0.47388433591E+03  0.47093831288E+03 0.  0.
         13    1    3    3    0    0 -0.12880563187E+03 -0.18166196511E+03  0.17073188591E+02  0.22334604124E+03  0.00000000000E+00 0.  1.
          3    1    3    3  501    0  0.16399737782E+03  0.18082208463E+03 -0.56370833506E+02  0.25053829466E+03  0.00000000000E+00 0.  1.
         21    1    1    2  502  501 -0.35191745952E+02  0.83988048125E+00 -0.15807769742E+01  0.35237242205E+02  0.00000000000E+00 0. -1.
<scales pt_clust_4="550.00000" pt_clust_5="550.00000" pt_clust_6="35.20177"></scales>
<mgrwt>
<rscale>  0 0.30000000E+03</rscale>
<asrwt>  1 0.35201767E+02</asrwt>
<pdfrwt beam="1">  1        1 0.85135119E+00 0.30000000E+03</pdfrwt>
<pdfrwt beam="2">0</pdfrwt>
<totfact> 0.39476893E-04</totfact>
</mgrwt>
<clustering>
<clus scale="   35.202">  1  6  2 -1</clus>
<clus scale="  470.938">  4  5 -1 -1</clus>
<clus scale="  300.000">  1  4  2 -1</clus>
</clustering>
</event>
<event>
 6    1  0.1007353E-011  0.3000000E+03  0.7818608E-02  0.1093470E+00
          1   -1    0    0  502    0  0.00000000000E+00  0.00000000000E+00  0.26724287141E+03  0.26724287141E+03  0.00000000000E+00 0.  1.
         13   -1    0    0    0    0 -0.00000000000E+00 -0.00000000000E+00 -0.27500000000E+03  0.27500000000E+03  0.00000000000E+00 0.  1.
    9000005    2    1    2  501    0 -0.44935231139E+02 -0.23990915414E+01 -0.48799600408E+02  0.48133790338E+03  0.47673876032E+03 0.  0.
         13    1    3    3    0    0 -0.12174286090E+03 -0.16573357335E+03 -0.16757192045E+03  0.26527210566E+03  0.00000000000E+00 0.  1.
          1    1    3    3  501    0  0.76807629764E+02  0.16333448181E+03  0.11877232004E+03  0.21606579772E+03  0.00000000000E+00 0.  1.
         21    1    1    2  502  501  0.44935231139E+02  0.23990915414E+01  0.41042471820E+02  0.60904968031E+02  0.00000000000E+00 0.  1.
<scales pt_clust_4="550.00000" pt_clust_5="550.00000" pt_clust_6="44.99923"></scales>
<mgrwt>
<rscale>  0 0.30000000E+03</rscale>
<asrwt>  1 0.44999229E+02</asrwt>
<pdfrwt beam="1">  1        1 0.97179226E+00 0.30000000E+03</pdfrwt>
<pdfrwt beam="2">0</pdfrwt>
<totfact> 0.44500482E-06</totfact>
</mgrwt>
<clustering>
<clus scale="   44.999">  1  6  2 -1</clus>
<clus scale="  476.739">  4  5 -1 -1</clus>
<clus scale="  300.000">  1  4  2 -1</clus>
</clustering>
</event>
<event>
 6    1  0.1007353E-011  0.3000000E+03  0.7818608E-02  0.1093470E+00
          1   -1    0    0  502    0  0.00000000000E+00  0.00000000000E+00  0.24384036292E+03  0.24384036292E+03  0.00000000000E+00 0.  1.
         13   -1    0    0    0    0 -0.00000000000E+00 -0.00000000000E+00 -0.27500000000E+03  0.27500000000E+03  0.00000000000E+00 0.  1.
    9000005    2    1    2  501    0  0.26762204140E+02 -0.13724099657E+02 -0.46824542482E+02  0.48492936554E+03  0.48172542522E+03 0.  0.
         13    1    3    3    0    0 -0.14498660634E+03  0.88594304634E+02  0.13320271796E+03  0.21590051159E+03  0.00000000000E+00 0.  1.
          1    1    3    3  501    0  0.17174881048E+03 -0.10231840429E+03 -0.18002726045E+03  0.26902885396E+03  0.00000000000E+00 0.  1.
         21    1    1    2  502  501 -0.26762204140E+02  0.13724099657E+02  0.15664905402E+02  0.33910997377E+02  0.00000000000E+00 0.  1.
<scales pt_clust_4="550.00000" pt_clust_5="550.00000" pt_clust_6="30.07601"></scales>
<mgrwt>
<rscale>  0 0.30000000E+03</rscale>
<asrwt>  1 0.30076012E+02</asrwt>
<pdfrwt beam="1">  1        1 0.88669223E+00 0.30000000E+03</pdfrwt>
<pdfrwt beam="2">0</pdfrwt>
<totfact> 0.16553279E-04</totfact>
</mgrwt>
<clustering>
<clus scale="   30.076">  1  6  2 -1</clus>
<clus scale="  481.725">  4  5 -1 -1</clus>
<clus scale="  300.000">  1  4  2 -1</clus>
</clustering>
</event>
<event>
 6    1  0.1007353E-011  0.3000000E+03  0.7818608E-02  0.1093470E+00
          1   -1    0    0  502    0  0.00000000000E+00  0.00000000000E+00  0.25533732634E+03  0.25533732634E+03  0.00000000000E+00 0.  1.
         13   -1    0    0    0    0 -0.00000000000E+00 -0.00000000000E+00 -0.27500000000E+03  0.27500000000E+03  0.00000000000E+00 0.  1.
    9000005    2    1    2  501    0 -0.39203148416E+02  0.48373443228E+02 -0.24487004808E+02  0.46788613719E+03  0.46307769015E+03 0.  0.
         13    1    3    3    0    0 -0.12803107786E+03  0.23100231464E+03 -0.17221498849E+02  0.26467075072E+03  0.00000000000E+00 0.  1.
          1    1    3    3  501    0  0.88827929444E+02 -0.18262887141E+03 -0.72655059586E+01  0.20321538647E+03  0.00000000000E+00 0.  1.
         21    1    1    2  502  501  0.39203148416E+02 -0.48373443228E+02  0.48243311503E+01  0.62451189152E+02  0.00000000000E+00 0. -1.
<scales pt_clust_4="550.00000" pt_clust_5="550.00000" pt_clust_6="62.26457"></scales>
<mgrwt>
<rscale>  0 0.30000000E+03</rscale>
<asrwt>  1 0.62264571E+02</asrwt>
<pdfrwt beam="1">  1        1 0.92849937E+00 0.30000000E+03</pdfrwt>
<pdfrwt beam="2">0</pdfrwt>
<totfact> 0.25174498E-05</totfact>
</mgrwt>
<clustering>
<clus scale="   62.265">  1  6  2 -1</clus>
<clus scale="  463.078">  4  5 -1 -1</clus>
<clus scale="  300.000">  1  4  2 -1</clus>
</clustering>
</event>
<event>
 6    1  0.1007353E-011  0.3000000E+03  0.7818608E-02  0.1093470E+00
          1   -1    0    0  502    0  0.00000000000E+00  0.00000000000E+00  0.25169448278E+03  0.25169448278E+03  0.00000000000E+00 0.  1.
         13   -1    0    0    0    0 -0.00000000000E+00 -0.00000000000E+00 -0.27500000000E+03  0.27500000000E+03  0.00000000000E+00 0.  1.
    9000005    2    1    2  501    0 -0.37622817498E+02 -0.72825411512E+01 -0.49119294701E+02  0.48048990606E+03  0.47643397539E+03 0.  0.
         13    1    3    3    0    0  0.20871599078E+03 -0.46469438995E+02  0.36192720740E+02  0.21686790127E+03  0.00000000000E+00 0.  1.
          3    1    3    3  501    0 -0.24633880828E+03  0.39186897844E+02 -0.85312015441E+02  0.26362200478E+03  0.00000000000E+00 0.  1.
         21    1    1    2  502  501  0.37622817498E+02  0.72825411512E+01  0.25813777478E+02  0.46204576719E+02  0.00000000000E+00 0.  1.
<scales pt_clust_4="550.00000" pt_clust_5="550.00000" pt_clust_6="38.32117"></scales>
<mgrwt>
<rscale>  0 0.30000000E+03</rscale>
<asrwt>  1 0.38321167E+02</asrwt>
<pdfrwt beam="1">  1        1 0.91525266E+00 0.30000000E+03</pdfrwt>
<pdfrwt beam="2">0</pdfrwt>
<totfact> 0.52529683E-05</totfact>
</mgrwt>
<clustering>
<clus scale="   38.321">  1  6  2 -1</clus>
<clus scale="  476.434">  4  5 -1 -1</clus>
<clus scale="  300.000">  1  4  2 -1</clus>
</clustering>
</event>
<event>
 6    1  0.1007353E-011  0.3000000E+03  0.7818608E-02  0.1093470E+00
          1   -1    0    0  502    0  0.00000000000E+00  0.00000000000E+00  0.24367434984E+03  0.24367434984E+03  0.00000000000E+00 0.  1.
         13   -1    0    0    0    0 -0.00000000000E+00 -0.00000000000E+00 -0.27500000000E+03  0.27500000000E+03  0.00000000000E+00 0.  1.
    9000005    2    1    2  501    0 -0.55011405371E+01 -0.32974674117E+02 -0.60467520597E+02  0.47432527665E+03  0.46926597505E+03 0.  0.
         13    1    3    3    0    0  0.10060088521E+03 -0.15762114013E+03  0.12655189379E+03  0.22578827193E+03  0.00000000000E+00 0.  1.
          1    1    3    3  501    0 -0.10610202575E+03  0.12464646601E+03 -0.18701941439E+03  0.24853700472E+03  0.00000000000E+00 0.  1.
         21    1    1    2  502  501  0.55011405371E+01  0.32974674117E+02  0.29141870437E+02  0.44349073191E+02  0.00000000000E+00 0.  1.
<scales pt_clust_4="550.00000" pt_clust_5="550.00000" pt_clust_6="33.43040"></scales>
<mgrwt>
<rscale>  0 0.30000000E+03</rscale>
<asrwt>  1 0.33430401E+02</asrwt>
<pdfrwt beam="1">  1        1 0.88608854E+00 0.30000000E+03</pdfrwt>
<pdfrwt beam="2">0</pdfrwt>
<totfact> 0.16537508E-04</totfact>
</mgrwt>
<clustering>
<clus scale="   33.430">  1  6  2 -1</clus>
<clus scale="  469.266">  4  5 -1 -1</clus>
<clus scale="  300.000">  1  4  2 -1</clus>
</clustering>
</event>
<event>
 6    1  0.1007353E-011  0.3000000E+03  0.7818608E-02  0.1093470E+00
          1   -1    0    0  502    0  0.00000000000E+00  0.00000000000E+00  0.23402226855E+03  0.23402226855E+03  0.00000000000E+00 0.  1.
         13   -1    0    0    0    0 -0.00000000000E+00 -0.00000000000E+00 -0.27500000000E+03  0.27500000000E+03  0.00000000000E+00 0.  1.
    9000005    2    1    2  501    0  0.28940802859E+02  0.90712264113E+01 -0.71033845934E+02  0.46632300349E+03  0.45988202737E+03 0.  0.
         13    1    3    3    0    0  0.18335994602E+03  0.15927458115E+03 -0.13015191562E+02  0.24322552748E+03  0.00000000000E+00 0.  1.
          3    1    3    3  501    0 -0.15441914316E+03 -0.15020335474E+03 -0.58018654372E+02  0.22309747602E+03  0.00000000000E+00 0.  1.
         21    1    1    2  502  501 -0.28940802859E+02 -0.90712264113E+01  0.30056114487E+02  0.42699265062E+02  0.00000000000E+00 0.  1.
<scales pt_clust_4="550.00000" pt_clust_5="550.00000" pt_clust_6="30.32915"></scales>
<mgrwt>
<rscale>  0 0.30000000E+03</rscale>
<asrwt>  1 0.30329148E+02</asrwt>
<pdfrwt beam="1">  1        1 0.85099007E+00 0.30000000E+03</pdfrwt>
<pdfrwt beam="2">0</pdfrwt>
<totfact> 0.40929198E-04</totfact>
</mgrwt>
<clustering>
<clus scale="   30.329">  1  6  2 -1</clus>
<clus scale="  459.882">  4  5 -1 -1</clus>
<clus scale="  300.000">  1  4  2 -1</clus>
</clustering>
</event>
<event>
 6    1  0.1007353E-011  0.3000000E+03  0.7818608E-02  0.1093470E+00
          1   -1    0    0  502    0  0.00000000000E+00  0.00000000000E+00  0.24747797539E+03  0.24747797539E+03  0.00000000000E+00 0.  1.
         13   -1    0    0    0    0 -0.00000000000E+00 -0.00000000000E+00 -0.27500000000E+03  0.27500000000E+03  0.00000000000E+00 0.  1.
    9000005    2    1    2  501    0  0.28017169703E+02  0.25857045679E+02 -0.30742767853E+02  0.48421674441E+03  0.48173352507E+03 0.  0.
         13    1    3    3    0    0  0.10126430453E+03  0.11340480433E+03 -0.21748058051E+03  0.26535431392E+03  0.00000000000E+00 0.  1.
          1    1    3    3  501    0 -0.73247134826E+02 -0.87547758653E+02  0.18673781265E+03  0.21886243049E+03  0.00000000000E+00 0.  1.
         21    1    1    2  502  501 -0.28017169703E+02 -0.25857045679E+02  0.32207432431E+01  0.38261230984E+02  0.00000000000E+00 0.  1.
<scales pt_clust_4="550.00000" pt_clust_5="550.00000" pt_clust_6="38.12543"></scales>
<mgrwt>
<rscale>  0 0.30000000E+03</rscale>
<asrwt>  1 0.38125433E+02</asrwt>
<pdfrwt beam="1">  1        1 0.89991991E+00 0.30000000E+03</pdfrwt>
<pdfrwt beam="2">0</pdfrwt>
<totfact> 0.10895423E-04</totfact>
</mgrwt>
<clustering>
<clus scale="   38.125">  1  6  2 -1</clus>
<clus scale="  481.734">  4  5 -1 -1</clus>
<clus scale="  300.000">  1  4  2 -1</clus>
</clustering>
</event>
<event>
 6    1  0.1007353E-011  0.3000000E+03  0.7818608E-02  0.1093470E+00
          1   -1    0    0  502    0  0.00000000000E+00  0.00000000000E+00  0.23988383268E+03  0.23988383268E+03  0.00000000000E+00 0.  1.
         13   -1    0    0    0    0 -0.00000000000E+00 -0.00000000000E+00 -0.27500000000E+03  0.27500000000E+03  0.00000000000E+00 0.  1.
    9000005    2    1    2  501    0 -0.17986953006E+02  0.47664616154E+02 -0.37477444728E+02  0.46388361952E+03  0.45955196385E+03 0.  0.
         13    1    3    3    0    0 -0.11404889844E+03  0.16617918329E+03 -0.16856066629E+03  0.26274582854E+03  0.00000000000E+00 0.  1.
          3    1    3    3  501    0  0.96061945433E+02 -0.11851456714E+03  0.13108322156E+03  0.20113779098E+03  0.00000000000E+00 0.  1.
         21    1    1    2  502  501  0.17986953006E+02 -0.47664616154E+02  0.23612774064E+01  0.51000213162E+02  0.00000000000E+00 0.  1.
<scales pt_clust_4="550.00000" pt_clust_5="550.00000" pt_clust_6="50.94552"></scales>
<mgrwt>
<rscale>  0 0.30000000E+03</rscale>
<asrwt>  1 0.50945521E+02</asrwt>
<pdfrwt beam="1">  1        1 0.87230485E+00 0.30000000E+03</pdfrwt>
<pdfrwt beam="2">0</pdfrwt>
<totfact> 0.22414982E-04</totfact>
</mgrwt>
<clustering>
<clus scale="   50.946">  1  6  2 -1</clus>
<clus scale="  459.552">  4  5 -1 -1</clus>
<clus scale="  300.000">  1  4  2 -1</clus>
</clustering>
</event>
<event>
 6    1  0.1007353E-011  0.3000000E+03  0.7818608E-02  0.1093470E+00
          1   -1    0    0  502    0  0.00000000000E+00  0.00000000000E+00  0.22376837172E+03  0.22376837172E+03  0.00000000000E+00 0.  1.
         13   -1    0    0    0    0 -0.00000000000E+00 -0.00000000000E+00 -0.27500000000E+03  0.27500000000E+03  0.00000000000E+00 0.  1.
    9000005    2    1    2  501    0  0.29445630638E+02 -0.10827690124E+02 -0.33791445682E+02  0.46287346949E+03  0.46057106174E+03 0.  0.
         13    1    3    3    0    0  0.76165920247E+02 -0.69749433704E+01 -0.23974621922E+03  0.25165084318E+03  0.00000000000E+00 0.  1.
          3    1    3    3  501    0 -0.46720289609E+02 -0.38527467540E+01  0.20595477354E+03  0.21122262630E+03  0.00000000000E+00 0.  1.
         21    1    1    2  502  501 -0.29445630638E+02  0.10827690124E+02 -0.17440182600E+02  0.35894902232E+02  0.00000000000E+00 0.  1.
<scales pt_clust_4="550.00000" pt_clust_5="550.00000" pt_clust_6="31.37332"></scales>
<mgrwt>
<rscale>  0 0.30000000E+03</rscale>
<asrwt>  1 0.31373317E+02</asrwt>
<pdfrwt beam="1">  1        1 0.81370317E+00 0.30000000E+03</pdfrwt>
<pdfrwt beam="2">0</pdfrwt>
<totfact> 0.83241207E-04</totfact>
</mgrwt>
<clustering>
<clus scale="   31.373">  1  6  2 -1</clus>
<clus scale="  460.571">  4  5 -1 -1</clus>
<clus scale="  300.000">  1  4  2 -1</clus>
</clustering>
</event>
<event>
 6    1  0.1007353E-011  0.3000000E+03  0.7818608E-02  0.1093470E+00
          1   -1    0    0  502    0  0.00000000000E+00  0.00000000000E+00  0.25099744575E+03  0.25099744575E+03  0.00000000000E+00 0.  1.
         13   -1    0    0    0    0 -0.00000000000E+00 -0.00000000000E+00 -0.27500000000E+03  0.27500000000E+03  0.00000000000E+00 0.  1.
    9000005    2    1    2  501    0 -0.14267047307E+01 -0.50080804764E+02  0.53152254777E+00  0.47021175389E+03  0.46753469229E+03 0.  0.
         13    1    3    3    0    0  0.10246967457E+03  0.16139456296E+03 -0.97987725901E+02  0.21482512327E+03  0.00000000000E+00 0.  1.
          1    1    3    3  501    0 -0.10389637930E+03 -0.21147536773E+03  0.98519248449E+02  0.25538663063E+03  0.00000000000E+00 0.  1.
         21    1    1    2  502  501  0.14267047307E+01  0.50080804764E+02 -0.24534076793E+02  0.55785691860E+02  0.00000000000E+00 0. -1.
<scales pt_clust_4="550.00000" pt_clust_5="550.00000" pt_clust_6="50.10115"></scales>
<mgrwt>
<rscale>  0 0.30000000E+03</rscale>
<asrwt>  1 0.50101148E+02</asrwt>
<pdfrwt beam="1">  1        1 0.91271798E+00 0.30000000E+03</pdfrwt>
<pdfrwt beam="2">0</pdfrwt>
<totfact> 0.57642363E-05</totfact>
</mgrwt>
<clustering>
<clus scale="   50.101">  1  6  2 -1</clus>
<clus scale="  467.535">  4  5 -1 -1</clus>
<clus scale="  300.000">  1  4  2 -1</clus>
</clustering>
</event>
<event>
 6    1  0.1007353E-011  0.3000000E+03  0.7818608E-02  0.1093470E+00
          1   -1    0    0  502    0  0.00000000000E+00  0.00000000000E+00  0.25894877987E+03  0.25894877987E+03  0.00000000000E+00 0.  1.
         13   -1    0    0    0    0 -0.00000000000E+00 -0.00000000000E+00 -0.27500000000E+03  0.27500000000E+03  0.00000000000E+00 0.  1.
    9000005    2    1    2  501    0 -0.22866926990E+02 -0.51634276247E+02 -0.44628804789E+02  0.47065839214E+03  0.46512213132E+03 0.  0.
         13    1    3    3    0    0 -0.88241219824E+02 -0.23546871815E+02  0.19787343900E+03  0.21793316845E+03  0.00000000000E+00 0.  1.
          3    1    3    3  501    0  0.65374292834E+02 -0.28087404432E+02 -0.24250224379E+03  0.25272522370E+03  0.00000000000E+00 0.  1.
         21    1    1    2  502  501  0.22866926990E+02  0.51634276247E+02  0.28577584655E+02  0.63290387724E+02  0.00000000000E+00 0.  1.
<scales pt_clust_4="550.00000" pt_clust_5="550.00000" pt_clust_6="56.47119"></scales>
<mgrwt>
<rscale>  0 0.30000000E+03</rscale>
<asrwt>  1 0.56471186E+02</asrwt>
<pdfrwt beam="1">  1        1 0.94163193E+00 0.30000000E+03</pdfrwt>
<pdfrwt beam="2">0</pdfrwt>
<totfact> 0.16477520E-05</totfact>
</mgrwt>
<clustering>
<clus scale="   56.471">  1  6  2 -1</clus>
<clus scale="  465.122">  4  5 -1 -1</clus>
<clus scale="  300.000">  1  4  2 -1</clus>
</clustering>
</event>
<event>
 6    1  0.1007353E-011  0.3000000E+03  0.7818608E-02  0.1093470E+00
          1   -1    0    0  502    0  0.00000000000E+00  0.00000000000E+00  0.24524156591E+03  0.24524156591E+03  0.00000000000E+00 0.  1.
         13   -1    0    0    0    0 -0.00000000000E+00 -0.00000000000E+00 -0.27500000000E+03  0.27500000000E+03  0.00000000000E+00 0.  1.
    9000005    2    1    2  501    0 -0.16981776323E+02 -0.26234251537E+02 -0.38754086480E+02  0.48772174975E+03  0.48517420509E+03 0.  0.
         13    1    3    3    0    0 -0.16426953638E+03  0.12793329115E+03 -0.14079498600E+03  0.25134564975E+03  0.00000000000E+00 0.  1.
          3    1    3    3  501    0  0.14728776005E+03 -0.15416754269E+03  0.10204089952E+03  0.23637610001E+03  0.00000000000E+00 0.  1.
         21    1    1    2  502  501  0.16981776323E+02  0.26234251537E+02  0.89956523892E+01  0.32519816154E+02  0.00000000000E+00 0.  1.
<scales pt_clust_4="550.00000" pt_clust_5="550.00000" pt_clust_6="31.25087"></scales>
<mgrwt>
<rscale>  0 0.30000000E+03</rscale>
<asrwt>  1 0.31250867E+02</asrwt>
<pdfrwt beam="1">  1        1 0.89178751E+00 0.30000000E+03</pdfrwt>
<pdfrwt beam="2">0</pdfrwt>
<totfact> 0.14045416E-04</totfact>
</mgrwt>
<clustering>
<clus scale="   31.251">  1  6  2 -1</clus>
<clus scale="  485.174">  4  5 -1 -1</clus>
<clus scale="  300.000">  1  4  2 -1</clus>
</clustering>
</event>
<event>
 6    1  0.1007353E-011  0.3000000E+03  0.7818608E-02  0.1093470E+00
          1   -1    0    0  502    0  0.00000000000E+00  0.00000000000E+00  0.24108023770E+03  0.24108023770E+03  0.00000000000E+00 0.  1.
         13   -1    0    0    0    0 -0.00000000000E+00 -0.00000000000E+00 -0.27500000000E+03  0.27500000000E+03  0.00000000000E+00 0.  1.
    9000005    2    1    2  501    0 -0.31702130233E+02  0.30290965055E+01 -0.44686167794E+02  0.48246304010E+03  0.47933238049E+03 0.  0.
         13    1    3    3    0    0 -0.15946702837E+03  0.19059283793E+03 -0.57799680045E+02  0.25513950306E+03  0.00000000000E+00 0.  1.
          3    1    3    3  501    0  0.12776489814E+03 -0.18756374142E+03  0.13113512252E+02  0.22732353705E+03  0.00000000000E+00 0.  1.
         21    1    1    2  502  501  0.31702130233E+02 -0.30290965055E+01  0.10766405494E+02  0.33617197596E+02  0.00000000000E+00 0.  1.
<scales pt_clust_4="550.00000" pt_clust_5="550.00000" pt_clust_6="31.84651"></scales>
<mgrwt>
<rscale>  0 0.30000000E+03</rscale>
<asrwt>  1 0.31846515E+02</asrwt>
<pdfrwt beam="1">  1        1 0.87665541E+00 0.30000000E+03</pdfrwt>
<pdfrwt beam="2">0</pdfrwt>
<totfact> 0.21975650E-04</totfact>
</mgrwt>
<clustering>
<clus scale="   31.847">  1  6  2 -1</clus>
<clus scale="  479.332">  4  5 -1 -1</clus>
<clus scale="  300.000">  1  4  2 -1</clus>
</clustering>
</event>
<event>
 6    1  0.1007353E-011  0.3000000E+03  0.7818608E-02  0.1093470E+00
          1   -1    0    0  502    0  0.00000000000E+00  0.00000000000E+00  0.23196666370E+03  0.23196666370E+03  0.00000000000E+00 0.  1.
         13   -1    0    0    0    0 -0.00000000000E+00 -0.00000000000E+00 -0.27500000000E+03  0.27500000000E+03  0.00000000000E+00 0.  1.
    9000005    2    1    2  501    0 -0.24747355654E+00  0.31031066140E+02 -0.48342590821E+02  0.47548370811E+03  0.47200080751E+03 0.  0.
         13    1    3    3    0    0  0.56433031704E+02 -0.54227966425E+02  0.19573568446E+03  0.21080279310E+03  0.00000000000E+00 0.  1.
          1    1    3    3  501    0 -0.56680505260E+02  0.85259032564E+02 -0.24407827528E+03  0.26468091501E+03  0.00000000000E+00 0.  1.
         21    1    1    2  502  501  0.24747355654E+00 -0.31031066140E+02  0.53092545226E+01  0.31482955587E+02  0.00000000000E+00 0.  1.
<scales pt_clust_4="550.00000" pt_clust_5="550.00000" pt_clust_6="31.03205"></scales>
<mgrwt>
<rscale>  0 0.30000000E+03</rscale>
<asrwt>  1 0.31032053E+02</asrwt>
<pdfrwt beam="1">  1        1 0.84351514E+00 0.30000000E+03</pdfrwt>
<pdfrwt beam="2">0</pdfrwt>
<totfact> 0.47605942E-04</totfact>
</mgrwt>
<clustering>
<clus scale="   31.032">  1  6  2 -1</clus>
<clus scale="  472.001">  4  5 -1 -1</clus>
<clus scale="  300.000">  1  4  2 -1</clus>
</clustering>
</event>
<event>
 6    1  0.1007353E-011  0.3000000E+03  0.7818608E-02  0.1093470E+00
          1   -1    0    0  502    0  0.00000000000E+00  0.00000000000E+00  0.23110406509E+03  0.23110406509E+03  0.00000000000E+00 0.  1.
         13   -1    0    0    0    0 -0.00000000000E+00 -0.00000000000E+00 -0.27500000000E+03  0.27500000000E+03  0.00000000000E+00 0.  1.
    9000005    2    1    2  501    0  0.32575086434E+02  0.13616932802E+02 -0.41830809352E+02  0.47073710511E+03  0.46754363261E+03 0.  0.
         13    1    3    3    0    0 -0.14230590697E+03  0.10405970897E+03 -0.16254572618E+03  0.23979263394E+03  0.00000000000E+00 0.  1.
          1    1    3    3  501    0  0.17488099341E+03 -0.90442776172E+02  0.12071491683E+03  0.23094447117E+03  0.00000000000E+00 0.  1.
         21    1    1    2  502  501 -0.32575086434E+02 -0.13616932802E+02 -0.20651255565E+01  0.35366959986E+02  0.00000000000E+00 0.  1.
<scales pt_clust_4="550.00000" pt_clust_5="550.00000" pt_clust_6="35.30662"></scales>
<mgrwt>
<rscale>  0 0.30000000E+03</rscale>
<asrwt>  1 0.35306616E+02</asrwt>
<pdfrwt beam="1">  1        1 0.84037842E+00 0.30000000E+03</pdfrwt>
<pdfrwt beam="2">0</pdfrwt>
<totfact> 0.49290728E-04</totfact>
</mgrwt>
<clustering>
<clus scale="   35.307">  1  6  2 -1</clus>
<clus scale="  467.544">  4  5 -1 -1</clus>
<clus scale="  300.000">  1  4  2 -1</clus>
</clustering>
</event>
<event>
 6    1  0.1007353E-011  0.3000000E+03  0.7818608E-02  0.1093470E+00
          1   -1    0    0  502    0  0.00000000000E+00  0.00000000000E+00  0.23281973030E+03  0.23281973030E+03  0.00000000000E+00 0.  1.
         13   -1    0    0    0    0 -0.00000000000E+00 -0.00000000000E+00 -0.27500000000E+03  0.27500000000E+03  0.00000000000E+00 0.  1.
    9000005    2    1    2  501    0 -0.81810161735E+01 -0.32540341441E+02 -0.48002097750E+02  0.47376541297E+03  0.47013153723E+03 0.  0.
         13    1    3    3    0    0 -0.53584707427E+02 -0.13686931369E+01 -0.25448242905E+03  0.26006633939E+03  0.00000000000E+00 0.  1.
          3    1    3    3  501    0  0.45403691253E+02 -0.31171648304E+02  0.20648033130E+03  0.21369907358E+03  0.00000000000E+00 0.  1.
         21    1    1    2  502  501  0.81810161735E+01  0.32540341441E+02  0.58218280482E+01  0.34054317326E+02  0.00000000000E+00 0. -1.
<scales pt_clust_4="550.00000" pt_clust_5="550.00000" pt_clust_6="33.55299"></scales>
<mgrwt>
<rscale>  0 0.30000000E+03</rscale>
<asrwt>  1 0.33552986E+02</asrwt>
<pdfrwt beam="1">  1        1 0.84661720E+00 0.30000000E+03</pdfrwt>
<pdfrwt beam="2">0</pdfrwt>
<totfact> 0.44064849E-04</totfact>
</mgrwt>
<clustering>
<clus scale="   33.553">  1  6  2 -1</clus>
<clus scale="  470.132">  4  5 -1 -1</clus>
<clus scale="  300.000">  1  4  2 -1</clus>
</clustering>
</event>
<event>
 6    1  0.1007353E-011  0.3000000E+03  0.7818608E-02  0.1093470E+00
          1   -1    0    0  502    0  0.00000000000E+00  0.00000000000E+00  0.24698715528E+03  0.24698715528E+03  0.00000000000E+00 0.  1.
         13   -1    0    0    0    0 -0.00000000000E+00 -0.00000000000E+00 -0.27500000000E+03  0.27500000000E+03  0.00000000000E+00 0.  1.
    9000005    2    1    2  501    0 -0.34302817361E+02 -0.46250713366E+01 -0.49824433222E+02  0.48107481049E+03  0.47723414020E+03 0.  0.
         13    1    3    3    0    0  0.14252104635E+03 -0.17632558288E+03  0.11759361874E+02  0.22702696409E+03  0.00000000000E+00 0.  1.
          3    1    3    3  501    0 -0.17682386371E+03  0.17170051155E+03 -0.61583795096E+02  0.25404784640E+03  0.00000000000E+00 0.  1.
         21    1    1    2  502  501  0.34302817361E+02  0.46250713366E+01  0.21811588506E+02  0.40912344798E+02  0.00000000000E+00 0. -1.
<scales pt_clust_4="550.00000" pt_clust_5="550.00000" pt_clust_6="34.61321"></scales>
<mgrwt>
<rscale>  0 0.30000000E+03</rscale>
<asrwt>  1 0.34613214E+02</asrwt>
<pdfrwt beam="1">  1        1 0.89813511E+00 0.30000000E+03</pdfrwt>
<pdfrwt beam="2">0</pdfrwt>
<totfact> 0.11651319E-04</totfact>
</mgrwt>
<clustering>
<clus scale="   34.613">  1  6  2 -1</clus>
<clus scale="  477.234">  4  5 -1 -1</clus>
<clus scale="  300.000">  1  4  2 -1</clus>
</clustering>
</event>
<event>
 6    1  0.1007353E-011  0.3000000E+03  0.7818608E-02  0.1093470E+00
          1   -1    0    0  502    0  0.00000000000E+00  0.00000000000E+00  0.22399698553E+03  0.22399698553E+03  0.00000000000E+00 0.  1.
         13   -1    0    0    0    0 -0.00000000000E+00 -0.00000000000E+00 -0.27500000000E+03  0.27500000000E+03  0.00000000000E+00 0.  1.
    9000005    2    1    2  501    0  0.33439834935E+02 -0.24932204598E+01 -0.59781287836E+02  0.46433437178E+03  0.45924739273E+03 0.  0.
         13    1    3    3    0    0 -0.52198424843E+02 -0.18495052032E+03 -0.14972938324E+03  0.24361908532E+03  0.00000000000E+00 0.  1.
          3    1    3    3  501    0  0.85638259779E+02  0.18245729986E+03  0.89948095406E+02  0.22071528646E+03  0.00000000000E+00 0.  1.
         21    1    1    2  502  501 -0.33439834935E+02  0.24932204598E+01  0.87782733645E+01  0.34662613750E+02  0.00000000000E+00 0.  1.
<scales pt_clust_4="550.00000" pt_clust_5="550.00000" pt_clust_6="33.53265"></scales>
<mgrwt>
<rscale>  0 0.30000000E+03</rscale>
<asrwt>  1 0.33532651E+02</asrwt>
<pdfrwt beam="1">  1        1 0.81453449E+00 0.30000000E+03</pdfrwt>
<pdfrwt beam="2">0</pdfrwt>
<totfact> 0.80943852E-04</totfact>
</mgrwt>
<clustering>
<clus scale="   33.533">  1  6  2 -1</clus>
<clus scale="  459.247">  4  5 -1 -1</clus>
<clus scale="  300.000">  1  4  2 -1</clus>
</clustering>
</event>
<event>
 6    1  0.1007353E-011  0.3000000E+03  0.7818608E-02  0.1093470E+00
          1   -1    0    0  502    0  0.00000000000E+00  0.00000000000E+00  0.24736066045E+03  0.24736066045E+03  0.00000000000E+00 0.  1.
         13   -1    0    0    0    0 -0.00000000000E+00 -0.00000000000E+00 -0.27500000000E+03  0.27500000000E+03  0.00000000000E+00 0.  1.
    9000005    2    1    2  501    0  0.30010168275E+02 -0.38039381173E+01 -0.36031540451E+02  0.49096783992E+03  0.48870857142E+03 0.  0.
         13    1    3    3    0    0  0.13592914939E+03 -0.18239432261E+03 -0.13115760570E+03  0.26257711269E+03  0.00000000000E+00 0.  1.
          1    1    3    3  501    0 -0.10591898112E+03  0.17859038450E+03  0.95126065245E+02  0.22839072723E+03  0.00000000000E+00 0.  1.
         21    1    1    2  502  501 -0.30010168275E+02  0.38039381173E+01  0.83922009027E+01  0.31392820535E+02  0.00000000000E+00 0.  1.
<scales pt_clust_4="550.00000" pt_clust_5="550.00000" pt_clust_6="30.25029"></scales>
<mgrwt>
<rscale>  0 0.30000000E+03</rscale>
<asrwt>  1 0.30250292E+02</asrwt>
<pdfrwt beam="1">  1        1 0.89949331E+00 0.30000000E+03</pdfrwt>
<pdfrwt beam="2">0</pdfrwt>
<totfact> 0.11519027E-04</totfact>
</mgrwt>
<clustering>
<clus scale="   30.250">  1  6  2 -1</clus>
<clus scale="  488.709">  4  5 -1 -1</clus>
<clus scale="  300.000">  1  4  2 -1</clus>
</clustering>
</event>
<event>
 6    1  0.1007353E-011  0.3000000E+03  0.7818608E-02  0.1093470E+00
          1   -1    0    0  502    0  0.00000000000E+00  0.00000000000E+00  0.23992645395E+03  0.23992645395E+03  0.00000000000E+00 0.  1.
         13   -1    0    0    0    0 -0.00000000000E+00 -0.00000000000E+00 -0.27500000000E+03  0.27500000000E+03  0.00000000000E+00 0.  1.
    9000005    2    1    2  501    0 -0.26634196949E+02  0.24299548935E+02 -0.65097054239E+02  0.46800887122E+03  0.46205500597E+03 0.  0.
         13    1    3    3    0    0 -0.13184754272E+03  0.20364541000E+03 -0.89647696840E+02  0.25863475614E+03  0.00000000000E+00 0.  1.
          1    1    3    3  501    0  0.10521334577E+03 -0.17934586107E+03  0.24550642601E+02  0.20937411507E+03  0.00000000000E+00 0.  1.
         21    1    1    2  502  501  0.26634196949E+02 -0.24299548935E+02  0.30023508188E+02  0.46917582732E+02  0.00000000000E+00 0.  1.
<scales pt_clust_4="550.00000" pt_clust_5="550.00000" pt_clust_6="36.05341"></scales>
<mgrwt>
<rscale>  0 0.30000000E+03</rscale>
<asrwt>  1 0.36053412E+02</asrwt>
<pdfrwt beam="1">  1        1 0.87245983E+00 0.30000000E+03</pdfrwt>
<pdfrwt beam="2">0</pdfrwt>
<totfact> 0.23769509E-04</totfact>
</mgrwt>
<clustering>
<clus scale="   36.053">  1  6  2 -1</clus>
<clus scale="  462.055">  4  5 -1 -1</clus>
<clus scale="  300.000">  1  4  2 -1</clus>
</clustering>
</event>
<event>
 6    1  0.1007353E-011  0.3000000E+03  0.7818608E-02  0.1093470E+00
          1   -1    0    0  502    0  0.00000000000E+00  0.00000000000E+00  0.21946205005E+03  0.21946205005E+03  0.00000000000E+00 0.  1.
         13   -1    0    0    0    0 -0.00000000000E+00 -0.00000000000E+00 -0.27500000000E+03  0.27500000000E+03  0.00000000000E+00 0.  1.
    9000005    2    1    2  501    0 -0.22309391955E+02  0.22029580566E+02 -0.61889863879E+02  0.46247207975E+03  0.45723851315E+03 0.  0.
         13    1    3    3    0    0  0.21488836159E+03 -0.94062199448E+01  0.91071038291E+00  0.21509605834E+03  0.00000000000E+00 0.  1.
          1    1    3    3  501    0 -0.23719775355E+03  0.31435800511E+02 -0.62800574262E+02  0.24737602141E+03  0.00000000000E+00 0.  1.
         21    1    1    2  502  501  0.22309391955E+02 -0.22029580566E+02  0.63519139311E+01  0.31989970302E+02  0.00000000000E+00 0.  1.
<scales pt_clust_4="550.00000" pt_clust_5="550.00000" pt_clust_6="31.35301"></scales>
<mgrwt>
<rscale>  0 0.30000000E+03</rscale>
<asrwt>  1 0.31353012E+02</asrwt>
<pdfrwt beam="1">  1        1 0.79804382E+00 0.30000000E+03</pdfrwt>
<pdfrwt beam="2">0</pdfrwt>
<totfact> 0.10939219E-03</totfact>
</mgrwt>
<clustering>
<clus scale="   31.353">  1  6  2 -1</clus>
<clus scale="  457.239">  4  5 -1 -1</clus>
<clus scale="  300.000">  1  4  2 -1</clus>
</clustering>
</event>
<event>
 6    1  0.1007353E-011  0.3000000E+03  0.7818608E-02  0.1093470E+00
          1   -1    0    0  502    0  0.00000000000E+00  0.00000000000E+00  0.23759022921E+03  0.23759022921E+03  0.00000000000E+00 0.  1.
         13   -1    0    0    0    0 -0.00000000000E+00 -0.00000000000E+00 -0.27500000000E+03  0.27500000000E+03  0.00000000000E+00 0.  1.
    9000005    2    1    2  501    0 -0.36443617584E+02  0.10991782113E+02 -0.35908577167E+02  0.47449547735E+03  0.47160107674E+03 0.  0.
         13    1    3    3    0    0 -0.12352586603E+03 -0.19160598790E+03  0.57335369619E+02  0.23507198640E+03  0.00000000000E+00 0.  1.
          1    1    3    3  501    0  0.87082248444E+02  0.20259777002E+03 -0.93243946786E+02  0.23942349096E+03  0.00000000000E+00 0.  1.
         21    1    1    2  502  501  0.36443617584E+02 -0.10991782113E+02 -0.15011936230E+01  0.38094751856E+02  0.00000000000E+00 0.  1.
<scales pt_clust_4="550.00000" pt_clust_5="550.00000" pt_clust_6="38.06516"></scales>
<mgrwt>
<rscale>  0 0.30000000E+03</rscale>
<asrwt>  1 0.38065162E+02</asrwt>
<pdfrwt beam="1">  1        1 0.86396447E+00 0.30000000E+03</pdfrwt>
<pdfrwt beam="2">0</pdfrwt>
<totfact> 0.28861385E-04</totfact>
</mgrwt>
<clustering>
<clus scale="   38.065">  1  6  2 -1</clus>
<clus scale="  471.601">  4  5 -1 -1</clus>
<clus scale="  300.000">  1  4  2 -1</clus>
</clustering>
</event>
<event>
 6    1  0.1007353E-011  0.3000000E+03  0.7818608E-02  0.1093470E+00
          1   -1    0    0  502    0  0.00000000000E+00  0.00000000000E+00  0.22601113570E+03  0.22601113570E+03  0.00000000000E+00 0.  1.
         13   -1    0    0    0    0 -0.00000000000E+00 -0.00000000000E+00 -0.27500000000E+03  0.27500000000E+03  0.00000000000E+00 0.  1.
    9000005    2    1    2  501    0 -0.11885196067E+01 -0.35390028443E+02 -0.53752359954E+02  0.46528218969E+03  0.46080834752E+03 0.  0.
         13    1    3    3    0    0 -0.16567949053E+03  0.13041239545E+03  0.38195103796E+02  0.21428007939E+03  0.00000000000E+00 0.  1.
          3    1    3    3  501    0  0.16449097092E+03 -0.16580242389E+03 -0.91947463751E+02  0.25100211030E+03  0.00000000000E+00 0.  1.
         21    1    1    2  502  501  0.11885196067E+01  0.35390028443E+02  0.47634956513E+01  0.35728946008E+02  0.00000000000E+00 0.  1.
<scales pt_clust_4="550.00000" pt_clust_5="550.00000" pt_clust_6="35.40998"></scales>
<mgrwt>
<rscale>  0 0.30000000E+03</rscale>
<asrwt>  1 0.35409980E+02</asrwt>
<pdfrwt beam="1">  1        1 0.82185868E+00 0.30000000E+03</pdfrwt>
<pdfrwt beam="2">0</pdfrwt>
<totfact> 0.69515955E-04</totfact>
</mgrwt>
<clustering>
<clus scale="   35.410">  1  6  2 -1</clus>
<clus scale="  460.808">  4  5 -1 -1</clus>
<clus scale="  300.000">  1  4  2 -1</clus>
</clustering>
</event>
<event>
 6    1  0.1007353E-011  0.3000000E+03  0.7818608E-02  0.1093470E+00
          1   -1    0    0  502    0  0.00000000000E+00  0.00000000000E+00  0.25662766469E+03  0.25662766469E+03  0.00000000000E+00 0.  1.
         13   -1    0    0    0    0 -0.00000000000E+00 -0.00000000000E+00 -0.27500000000E+03  0.27500000000E+03  0.00000000000E+00 0.  1.
    9000005    2    1    2  501    0 -0.32252038938E+02  0.18100568613E+02 -0.20177440282E+02  0.49459952669E+03  0.49280192584E+03 0.  0.
         13    1    3    3    0    0  0.91140830329E+02  0.17358492939E+03 -0.15895650093E+03  0.25239957974E+03  0.00000000000E+00 0.  1.
          1    1    3    3  501    0 -0.12339286927E+03 -0.15548436078E+03  0.13877906065E+03  0.24219994696E+03  0.00000000000E+00 0.  1.
         21    1    1    2  502  501  0.32252038938E+02 -0.18100568613E+02  0.18051049765E+01  0.37028138000E+02  0.00000000000E+00 0.  1.
<scales pt_clust_4="550.00000" pt_clust_5="550.00000" pt_clust_6="36.98411"></scales>
<mgrwt>
<rscale>  0 0.30000000E+03</rscale>
<asrwt>  1 0.36984113E+02</asrwt>
<pdfrwt beam="1">  1        1 0.93319151E+00 0.30000000E+03</pdfrwt>
<pdfrwt beam="2">0</pdfrwt>
<totfact> 0.23467396E-05</totfact>
</mgrwt>
<clustering>
<clus scale="   36.984">  1  6  2 -1</clus>
<clus scale="  492.802">  4  5 -1 -1</clus>
<clus scale="  300.000">  1  4  2 -1</clus>
</clustering>
</event>
<event>
 6    1  0.1007353E-011  0.3000000E+03  0.7818608E-02  0.1093470E+00
          1   -1    0    0  502    0  0.00000000000E+00  0.00000000000E+00  0.23115043424E+03  0.23115043424E+03  0.00000000000E+00 0.  1.
         13   -1    0    0    0    0 -0.00000000000E+00 -0.00000000000E+00 -0.27500000000E+03  0.27500000000E+03  0.00000000000E+00 0.  1.
    9000005    2    1    2  501    0 -0.36726743766E+02 -0.12881843693E+02 -0.39121160140E+02  0.46694388600E+03  0.46367157763E+03 0.  0.
         13    1    3    3    0    0 -0.12618597288E+03  0.19058047406E+03 -0.77588232708E+02  0.24137885305E+03  0.00000000000E+00 0.  1.
          3    1    3    3  501    0  0.89459229111E+02 -0.20346231776E+03  0.38467072568E+02  0.22556503295E+03  0.00000000000E+00 0.  1.
         21    1    1    2  502  501  0.36726743766E+02  0.12881843693E+02 -0.47284056220E+01  0.39206548233E+02  0.00000000000E+00 0. -1.
<scales pt_clust_4="550.00000" pt_clust_5="550.00000" pt_clust_6="38.92039"></scales>
<mgrwt>
<rscale>  0 0.30000000E+03</rscale>
<asrwt>  1 0.38920395E+02</asrwt>
<pdfrwt beam="1">  1        1 0.84054703E+00 0.30000000E+03</pdfrwt>
<pdfrwt beam="2">0</pdfrwt>
<totfact> 0.48263462E-04</totfact>
</mgrwt>
<clustering>
<clus scale="   38.920">  1  6  2 -1</clus>
<clus scale="  463.672">  4  5 -1 -1</clus>
<clus scale="  300.000">  1  4  2 -1</clus>
</clustering>
</event>
<event>
 6    1  0.1007353E-011  0.3000000E+03  0.7818608E-02  0.1093470E+00
          1   -1    0    0  502    0  0.00000000000E+00  0.00000000000E+00  0.23209480056E+03  0.23209480056E+03  0.00000000000E+00 0.  1.
         13   -1    0    0    0    0 -0.00000000000E+00 -0.00000000000E+00 -0.27500000000E+03  0.27500000000E+03  0.00000000000E+00 0.  1.
    9000005    2    1    2  501    0 -0.36030880384E+02 -0.29322473368E+01 -0.60151130983E+02  0.46704177857E+03  0.46173914926E+03 0.  0.
         13    1    3    3    0    0 -0.68128024377E+02 -0.92340547097E+02 -0.23866876426E+03  0.26482255073E+03  0.00000000000E+00 0.  1.
          3    1    3    3  501    0  0.32097143993E+02  0.89408299760E+02  0.17851763327E+03  0.20221922784E+03  0.00000000000E+00 0.  1.
         21    1    1    2  502  501  0.36030880384E+02  0.29322473368E+01  0.17245931546E+02  0.40053021991E+02  0.00000000000E+00 0. -1.
<scales pt_clust_4="550.00000" pt_clust_5="550.00000" pt_clust_6="36.15000"></scales>
<mgrwt>
<rscale>  0 0.30000000E+03</rscale>
<asrwt>  1 0.36149999E+02</asrwt>
<pdfrwt beam="1">  1        1 0.84398109E+00 0.30000000E+03</pdfrwt>
<pdfrwt beam="2">0</pdfrwt>
<totfact> 0.45832784E-04</totfact>
</mgrwt>
<clustering>
<clus scale="   36.150">  1  6  2 -1</clus>
<clus scale="  461.739">  4  5 -1 -1</clus>
<clus scale="  300.000">  1  4  2 -1</clus>
</clustering>
</event>
<event>
 6    1  0.1007353E-011  0.3000000E+03  0.7818608E-02  0.1093470E+00
          1   -1    0    0  502    0  0.00000000000E+00  0.00000000000E+00  0.24857108477E+03  0.24857108477E+03  0.00000000000E+00 0.  1.
         13   -1    0    0    0    0 -0.00000000000E+00 -0.00000000000E+00 -0.27500000000E+03  0.27500000000E+03  0.00000000000E+00 0.  1.
    9000005    2    1    2  501    0  0.40717855495E+02 -0.50824169980E+01 -0.57622955288E+02  0.47202651325E+03  0.46669567119E+03 0.  0.
         13    1    3    3    0    0 -0.45037778266E+01 -0.18177002249E+03  0.11966907411E+03  0.21767248882E+03  0.00000000000E+00 0.  1.
          3    1    3    3  501    0  0.45221633322E+02  0.17668760549E+03 -0.17729202940E+03  0.25435402443E+03  0.00000000000E+00 0.  1.
         21    1    1    2  502  501 -0.40717855495E+02  0.50824169980E+01  0.31194040062E+02  0.51544571528E+02  0.00000000000E+00 0.  1.
<scales pt_clust_4="550.00000" pt_clust_5="550.00000" pt_clust_6="41.03382"></scales>
<mgrwt>
<rscale>  0 0.30000000E+03</rscale>
<asrwt>  1 0.41033824E+02</asrwt>
<pdfrwt beam="1">  1        1 0.90389485E+00 0.30000000E+03</pdfrwt>
<pdfrwt beam="2">0</pdfrwt>
<totfact> 0.94032287E-05</totfact>
</mgrwt>
<clustering>
<clus scale="   41.034">  1  6  2 -1</clus>
<clus scale="  466.696">  4  5 -1 -1</clus>
<clus scale="  300.000">  1  4  2 -1</clus>
</clustering>
</event>
<event>
 6    1  0.1007353E-011  0.3000000E+03  0.7818608E-02  0.1093470E+00
          1   -1    0    0  502    0  0.00000000000E+00  0.00000000000E+00  0.22448349005E+03  0.22448349005E+03  0.00000000000E+00 0.  1.
         13   -1    0    0    0    0 -0.00000000000E+00 -0.00000000000E+00 -0.27500000000E+03  0.27500000000E+03  0.00000000000E+00 0.  1.
    9000005    2    1    2  501    0  0.11349608819E+02  0.30125872620E+02 -0.54788749811E+02  0.46700836334E+03  0.46266469771E+03 0.  0.
         13    1    3    3    0    0  0.77073262239E+02 -0.12637391798E+03  0.14338209509E+03  0.20608027584E+03  0.00000000000E+00 0.  1.
          1    1    3    3  501    0 -0.65723653420E+02  0.15649979060E+03 -0.19817084490E+03  0.26092808750E+03  0.00000000000E+00 0.  1.
         21    1    1    2  502  501 -0.11349608819E+02 -0.30125872620E+02  0.42722398659E+01  0.32475126712E+02  0.00000000000E+00 0. -1.
<scales pt_clust_4="550.00000" pt_clust_5="550.00000" pt_clust_6="32.19288"></scales>
<mgrwt>
<rscale>  0 0.30000000E+03</rscale>
<asrwt>  1 0.32192885E+02</asrwt>
<pdfrwt beam="1">  1        1 0.81630360E+00 0.30000000E+03</pdfrwt>
<pdfrwt beam="2">0</pdfrwt>
<totfact> 0.78919100E-04</totfact>
</mgrwt>
<clustering>
<clus scale="   32.193">  1  6  2 -1</clus>
<clus scale="  462.665">  4  5 -1 -1</clus>
<clus scale="  300.000">  1  4  2 -1</clus>
</clustering>
</event>
<event>
 6    1  0.1007353E-011  0.3000000E+03  0.7818608E-02  0.1093470E+00
          1   -1    0    0  502    0  0.00000000000E+00  0.00000000000E+00  0.22829408734E+03  0.22829408734E+03  0.00000000000E+00 0.  1.
         13   -1    0    0    0    0 -0.00000000000E+00 -0.00000000000E+00 -0.27500000000E+03  0.27500000000E+03  0.00000000000E+00 0.  1.
    9000005    2    1    2  501    0  0.28780657839E+02 -0.11274156255E+02 -0.38859628091E+02  0.47140369621E+03  0.46878133627E+03 0.  0.
         13    1    3    3    0    0  0.12826793775E+03 -0.20522834915E+03 -0.68238075656E+02  0.25145133549E+03  0.00000000000E+00 0.  1.
          3    1    3    3  501    0 -0.99487279908E+02  0.19395419289E+03  0.29378447564E+02  0.21995236072E+03  0.00000000000E+00 0.  1.
         21    1    1    2  502  501 -0.28780657839E+02  0.11274156255E+02 -0.78462845710E+01  0.31890391131E+02  0.00000000000E+00 0. -1.
<scales pt_clust_4="550.00000" pt_clust_5="550.00000" pt_clust_6="30.91009"></scales>
<mgrwt>
<rscale>  0 0.30000000E+03</rscale>
<asrwt>  1 0.30910093E+02</asrwt>
<pdfrwt beam="1">  1        1 0.83016032E+00 0.30000000E+03</pdfrwt>
<pdfrwt beam="2">0</pdfrwt>
<totfact> 0.60323720E-04</totfact>
</mgrwt>
<clustering>
<clus scale="   30.910">  1  6  2 -1</clus>
<clus scale="  468.781">  4  5 -1 -1</clus>
<clus scale="  300.000">  1  4  2 -1</clus>
</clustering>
</event>
<event>
 6    1  0.1007353E-011  0.3000000E+03  0.7818608E-02  0.1093470E+00
          1   -1    0    0  502    0  0.00000000000E+00  0.00000000000E+00  0.22712989665E+03  0.22712989665E+03  0.00000000000E+00 0.  1.
         13   -1    0    0    0    0 -0.00000000000E+00 -0.00000000000E+00 -0.27500000000E+03  0.27500000000E+03  0.00000000000E+00 0.  1.
    9000005    2    1    2  501    0  0.39695996129E+01  0.34331628686E+02 -0.53143801901E+02  0.46716948553E+03  0.46284840508E+03 0.  0.
         13    1    3    3    0    0  0.44100416635E+02 -0.57464459155E+02  0.19045971283E+03  0.20376926418E+03  0.00000000000E+00 0.  1.
          1    1    3    3  501    0 -0.40130817022E+02  0.91796087842E+02 -0.24360351473E+03  0.26340022135E+03  0.00000000000E+00 0.  1.
         21    1    1    2  502  501 -0.39695996129E+01 -0.34331628686E+02  0.52736985545E+01  0.34960411122E+02  0.00000000000E+00 0.  1.
<scales pt_clust_4="550.00000" pt_clust_5="550.00000" pt_clust_6="34.56036"></scales>
<mgrwt>
<rscale>  0 0.30000000E+03</rscale>
<asrwt>  1 0.34560360E+02</asrwt>
<pdfrwt beam="1">  1        1 0.82592690E+00 0.30000000E+03</pdfrwt>
<pdfrwt beam="2">0</pdfrwt>
<totfact> 0.64239144E-04</totfact>
</mgrwt>
<clustering>
<clus scale="   34.560">  1  6  2 -1</clus>
<clus scale="  462.848">  4  5 -1 -1</clus>
<clus scale="  300.000">  1  4  2 -1</clus>
</clustering>
</event>
<event>
 6    1  0.1007353E-011  0.3000000E+03  0.7818608E-02  0.1093470E+00
          1   -1    0    0  502    0  0.00000000000E+00  0.00000000000E+00  0.23962168935E+03  0.23962168935E+03  0.00000000000E+00 0.  1.
         13   -1    0    0    0    0 -0.00000000000E+00 -0.00000000000E+00 -0.27500000000E+03  0.27500000000E+03  0.00000000000E+00 0.  1.
    9000005    2    1    2  501    0  0.17795055635E+01  0.38531925733E+02 -0.42366938155E+02  0.47542070907E+03  0.47195552462E+03 0.  0.
         13    1    3    3    0    0 -0.26296191003E+02  0.36883517002E+02 -0.25598364749E+03  0.25996059561E+03  0.00000000000E+00 0.  1.
          3    1    3    3  501    0  0.28075696567E+02  0.16484087309E+01  0.21361670933E+03  0.21546011346E+03  0.00000000000E+00 0.  1.
         21    1    1    2  502  501 -0.17795055635E+01 -0.38531925733E+02  0.69886275099E+01  0.39200980284E+02  0.00000000000E+00 0. -1.
<scales pt_clust_4="550.00000" pt_clust_5="550.00000" pt_clust_6="38.57299"></scales>
<mgrwt>
<rscale>  0 0.30000000E+03</rscale>
<asrwt>  1 0.38572995E+02</asrwt>
<pdfrwt beam="1">  1        1 0.87135160E+00 0.30000000E+03</pdfrwt>
<pdfrwt beam="2">0</pdfrwt>
<totfact> 0.24094870E-04</totfact>
</mgrwt>
<clustering>
<clus scale="   38.573">  1  6  2 -1</clus>
<clus scale="  471.956">  4  5 -1 -1</clus>
<clus scale="  300.000">  1  4  2 -1</clus>
</clustering>
</event>
<event>
 6    1  0.1007353E-011  0.3000000E+03  0.7818608E-02  0.1093470E+00
          1   -1    0    0  502    0  0.00000000000E+00  0.00000000000E+00  0.24050177988E+03  0.24050177988E+03  0.00000000000E+00 0.  1.
         13   -1    0    0    0    0 -0.00000000000E+00 -0.00000000000E+00 -0.27500000000E+03  0.27500000000E+03  0.00000000000E+00 0.  1.
    9000005    2    1    2  501    0 -0.17513212848E+02 -0.27712141389E+02 -0.57521515738E+02  0.47544247951E+03  0.47081010094E+03 0.  0.
         13    1    3    3    0    0 -0.20782484668E+03 -0.12443790229E+03  0.31251839223E+02  0.24423889100E+03  0.00000000000E+00 0.  1.
          1    1    3    3  501    0  0.19031163383E+03  0.96725760899E+02 -0.88773354961E+02  0.23120358852E+03  0.00000000000E+00 0.  1.
         21    1    1    2  502  501  0.17513212848E+02  0.27712141389E+02  0.23023295618E+02  0.40059300365E+02  0.00000000000E+00 0.  1.
<scales pt_clust_4="550.00000" pt_clust_5="550.00000" pt_clust_6="32.78224"></scales>
<mgrwt>
<rscale>  0 0.30000000E+03</rscale>
<asrwt>  1 0.32782242E+02</asrwt>
<pdfrwt beam="1">  1        1 0.87455193E+00 0.30000000E+03</pdfrwt>
<pdfrwt beam="2">0</pdfrwt>
<totfact> 0.23020386E-04</totfact>
</mgrwt>
<clustering>
<clus scale="   32.782">  1  6  2 -1</clus>
<clus scale="  470.810">  4  5 -1 -1</clus>
<clus scale="  300.000">  1  4  2 -1</clus>
</clustering>
</event>
<event>
 6    1  0.1007353E-011  0.3000000E+03  0.7818608E-02  0.1093470E+00
          1   -1    0    0  502    0  0.00000000000E+00  0.00000000000E+00  0.22586320558E+03  0.22586320558E+03  0.00000000000E+00 0.  1.
         13   -1    0    0    0    0 -0.00000000000E+00 -0.00000000000E+00 -0.27500000000E+03  0.27500000000E+03  0.00000000000E+00 0.  1.
    9000005    2    1    2  501    0  0.31473504476E+02  0.10501307656E+02 -0.30948272457E+02  0.46302564121E+03  0.46079723296E+03 0.  0.
         13    1    3    3    0    0  0.13961394354E+03 -0.17232370328E+02  0.17754759110E+03  0.22652186412E+03  0.00000000000E+00 0.  1.
          1    1    3    3  501    0 -0.10814043907E+03  0.27733677985E+02 -0.20849586356E+03  0.23650377709E+03  0.00000000000E+00 0.  1.
         21    1    1    2  502  501 -0.31473504476E+02 -0.10501307656E+02 -0.18188521961E+02  0.37837564372E+02  0.00000000000E+00 0.  1.
<scales pt_clust_4="550.00000" pt_clust_5="550.00000" pt_clust_6="33.17921"></scales>
<mgrwt>
<rscale>  0 0.30000000E+03</rscale>
<asrwt>  1 0.33179211E+02</asrwt>
<pdfrwt beam="1">  1        1 0.82132075E+00 0.30000000E+03</pdfrwt>
<pdfrwt beam="2">0</pdfrwt>
<totfact> 0.71143876E-04</totfact>
</mgrwt>
<clustering>
<clus scale="   33.179">  1  6  2 -1</clus>
<clus scale="  460.797">  4  5 -1 -1</clus>
<clus scale="  300.000">  1  4  2 -1</clus>
</clustering>
</event>
<event>
 6    1  0.1007353E-011  0.3000000E+03  0.7818608E-02  0.1093470E+00
          1   -1    0    0  502    0  0.00000000000E+00  0.00000000000E+00  0.22937259137E+03  0.22937259137E+03  0.00000000000E+00 0.  1.
         13   -1    0    0    0    0 -0.00000000000E+00 -0.00000000000E+00 -0.27500000000E+03  0.27500000000E+03  0.00000000000E+00 0.  1.
    9000005    2    1    2  501    0  0.23406595386E+02  0.23485470465E+02 -0.49749664330E+02  0.47095958458E+03  0.46714929646E+03 0.  0.
         13    1    3    3    0    0 -0.16509104427E+03 -0.11752476200E+03  0.59833562219E+02  0.21129878786E+03  0.00000000000E+00 0.  1.
          1    1    3    3  501    0  0.18849763965E+03  0.14101023247E+03 -0.10958322655E+03  0.25966079673E+03  0.00000000000E+00 0.  1.
         21    1    1    2  502  501 -0.23406595386E+02 -0.23485470465E+02  0.41222556999E+01  0.33413006787E+02  0.00000000000E+00 0.  1.
<scales pt_clust_4="550.00000" pt_clust_5="550.00000" pt_clust_6="33.15774"></scales>
<mgrwt>
<rscale>  0 0.30000000E+03</rscale>
<asrwt>  1 0.33157745E+02</asrwt>
<pdfrwt beam="1">  1        1 0.83408215E+00 0.30000000E+03</pdfrwt>
<pdfrwt beam="2">0</pdfrwt>
<totfact> 0.55505984E-04</totfact>
</mgrwt>
<clustering>
<clus scale="   33.158">  1  6  2 -1</clus>
<clus scale="  467.149">  4  5 -1 -1</clus>
<clus scale="  300.000">  1  4  2 -1</clus>
</clustering>
</event>
<event>
 6    1  0.1007353E-011  0.3000000E+03  0.7818608E-02  0.1093470E+00
          1   -1    0    0  502    0  0.00000000000E+00  0.00000000000E+00  0.24746374116E+03  0.24746374116E+03  0.00000000000E+00 0.  1.
         13   -1    0    0    0    0 -0.00000000000E+00 -0.00000000000E+00 -0.27500000000E+03  0.27500000000E+03  0.00000000000E+00 0.  1.
    9000005    2    1    2  501    0  0.30114289333E+02 -0.10006273626E+02 -0.39215490744E+02  0.48864953716E+03  0.48603859880E+03 0.  0.
         13    1    3    3    0    0 -0.19525610484E+03 -0.35293553744E+01  0.10428951285E+03  0.22139039121E+03  0.00000000000E+00 0.  1.
          3    1    3    3  501    0  0.22537039418E+03 -0.64769182518E+01 -0.14350500359E+03  0.26725914596E+03  0.00000000000E+00 0.  1.
         21    1    1    2  502  501 -0.30114289333E+02  0.10006273626E+02  0.11679231899E+02  0.33814203993E+02  0.00000000000E+00 0. -1.
<scales pt_clust_4="550.00000" pt_clust_5="550.00000" pt_clust_6="31.73320"></scales>
<mgrwt>
<rscale>  0 0.30000000E+03</rscale>
<asrwt>  1 0.31733199E+02</asrwt>
<pdfrwt beam="1">  1        1 0.89986815E+00 0.30000000E+03</pdfrwt>
<pdfrwt beam="2">0</pdfrwt>
<totfact> 0.11293172E-04</totfact>
</mgrwt>
<clustering>
<clus scale="   31.733">  1  6  2 -1</clus>
<clus scale="  486.039">  4  5 -1 -1</clus>
<clus scale="  300.000">  1  4  2 -1</clus>
</clustering>
</event>
<event>
 6    1  0.1007353E-011  0.3000000E+03  0.7818608E-02  0.1093470E+00
          1   -1    0    0  502    0  0.00000000000E+00  0.00000000000E+00  0.22836429393E+03  0.22836429393E+03  0.00000000000E+00 0.  1.
         13   -1    0    0    0    0 -0.00000000000E+00 -0.00000000000E+00 -0.27500000000E+03  0.27500000000E+03  0.00000000000E+00 0.  1.
    9000005    2    1    2  501    0  0.29472068378E+02  0.16313616022E+02 -0.64766440449E+02  0.46510909283E+03  0.45934414064E+03 0.  0.
         13    1    3    3    0    0  0.12960426806E+03  0.10860840229E+03  0.13977220480E+03  0.21938395699E+03  0.00000000000E+00 0.  1.
          3    1    3    3  501    0 -0.10013219969E+03 -0.92294786270E+02 -0.20453864525E+03  0.24572513584E+03  0.00000000000E+00 0.  1.
         21    1    1    2  502  501 -0.29472068378E+02 -0.16313616022E+02  0.18130734384E+02  0.38255201104E+02  0.00000000000E+00 0. -1.
<scales pt_clust_4="550.00000" pt_clust_5="550.00000" pt_clust_6="33.68586"></scales>
<mgrwt>
<rscale>  0 0.30000000E+03</rscale>
<asrwt>  1 0.33685856E+02</asrwt>
<pdfrwt beam="1">  1        1 0.83041561E+00 0.30000000E+03</pdfrwt>
<pdfrwt beam="2">0</pdfrwt>
<totfact> 0.59062361E-04</totfact>
</mgrwt>
<clustering>
<clus scale="   33.686">  1  6  2 -1</clus>
<clus scale="  459.344">  4  5 -1 -1</clus>
<clus scale="  300.000">  1  4  2 -1</clus>
</clustering>
</event>
<event>
 6    1  0.1007353E-011  0.3000000E+03  0.7818608E-02  0.1093470E+00
          1   -1    0    0  502    0  0.00000000000E+00  0.00000000000E+00  0.22072656391E+03  0.22072656391E+03  0.00000000000E+00 0.  1.
         13   -1    0    0    0    0 -0.00000000000E+00 -0.00000000000E+00 -0.27500000000E+03  0.27500000000E+03  0.00000000000E+00 0.  1.
    9000005    2    1    2  501    0  0.22991052968E+02 -0.22134435732E+02 -0.64769136925E+02  0.46213070855E+03  0.45645506780E+03 0.  0.
         13    1    3    3    0    0 -0.20480560155E+03  0.53744161783E+02  0.59734808694E+01  0.21182410587E+03  0.00000000000E+00 0.  1.
          3    1    3    3  501    0  0.22779665452E+03 -0.75878597515E+02 -0.70742617794E+02  0.25030660268E+03  0.00000000000E+00 0.  1.
         21    1    1    2  502  501 -0.22991052968E+02  0.22134435732E+02  0.10495700839E+02  0.33595855367E+02  0.00000000000E+00 0. -1.
<scales pt_clust_4="550.00000" pt_clust_5="550.00000" pt_clust_6="31.91429"></scales>
<mgrwt>
<rscale>  0 0.30000000E+03</rscale>
<asrwt>  1 0.31914288E+02</asrwt>
<pdfrwt beam="1">  1        1 0.80264205E+00 0.30000000E+03</pdfrwt>
<pdfrwt beam="2">0</pdfrwt>
<totfact> 0.10096188E-03</totfact>
</mgrwt>
<clustering>
<clus scale="   31.914">  1  6  2 -1</clus>
<clus scale="  456.455">  4  5 -1 -1</clus>
<clus scale="  300.000">  1  4  2 -1</clus>
</clustering>
</event>
<event>
 6    1  0.1007353E-011  0.3000000E+03  0.7818608E-02  0.1093470E+00
          1   -1    0    0  502    0  0.00000000000E+00  0.00000000000E+00  0.22248004434E+03  0.22248004434E+03  0.00000000000E+00 0.  1.
         13   -1    0    0    0    0 -0.00000000000E+00 -0.00000000000E+00 -0.27500000000E+03  0.27500000000E+03  0.00000000000E+00 0.  1.
    9000005    2    1    2  501    0 -0.35283485736E+02 -0.15556625481E+00 -0.40179150608E+02  0.46010031674E+03  0.45698248189E+03 0.  0.
         13    1    3    3    0    0  0.84986953006E+02 -0.65112223632E+02  0.17501407678E+03  0.20516410729E+03  0.00000000000E+00 0.  1.
          1    1    3    3  501    0 -0.12027043874E+03  0.64956657377E+02 -0.21519322739E+03  0.25493620945E+03  0.00000000000E+00 0.  1.
         21    1    1    2  502  501  0.35283485736E+02  0.15556625481E+00 -0.12340805049E+02  0.37379727604E+02  0.00000000000E+00 0. -1.
<scales pt_clust_4="550.00000" pt_clust_5="550.00000" pt_clust_6="35.28385"></scales>
<mgrwt>
<rscale>  0 0.30000000E+03</rscale>
<asrwt>  1 0.35283846E+02</asrwt>
<pdfrwt beam="1">  1        1 0.80901834E+00 0.30000000E+03</pdfrwt>
<pdfrwt beam="2">0</pdfrwt>
<totfact> 0.88627180E-04</totfact>
</mgrwt>
<clustering>
<clus scale="   35.284">  1  6  2 -1</clus>
<clus scale="  456.982">  4  5 -1 -1</clus>
<clus scale="  300.000">  1  4  2 -1</clus>
</clustering>
</event>
<event>
 6    1  0.1007353E-011  0.3000000E+03  0.7818608E-02  0.1093470E+00
          1   -1    0    0  502    0  0.00000000000E+00  0.00000000000E+00  0.24043008515E+03  0.24043008515E+03  0.00000000000E+00 0.  1.
         13   -1    0    0    0    0 -0.00000000000E+00 -0.00000000000E+00 -0.27500000000E+03  0.27500000000E+03  0.00000000000E+00 0.  1.
    9000005    2    1    2  501    0 -0.22661933884E+02 -0.24555195728E+02 -0.27721055334E+02  0.48132102827E+03  0.47935889943E+03 0.  0.
         13    1    3    3    0    0 -0.20896255764E+02 -0.69664709063E+02  0.21886672839E+03  0.23063492795E+03  0.00000000000E+00 0.  1.
          1    1    3    3  501    0 -0.17656781206E+01  0.45109513335E+02 -0.24658778373E+03  0.25068610032E+03  0.00000000000E+00 0.  1.
         21    1    1    2  502  501  0.22661933884E+02  0.24555195728E+02 -0.68488595128E+01  0.34109056880E+02  0.00000000000E+00 0.  1.
<scales pt_clust_4="550.00000" pt_clust_5="550.00000" pt_clust_6="33.41440"></scales>
<mgrwt>
<rscale>  0 0.30000000E+03</rscale>
<asrwt>  1 0.33414398E+02</asrwt>
<pdfrwt beam="1">  1        1 0.87429122E+00 0.30000000E+03</pdfrwt>
<pdfrwt beam="2">0</pdfrwt>
<totfact> 0.23082122E-04</totfact>
</mgrwt>
<clustering>
<clus scale="   33.414">  1  6  2 -1</clus>
<clus scale="  479.359">  4  5 -1 -1</clus>
<clus scale="  300.000">  1  4  2 -1</clus>
</clustering>
</event>
<event>
 6    1  0.1007353E-011  0.3000000E+03  0.7818608E-02  0.1093470E+00
          1   -1    0    0  502    0  0.00000000000E+00  0.00000000000E+00  0.22566345566E+03  0.22566345566E+03  0.00000000000E+00 0.  1.
         13   -1    0    0    0    0 -0.00000000000E+00 -0.00000000000E+00 -0.27500000000E+03  0.27500000000E+03  0.00000000000E+00 0.  1.
    9000005    2    1    2  501    0  0.35395389392E+02  0.30739000067E+00 -0.60615580538E+02  0.46351315638E+03  0.45816729418E+03 0.  0.
         13    1    3    3    0    0 -0.49910068117E+02 -0.13069112835E+02  0.19081595813E+03  0.19766776796E+03  0.00000000000E+00 0.  1.
          3    1    3    3  501    0  0.85305457508E+02  0.13376502836E+02 -0.25143153867E+03  0.26584538843E+03  0.00000000000E+00 0.  1.
         21    1    1    2  502  501 -0.35395389392E+02 -0.30739000067E+00  0.11279036197E+02  0.37150299277E+02  0.00000000000E+00 0.  1.
<scales pt_clust_4="550.00000" pt_clust_5="550.00000" pt_clust_6="35.39672"></scales>
<mgrwt>
<rscale>  0 0.30000000E+03</rscale>
<asrwt>  1 0.35396724E+02</asrwt>
<pdfrwt beam="1">  1        1 0.82059438E+00 0.30000000E+03</pdfrwt>
<pdfrwt beam="2">0</pdfrwt>
<totfact> 0.71323172E-04</totfact>
</mgrwt>
<clustering>
<clus scale="   35.397">  1  6  2 -1</clus>
<clus scale="  458.167">  4  5 -1 -1</clus>
<clus scale="  300.000">  1  4  2 -1</clus>
</clustering>
</event>
<event>
 6    1  0.1007353E-011  0.3000000E+03  0.7818608E-02  0.1093470E+00
          1   -1    0    0  502    0  0.00000000000E+00  0.00000000000E+00  0.23398394121E+03  0.23398394121E+03  0.00000000000E+00 0.  1.
         13   -1    0    0    0    0 -0.00000000000E+00 -0.00000000000E+00 -0.27500000000E+03  0.27500000000E+03  0.00000000000E+00 0.  1.
    9000005    2    1    2  501    0  0.34210186344E+02 -0.95675282078E+01 -0.45032512481E+02  0.47323472659E+03  0.46974600033E+03 0.  0.
         13    1    3    3    0    0 -0.19524978224E+03  0.10582960119E+02  0.79855269750E+02  0.21121396880E+03  0.00000000000E+00 0.  1.
          3    1    3    3  501    0  0.22945996859E+03 -0.20150488327E+02 -0.12488778223E+03  0.26202075779E+03  0.00000000000E+00 0.  1.
         21    1    1    2  502  501 -0.34210186344E+02  0.95675282078E+01  0.40164536952E+01  0.35749214621E+02  0.00000000000E+00 0. -1.
<scales pt_clust_4="550.00000" pt_clust_5="550.00000" pt_clust_6="35.52287"></scales>
<mgrwt>
<rscale>  0 0.30000000E+03</rscale>
<asrwt>  1 0.35522872E+02</asrwt>
<pdfrwt beam="1">  1        1 0.85085070E+00 0.30000000E+03</pdfrwt>
<pdfrwt beam="2">0</pdfrwt>
<totfact> 0.39843572E-04</totfact>
</mgrwt>
<clustering>
<clus scale="   35.523">  1  6  2 -1</clus>
<clus scale="  469.746">  4  5 -1 -1</clus>
<clus scale="  300.000">  1  4  2 -1</clus>
</clustering>
</event>
<event>
 6    1  0.1007353E-011  0.3000000E+03  0.7818608E-02  0.1093470E+00
          1   -1    0    0  502    0  0.00000000000E+00  0.00000000000E+00  0.24657722822E+03  0.24657722822E+03  0.00000000000E+00 0.  1.
         13   -1    0    0    0    0 -0.00000000000E+00 -0.00000000000E+00 -0.27500000000E+03  0.27500000000E+03  0.00000000000E+00 0.  1.
    9000005    2    1    2  501    0 -0.47066590713E+00  0.38077617249E+02 -0.56285847748E+02  0.47439166407E+03  0.46949891141E+03 0.  0.
         13    1    3    3    0    0 -0.97444516709E+02 -0.13526609826E+03 -0.17604606505E+03  0.24245529113E+03  0.00000000000E+00 0.  1.
          1    1    3    3  501    0  0.96973850802E+02  0.17334371551E+03  0.11976021730E+03  0.23193637294E+03  0.00000000000E+00 0.  1.
         21    1    1    2  502  501  0.47066590713E+00 -0.38077617249E+02  0.27863075965E+02  0.47185564149E+02  0.00000000000E+00 0.  1.
<scales pt_clust_4="550.00000" pt_clust_5="550.00000" pt_clust_6="38.08053"></scales>
<mgrwt>
<rscale>  0 0.30000000E+03</rscale>
<asrwt>  1 0.38080526E+02</asrwt>
<pdfrwt beam="1">  1        1 0.89664447E+00 0.30000000E+03</pdfrwt>
<pdfrwt beam="2">0</pdfrwt>
<totfact> 0.11899662E-04</totfact>
</mgrwt>
<clustering>
<clus scale="   38.081">  1  6  2 -1</clus>
<clus scale="  469.499">  4  5 -1 -1</clus>
<clus scale="  300.000">  1  4  2 -1</clus>
</clustering>
</event>
<event>
 6    1  0.1007353E-011  0.3000000E+03  0.7818608E-02  0.1093470E+00
          1   -1    0    0  502    0  0.00000000000E+00  0.00000000000E+00  0.26117373851E+03  0.26117373851E+03  0.00000000000E+00 0.  1.
         13   -1    0    0    0    0 -0.00000000000E+00 -0.00000000000E+00 -0.27500000000E+03  0.27500000000E+03  0.00000000000E+00 0.  1.
    9000005    2    1    2  501    0  0.22802782262E+02  0.30140610380E+02 -0.26499462165E+02  0.49631105811E+03  0.49415991505E+03 0.  0.
         13    1    3    3    0    0  0.14102612865E+03  0.10225093978E+03  0.17818309854E+03  0.24918434994E+03  0.00000000000E+00 0.  1.
          1    1    3    3  501    0 -0.11822334639E+03 -0.72110329405E+02 -0.20468256070E+03  0.24712670818E+03  0.00000000000E+00 0.  1.
         21    1    1    2  502  501 -0.22802782262E+02 -0.30140610380E+02  0.12673200675E+02  0.39862680395E+02  0.00000000000E+00 0. -1.
<scales pt_clust_4="550.00000" pt_clust_5="550.00000" pt_clust_6="37.79449"></scales>
<mgrwt>
<rscale>  0 0.30000000E+03</rscale>
<asrwt>  1 0.37794487E+02</asrwt>
<pdfrwt beam="1">  1        1 0.94972269E+00 0.30000000E+03</pdfrwt>
<pdfrwt beam="2">0</pdfrwt>
<totfact> 0.12322419E-05</totfact>
</mgrwt>
<clustering>
<clus scale="   37.794">  1  6  2 -1</clus>
<clus scale="  494.160">  4  5 -1 -1</clus>
<clus scale="  300.000">  1  4  2 -1</clus>
</clustering>
</event>
<event>
 6    1  0.1007353E-011  0.3000000E+03  0.7818608E-02  0.1093470E+00
          1   -1    0    0  502    0  0.00000000000E+00  0.00000000000E+00  0.25156313623E+03  0.25156313623E+03  0.00000000000E+00 0.  1.
         13   -1    0    0    0    0 -0.00000000000E+00 -0.00000000000E+00 -0.27500000000E+03  0.27500000000E+03  0.00000000000E+00 0.  1.
    9000005    2    1    2  501    0  0.10125872045E+02 -0.30952325338E+02 -0.33993764672E+02  0.49232824343E+03  0.49007238599E+03 0.  0.
         13    1    3    3    0    0  0.24813223370E+03 -0.21948333614E+02 -0.48227569892E+02  0.25372669006E+03  0.00000000000E+00 0.  1.
          1    1    3    3  501    0 -0.23800636166E+03 -0.90039917241E+01  0.14233805220E+02  0.23860155337E+03  0.00000000000E+00 0.  1.
         21    1    1    2  502  501 -0.10125872045E+02  0.30952325338E+02  0.10556900899E+02  0.34234892801E+02  0.00000000000E+00 0. -1.
<scales pt_clust_4="550.00000" pt_clust_5="550.00000" pt_clust_6="32.56654"></scales>
<mgrwt>
<rscale>  0 0.30000000E+03</rscale>
<asrwt>  1 0.32566543E+02</asrwt>
<pdfrwt beam="1">  1        1 0.91477504E+00 0.30000000E+03</pdfrwt>
<pdfrwt beam="2">0</pdfrwt>
<totfact> 0.55551957E-05</totfact>
</mgrwt>
<clustering>
<clus scale="   32.567">  1  6  2 -1</clus>
<clus scale="  490.072">  4  5 -1 -1</clus>
<clus scale="  300.000">  1  4  2 -1</clus>
</clustering>
</event>
<event>
 6    1  0.1007353E-011  0.3000000E+03  0.7818608E-02  0.1093470E+00
          1   -1    0    0  502    0  0.00000000000E+00  0.00000000000E+00  0.23966644718E+03  0.23966644718E+03  0.00000000000E+00 0.  1.
         13   -1    0    0    0    0 -0.00000000000E+00 -0.00000000000E+00 -0.27500000000E+03  0.27500000000E+03  0.00000000000E+00 0.  1.
    9000005    2    1    2  501    0 -0.13396605482E+02  0.37016894018E+02 -0.50291200488E+02  0.47255408908E+03  0.46821837082E+03 0.  0.
         13    1    3    3    0    0  0.20047284233E+03  0.13376744811E+02 -0.13418363325E+03  0.24160617799E+03  0.00000000000E+00 0.  1.
          3    1    3    3  501    0 -0.21386944781E+03  0.23640149207E+02  0.83892432758E+02  0.23094791109E+03  0.00000000000E+00 0.  1.
         21    1    1    2  502  501  0.13396605482E+02 -0.37016894018E+02  0.14957647669E+02  0.42112358102E+02  0.00000000000E+00 0.  1.
<scales pt_clust_4="550.00000" pt_clust_5="550.00000" pt_clust_6="39.36648"></scales>
<mgrwt>
<rscale>  0 0.30000000E+03</rscale>
<asrwt>  1 0.39366477E+02</asrwt>
<pdfrwt beam="1">  1        1 0.87151435E+00 0.30000000E+03</pdfrwt>
<pdfrwt beam="2">0</pdfrwt>
<totfact> 0.23913443E-04</totfact>
</mgrwt>
<clustering>
<clus scale="   39.366">  1  6  2 -1</clus>
<clus scale="  468.218">  4  5 -1 -1</clus>
<clus scale="  300.000">  1  4  2 -1</clus>
</clustering>
</event>
<event>
 6    1  0.1007353E-011  0.3000000E+03  0.7818608E-02  0.1093470E+00
          1   -1    0    0  502    0  0.00000000000E+00  0.00000000000E+00  0.22845668448E+03  0.22845668448E+03  0.00000000000E+00 0.  1.
         13   -1    0    0    0    0 -0.00000000000E+00 -0.00000000000E+00 -0.27500000000E+03  0.27500000000E+03  0.00000000000E+00 0.  1.
    9000005    2    1    2  501    0 -0.27321896225E+02 -0.18975890995E+02 -0.54563632327E+02  0.46923832780E+03  0.46486648390E+03 0.  0.
         13    1    3    3    0    0 -0.20673510753E+03  0.86455056042E+02 -0.11590837533E+03  0.25228680677E+03  0.00000000000E+00 0.  1.
          1    1    3    3  501    0  0.17941321130E+03 -0.10543094704E+03  0.61344743005E+02  0.21695152103E+03  0.00000000000E+00 0.  1.
         21    1    1    2  502  501  0.27321896225E+02  0.18975890995E+02  0.80203168098E+01  0.34218356684E+02  0.00000000000E+00 0. -1.
<scales pt_clust_4="550.00000" pt_clust_5="550.00000" pt_clust_6="33.26515"></scales>
<mgrwt>
<rscale>  0 0.30000000E+03</rscale>
<asrwt>  1 0.33265154E+02</asrwt>
<pdfrwt beam="1">  1        1 0.83075158E+00 0.30000000E+03</pdfrwt>
<pdfrwt beam="2">0</pdfrwt>
<totfact> 0.58833388E-04</totfact>
</mgrwt>
<clustering>
<clus scale="   33.265">  1  6  2 -1</clus>
<clus scale="  464.866">  4  5 -1 -1</clus>
<clus scale="  300.000">  1  4  2 -1</clus>
</clustering>
</event>
<event>
 6    1  0.1007353E-011  0.3000000E+03  0.7818608E-02  0.1093470E+00
          1   -1    0    0  502    0  0.00000000000E+00  0.00000000000E+00  0.23312706785E+03  0.23312706785E+03  0.00000000000E+00 0.  1.
         13   -1    0    0    0    0 -0.00000000000E+00 -0.00000000000E+00 -0.27500000000E+03  0.27500000000E+03  0.00000000000E+00 0.  1.
    9000005    2    1    2  501    0  0.37843131896E+02 -0.17656140892E+01 -0.53578089434E+02  0.46847570303E+03  0.46385736238E+03 0.  0.
         13    1    3    3    0    0  0.49795845189E+02 -0.10253980418E+03  0.18042356604E+03  0.21341673042E+03  0.00000000000E+00 0.  1.
          1    1    3    3  501    0 -0.11952713293E+02  0.10077419009E+03 -0.23400165548E+03  0.25505897261E+03  0.00000000000E+00 0.  1.
         21    1    1    2  502  501 -0.37843131896E+02  0.17656140892E+01  0.11705157282E+02  0.39651364817E+02  0.00000000000E+00 0.  1.
<scales pt_clust_4="550.00000" pt_clust_5="550.00000" pt_clust_6="37.88430"></scales>
<mgrwt>
<rscale>  0 0.30000000E+03</rscale>
<asrwt>  1 0.37884298E+02</asrwt>
<pdfrwt beam="1">  1        1 0.84773479E+00 0.30000000E+03</pdfrwt>
<pdfrwt beam="2">0</pdfrwt>
<totfact> 0.42087719E-04</totfact>
</mgrwt>
<clustering>
<clus scale="   37.884">  1  6  2 -1</clus>
<clus scale="  463.857">  4  5 -1 -1</clus>
<clus scale="  300.000">  1  4  2 -1</clus>
</clustering>
</event>
<event>
 6    1  0.1007353E-011  0.3000000E+03  0.7818608E-02  0.1093470E+00
          1   -1    0    0  502    0  0.00000000000E+00  0.00000000000E+00  0.23381641599E+03  0.23381641599E+03  0.00000000000E+00 0.  1.
         13   -1    0    0    0    0 -0.00000000000E+00 -0.00000000000E+00 -0.27500000000E+03  0.27500000000E+03  0.00000000000E+00 0.  1.
    9000005    2    1    2  501    0  0.28208859165E+02 -0.10366146541E+02 -0.62674313241E+02  0.47186985766E+03  0.46672250460E+03 0.  0.
         13    1    3    3    0    0 -0.15377279309E+03  0.92395904368E+02 -0.16086825552E+03  0.24095989433E+03  0.00000000000E+00 0.  1.
          3    1    3    3  501    0  0.18198165226E+03 -0.10276205091E+03  0.98193942281E+02  0.23090996333E+03  0.00000000000E+00 0.  1.
         21    1    1    2  502  501 -0.28208859165E+02  0.10366146541E+02  0.21490729231E+02  0.36946558329E+02  0.00000000000E+00 0.  1.
<scales pt_clust_4="550.00000" pt_clust_5="550.00000" pt_clust_6="30.05323"></scales>
<mgrwt>
<rscale>  0 0.30000000E+03</rscale>
<asrwt>  1 0.30053232E+02</asrwt>
<pdfrwt beam="1">  1        1 0.85024151E+00 0.30000000E+03</pdfrwt>
<pdfrwt beam="2">0</pdfrwt>
<totfact> 0.41674286E-04</totfact>
</mgrwt>
<clustering>
<clus scale="   30.053">  1  6  2 -1</clus>
<clus scale="  466.723">  4  5 -1 -1</clus>
<clus scale="  300.000">  1  4  2 -1</clus>
</clustering>
</event>
<event>
 6    1  0.1007353E-011  0.3000000E+03  0.7818608E-02  0.1093470E+00
          1   -1    0    0  502    0  0.00000000000E+00  0.00000000000E+00  0.23747303485E+03  0.23747303485E+03  0.00000000000E+00 0.  1.
         13   -1    0    0    0    0 -0.00000000000E+00 -0.00000000000E+00 -0.27500000000E+03  0.27500000000E+03  0.00000000000E+00 0.  1.
    9000005    2    1    2  501    0 -0.33851701467E+02  0.18567013833E+02 -0.56456842856E+02  0.46947289572E+03  0.46446394157E+03 0.  0.
         13    1    3    3    0    0  0.15323955287E+03 -0.62456129509E+02  0.11628513973E+03  0.20225074141E+03  0.00000000000E+00 0.  1.
          3    1    3    3  501    0 -0.18709125434E+03  0.81023143342E+02 -0.17274198259E+03  0.26722215431E+03  0.00000000000E+00 0.  1.
         21    1    1    2  502  501  0.33851701467E+02 -0.18567013833E+02  0.18929877703E+02  0.43000139124E+02  0.00000000000E+00 0. -1.
<scales pt_clust_4="550.00000" pt_clust_5="550.00000" pt_clust_6="38.60922"></scales>
<mgrwt>
<rscale>  0 0.30000000E+03</rscale>
<asrwt>  1 0.38609218E+02</asrwt>
<pdfrwt beam="1">  1        1 0.86353831E+00 0.30000000E+03</pdfrwt>
<pdfrwt beam="2">0</pdfrwt>
<totfact> 0.29093317E-04</totfact>
</mgrwt>
<clustering>
<clus scale="   38.609">  1  6  2 -1</clus>
<clus scale="  464.464">  4  5 -1 -1</clus>
<clus scale="  300.000">  1  4  2 -1</clus>
</clustering>
</event>
<event>
 6    1  0.1007353E-011  0.3000000E+03  0.7818608E-02  0.1093470E+00
          1   -1    0    0  502    0  0.00000000000E+00  0.00000000000E+00  0.22351158097E+03  0.22351158097E+03  0.00000000000E+00 0.  1.
         13   -1    0    0    0    0 -0.00000000000E+00 -0.00000000000E+00 -0.27500000000E+03  0.27500000000E+03  0.00000000000E+00 0.  1.
    9000005    2    1    2  501    0  0.24245009186E+02 -0.23142385620E+02 -0.52365254052E+02  0.46498309574E+03  0.46080773540E+03 0.  0.
         13    1    3    3    0    0 -0.28327756877E+02  0.16086361320E+03  0.12373848229E+03  0.20491650948E+03  0.00000000000E+00 0.  1.
          1    1    3    3  501    0  0.52572766063E+02 -0.18400599882E+03 -0.17610373634E+03  0.26006658625E+03  0.00000000000E+00 0.  1.
         21    1    1    2  502  501 -0.24245009186E+02  0.23142385620E+02  0.87683502672E+00  0.33528485237E+02  0.00000000000E+00 0. -1.
<scales pt_clust_4="550.00000" pt_clust_5="550.00000" pt_clust_6="33.51702"></scales>
<mgrwt>
<rscale>  0 0.30000000E+03</rscale>
<asrwt>  1 0.33517018E+02</asrwt>
<pdfrwt beam="1">  1        1 0.81276939E+00 0.30000000E+03</pdfrwt>
<pdfrwt beam="2">0</pdfrwt>
<totfact> 0.83624619E-04</totfact>
</mgrwt>
<clustering>
<clus scale="   33.517">  1  6  2 -1</clus>
<clus scale="  460.808">  4  5 -1 -1</clus>
<clus scale="  300.000">  1  4  2 -1</clus>
</clustering>
</event>
<event>
 6    1  0.1007353E-011  0.3000000E+03  0.7818608E-02  0.1093470E+00
          1   -1    0    0  502    0  0.00000000000E+00  0.00000000000E+00  0.24300959911E+03  0.24300959911E+03  0.00000000000E+00 0.  1.
         13   -1    0    0    0    0 -0.00000000000E+00 -0.00000000000E+00 -0.27500000000E+03  0.27500000000E+03  0.00000000000E+00 0.  1.
    9000005    2    1    2  501    0  0.28895762960E+02  0.24428632278E+02 -0.24490581345E+02  0.47943537864E+03  0.47731202638E+03 0.  0.
         13    1    3    3    0    0 -0.19742185524E+02 -0.10572319464E+03  0.19323752388E+03  0.22115127946E+03  0.00000000000E+00 0.  1.
          1    1    3    3  501    0  0.48637948484E+02  0.13015182692E+03 -0.21772810522E+03  0.25828409918E+03  0.00000000000E+00 0.  1.
         21    1    1    2  502  501 -0.28895762960E+02 -0.24428632278E+02 -0.74998195418E+01  0.38574220474E+02  0.00000000000E+00 0.  1.
<scales pt_clust_4="550.00000" pt_clust_5="550.00000" pt_clust_6="37.83814"></scales>
<mgrwt>
<rscale>  0 0.30000000E+03</rscale>
<asrwt>  1 0.37838137E+02</asrwt>
<pdfrwt beam="1">  1        1 0.88367127E+00 0.30000000E+03</pdfrwt>
<pdfrwt beam="2">0</pdfrwt>
<totfact> 0.17437050E-04</totfact>
</mgrwt>
<clustering>
<clus scale="   37.838">  1  6  2 -1</clus>
<clus scale="  477.312">  4  5 -1 -1</clus>
<clus scale="  300.000">  1  4  2 -1</clus>
</clustering>
</event>
<event>
 6    1  0.1007353E-011  0.3000000E+03  0.7818608E-02  0.1093470E+00
          1   -1    0    0  502    0  0.00000000000E+00  0.00000000000E+00  0.22228904241E+03  0.22228904241E+03  0.00000000000E+00 0.  1.
         13   -1    0    0    0    0 -0.00000000000E+00 -0.00000000000E+00 -0.27500000000E+03  0.27500000000E+03  0.00000000000E+00 0.  1.
    9000005    2    1    2  501    0 -0.30554659480E+02  0.13841397246E+02 -0.60167369689E+02  0.46292671457E+03  0.45777271565E+03 0.  0.
         13    1    3    3    0    0  0.12832177182E+03  0.28751920181E+02 -0.20755044100E+03  0.24570375577E+03  0.00000000000E+00 0.  1.
          3    1    3    3  501    0 -0.15887643131E+03 -0.14910522935E+02  0.14738307131E+03  0.21722295880E+03  0.00000000000E+00 0.  1.
         21    1    1    2  502  501  0.30554659480E+02 -0.13841397246E+02  0.74564121028E+01  0.34362327848E+02  0.00000000000E+00 0.  1.
<scales pt_clust_4="550.00000" pt_clust_5="550.00000" pt_clust_6="33.54358"></scales>
<mgrwt>
<rscale>  0 0.30000000E+03</rscale>
<asrwt>  1 0.33543576E+02</asrwt>
<pdfrwt beam="1">  1        1 0.80832379E+00 0.30000000E+03</pdfrwt>
<pdfrwt beam="2">0</pdfrwt>
<totfact> 0.90586551E-04</totfact>
</mgrwt>
<clustering>
<clus scale="   33.544">  1  6  2 -1</clus>
<clus scale="  457.773">  4  5 -1 -1</clus>
<clus scale="  300.000">  1  4  2 -1</clus>
</clustering>
</event>
<event>
 6    1  0.1007353E-011  0.3000000E+03  0.7818608E-02  0.1093470E+00
          1   -1    0    0  502    0  0.00000000000E+00  0.00000000000E+00  0.23823421705E+03  0.23823421705E+03  0.00000000000E+00 0.  1.
         13   -1    0    0    0    0 -0.00000000000E+00 -0.00000000000E+00 -0.27500000000E+03  0.27500000000E+03  0.00000000000E+00 0.  1.
    9000005    2    1    2  501    0  0.99293968037E+01 -0.39550740861E+02 -0.61800470715E+02  0.46538456068E+03  0.45945689364E+03 0.  0.
         13    1    3    3    0    0 -0.15874386001E+03  0.13934701827E+03  0.24887627094E+01  0.21124251118E+03  0.00000000000E+00 0.  1.
          3    1    3    3  501    0  0.16867325681E+03 -0.17889775913E+03 -0.64289233424E+02  0.25414204949E+03  0.00000000000E+00 0.  1.
         21    1    1    2  502  501 -0.99293968037E+01  0.39550740861E+02  0.25034687767E+02  0.47849656374E+02  0.00000000000E+00 0. -1.
<scales pt_clust_4="550.00000" pt_clust_5="550.00000" pt_clust_6="40.77811"></scales>
<mgrwt>
<rscale>  0 0.30000000E+03</rscale>
<asrwt>  1 0.40778107E+02</asrwt>
<pdfrwt beam="1">  1        1 0.86630624E+00 0.30000000E+03</pdfrwt>
<pdfrwt beam="2">0</pdfrwt>
<totfact> 0.26896387E-04</totfact>
</mgrwt>
<clustering>
<clus scale="   40.778">  1  6  2 -1</clus>
<clus scale="  459.457">  4  5 -1 -1</clus>
<clus scale="  300.000">  1  4  2 -1</clus>
</clustering>
</event>
<event>
 6    1  0.1007353E-011  0.3000000E+03  0.7818608E-02  0.1093470E+00
          1   -1    0    0  502    0  0.00000000000E+00  0.00000000000E+00  0.23698091300E+03  0.23698091300E+03  0.00000000000E+00 0.  1.
         13   -1    0    0    0    0 -0.00000000000E+00 -0.00000000000E+00 -0.27500000000E+03  0.27500000000E+03  0.00000000000E+00 0.  1.
    9000005    2    1    2  501    0  0.29862226821E+02 -0.10090311312E+02 -0.55420023693E+02  0.47597591931E+03  0.47168647401E+03 0.  0.
         13    1    3    3    0    0 -0.58268908061E+02 -0.76505564951E+01  0.19858837221E+03  0.20710175817E+03  0.00000000000E+00 0.  1.
          3    1    3    3  501    0  0.88131134882E+02 -0.24397548165E+01 -0.25400839590E+03  0.26887416114E+03  0.00000000000E+00 0.  1.
         21    1    1    2  502  501 -0.29862226821E+02  0.10090311312E+02  0.17400936698E+02  0.36004993696E+02  0.00000000000E+00 0.  1.
<scales pt_clust_4="550.00000" pt_clust_5="550.00000" pt_clust_6="31.52090"></scales>
<mgrwt>
<rscale>  0 0.30000000E+03</rscale>
<asrwt>  1 0.31520897E+02</asrwt>
<pdfrwt beam="1">  1        1 0.86174877E+00 0.30000000E+03</pdfrwt>
<pdfrwt beam="2">0</pdfrwt>
<totfact> 0.31596253E-04</totfact>
</mgrwt>
<clustering>
<clus scale="   31.521">  1  6  2 -1</clus>
<clus scale="  471.686">  4  5 -1 -1</clus>
<clus scale="  300.000">  1  4  2 -1</clus>
</clustering>
</event>
<event>
 6    1  0.1007353E-011  0.3000000E+03  0.7818608E-02  0.1093470E+00
          1   -1    0    0  502    0  0.00000000000E+00  0.00000000000E+00  0.22163190326E+03  0.22163190326E+03  0.00000000000E+00 0.  1.
         13   -1    0    0    0    0 -0.00000000000E+00 -0.00000000000E+00 -0.27500000000E+03  0.27500000000E+03  0.00000000000E+00 0.  1.
    9000005    2    1    2  501    0  0.28195350955E+02  0.12216378527E+02 -0.62976395269E+02  0.46443660671E+03  0.45911993811E+03 0.  0.
         13    1    3    3    0    0 -0.85889484472E+02  0.96169974668E+02 -0.21873031082E+03  0.25390670814E+03  0.00000000000E+00 0.  1.
          1    1    3    3  501    0  0.11408483543E+03 -0.83953596141E+02  0.15575391555E+03  0.21052989856E+03  0.00000000000E+00 0.  1.
         21    1    1    2  502  501 -0.28195350955E+02 -0.12216378527E+02  0.96082985335E+01  0.32195296559E+02  0.00000000000E+00 0. -1.
<scales pt_clust_4="550.00000" pt_clust_5="550.00000" pt_clust_6="30.72813"></scales>
<mgrwt>
<rscale>  0 0.30000000E+03</rscale>
<asrwt>  1 0.30728126E+02</asrwt>
<pdfrwt beam="1">  1        1 0.80593419E+00 0.30000000E+03</pdfrwt>
<pdfrwt beam="2">0</pdfrwt>
<totfact> 0.96085299E-04</totfact>
</mgrwt>
<clustering>
<clus scale="   30.728">  1  6  2 -1</clus>
<clus scale="  459.120">  4  5 -1 -1</clus>
<clus scale="  300.000">  1  4  2 -1</clus>
</clustering>
</event>
<event>
 6    1  0.1007353E-011  0.3000000E+03  0.7818608E-02  0.1093470E+00
          1   -1    0    0  502    0  0.00000000000E+00  0.00000000000E+00  0.23528258537E+03  0.23528258537E+03  0.00000000000E+00 0.  1.
         13   -1    0    0    0    0 -0.00000000000E+00 -0.00000000000E+00 -0.27500000000E+03  0.27500000000E+03  0.00000000000E+00 0.  1.
    9000005    2    1    2  501    0 -0.27615002728E+02 -0.17080721486E+02 -0.17469530889E+02  0.47092133852E+03  0.46947564702E+03 0.  0.
         13    1    3    3    0    0 -0.55111141545E+02 -0.21751355691E+03 -0.10830192553E+03  0.24915596007E+03  0.00000000000E+00 0.  1.
          3    1    3    3  501    0  0.27496138817E+02  0.20043283543E+03  0.90832394640E+02  0.22176537846E+03  0.00000000000E+00 0.  1.
         21    1    1    2  502  501  0.27615002728E+02  0.17080721486E+02 -0.22247883743E+02  0.39361246845E+02  0.00000000000E+00 0.  1.
<scales pt_clust_4="550.00000" pt_clust_5="550.00000" pt_clust_6="32.47061"></scales>
<mgrwt>
<rscale>  0 0.30000000E+03</rscale>
<asrwt>  1 0.32470609E+02</asrwt>
<pdfrwt beam="1">  1        1 0.85557304E+00 0.30000000E+03</pdfrwt>
<pdfrwt beam="2">0</pdfrwt>
<totfact> 0.36469022E-04</totfact>
</mgrwt>
<clustering>
<clus scale="   32.471">  1  6  2 -1</clus>
<clus scale="  469.476">  4  5 -1 -1</clus>
<clus scale="  300.000">  1  4  2 -1</clus>
</clustering>
</event>
<event>
 6    1  0.1007353E-011  0.3000000E+03  0.7818608E-02  0.1093470E+00
          1   -1    0    0  502    0  0.00000000000E+00  0.00000000000E+00  0.25437684788E+03  0.25437684788E+03  0.00000000000E+00 0.  1.
         13   -1    0    0    0    0 -0.00000000000E+00 -0.00000000000E+00 -0.27500000000E+03  0.27500000000E+03  0.00000000000E+00 0.  1.
    9000005    2    1    2  501    0  0.41749032959E+01  0.36691591544E+02 -0.50083473714E+02  0.48213689386E+03  0.47810451511E+03 0.  0.
         13    1    3    3    0    0  0.13928502232E+03 -0.16002270442E+03 -0.10580965091E+03  0.23707227927E+03  0.00000000000E+00 0.  1.
          1    1    3    3  501    0 -0.13511011903E+03  0.19671429596E+03  0.55726177192E+02  0.24506461459E+03  0.00000000000E+00 0.  1.
         21    1    1    2  502  501 -0.41749032959E+01 -0.36691591544E+02  0.29460321591E+02  0.47239954020E+02  0.00000000000E+00 0.  1.
<scales pt_clust_4="550.00000" pt_clust_5="550.00000" pt_clust_6="36.92835"></scales>
<mgrwt>
<rscale>  0 0.30000000E+03</rscale>
<asrwt>  1 0.36928346E+02</asrwt>
<pdfrwt beam="1">  1        1 0.92500672E+00 0.30000000E+03</pdfrwt>
<pdfrwt beam="2">0</pdfrwt>
<totfact> 0.32458122E-05</totfact>
</mgrwt>
<clustering>
<clus scale="   36.928">  1  6  2 -1</clus>
<clus scale="  478.105">  4  5 -1 -1</clus>
<clus scale="  300.000">  1  4  2 -1</clus>
</clustering>
</event>
<event>
 6    1  0.1007353E-011  0.3000000E+03  0.7818608E-02  0.1093470E+00
          1   -1    0    0  502    0  0.00000000000E+00  0.00000000000E+00  0.24708249243E+03  0.24708249243E+03  0.00000000000E+00 0.  1.
         13   -1    0    0    0    0 -0.00000000000E+00 -0.00000000000E+00 -0.27500000000E+03  0.27500000000E+03  0.00000000000E+00 0.  1.
    9000005    2    1    2  501    0 -0.62767560286E+01 -0.39133534084E+02 -0.27598128520E+02  0.48244749326E+03  0.48002405762E+03 0.  0.
         13    1    3    3    0    0 -0.27945472873E+01 -0.25422575165E+03  0.39087225418E+02  0.25722821286E+03  0.00000000000E+00 0.  1.
          1    1    3    3  501    0 -0.34822087413E+01  0.21509221757E+03 -0.66685353938E+02  0.22521928040E+03  0.00000000000E+00 0.  1.
         21    1    1    2  502  501  0.62767560286E+01  0.39133534084E+02 -0.31937905112E+00  0.39634999169E+02  0.00000000000E+00 0.  1.
<scales pt_clust_4="550.00000" pt_clust_5="550.00000" pt_clust_6="39.63371"></scales>
<mgrwt>
<rscale>  0 0.30000000E+03</rscale>
<asrwt>  1 0.39633712E+02</asrwt>
<pdfrwt beam="1">  1        1 0.89848179E+00 0.30000000E+03</pdfrwt>
<pdfrwt beam="2">0</pdfrwt>
<totfact> 0.11258215E-04</totfact>
</mgrwt>
<clustering>
<clus scale="   39.634">  1  6  2 -1</clus>
<clus scale="  480.024">  4  5 -1 -1</clus>
<clus scale="  300.000">  1  4  2 -1</clus>
</clustering>
</event>
<event>
 6    1  0.1007353E-011  0.3000000E+03  0.7818608E-02  0.1093470E+00
          1   -1    0    0  502    0  0.00000000000E+00  0.00000000000E+00  0.23416809385E+03  0.23416809385E+03  0.00000000000E+00 0.  1.
         13   -1    0    0    0    0 -0.00000000000E+00 -0.00000000000E+00 -0.27500000000E+03  0.27500000000E+03  0.00000000000E+00 0.  1.
    9000005    2    1    2  501    0 -0.33554519575E+02  0.33584353133E+02 -0.40121970828E+02  0.46168842908E+03  0.45748510188E+03 0.  0.
         13    1    3    3    0    0  0.34819087396E+02 -0.11870134610E+03  0.15925572704E+03  0.20165506443E+03  0.00000000000E+00 0.  1.
          1    1    3    3  501    0 -0.68373606970E+02  0.15228569923E+03 -0.19937769787E+03  0.26003336465E+03  0.00000000000E+00 0.  1.
         21    1    1    2  502  501  0.33554519575E+02 -0.33584353133E+02 -0.70993531816E+00  0.47479664778E+02  0.00000000000E+00 0. -1.
<scales pt_clust_4="550.00000" pt_clust_5="550.00000" pt_clust_6="47.47436"></scales>
<mgrwt>
<rscale>  0 0.30000000E+03</rscale>
<asrwt>  1 0.47474357E+02</asrwt>
<pdfrwt beam="1">  1        1 0.85152034E+00 0.30000000E+03</pdfrwt>
<pdfrwt beam="2">0</pdfrwt>
<totfact> 0.37249006E-04</totfact>
</mgrwt>
<clustering>
<clus scale="   47.474">  1  6  2 -1</clus>
<clus scale="  457.485">  4  5 -1 -1</clus>
<clus scale="  300.000">  1  4  2 -1</clus>
</clustering>
</event>
<event>
 6    1  0.1007353E-011  0.3000000E+03  0.7818608E-02  0.1093470E+00
          1   -1    0    0  502    0  0.00000000000E+00  0.00000000000E+00  0.24186167056E+03  0.24186167056E+03  0.00000000000E+00 0.  1.
         13   -1    0    0    0    0 -0.00000000000E+00 -0.00000000000E+00 -0.27500000000E+03  0.27500000000E+03  0.00000000000E+00 0.  1.
    9000005    2    1    2  501    0 -0.38136103810E+02  0.98057575239E+01 -0.58450066911E+02  0.47005142224E+03  0.46473800569E+03 0.  0.
         13    1    3    3    0    0 -0.78760057616E+02 -0.21868874997E+03 -0.50364618966E+02  0.23783294742E+03  0.00000000000E+00 0.  1.
          3    1    3    3  501    0  0.40623953807E+02  0.22849450749E+03 -0.80854479449E+01  0.23221847481E+03  0.00000000000E+00 0.  1.
         21    1    1    2  502  501  0.38136103810E+02 -0.98057575239E+01  0.25311737475E+02  0.46810248326E+02  0.00000000000E+00 0. -1.
<scales pt_clust_4="550.00000" pt_clust_5="550.00000" pt_clust_6="39.37658"></scales>
<mgrwt>
<rscale>  0 0.30000000E+03</rscale>
<asrwt>  1 0.39376583E+02</asrwt>
<pdfrwt beam="1">  1        1 0.87949698E+00 0.30000000E+03</pdfrwt>
<pdfrwt beam="2">0</pdfrwt>
<totfact> 0.19587389E-04</totfact>
</mgrwt>
<clustering>
<clus scale="   39.377">  1  6  2 -1</clus>
<clus scale="  464.738">  4  5 -1 -1</clus>
<clus scale="  300.000">  1  4  2 -1</clus>
</clustering>
</event>
<event>
 6    1  0.1007353E-011  0.3000000E+03  0.7818608E-02  0.1093470E+00
          1   -1    0    0  502    0  0.00000000000E+00  0.00000000000E+00  0.23734241311E+03  0.23734241311E+03  0.00000000000E+00 0.  1.
         13   -1    0    0    0    0 -0.00000000000E+00 -0.00000000000E+00 -0.27500000000E+03  0.27500000000E+03  0.00000000000E+00 0.  1.
    9000005    2    1    2  501    0 -0.40286159335E+02 -0.29839221167E+02 -0.38142467220E+02  0.46220670864E+03  0.45789391779E+03 0.  0.
         13    1    3    3    0    0  0.23144643197E+02 -0.63285151463E+02 -0.23932288029E+03  0.24862848979E+03  0.00000000000E+00 0.  1.
          3    1    3    3  501    0 -0.63430802532E+02  0.33445930296E+02  0.20118041307E+03  0.21357821885E+03  0.00000000000E+00 0.  1.
         21    1    1    2  502  501  0.40286159335E+02  0.29839221167E+02  0.48488032804E+00  0.50135704471E+02  0.00000000000E+00 0.  1.
<scales pt_clust_4="550.00000" pt_clust_5="550.00000" pt_clust_6="50.13336"></scales>
<mgrwt>
<rscale>  0 0.30000000E+03</rscale>
<asrwt>  1 0.50133360E+02</asrwt>
<pdfrwt beam="1">  1        1 0.86306332E+00 0.30000000E+03</pdfrwt>
<pdfrwt beam="2">0</pdfrwt>
<totfact> 0.28092138E-04</totfact>
</mgrwt>
<clustering>
<clus scale="   50.133">  1  6  2 -1</clus>
<clus scale="  457.894">  4  5 -1 -1</clus>
<clus scale="  300.000">  1  4  2 -1</clus>
</clustering>
</event>
<event>
 6    1  0.1007353E-011  0.3000000E+03  0.7818608E-02  0.1093470E+00
          1   -1    0    0  502    0  0.00000000000E+00  0.00000000000E+00  0.23193998542E+03  0.23193998542E+03  0.00000000000E+00 0.  1.
         13   -1    0    0    0    0 -0.00000000000E+00 -0.00000000000E+00 -0.27500000000E+03  0.27500000000E+03  0.00000000000E+00 0.  1.
    9000005    2    1    2  501    0  0.34651094752E+02  0.16301611772E+02 -0.65524860263E+02  0.46254279851E+03  0.45627392236E+03 0.  0.
         13    1    3    3    0    0  0.52260185515E+02  0.23231051294E+03 -0.60844211863E+02  0.24576679908E+03  0.00000000000E+00 0.  1.
          3    1    3    3  501    0 -0.17609090763E+02 -0.21600890117E+03 -0.46806484001E+01  0.21677599943E+03  0.00000000000E+00 0.  1.
         21    1    1    2  502  501 -0.34651094752E+02 -0.16301611772E+02  0.22464845685E+02  0.44397186910E+02  0.00000000000E+00 0. -1.
<scales pt_clust_4="550.00000" pt_clust_5="550.00000" pt_clust_6="38.29414"></scales>
<mgrwt>
<rscale>  0 0.30000000E+03</rscale>
<asrwt>  1 0.38294137E+02</asrwt>
<pdfrwt beam="1">  1        1 0.84341813E+00 0.30000000E+03</pdfrwt>
<pdfrwt beam="2">0</pdfrwt>
<totfact> 0.45851579E-04</totfact>
</mgrwt>
<clustering>
<clus scale="   38.294">  1  6  2 -1</clus>
<clus scale="  456.274">  4  5 -1 -1</clus>
<clus scale="  300.000">  1  4  2 -1</clus>
</clustering>
</event>
<event>
 6    1  0.1007353E-011  0.3000000E+03  0.7818608E-02  0.1093470E+00
          1   -1    0    0  502    0  0.00000000000E+00  0.00000000000E+00  0.22351075591E+03  0.22351075591E+03  0.00000000000E+00 0.  1.
         13   -1    0    0    0    0 -0.00000000000E+00 -0.00000000000E+00 -0.27500000000E+03  0.27500000000E+03  0.00000000000E+00 0.  1.
    9000005    2    1    2  501    0  0.20553954201E+02  0.29802385112E+02 -0.55090849572E+02  0.46212918429E+03  0.45740325105E+03 0.  0.
         13    1    3    3    0    0  0.14340853647E+03  0.95439612871E+02 -0.19808213393E+03  0.26250954234E+03  0.00000000000E+00 0.  1.
          1    1    3    3  501    0 -0.12285458227E+03 -0.65637227760E+02  0.14299128435E+03  0.19961964195E+03  0.00000000000E+00 0.  1.
         21    1    1    2  502  501 -0.20553954201E+02 -0.29802385112E+02  0.36016054843E+01  0.36381571622E+02  0.00000000000E+00 0.  1.
<scales pt_clust_4="550.00000" pt_clust_5="550.00000" pt_clust_6="36.20286"></scales>
<mgrwt>
<rscale>  0 0.30000000E+03</rscale>
<asrwt>  1 0.36202862E+02</asrwt>
<pdfrwt beam="1">  1        1 0.81276639E+00 0.30000000E+03</pdfrwt>
<pdfrwt beam="2">0</pdfrwt>
<totfact> 0.82431090E-04</totfact>
</mgrwt>
<clustering>
<clus scale="   36.203">  1  6  2 -1</clus>
<clus scale="  457.403">  4  5 -1 -1</clus>
<clus scale="  300.000">  1  4  2 -1</clus>
</clustering>
</event>
<event>
 6    1  0.1007353E-011  0.3000000E+03  0.7818608E-02  0.1093470E+00
          1   -1    0    0  502    0  0.00000000000E+00  0.00000000000E+00  0.24363013982E+03  0.24363013982E+03  0.00000000000E+00 0.  1.
         13   -1    0    0    0    0 -0.00000000000E+00 -0.00000000000E+00 -0.27500000000E+03  0.27500000000E+03  0.00000000000E+00 0.  1.
    9000005    2    1    2  501    0  0.28231852899E+02 -0.14386096097E+02 -0.62206939468E+02  0.47441563159E+03  0.46925098924E+03 0.  0.
         13    1    3    3    0    0  0.11322482606E+03  0.11202637954E+03 -0.20906279390E+03  0.26282508013E+03  0.00000000000E+00 0.  1.
          1    1    3    3  501    0 -0.84992973166E+02 -0.12641247564E+03  0.14685585444E+03  0.21159055146E+03  0.00000000000E+00 0.  1.
         21    1    1    2  502  501 -0.28231852899E+02  0.14386096097E+02  0.30837079289E+02  0.44214508231E+02  0.00000000000E+00 0.  1.
<scales pt_clust_4="550.00000" pt_clust_5="550.00000" pt_clust_6="31.68592"></scales>
<mgrwt>
<rscale>  0 0.30000000E+03</rscale>
<asrwt>  1 0.31685916E+02</asrwt>
<pdfrwt beam="1">  1        1 0.88592778E+00 0.30000000E+03</pdfrwt>
<pdfrwt beam="2">0</pdfrwt>
<totfact> 0.16791916E-04</totfact>
</mgrwt>
<clustering>
<clus scale="   31.686">  1  6  2 -1</clus>
<clus scale="  469.251">  4  5 -1 -1</clus>
<clus scale="  300.000">  1  4  2 -1</clus>
</clustering>
</event>
<event>
 6    1  0.1007353E-011  0.3000000E+03  0.7818608E-02  0.1093470E+00
          1   -1    0    0  502    0  0.00000000000E+00  0.00000000000E+00  0.24292663302E+03  0.24292663302E+03  0.00000000000E+00 0.  1.
         13   -1    0    0    0    0 -0.00000000000E+00 -0.00000000000E+00 -0.27500000000E+03  0.27500000000E+03  0.00000000000E+00 0.  1.
    9000005    2    1    2  501    0 -0.35855647347E+02 -0.26476171982E+02 -0.53606907247E+02  0.46842604226E+03  0.46320906881E+03 0.  0.
         13    1    3    3    0    0 -0.36998276472E+02 -0.17471340856E+03 -0.19440041276E+03  0.26397948419E+03  0.00000000000E+00 0.  1.
          3    1    3    3  501    0  0.11426291253E+01  0.14823723658E+03  0.14079350551E+03  0.20444655807E+03  0.00000000000E+00 0.  1.
         21    1    1    2  502  501  0.35855647347E+02  0.26476171982E+02  0.21533540269E+02  0.49500590765E+02  0.00000000000E+00 0. -1.
<scales pt_clust_4="550.00000" pt_clust_5="550.00000" pt_clust_6="44.57146"></scales>
<mgrwt>
<rscale>  0 0.30000000E+03</rscale>
<asrwt>  1 0.44571461E+02</asrwt>
<pdfrwt beam="1">  1        1 0.88336957E+00 0.30000000E+03</pdfrwt>
<pdfrwt beam="2">0</pdfrwt>
<totfact> 0.17084738E-04</totfact>
</mgrwt>
<clustering>
<clus scale="   44.571">  1  6  2 -1</clus>
<clus scale="  463.209">  4  5 -1 -1</clus>
<clus scale="  300.000">  1  4  2 -1</clus>
</clustering>
</event>
<event>
 6    1  0.1007353E-011  0.3000000E+03  0.7818608E-02  0.1093470E+00
          1   -1    0    0  502    0  0.00000000000E+00  0.00000000000E+00  0.22091705047E+03  0.22091705047E+03  0.00000000000E+00 0.  1.
         13   -1    0    0    0    0 -0.00000000000E+00 -0.00000000000E+00 -0.27500000000E+03  0.27500000000E+03  0.00000000000E+00 0.  1.
    9000005    2    1    2  501    0  0.86929644558E+01  0.30764372866E+02 -0.36728810262E+02  0.45954150348E+03  0.45695445468E+03 0.  0.
         13    1    3    3    0    0 -0.14584195622E+03  0.49961833745E+02 -0.18753410882E+03  0.24276553091E+03  0.00000000000E+00 0.  1.
          3    1    3    3  501    0  0.15453492068E+03 -0.19197460879E+02  0.15080529856E+03  0.21677597258E+03  0.00000000000E+00 0.  1.
         21    1    1    2  502  501 -0.86929644558E+01 -0.30764372866E+02 -0.17354139268E+02  0.36375546987E+02  0.00000000000E+00 0.  1.
<scales pt_clust_4="550.00000" pt_clust_5="550.00000" pt_clust_6="31.96897"></scales>
<mgrwt>
<rscale>  0 0.30000000E+03</rscale>
<asrwt>  1 0.31968974E+02</asrwt>
<pdfrwt beam="1">  1        1 0.80333473E+00 0.30000000E+03</pdfrwt>
<pdfrwt beam="2">0</pdfrwt>
<totfact> 0.99752346E-04</totfact>
</mgrwt>
<clustering>
<clus scale="   31.969">  1  6  2 -1</clus>
<clus scale="  456.954">  4  5 -1 -1</clus>
<clus scale="  300.000">  1  4  2 -1</clus>
</clustering>
</event>
<event>
 6    1  0.1007353E-011  0.3000000E+03  0.7818608E-02  0.1093470E+00
          1   -1    0    0  502    0  0.00000000000E+00  0.00000000000E+00  0.23461699370E+03  0.23461699370E+03  0.00000000000E+00 0.  1.
         13   -1    0    0    0    0 -0.00000000000E+00 -0.00000000000E+00 -0.27500000000E+03  0.27500000000E+03  0.00000000000E+00 0.  1.
    9000005    2    1    2  501    0  0.52384284487E+01  0.29827647753E+02 -0.58847663355E+02  0.47414766521E+03  0.46950594378E+03 0.  0.
         13    1    3    3    0    0  0.95767028362E+02 -0.64788290335E+02  0.17287897111E+03  0.20798073213E+03  0.00000000000E+00 0.  1.
          3    1    3    3  501    0 -0.90528599913E+02  0.94615938088E+02 -0.23172663447E+03  0.26616693308E+03  0.00000000000E+00 0.  1.
         21    1    1    2  502  501 -0.52384284487E+01 -0.29827647753E+02  0.18464657053E+02  0.35469328485E+02  0.00000000000E+00 0.  1.
<scales pt_clust_4="550.00000" pt_clust_5="550.00000" pt_clust_6="30.28415"></scales>
<mgrwt>
<rscale>  0 0.30000000E+03</rscale>
<asrwt>  1 0.30284149E+02</asrwt>
<pdfrwt beam="1">  1        1 0.85315270E+00 0.30000000E+03</pdfrwt>
<pdfrwt beam="2">0</pdfrwt>
<totfact> 0.39034094E-04</totfact>
</mgrwt>
<clustering>
<clus scale="   30.284">  1  6  2 -1</clus>
<clus scale="  469.506">  4  5 -1 -1</clus>
<clus scale="  300.000">  1  4  2 -1</clus>
</clustering>
</event>
<event>
 6    1  0.1007353E-011  0.3000000E+03  0.7818608E-02  0.1093470E+00
          1   -1    0    0  502    0  0.00000000000E+00  0.00000000000E+00  0.23452076152E+03  0.23452076152E+03  0.00000000000E+00 0.  1.
         13   -1    0    0    0    0 -0.00000000000E+00 -0.00000000000E+00 -0.27500000000E+03  0.27500000000E+03  0.00000000000E+00 0.  1.
    9000005    2    1    2  501    0 -0.33851625897E+02  0.83294488784E+01 -0.71164545642E+02  0.46307832005E+03  0.45624754865E+03 0.  0.
         13    1    3    3    0    0 -0.12752151846E+03 -0.23120323604E+02 -0.23695231731E+03  0.27007903975E+03  0.00000000000E+00 0.  1.
          3    1    3    3  501    0  0.93669892562E+02  0.31449772482E+02  0.16578777167E+03  0.19299928030E+03  0.00000000000E+00 0.  1.
         21    1    1    2  502  501  0.33851625897E+02 -0.83294488784E+01  0.30685307161E+02  0.46442441474E+02  0.00000000000E+00 0. -1.
<scales pt_clust_4="550.00000" pt_clust_5="550.00000" pt_clust_6="34.86133"></scales>
<mgrwt>
<rscale>  0 0.30000000E+03</rscale>
<asrwt>  1 0.34861329E+02</asrwt>
<pdfrwt beam="1">  1        1 0.85280277E+00 0.30000000E+03</pdfrwt>
<pdfrwt beam="2">0</pdfrwt>
<totfact> 0.38302473E-04</totfact>
</mgrwt>
<clustering>
<clus scale="   34.861">  1  6  2 -1</clus>
<clus scale="  456.248">  4  5 -1 -1</clus>
<clus scale="  300.000">  1  4  2 -1</clus>
</clustering>
</event>
<event>
 6    1  0.1007353E-011  0.3000000E+03  0.7818608E-02  0.1093470E+00
          1   -1    0    0  502    0  0.00000000000E+00  0.00000000000E+00  0.24866110916E+03  0.24866110916E+03  0.00000000000E+00 0.  1.
         13   -1    0    0    0    0 -0.00000000000E+00 -0.00000000000E+00 -0.27500000000E+03  0.27500000000E+03  0.00000000000E+00 0.  1.
    9000005    2    1    2  501    0  0.25919477248E+02 -0.17125692675E+02 -0.45409059336E+02  0.48720867472E+03  0.48409214143E+03 0.  0.
         13    1    3    3    0    0 -0.52634813792E+02  0.14259541085E+03 -0.20017200511E+03  0.25134181198E+03  0.00000000000E+00 0.  1.
          3    1    3    3  501    0  0.78554291040E+02 -0.15972110353E+03  0.15476294578E+03  0.23586686274E+03  0.00000000000E+00 0.  1.
         21    1    1    2  502  501 -0.25919477248E+02  0.17125692675E+02  0.19070168496E+02  0.36452434443E+02  0.00000000000E+00 0.  1.
<scales pt_clust_4="550.00000" pt_clust_5="550.00000" pt_clust_6="31.06620"></scales>
<mgrwt>
<rscale>  0 0.30000000E+03</rscale>
<asrwt>  1 0.31066198E+02</asrwt>
<pdfrwt beam="1">  1        1 0.90422222E+00 0.30000000E+03</pdfrwt>
<pdfrwt beam="2">0</pdfrwt>
<totfact> 0.97734835E-05</totfact>
</mgrwt>
<clustering>
<clus scale="   31.066">  1  6  2 -1</clus>
<clus scale="  484.092">  4  5 -1 -1</clus>
<clus scale="  300.000">  1  4  2 -1</clus>
</clustering>
</event>
<event>
 6    1  0.1007353E-011  0.3000000E+03  0.7818608E-02  0.1093470E+00
          1   -1    0    0  502    0  0.00000000000E+00  0.00000000000E+00  0.22377278202E+03  0.22377278202E+03  0.00000000000E+00 0.  1.
         13   -1    0    0    0    0 -0.00000000000E+00 -0.00000000000E+00 -0.27500000000E+03  0.27500000000E+03  0.00000000000E+00 0.  1.
    9000005    2    1    2  501    0  0.31597492529E+01  0.37713621809E+02 -0.45840348665E+02  0.46054557121E+03  0.45669309641E+03 0.  0.
         13    1    3    3    0    0 -0.21123309148E+03  0.74138675565E+02  0.38773839221E+02  0.22719897173E+03  0.00000000000E+00 0.  1.
          3    1    3    3  501    0  0.21439284073E+03 -0.36425053755E+02 -0.84614187886E+02  0.23334659948E+03  0.00000000000E+00 0.  1.
         21    1    1    2  502  501 -0.31597492529E+01 -0.37713621809E+02 -0.53868693123E+01  0.38227210810E+02  0.00000000000E+00 0. -1.
<scales pt_clust_4="550.00000" pt_clust_5="550.00000" pt_clust_6="37.84578"></scales>
<mgrwt>
<rscale>  0 0.30000000E+03</rscale>
<asrwt>  1 0.37845775E+02</asrwt>
<pdfrwt beam="1">  1        1 0.81371921E+00 0.30000000E+03</pdfrwt>
<pdfrwt beam="2">0</pdfrwt>
<totfact> 0.80339357E-04</totfact>
</mgrwt>
<clustering>
<clus scale="   37.846">  1  6  2 -1</clus>
<clus scale="  456.693">  4  5 -1 -1</clus>
<clus scale="  300.000">  1  4  2 -1</clus>
</clustering>
</event>
<event>
 6    1  0.1007353E-011  0.3000000E+03  0.7818608E-02  0.1093470E+00
          1   -1    0    0  502    0  0.00000000000E+00  0.00000000000E+00  0.24044547644E+03  0.24044547644E+03  0.00000000000E+00 0.  1.
         13   -1    0    0    0    0 -0.00000000000E+00 -0.00000000000E+00 -0.27500000000E+03  0.27500000000E+03  0.00000000000E+00 0.  1.
    9000005    2    1    2  501    0 -0.30713159098E+02 -0.16064995166E+02 -0.38325440726E+02  0.48057999168E+03  0.47779379107E+03 0.  0.
         13    1    3    3    0    0 -0.21760724667E+03  0.72235949620E+02  0.79473060968E+02  0.24266625979E+03  0.00000000000E+00 0.  1.
          3    1    3    3  501    0  0.18689408757E+03 -0.88300944786E+02 -0.11779850169E+03  0.23791373189E+03  0.00000000000E+00 0.  1.
         21    1    1    2  502  501  0.30713159098E+02  0.16064995166E+02  0.37709171654E+01  0.34865484763E+02  0.00000000000E+00 0. -1.
<scales pt_clust_4="550.00000" pt_clust_5="550.00000" pt_clust_6="34.66096"></scales>
<mgrwt>
<rscale>  0 0.30000000E+03</rscale>
<asrwt>  1 0.34660961E+02</asrwt>
<pdfrwt beam="1">  1        1 0.87434719E+00 0.30000000E+03</pdfrwt>
<pdfrwt beam="2">0</pdfrwt>
<totfact> 0.22892875E-04</totfact>
</mgrwt>
<clustering>
<clus scale="   34.661">  1  6  2 -1</clus>
<clus scale="  477.794">  4  5 -1 -1</clus>
<clus scale="  300.000">  1  4  2 -1</clus>
</clustering>
</event>
<event>
 6    1  0.1007353E-011  0.3000000E+03  0.7818608E-02  0.1093470E+00
          1   -1    0    0  502    0  0.00000000000E+00  0.00000000000E+00  0.23494643975E+03  0.23494643975E+03  0.00000000000E+00 0.  1.
         13   -1    0    0    0    0 -0.00000000000E+00 -0.00000000000E+00 -0.27500000000E+03  0.27500000000E+03  0.00000000000E+00 0.  1.
    9000005    2    1    2  501    0 -0.12478958614E+02  0.29580687882E+02 -0.60901074629E+02  0.47166641416E+03  0.46661496316E+03 0.  0.
         13    1    3    3    0    0  0.80239346019E+02 -0.22729916580E+02 -0.24510957203E+03  0.25890867900E+03  0.00000000000E+00 0.  1.
          1    1    3    3  501    0 -0.92718304633E+02  0.52310604461E+02  0.18420849741E+03  0.21275773516E+03  0.00000000000E+00 0.  1.
         21    1    1    2  502  501  0.12478958614E+02 -0.29580687882E+02  0.20847514375E+02  0.38280025591E+02  0.00000000000E+00 0. -1.
<scales pt_clust_4="550.00000" pt_clust_5="550.00000" pt_clust_6="32.10516"></scales>
<mgrwt>
<rscale>  0 0.30000000E+03</rscale>
<asrwt>  1 0.32105163E+02</asrwt>
<pdfrwt beam="1">  1        1 0.85435069E+00 0.30000000E+03</pdfrwt>
<pdfrwt beam="2">0</pdfrwt>
<totfact> 0.37580868E-04</totfact>
</mgrwt>
<clustering>
<clus scale="   32.105">  1  6  2 -1</clus>
<clus scale="  466.615">  4  5 -1 -1</clus>
<clus scale="  300.000">  1  4  2 -1</clus>
</clustering>
</event>
<event>
 6    1  0.1007353E-011  0.3000000E+03  0.7818608E-02  0.1093470E+00
          1   -1    0    0  502    0  0.00000000000E+00  0.00000000000E+00  0.24119290486E+03  0.24119290486E+03  0.00000000000E+00 0.  1.
         13   -1    0    0    0    0 -0.00000000000E+00 -0.00000000000E+00 -0.27500000000E+03  0.27500000000E+03  0.00000000000E+00 0.  1.
    9000005    2    1    2  501    0  0.12390675598E+02  0.31911279560E+02 -0.42219253457E+02  0.48094204654E+03  0.47786078324E+03 0.  0.
         13    1    3    3    0    0 -0.13204686533E+03  0.13750103031E+03  0.13147675313E+03  0.23157945633E+03  0.00000000000E+00 0.  1.
          3    1    3    3  501    0  0.14443754093E+03 -0.10558975075E+03 -0.17369600659E+03  0.24936259021E+03  0.00000000000E+00 0.  1.
         21    1    1    2  502  501 -0.12390675598E+02 -0.31911279560E+02  0.84121583191E+01  0.35250858323E+02  0.00000000000E+00 0.  1.
<scales pt_clust_4="550.00000" pt_clust_5="550.00000" pt_clust_6="34.23242"></scales>
<mgrwt>
<rscale>  0 0.30000000E+03</rscale>
<asrwt>  1 0.34232420E+02</asrwt>
<pdfrwt beam="1">  1        1 0.87706511E+00 0.30000000E+03</pdfrwt>
<pdfrwt beam="2">0</pdfrwt>
<totfact> 0.21452454E-04</totfact>
</mgrwt>
<clustering>
<clus scale="   34.232">  1  6  2 -1</clus>
<clus scale="  477.861">  4  5 -1 -1</clus>
<clus scale="  300.000">  1  4  2 -1</clus>
</clustering>
</event>
<event>
 6    1  0.1007353E-011  0.3000000E+03  0.7818608E-02  0.1093470E+00
          1   -1    0    0  502    0  0.00000000000E+00  0.00000000000E+00  0.22814783648E+03  0.22814783648E+03  0.00000000000E+00 0.  1.
         13   -1    0    0    0    0 -0.00000000000E+00 -0.00000000000E+00 -0.27500000000E+03  0.27500000000E+03  0.00000000000E+00 0.  1.
    9000005    2    1    2  501    0 -0.32489994492E+02 -0.27991678816E+01 -0.36600411506E+02  0.46896401717E+03  0.46639492300E+03 0.  0.
         13    1    3    3    0    0  0.12641885732E+03 -0.76977633918E+02  0.15149562206E+03  0.21179756164E+03  0.00000000000E+00 0.  1.
          3    1    3    3  501    0 -0.15890885181E+03  0.74178466036E+02 -0.18809603357E+03  0.25716645554E+03  0.00000000000E+00 0.  1.
         21    1    1    2  502  501  0.32489994492E+02  0.27991678816E+01 -0.10251752017E+02  0.34183819306E+02  0.00000000000E+00 0.  1.
<scales pt_clust_4="550.00000" pt_clust_5="550.00000" pt_clust_6="32.61037"></scales>
<mgrwt>
<rscale>  0 0.30000000E+03</rscale>
<asrwt>  1 0.32610369E+02</asrwt>
<pdfrwt beam="1">  1        1 0.82962850E+00 0.30000000E+03</pdfrwt>
<pdfrwt beam="2">0</pdfrwt>
<totfact> 0.60320151E-04</totfact>
</mgrwt>
<clustering>
<clus scale="   32.610">  1  6  2 -1</clus>
<clus scale="  466.395">  4  5 -1 -1</clus>
<clus scale="  300.000">  1  4  2 -1</clus>
</clustering>
</event>
<event>
 6    1  0.1007353E-011  0.3000000E+03  0.7818608E-02  0.1093470E+00
          1   -1    0    0  502    0  0.00000000000E+00  0.00000000000E+00  0.23403849191E+03  0.23403849191E+03  0.00000000000E+00 0.  1.
         13   -1    0    0    0    0 -0.00000000000E+00 -0.00000000000E+00 -0.27500000000E+03  0.27500000000E+03  0.00000000000E+00 0.  1.
    9000005    2    1    2  501    0  0.37562924511E+02 -0.18729857267E+02 -0.47910953494E+02  0.46649350815E+03  0.46212439108E+03 0.  0.
         13    1    3    3    0    0 -0.17070371105E+03 -0.11695558250E+03 -0.10088778152E+03  0.23021014248E+03  0.00000000000E+00 0.  1.
          1    1    3    3  501    0  0.20826663556E+03  0.98225725230E+02  0.52976828023E+02  0.23628336567E+03  0.00000000000E+00 0.  1.
         21    1    1    2  502  501 -0.37562924511E+02  0.18729857267E+02  0.69494453997E+01  0.42544983752E+02  0.00000000000E+00 0.  1.
<scales pt_clust_4="550.00000" pt_clust_5="550.00000" pt_clust_6="41.97357"></scales>
<mgrwt>
<rscale>  0 0.30000000E+03</rscale>
<asrwt>  1 0.41973573E+02</asrwt>
<pdfrwt beam="1">  1        1 0.85104906E+00 0.30000000E+03</pdfrwt>
<pdfrwt beam="2">0</pdfrwt>
<totfact> 0.38473972E-04</totfact>
</mgrwt>
<clustering>
<clus scale="   41.974">  1  6  2 -1</clus>
<clus scale="  462.124">  4  5 -1 -1</clus>
<clus scale="  300.000">  1  4  2 -1</clus>
</clustering>
</event>
<event>
 6    1  0.1007353E-011  0.3000000E+03  0.7818608E-02  0.1093470E+00
          1   -1    0    0  502    0  0.00000000000E+00  0.00000000000E+00  0.23428485076E+03  0.23428485076E+03  0.00000000000E+00 0.  1.
         13   -1    0    0    0    0 -0.00000000000E+00 -0.00000000000E+00 -0.27500000000E+03  0.27500000000E+03  0.00000000000E+00 0.  1.
    9000005    2    1    2  501    0  0.34297793868E+02 -0.20220762634E+02 -0.44870689566E+02  0.46925378256E+03  0.46540360523E+03 0.  0.
         13    1    3    3    0    0  0.20704811455E+03  0.12434813622E+03 -0.14497807663E+02  0.24195364669E+03  0.00000000000E+00 0.  1.
          3    1    3    3  501    0 -0.17275032068E+03 -0.14456889886E+03 -0.30372881903E+02  0.22730013587E+03  0.00000000000E+00 0.  1.
         21    1    1    2  502  501 -0.34297793868E+02  0.20220762634E+02  0.41555403285E+01  0.40031068199E+02  0.00000000000E+00 0.  1.
<scales pt_clust_4="550.00000" pt_clust_5="550.00000" pt_clust_6="39.81480"></scales>
<mgrwt>
<rscale>  0 0.30000000E+03</rscale>
<asrwt>  1 0.39814795E+02</asrwt>
<pdfrwt beam="1">  1        1 0.85194491E+00 0.30000000E+03</pdfrwt>
<pdfrwt beam="2">0</pdfrwt>
<totfact> 0.38088730E-04</totfact>
</mgrwt>
<clustering>
<clus scale="   39.815">  1  6  2 -1</clus>
<clus scale="  465.404">  4  5 -1 -1</clus>
<clus scale="  300.000">  1  4  2 -1</clus>
</clustering>
</event>
<event>
 6    1  0.1007353E-011  0.3000000E+03  0.7818608E-02  0.1093470E+00
          1   -1    0    0  502    0  0.00000000000E+00  0.00000000000E+00  0.23035284404E+03  0.23035284404E+03  0.00000000000E+00 0.  1.
         13   -1    0    0    0    0 -0.00000000000E+00 -0.00000000000E+00 -0.27500000000E+03  0.27500000000E+03  0.00000000000E+00 0.  1.
    9000005    2    1    2  501    0 -0.21700834478E+02  0.26485592905E+02 -0.65137555287E+02  0.46544959464E+03  0.45959548648E+03 0.  0.
         13    1    3    3    0    0  0.21452546963E+03  0.58772256465E+02 -0.29492933185E+02  0.22437733477E+03  0.00000000000E+00 0.  1.
          3    1    3    3  501    0 -0.23622630410E+03 -0.32286663560E+02 -0.35644622102E+02  0.24107225987E+03  0.00000000000E+00 0.  1.
         21    1    1    2  502  501  0.21700834478E+02 -0.26485592905E+02  0.20490399332E+02  0.39903249408E+02  0.00000000000E+00 0.  1.
<scales pt_clust_4="550.00000" pt_clust_5="550.00000" pt_clust_6="34.24051"></scales>
<mgrwt>
<rscale>  0 0.30000000E+03</rscale>
<asrwt>  1 0.34240515E+02</asrwt>
<pdfrwt beam="1">  1        1 0.83764671E+00 0.30000000E+03</pdfrwt>
<pdfrwt beam="2">0</pdfrwt>
<totfact> 0.51967709E-04</totfact>
</mgrwt>
<clustering>
<clus scale="   34.241">  1  6  2 -1</clus>
<clus scale="  459.595">  4  5 -1 -1</clus>
<clus scale="  300.000">  1  4  2 -1</clus>
</clustering>
</event>
<event>
 6    1  0.1007353E-011  0.3000000E+03  0.7818608E-02  0.1093470E+00
          1   -1    0    0  502    0  0.00000000000E+00  0.00000000000E+00  0.22337687276E+03  0.22337687276E+03  0.00000000000E+00 0.  1.
         13   -1    0    0    0    0 -0.00000000000E+00 -0.00000000000E+00 -0.27500000000E+03  0.27500000000E+03  0.00000000000E+00 0.  1.
    9000005    2    1    2  501    0  0.61538136545E+01  0.31694689164E+02 -0.49092354954E+02  0.46599126558E+03  0.46227197356E+03 0.  0.
         13    1    3    3    0    0  0.43052787354E+02  0.14961622147E+03 -0.21106358497E+03  0.26227160184E+03  0.00000000000E+00 0.  1.
          1    1    3    3  501    0 -0.36898973700E+02 -0.11792153231E+03  0.16197123002E+03  0.20371966375E+03  0.00000000000E+00 0.  1.
         21    1    1    2  502  501 -0.61538136545E+01 -0.31694689164E+02 -0.25307722906E+01  0.32385607175E+02  0.00000000000E+00 0.  1.
<scales pt_clust_4="550.00000" pt_clust_5="550.00000" pt_clust_6="32.28657"></scales>
<mgrwt>
<rscale>  0 0.30000000E+03</rscale>
<asrwt>  1 0.32286572E+02</asrwt>
<pdfrwt beam="1">  1        1 0.81227954E+00 0.30000000E+03</pdfrwt>
<pdfrwt beam="2">0</pdfrwt>
<totfact> 0.84974824E-04</totfact>
</mgrwt>
<clustering>
<clus scale="   32.287">  1  6  2 -1</clus>
<clus scale="  462.272">  4  5 -1 -1</clus>
<clus scale="  300.000">  1  4  2 -1</clus>
</clustering>
</event>
<event>
 6    1  0.1007353E-011  0.3000000E+03  0.7818608E-02  0.1093470E+00
          1   -1    0    0  502    0  0.00000000000E+00  0.00000000000E+00  0.24554852239E+03  0.24554852239E+03  0.00000000000E+00 0.  1.
         13   -1    0    0    0    0 -0.00000000000E+00 -0.00000000000E+00 -0.27500000000E+03  0.27500000000E+03  0.00000000000E+00 0.  1.
    9000005    2    1    2  501    0 -0.22729584351E+02 -0.20932153137E+02 -0.70964131062E+02  0.46879826214E+03  0.46236469766E+03 0.  0.
         13    1    3    3    0    0 -0.21901816106E+03 -0.77754245768E+02 -0.11569058050E+03  0.25961315072E+03  0.00000000000E+00 0.  1.
          1    1    3    3  501    0  0.19628857671E+03  0.56822092631E+02  0.44726449438E+02  0.20918511142E+03  0.00000000000E+00 0.  1.
         21    1    1    2  502  501  0.22729584351E+02  0.20932153137E+02  0.41512653449E+02  0.51750260252E+02  0.00000000000E+00 0. -1.
<scales pt_clust_4="550.00000" pt_clust_5="550.00000" pt_clust_6="30.89966"></scales>
<mgrwt>
<rscale>  0 0.30000000E+03</rscale>
<asrwt>  1 0.30899661E+02</asrwt>
<pdfrwt beam="1">  1        1 0.89290372E+00 0.30000000E+03</pdfrwt>
<pdfrwt beam="2">0</pdfrwt>
<totfact> 0.13645372E-04</totfact>
</mgrwt>
<clustering>
<clus scale="   30.900">  1  6  2 -1</clus>
<clus scale="  462.365">  4  5 -1 -1</clus>
<clus scale="  300.000">  1  4  2 -1</clus>
</clustering>
</event>
<event>
 6    1  0.1007353E-011  0.3000000E+03  0.7818608E-02  0.1093470E+00
          1   -1    0    0  502    0  0.00000000000E+00  0.00000000000E+00  0.27101443415E+03  0.27101443415E+03  0.00000000000E+00 0.  1.
         13   -1    0    0    0    0 -0.00000000000E+00 -0.00000000000E+00 -0.27500000000E+03  0.27500000000E+03  0.00000000000E+00 0.  1.
    9000005    2    1    2  501    0 -0.14267871349E+02  0.43130748499E+02 -0.60281181636E-01  0.50041573374E+03  0.49834934466E+03 0.  0.
         13    1    3    3    0    0  0.21199289457E+03 -0.12641090548E+02 -0.11398487513E+03  0.24102559258E+03  0.00000000000E+00 0.  1.
          1    1    3    3  501    0 -0.22626076592E+03  0.55771839046E+02  0.11392459395E+03  0.25939014116E+03  0.00000000000E+00 0.  1.
         21    1    1    2  502  501  0.14267871349E+02 -0.43130748499E+02 -0.39252846702E+01  0.45598700405E+02  0.00000000000E+00 0. -1.
<scales pt_clust_4="550.00000" pt_clust_5="550.00000" pt_clust_6="45.42946"></scales>
<mgrwt>
<rscale>  0 0.30000000E+03</rscale>
<asrwt>  1 0.45429458E+02</asrwt>
<pdfrwt beam="1">  1        1 0.98550703E+00 0.30000000E+03</pdfrwt>
<pdfrwt beam="2">0</pdfrwt>
<totfact> 0.14175427E-06</totfact>
</mgrwt>
<clustering>
<clus scale="   45.429">  1  6  2 -1</clus>
<clus scale="  498.349">  4  5 -1 -1</clus>
<clus scale="  300.000">  1  4  2 -1</clus>
</clustering>
</event>
<event>
 6    1  0.1007353E-011  0.3000000E+03  0.7818608E-02  0.1093470E+00
          1   -1    0    0  502    0  0.00000000000E+00  0.00000000000E+00  0.24042549766E+03  0.24042549766E+03  0.00000000000E+00 0.  1.
         13   -1    0    0    0    0 -0.00000000000E+00 -0.00000000000E+00 -0.27500000000E+03  0.27500000000E+03  0.00000000000E+00 0.  1.
    9000005    2    1    2  501    0  0.12528871793E+02 -0.27789696595E+02 -0.73079842717E+02  0.46631438789E+03  0.45954238659E+03 0.  0.
         13    1    3    3    0    0  0.13164303092E+03  0.43277254452E+02 -0.22269917463E+03  0.26229321517E+03  0.00000000000E+00 0.  1.
          3    1    3    3  501    0 -0.11911415913E+03 -0.71066951047E+02  0.14961933191E+03  0.20402117272E+03  0.00000000000E+00 0.  1.
         21    1    1    2  502  501 -0.12528871793E+02  0.27789696595E+02  0.38505340377E+02  0.49111109770E+02  0.00000000000E+00 0. -1.
<scales pt_clust_4="550.00000" pt_clust_5="550.00000" pt_clust_6="30.48344"></scales>
<mgrwt>
<rscale>  0 0.30000000E+03</rscale>
<asrwt>  1 0.30483436E+02</asrwt>
<pdfrwt beam="1">  1        1 0.87427454E+00 0.30000000E+03</pdfrwt>
<pdfrwt beam="2">0</pdfrwt>
<totfact> 0.23498378E-04</totfact>
</mgrwt>
<clustering>
<clus scale="   30.483">  1  6  2 -1</clus>
<clus scale="  459.542">  4  5 -1 -1</clus>
<clus scale="  300.000">  1  4  2 -1</clus>
</clustering>
</event>
<event>
 6    1  0.1007353E-011  0.3000000E+03  0.7818608E-02  0.1093470E+00
          1   -1    0    0  502    0  0.00000000000E+00  0.00000000000E+00  0.23342620083E+03  0.23342620083E+03  0.00000000000E+00 0.  1.
         13   -1    0    0    0    0 -0.00000000000E+00 -0.00000000000E+00 -0.27500000000E+03  0.27500000000E+03  0.00000000000E+00 0.  1.
    9000005    2    1    2  501    0 -0.30803472899E+01 -0.37752015480E+02 -0.64890388613E+02  0.46394736816E+03  0.45782277650E+03 0.  0.
         13    1    3    3    0    0  0.69156358098E+02 -0.22451002775E+03  0.39358481461E+02  0.23819413194E+03  0.00000000000E+00 0.  1.
          1    1    3    3  501    0 -0.72236705388E+02  0.18675801227E+03 -0.10424887007E+03  0.22575323622E+03  0.00000000000E+00 0.  1.
         21    1    1    2  502  501  0.30803472899E+01  0.37752015480E+02  0.23316589447E+02  0.44478832670E+02  0.00000000000E+00 0.  1.
<scales pt_clust_4="550.00000" pt_clust_5="550.00000" pt_clust_6="37.87748"></scales>
<mgrwt>
<rscale>  0 0.30000000E+03</rscale>
<asrwt>  1 0.37877476E+02</asrwt>
<pdfrwt beam="1">  1        1 0.84882255E+00 0.30000000E+03</pdfrwt>
<pdfrwt beam="2">0</pdfrwt>
<totfact> 0.41131942E-04</totfact>
</mgrwt>
<clustering>
<clus scale="   37.877">  1  6  2 -1</clus>
<clus scale="  457.823">  4  5 -1 -1</clus>
<clus scale="  300.000">  1  4  2 -1</clus>
</clustering>
</event>
<event>
 6    1  0.1007353E-011  0.3000000E+03  0.7818608E-02  0.1093470E+00
          1   -1    0    0  502    0  0.00000000000E+00  0.00000000000E+00  0.23614309429E+03  0.23614309429E+03  0.00000000000E+00 0.  1.
         13   -1    0    0    0    0 -0.00000000000E+00 -0.00000000000E+00 -0.27500000000E+03  0.27500000000E+03  0.00000000000E+00 0.  1.
    9000005    2    1    2  501    0 -0.26872129306E+02 -0.31882144469E+02 -0.44848335415E+02  0.46901852071E+03  0.46500367430E+03 0.  0.
         13    1    3    3    0    0  0.21221751718E+03  0.41795281060E+02 -0.30367168996E+02  0.21841539568E+03  0.00000000000E+00 0.  1.
          1    1    3    3  501    0 -0.23908964649E+03 -0.73677425529E+02 -0.14481166419E+02  0.25060312503E+03  0.00000000000E+00 0.  1.
         21    1    1    2  502  501  0.26872129306E+02  0.31882144469E+02  0.59914297036E+01  0.42124573580E+02  0.00000000000E+00 0. -1.
<scales pt_clust_4="550.00000" pt_clust_5="550.00000" pt_clust_6="41.69631"></scales>
<mgrwt>
<rscale>  0 0.30000000E+03</rscale>
<asrwt>  1 0.41696312E+02</asrwt>
<pdfrwt beam="1">  1        1 0.85870216E+00 0.30000000E+03</pdfrwt>
<pdfrwt beam="2">0</pdfrwt>
<totfact> 0.32328862E-04</totfact>
</mgrwt>
<clustering>
<clus scale="   41.696">  1  6  2 -1</clus>
<clus scale="  465.004">  4  5 -1 -1</clus>
<clus scale="  300.000">  1  4  2 -1</clus>
</clustering>
</event>
<event>
 6    1  0.1007353E-011  0.3000000E+03  0.7818608E-02  0.1093470E+00
          1   -1    0    0  502    0  0.00000000000E+00  0.00000000000E+00  0.23651277258E+03  0.23651277258E+03  0.00000000000E+00 0.  1.
         13   -1    0    0    0    0 -0.00000000000E+00 -0.00000000000E+00 -0.27500000000E+03  0.27500000000E+03  0.00000000000E+00 0.  1.
    9000005    2    1    2  501    0  0.16667851876E+02  0.32938779108E+02 -0.52184316181E+02  0.47213777168E+03  0.46779064990E+03 0.  0.
         13    1    3    3    0    0 -0.65042089273E+02  0.23875835678E+03 -0.36510377019E+02  0.25013802978E+03  0.00000000000E+00 0.  1.
          3    1    3    3  501    0  0.81709941148E+02 -0.20581957768E+03 -0.15673939162E+02  0.22199974190E+03  0.00000000000E+00 0.  1.
         21    1    1    2  502  501 -0.16667851876E+02 -0.32938779108E+02  0.13697088763E+02  0.39375000900E+02  0.00000000000E+00 0.  1.
<scales pt_clust_4="550.00000" pt_clust_5="550.00000" pt_clust_6="36.91586"></scales>
<mgrwt>
<rscale>  0 0.30000000E+03</rscale>
<asrwt>  1 0.36915856E+02</asrwt>
<pdfrwt beam="1">  1        1 0.86004645E+00 0.30000000E+03</pdfrwt>
<pdfrwt beam="2">0</pdfrwt>
<totfact> 0.31990522E-04</totfact>
</mgrwt>
<clustering>
<clus scale="   36.916">  1  6  2 -1</clus>
<clus scale="  467.791">  4  5 -1 -1</clus>
<clus scale="  300.000">  1  4  2 -1</clus>
</clustering>
</event>
<event>
 6    1  0.1007353E-011  0.3000000E+03  0.7818608E-02  0.1093470E+00
          1   -1    0    0  502    0  0.00000000000E+00  0.00000000000E+00  0.24576219003E+03  0.24576219003E+03  0.00000000000E+00 0.  1.
         13   -1    0    0    0    0 -0.00000000000E+00 -0.00000000000E+00 -0.27500000000E+03  0.27500000000E+03  0.00000000000E+00 0.  1.
    9000005    2    1    2  501    0 -0.25874768623E+02 -0.20949805056E+02 -0.83084119351E+01  0.48143741812E+03  0.48021303593E+03 0.  0.
         13    1    3    3    0    0  0.17129246821E+03 -0.16307148398E+03 -0.24967808792E+02  0.23781675725E+03  0.00000000000E+00 0.  1.
          1    1    3    3  501    0 -0.19716723683E+03  0.14212167893E+03  0.16659396857E+02  0.24362066087E+03  0.00000000000E+00 0.  1.
         21    1    1    2  502  501  0.25874768623E+02  0.20949805056E+02 -0.20929398036E+02  0.39324771904E+02  0.00000000000E+00 0. -1.
<scales pt_clust_4="550.00000" pt_clust_5="550.00000" pt_clust_6="33.29263"></scales>
<mgrwt>
<rscale>  0 0.30000000E+03</rscale>
<asrwt>  1 0.33292628E+02</asrwt>
<pdfrwt beam="1">  1        1 0.89368069E+00 0.30000000E+03</pdfrwt>
<pdfrwt beam="2">0</pdfrwt>
<totfact> 0.13175120E-04</totfact>
</mgrwt>
<clustering>
<clus scale="   33.293">  1  6  2 -1</clus>
<clus scale="  480.213">  4  5 -1 -1</clus>
<clus scale="  300.000">  1  4  2 -1</clus>
</clustering>
</event>
<event>
 6    1  0.1007353E-011  0.3000000E+03  0.7818608E-02  0.1093470E+00
          1   -1    0    0  502    0  0.00000000000E+00  0.00000000000E+00  0.22462417483E+03  0.22462417483E+03  0.00000000000E+00 0.  1.
         13   -1    0    0    0    0 -0.00000000000E+00 -0.00000000000E+00 -0.27500000000E+03  0.27500000000E+03  0.00000000000E+00 0.  1.
    9000005    2    1    2  501    0  0.28875432648E+02 -0.95373336855E+01 -0.57658889481E+02  0.46835447112E+03  0.46379587292E+03 0.  0.
         13    1    3    3    0    0  0.24072073102E+03 -0.94271777694E+01  0.22269385465E+02  0.24193236152E+03  0.00000000000E+00 0.  1.
          1    1    3    3  501    0 -0.21184529837E+03 -0.11015591611E+00 -0.79928274946E+02  0.22642210959E+03  0.00000000000E+00 0.  1.
         21    1    1    2  502  501 -0.28875432648E+02  0.95373336855E+01  0.72830643113E+01  0.31269703711E+02  0.00000000000E+00 0.  1.
<scales pt_clust_4="550.00000" pt_clust_5="550.00000" pt_clust_6="30.40972"></scales>
<mgrwt>
<rscale>  0 0.30000000E+03</rscale>
<asrwt>  1 0.30409725E+02</asrwt>
<pdfrwt beam="1">  1        1 0.81681518E+00 0.30000000E+03</pdfrwt>
<pdfrwt beam="2">0</pdfrwt>
<totfact> 0.79016359E-04</totfact>
</mgrwt>
<clustering>
<clus scale="   30.410">  1  6  2 -1</clus>
<clus scale="  463.796">  4  5 -1 -1</clus>
<clus scale="  300.000">  1  4  2 -1</clus>
</clustering>
</event>
<event>
 6    1  0.1007353E-011  0.3000000E+03  0.7818608E-02  0.1093470E+00
          1   -1    0    0  502    0  0.00000000000E+00  0.00000000000E+00  0.23694135431E+03  0.23694135431E+03  0.00000000000E+00 0.  1.
         13   -1    0    0    0    0 -0.00000000000E+00 -0.00000000000E+00 -0.27500000000E+03  0.27500000000E+03  0.00000000000E+00 0.  1.
    9000005    2    1    2  501    0 -0.11823018897E+02 -0.29441055035E+02 -0.49040993069E+02  0.47836798016E+03  0.47478873823E+03 0.  0.
         13    1    3    3    0    0  0.73249174285E+02 -0.13014132814E+03 -0.21788865492E+03  0.26415463798E+03  0.00000000000E+00 0.  1.
          3    1    3    3  501    0 -0.85072193182E+02  0.10070027310E+03  0.16884766185E+03  0.21421334218E+03  0.00000000000E+00 0.  1.
         21    1    1    2  502  501  0.11823018897E+02  0.29441055035E+02  0.10982347375E+02  0.33573374142E+02  0.00000000000E+00 0.  1.
<scales pt_clust_4="550.00000" pt_clust_5="550.00000" pt_clust_6="31.72632"></scales>
<mgrwt>
<rscale>  0 0.30000000E+03</rscale>
<asrwt>  1 0.31726322E+02</asrwt>
<pdfrwt beam="1">  1        1 0.86160492E+00 0.30000000E+03</pdfrwt>
<pdfrwt beam="2">0</pdfrwt>
<totfact> 0.31670114E-04</totfact>
</mgrwt>
<clustering>
<clus scale="   31.726">  1  6  2 -1</clus>
<clus scale="  474.789">  4  5 -1 -1</clus>
<clus scale="  300.000">  1  4  2 -1</clus>
</clustering>
</event>
<event>
 6    1  0.1007353E-011  0.3000000E+03  0.7818608E-02  0.1093470E+00
          1   -1    0    0  502    0  0.00000000000E+00  0.00000000000E+00  0.25919146709E+03  0.25919146709E+03  0.00000000000E+00 0.  1.
         13   -1    0    0    0    0 -0.00000000000E+00 -0.00000000000E+00 -0.27500000000E+03  0.27500000000E+03  0.00000000000E+00 0.  1.
    9000005    2    1    2  501    0 -0.30048379252E+02 -0.32977685413E+02 -0.47769435846E+02  0.47931039433E+03  0.47483270979E+03 0.  0.
         13    1    3    3    0    0 -0.32855780094E+02  0.10387800148E+03 -0.22817502750E+03  0.25285170486E+03  0.00000000000E+00 0.  1.
          1    1    3    3  501    0  0.28074008420E+01 -0.13685568689E+03  0.18040559166E+03  0.22645868947E+03  0.00000000000E+00 0.  1.
         21    1    1    2  502  501  0.30048379252E+02  0.32977685413E+02  0.31960902941E+02  0.54881072764E+02  0.00000000000E+00 0. -1.
<scales pt_clust_4="550.00000" pt_clust_5="550.00000" pt_clust_6="44.61427"></scales>
<mgrwt>
<rscale>  0 0.30000000E+03</rscale>
<asrwt>  1 0.44614267E+02</asrwt>
<pdfrwt beam="1">  1        1 0.94251443E+00 0.30000000E+03</pdfrwt>
<pdfrwt beam="2">0</pdfrwt>
<totfact> 0.16557396E-05</totfact>
</mgrwt>
<clustering>
<clus scale="   44.614">  1  6  2 -1</clus>
<clus scale="  474.833">  4  5 -1 -1</clus>
<clus scale="  300.000">  1  4  2 -1</clus>
</clustering>
</event>
<event>
 6    1  0.1007353E-011  0.3000000E+03  0.7818608E-02  0.1093470E+00
          1   -1    0    0  502    0  0.00000000000E+00  0.00000000000E+00  0.24167747471E+03  0.24167747471E+03  0.00000000000E+00 0.  1.
         13   -1    0    0    0    0 -0.00000000000E+00 -0.00000000000E+00 -0.27500000000E+03  0.27500000000E+03  0.00000000000E+00 0.  1.
    9000005    2    1    2  501    0  0.28225464754E+01  0.36619445215E+02 -0.13668117240E+02  0.47502118716E+03  0.47340190144E+03 0.  0.
         13    1    3    3    0    0 -0.23362215172E+03  0.18302414758E+02  0.21299522100E+02  0.23530396894E+03  0.00000000000E+00 0.  1.
          3    1    3    3  501    0  0.23644469819E+03  0.18317030457E+02 -0.34967639341E+02  0.23971721822E+03  0.00000000000E+00 0.  1.
         21    1    1    2  502  501 -0.28225464754E+01 -0.36619445215E+02 -0.19654408051E+02  0.41656287548E+02  0.00000000000E+00 0. -1.
<scales pt_clust_4="550.00000" pt_clust_5="550.00000" pt_clust_6="36.72808"></scales>
<mgrwt>
<rscale>  0 0.30000000E+03</rscale>
<asrwt>  1 0.36728080E+02</asrwt>
<pdfrwt beam="1">  1        1 0.87882718E+00 0.30000000E+03</pdfrwt>
<pdfrwt beam="2">0</pdfrwt>
<totfact> 0.20210188E-04</totfact>
</mgrwt>
<clustering>
<clus scale="   36.728">  1  6  2 -1</clus>
<clus scale="  473.402">  4  5 -1 -1</clus>
<clus scale="  300.000">  1  4  2 -1</clus>
</clustering>
</event>
<event>
 6    1  0.1007353E-011  0.3000000E+03  0.7818608E-02  0.1093470E+00
          1   -1    0    0  502    0  0.00000000000E+00  0.00000000000E+00  0.22765528420E+03  0.22765528420E+03  0.00000000000E+00 0.  1.
         13   -1    0    0    0    0 -0.00000000000E+00 -0.00000000000E+00 -0.27500000000E+03  0.27500000000E+03  0.00000000000E+00 0.  1.
    9000005    2    1    2  501    0  0.30745282248E+02  0.10060094523E+02 -0.70549682822E+02  0.46284387407E+03  0.45629016659E+03 0.  0.
         13    1    3    3    0    0  0.82551142499E+02  0.16114536196E+03 -0.19071143527E+03  0.26297028416E+03  0.00000000000E+00 0.  1.
          1    1    3    3  501    0 -0.51805860251E+02 -0.15108526744E+03  0.12016175244E+03  0.19987358991E+03  0.00000000000E+00 0.  1.
         21    1    1    2  502  501 -0.30745282248E+02 -0.10060094523E+02  0.23204967019E+02  0.39811410131E+02  0.00000000000E+00 0. -1.
<scales pt_clust_4="550.00000" pt_clust_5="550.00000" pt_clust_6="32.34931"></scales>
<mgrwt>
<rscale>  0 0.30000000E+03</rscale>
<asrwt>  1 0.32349310E+02</asrwt>
<pdfrwt beam="1">  1        1 0.82783740E+00 0.30000000E+03</pdfrwt>
<pdfrwt beam="2">0</pdfrwt>
<totfact> 0.62576037E-04</totfact>
</mgrwt>
<clustering>
<clus scale="   32.349">  1  6  2 -1</clus>
<clus scale="  456.290">  4  5 -1 -1</clus>
<clus scale="  300.000">  1  4  2 -1</clus>
</clustering>
</event>
<event>
 6    1  0.1007353E-011  0.3000000E+03  0.7818608E-02  0.1093470E+00
          1   -1    0    0  502    0  0.00000000000E+00  0.00000000000E+00  0.25381936011E+03  0.25381936011E+03  0.00000000000E+00 0.  1.
         13   -1    0    0    0    0 -0.00000000000E+00 -0.00000000000E+00 -0.27500000000E+03  0.27500000000E+03  0.00000000000E+00 0.  1.
    9000005    2    1    2  501    0 -0.45259086537E+02 -0.13369108700E+02 -0.47334652212E+02  0.47486428304E+03  0.47013657593E+03 0.  0.
         13    1    3    3    0    0  0.26236836010E+02 -0.93487673607E+02 -0.23744063908E+03  0.25652753023E+03  0.00000000000E+00 0.  1.
          3    1    3    3  501    0 -0.71495922547E+02  0.80118564907E+02  0.19010598687E+03  0.21833675281E+03  0.00000000000E+00 0.  1.
         21    1    1    2  502  501  0.45259086537E+02  0.13369108700E+02  0.26154012324E+02  0.53955077075E+02  0.00000000000E+00 0. -1.
<scales pt_clust_4="550.00000" pt_clust_5="550.00000" pt_clust_6="47.19235"></scales>
<mgrwt>
<rscale>  0 0.30000000E+03</rscale>
<asrwt>  1 0.47192351E+02</asrwt>
<pdfrwt beam="1">  1        1 0.92297949E+00 0.30000000E+03</pdfrwt>
<pdfrwt beam="2">0</pdfrwt>
<totfact> 0.34206691E-05</totfact>
</mgrwt>
<clustering>
<clus scale="   47.192">  1  6  2 -1</clus>
<clus scale="  470.137">  4  5 -1 -1</clus>
<clus scale="  300.000">  1  4  2 -1</clus>
</clustering>
</event>
<event>
 6    1  0.1007353E-011  0.3000000E+03  0.7818608E-02  0.1093470E+00
          1   -1    0    0  502    0  0.00000000000E+00  0.00000000000E+00  0.23725118289E+03  0.23725118289E+03  0.00000000000E+00 0.  1.
         13   -1    0    0    0    0 -0.00000000000E+00 -0.00000000000E+00 -0.27500000000E+03  0.27500000000E+03  0.00000000000E+00 0.  1.
    9000005    2    1    2  501    0 -0.38729841338E+01 -0.43062575579E+02 -0.57592156692E+02  0.46467867457E+03  0.45906429688E+03 0.  0.
         13    1    3    3    0    0 -0.12894697675E+03 -0.14836374876E+03  0.11435128778E+03  0.22741007404E+03  0.00000000000E+00 0.  1.
          1    1    3    3  501    0  0.12507399262E+03  0.10530117318E+03 -0.17194344447E+03  0.23726860053E+03  0.00000000000E+00 0.  1.
         21    1    1    2  502  501  0.38729841338E+01  0.43062575579E+02  0.19843339580E+02  0.47572508314E+02  0.00000000000E+00 0.  1.
<scales pt_clust_4="550.00000" pt_clust_5="550.00000" pt_clust_6="43.23639"></scales>
<mgrwt>
<rscale>  0 0.30000000E+03</rscale>
<asrwt>  1 0.43236390E+02</asrwt>
<pdfrwt beam="1">  1        1 0.86273157E+00 0.30000000E+03</pdfrwt>
<pdfrwt beam="2">0</pdfrwt>
<totfact> 0.29079686E-04</totfact>
</mgrwt>
<clustering>
<clus scale="   43.236">  1  6  2 -1</clus>
<clus scale="  459.064">  4  5 -1 -1</clus>
<clus scale="  300.000">  1  4  2 -1</clus>
</clustering>
</event>
<event>
 6    1  0.1007353E-011  0.3000000E+03  0.7818608E-02  0.1093470E+00
          1   -1    0    0  502    0  0.00000000000E+00  0.00000000000E+00  0.23640793870E+03  0.23640793870E+03  0.00000000000E+00 0.  1.
         13   -1    0    0    0    0 -0.00000000000E+00 -0.00000000000E+00 -0.27500000000E+03  0.27500000000E+03  0.00000000000E+00 0.  1.
    9000005    2    1    2  501    0 -0.13175858020E+02 -0.30125120886E+02 -0.25207534124E+02  0.47590763292E+03  0.47410075844E+03 0.  0.
         13    1    3    3    0    0 -0.71144015169E+02 -0.21735899703E+03  0.93143074852E+02  0.24694541275E+03  0.00000000000E+00 0.  1.
          1    1    3    3  501    0  0.57968157150E+02  0.18723387615E+03 -0.11835060898E+03  0.22896222017E+03  0.00000000000E+00 0.  1.
         21    1    1    2  502  501  0.13175858020E+02  0.30125120886E+02 -0.13384527174E+02  0.35500305782E+02  0.00000000000E+00 0.  1.
<scales pt_clust_4="550.00000" pt_clust_5="550.00000" pt_clust_6="32.88050"></scales>
<mgrwt>
<rscale>  0 0.30000000E+03</rscale>
<asrwt>  1 0.32880499E+02</asrwt>
<pdfrwt beam="1">  1        1 0.85966523E+00 0.30000000E+03</pdfrwt>
<pdfrwt beam="2">0</pdfrwt>
<totfact> 0.32998544E-04</totfact>
</mgrwt>
<clustering>
<clus scale="   32.880">  1  6  2 -1</clus>
<clus scale="  474.101">  4  5 -1 -1</clus>
<clus scale="  300.000">  1  4  2 -1</clus>
</clustering>
</event>
<event>
 6    1  0.1007353E-011  0.3000000E+03  0.7818608E-02  0.1093470E+00
          1   -1    0    0  502    0  0.00000000000E+00  0.00000000000E+00  0.26555108027E+03  0.26555108027E+03  0.00000000000E+00 0.  1.
         13   -1    0    0    0    0 -0.00000000000E+00 -0.00000000000E+00 -0.27500000000E+03  0.27500000000E+03  0.00000000000E+00 0.  1.
    9000005    2    1    2  501    0 -0.39277032689E+02  0.25760411903E+01 -0.45203399718E+02  0.48737491903E+03  0.48367514208E+03 0.  0.
         13    1    3    3    0    0 -0.23833218759E+03  0.97371787044E+01 -0.12911935575E+03  0.27123578731E+03  0.00000000000E+00 0.  1.
          3    1    3    3  501    0  0.19905515490E+03 -0.71611375141E+01  0.83915956028E+02  0.21613913172E+03  0.00000000000E+00 0.  1.
         21    1    1    2  502  501  0.39277032689E+02 -0.25760411903E+01  0.35754479987E+02  0.53176161240E+02  0.00000000000E+00 0.  1.
<scales pt_clust_4="550.00000" pt_clust_5="550.00000" pt_clust_6="39.36142"></scales>
<mgrwt>
<rscale>  0 0.30000000E+03</rscale>
<asrwt>  1 0.39361419E+02</asrwt>
<pdfrwt beam="1">  1        1 0.96564029E+00 0.30000000E+03</pdfrwt>
<pdfrwt beam="2">0</pdfrwt>
<totfact> 0.56713823E-06</totfact>
</mgrwt>
<clustering>
<clus scale="   39.361">  1  6  2 -1</clus>
<clus scale="  483.675">  4  5 -1 -1</clus>
<clus scale="  300.000">  1  4  2 -1</clus>
</clustering>
</event>
<event>
 6    1  0.1007353E-011  0.3000000E+03  0.7818608E-02  0.1093470E+00
          1   -1    0    0  502    0  0.00000000000E+00  0.00000000000E+00  0.24125024831E+03  0.24125024831E+03  0.00000000000E+00 0.  1.
         13   -1    0    0    0    0 -0.00000000000E+00 -0.00000000000E+00 -0.27500000000E+03  0.27500000000E+03  0.00000000000E+00 0.  1.
    9000005    2    1    2  501    0  0.32089067072E+02 -0.54780969043E+01 -0.74650542100E+02  0.46397604408E+03  0.45677275343E+03 0.  0.
         13    1    3    3    0    0  0.11099883476E+03 -0.48547074745E+02 -0.24390049292E+03  0.27233253613E+03  0.00000000000E+00 0.  1.
          1    1    3    3  501    0 -0.78909767689E+02  0.43068977841E+02  0.16924995082E+03  0.19164350796E+03  0.00000000000E+00 0.  1.
         21    1    1    2  502  501 -0.32089067072E+02  0.54780969043E+01  0.40900790406E+02  0.52274204222E+02  0.00000000000E+00 0. -1.
<scales pt_clust_4="550.00000" pt_clust_5="550.00000" pt_clust_6="32.55331"></scales>
<mgrwt>
<rscale>  0 0.30000000E+03</rscale>
<asrwt>  1 0.32553307E+02</asrwt>
<pdfrwt beam="1">  1        1 0.87727363E+00 0.30000000E+03</pdfrwt>
<pdfrwt beam="2">0</pdfrwt>
<totfact> 0.21541164E-04</totfact>
</mgrwt>
<clustering>
<clus scale="   32.553">  1  6  2 -1</clus>
<clus scale="  456.773">  4  5 -1 -1</clus>
<clus scale="  300.000">  1  4  2 -1</clus>
</clustering>
</event>
<event>
 6    1  0.1007353E-011  0.3000000E+03  0.7818608E-02  0.1093470E+00
          1   -1    0    0  502    0  0.00000000000E+00  0.00000000000E+00  0.23884104132E+03  0.23884104132E+03  0.00000000000E+00 0.  1.
         13   -1    0    0    0    0 -0.00000000000E+00 -0.00000000000E+00 -0.27500000000E+03  0.27500000000E+03  0.00000000000E+00 0.  1.
    9000005    2    1    2  501    0  0.23972056622E+02 -0.44481279260E+02 -0.41460557179E+02  0.46303404721E+03  0.45839754294E+03 0.  0.
         13    1    3    3    0    0  0.42316168946E+02  0.14882370757E+03 -0.17023388398E+03  0.23004071236E+03  0.00000000000E+00 0.  1.
          1    1    3    3  501    0 -0.18344112324E+02 -0.19330498683E+03  0.12877332680E+03  0.23299333485E+03  0.00000000000E+00 0.  1.
         21    1    1    2  502  501 -0.23972056622E+02  0.44481279260E+02  0.53015984988E+01  0.50806994105E+02  0.00000000000E+00 0. -1.
<scales pt_clust_4="550.00000" pt_clust_5="550.00000" pt_clust_6="50.52963"></scales>
<mgrwt>
<rscale>  0 0.30000000E+03</rscale>
<asrwt>  1 0.50529632E+02</asrwt>
<pdfrwt beam="1">  1        1 0.86851288E+00 0.30000000E+03</pdfrwt>
<pdfrwt beam="2">0</pdfrwt>
<totfact> 0.24546007E-04</totfact>
</mgrwt>
<clustering>
<clus scale="   50.530">  1  6  2 -1</clus>
<clus scale="  458.398">  4  5 -1 -1</clus>
<clus scale="  300.000">  1  4  2 -1</clus>
</clustering>
</event>
<event>
 6    1  0.1007353E-011  0.3000000E+03  0.7818608E-02  0.1093470E+00
          1   -1    0    0  502    0  0.00000000000E+00  0.00000000000E+00  0.24583238761E+03  0.24583238761E+03  0.00000000000E+00 0.  1.
         13   -1    0    0    0    0 -0.00000000000E+00 -0.00000000000E+00 -0.27500000000E+03  0.27500000000E+03  0.00000000000E+00 0.  1.
    9000005    2    1    2  501    0 -0.23967951037E+02  0.28455204859E+02 -0.43606467653E+02  0.48092446983E+03  0.47749624114E+03 0.  0.
         13    1    3    3    0    0 -0.19452037836E+03 -0.11764130845E+03 -0.10158073337E+03  0.24899056296E+03  0.00000000000E+00 0.  1.
          1    1    3    3  501    0  0.17055242733E+03  0.14609651331E+03  0.57974265719E+02  0.23193390687E+03  0.00000000000E+00 0.  1.
         21    1    1    2  502  501  0.23967951037E+02 -0.28455204859E+02  0.14438855266E+02  0.39907917784E+02  0.00000000000E+00 0. -1.
<scales pt_clust_4="550.00000" pt_clust_5="550.00000" pt_clust_6="37.20432"></scales>
<mgrwt>
<rscale>  0 0.30000000E+03</rscale>
<asrwt>  1 0.37204319E+02</asrwt>
<pdfrwt beam="1">  1        1 0.89393595E+00 0.30000000E+03</pdfrwt>
<pdfrwt beam="2">0</pdfrwt>
<totfact> 0.12817542E-04</totfact>
</mgrwt>
<clustering>
<clus scale="   37.204">  1  6  2 -1</clus>
<clus scale="  477.496">  4  5 -1 -1</clus>
<clus scale="  300.000">  1  4  2 -1</clus>
</clustering>
</event>
<event>
 6    1  0.1007353E-011  0.3000000E+03  0.7818608E-02  0.1093470E+00
          1   -1    0    0  502    0  0.00000000000E+00  0.00000000000E+00  0.24236664104E+03  0.24236664104E+03  0.00000000000E+00 0.  1.
         13   -1    0    0    0    0 -0.00000000000E+00 -0.00000000000E+00 -0.27500000000E+03  0.27500000000E+03  0.00000000000E+00 0.  1.
    9000005    2    1    2  501    0  0.44753291439E+02  0.92874850296E+01 -0.32490280807E+02  0.47165958530E+03  0.46831403095E+03 0.  0.
         13    1    3    3    0    0 -0.15143744556E+03 -0.15088819783E+03 -0.43458697189E+02  0.21814950498E+03  0.00000000000E+00 0.  1.
          1    1    3    3  501    0  0.19619073700E+03  0.16017568286E+03  0.10968416382E+02  0.25351008032E+03  0.00000000000E+00 0.  1.
         21    1    1    2  502  501 -0.44753291439E+02 -0.92874850296E+01 -0.14307815345E+00  0.45707055737E+02  0.00000000000E+00 0. -1.
<scales pt_clust_4="550.00000" pt_clust_5="550.00000" pt_clust_6="45.70683"></scales>
<mgrwt>
<rscale>  0 0.30000000E+03</rscale>
<asrwt>  1 0.45706832E+02</asrwt>
<pdfrwt beam="1">  1        1 0.88133324E+00 0.30000000E+03</pdfrwt>
<pdfrwt beam="2">0</pdfrwt>
<totfact> 0.18087428E-04</totfact>
</mgrwt>
<clustering>
<clus scale="   45.707">  1  6  2 -1</clus>
<clus scale="  468.314">  4  5 -1 -1</clus>
<clus scale="  300.000">  1  4  2 -1</clus>
</clustering>
</event>
<event>
 6    1  0.1007353E-011  0.3000000E+03  0.7818608E-02  0.1093470E+00
          1   -1    0    0  502    0  0.00000000000E+00  0.00000000000E+00  0.26144492751E+03  0.26144492751E+03  0.00000000000E+00 0.  1.
         13   -1    0    0    0    0 -0.00000000000E+00 -0.00000000000E+00 -0.27500000000E+03  0.27500000000E+03  0.00000000000E+00 0.  1.
    9000005    2    1    2  501    0  0.37611177603E+02  0.37640172558E+02 -0.61119890615E+02  0.46507409878E+03  0.45795948844E+03 0.  0.
         13    1    3    3    0    0 -0.17974527706E+03  0.84722220845E+02 -0.12366457978E+03  0.23404945551E+03  0.00000000000E+00 0.  1.
          1    1    3    3  501    0  0.21735645466E+03 -0.47082048287E+02  0.62544689164E+02  0.23102464327E+03  0.00000000000E+00 0.  1.
         21    1    1    2  502  501 -0.37611177603E+02 -0.37640172558E+02  0.47564818126E+02  0.71370828734E+02  0.00000000000E+00 0. -1.
<scales pt_clust_4="550.00000" pt_clust_5="550.00000" pt_clust_6="53.21074"></scales>
<mgrwt>
<rscale>  0 0.30000000E+03</rscale>
<asrwt>  1 0.53210744E+02</asrwt>
<pdfrwt beam="1">  1        1 0.95070883E+00 0.30000000E+03</pdfrwt>
<pdfrwt beam="2">0</pdfrwt>
<totfact> 0.11061421E-05</totfact>
</mgrwt>
<clustering>
<clus scale="   53.211">  1  6  2 -1</clus>
<clus scale="  457.959">  4  5 -1 -1</clus>
<clus scale="  300.000">  1  4  2 -1</clus>
</clustering>
</event>
<event>
 6    1  0.1007353E-011  0.3000000E+03  0.7818608E-02  0.1093470E+00
          1   -1    0    0  502    0  0.00000000000E+00  0.00000000000E+00  0.24773274778E+03  0.24773274778E+03  0.00000000000E+00 0.  1.
         13   -1    0    0    0    0 -0.00000000000E+00 -0.00000000000E+00 -0.27500000000E+03  0.27500000000E+03  0.00000000000E+00 0.  1.
    9000005    2    1    2  501    0 -0.10633411898E+02  0.46511676295E+02 -0.22077865075E+02  0.47473967308E+03  0.47181979567E+03 0.  0.
         13    1    3    3    0    0 -0.12168956521E+03  0.21675282650E+03  0.59697955365E+02  0.25564425272E+03  0.00000000000E+00 0.  1.
          3    1    3    3  501    0  0.11105615332E+03 -0.17024115020E+03 -0.81775820440E+02  0.21909542035E+03  0.00000000000E+00 0.  1.
         21    1    1    2  502  501  0.10633411898E+02 -0.46511676295E+02 -0.51893871466E+01  0.47993074702E+02  0.00000000000E+00 0.  1.
<scales pt_clust_4="550.00000" pt_clust_5="550.00000" pt_clust_6="47.71172"></scales>
<mgrwt>
<rscale>  0 0.30000000E+03</rscale>
<asrwt>  1 0.47711715E+02</asrwt>
<pdfrwt beam="1">  1        1 0.90084636E+00 0.30000000E+03</pdfrwt>
<pdfrwt beam="2">0</pdfrwt>
<totfact> 0.10179967E-04</totfact>
</mgrwt>
<clustering>
<clus scale="   47.712">  1  6  2 -1</clus>
<clus scale="  471.820">  4  5 -1 -1</clus>
<clus scale="  300.000">  1  4  2 -1</clus>
</clustering>
</event>
<event>
 6    1  0.1007353E-011  0.3000000E+03  0.7818608E-02  0.1093470E+00
          1   -1    0    0  502    0  0.00000000000E+00  0.00000000000E+00  0.24249712819E+03  0.24249712819E+03  0.00000000000E+00 0.  1.
         13   -1    0    0    0    0 -0.00000000000E+00 -0.00000000000E+00 -0.27500000000E+03  0.27500000000E+03  0.00000000000E+00 0.  1.
    9000005    2    1    2  501    0  0.22488043038E+02 -0.20917225126E+02 -0.47041355180E+02  0.48351757720E+03  0.48024276775E+03 0.  0.
         13    1    3    3    0    0 -0.87808735860E+02  0.11292781101E+03  0.15921182106E+03  0.21403613843E+03  0.00000000000E+00 0.  1.
          1    1    3    3  501    0  0.11029677890E+03 -0.13384503613E+03 -0.20625317624E+03  0.26948143877E+03  0.00000000000E+00 0.  1.
         21    1    1    2  502  501 -0.22488043038E+02  0.20917225126E+02  0.14538483368E+02  0.33979550987E+02  0.00000000000E+00 0.  1.
<scales pt_clust_4="550.00000" pt_clust_5="550.00000" pt_clust_6="30.71225"></scales>
<mgrwt>
<rscale>  0 0.30000000E+03</rscale>
<asrwt>  1 0.30712251E+02</asrwt>
<pdfrwt beam="1">  1        1 0.88180774E+00 0.30000000E+03</pdfrwt>
<pdfrwt beam="2">0</pdfrwt>
<totfact> 0.19193979E-04</totfact>
</mgrwt>
<clustering>
<clus scale="   30.712">  1  6  2 -1</clus>
<clus scale="  480.243">  4  5 -1 -1</clus>
<clus scale="  300.000">  1  4  2 -1</clus>
</clustering>
</event>
<event>
 6    1  0.1007353E-011  0.3000000E+03  0.7818608E-02  0.1093470E+00
          1   -1    0    0  502    0  0.00000000000E+00  0.00000000000E+00  0.22567885170E+03  0.22567885170E+03  0.00000000000E+00 0.  1.
         13   -1    0    0    0    0 -0.00000000000E+00 -0.00000000000E+00 -0.27500000000E+03  0.27500000000E+03  0.00000000000E+00 0.  1.
    9000005    2    1    2  501    0 -0.24075877487E+02 -0.20117027538E+02 -0.52656470515E+02  0.46912782877E+03  0.46510630308E+03 0.  0.
         13    1    3    3    0    0  0.18756825813E+03 -0.12806853870E+03 -0.72050729973E+01  0.22723405365E+03  0.00000000000E+00 0.  1.
          3    1    3    3  501    0 -0.21164413562E+03  0.10795151116E+03 -0.45451397518E+02  0.24189377511E+03  0.00000000000E+00 0.  1.
         21    1    1    2  502  501  0.24075877487E+02  0.20117027538E+02  0.33353222108E+01  0.31551022931E+02  0.00000000000E+00 0.  1.
<scales pt_clust_4="550.00000" pt_clust_5="550.00000" pt_clust_6="31.37424"></scales>
<mgrwt>
<rscale>  0 0.30000000E+03</rscale>
<asrwt>  1 0.31374236E+02</asrwt>
<pdfrwt beam="1">  1        1 0.82065037E+00 0.30000000E+03</pdfrwt>
<pdfrwt beam="2">0</pdfrwt>
<totfact> 0.72883628E-04</totfact>
</mgrwt>
<clustering>
<clus scale="   31.374">  1  6  2 -1</clus>
<clus scale="  465.106">  4  5 -1 -1</clus>
<clus scale="  300.000">  1  4  2 -1</clus>
</clustering>
</event>
<event>
 6    1  0.1007353E-011  0.3000000E+03  0.7818608E-02  0.1093470E+00
          1   -1    0    0  502    0  0.00000000000E+00  0.00000000000E+00  0.23711410763E+03  0.23711410763E+03  0.00000000000E+00 0.  1.
         13   -1    0    0    0    0 -0.00000000000E+00 -0.00000000000E+00 -0.27500000000E+03  0.27500000000E+03  0.00000000000E+00 0.  1.
    9000005    2    1    2  501    0 -0.25298390968E+02 -0.16660737378E+02 -0.60822551523E+02  0.47411833038E+03  0.46922406127E+03 0.  0.
         13    1    3    3    0    0  0.91218074197E+02  0.19992764749E+03  0.39577803678E+01  0.21978959329E+03  0.00000000000E+00 0.  1.
          1    1    3    3  501    0 -0.11651646517E+03 -0.21658838487E+03 -0.64780331891E+02  0.25432873710E+03  0.00000000000E+00 0.  1.
         21    1    1    2  502  501  0.25298390968E+02  0.16660737378E+02  0.22936659158E+02  0.37995777251E+02  0.00000000000E+00 0.  1.
<scales pt_clust_4="550.00000" pt_clust_5="550.00000" pt_clust_6="30.29173"></scales>
<mgrwt>
<rscale>  0 0.30000000E+03</rscale>
<asrwt>  1 0.30291728E+02</asrwt>
<pdfrwt beam="1">  1        1 0.86223312E+00 0.30000000E+03</pdfrwt>
<pdfrwt beam="2">0</pdfrwt>
<totfact> 0.31456683E-04</totfact>
</mgrwt>
<clustering>
<clus scale="   30.292">  1  6  2 -1</clus>
<clus scale="  469.224">  4  5 -1 -1</clus>
<clus scale="  300.000">  1  4  2 -1</clus>
</clustering>
</event>
<event>
 6    1  0.1007353E-011  0.3000000E+03  0.7818608E-02  0.1093470E+00
          1   -1    0    0  502    0  0.00000000000E+00  0.00000000000E+00  0.22219428093E+03  0.22219428093E+03  0.00000000000E+00 0.  1.
         13   -1    0    0    0    0 -0.00000000000E+00 -0.00000000000E+00 -0.27500000000E+03  0.27500000000E+03  0.00000000000E+00 0.  1.
    9000005    2    1    2  501    0 -0.26239907745E+02  0.18192048741E+02 -0.52374676589E+02  0.46526202148E+03  0.46120077893E+03 0.  0.
         13    1    3    3    0    0 -0.22511755711E+03 -0.21494779315E+02 -0.11407553918E+03  0.25328475812E+03  0.00000000000E+00 0.  1.
          1    1    3    3  501    0  0.19887764936E+03  0.39686828057E+02  0.61700862596E+02  0.21197726336E+03  0.00000000000E+00 0.  1.
         21    1    1    2  502  501  0.26239907745E+02 -0.18192048741E+02 -0.43104248363E+00  0.31932259449E+02  0.00000000000E+00 0. -1.
<scales pt_clust_4="550.00000" pt_clust_5="550.00000" pt_clust_6="31.92935"></scales>
<mgrwt>
<rscale>  0 0.30000000E+03</rscale>
<asrwt>  1 0.31929350E+02</asrwt>
<pdfrwt beam="1">  1        1 0.80797920E+00 0.30000000E+03</pdfrwt>
<pdfrwt beam="2">0</pdfrwt>
<totfact> 0.91998286E-04</totfact>
</mgrwt>
<clustering>
<clus scale="   31.929">  1  6  2 -1</clus>
<clus scale="  461.201">  4  5 -1 -1</clus>
<clus scale="  300.000">  1  4  2 -1</clus>
</clustering>
</event>
<event>
 6    1  0.1007353E-011  0.3000000E+03  0.7818608E-02  0.1093470E+00
          1   -1    0    0  502    0  0.00000000000E+00  0.00000000000E+00  0.24452279843E+03  0.24452279843E+03  0.00000000000E+00 0.  1.
         13   -1    0    0    0    0 -0.00000000000E+00 -0.00000000000E+00 -0.27500000000E+03  0.27500000000E+03  0.00000000000E+00 0.  1.
    9000005    2    1    2  501    0  0.27844014943E+02 -0.25946684598E+02 -0.61289405666E+02  0.47055432356E+03  0.46499081772E+03 0.  0.
         13    1    3    3    0    0 -0.86092139637E+02  0.13907001309E+03  0.11790305276E+03  0.20162701927E+03  0.00000000000E+00 0.  1.
          3    1    3    3  501    0  0.11393615458E+03 -0.16501669769E+03 -0.17919245842E+03  0.26892730429E+03  0.00000000000E+00 0.  1.
         21    1    1    2  502  501 -0.27844014943E+02  0.25946684598E+02  0.30812204094E+02  0.48968474868E+02  0.00000000000E+00 0. -1.
<scales pt_clust_4="550.00000" pt_clust_5="550.00000" pt_clust_6="38.05942"></scales>
<mgrwt>
<rscale>  0 0.30000000E+03</rscale>
<asrwt>  1 0.38059422E+02</asrwt>
<pdfrwt beam="1">  1        1 0.88917381E+00 0.30000000E+03</pdfrwt>
<pdfrwt beam="2">0</pdfrwt>
<totfact> 0.14641059E-04</totfact>
</mgrwt>
<clustering>
<clus scale="   38.059">  1  6  2 -1</clus>
<clus scale="  464.991">  4  5 -1 -1</clus>
<clus scale="  300.000">  1  4  2 -1</clus>
</clustering>
</event>
<event>
 6    1  0.1007353E-011  0.3000000E+03  0.7818608E-02  0.1093470E+00
          1   -1    0    0  502    0  0.00000000000E+00  0.00000000000E+00  0.23478714839E+03  0.23478714839E+03  0.00000000000E+00 0.  1.
         13   -1    0    0    0    0 -0.00000000000E+00 -0.00000000000E+00 -0.27500000000E+03  0.27500000000E+03  0.00000000000E+00 0.  1.
    9000005    2    1    2  501    0  0.34043060647E+01  0.38955580543E+02 -0.61344318128E+02  0.46533869023E+03  0.45961706312E+03 0.  0.
         13    1    3    3    0    0 -0.71306914593E+02 -0.71754559443E+02 -0.22937576458E+03  0.25069230991E+03  0.00000000000E+00 0.  1.
          1    1    3    3  501    0  0.74711220658E+02  0.11071013999E+03  0.16803144646E+03  0.21464638032E+03  0.00000000000E+00 0.  1.
         21    1    1    2  502  501 -0.34043060647E+01 -0.38955580543E+02  0.21131466517E+02  0.44448458155E+02  0.00000000000E+00 0. -1.
<scales pt_clust_4="550.00000" pt_clust_5="550.00000" pt_clust_6="39.10405"></scales>
<mgrwt>
<rscale>  0 0.30000000E+03</rscale>
<asrwt>  1 0.39104048E+02</asrwt>
<pdfrwt beam="1">  1        1 0.85377145E+00 0.30000000E+03</pdfrwt>
<pdfrwt beam="2">0</pdfrwt>
<totfact> 0.36696070E-04</totfact>
</mgrwt>
<clustering>
<clus scale="   39.104">  1  6  2 -1</clus>
<clus scale="  459.617">  4  5 -1 -1</clus>
<clus scale="  300.000">  1  4  2 -1</clus>
</clustering>
</event>
<event>
 6    1  0.1007353E-011  0.3000000E+03  0.7818608E-02  0.1093470E+00
          1   -1    0    0  502    0  0.00000000000E+00  0.00000000000E+00  0.22906949216E+03  0.22906949216E+03  0.00000000000E+00 0.  1.
         13   -1    0    0    0    0 -0.00000000000E+00 -0.00000000000E+00 -0.27500000000E+03  0.27500000000E+03  0.00000000000E+00 0.  1.
    9000005    2    1    2  501    0 -0.15137847295E+02  0.36410063121E+02 -0.52700528535E+02  0.46406098935E+03  0.45936957780E+03 0.  0.
         13    1    3    3    0    0  0.19752607112E+03  0.11870502612E+03 -0.50984308743E+02  0.23602294748E+03  0.00000000000E+00 0.  1.
          1    1    3    3  501    0 -0.21266391841E+03 -0.82294962996E+02 -0.17162197923E+01  0.22803804187E+03  0.00000000000E+00 0.  1.
         21    1    1    2  502  501  0.15137847295E+02 -0.36410063121E+02  0.67700206965E+01  0.40008502814E+02  0.00000000000E+00 0.  1.
<scales pt_clust_4="550.00000" pt_clust_5="550.00000" pt_clust_6="39.43155"></scales>
<mgrwt>
<rscale>  0 0.30000000E+03</rscale>
<asrwt>  1 0.39431550E+02</asrwt>
<pdfrwt beam="1">  1        1 0.83297997E+00 0.30000000E+03</pdfrwt>
<pdfrwt beam="2">0</pdfrwt>
<totfact> 0.54773573E-04</totfact>
</mgrwt>
<clustering>
<clus scale="   39.432">  1  6  2 -1</clus>
<clus scale="  459.370">  4  5 -1 -1</clus>
<clus scale="  300.000">  1  4  2 -1</clus>
</clustering>
</event>
<event>
 6    1  0.1007353E-011  0.3000000E+03  0.7818608E-02  0.1093470E+00
          1   -1    0    0  502    0  0.00000000000E+00  0.00000000000E+00  0.24277883146E+03  0.24277883146E+03  0.00000000000E+00 0.  1.
         13   -1    0    0    0    0 -0.00000000000E+00 -0.00000000000E+00 -0.27500000000E+03  0.27500000000E+03  0.00000000000E+00 0.  1.
    9000005    2    1    2  501    0 -0.18606512842E+02 -0.43169213198E+02 -0.52976405235E+02  0.46639242140E+03  0.46098330549E+03 0.  0.
         13    1    3    3    0    0 -0.20282778536E+03 -0.93053777069E+02  0.76341115307E+02  0.23585182176E+03  0.00000000000E+00 0.  1.
          3    1    3    3  501    0  0.18422127252E+03  0.49884563871E+02 -0.12931752054E+03  0.23054059964E+03  0.00000000000E+00 0.  1.
         21    1    1    2  502  501  0.18606512842E+02  0.43169213198E+02  0.20755236691E+02  0.51386410055E+02  0.00000000000E+00 0.  1.
<scales pt_clust_4="550.00000" pt_clust_5="550.00000" pt_clust_6="47.00833"></scales>
<mgrwt>
<rscale>  0 0.30000000E+03</rscale>
<asrwt>  1 0.47008332E+02</asrwt>
<pdfrwt beam="1">  1        1 0.88283211E+00 0.30000000E+03</pdfrwt>
<pdfrwt beam="2">0</pdfrwt>
<totfact> 0.17205019E-04</totfact>
</mgrwt>
<clustering>
<clus scale="   47.008">  1  6  2 -1</clus>
<clus scale="  460.983">  4  5 -1 -1</clus>
<clus scale="  300.000">  1  4  2 -1</clus>
</clustering>
</event>
<event>
 6    1  0.1007353E-011  0.3000000E+03  0.7818608E-02  0.1093470E+00
          1   -1    0    0  502    0  0.00000000000E+00  0.00000000000E+00  0.23244249133E+03  0.23244249133E+03  0.00000000000E+00 0.  1.
         13   -1    0    0    0    0 -0.00000000000E+00 -0.00000000000E+00 -0.27500000000E+03  0.27500000000E+03  0.00000000000E+00 0.  1.
    9000005    2    1    2  501    0  0.33241443369E+02  0.17848442112E+02 -0.55281497007E+02  0.46762465208E+03  0.46281012401E+03 0.  0.
         13    1    3    3    0    0  0.37193350613E+02 -0.31099776897E+02 -0.25622299109E+03  0.26076955846E+03  0.00000000000E+00 0.  1.
          1    1    3    3  501    0 -0.39519072444E+01  0.48948219009E+02  0.20094149409E+03  0.20685509363E+03  0.00000000000E+00 0.  1.
         21    1    1    2  502  501 -0.33241443369E+02 -0.17848442112E+02  0.12723988338E+02  0.39817839247E+02  0.00000000000E+00 0.  1.
<scales pt_clust_4="550.00000" pt_clust_5="550.00000" pt_clust_6="37.73010"></scales>
<mgrwt>
<rscale>  0 0.30000000E+03</rscale>
<asrwt>  1 0.37730100E+02</asrwt>
<pdfrwt beam="1">  1        1 0.84524542E+00 0.30000000E+03</pdfrwt>
<pdfrwt beam="2">0</pdfrwt>
<totfact> 0.44336412E-04</totfact>
</mgrwt>
<clustering>
<clus scale="   37.730">  1  6  2 -1</clus>
<clus scale="  462.810">  4  5 -1 -1</clus>
<clus scale="  300.000">  1  4  2 -1</clus>
</clustering>
</event>
<event>
 6    1  0.1007353E-011  0.3000000E+03  0.7818608E-02  0.1093470E+00
          1   -1    0    0  502    0  0.00000000000E+00  0.00000000000E+00  0.22689001208E+03  0.22689001208E+03  0.00000000000E+00 0.  1.
         13   -1    0    0    0    0 -0.00000000000E+00 -0.00000000000E+00 -0.27500000000E+03  0.27500000000E+03  0.00000000000E+00 0.  1.
    9000005    2    1    2  501    0 -0.75951527746E+01 -0.31327103621E+02 -0.49806203076E+02  0.46961074764E+03  0.46584817555E+03 0.  0.
         13    1    3    3    0    0  0.13036901881E+03 -0.12293268214E+03  0.13284424148E+03  0.22306079417E+03  0.00000000000E+00 0.  1.
          3    1    3    3  501    0 -0.13796417158E+03  0.91605578518E+02 -0.18265044456E+03  0.24654995346E+03  0.00000000000E+00 0.  1.
         21    1    1    2  502  501  0.75951527746E+01  0.31327103621E+02  0.16962151528E+01  0.32279264440E+02  0.00000000000E+00 0. -1.
<scales pt_clust_4="550.00000" pt_clust_5="550.00000" pt_clust_6="32.23467"></scales>
<mgrwt>
<rscale>  0 0.30000000E+03</rscale>
<asrwt>  1 0.32234667E+02</asrwt>
<pdfrwt beam="1">  1        1 0.82505459E+00 0.30000000E+03</pdfrwt>
<pdfrwt beam="2">0</pdfrwt>
<totfact> 0.66263864E-04</totfact>
</mgrwt>
<clustering>
<clus scale="   32.235">  1  6  2 -1</clus>
<clus scale="  465.848">  4  5 -1 -1</clus>
<clus scale="  300.000">  1  4  2 -1</clus>
</clustering>
</event>
<event>
 6    1  0.1007353E-011  0.3000000E+03  0.7818608E-02  0.1093470E+00
          1   -1    0    0  502    0  0.00000000000E+00  0.00000000000E+00  0.22206163789E+03  0.22206163789E+03  0.00000000000E+00 0.  1.
         13   -1    0    0    0    0 -0.00000000000E+00 -0.00000000000E+00 -0.27500000000E+03  0.27500000000E+03  0.00000000000E+00 0.  1.
    9000005    2    1    2  501    0 -0.30991883361E+02 -0.15490974669E+02 -0.53017704066E+02  0.46241378910E+03  0.45805585716E+03 0.  0.
         13    1    3    3    0    0  0.15293681815E+03 -0.61376593401E+02  0.12150521788E+03  0.20474441271E+03  0.00000000000E+00 0.  1.
          3    1    3    3  501    0 -0.18392870152E+03  0.45885618732E+02 -0.17452292194E+03  0.25766937639E+03  0.00000000000E+00 0.  1.
         21    1    1    2  502  501  0.30991883361E+02  0.15490974669E+02  0.79341956635E-01  0.34647848788E+02  0.00000000000E+00 0.  1.
<scales pt_clust_4="550.00000" pt_clust_5="550.00000" pt_clust_6="34.64776"></scales>
<mgrwt>
<rscale>  0 0.30000000E+03</rscale>
<asrwt>  1 0.34647758E+02</asrwt>
<pdfrwt beam="1">  1        1 0.80749687E+00 0.30000000E+03</pdfrwt>
<pdfrwt beam="2">0</pdfrwt>
<totfact> 0.91368356E-04</totfact>
</mgrwt>
<clustering>
<clus scale="   34.648">  1  6  2 -1</clus>
<clus scale="  458.056">  4  5 -1 -1</clus>
<clus scale="  300.000">  1  4  2 -1</clus>
</clustering>
</event>
<event>
 6    1  0.1007353E-011  0.3000000E+03  0.7818608E-02  0.1093470E+00
          1   -1    0    0  502    0  0.00000000000E+00  0.00000000000E+00  0.24756796064E+03  0.24756796064E+03  0.00000000000E+00 0.  1.
         13   -1    0    0    0    0 -0.00000000000E+00 -0.00000000000E+00 -0.27500000000E+03  0.27500000000E+03  0.00000000000E+00 0.  1.
    9000005    2    1    2  501    0 -0.68010642453E+01 -0.41942822262E+02 -0.97685554084E+01  0.47655216467E+03  0.47455356511E+03 0.  0.
         13    1    3    3    0    0  0.22968415836E+03  0.23985963358E+02 -0.28105722227E+01  0.23095029412E+03  0.00000000000E+00 0.  1.
          1    1    3    3  501    0 -0.23648522261E+03 -0.65928785621E+02 -0.69579831856E+01  0.24560187054E+03  0.00000000000E+00 0.  1.
         21    1    1    2  502  501  0.68010642453E+01  0.41942822262E+02 -0.17663483948E+02  0.46015795977E+02  0.00000000000E+00 0. -1.
<scales pt_clust_4="550.00000" pt_clust_5="550.00000" pt_clust_6="42.49067"></scales>
<mgrwt>
<rscale>  0 0.30000000E+03</rscale>
<asrwt>  1 0.42490665E+02</asrwt>
<pdfrwt beam="1">  1        1 0.90024713E+00 0.30000000E+03</pdfrwt>
<pdfrwt beam="2">0</pdfrwt>
<totfact> 0.10581186E-04</totfact>
</mgrwt>
<clustering>
<clus scale="   42.491">  1  6  2 -1</clus>
<clus scale="  474.554">  4  5 -1 -1</clus>
<clus scale="  300.000">  1  4  2 -1</clus>
</clustering>
</event>
<event>
 6    1  0.1007353E-011  0.3000000E+03  0.7818608E-02  0.1093470E+00
          1   -1    0    0  502    0  0.00000000000E+00  0.00000000000E+00  0.22411890677E+03  0.22411890677E+03  0.00000000000E+00 0.  1.
         13   -1    0    0    0    0 -0.00000000000E+00 -0.00000000000E+00 -0.27500000000E+03  0.27500000000E+03  0.00000000000E+00 0.  1.
    9000005    2    1    2  501    0 -0.26953041908E+02  0.13735719600E+02 -0.53086022324E+02  0.46878743511E+03  0.46478855094E+03 0.  0.
         13    1    3    3    0    0 -0.16475059583E+03 -0.50066251075E+02  0.14086078083E+03  0.22246606010E+03  0.00000000000E+00 0.  1.
          1    1    3    3  501    0  0.13779755392E+03  0.63801970675E+02 -0.19394680316E+03  0.24632137500E+03  0.00000000000E+00 0.  1.
         21    1    1    2  502  501  0.26953041908E+02 -0.13735719600E+02  0.22049290934E+01  0.30331471665E+02  0.00000000000E+00 0.  1.
<scales pt_clust_4="550.00000" pt_clust_5="550.00000" pt_clust_6="30.25122"></scales>
<mgrwt>
<rscale>  0 0.30000000E+03</rscale>
<asrwt>  1 0.30251222E+02</asrwt>
<pdfrwt beam="1">  1        1 0.81497784E+00 0.30000000E+03</pdfrwt>
<pdfrwt beam="2">0</pdfrwt>
<totfact> 0.81869709E-04</totfact>
</mgrwt>
<clustering>
<clus scale="   30.251">  1  6  2 -1</clus>
<clus scale="  464.789">  4  5 -1 -1</clus>
<clus scale="  300.000">  1  4  2 -1</clus>
</clustering>
</event>
<event>
 6    1  0.1007353E-011  0.3000000E+03  0.7818608E-02  0.1093470E+00
          1   -1    0    0  502    0  0.00000000000E+00  0.00000000000E+00  0.23466753491E+03  0.23466753491E+03  0.00000000000E+00 0.  1.
         13   -1    0    0    0    0 -0.00000000000E+00 -0.00000000000E+00 -0.27500000000E+03  0.27500000000E+03  0.00000000000E+00 0.  1.
    9000005    2    1    2  501    0 -0.45580861319E+02  0.43265383316E+01 -0.27310514186E+02  0.46206601121E+03  0.45898017460E+03 0.  0.
         13    1    3    3    0    0 -0.23750598724E+03 -0.79920550209E+02  0.75927530518E+00  0.25059322580E+03  0.00000000000E+00 0.  1.
          3    1    3    3  501    0  0.19192512592E+03  0.84247088540E+02 -0.28069789491E+02  0.21147278541E+03  0.00000000000E+00 0.  1.
         21    1    1    2  502  501  0.45580861319E+02 -0.43265383316E+01 -0.13021950909E+02  0.47601523694E+02  0.00000000000E+00 0.  1.
<scales pt_clust_4="550.00000" pt_clust_5="550.00000" pt_clust_6="45.78576"></scales>
<mgrwt>
<rscale>  0 0.30000000E+03</rscale>
<asrwt>  1 0.45785761E+02</asrwt>
<pdfrwt beam="1">  1        1 0.85333649E+00 0.30000000E+03</pdfrwt>
<pdfrwt beam="2">0</pdfrwt>
<totfact> 0.36012949E-04</totfact>
</mgrwt>
<clustering>
<clus scale="   45.786">  1  6  2 -1</clus>
<clus scale="  458.980">  4  5 -1 -1</clus>
<clus scale="  300.000">  1  4  2 -1</clus>
</clustering>
</event>
<event>
 6    1  0.1007353E-011  0.3000000E+03  0.7818608E-02  0.1093470E+00
          1   -1    0    0  502    0  0.00000000000E+00  0.00000000000E+00  0.25203082028E+03  0.25203082028E+03  0.00000000000E+00 0.  1.
         13   -1    0    0    0    0 -0.00000000000E+00 -0.00000000000E+00 -0.27500000000E+03  0.27500000000E+03  0.00000000000E+00 0.  1.
    9000005    2    1    2  501    0  0.47526862342E+02  0.52791749580E+01 -0.55185092806E+02  0.46937201880E+03  0.46365722817E+03 0.  0.
         13    1    3    3    0    0 -0.54441799765E+02  0.21956060442E+03 -0.21879924421E+01  0.22622014916E+03  0.00000000000E+00 0.  1.
          3    1    3    3  501    0  0.10196866211E+03 -0.21428142946E+03 -0.52997100364E+02  0.24315186964E+03  0.00000000000E+00 0.  1.
         21    1    1    2  502  501 -0.47526862342E+02 -0.52791749580E+01  0.32215913088E+02  0.57658801482E+02  0.00000000000E+00 0. -1.
<scales pt_clust_4="550.00000" pt_clust_5="550.00000" pt_clust_6="47.81916"></scales>
<mgrwt>
<rscale>  0 0.30000000E+03</rscale>
<asrwt>  1 0.47819163E+02</asrwt>
<pdfrwt beam="1">  1        1 0.91647571E+00 0.30000000E+03</pdfrwt>
<pdfrwt beam="2">0</pdfrwt>
<totfact> 0.47310981E-05</totfact>
</mgrwt>
<clustering>
<clus scale="   47.819">  1  6  2 -1</clus>
<clus scale="  463.657">  4  5 -1 -1</clus>
<clus scale="  300.000">  1  4  2 -1</clus>
</clustering>
</event>
<event>
 6    1  0.1007353E-011  0.3000000E+03  0.7818608E-02  0.1093470E+00
          1   -1    0    0  502    0  0.00000000000E+00  0.00000000000E+00  0.23086278921E+03  0.23086278921E+03  0.00000000000E+00 0.  1.
         13   -1    0    0    0    0 -0.00000000000E+00 -0.00000000000E+00 -0.27500000000E+03  0.27500000000E+03  0.00000000000E+00 0.  1.
    9000005    2    1    2  501    0 -0.32082882316E+02  0.43264279793E+01 -0.18974479952E+02  0.46486044367E+03  0.46334347074E+03 0.  0.
         13    1    3    3    0    0 -0.10670735978E+03 -0.61463766393E+02  0.19400739383E+03  0.22978930365E+03  0.00000000000E+00 0.  1.
          1    1    3    3  501    0  0.74624477464E+02  0.65790194372E+02 -0.21298187378E+03  0.23507114002E+03  0.00000000000E+00 0.  1.
         21    1    1    2  502  501  0.32082882316E+02 -0.43264279793E+01 -0.25162730839E+02  0.41002345543E+02  0.00000000000E+00 0. -1.
<scales pt_clust_4="550.00000" pt_clust_5="550.00000" pt_clust_6="32.37330"></scales>
<mgrwt>
<rscale>  0 0.30000000E+03</rscale>
<asrwt>  1 0.32373297E+02</asrwt>
<pdfrwt beam="1">  1        1 0.83950105E+00 0.30000000E+03</pdfrwt>
<pdfrwt beam="2">0</pdfrwt>
<totfact> 0.50883447E-04</totfact>
</mgrwt>
<clustering>
<clus scale="   32.373">  1  6  2 -1</clus>
<clus scale="  463.343">  4  5 -1 -1</clus>
<clus scale="  300.000">  1  4  2 -1</clus>
</clustering>
</event>
<event>
 6    1  0.1007353E-011  0.3000000E+03  0.7818608E-02  0.1093470E+00
          1   -1    0    0  502    0  0.00000000000E+00  0.00000000000E+00  0.22138266594E+03  0.22138266594E+03  0.00000000000E+00 0.  1.
         13   -1    0    0    0    0 -0.00000000000E+00 -0.00000000000E+00 -0.27500000000E+03  0.27500000000E+03  0.00000000000E+00 0.  1.
    9000005    2    1    2  501    0  0.29810934232E+02 -0.11879369033E+02 -0.64407537824E+02  0.46252650393E+03  0.45689454440E+03 0.  0.
         13    1    3    3    0    0 -0.14666968688E+03 -0.16606358513E+03 -0.91279966293E+01  0.22174857762E+03  0.00000000000E+00 0.  1.
          1    1    3    3  501    0  0.17648062111E+03  0.15418421610E+03 -0.55279541195E+02  0.24077792631E+03  0.00000000000E+00 0.  1.
         21    1    1    2  502  501 -0.29810934232E+02  0.11879369033E+02  0.10790203760E+02  0.33856162004E+02  0.00000000000E+00 0.  1.
<scales pt_clust_4="550.00000" pt_clust_5="550.00000" pt_clust_6="32.09067"></scales>
<mgrwt>
<rscale>  0 0.30000000E+03</rscale>
<asrwt>  1 0.32090672E+02</asrwt>
<pdfrwt beam="1">  1        1 0.80502788E+00 0.30000000E+03</pdfrwt>
<pdfrwt beam="2">0</pdfrwt>
<totfact> 0.96819682E-04</totfact>
</mgrwt>
<clustering>
<clus scale="   32.091">  1  6  2 -1</clus>
<clus scale="  456.895">  4  5 -1 -1</clus>
<clus scale="  300.000">  1  4  2 -1</clus>
</clustering>
</event>
<event>
 6    1  0.1007353E-011  0.3000000E+03  0.7818608E-02  0.1093470E+00
          1   -1    0    0  502    0  0.00000000000E+00  0.00000000000E+00  0.22700553700E+03  0.22700553700E+03  0.00000000000E+00 0.  1.
         13   -1    0    0    0    0 -0.00000000000E+00 -0.00000000000E+00 -0.27500000000E+03  0.27500000000E+03  0.00000000000E+00 0.  1.
    9000005    2    1    2  501    0  0.26424673518E+02  0.22883619196E+02 -0.60593416738E+02  0.46484834344E+03  0.45955467232E+03 0.  0.
         13    1    3    3    0    0 -0.68447795197E+02  0.17088145372E+03  0.11445667049E+03  0.21676231525E+03  0.00000000000E+00 0.  1.
          3    1    3    3  501    0  0.94872468715E+02 -0.14799783453E+03 -0.17505008722E+03  0.24808602819E+03  0.00000000000E+00 0.  1.
         21    1    1    2  502  501 -0.26424673518E+02 -0.22883619196E+02  0.12598953738E+02  0.37157193561E+02  0.00000000000E+00 0.  1.
<scales pt_clust_4="550.00000" pt_clust_5="550.00000" pt_clust_6="34.95602"></scales>
<mgrwt>
<rscale>  0 0.30000000E+03</rscale>
<asrwt>  1 0.34956021E+02</asrwt>
<pdfrwt beam="1">  1        1 0.82547468E+00 0.30000000E+03</pdfrwt>
<pdfrwt beam="2">0</pdfrwt>
<totfact> 0.64698918E-04</totfact>
</mgrwt>
<clustering>
<clus scale="   34.956">  1  6  2 -1</clus>
<clus scale="  459.555">  4  5 -1 -1</clus>
<clus scale="  300.000">  1  4  2 -1</clus>
</clustering>
</event>
<event>
 6    1  0.1007353E-011  0.3000000E+03  0.7818608E-02  0.1093470E+00
          1   -1    0    0  502    0  0.00000000000E+00  0.00000000000E+00  0.22836504286E+03  0.22836504286E+03  0.00000000000E+00 0.  1.
         13   -1    0    0    0    0 -0.00000000000E+00 -0.00000000000E+00 -0.27500000000E+03  0.27500000000E+03  0.00000000000E+00 0.  1.
    9000005    2    1    2  501    0 -0.31415182266E+02  0.11338067938E+02 -0.18886049595E+02  0.45994307455E+03  0.45833992135E+03 0.  0.
         13    1    3    3    0    0  0.18881348949E+03  0.10152376279E+03 -0.49457231015E+02  0.22000824058E+03  0.00000000000E+00 0.  1.
          1    1    3    3  501    0 -0.22022867176E+03 -0.90185694849E+02  0.30571181420E+02  0.23993483397E+03  0.00000000000E+00 0.  1.
         21    1    1    2  502  501  0.31415182266E+02 -0.11338067938E+02 -0.27748907546E+02  0.43421968304E+02  0.00000000000E+00 0.  1.
<scales pt_clust_4="550.00000" pt_clust_5="550.00000" pt_clust_6="33.39860"></scales>
<mgrwt>
<rscale>  0 0.30000000E+03</rscale>
<asrwt>  1 0.33398601E+02</asrwt>
<pdfrwt beam="1">  1        1 0.83041834E+00 0.30000000E+03</pdfrwt>
<pdfrwt beam="2">0</pdfrwt>
<totfact> 0.59154758E-04</totfact>
</mgrwt>
<clustering>
<clus scale="   33.399">  1  6  2 -1</clus>
<clus scale="  458.340">  4  5 -1 -1</clus>
<clus scale="  300.000">  1  4  2 -1</clus>
</clustering>
</event>
<event>
 6    1  0.1007353E-011  0.3000000E+03  0.7818608E-02  0.1093470E+00
          1   -1    0    0  502    0  0.00000000000E+00  0.00000000000E+00  0.24206704978E+03  0.24206704978E+03  0.00000000000E+00 0.  1.
         13   -1    0    0    0    0 -0.00000000000E+00 -0.00000000000E+00 -0.27500000000E+03  0.27500000000E+03  0.00000000000E+00 0.  1.
    9000005    2    1    2  501    0  0.18041747042E+02 -0.46762366103E+02 -0.36436061995E+02  0.46682269376E+03  0.46269170867E+03 0.  0.
         13    1    3    3    0    0 -0.12018344373E+03 -0.10114901484E+03  0.15756202853E+03  0.22248814841E+03  0.00000000000E+00 0.  1.
          1    1    3    3  501    0  0.13822519077E+03  0.54386648740E+02 -0.19399809052E+03  0.24433454535E+03  0.00000000000E+00 0.  1.
         21    1    1    2  502  501 -0.18041747042E+02  0.46762366103E+02  0.35031117737E+01  0.50244356021E+02  0.00000000000E+00 0.  1.
<scales pt_clust_4="550.00000" pt_clust_5="550.00000" pt_clust_6="50.12209"></scales>
<mgrwt>
<rscale>  0 0.30000000E+03</rscale>
<asrwt>  1 0.50122086E+02</asrwt>
<pdfrwt beam="1">  1        1 0.88024382E+00 0.30000000E+03</pdfrwt>
<pdfrwt beam="2">0</pdfrwt>
<totfact> 0.18367395E-04</totfact>
</mgrwt>
<clustering>
<clus scale="   50.122">  1  6  2 -1</clus>
<clus scale="  462.692">  4  5 -1 -1</clus>
<clus scale="  300.000">  1  4  2 -1</clus>
</clustering>
</event>
<event>
 6    1  0.1007353E-011  0.3000000E+03  0.7818608E-02  0.1093470E+00
          1   -1    0    0  502    0  0.00000000000E+00  0.00000000000E+00  0.22484766926E+03  0.22484766926E+03  0.00000000000E+00 0.  1.
         13   -1    0    0    0    0 -0.00000000000E+00 -0.00000000000E+00 -0.27500000000E+03  0.27500000000E+03  0.00000000000E+00 0.  1.
    9000005    2    1    2  501    0 -0.28822242389E+02  0.14171324805E+02 -0.62133907398E+02  0.46556784601E+03  0.46028387837E+03 0.  0.
         13    1    3    3    0    0  0.81032016964E+02  0.21617440696E+03 -0.19274305124E+02  0.23166583873E+03  0.00000000000E+00 0.  1.
          3    1    3    3  501    0 -0.10985425935E+03 -0.20200308216E+03 -0.42859602274E+02  0.23390200727E+03  0.00000000000E+00 0.  1.
         21    1    1    2  502  501  0.28822242389E+02 -0.14171324805E+02  0.11981576657E+02  0.34279823253E+02  0.00000000000E+00 0. -1.
<scales pt_clust_4="550.00000" pt_clust_5="550.00000" pt_clust_6="32.11772"></scales>
<mgrwt>
<rscale>  0 0.30000000E+03</rscale>
<asrwt>  1 0.32117723E+02</asrwt>
<pdfrwt beam="1">  1        1 0.81762789E+00 0.30000000E+03</pdfrwt>
<pdfrwt beam="2">0</pdfrwt>
<totfact> 0.76997540E-04</totfact>
</mgrwt>
<clustering>
<clus scale="   32.118">  1  6  2 -1</clus>
<clus scale="  460.284">  4  5 -1 -1</clus>
<clus scale="  300.000">  1  4  2 -1</clus>
</clustering>
</event>
<event>
 6    1  0.1007353E-011  0.3000000E+03  0.7818608E-02  0.1093470E+00
          1   -1    0    0  502    0  0.00000000000E+00  0.00000000000E+00  0.24688248181E+03  0.24688248181E+03  0.00000000000E+00 0.  1.
         13   -1    0    0    0    0 -0.00000000000E+00 -0.00000000000E+00 -0.27500000000E+03  0.27500000000E+03  0.00000000000E+00 0.  1.
    9000005    2    1    2  501    0  0.46149554784E+02  0.13013821284E+02 -0.24109363260E+02  0.47376589156E+03  0.47071617526E+03 0.  0.
         13    1    3    3    0    0 -0.67226298821E+02  0.14463961206E+03 -0.17989695654E+03  0.24042235255E+03  0.00000000000E+00 0.  1.
          3    1    3    3  501    0  0.11337585360E+03 -0.13162579077E+03  0.15578759328E+03  0.23334353901E+03  0.00000000000E+00 0.  1.
         21    1    1    2  502  501 -0.46149554784E+02 -0.13013821284E+02 -0.40081549345E+01  0.48116590248E+02  0.00000000000E+00 0.  1.
<scales pt_clust_4="550.00000" pt_clust_5="550.00000" pt_clust_6="47.94938"></scales>
<mgrwt>
<rscale>  0 0.30000000E+03</rscale>
<asrwt>  1 0.47949382E+02</asrwt>
<pdfrwt beam="1">  1        1 0.89775448E+00 0.30000000E+03</pdfrwt>
<pdfrwt beam="2">0</pdfrwt>
<totfact> 0.11091312E-04</totfact>
</mgrwt>
<clustering>
<clus scale="   47.949">  1  6  2 -1</clus>
<clus scale="  470.716">  4  5 -1 -1</clus>
<clus scale="  300.000">  1  4  2 -1</clus>
</clustering>
</event>
<event>
 6    1  0.1007353E-011  0.3000000E+03  0.7818608E-02  0.1093470E+00
          1   -1    0    0  502    0  0.00000000000E+00  0.00000000000E+00  0.25551409751E+03  0.25551409751E+03  0.00000000000E+00 0.  1.
         13   -1    0    0    0    0 -0.00000000000E+00 -0.00000000000E+00 -0.27500000000E+03  0.27500000000E+03  0.00000000000E+00 0.  1.
    9000005    2    1    2  501    0  0.29503296950E+02  0.23418830728E+02 -0.53200327267E+02  0.47996166333E+03  0.47551449745E+03 0.  0.
         13    1    3    3    0    0 -0.13311314200E+03  0.15902295255E+03 -0.14096510104E+03  0.25075599240E+03  0.00000000000E+00 0.  1.
          3    1    3    3  501    0  0.16261643895E+03 -0.13560412182E+03  0.87764773777E+02  0.22920567093E+03  0.00000000000E+00 0.  1.
         21    1    1    2  502  501 -0.29503296950E+02 -0.23418830728E+02  0.33714424776E+02  0.50552434181E+02  0.00000000000E+00 0.  1.
<scales pt_clust_4="550.00000" pt_clust_5="550.00000" pt_clust_6="37.66811"></scales>
<mgrwt>
<rscale>  0 0.30000000E+03</rscale>
<asrwt>  1 0.37668105E+02</asrwt>
<pdfrwt beam="1">  1        1 0.92914217E+00 0.30000000E+03</pdfrwt>
<pdfrwt beam="2">0</pdfrwt>
<totfact> 0.26797751E-05</totfact>
</mgrwt>
<clustering>
<clus scale="   37.668">  1  6  2 -1</clus>
<clus scale="  475.514">  4  5 -1 -1</clus>
<clus scale="  300.000">  1  4  2 -1</clus>
</clustering>
</event>
<event>
 6    1  0.1007353E-011  0.3000000E+03  0.7818608E-02  0.1093470E+00
          1   -1    0    0  502    0  0.00000000000E+00  0.00000000000E+00  0.23246146249E+03  0.23246146249E+03  0.00000000000E+00 0.  1.
         13   -1    0    0    0    0 -0.00000000000E+00 -0.00000000000E+00 -0.27500000000E+03  0.27500000000E+03  0.00000000000E+00 0.  1.
    9000005    2    1    2  501    0  0.30410716416E+02  0.11150134672E+02 -0.61056008879E+02  0.47015149168E+03  0.46504349445E+03 0.  0.
         13    1    3    3    0    0 -0.16062878413E+03 -0.11875039192E+03  0.61007894460E+02  0.20886652450E+03  0.00000000000E+00 0.  1.
          1    1    3    3  501    0  0.19103950054E+03  0.12990052659E+03 -0.12206390334E+03  0.26128496718E+03  0.00000000000E+00 0.  1.
         21    1    1    2  502  501 -0.30410716416E+02 -0.11150134672E+02  0.18517471372E+02  0.37309970814E+02  0.00000000000E+00 0. -1.
<scales pt_clust_4="550.00000" pt_clust_5="550.00000" pt_clust_6="32.39039"></scales>
<mgrwt>
<rscale>  0 0.30000000E+03</rscale>
<asrwt>  1 0.32390387E+02</asrwt>
<pdfrwt beam="1">  1        1 0.84531441E+00 0.30000000E+03</pdfrwt>
<pdfrwt beam="2">0</pdfrwt>
<totfact> 0.45556894E-04</totfact>
</mgrwt>
<clustering>
<clus scale="   32.390">  1  6  2 -1</clus>
<clus scale="  465.043">  4  5 -1 -1</clus>
<clus scale="  300.000">  1  4  2 -1</clus>
</clustering>
</event>
<event>
 6    1  0.1007353E-011  0.3000000E+03  0.7818608E-02  0.1093470E+00
          1   -1    0    0  502    0  0.00000000000E+00  0.00000000000E+00  0.25472196534E+03  0.25472196534E+03  0.00000000000E+00 0.  1.
         13   -1    0    0    0    0 -0.00000000000E+00 -0.00000000000E+00 -0.27500000000E+03  0.27500000000E+03  0.00000000000E+00 0.  1.
    9000005    2    1    2  501    0 -0.19096043522E+02  0.30202906648E+02 -0.31420239261E+02  0.49229172126E+03  0.48998676813E+03 0.  0.
         13    1    3    3    0    0  0.16408136428E+03 -0.15376393436E+03 -0.55348799112E+02  0.23158050690E+03  0.00000000000E+00 0.  1.
          3    1    3    3  501    0 -0.18317740780E+03  0.18396684100E+03  0.23928559851E+02  0.26071121436E+03  0.00000000000E+00 0.  1.
         21    1    1    2  502  501  0.19096043522E+02 -0.30202906648E+02  0.11142204597E+02  0.37430244075E+02  0.00000000000E+00 0. -1.
<scales pt_clust_4="550.00000" pt_clust_5="550.00000" pt_clust_6="35.73338"></scales>
<mgrwt>
<rscale>  0 0.30000000E+03</rscale>
<asrwt>  1 0.35733380E+02</asrwt>
<pdfrwt beam="1">  1        1 0.92626169E+00 0.30000000E+03</pdfrwt>
<pdfrwt beam="2">0</pdfrwt>
<totfact> 0.30769156E-05</totfact>
</mgrwt>
<clustering>
<clus scale="   35.733">  1  6  2 -1</clus>
<clus scale="  489.987">  4  5 -1 -1</clus>
<clus scale="  300.000">  1  4  2 -1</clus>
</clustering>
</event>
<event>
 6    1  0.1007353E-011  0.3000000E+03  0.7818608E-02  0.1093470E+00
          1   -1    0    0  502    0  0.00000000000E+00  0.00000000000E+00  0.23106180070E+03  0.23106180070E+03  0.00000000000E+00 0.  1.
         13   -1    0    0    0    0 -0.00000000000E+00 -0.00000000000E+00 -0.27500000000E+03  0.27500000000E+03  0.00000000000E+00 0.  1.
    9000005    2    1    2  501    0 -0.39733670010E+02  0.16310928021E+02 -0.29324422020E+02  0.46069250059E+03  0.45774758052E+03 0.  0.
         13    1    3    3    0    0  0.19874561995E+03  0.50958962036E+02 -0.68997669096E+02  0.21646550672E+03  0.00000000000E+00 0.  1.
          3    1    3    3  501    0 -0.23847928996E+03 -0.34648034014E+02  0.39673247076E+02  0.24422699387E+03  0.00000000000E+00 0.  1.
         21    1    1    2  502  501  0.39733670010E+02 -0.16310928021E+02 -0.14613777284E+02  0.45369300104E+02  0.00000000000E+00 0. -1.
<scales pt_clust_4="550.00000" pt_clust_5="550.00000" pt_clust_6="42.95128"></scales>
<mgrwt>
<rscale>  0 0.30000000E+03</rscale>
<asrwt>  1 0.42951283E+02</asrwt>
<pdfrwt beam="1">  1        1 0.84022473E+00 0.30000000E+03</pdfrwt>
<pdfrwt beam="2">0</pdfrwt>
<totfact> 0.47680952E-04</totfact>
</mgrwt>
<clustering>
<clus scale="   42.951">  1  6  2 -1</clus>
<clus scale="  457.748">  4  5 -1 -1</clus>
<clus scale="  300.000">  1  4  2 -1</clus>
</clustering>
</event>
<event>
 6    1  0.1007353E-011  0.3000000E+03  0.7818608E-02  0.1093470E+00
          1   -1    0    0  502    0  0.00000000000E+00  0.00000000000E+00  0.22173634731E+03  0.22173634731E+03  0.00000000000E+00 0.  1.
         13   -1    0    0    0    0 -0.00000000000E+00 -0.00000000000E+00 -0.27500000000E+03  0.27500000000E+03  0.00000000000E+00 0.  1.
    9000005    2    1    2  501    0 -0.32356497942E+02  0.84338967022E+01 -0.45042859706E+02  0.46230300577E+03  0.45888684483E+03 0.  0.
         13    1    3    3    0    0 -0.18763286341E+03 -0.87467804959E+02 -0.14638864400E+03  0.25354751710E+03  0.00000000000E+00 0.  1.
          1    1    3    3  501    0  0.15527636547E+03  0.95901701662E+02  0.10134578429E+03  0.20875548867E+03  0.00000000000E+00 0.  1.
         21    1    1    2  502  501  0.32356497942E+02 -0.84338967022E+01 -0.82207929807E+01  0.34433341544E+02  0.00000000000E+00 0.  1.
<scales pt_clust_4="550.00000" pt_clust_5="550.00000" pt_clust_6="33.43762"></scales>
<mgrwt>
<rscale>  0 0.30000000E+03</rscale>
<asrwt>  1 0.33437624E+02</asrwt>
<pdfrwt beam="1">  1        1 0.80631399E+00 0.30000000E+03</pdfrwt>
<pdfrwt beam="2">0</pdfrwt>
<totfact> 0.93923521E-04</totfact>
</mgrwt>
<clustering>
<clus scale="   33.438">  1  6  2 -1</clus>
<clus scale="  458.887">  4  5 -1 -1</clus>
<clus scale="  300.000">  1  4  2 -1</clus>
</clustering>
</event>
<event>
 6    1  0.1007353E-011  0.3000000E+03  0.7818608E-02  0.1093470E+00
          1   -1    0    0  502    0  0.00000000000E+00  0.00000000000E+00  0.21783226610E+03  0.21783226610E+03  0.00000000000E+00 0.  1.
         13   -1    0    0    0    0 -0.00000000000E+00 -0.00000000000E+00 -0.27500000000E+03  0.27500000000E+03  0.00000000000E+00 0.  1.
    9000005    2    1    2  501    0  0.10101305739E+02 -0.29187937941E+02 -0.54326683959E+02  0.46181543738E+03  0.45756763163E+03 0.  0.
         13    1    3    3    0    0 -0.13571417292E+03 -0.14208641047E+03 -0.15631394318E+03  0.25107953641E+03  0.00000000000E+00 0.  1.
          1    1    3    3  501    0  0.14581547866E+03  0.11289847253E+03  0.10198725922E+03  0.21073590097E+03  0.00000000000E+00 0.  1.
         21    1    1    2  502  501 -0.10101305739E+02  0.29187937941E+02 -0.28410499414E+01  0.31016828717E+02  0.00000000000E+00 0.  1.
<scales pt_clust_4="550.00000" pt_clust_5="550.00000" pt_clust_6="30.88644"></scales>
<mgrwt>
<rscale>  0 0.30000000E+03</rscale>
<asrwt>  1 0.30886439E+02</asrwt>
<pdfrwt beam="1">  1        1 0.79211733E+00 0.30000000E+03</pdfrwt>
<pdfrwt beam="2">0</pdfrwt>
<totfact> 0.12151438E-03</totfact>
</mgrwt>
<clustering>
<clus scale="   30.886">  1  6  2 -1</clus>
<clus scale="  457.568">  4  5 -1 -1</clus>
<clus scale="  300.000">  1  4  2 -1</clus>
</clustering>
</event>
<event>
 6    1  0.1007353E-011  0.3000000E+03  0.7818608E-02  0.1093470E+00
          1   -1    0    0  502    0  0.00000000000E+00  0.00000000000E+00  0.25481714384E+03  0.25481714384E+03  0.00000000000E+00 0.  1.
         13   -1    0    0    0    0 -0.00000000000E+00 -0.00000000000E+00 -0.27500000000E+03  0.27500000000E+03  0.00000000000E+00 0.  1.
    9000005    2    1    2  501    0  0.27972822502E+02  0.16071046376E+02 -0.51650345715E+02  0.48475096773E+03  0.48091057918E+03 0.  0.
         13    1    3    3    0    0 -0.17353663541E+03  0.13302681488E+03 -0.10970687218E+03  0.24463584184E+03  0.00000000000E+00 0.  1.
          3    1    3    3  501    0  0.20150945791E+03 -0.11695576851E+03  0.58056526468E+02  0.24011512589E+03  0.00000000000E+00 0.  1.
         21    1    1    2  502  501 -0.27972822502E+02 -0.16071046376E+02  0.31467489552E+02  0.45066176109E+02  0.00000000000E+00 0. -1.
<scales pt_clust_4="550.00000" pt_clust_5="550.00000" pt_clust_6="32.26077"></scales>
<mgrwt>
<rscale>  0 0.30000000E+03</rscale>
<asrwt>  1 0.32260771E+02</asrwt>
<pdfrwt beam="1">  1        1 0.92660780E+00 0.30000000E+03</pdfrwt>
<pdfrwt beam="2">0</pdfrwt>
<totfact> 0.30855313E-05</totfact>
</mgrwt>
<clustering>
<clus scale="   32.261">  1  6  2 -1</clus>
<clus scale="  480.911">  4  5 -1 -1</clus>
<clus scale="  300.000">  1  4  2 -1</clus>
</clustering>
</event>
<event>
 6    1  0.1007353E-011  0.3000000E+03  0.7818608E-02  0.1093470E+00
          1   -1    0    0  502    0  0.00000000000E+00  0.00000000000E+00  0.22997657416E+03  0.22997657416E+03  0.00000000000E+00 0.  1.
         13   -1    0    0    0    0 -0.00000000000E+00 -0.00000000000E+00 -0.27500000000E+03  0.27500000000E+03  0.00000000000E+00 0.  1.
    9000005    2    1    2  501    0 -0.21969155761E+02 -0.22518092984E+02 -0.55935353392E+02  0.47167824868E+03  0.46729209089E+03 0.  0.
         13    1    3    3    0    0 -0.66686136505E+02  0.20327445676E+03  0.47793842397E+02  0.21920720094E+03  0.00000000000E+00 0.  1.
          1    1    3    3  501    0  0.44716980744E+02 -0.22579254975E+03 -0.10372919579E+03  0.25247104774E+03  0.00000000000E+00 0.  1.
         21    1    1    2  502  501  0.21969155761E+02  0.22518092984E+02  0.10911927547E+02  0.33298325473E+02  0.00000000000E+00 0. -1.
<scales pt_clust_4="550.00000" pt_clust_5="550.00000" pt_clust_6="31.45963"></scales>
<mgrwt>
<rscale>  0 0.30000000E+03</rscale>
<asrwt>  1 0.31459630E+02</asrwt>
<pdfrwt beam="1">  1        1 0.83627845E+00 0.30000000E+03</pdfrwt>
<pdfrwt beam="2">0</pdfrwt>
<totfact> 0.54031230E-04</totfact>
</mgrwt>
<clustering>
<clus scale="   31.460">  1  6  2 -1</clus>
<clus scale="  467.292">  4  5 -1 -1</clus>
<clus scale="  300.000">  1  4  2 -1</clus>
</clustering>
</event>
<event>
 6    1  0.1007353E-011  0.3000000E+03  0.7818608E-02  0.1093470E+00
          1   -1    0    0  502    0  0.00000000000E+00  0.00000000000E+00  0.23626458111E+03  0.23626458111E+03  0.00000000000E+00 0.  1.
         13   -1    0    0    0    0 -0.00000000000E+00 -0.00000000000E+00 -0.27500000000E+03  0.27500000000E+03  0.00000000000E+00 0.  1.
    9000005    2    1    2  501    0 -0.52434716546E+01 -0.36714926384E+02 -0.40767136655E+02  0.47412151054E+03  0.47090738740E+03 0.  0.
         13    1    3    3    0    0  0.12728518294E+03 -0.13814714287E+03 -0.17744615355E+03  0.25840527914E+03  0.00000000000E+00 0.  1.
          1    1    3    3  501    0 -0.13252865459E+03  0.10143221648E+03  0.13667901690E+03  0.21571623140E+03  0.00000000000E+00 0.  1.
         21    1    1    2  502  501  0.52434716546E+01  0.36714926384E+02  0.20317177666E+01  0.37143070572E+02  0.00000000000E+00 0. -1.
<scales pt_clust_4="550.00000" pt_clust_5="550.00000" pt_clust_6="37.08746"></scales>
<mgrwt>
<rscale>  0 0.30000000E+03</rscale>
<asrwt>  1 0.37087462E+02</asrwt>
<pdfrwt beam="1">  1        1 0.85914393E+00 0.30000000E+03</pdfrwt>
<pdfrwt beam="2">0</pdfrwt>
<totfact> 0.32676824E-04</totfact>
</mgrwt>
<clustering>
<clus scale="   37.087">  1  6  2 -1</clus>
<clus scale="  470.907">  4  5 -1 -1</clus>
<clus scale="  300.000">  1  4  2 -1</clus>
</clustering>
</event>
<event>
 6    1  0.1007353E-011  0.3000000E+03  0.7818608E-02  0.1093470E+00
          1   -1    0    0  502    0  0.00000000000E+00  0.00000000000E+00  0.22147305707E+03  0.22147305707E+03  0.00000000000E+00 0.  1.
         13   -1    0    0    0    0 -0.00000000000E+00 -0.00000000000E+00 -0.27500000000E+03  0.27500000000E+03  0.00000000000E+00 0.  1.
    9000005    2    1    2  501    0  0.16962135690E+02  0.26761998281E+02 -0.64412237123E+02  0.46297069553E+03  0.45737185094E+03 0.  0.
         13    1    3    3    0    0  0.33222194113E+02 -0.24494673060E+01  0.19681426687E+03  0.19961355093E+03  0.00000000000E+00 0.  1.
          3    1    3    3  501    0 -0.16260058423E+02  0.29211465587E+02 -0.26122650399E+03  0.26335714460E+03  0.00000000000E+00 0.  1.
         21    1    1    2  502  501 -0.16962135690E+02 -0.26761998281E+02  0.10885294193E+02  0.33502361541E+02  0.00000000000E+00 0. -1.
<scales pt_clust_4="550.00000" pt_clust_5="550.00000" pt_clust_6="31.68467"></scales>
<mgrwt>
<rscale>  0 0.30000000E+03</rscale>
<asrwt>  1 0.31684675E+02</asrwt>
<pdfrwt beam="1">  1        1 0.80535657E+00 0.30000000E+03</pdfrwt>
<pdfrwt beam="2">0</pdfrwt>
<totfact> 0.96498397E-04</totfact>
</mgrwt>
<clustering>
<clus scale="   31.685">  1  6  2 -1</clus>
<clus scale="  457.372">  4  5 -1 -1</clus>
<clus scale="  300.000">  1  4  2 -1</clus>
</clustering>
</event>
<event>
 6    1  0.1007353E-011  0.3000000E+03  0.7818608E-02  0.1093470E+00
          1   -1    0    0  502    0  0.00000000000E+00  0.00000000000E+00  0.23855859529E+03  0.23855859529E+03  0.00000000000E+00 0.  1.
         13   -1    0    0    0    0 -0.00000000000E+00 -0.00000000000E+00 -0.27500000000E+03  0.27500000000E+03  0.00000000000E+00 0.  1.
    9000005    2    1    2  501    0  0.44242998603E+02 -0.10328910451E+02 -0.51363673946E+02  0.46573806167E+03  0.46066211671E+03 0.  0.
         13    1    3    3    0    0  0.19507423259E+03  0.13743573464E+03  0.27790140618E+02  0.24023910858E+03  0.00000000000E+00 0.  1.
          1    1    3    3  501    0 -0.15083123398E+03 -0.14776464509E+03 -0.79153814564E+02  0.22549895309E+03  0.00000000000E+00 0.  1.
         21    1    1    2  502  501 -0.44242998603E+02  0.10328910451E+02  0.14922269237E+02  0.47820533620E+02  0.00000000000E+00 0. -1.
<scales pt_clust_4="550.00000" pt_clust_5="550.00000" pt_clust_6="45.43269"></scales>
<mgrwt>
<rscale>  0 0.30000000E+03</rscale>
<asrwt>  1 0.45432690E+02</asrwt>
<pdfrwt beam="1">  1        1 0.86748580E+00 0.30000000E+03</pdfrwt>
<pdfrwt beam="2">0</pdfrwt>
<totfact> 0.25633626E-04</totfact>
</mgrwt>
<clustering>
<clus scale="   45.433">  1  6  2 -1</clus>
<clus scale="  460.662">  4  5 -1 -1</clus>
<clus scale="  300.000">  1  4  2 -1</clus>
</clustering>
</event>
<event>
 6    1  0.1007353E-011  0.3000000E+03  0.7818608E-02  0.1093470E+00
          1   -1    0    0  502    0  0.00000000000E+00  0.00000000000E+00  0.23787075878E+03  0.23787075878E+03  0.00000000000E+00 0.  1.
         13   -1    0    0    0    0 -0.00000000000E+00 -0.00000000000E+00 -0.27500000000E+03  0.27500000000E+03  0.00000000000E+00 0.  1.
    9000005    2    1    2  501    0  0.33313496091E+02 -0.27675488977E+02 -0.53177216013E+02  0.46668353969E+03  0.46161671136E+03 0.  0.
         13    1    3    3    0    0  0.23634628142E+03 -0.26087785269E+02  0.43622798650E+02  0.24175004828E+03  0.00000000000E+00 0.  1.
          1    1    3    3  501    0 -0.20303278533E+03 -0.15877037084E+01 -0.96800014662E+02  0.22493349141E+03  0.00000000000E+00 0.  1.
         21    1    1    2  502  501 -0.33313496091E+02  0.27675488977E+02  0.16047974788E+02  0.46187219084E+02  0.00000000000E+00 0.  1.
<scales pt_clust_4="550.00000" pt_clust_5="550.00000" pt_clust_6="43.30960"></scales>
<mgrwt>
<rscale>  0 0.30000000E+03</rscale>
<asrwt>  1 0.43309603E+02</asrwt>
<pdfrwt beam="1">  1        1 0.86498458E+00 0.30000000E+03</pdfrwt>
<pdfrwt beam="2">0</pdfrwt>
<totfact> 0.27485945E-04</totfact>
</mgrwt>
<clustering>
<clus scale="   43.310">  1  6  2 -1</clus>
<clus scale="  461.617">  4  5 -1 -1</clus>
<clus scale="  300.000">  1  4  2 -1</clus>
</clustering>
</event>
<event>
 6    1  0.1007353E-011  0.3000000E+03  0.7818608E-02  0.1093470E+00
          1   -1    0    0  502    0  0.00000000000E+00  0.00000000000E+00  0.23128977986E+03  0.23128977986E+03  0.00000000000E+00 0.  1.
         13   -1    0    0    0    0 -0.00000000000E+00 -0.00000000000E+00 -0.27500000000E+03  0.27500000000E+03  0.00000000000E+00 0.  1.
    9000005    2    1    2  501    0 -0.35953535508E+02  0.63590022897E+01 -0.62811267696E+02  0.46508366814E+03  0.45937399730E+03 0.  0.
         13    1    3    3    0    0 -0.19628240281E+03  0.69461897731E+02  0.97346616570E+02  0.22984364391E+03  0.00000000000E+00 0.  1.
          3    1    3    3  501    0  0.16032886730E+03 -0.63102895441E+02 -0.16015788427E+03  0.23524002422E+03  0.00000000000E+00 0.  1.
         21    1    1    2  502  501  0.35953535508E+02 -0.63590022897E+01  0.19101047553E+02  0.41206111722E+02  0.00000000000E+00 0.  1.
<scales pt_clust_4="550.00000" pt_clust_5="550.00000" pt_clust_6="36.51155"></scales>
<mgrwt>
<rscale>  0 0.30000000E+03</rscale>
<asrwt>  1 0.36511555E+02</asrwt>
<pdfrwt beam="1">  1        1 0.84105374E+00 0.30000000E+03</pdfrwt>
<pdfrwt beam="2">0</pdfrwt>
<totfact> 0.48388668E-04</totfact>
</mgrwt>
<clustering>
<clus scale="   36.512">  1  6  2 -1</clus>
<clus scale="  459.374">  4  5 -1 -1</clus>
<clus scale="  300.000">  1  4  2 -1</clus>
</clustering>
</event>
<event>
 6    1  0.1007353E-011  0.3000000E+03  0.7818608E-02  0.1093470E+00
          1   -1    0    0  502    0  0.00000000000E+00  0.00000000000E+00  0.22665926821E+03  0.22665926821E+03  0.00000000000E+00 0.  1.
         13   -1    0    0    0    0 -0.00000000000E+00 -0.00000000000E+00 -0.27500000000E+03  0.27500000000E+03  0.00000000000E+00 0.  1.
    9000005    2    1    2  501    0  0.27942614511E+02  0.12027812651E+02 -0.53754911333E+02  0.47075989406E+03  0.46669029278E+03 0.  0.
         13    1    3    3    0    0  0.55419573582E+00 -0.22060496533E+03  0.28628112744E+02  0.22245544880E+03  0.00000000000E+00 0.  1.
          1    1    3    3  501    0  0.27388418775E+02  0.23263277799E+03 -0.82383024078E+02  0.24830444525E+03  0.00000000000E+00 0.  1.
         21    1    1    2  502  501 -0.27942614511E+02 -0.12027812651E+02  0.54141795435E+01  0.30899374153E+02  0.00000000000E+00 0.  1.
<scales pt_clust_4="550.00000" pt_clust_5="550.00000" pt_clust_6="30.42134"></scales>
<mgrwt>
<rscale>  0 0.30000000E+03</rscale>
<asrwt>  1 0.30421341E+02</asrwt>
<pdfrwt beam="1">  1        1 0.82421552E+00 0.30000000E+03</pdfrwt>
<pdfrwt beam="2">0</pdfrwt>
<totfact> 0.68167231E-04</totfact>
</mgrwt>
<clustering>
<clus scale="   30.421">  1  6  2 -1</clus>
<clus scale="  466.690">  4  5 -1 -1</clus>
<clus scale="  300.000">  1  4  2 -1</clus>
</clustering>
</event>
<event>
 6    1  0.1007353E-011  0.3000000E+03  0.7818608E-02  0.1093470E+00
          1   -1    0    0  502    0  0.00000000000E+00  0.00000000000E+00  0.22486342550E+03  0.22486342550E+03  0.00000000000E+00 0.  1.
         13   -1    0    0    0    0 -0.00000000000E+00 -0.00000000000E+00 -0.27500000000E+03  0.27500000000E+03  0.00000000000E+00 0.  1.
    9000005    2    1    2  501    0 -0.28776808803E+02  0.10527817244E+02 -0.66101908092E+02  0.46531155815E+03  0.45957202290E+03 0.  0.
         13    1    3    3    0    0 -0.17522530337E+03  0.14861122839E+03 -0.11680078677E+03  0.25774333733E+03  0.00000000000E+00 0.  1.
          3    1    3    3  501    0  0.14644849457E+03 -0.13808341115E+03  0.50698878678E+02  0.20756822082E+03  0.00000000000E+00 0.  1.
         21    1    1    2  502  501  0.28776808803E+02 -0.10527817244E+02  0.15965333588E+02  0.34551867350E+02  0.00000000000E+00 0.  1.
<scales pt_clust_4="550.00000" pt_clust_5="550.00000" pt_clust_6="30.64212"></scales>
<mgrwt>
<rscale>  0 0.30000000E+03</rscale>
<asrwt>  1 0.30642122E+02</asrwt>
<pdfrwt beam="1">  1        1 0.81768518E+00 0.30000000E+03</pdfrwt>
<pdfrwt beam="2">0</pdfrwt>
<totfact> 0.77607222E-04</totfact>
</mgrwt>
<clustering>
<clus scale="   30.642">  1  6  2 -1</clus>
<clus scale="  459.572">  4  5 -1 -1</clus>
<clus scale="  300.000">  1  4  2 -1</clus>
</clustering>
</event>
<event>
 6    1  0.1007353E-011  0.3000000E+03  0.7818608E-02  0.1093470E+00
          1   -1    0    0  502    0  0.00000000000E+00  0.00000000000E+00  0.23731500419E+03  0.23731500419E+03  0.00000000000E+00 0.  1.
         13   -1    0    0    0    0 -0.00000000000E+00 -0.00000000000E+00 -0.27500000000E+03  0.27500000000E+03  0.00000000000E+00 0.  1.
    9000005    2    1    2  501    0  0.32997333723E+02  0.40456824356E+00 -0.69901395734E+02  0.46619685015E+03  0.45974374411E+03 0.  0.
         13    1    3    3    0    0  0.22746880131E+03  0.92603661038E+02 -0.42333594415E+02  0.24921803070E+03  0.00000000000E+00 0.  1.
          1    1    3    3  501    0 -0.19447146759E+03 -0.92199092795E+02 -0.27567801318E+02  0.21697881945E+03  0.00000000000E+00 0.  1.
         21    1    1    2  502  501 -0.32997333723E+02 -0.40456824356E+00  0.32216399921E+02  0.46118154041E+02  0.00000000000E+00 0. -1.
<scales pt_clust_4="550.00000" pt_clust_5="550.00000" pt_clust_6="32.99981"></scales>
<mgrwt>
<rscale>  0 0.30000000E+03</rscale>
<asrwt>  1 0.32999814E+02</asrwt>
<pdfrwt beam="1">  1        1 0.86296365E+00 0.30000000E+03</pdfrwt>
<pdfrwt beam="2">0</pdfrwt>
<totfact> 0.30389227E-04</totfact>
</mgrwt>
<clustering>
<clus scale="   33.000">  1  6  2 -1</clus>
<clus scale="  459.744">  4  5 -1 -1</clus>
<clus scale="  300.000">  1  4  2 -1</clus>
</clustering>
</event>
<event>
 6    1  0.1007353E-011  0.3000000E+03  0.7818608E-02  0.1093470E+00
          1   -1    0    0  502    0  0.00000000000E+00  0.00000000000E+00  0.22573831158E+03  0.22573831158E+03  0.00000000000E+00 0.  1.
         13   -1    0    0    0    0 -0.00000000000E+00 -0.00000000000E+00 -0.27500000000E+03  0.27500000000E+03  0.00000000000E+00 0.  1.
    9000005    2    1    2  501    0  0.27348056894E+01  0.32595621335E+02 -0.49519644439E+02  0.46802714783E+03  0.46424913810E+03 0.  0.
         13    1    3    3    0    0 -0.93424997819E+02  0.82990639344E+02 -0.22749272400E+03  0.25955464917E+03  0.00000000000E+00 0.  1.
          1    1    3    3  501    0  0.96159803509E+02 -0.50395018009E+02  0.17797307956E+03  0.20847249866E+03  0.00000000000E+00 0.  1.
         21    1    1    2  502  501 -0.27348056894E+01 -0.32595621335E+02  0.25795601872E+00  0.32711163747E+02  0.00000000000E+00 0.  1.
<scales pt_clust_4="550.00000" pt_clust_5="550.00000" pt_clust_6="32.71015"></scales>
<mgrwt>
<rscale>  0 0.30000000E+03</rscale>
<asrwt>  1 0.32710147E+02</asrwt>
<pdfrwt beam="1">  1        1 0.82086659E+00 0.30000000E+03</pdfrwt>
<pdfrwt beam="2">0</pdfrwt>
<totfact> 0.71993786E-04</totfact>
</mgrwt>
<clustering>
<clus scale="   32.710">  1  6  2 -1</clus>
<clus scale="  464.249">  4  5 -1 -1</clus>
<clus scale="  300.000">  1  4  2 -1</clus>
</clustering>
</event>
<event>
 6    1  0.1007353E-011  0.3000000E+03  0.7818608E-02  0.1093470E+00
          1   -1    0    0  502    0  0.00000000000E+00  0.00000000000E+00  0.23027261379E+03  0.23027261379E+03  0.00000000000E+00 0.  1.
         13   -1    0    0    0    0 -0.00000000000E+00 -0.00000000000E+00 -0.27500000000E+03  0.27500000000E+03  0.00000000000E+00 0.  1.
    9000005    2    1    2  501    0 -0.32332323935E+02 -0.34585801726E+01 -0.46223042695E+02  0.47272145504E+03  0.46933108082E+03 0.  0.
         13    1    3    3    0    0  0.14315633511E+03 -0.64081173101E+02 -0.18381092752E+03  0.24163317261E+03  0.00000000000E+00 0.  1.
          3    1    3    3  501    0 -0.17548865905E+03  0.60622592928E+02  0.13758788482E+03  0.23108828243E+03  0.00000000000E+00 0.  1.
         21    1    1    2  502  501  0.32332323935E+02  0.34585801726E+01  0.14956564840E+01  0.32551158753E+02  0.00000000000E+00 0. -1.
<scales pt_clust_4="550.00000" pt_clust_5="550.00000" pt_clust_6="32.51678"></scales>
<mgrwt>
<rscale>  0 0.30000000E+03</rscale>
<asrwt>  1 0.32516779E+02</asrwt>
<pdfrwt beam="1">  1        1 0.83735496E+00 0.30000000E+03</pdfrwt>
<pdfrwt beam="2">0</pdfrwt>
<totfact> 0.52734474E-04</totfact>
</mgrwt>
<clustering>
<clus scale="   32.517">  1  6  2 -1</clus>
<clus scale="  469.331">  4  5 -1 -1</clus>
<clus scale="  300.000">  1  4  2 -1</clus>
</clustering>
</event>
<event>
 6    1  0.1007353E-011  0.3000000E+03  0.7818608E-02  0.1093470E+00
          1   -1    0    0  502    0  0.00000000000E+00  0.00000000000E+00  0.24738031263E+03  0.24738031263E+03  0.00000000000E+00 0.  1.
         13   -1    0    0    0    0 -0.00000000000E+00 -0.00000000000E+00 -0.27500000000E+03  0.27500000000E+03  0.00000000000E+00 0.  1.
    9000005    2    1    2  501    0  0.33055082516E+02  0.19586435086E+02 -0.63376478324E+02  0.46989398090E+03  0.46401240108E+03 0.  0.
         13    1    3    3    0    0 -0.13367398938E+02 -0.17399146246E+03 -0.17038334973E+03  0.24388973375E+03  0.00000000000E+00 0.  1.
          3    1    3    3  501    0  0.46422481454E+02  0.19357789754E+03  0.10700687140E+03  0.22600424715E+03  0.00000000000E+00 0.  1.
         21    1    1    2  502  501 -0.33055082516E+02 -0.19586435086E+02  0.35756790951E+02  0.52486331731E+02  0.00000000000E+00 0.  1.
<scales pt_clust_4="550.00000" pt_clust_5="550.00000" pt_clust_6="38.42222"></scales>
<mgrwt>
<rscale>  0 0.30000000E+03</rscale>
<asrwt>  1 0.38422219E+02</asrwt>
<pdfrwt beam="1">  1        1 0.89956477E+00 0.30000000E+03</pdfrwt>
<pdfrwt beam="2">0</pdfrwt>
<totfact> 0.10990504E-04</totfact>
</mgrwt>
<clustering>
<clus scale="   38.422">  1  6  2 -1</clus>
<clus scale="  464.012">  4  5 -1 -1</clus>
<clus scale="  300.000">  1  4  2 -1</clus>
</clustering>
</event>
<event>
 6    1  0.1007353E-011  0.3000000E+03  0.7818608E-02  0.1093470E+00
          1   -1    0    0  502    0  0.00000000000E+00  0.00000000000E+00  0.23511960854E+03  0.23511960854E+03  0.00000000000E+00 0.  1.
         13   -1    0    0    0    0 -0.00000000000E+00 -0.00000000000E+00 -0.27500000000E+03  0.27500000000E+03  0.00000000000E+00 0.  1.
    9000005    2    1    2  501    0  0.14297790085E+02  0.33948787491E+02 -0.68935101031E+02  0.46320347995E+03  0.45656157165E+03 0.  0.
         13    1    3    3    0    0 -0.87538561718E+02 -0.18977460088E+03 -0.59139931126E+02  0.21719790602E+03  0.00000000000E+00 0.  1.
          1    1    3    3  501    0  0.10183635180E+03  0.22372338837E+03 -0.97951699054E+01  0.24600557393E+03  0.00000000000E+00 0.  1.
         21    1    1    2  502  501 -0.14297790085E+02 -0.33948787491E+02  0.29054709569E+02  0.46916128587E+02  0.00000000000E+00 0. -1.
<scales pt_clust_4="550.00000" pt_clust_5="550.00000" pt_clust_6="36.83676"></scales>
<mgrwt>
<rscale>  0 0.30000000E+03</rscale>
<asrwt>  1 0.36836761E+02</asrwt>
<pdfrwt beam="1">  1        1 0.85498039E+00 0.30000000E+03</pdfrwt>
<pdfrwt beam="2">0</pdfrwt>
<totfact> 0.36104505E-04</totfact>
</mgrwt>
<clustering>
<clus scale="   36.837">  1  6  2 -1</clus>
<clus scale="  456.562">  4  5 -1 -1</clus>
<clus scale="  300.000">  1  4  2 -1</clus>
</clustering>
</event>
<event>
 6    1  0.1007353E-011  0.3000000E+03  0.7818608E-02  0.1093470E+00
          1   -1    0    0  502    0  0.00000000000E+00  0.00000000000E+00  0.23478631827E+03  0.23478631827E+03  0.00000000000E+00 0.  1.
         13   -1    0    0    0    0 -0.00000000000E+00 -0.00000000000E+00 -0.27500000000E+03  0.27500000000E+03  0.00000000000E+00 0.  1.
    9000005    2    1    2  501    0  0.15815950344E+01 -0.40598773226E+02 -0.61572218629E+02  0.46388480491E+03  0.45798167244E+03 0.  0.
         13    1    3    3    0    0  0.13795715065E+03  0.16016200501E+03 -0.65022495304E+02  0.22116050317E+03  0.00000000000E+00 0.  1.
          1    1    3    3  501    0 -0.13637555561E+03 -0.20076077824E+03  0.34502766751E+01  0.24272430174E+03  0.00000000000E+00 0.  1.
         21    1    1    2  502  501 -0.15815950344E+01  0.40598773226E+02  0.21358536901E+02  0.45901513361E+02  0.00000000000E+00 0.  1.
<scales pt_clust_4="550.00000" pt_clust_5="550.00000" pt_clust_6="40.62957"></scales>
<mgrwt>
<rscale>  0 0.30000000E+03</rscale>
<asrwt>  1 0.40629568E+02</asrwt>
<pdfrwt beam="1">  1        1 0.85376843E+00 0.30000000E+03</pdfrwt>
<pdfrwt beam="2">0</pdfrwt>
<totfact> 0.36443055E-04</totfact>
</mgrwt>
<clustering>
<clus scale="   40.630">  1  6  2 -1</clus>
<clus scale="  457.982">  4  5 -1 -1</clus>
<clus scale="  300.000">  1  4  2 -1</clus>
</clustering>
</event>
<event>
 6    1  0.1007353E-011  0.3000000E+03  0.7818608E-02  0.1093470E+00
          1   -1    0    0  502    0  0.00000000000E+00  0.00000000000E+00  0.25658507412E+03  0.25658507412E+03  0.00000000000E+00 0.  1.
         13   -1    0    0    0    0 -0.00000000000E+00 -0.00000000000E+00 -0.27500000000E+03  0.27500000000E+03  0.00000000000E+00 0.  1.
    9000005    2    1    2  501    0 -0.38850425542E+02 -0.16119128129E+02 -0.44840282344E+02  0.48191132531E+03  0.47797352718E+03 0.  0.
         13    1    3    3    0    0 -0.37572124196E+02  0.20509521914E+03  0.85266773546E+02  0.22526903050E+03  0.00000000000E+00 0.  1.
          1    1    3    3  501    0 -0.12783013458E+01 -0.22121434727E+03 -0.13010705589E+03  0.25664229481E+03  0.00000000000E+00 0.  1.
         21    1    1    2  502  501  0.38850425542E+02  0.16119128129E+02  0.26425356466E+02  0.49673748809E+02  0.00000000000E+00 0.  1.
<scales pt_clust_4="550.00000" pt_clust_5="550.00000" pt_clust_6="42.06164"></scales>
<mgrwt>
<rscale>  0 0.30000000E+03</rscale>
<asrwt>  1 0.42061644E+02</asrwt>
<pdfrwt beam="1">  1        1 0.93303663E+00 0.30000000E+03</pdfrwt>
<pdfrwt beam="2">0</pdfrwt>
<totfact> 0.23025544E-05</totfact>
</mgrwt>
<clustering>
<clus scale="   42.062">  1  6  2 -1</clus>
<clus scale="  477.974">  4  5 -1 -1</clus>
<clus scale="  300.000">  1  4  2 -1</clus>
</clustering>
</event>
<event>
 6    1  0.1007353E-011  0.3000000E+03  0.7818608E-02  0.1093470E+00
          1   -1    0    0  502    0  0.00000000000E+00  0.00000000000E+00  0.22122261786E+03  0.22122261786E+03  0.00000000000E+00 0.  1.
         13   -1    0    0    0    0 -0.00000000000E+00 -0.00000000000E+00 -0.27500000000E+03  0.27500000000E+03  0.00000000000E+00 0.  1.
    9000005    2    1    2  501    0 -0.21916376946E+02  0.26102764366E+02 -0.44161478765E+02  0.46080867310E+03  0.45741962694E+03 0.  0.
         13    1    3    3    0    0 -0.18860543965E+03 -0.68183329747E+02  0.97116353643E+02  0.22282855398E+03  0.00000000000E+00 0.  1.
          1    1    3    3  501    0  0.16668906271E+03  0.94286094113E+02 -0.14127783241E+03  0.23798011913E+03  0.00000000000E+00 0.  1.
         21    1    1    2  502  501  0.21916376946E+02 -0.26102764366E+02 -0.96159033708E+01  0.35413944762E+02  0.00000000000E+00 0. -1.
<scales pt_clust_4="550.00000" pt_clust_5="550.00000" pt_clust_6="34.08347"></scales>
<mgrwt>
<rscale>  0 0.30000000E+03</rscale>
<asrwt>  1 0.34083472E+02</asrwt>
<pdfrwt beam="1">  1        1 0.80444588E+00 0.30000000E+03</pdfrwt>
<pdfrwt beam="2">0</pdfrwt>
<totfact> 0.96694658E-04</totfact>
</mgrwt>
<clustering>
<clus scale="   34.083">  1  6  2 -1</clus>
<clus scale="  457.420">  4  5 -1 -1</clus>
<clus scale="  300.000">  1  4  2 -1</clus>
</clustering>
</event>
<event>
 6    1  0.1007353E-011  0.3000000E+03  0.7818608E-02  0.1093470E+00
          1   -1    0    0  502    0  0.00000000000E+00  0.00000000000E+00  0.22509187059E+03  0.22509187059E+03  0.00000000000E+00 0.  1.
         13   -1    0    0    0    0 -0.00000000000E+00 -0.00000000000E+00 -0.27500000000E+03  0.27500000000E+03  0.00000000000E+00 0.  1.
    9000005    2    1    2  501    0  0.18315117750E+02  0.27626135412E+02 -0.63542405754E+02  0.46425138527E+03  0.45868623754E+03 0.  0.
         13    1    3    3    0    0  0.10982753888E+03  0.12191697704E+02 -0.24036800626E+03  0.26455151526E+03  0.00000000000E+00 0.  1.
          1    1    3    3  501    0 -0.91512421131E+02  0.15434437708E+02  0.17682560051E+03  0.19969987002E+03  0.00000000000E+00 0.  1.
         21    1    1    2  502  501 -0.18315117750E+02 -0.27626135412E+02  0.13634276339E+02  0.35840485311E+02  0.00000000000E+00 0. -1.
<scales pt_clust_4="550.00000" pt_clust_5="550.00000" pt_clust_6="33.14584"></scales>
<mgrwt>
<rscale>  0 0.30000000E+03</rscale>
<asrwt>  1 0.33145843E+02</asrwt>
<pdfrwt beam="1">  1        1 0.81851589E+00 0.30000000E+03</pdfrwt>
<pdfrwt beam="2">0</pdfrwt>
<totfact> 0.75240817E-04</totfact>
</mgrwt>
<clustering>
<clus scale="   33.146">  1  6  2 -1</clus>
<clus scale="  458.686">  4  5 -1 -1</clus>
<clus scale="  300.000">  1  4  2 -1</clus>
</clustering>
</event>
<event>
 6    1  0.1007353E-011  0.3000000E+03  0.7818608E-02  0.1093470E+00
          1   -1    0    0  502    0  0.00000000000E+00  0.00000000000E+00  0.23919159589E+03  0.23919159589E+03  0.00000000000E+00 0.  1.
         13   -1    0    0    0    0 -0.00000000000E+00 -0.00000000000E+00 -0.27500000000E+03  0.27500000000E+03  0.00000000000E+00 0.  1.
    9000005    2    1    2  501    0 -0.24792045181E+02  0.22493516328E+02 -0.62249640092E+02  0.47153315310E+03  0.46620584831E+03 0.  0.
         13    1    3    3    0    0  0.12580995154E+03 -0.74903451199E+02  0.13905007359E+03  0.20192472328E+03  0.00000000000E+00 0.  1.
          1    1    3    3  501    0 -0.15060199672E+03  0.97396967527E+02 -0.20129971368E+03  0.26960842982E+03  0.00000000000E+00 0.  1.
         21    1    1    2  502  501  0.24792045181E+02 -0.22493516328E+02  0.26441235986E+02  0.42658442793E+02  0.00000000000E+00 0.  1.
<scales pt_clust_4="550.00000" pt_clust_5="550.00000" pt_clust_6="33.47542"></scales>
<mgrwt>
<rscale>  0 0.30000000E+03</rscale>
<asrwt>  1 0.33475421E+02</asrwt>
<pdfrwt beam="1">  1        1 0.86978762E+00 0.30000000E+03</pdfrwt>
<pdfrwt beam="2">0</pdfrwt>
<totfact> 0.25665919E-04</totfact>
</mgrwt>
<clustering>
<clus scale="   33.475">  1  6  2 -1</clus>
<clus scale="  466.206">  4  5 -1 -1</clus>
<clus scale="  300.000">  1  4  2 -1</clus>
</clustering>
</event>
<event>
 6    1  0.1007353E-011  0.3000000E+03  0.7818608E-02  0.1093470E+00
          1   -1    0    0  502    0  0.00000000000E+00  0.00000000000E+00  0.23673781773E+03  0.23673781773E+03  0.00000000000E+00 0.  1.
         13   -1    0    0    0    0 -0.00000000000E+00 -0.00000000000E+00 -0.27500000000E+03  0.27500000000E+03  0.00000000000E+00 0.  1.
    9000005    2    1    2  501    0 -0.12481914473E+02  0.31062114382E+02 -0.47275450287E+02  0.47706950166E+03  0.47353953169E+03 0.  0.
         13    1    3    3    0    0 -0.20271765742E+03 -0.39939239858E+02  0.96728428471E+02  0.22813588140E+03  0.00000000000E+00 0.  1.
          3    1    3    3  501    0  0.19023574294E+03  0.71001354240E+02 -0.14400387876E+03  0.24893362026E+03  0.00000000000E+00 0.  1.
         21    1    1    2  502  501  0.12481914473E+02 -0.31062114382E+02  0.90132680155E+01  0.34668316070E+02  0.00000000000E+00 0.  1.
<scales pt_clust_4="550.00000" pt_clust_5="550.00000" pt_clust_6="33.47616"></scales>
<mgrwt>
<rscale>  0 0.30000000E+03</rscale>
<asrwt>  1 0.33476158E+02</asrwt>
<pdfrwt beam="1">  1        1 0.86086479E+00 0.30000000E+03</pdfrwt>
<pdfrwt beam="2">0</pdfrwt>
<totfact> 0.31929888E-04</totfact>
</mgrwt>
<clustering>
<clus scale="   33.476">  1  6  2 -1</clus>
<clus scale="  473.540">  4  5 -1 -1</clus>
<clus scale="  300.000">  1  4  2 -1</clus>
</clustering>
</event>
<event>
 6    1  0.1007353E-011  0.3000000E+03  0.7818608E-02  0.1093470E+00
          1   -1    0    0  502    0  0.00000000000E+00  0.00000000000E+00  0.24696229960E+03  0.24696229960E+03  0.00000000000E+00 0.  1.
         13   -1    0    0    0    0 -0.00000000000E+00 -0.00000000000E+00 -0.27500000000E+03  0.27500000000E+03  0.00000000000E+00 0.  1.
    9000005    2    1    2  501    0 -0.20762574090E+02  0.29011367989E+02 -0.47606511651E+02  0.48127222305E+03  0.47758122741E+03 0.  0.
         13    1    3    3    0    0  0.46409202997E-02 -0.22049425315E+03 -0.66190968412E+02  0.23021502990E+03  0.00000000000E+00 0.  1.
          3    1    3    3  501    0 -0.20767215010E+02  0.24950562114E+03  0.18584456761E+02  0.25105719315E+03  0.00000000000E+00 0.  1.
         21    1    1    2  502  501  0.20762574090E+02 -0.29011367989E+02  0.19568811247E+02  0.40690076543E+02  0.00000000000E+00 0.  1.
<scales pt_clust_4="550.00000" pt_clust_5="550.00000" pt_clust_6="35.67554"></scales>
<mgrwt>
<rscale>  0 0.30000000E+03</rscale>
<asrwt>  1 0.35675537E+02</asrwt>
<pdfrwt beam="1">  1        1 0.89804473E+00 0.30000000E+03</pdfrwt>
<pdfrwt beam="2">0</pdfrwt>
<totfact> 0.11613444E-04</totfact>
</mgrwt>
<clustering>
<clus scale="   35.676">  1  6  2 -1</clus>
<clus scale="  477.581">  4  5 -1 -1</clus>
<clus scale="  300.000">  1  4  2 -1</clus>
</clustering>
</event>
<event>
 6    1  0.1007353E-011  0.3000000E+03  0.7818608E-02  0.1093470E+00
          1   -1    0    0  502    0  0.00000000000E+00  0.00000000000E+00  0.23506622937E+03  0.23506622937E+03  0.00000000000E+00 0.  1.
         13   -1    0    0    0    0 -0.00000000000E+00 -0.00000000000E+00 -0.27500000000E+03  0.27500000000E+03  0.00000000000E+00 0.  1.
    9000005    2    1    2  501    0 -0.26697396160E+02  0.17881790326E+02 -0.64778267079E+02  0.46944901146E+03  0.46384657063E+03 0.  0.
         13    1    3    3    0    0  0.63523461939E+02  0.15968745342E+03  0.12755792386E+03  0.21402415036E+03  0.00000000000E+00 0.  1.
          3    1    3    3  501    0 -0.90220858100E+02 -0.14180566309E+03 -0.19233619094E+03  0.25542486110E+03  0.00000000000E+00 0.  1.
         21    1    1    2  502  501  0.26697396160E+02 -0.17881790326E+02  0.24844496449E+02  0.40617217911E+02  0.00000000000E+00 0. -1.
<scales pt_clust_4="550.00000" pt_clust_5="550.00000" pt_clust_6="32.13268"></scales>
<mgrwt>
<rscale>  0 0.30000000E+03</rscale>
<asrwt>  1 0.32132684E+02</asrwt>
<pdfrwt beam="1">  1        1 0.85478629E+00 0.30000000E+03</pdfrwt>
<pdfrwt beam="2">0</pdfrwt>
<totfact> 0.37206184E-04</totfact>
</mgrwt>
<clustering>
<clus scale="   32.133">  1  6  2 -1</clus>
<clus scale="  463.847">  4  5 -1 -1</clus>
<clus scale="  300.000">  1  4  2 -1</clus>
</clustering>
</event>
<event>
 6    1  0.1007353E-011  0.3000000E+03  0.7818608E-02  0.1093470E+00
          1   -1    0    0  502    0  0.00000000000E+00  0.00000000000E+00  0.25720709331E+03  0.25720709331E+03  0.00000000000E+00 0.  1.
         13   -1    0    0    0    0 -0.00000000000E+00 -0.00000000000E+00 -0.27500000000E+03  0.27500000000E+03  0.00000000000E+00 0.  1.
    9000005    2    1    2  501    0  0.11181575655E+02  0.29252083233E+02 -0.30229304309E+02  0.49851175248E+03  0.49660793844E+03 0.  0.
         13    1    3    3    0    0  0.73908829569E+02 -0.18147478236E+03 -0.15125769502E+03  0.24753687003E+03  0.00000000000E+00 0.  1.
          1    1    3    3  501    0 -0.62727253914E+02  0.21072686559E+03  0.12102839071E+03  0.25097488246E+03  0.00000000000E+00 0.  1.
         21    1    1    2  502  501 -0.11181575655E+02 -0.29252083233E+02  0.12436397619E+02  0.33695340826E+02  0.00000000000E+00 0. -1.
<scales pt_clust_4="550.00000" pt_clust_5="550.00000" pt_clust_6="31.31632"></scales>
<mgrwt>
<rscale>  0 0.30000000E+03</rscale>
<asrwt>  1 0.31316322E+02</asrwt>
<pdfrwt beam="1">  1        1 0.93529852E+00 0.30000000E+03</pdfrwt>
<pdfrwt beam="2">0</pdfrwt>
<totfact> 0.22812061E-05</totfact>
</mgrwt>
<clustering>
<clus scale="   31.316">  1  6  2 -1</clus>
<clus scale="  496.608">  4  5 -1 -1</clus>
<clus scale="  300.000">  1  4  2 -1</clus>
</clustering>
</event>
<event>
 6    1  0.1007353E-011  0.3000000E+03  0.7818608E-02  0.1093470E+00
          1   -1    0    0  502    0  0.00000000000E+00  0.00000000000E+00  0.24674585908E+03  0.24674585908E+03  0.00000000000E+00 0.  1.
         13   -1    0    0    0    0 -0.00000000000E+00 -0.00000000000E+00 -0.27500000000E+03  0.27500000000E+03  0.00000000000E+00 0.  1.
    9000005    2    1    2  501    0 -0.17058937394E+02  0.28013047203E+02 -0.76030403256E+02  0.46379493673E+03  0.45634349229E+03 0.  0.
         13    1    3    3    0    0 -0.17941350310E+03 -0.13515534162E+03 -0.62784468663E+02  0.23323391899E+03  0.00000000000E+00 0.  1.
          3    1    3    3  501    0  0.16235456571E+03  0.16316838882E+03 -0.13245934593E+02  0.23056101774E+03  0.00000000000E+00 0.  1.
         21    1    1    2  502  501  0.17058937394E+02 -0.28013047203E+02  0.47776262340E+02  0.57950922355E+02  0.00000000000E+00 0.  1.
<scales pt_clust_4="550.00000" pt_clust_5="550.00000" pt_clust_6="32.79845"></scales>
<mgrwt>
<rscale>  0 0.30000000E+03</rscale>
<asrwt>  1 0.32798448E+02</asrwt>
<pdfrwt beam="1">  1        1 0.89725767E+00 0.30000000E+03</pdfrwt>
<pdfrwt beam="2">0</pdfrwt>
<totfact> 0.12043879E-04</totfact>
</mgrwt>
<clustering>
<clus scale="   32.798">  1  6  2 -1</clus>
<clus scale="  456.343">  4  5 -1 -1</clus>
<clus scale="  300.000">  1  4  2 -1</clus>
</clustering>
</event>
<event>
 6    1  0.1007353E-011  0.3000000E+03  0.7818608E-02  0.1093470E+00
          1   -1    0    0  502    0  0.00000000000E+00  0.00000000000E+00  0.22622665006E+03  0.22622665006E+03  0.00000000000E+00 0.  1.
         13   -1    0    0    0    0 -0.00000000000E+00 -0.00000000000E+00 -0.27500000000E+03  0.27500000000E+03  0.00000000000E+00 0.  1.
    9000005    2    1    2  501    0 -0.17463097442E+02 -0.28379570342E+02 -0.53978037042E+02  0.46750056887E+03  0.46317684919E+03 0.  0.
         13    1    3    3    0    0  0.13208264134E+03 -0.74759031481E+02 -0.20157698175E+03  0.25232521971E+03  0.00000000000E+00 0.  1.
          3    1    3    3  501    0 -0.14954573878E+03  0.46379461139E+02  0.14759894471E+03  0.21517534915E+03  0.00000000000E+00 0.  1.
         21    1    1    2  502  501  0.17463097442E+02  0.28379570342E+02  0.52046871049E+01  0.33726081197E+02  0.00000000000E+00 0.  1.
<scales pt_clust_4="550.00000" pt_clust_5="550.00000" pt_clust_6="33.32206"></scales>
<mgrwt>
<rscale>  0 0.30000000E+03</rscale>
<asrwt>  1 0.33322062E+02</asrwt>
<pdfrwt beam="1">  1        1 0.82264236E+00 0.30000000E+03</pdfrwt>
<pdfrwt beam="2">0</pdfrwt>
<totfact> 0.69196389E-04</totfact>
</mgrwt>
<clustering>
<clus scale="   33.322">  1  6  2 -1</clus>
<clus scale="  463.177">  4  5 -1 -1</clus>
<clus scale="  300.000">  1  4  2 -1</clus>
</clustering>
</event>
<event>
 6    1  0.1007353E-011  0.3000000E+03  0.7818608E-02  0.1093470E+00
          1   -1    0    0  502    0  0.00000000000E+00  0.00000000000E+00  0.26062050183E+03  0.26062050183E+03  0.00000000000E+00 0.  1.
         13   -1    0    0    0    0 -0.00000000000E+00 -0.00000000000E+00 -0.27500000000E+03  0.27500000000E+03  0.00000000000E+00 0.  1.
    9000005    2    1    2  501    0 -0.20624074272E+02 -0.21790104907E+02 -0.67806133842E+02  0.47434598420E+03  0.46851497290E+03 0.  0.
         13    1    3    3    0    0  0.69054901052E+02 -0.16079299372E+03  0.12888979816E+03  0.21733740189E+03  0.00000000000E+00 0.  1.
          1    1    3    3  501    0 -0.89678975323E+02  0.13900288881E+03 -0.19669593201E+03  0.25700858231E+03  0.00000000000E+00 0.  1.
         21    1    1    2  502  501  0.20624074272E+02  0.21790104907E+02  0.53426635671E+02  0.61274517628E+02  0.00000000000E+00 0.  1.
<scales pt_clust_4="550.00000" pt_clust_5="550.00000" pt_clust_6="30.00269"></scales>
<mgrwt>
<rscale>  0 0.30000000E+03</rscale>
<asrwt>  1 0.30002685E+02</asrwt>
<pdfrwt beam="1">  1        1 0.94771092E+00 0.30000000E+03</pdfrwt>
<pdfrwt beam="2">0</pdfrwt>
<totfact> 0.14148154E-05</totfact>
</mgrwt>
<clustering>
<clus scale="   30.003">  1  6  2 -1</clus>
<clus scale="  468.515">  4  5 -1 -1</clus>
<clus scale="  300.000">  1  4  2 -1</clus>
</clustering>
</event>
<event>
 6    1  0.1007353E-011  0.3000000E+03  0.7818608E-02  0.1093470E+00
          1   -1    0    0  502    0  0.00000000000E+00  0.00000000000E+00  0.22639754357E+03  0.22639754357E+03  0.00000000000E+00 0.  1.
         13   -1    0    0    0    0 -0.00000000000E+00 -0.00000000000E+00 -0.27500000000E+03  0.27500000000E+03  0.00000000000E+00 0.  1.
    9000005    2    1    2  501    0  0.28384312055E+02  0.17495062968E+02 -0.56784645174E+02  0.46706542142E+03  0.46240011414E+03 0.  0.
         13    1    3    3    0    0  0.81503584297E+02  0.62238491682E+02 -0.24545587295E+03  0.26601701011E+03  0.00000000000E+00 0.  1.
          1    1    3    3  501    0 -0.53119272242E+02 -0.44743428714E+02  0.18867122778E+03  0.20104841131E+03  0.00000000000E+00 0.  1.
         21    1    1    2  502  501 -0.28384312055E+02 -0.17495062968E+02  0.81821887470E+01  0.34332122157E+02  0.00000000000E+00 0. -1.
<scales pt_clust_4="550.00000" pt_clust_5="550.00000" pt_clust_6="33.34286"></scales>
<mgrwt>
<rscale>  0 0.30000000E+03</rscale>
<asrwt>  1 0.33342861E+02</asrwt>
<pdfrwt beam="1">  1        1 0.82326379E+00 0.30000000E+03</pdfrwt>
<pdfrwt beam="2">0</pdfrwt>
<totfact> 0.68311650E-04</totfact>
</mgrwt>
<clustering>
<clus scale="   33.343">  1  6  2 -1</clus>
<clus scale="  462.400">  4  5 -1 -1</clus>
<clus scale="  300.000">  1  4  2 -1</clus>
</clustering>
</event>
<event>
 6    1  0.1007353E-011  0.3000000E+03  0.7818608E-02  0.1093470E+00
          1   -1    0    0  502    0  0.00000000000E+00  0.00000000000E+00  0.23752749156E+03  0.23752749156E+03  0.00000000000E+00 0.  1.
         13   -1    0    0    0    0 -0.00000000000E+00 -0.00000000000E+00 -0.27500000000E+03  0.27500000000E+03  0.00000000000E+00 0.  1.
    9000005    2    1    2  501    0 -0.24613603688E+02  0.38022283258E+02 -0.49757826106E+02  0.46559719707E+03  0.46070965385E+03 0.  0.
         13    1    3    3    0    0 -0.22739100651E+03 -0.54206242180E+02  0.13109485994E+02  0.23412997492E+03  0.00000000000E+00 0.  1.
          1    1    3    3  501    0  0.20277740282E+03  0.92228525438E+02 -0.62867312100E+02  0.23146722215E+03  0.00000000000E+00 0.  1.
         21    1    1    2  502  501  0.24613603688E+02 -0.38022283258E+02  0.12285317663E+02  0.46930294488E+02  0.00000000000E+00 0.  1.
<scales pt_clust_4="550.00000" pt_clust_5="550.00000" pt_clust_6="45.29375"></scales>
<mgrwt>
<rscale>  0 0.30000000E+03</rscale>
<asrwt>  1 0.45293747E+02</asrwt>
<pdfrwt beam="1">  1        1 0.86373633E+00 0.30000000E+03</pdfrwt>
<pdfrwt beam="2">0</pdfrwt>
<totfact> 0.28125337E-04</totfact>
</mgrwt>
<clustering>
<clus scale="   45.294">  1  6  2 -1</clus>
<clus scale="  460.710">  4  5 -1 -1</clus>
<clus scale="  300.000">  1  4  2 -1</clus>
</clustering>
</event>
<event>
 6    1  0.1007353E-011  0.3000000E+03  0.7818608E-02  0.1093470E+00
          1   -1    0    0  502    0  0.00000000000E+00  0.00000000000E+00  0.22885161588E+03  0.22885161588E+03  0.00000000000E+00 0.  1.
         13   -1    0    0    0    0 -0.00000000000E+00 -0.00000000000E+00 -0.27500000000E+03  0.27500000000E+03  0.00000000000E+00 0.  1.
    9000005    2    1    2  501    0 -0.30228642871E+02  0.15680659743E+02 -0.39522681474E+02  0.46915934188E+03  0.46624970969E+03 0.  0.
         13    1    3    3    0    0 -0.16737731908E+03 -0.13798578807E+03 -0.12014709650E+03  0.24797292080E+03  0.00000000000E+00 0.  1.
          3    1    3    3  501    0  0.13714867621E+03  0.15366644782E+03  0.80624415029E+02  0.22118642108E+03  0.00000000000E+00 0.  1.
         21    1    1    2  502  501  0.30228642871E+02 -0.15680659743E+02 -0.66257026445E+01  0.34692274001E+02  0.00000000000E+00 0.  1.
<scales pt_clust_4="550.00000" pt_clust_5="550.00000" pt_clust_6="34.05371"></scales>
<mgrwt>
<rscale>  0 0.30000000E+03</rscale>
<asrwt>  1 0.34053709E+02</asrwt>
<pdfrwt beam="1">  1        1 0.83218769E+00 0.30000000E+03</pdfrwt>
<pdfrwt beam="2">0</pdfrwt>
<totfact> 0.57071418E-04</totfact>
</mgrwt>
<clustering>
<clus scale="   34.054">  1  6  2 -1</clus>
<clus scale="  466.250">  4  5 -1 -1</clus>
<clus scale="  300.000">  1  4  2 -1</clus>
</clustering>
</event>
<event>
 6    1  0.1007353E-011  0.3000000E+03  0.7818608E-02  0.1093470E+00
          1   -1    0    0  502    0  0.00000000000E+00  0.00000000000E+00  0.23599584413E+03  0.23599584413E+03  0.00000000000E+00 0.  1.
         13   -1    0    0    0    0 -0.00000000000E+00 -0.00000000000E+00 -0.27500000000E+03  0.27500000000E+03  0.00000000000E+00 0.  1.
    9000005    2    1    2  501    0 -0.30571999358E+02  0.97584475355E+01 -0.50572150687E+02  0.47688290015E+03  0.47310663025E+03 0.  0.
         13    1    3    3    0    0 -0.58475637369E+02  0.27110501113E+01 -0.25948040692E+03  0.26600156303E+03  0.00000000000E+00 0.  1.
          3    1    3    3  501    0  0.27903638011E+02  0.70473974242E+01  0.20890825623E+03  0.21088133712E+03  0.00000000000E+00 0.  1.
         21    1    1    2  502  501  0.30571999358E+02 -0.97584475355E+01  0.11567994818E+02  0.34112943983E+02  0.00000000000E+00 0. -1.
<scales pt_clust_4="550.00000" pt_clust_5="550.00000" pt_clust_6="32.09166"></scales>
<mgrwt>
<rscale>  0 0.30000000E+03</rscale>
<asrwt>  1 0.32091657E+02</asrwt>
<pdfrwt beam="1">  1        1 0.85816671E+00 0.30000000E+03</pdfrwt>
<pdfrwt beam="2">0</pdfrwt>
<totfact> 0.34379796E-04</totfact>
</mgrwt>
<clustering>
<clus scale="   32.092">  1  6  2 -1</clus>
<clus scale="  473.107">  4  5 -1 -1</clus>
<clus scale="  300.000">  1  4  2 -1</clus>
</clustering>
</event>
<event>
 6    1  0.1007353E-011  0.3000000E+03  0.7818608E-02  0.1093470E+00
          1   -1    0    0  502    0  0.00000000000E+00  0.00000000000E+00  0.23257690464E+03  0.23257690464E+03  0.00000000000E+00 0.  1.
         13   -1    0    0    0    0 -0.00000000000E+00 -0.00000000000E+00 -0.27500000000E+03  0.27500000000E+03  0.00000000000E+00 0.  1.
    9000005    2    1    2  501    0  0.29779387226E+02 -0.21278547530E+02 -0.32122720933E+02  0.46955472425E+03  0.46702267759E+03 0.  0.
         13    1    3    3    0    0 -0.37754085849E+02  0.63198022142E+01  0.21165797475E+03  0.21509162972E+03  0.00000000000E+00 0.  1.
          3    1    3    3  501    0  0.67533473075E+02 -0.27598349744E+02 -0.24378069568E+03  0.25446309454E+03  0.00000000000E+00 0.  1.
         21    1    1    2  502  501 -0.29779387226E+02  0.21278547530E+02 -0.10300374422E+02  0.38022180392E+02  0.00000000000E+00 0. -1.
<scales pt_clust_4="550.00000" pt_clust_5="550.00000" pt_clust_6="36.60041"></scales>
<mgrwt>
<rscale>  0 0.30000000E+03</rscale>
<asrwt>  1 0.36600407E+02</asrwt>
<pdfrwt beam="1">  1        1 0.84573420E+00 0.30000000E+03</pdfrwt>
<pdfrwt beam="2">0</pdfrwt>
<totfact> 0.44146612E-04</totfact>
</mgrwt>
<clustering>
<clus scale="   36.600">  1  6  2 -1</clus>
<clus scale="  467.023">  4  5 -1 -1</clus>
<clus scale="  300.000">  1  4  2 -1</clus>
</clustering>
</event>
<event>
 6    1  0.1007353E-011  0.3000000E+03  0.7818608E-02  0.1093470E+00
          1   -1    0    0  502    0  0.00000000000E+00  0.00000000000E+00  0.24769961315E+03  0.24769961315E+03  0.00000000000E+00 0.  1.
         13   -1    0    0    0    0 -0.00000000000E+00 -0.00000000000E+00 -0.27500000000E+03  0.27500000000E+03  0.00000000000E+00 0.  1.
    9000005    2    1    2  501    0  0.34028815344E+02 -0.11452793105E+02 -0.49114643725E+02  0.48068784638E+03  0.47682222126E+03 0.  0.
         13    1    3    3    0    0 -0.21347230378E+03 -0.68094128032E+02 -0.30010052784E+02  0.22607042713E+03  0.00000000000E+00 0.  1.
          3    1    3    3  501    0  0.24750111913E+03  0.56641334927E+02 -0.19104590940E+02  0.25461741925E+03  0.00000000000E+00 0.  1.
         21    1    1    2  502  501 -0.34028815344E+02  0.11452793105E+02  0.21814256871E+02  0.42011766762E+02  0.00000000000E+00 0.  1.
<scales pt_clust_4="550.00000" pt_clust_5="550.00000" pt_clust_6="35.90441"></scales>
<mgrwt>
<rscale>  0 0.30000000E+03</rscale>
<asrwt>  1 0.35904411E+02</asrwt>
<pdfrwt beam="1">  1        1 0.90072587E+00 0.30000000E+03</pdfrwt>
<pdfrwt beam="2">0</pdfrwt>
<totfact> 0.10758189E-04</totfact>
</mgrwt>
<clustering>
<clus scale="   35.904">  1  6  2 -1</clus>
<clus scale="  476.822">  4  5 -1 -1</clus>
<clus scale="  300.000">  1  4  2 -1</clus>
</clustering>
</event>
<event>
 6    1  0.1007353E-011  0.3000000E+03  0.7818608E-02  0.1093470E+00
          1   -1    0    0  502    0  0.00000000000E+00  0.00000000000E+00  0.24553162006E+03  0.24553162006E+03  0.00000000000E+00 0.  1.
         13   -1    0    0    0    0 -0.00000000000E+00 -0.00000000000E+00 -0.27500000000E+03  0.27500000000E+03  0.00000000000E+00 0.  1.
    9000005    2    1    2  501    0 -0.42521822599E+01 -0.30786105431E+02 -0.58583805860E+02  0.47794554994E+03  0.47332232259E+03 0.  0.
         13    1    3    3    0    0 -0.18154696056E+02  0.29265401164E+02  0.20468245978E+03  0.20755954817E+03  0.00000000000E+00 0.  1.
          1    1    3    3  501    0  0.13902513796E+02 -0.60051506595E+02 -0.26326626564E+03  0.27038600178E+03  0.00000000000E+00 0.  1.
         21    1    1    2  502  501  0.42521822599E+01  0.30786105431E+02  0.29115425922E+02  0.42586070119E+02  0.00000000000E+00 0.  1.
<scales pt_clust_4="550.00000" pt_clust_5="550.00000" pt_clust_6="31.07837"></scales>
<mgrwt>
<rscale>  0 0.30000000E+03</rscale>
<asrwt>  1 0.31078374E+02</asrwt>
<pdfrwt beam="1">  1        1 0.89284225E+00 0.30000000E+03</pdfrwt>
<pdfrwt beam="2">0</pdfrwt>
<totfact> 0.13653174E-04</totfact>
</mgrwt>
<clustering>
<clus scale="   31.078">  1  6  2 -1</clus>
<clus scale="  473.322">  4  5 -1 -1</clus>
<clus scale="  300.000">  1  4  2 -1</clus>
</clustering>
</event>
<event>
 6    1  0.1007353E-011  0.3000000E+03  0.7818608E-02  0.1093470E+00
          1   -1    0    0  502    0  0.00000000000E+00  0.00000000000E+00  0.24028914836E+03  0.24028914836E+03  0.00000000000E+00 0.  1.
         13   -1    0    0    0    0 -0.00000000000E+00 -0.00000000000E+00 -0.27500000000E+03  0.27500000000E+03  0.00000000000E+00 0.  1.
    9000005    2    1    2  501    0 -0.60786068930E+01 -0.47852065320E+02 -0.48067162466E+02  0.46523756841E+03  0.46022687159E+03 0.  0.
         13    1    3    3    0    0 -0.22284475224E+03 -0.20093703299E+02 -0.92697195043E+02  0.24219064904E+03  0.00000000000E+00 0.  1.
          3    1    3    3  501    0  0.21676614535E+03 -0.27758362022E+02  0.44630032577E+02  0.22304691937E+03  0.00000000000E+00 0.  1.
         21    1    1    2  502  501  0.60786068930E+01  0.47852065320E+02  0.13356310830E+02  0.50051579957E+02  0.00000000000E+00 0.  1.
<scales pt_clust_4="550.00000" pt_clust_5="550.00000" pt_clust_6="48.23660"></scales>
<mgrwt>
<rscale>  0 0.30000000E+03</rscale>
<asrwt>  1 0.48236600E+02</asrwt>
<pdfrwt beam="1">  1        1 0.87377872E+00 0.30000000E+03</pdfrwt>
<pdfrwt beam="2">0</pdfrwt>
<totfact> 0.21853704E-04</totfact>
</mgrwt>
<clustering>
<clus scale="   48.237">  1  6  2 -1</clus>
<clus scale="  460.227">  4  5 -1 -1</clus>
<clus scale="  300.000">  1  4  2 -1</clus>
</clustering>
</event>
<event>
 6    1  0.1007353E-011  0.3000000E+03  0.7818608E-02  0.1093470E+00
          1   -1    0    0  502    0  0.00000000000E+00  0.00000000000E+00  0.22902532764E+03  0.22902532764E+03  0.00000000000E+00 0.  1.
         13   -1    0    0    0    0 -0.00000000000E+00 -0.00000000000E+00 -0.27500000000E+03  0.27500000000E+03  0.00000000000E+00 0.  1.
    9000005    2    1    2  501    0  0.10650833779E+01  0.32527542637E+02 -0.46074538188E+02  0.47148019888E+03  0.46809351570E+03 0.  0.
         13    1    3    3    0    0 -0.22697782238E+03  0.32287782299E+01  0.30735130063E+02  0.22907205216E+03  0.00000000000E+00 0.  1.
          1    1    3    3  501    0  0.22804290576E+03  0.29298764407E+02 -0.76809668251E+02  0.24240814672E+03  0.00000000000E+00 0.  1.
         21    1    1    2  502  501 -0.10650833779E+01 -0.32527542637E+02  0.99865827078E-01  0.32545128757E+02  0.00000000000E+00 0.  1.
<scales pt_clust_4="550.00000" pt_clust_5="550.00000" pt_clust_6="32.54498"></scales>
<mgrwt>
<rscale>  0 0.30000000E+03</rscale>
<asrwt>  1 0.32544976E+02</asrwt>
<pdfrwt beam="1">  1        1 0.83281937E+00 0.30000000E+03</pdfrwt>
<pdfrwt beam="2">0</pdfrwt>
<totfact> 0.56926049E-04</totfact>
</mgrwt>
<clustering>
<clus scale="   32.545">  1  6  2 -1</clus>
<clus scale="  468.094">  4  5 -1 -1</clus>
<clus scale="  300.000">  1  4  2 -1</clus>
</clustering>
</event>
<event>
 6    1  0.1007353E-011  0.3000000E+03  0.7818608E-02  0.1093470E+00
          1   -1    0    0  502    0  0.00000000000E+00  0.00000000000E+00  0.24482557186E+03  0.24482557186E+03  0.00000000000E+00 0.  1.
         13   -1    0    0    0    0 -0.00000000000E+00 -0.00000000000E+00 -0.27500000000E+03  0.27500000000E+03  0.00000000000E+00 0.  1.
    9000005    2    1    2  501    0 -0.24910799338E+02 -0.48191766449E+02 -0.58084030882E+01  0.46035543269E+03  0.45711091934E+03 0.  0.
         13    1    3    3    0    0 -0.23821661227E+03 -0.63221081301E+02 -0.53060769009E+01  0.24652020999E+03  0.00000000000E+00 0.  1.
          1    1    3    3  501    0  0.21330581293E+03  0.15029314852E+02 -0.50232618728E+00  0.21383522270E+03  0.00000000000E+00 0.  1.
         21    1    1    2  502  501  0.24910799338E+02  0.48191766449E+02 -0.24366025047E+02  0.59470139177E+02  0.00000000000E+00 0.  1.
<scales pt_clust_4="550.00000" pt_clust_5="550.00000" pt_clust_6="54.24940"></scales>
<mgrwt>
<rscale>  0 0.30000000E+03</rscale>
<asrwt>  1 0.54249398E+02</asrwt>
<pdfrwt beam="1">  1        1 0.89027481E+00 0.30000000E+03</pdfrwt>
<pdfrwt beam="2">0</pdfrwt>
<totfact> 0.13285547E-04</totfact>
</mgrwt>
<clustering>
<clus scale="   54.249">  1  6  2 -1</clus>
<clus scale="  457.111">  4  5 -1 -1</clus>
<clus scale="  300.000">  1  4  2 -1</clus>
</clustering>
</event>
<event>
 6    1  0.1007353E-011  0.3000000E+03  0.7818608E-02  0.1093470E+00
          1   -1    0    0  502    0  0.00000000000E+00  0.00000000000E+00  0.22931868926E+03  0.22931868926E+03  0.00000000000E+00 0.  1.
         13   -1    0    0    0    0 -0.00000000000E+00 -0.00000000000E+00 -0.27500000000E+03  0.27500000000E+03  0.00000000000E+00 0.  1.
    9000005    2    1    2  501    0 -0.30851963765E+02 -0.12294848127E+02 -0.39895676036E+02  0.47060696241E+03  0.46773522547E+03 0.  0.
         13    1    3    3    0    0 -0.19809613184E+03 -0.85530975685E+02 -0.14497373386E+03  0.25995193548E+03  0.00000000000E+00 0.  1.
          1    1    3    3  501    0  0.16724416807E+03  0.73236127558E+02  0.10507805782E+03  0.21065502693E+03  0.00000000000E+00 0.  1.
         21    1    1    2  502  501  0.30851963765E+02  0.12294848127E+02 -0.57856346991E+01  0.33711726854E+02  0.00000000000E+00 0.  1.
<scales pt_clust_4="550.00000" pt_clust_5="550.00000" pt_clust_6="33.21157"></scales>
<mgrwt>
<rscale>  0 0.30000000E+03</rscale>
<asrwt>  1 0.33211565E+02</asrwt>
<pdfrwt beam="1">  1        1 0.83388614E+00 0.30000000E+03</pdfrwt>
<pdfrwt beam="2">0</pdfrwt>
<totfact> 0.55674579E-04</totfact>
</mgrwt>
<clustering>
<clus scale="   33.212">  1  6  2 -1</clus>
<clus scale="  467.735">  4  5 -1 -1</clus>
<clus scale="  300.000">  1  4  2 -1</clus>
</clustering>
</event>
<event>
 6    1  0.1007353E-011  0.3000000E+03  0.7818608E-02  0.1093470E+00
          1   -1    0    0  502    0  0.00000000000E+00  0.00000000000E+00  0.23857075227E+03  0.23857075227E+03  0.00000000000E+00 0.  1.
         13   -1    0    0    0    0 -0.00000000000E+00 -0.00000000000E+00 -0.27500000000E+03  0.27500000000E+03  0.00000000000E+00 0.  1.
    9000005    2    1    2  501    0 -0.34887568675E+02 -0.15024075726E+02 -0.67131153157E+02  0.46472945523E+03  0.45828376530E+03 0.  0.
         13    1    3    3    0    0 -0.13907596420E+03  0.14751827313E+03  0.84090809754E+02  0.21948810676E+03  0.00000000000E+00 0.  1.
          1    1    3    3  501    0  0.10418839552E+03 -0.16254234886E+03 -0.15122196291E+03  0.24524134847E+03  0.00000000000E+00 0.  1.
         21    1    1    2  502  501  0.34887568675E+02  0.15024075726E+02  0.30701905426E+02  0.48841297037E+02  0.00000000000E+00 0.  1.
<scales pt_clust_4="550.00000" pt_clust_5="550.00000" pt_clust_6="37.98507"></scales>
<mgrwt>
<rscale>  0 0.30000000E+03</rscale>
<asrwt>  1 0.37985067E+02</asrwt>
<pdfrwt beam="1">  1        1 0.86753001E+00 0.30000000E+03</pdfrwt>
<pdfrwt beam="2">0</pdfrwt>
<totfact> 0.26450904E-04</totfact>
</mgrwt>
<clustering>
<clus scale="   37.985">  1  6  2 -1</clus>
<clus scale="  458.284">  4  5 -1 -1</clus>
<clus scale="  300.000">  1  4  2 -1</clus>
</clustering>
</event>
<event>
 6    1  0.1007353E-011  0.3000000E+03  0.7818608E-02  0.1093470E+00
          1   -1    0    0  502    0  0.00000000000E+00  0.00000000000E+00  0.26281478006E+03  0.26281478006E+03  0.00000000000E+00 0.  1.
         13   -1    0    0    0    0 -0.00000000000E+00 -0.00000000000E+00 -0.27500000000E+03  0.27500000000E+03  0.00000000000E+00 0.  1.
    9000005    2    1    2  501    0  0.19457391084E+02  0.38998716141E+02 -0.49032357051E+02  0.48074288293E+03  0.47624579528E+03 0.  0.
         13    1    3    3    0    0  0.70536405875E+02  0.22746529243E+03 -0.12769784307E+03  0.27022691009E+03  0.00000000000E+00 0.  1.
          3    1    3    3  501    0 -0.51079014791E+02 -0.18846657629E+03  0.78665486023E+02  0.21051597284E+03  0.00000000000E+00 0.  1.
         21    1    1    2  502  501 -0.19457391084E+02 -0.38998716141E+02  0.36847137109E+02  0.57071897126E+02  0.00000000000E+00 0. -1.
<scales pt_clust_4="550.00000" pt_clust_5="550.00000" pt_clust_6="43.58314"></scales>
<mgrwt>
<rscale>  0 0.30000000E+03</rscale>
<asrwt>  1 0.43583138E+02</asrwt>
<pdfrwt beam="1">  1        1 0.95569011E+00 0.30000000E+03</pdfrwt>
<pdfrwt beam="2">0</pdfrwt>
<totfact> 0.90155875E-06</totfact>
</mgrwt>
<clustering>
<clus scale="   43.583">  1  6  2 -1</clus>
<clus scale="  476.246">  4  5 -1 -1</clus>
<clus scale="  300.000">  1  4  2 -1</clus>
</clustering>
</event>
<event>
 6    1  0.1007353E-011  0.3000000E+03  0.7818608E-02  0.1093470E+00
          1   -1    0    0  502    0  0.00000000000E+00  0.00000000000E+00  0.21925564965E+03  0.21925564965E+03  0.00000000000E+00 0.  1.
         13   -1    0    0    0    0 -0.00000000000E+00 -0.00000000000E+00 -0.27500000000E+03  0.27500000000E+03  0.00000000000E+00 0.  1.
    9000005    2    1    2  501    0 -0.48798486365E+00 -0.33132233326E+02 -0.48033034860E+02  0.46023437100E+03  0.45652001139E+03 0.  0.
         13    1    3    3    0    0 -0.17098585292E+03  0.13306481542E+03 -0.48999852909E+02  0.22213372681E+03  0.00000000000E+00 0.  1.
          1    1    3    3  501    0  0.17049786806E+03 -0.16619704875E+03  0.96681804890E+00  0.23810064419E+03  0.00000000000E+00 0.  1.
         21    1    1    2  502  501  0.48798486365E+00  0.33132233326E+02 -0.77113154896E+01  0.34021278650E+02  0.00000000000E+00 0.  1.
<scales pt_clust_4="550.00000" pt_clust_5="550.00000" pt_clust_6="33.13584"></scales>
<mgrwt>
<rscale>  0 0.30000000E+03</rscale>
<asrwt>  1 0.33135843E+02</asrwt>
<pdfrwt beam="1">  1        1 0.79729327E+00 0.30000000E+03</pdfrwt>
<pdfrwt beam="2">0</pdfrwt>
<totfact> 0.10962020E-03</totfact>
</mgrwt>
<clustering>
<clus scale="   33.136">  1  6  2 -1</clus>
<clus scale="  456.520">  4  5 -1 -1</clus>
<clus scale="  300.000">  1  4  2 -1</clus>
</clustering>
</event>
<event>
 6    1  0.1007353E-011  0.3000000E+03  0.7818608E-02  0.1093470E+00
          1   -1    0    0  502    0  0.00000000000E+00  0.00000000000E+00  0.24784373305E+03  0.24784373305E+03  0.00000000000E+00 0.  1.
         13   -1    0    0    0    0 -0.00000000000E+00 -0.00000000000E+00 -0.27500000000E+03  0.27500000000E+03  0.00000000000E+00 0.  1.
    9000005    2    1    2  501    0 -0.42532041981E+02 -0.11970324344E+02 -0.57086777326E+02  0.46947615196E+03  0.46389297673E+03 0.  0.
         13    1    3    3    0    0 -0.21257589257E+03 -0.70524320879E+02 -0.14750910812E+03  0.26818114571E+03  0.00000000000E+00 0.  1.
          1    1    3    3  501    0  0.17004385059E+03  0.58553996535E+02  0.90422330790E+02  0.20129500625E+03  0.00000000000E+00 0.  1.
         21    1    1    2  502  501  0.42532041981E+02  0.11970324344E+02  0.29930510377E+02  0.53367581090E+02  0.00000000000E+00 0. -1.
<scales pt_clust_4="550.00000" pt_clust_5="550.00000" pt_clust_6="44.18442"></scales>
<mgrwt>
<rscale>  0 0.30000000E+03</rscale>
<asrwt>  1 0.44184423E+02</asrwt>
<pdfrwt beam="1">  1        1 0.90124994E+00 0.30000000E+03</pdfrwt>
<pdfrwt beam="2">0</pdfrwt>
<totfact> 0.10191628E-04</totfact>
</mgrwt>
<clustering>
<clus scale="   44.184">  1  6  2 -1</clus>
<clus scale="  463.893">  4  5 -1 -1</clus>
<clus scale="  300.000">  1  4  2 -1</clus>
</clustering>
</event>
<event>
 6    1  0.1007353E-011  0.3000000E+03  0.7818608E-02  0.1093470E+00
          1   -1    0    0  502    0  0.00000000000E+00  0.00000000000E+00  0.23277783403E+03  0.23277783403E+03  0.00000000000E+00 0.  1.
         13   -1    0    0    0    0 -0.00000000000E+00 -0.00000000000E+00 -0.27500000000E+03  0.27500000000E+03  0.00000000000E+00 0.  1.
    9000005    2    1    2  501    0 -0.25460989542E+02  0.23163728947E+02 -0.57525963829E+02  0.47010786514E+03  0.46530350098E+03 0.  0.
         13    1    3    3    0    0  0.39884530060E+02 -0.11018984720E+03  0.16512170314E+03  0.20247902363E+03  0.00000000000E+00 0.  1.
          3    1    3    3  501    0 -0.65345519602E+02  0.13335357614E+03 -0.22264766697E+03  0.26762884151E+03  0.00000000000E+00 0.  1.
         21    1    1    2  502  501  0.25460989542E+02 -0.23163728947E+02  0.15303797860E+02  0.37669968889E+02  0.00000000000E+00 0. -1.
<scales pt_clust_4="550.00000" pt_clust_5="550.00000" pt_clust_6="34.42122"></scales>
<mgrwt>
<rscale>  0 0.30000000E+03</rscale>
<asrwt>  1 0.34421219E+02</asrwt>
<pdfrwt beam="1">  1        1 0.84646485E+00 0.30000000E+03</pdfrwt>
<pdfrwt beam="2">0</pdfrwt>
<totfact> 0.43991721E-04</totfact>
</mgrwt>
<clustering>
<clus scale="   34.421">  1  6  2 -1</clus>
<clus scale="  465.304">  4  5 -1 -1</clus>
<clus scale="  300.000">  1  4  2 -1</clus>
</clustering>
</event>
<event>
 6    1  0.1007353E-011  0.3000000E+03  0.7818608E-02  0.1093470E+00
          1   -1    0    0  502    0  0.00000000000E+00  0.00000000000E+00  0.24150472245E+03  0.24150472245E+03  0.00000000000E+00 0.  1.
         13   -1    0    0    0    0 -0.00000000000E+00 -0.00000000000E+00 -0.27500000000E+03  0.27500000000E+03  0.00000000000E+00 0.  1.
    9000005    2    1    2  501    0  0.24331228662E+02  0.23935593410E+02 -0.20532767169E+02  0.47999516212E+03  0.47833966991E+03 0.  0.
         13    1    3    3    0    0 -0.19253154537E+03 -0.85583662429E+02 -0.87258154718E+02  0.22805031200E+03  0.00000000000E+00 0.  1.
          3    1    3    3  501    0  0.21686277403E+03  0.10951925584E+03  0.66725387549E+02  0.25194485012E+03  0.00000000000E+00 0.  1.
         21    1    1    2  502  501 -0.24331228662E+02 -0.23935593410E+02 -0.12962510384E+02  0.36509560330E+02  0.00000000000E+00 0.  1.
<scales pt_clust_4="550.00000" pt_clust_5="550.00000" pt_clust_6="34.13096"></scales>
<mgrwt>
<rscale>  0 0.30000000E+03</rscale>
<asrwt>  1 0.34130961E+02</asrwt>
<pdfrwt beam="1">  1        1 0.87819899E+00 0.30000000E+03</pdfrwt>
<pdfrwt beam="2">0</pdfrwt>
<totfact> 0.20838364E-04</totfact>
</mgrwt>
<clustering>
<clus scale="   34.131">  1  6  2 -1</clus>
<clus scale="  478.340">  4  5 -1 -1</clus>
<clus scale="  300.000">  1  4  2 -1</clus>
</clustering>
</event>
<event>
 6    1  0.1007353E-011  0.3000000E+03  0.7818608E-02  0.1093470E+00
          1   -1    0    0  502    0  0.00000000000E+00  0.00000000000E+00  0.23141113781E+03  0.23141113781E+03  0.00000000000E+00 0.  1.
         13   -1    0    0    0    0 -0.00000000000E+00 -0.00000000000E+00 -0.27500000000E+03  0.27500000000E+03  0.00000000000E+00 0.  1.
    9000005    2    1    2  501    0 -0.22929905323E+02 -0.21976682159E+02 -0.29700833911E+02  0.47174656733E+03  0.46973814954E+03 0.  0.
         13    1    3    3    0    0  0.55496313105E+02 -0.20198653267E+03  0.10432517690E+03  0.23401312502E+03  0.00000000000E+00 0.  1.
          3    1    3    3  501    0 -0.78426218429E+02  0.18000985051E+03 -0.13402601081E+03  0.23773344231E+03  0.00000000000E+00 0.  1.
         21    1    1    2  502  501  0.22929905323E+02  0.21976682159E+02 -0.13888028283E+02  0.34664570479E+02  0.00000000000E+00 0. -1.
<scales pt_clust_4="550.00000" pt_clust_5="550.00000" pt_clust_6="31.76092"></scales>
<mgrwt>
<rscale>  0 0.30000000E+03</rscale>
<asrwt>  1 0.31760921E+02</asrwt>
<pdfrwt beam="1">  1        1 0.84149505E+00 0.30000000E+03</pdfrwt>
<pdfrwt beam="2">0</pdfrwt>
<totfact> 0.49269812E-04</totfact>
</mgrwt>
<clustering>
<clus scale="   31.761">  1  6  2 -1</clus>
<clus scale="  469.738">  4  5 -1 -1</clus>
<clus scale="  300.000">  1  4  2 -1</clus>
</clustering>
</event>
<event>
 6    1  0.1007353E-011  0.3000000E+03  0.7818608E-02  0.1093470E+00
          1   -1    0    0  502    0  0.00000000000E+00  0.00000000000E+00  0.23617860447E+03  0.23617860447E+03  0.00000000000E+00 0.  1.
         13   -1    0    0    0    0 -0.00000000000E+00 -0.00000000000E+00 -0.27500000000E+03  0.27500000000E+03  0.00000000000E+00 0.  1.
    9000005    2    1    2  501    0  0.40981929317E+02 -0.13504931794E+02 -0.55125210912E+02  0.46505143125E+03  0.45975226276E+03 0.  0.
         13    1    3    3    0    0 -0.11525289974E+03 -0.10507036614E+03 -0.18517581416E+03  0.24210141447E+03  0.00000000000E+00 0.  1.
          1    1    3    3  501    0  0.15623482905E+03  0.91565434346E+02  0.13005060325E+03  0.22295001678E+03  0.00000000000E+00 0.  1.
         21    1    1    2  502  501 -0.40981929317E+02  0.13504931794E+02  0.16303815377E+02  0.46127173218E+02  0.00000000000E+00 0.  1.
<scales pt_clust_4="550.00000" pt_clust_5="550.00000" pt_clust_6="43.14976"></scales>
<mgrwt>
<rscale>  0 0.30000000E+03</rscale>
<asrwt>  1 0.43149759E+02</asrwt>
<pdfrwt beam="1">  1        1 0.85883129E+00 0.30000000E+03</pdfrwt>
<pdfrwt beam="2">0</pdfrwt>
<totfact> 0.32029039E-04</totfact>
</mgrwt>
<clustering>
<clus scale="   43.150">  1  6  2 -1</clus>
<clus scale="  459.752">  4  5 -1 -1</clus>
<clus scale="  300.000">  1  4  2 -1</clus>
</clustering>
</event>
<event>
 6    1  0.1007353E-011  0.3000000E+03  0.7818608E-02  0.1093470E+00
          1   -1    0    0  502    0  0.00000000000E+00  0.00000000000E+00  0.24446887528E+03  0.24446887528E+03  0.00000000000E+00 0.  1.
         13   -1    0    0    0    0 -0.00000000000E+00 -0.00000000000E+00 -0.27500000000E+03  0.27500000000E+03  0.00000000000E+00 0.  1.
    9000005    2    1    2  501    0  0.71284607478E+01  0.31578074002E+02 -0.53701611179E+02  0.47965856062E+03  0.47554230309E+03 0.  0.
         13    1    3    3    0    0 -0.60196018046E+02 -0.19823022937E+03  0.58412583462E+02  0.21524593917E+03  0.00000000000E+00 0.  1.
          3    1    3    3  501    0  0.67324478793E+02  0.22980830337E+03 -0.11211419464E+03  0.26441262145E+03  0.00000000000E+00 0.  1.
         21    1    1    2  502  501 -0.71284607478E+01 -0.31578074002E+02  0.23170486461E+02  0.39810314658E+02  0.00000000000E+00 0. -1.
<scales pt_clust_4="550.00000" pt_clust_5="550.00000" pt_clust_6="32.37267"></scales>
<mgrwt>
<rscale>  0 0.30000000E+03</rscale>
<asrwt>  1 0.32372669E+02</asrwt>
<pdfrwt beam="1">  1        1 0.88897773E+00 0.30000000E+03</pdfrwt>
<pdfrwt beam="2">0</pdfrwt>
<totfact> 0.15183476E-04</totfact>
</mgrwt>
<clustering>
<clus scale="   32.373">  1  6  2 -1</clus>
<clus scale="  475.542">  4  5 -1 -1</clus>
<clus scale="  300.000">  1  4  2 -1</clus>
</clustering>
</event>
<event>
 6    1  0.1007353E-011  0.3000000E+03  0.7818608E-02  0.1093470E+00
          1   -1    0    0  502    0  0.00000000000E+00  0.00000000000E+00  0.23290418600E+03  0.23290418600E+03  0.00000000000E+00 0.  1.
         13   -1    0    0    0    0 -0.00000000000E+00 -0.00000000000E+00 -0.27500000000E+03  0.27500000000E+03  0.00000000000E+00 0.  1.
    9000005    2    1    2  501    0 -0.28936187645E+02 -0.18908110462E+02 -0.55001696231E+02  0.47100728379E+03  0.46650600768E+03 0.  0.
         13    1    3    3    0    0  0.26634957346E+02 -0.23394257102E+03  0.20698175948E+02  0.23636193005E+03  0.00000000000E+00 0.  1.
          1    1    3    3  501    0 -0.55571144991E+02  0.21503446056E+03 -0.75699872178E+02  0.23464535374E+03  0.00000000000E+00 0.  1.
         21    1    1    2  502  501  0.28936187645E+02  0.18908110462E+02  0.12905882233E+02  0.36896902213E+02  0.00000000000E+00 0. -1.
<scales pt_clust_4="550.00000" pt_clust_5="550.00000" pt_clust_6="34.56616"></scales>
<mgrwt>
<rscale>  0 0.30000000E+03</rscale>
<asrwt>  1 0.34566163E+02</asrwt>
<pdfrwt beam="1">  1        1 0.84692431E+00 0.30000000E+03</pdfrwt>
<pdfrwt beam="2">0</pdfrwt>
<totfact> 0.43541467E-04</totfact>
</mgrwt>
<clustering>
<clus scale="   34.566">  1  6  2 -1</clus>
<clus scale="  466.506">  4  5 -1 -1</clus>
<clus scale="  300.000">  1  4  2 -1</clus>
</clustering>
</event>
<event>
 6    1  0.1007353E-011  0.3000000E+03  0.7818608E-02  0.1093470E+00
          1   -1    0    0  502    0  0.00000000000E+00  0.00000000000E+00  0.25484300608E+03  0.25484300608E+03  0.00000000000E+00 0.  1.
         13   -1    0    0    0    0 -0.00000000000E+00 -0.00000000000E+00 -0.27500000000E+03  0.27500000000E+03  0.00000000000E+00 0.  1.
    9000005    2    1    2  501    0  0.14999272474E+01 -0.32400410340E+02 -0.43858844327E+02  0.48967070113E+03  0.48662281179E+03 0.  0.
         13    1    3    3    0    0  0.60423964690E+02  0.13873968110E+03 -0.19988317811E+03  0.25070508474E+03  0.00000000000E+00 0.  1.
          3    1    3    3  501    0 -0.58924037442E+02 -0.17114009144E+03  0.15602433378E+03  0.23896561640E+03  0.00000000000E+00 0.  1.
         21    1    1    2  502  501 -0.14999272474E+01  0.32400410340E+02  0.23701850406E+02  0.40172304946E+02  0.00000000000E+00 0.  1.
<scales pt_clust_4="550.00000" pt_clust_5="550.00000" pt_clust_6="32.43511"></scales>
<mgrwt>
<rscale>  0 0.30000000E+03</rscale>
<asrwt>  1 0.32435110E+02</asrwt>
<pdfrwt beam="1">  1        1 0.92670184E+00 0.30000000E+03</pdfrwt>
<pdfrwt beam="2">0</pdfrwt>
<totfact> 0.30686345E-05</totfact>
</mgrwt>
<clustering>
<clus scale="   32.435">  1  6  2 -1</clus>
<clus scale="  486.623">  4  5 -1 -1</clus>
<clus scale="  300.000">  1  4  2 -1</clus>
</clustering>
</event>
<event>
 6    1  0.1007353E-011  0.3000000E+03  0.7818608E-02  0.1093470E+00
          1   -1    0    0  502    0  0.00000000000E+00  0.00000000000E+00  0.24269515363E+03  0.24269515363E+03  0.00000000000E+00 0.  1.
         13   -1    0    0    0    0 -0.00000000000E+00 -0.00000000000E+00 -0.27500000000E+03  0.27500000000E+03  0.00000000000E+00 0.  1.
    9000005    2    1    2  501    0  0.27921476555E+02 -0.18524060945E+02 -0.41067181369E+02  0.48306094797E+03  0.48014437035E+03 0.  0.
         13    1    3    3    0    0  0.91764625950E+02  0.21356569424E+03  0.24081307215E+02  0.23368988359E+03  0.00000000000E+00 0.  1.
          3    1    3    3  501    0 -0.63843149395E+02 -0.23208975519E+03 -0.65148488584E+02  0.24937106438E+03  0.00000000000E+00 0.  1.
         21    1    1    2  502  501 -0.27921476555E+02  0.18524060945E+02  0.87623349949E+01  0.34634205656E+02  0.00000000000E+00 0.  1.
<scales pt_clust_4="550.00000" pt_clust_5="550.00000" pt_clust_6="33.50746"></scales>
<mgrwt>
<rscale>  0 0.30000000E+03</rscale>
<asrwt>  1 0.33507457E+02</asrwt>
<pdfrwt beam="1">  1        1 0.88252783E+00 0.30000000E+03</pdfrwt>
<pdfrwt beam="2">0</pdfrwt>
<totfact> 0.18473849E-04</totfact>
</mgrwt>
<clustering>
<clus scale="   33.507">  1  6  2 -1</clus>
<clus scale="  480.144">  4  5 -1 -1</clus>
<clus scale="  300.000">  1  4  2 -1</clus>
</clustering>
</event>
<event>
 6    1  0.1007353E-011  0.3000000E+03  0.7818608E-02  0.1093470E+00
          1   -1    0    0  502    0  0.00000000000E+00  0.00000000000E+00  0.23415806599E+03  0.23415806599E+03  0.00000000000E+00 0.  1.
         13   -1    0    0    0    0 -0.00000000000E+00 -0.00000000000E+00 -0.27500000000E+03  0.27500000000E+03  0.00000000000E+00 0.  1.
    9000005    2    1    2  501    0 -0.38842472470E+00  0.43126466429E+02 -0.50124039070E+02  0.46504230401E+03  0.46031715398E+03 0.  0.
         13    1    3    3    0    0  0.86723114462E+02 -0.19209381873E+03 -0.98121177668E+01  0.21099102216E+03  0.00000000000E+00 0.  1.
          1    1    3    3  501    0 -0.87111539187E+02  0.23522028516E+03 -0.40311921303E+02  0.25405128185E+03  0.00000000000E+00 0.  1.
         21    1    1    2  502  501  0.38842472470E+00 -0.43126466429E+02  0.92821050579E+01  0.44115761976E+02  0.00000000000E+00 0.  1.
<scales pt_clust_4="550.00000" pt_clust_5="550.00000" pt_clust_6="43.12822"></scales>
<mgrwt>
<rscale>  0 0.30000000E+03</rscale>
<asrwt>  1 0.43128216E+02</asrwt>
<pdfrwt beam="1">  1        1 0.85148388E+00 0.30000000E+03</pdfrwt>
<pdfrwt beam="2">0</pdfrwt>
<totfact> 0.37923275E-04</totfact>
</mgrwt>
<clustering>
<clus scale="   43.128">  1  6  2 -1</clus>
<clus scale="  460.317">  4  5 -1 -1</clus>
<clus scale="  300.000">  1  4  2 -1</clus>
</clustering>
</event>
<event>
 6    1  0.1007353E-011  0.3000000E+03  0.7818608E-02  0.1093470E+00
          1   -1    0    0  502    0  0.00000000000E+00  0.00000000000E+00  0.23466921270E+03  0.23466921270E+03  0.00000000000E+00 0.  1.
         13   -1    0    0    0    0 -0.00000000000E+00 -0.00000000000E+00 -0.27500000000E+03  0.27500000000E+03  0.00000000000E+00 0.  1.
    9000005    2    1    2  501    0  0.24812241254E+01  0.39456667744E+02 -0.65094925926E+02  0.46301894298E+03  0.45671238989E+03 0.  0.
         13    1    3    3    0    0 -0.19869290914E+03  0.12498924834E+03 -0.68035072070E+02  0.24439712637E+03  0.00000000000E+00 0.  1.
          1    1    3    3  501    0  0.20117413327E+03 -0.85532580601E+02  0.29401461442E+01  0.21862181661E+03  0.00000000000E+00 0.  1.
         21    1    1    2  502  501 -0.24812241254E+01 -0.39456667744E+02  0.24764138622E+02  0.46650269713E+02  0.00000000000E+00 0. -1.
<scales pt_clust_4="550.00000" pt_clust_5="550.00000" pt_clust_6="39.53461"></scales>
<mgrwt>
<rscale>  0 0.30000000E+03</rscale>
<asrwt>  1 0.39534606E+02</asrwt>
<pdfrwt beam="1">  1        1 0.85334259E+00 0.30000000E+03</pdfrwt>
<pdfrwt beam="2">0</pdfrwt>
<totfact> 0.36974699E-04</totfact>
</mgrwt>
<clustering>
<clus scale="   39.535">  1  6  2 -1</clus>
<clus scale="  456.712">  4  5 -1 -1</clus>
<clus scale="  300.000">  1  4  2 -1</clus>
</clustering>
</event>
<event>
 6    1  0.1007353E-011  0.3000000E+03  0.7818608E-02  0.1093470E+00
          1   -1    0    0  502    0  0.00000000000E+00  0.00000000000E+00  0.24341704924E+03  0.24341704924E+03  0.00000000000E+00 0.  1.
         13   -1    0    0    0    0 -0.00000000000E+00 -0.00000000000E+00 -0.27500000000E+03  0.27500000000E+03  0.00000000000E+00 0.  1.
    9000005    2    1    2  501    0 -0.23192774072E+02 -0.25229477568E+02 -0.30947471773E+02  0.48414118104E+03  0.48193413021E+03 0.  0.
         13    1    3    3    0    0  0.60714044477E+02  0.17805221035E+03 -0.14396243024E+03  0.23688386633E+03  0.00000000000E+00 0.  1.
          1    1    3    3  501    0 -0.83906818548E+02 -0.20328168792E+03  0.11301495846E+03  0.24725731471E+03  0.00000000000E+00 0.  1.
         21    1    1    2  502  501  0.23192774072E+02  0.25229477568E+02 -0.63547898295E+00  0.34275868202E+02  0.00000000000E+00 0.  1.
<scales pt_clust_4="550.00000" pt_clust_5="550.00000" pt_clust_6="34.26998"></scales>
<mgrwt>
<rscale>  0 0.30000000E+03</rscale>
<asrwt>  1 0.34269977E+02</asrwt>
<pdfrwt beam="1">  1        1 0.88515291E+00 0.30000000E+03</pdfrwt>
<pdfrwt beam="2">0</pdfrwt>
<totfact> 0.16955936E-04</totfact>
</mgrwt>
<clustering>
<clus scale="   34.270">  1  6  2 -1</clus>
<clus scale="  481.934">  4  5 -1 -1</clus>
<clus scale="  300.000">  1  4  2 -1</clus>
</clustering>
</event>
<event>
 6    1  0.1007353E-011  0.3000000E+03  0.7818608E-02  0.1093470E+00
          1   -1    0    0  502    0  0.00000000000E+00  0.00000000000E+00  0.24666406261E+03  0.24666406261E+03  0.00000000000E+00 0.  1.
         13   -1    0    0    0    0 -0.00000000000E+00 -0.00000000000E+00 -0.27500000000E+03  0.27500000000E+03  0.00000000000E+00 0.  1.
    9000005    2    1    2  501    0 -0.30388578619E+02  0.20764752251E+02 -0.48367445206E+02  0.47976057884E+03  0.47589511723E+03 0.  0.
         13    1    3    3    0    0 -0.27278524024E+02  0.24918614730E+02 -0.26274010825E+03  0.26532512078E+03  0.00000000000E+00 0.  1.
          1    1    3    3  501    0 -0.31100545949E+01 -0.41538624794E+01  0.21437266304E+03  0.21443545806E+03  0.00000000000E+00 0.  1.
         21    1    1    2  502  501  0.30388578619E+02 -0.20764752251E+02  0.20031507814E+02  0.41903483767E+02  0.00000000000E+00 0. -1.
<scales pt_clust_4="550.00000" pt_clust_5="550.00000" pt_clust_6="36.80544"></scales>
<mgrwt>
<rscale>  0 0.30000000E+03</rscale>
<asrwt>  1 0.36805443E+02</asrwt>
<pdfrwt beam="1">  1        1 0.89696023E+00 0.30000000E+03</pdfrwt>
<pdfrwt beam="2">0</pdfrwt>
<totfact> 0.11877730E-04</totfact>
</mgrwt>
<clustering>
<clus scale="   36.805">  1  6  2 -1</clus>
<clus scale="  475.895">  4  5 -1 -1</clus>
<clus scale="  300.000">  1  4  2 -1</clus>
</clustering>
</event>
<event>
 6    1  0.1007353E-011  0.3000000E+03  0.7818608E-02  0.1093470E+00
          1   -1    0    0  502    0  0.00000000000E+00  0.00000000000E+00  0.25581229714E+03  0.25581229714E+03  0.00000000000E+00 0.  1.
         13   -1    0    0    0    0 -0.00000000000E+00 -0.00000000000E+00 -0.27500000000E+03  0.27500000000E+03  0.00000000000E+00 0.  1.
    9000005    2    1    2  501    0  0.45760145768E+02 -0.15431836444E+02 -0.43704896638E+02  0.47665303840E+03  0.47218202899E+03 0.  0.
         13    1    3    3    0    0  0.21923859324E+03 -0.13206633373E+03  0.23635884238E+02  0.25703255104E+03  0.00000000000E+00 0.  1.
          3    1    3    3  501    0 -0.17347844748E+03  0.11663449729E+03 -0.67340780875E+02  0.21962048735E+03  0.00000000000E+00 0.  1.
         21    1    1    2  502  501 -0.45760145768E+02  0.15431836444E+02  0.24517193773E+02  0.54159258740E+02  0.00000000000E+00 0. -1.
<scales pt_clust_4="550.00000" pt_clust_5="550.00000" pt_clust_6="48.29216"></scales>
<mgrwt>
<rscale>  0 0.30000000E+03</rscale>
<asrwt>  1 0.48292158E+02</asrwt>
<pdfrwt beam="1">  1        1 0.93022654E+00 0.30000000E+03</pdfrwt>
<pdfrwt beam="2">0</pdfrwt>
<totfact> 0.24595934E-05</totfact>
</mgrwt>
<clustering>
<clus scale="   48.292">  1  6  2 -1</clus>
<clus scale="  472.182">  4  5 -1 -1</clus>
<clus scale="  300.000">  1  4  2 -1</clus>
</clustering>
</event>
<event>
 6    1  0.1007353E-011  0.3000000E+03  0.7818608E-02  0.1093470E+00
          1   -1    0    0  502    0  0.00000000000E+00  0.00000000000E+00  0.22709785963E+03  0.22709785963E+03  0.00000000000E+00 0.  1.
         13   -1    0    0    0    0 -0.00000000000E+00 -0.00000000000E+00 -0.27500000000E+03  0.27500000000E+03  0.00000000000E+00 0.  1.
    9000005    2    1    2  501    0  0.30689351307E+02 -0.94071018009E+01 -0.68545224365E+02  0.46393417578E+03  0.45771840888E+03 0.  0.
         13    1    3    3    0    0  0.13629107658E+03 -0.19706313179E+03 -0.58878040075E+01  0.23967436597E+03  0.00000000000E+00 0.  1.
          3    1    3    3  501    0 -0.10560172528E+03  0.18765602999E+03 -0.62657420358E+02  0.22425980981E+03  0.00000000000E+00 0.  1.
         21    1    1    2  502  501 -0.30689351307E+02  0.94071018009E+01  0.20643083994E+02  0.38163683846E+02  0.00000000000E+00 0. -1.
<scales pt_clust_4="550.00000" pt_clust_5="550.00000" pt_clust_6="32.09875"></scales>
<mgrwt>
<rscale>  0 0.30000000E+03</rscale>
<asrwt>  1 0.32098752E+02</asrwt>
<pdfrwt beam="1">  1        1 0.82581040E+00 0.30000000E+03</pdfrwt>
<pdfrwt beam="2">0</pdfrwt>
<totfact> 0.65296788E-04</totfact>
</mgrwt>
<clustering>
<clus scale="   32.099">  1  6  2 -1</clus>
<clus scale="  457.718">  4  5 -1 -1</clus>
<clus scale="  300.000">  1  4  2 -1</clus>
</clustering>
</event>
<event>
 6    1  0.1007353E-011  0.3000000E+03  0.7818608E-02  0.1093470E+00
          1   -1    0    0  502    0  0.00000000000E+00  0.00000000000E+00  0.23574761396E+03  0.23574761396E+03  0.00000000000E+00 0.  1.
         13   -1    0    0    0    0 -0.00000000000E+00 -0.00000000000E+00 -0.27500000000E+03  0.27500000000E+03  0.00000000000E+00 0.  1.
    9000005    2    1    2  501    0  0.74032896404E+01 -0.42274552910E+02 -0.56032334323E+02  0.46466602126E+03  0.45927436495E+03 0.  0.
         13    1    3    3    0    0  0.19872580711E+03 -0.94136232633E+02  0.68801573399E+02  0.23040666919E+03  0.00000000000E+00 0.  1.
          3    1    3    3  501    0 -0.19132251747E+03  0.51861679723E+02 -0.12483390772E+03  0.23425935207E+03  0.00000000000E+00 0.  1.
         21    1    1    2  502  501 -0.74032896404E+01  0.42274552910E+02  0.16779948279E+02  0.46081592697E+02  0.00000000000E+00 0. -1.
<scales pt_clust_4="550.00000" pt_clust_5="550.00000" pt_clust_6="42.91790"></scales>
<mgrwt>
<rscale>  0 0.30000000E+03</rscale>
<asrwt>  1 0.42917904E+02</asrwt>
<pdfrwt beam="1">  1        1 0.85726405E+00 0.30000000E+03</pdfrwt>
<pdfrwt beam="2">0</pdfrwt>
<totfact> 0.33290476E-04</totfact>
</mgrwt>
<clustering>
<clus scale="   42.918">  1  6  2 -1</clus>
<clus scale="  459.274">  4  5 -1 -1</clus>
<clus scale="  300.000">  1  4  2 -1</clus>
</clustering>
</event>
<event>
 6    1  0.1007353E-011  0.3000000E+03  0.7818608E-02  0.1093470E+00
          1   -1    0    0  502    0  0.00000000000E+00  0.00000000000E+00  0.23918361678E+03  0.23918361678E+03  0.00000000000E+00 0.  1.
         13   -1    0    0    0    0 -0.00000000000E+00 -0.00000000000E+00 -0.27500000000E+03  0.27500000000E+03  0.00000000000E+00 0.  1.
    9000005    2    1    2  501    0  0.78537302590E+01  0.39789271965E+02 -0.43364007219E+02  0.47293032757E+03  0.46918843802E+03 0.  0.
         13    1    3    3    0    0 -0.10628637718E+03 -0.99712443928E+01 -0.22712202311E+03  0.25095942515E+03  0.00000000000E+00 0.  1.
          1    1    3    3  501    0  0.11414010744E+03  0.49760516358E+02  0.18375801590E+03  0.22197090242E+03  0.00000000000E+00 0.  1.
         21    1    1    2  502  501 -0.78537302590E+01 -0.39789271965E+02  0.75476239974E+01  0.41253289208E+02  0.00000000000E+00 0.  1.
<scales pt_clust_4="550.00000" pt_clust_5="550.00000" pt_clust_6="40.55696"></scales>
<mgrwt>
<rscale>  0 0.30000000E+03</rscale>
<asrwt>  1 0.40556963E+02</asrwt>
<pdfrwt beam="1">  1        1 0.86975861E+00 0.30000000E+03</pdfrwt>
<pdfrwt beam="2">0</pdfrwt>
<totfact> 0.24786368E-04</totfact>
</mgrwt>
<clustering>
<clus scale="   40.557">  1  6  2 -1</clus>
<clus scale="  469.188">  4  5 -1 -1</clus>
<clus scale="  300.000">  1  4  2 -1</clus>
</clustering>
</event>
<event>
 6    1  0.1007353E-011  0.3000000E+03  0.7818608E-02  0.1093470E+00
          1   -1    0    0  502    0  0.00000000000E+00  0.00000000000E+00  0.23604876380E+03  0.23604876380E+03  0.00000000000E+00 0.  1.
         13   -1    0    0    0    0 -0.00000000000E+00 -0.00000000000E+00 -0.27500000000E+03  0.27500000000E+03  0.00000000000E+00 0.  1.
    9000005    2    1    2  501    0  0.30962616078E+02  0.96576019479E+01 -0.61878662940E+02  0.47132950189E+03  0.46612292108E+03 0.  0.
         13    1    3    3    0    0 -0.12066752214E+03 -0.11095819621E+03 -0.18075344218E+03  0.24401675980E+03  0.00000000000E+00 0.  1.
          3    1    3    3  501    0  0.15163013821E+03  0.12061579815E+03  0.11887477924E+03  0.22731274209E+03  0.00000000000E+00 0.  1.
         21    1    1    2  502  501 -0.30962616078E+02 -0.96576019479E+01  0.22927426741E+02  0.39719261910E+02  0.00000000000E+00 0.  1.
<scales pt_clust_4="550.00000" pt_clust_5="550.00000" pt_clust_6="32.43382"></scales>
<mgrwt>
<rscale>  0 0.30000000E+03</rscale>
<asrwt>  1 0.32433823E+02</asrwt>
<pdfrwt beam="1">  1        1 0.85835914E+00 0.30000000E+03</pdfrwt>
<pdfrwt beam="2">0</pdfrwt>
<totfact> 0.34151859E-04</totfact>
</mgrwt>
<clustering>
<clus scale="   32.434">  1  6  2 -1</clus>
<clus scale="  466.123">  4  5 -1 -1</clus>
<clus scale="  300.000">  1  4  2 -1</clus>
</clustering>
</event>
<event>
 6    1  0.1007353E-011  0.3000000E+03  0.7818608E-02  0.1093470E+00
          1   -1    0    0  502    0  0.00000000000E+00  0.00000000000E+00  0.24160983059E+03  0.24160983059E+03  0.00000000000E+00 0.  1.
         13   -1    0    0    0    0 -0.00000000000E+00 -0.00000000000E+00 -0.27500000000E+03  0.27500000000E+03  0.00000000000E+00 0.  1.
    9000005    2    1    2  501    0 -0.11406862311E+02 -0.30728407312E+02 -0.42684577712E+02  0.48254023198E+03  0.47952971835E+03 0.  0.
         13    1    3    3    0    0 -0.95617639577E+02 -0.17222906178E+03  0.13613575736E+03  0.23945464529E+03  0.00000000000E+00 0.  1.
          1    1    3    3  501    0  0.84210777265E+02  0.14150065447E+03 -0.17882033507E+03  0.24308558669E+03  0.00000000000E+00 0.  1.
         21    1    1    2  502  501  0.11406862311E+02  0.30728407312E+02  0.92944083061E+01  0.34069598611E+02  0.00000000000E+00 0.  1.
<scales pt_clust_4="550.00000" pt_clust_5="550.00000" pt_clust_6="32.77730"></scales>
<mgrwt>
<rscale>  0 0.30000000E+03</rscale>
<asrwt>  1 0.32777302E+02</asrwt>
<pdfrwt beam="1">  1        1 0.87858120E+00 0.30000000E+03</pdfrwt>
<pdfrwt beam="2">0</pdfrwt>
<totfact> 0.20783946E-04</totfact>
</mgrwt>
<clustering>
<clus scale="   32.777">  1  6  2 -1</clus>
<clus scale="  479.530">  4  5 -1 -1</clus>
<clus scale="  300.000">  1  4  2 -1</clus>
</clustering>
</event>
<event>
 6    1  0.1007353E-011  0.3000000E+03  0.7818608E-02  0.1093470E+00
          1   -1    0    0  502    0  0.00000000000E+00  0.00000000000E+00  0.22824145837E+03  0.22824145837E+03  0.00000000000E+00 0.  1.
         13   -1    0    0    0    0 -0.00000000000E+00 -0.00000000000E+00 -0.27500000000E+03  0.27500000000E+03  0.00000000000E+00 0.  1.
    9000005    2    1    2  501    0 -0.12456974434E+02 -0.27576283637E+02 -0.58177197779E+02  0.47089932889E+03  0.46631101636E+03 0.  0.
         13    1    3    3    0    0  0.10440665498E+02 -0.21935115778E+03 -0.14076829631E+03  0.26084411276E+03  0.00000000000E+00 0.  1.
          1    1    3    3  501    0 -0.22897639932E+02  0.19177487414E+03  0.82591098532E+02  0.21005521613E+03  0.00000000000E+00 0.  1.
         21    1    1    2  502  501  0.12456974434E+02  0.27576283637E+02  0.11418656153E+02  0.32342129485E+02  0.00000000000E+00 0.  1.
<scales pt_clust_4="550.00000" pt_clust_5="550.00000" pt_clust_6="30.25934"></scales>
<mgrwt>
<rscale>  0 0.30000000E+03</rscale>
<asrwt>  1 0.30259340E+02</asrwt>
<pdfrwt beam="1">  1        1 0.82996894E+00 0.30000000E+03</pdfrwt>
<pdfrwt beam="2">0</pdfrwt>
<totfact> 0.60790722E-04</totfact>
</mgrwt>
<clustering>
<clus scale="   30.259">  1  6  2 -1</clus>
<clus scale="  466.311">  4  5 -1 -1</clus>
<clus scale="  300.000">  1  4  2 -1</clus>
</clustering>
</event>
<event>
 6    1  0.1007353E-011  0.3000000E+03  0.7818608E-02  0.1093470E+00
          1   -1    0    0  502    0  0.00000000000E+00  0.00000000000E+00  0.23057037182E+03  0.23057037182E+03  0.00000000000E+00 0.  1.
         13   -1    0    0    0    0 -0.00000000000E+00 -0.00000000000E+00 -0.27500000000E+03  0.27500000000E+03  0.00000000000E+00 0.  1.
    9000005    2    1    2  501    0  0.36149187981E+02 -0.57996022233E+01 -0.57462585453E+02  0.46670834469E+03  0.46170805830E+03 0.  0.
         13    1    3    3    0    0  0.14925950820E+03  0.17117542295E+03 -0.10678223270E+03  0.25096189239E+03  0.00000000000E+00 0.  1.
          3    1    3    3  501    0 -0.11311032022E+03 -0.17697502517E+03  0.49319647244E+02  0.21574645230E+03  0.00000000000E+00 0.  1.
         21    1    1    2  502  501 -0.36149187981E+02  0.57996022233E+01  0.13032957275E+02  0.38862027134E+02  0.00000000000E+00 0.  1.
<scales pt_clust_4="550.00000" pt_clust_5="550.00000" pt_clust_6="36.61146"></scales>
<mgrwt>
<rscale>  0 0.30000000E+03</rscale>
<asrwt>  1 0.36611462E+02</asrwt>
<pdfrwt beam="1">  1        1 0.83843772E+00 0.30000000E+03</pdfrwt>
<pdfrwt beam="2">0</pdfrwt>
<totfact> 0.50640289E-04</totfact>
</mgrwt>
<clustering>
<clus scale="   36.611">  1  6  2 -1</clus>
<clus scale="  461.708">  4  5 -1 -1</clus>
<clus scale="  300.000">  1  4  2 -1</clus>
</clustering>
</event>
<event>
 6    1  0.1007353E-011  0.3000000E+03  0.7818608E-02  0.1093470E+00
          1   -1    0    0  502    0  0.00000000000E+00  0.00000000000E+00  0.24572451022E+03  0.24572451022E+03  0.00000000000E+00 0.  1.
         13   -1    0    0    0    0 -0.00000000000E+00 -0.00000000000E+00 -0.27500000000E+03  0.27500000000E+03  0.00000000000E+00 0.  1.
    9000005    2    1    2  501    0 -0.16038641268E+02  0.33019145568E+02 -0.15600995873E+02  0.48155189515E+03  0.47989721260E+03 0.  0.
         13    1    3    3    0    0 -0.90709395687E+02 -0.12884292070E+03 -0.17988483441E+03  0.23913855049E+03  0.00000000000E+00 0.  1.
          3    1    3    3  501    0  0.74670754419E+02  0.16186206627E+03  0.16428383854E+03  0.24241334466E+03  0.00000000000E+00 0.  1.
         21    1    1    2  502  501  0.16038641268E+02 -0.33019145568E+02 -0.13674493908E+02  0.39172615070E+02  0.00000000000E+00 0. -1.
<scales pt_clust_4="550.00000" pt_clust_5="550.00000" pt_clust_6="36.70836"></scales>
<mgrwt>
<rscale>  0 0.30000000E+03</rscale>
<asrwt>  1 0.36708355E+02</asrwt>
<pdfrwt beam="1">  1        1 0.89354367E+00 0.30000000E+03</pdfrwt>
<pdfrwt beam="2">0</pdfrwt>
<totfact> 0.12983829E-04</totfact>
</mgrwt>
<clustering>
<clus scale="   36.708">  1  6  2 -1</clus>
<clus scale="  479.897">  4  5 -1 -1</clus>
<clus scale="  300.000">  1  4  2 -1</clus>
</clustering>
</event>
<event>
 6    1  0.1007353E-011  0.3000000E+03  0.7818608E-02  0.1093470E+00
          1   -1    0    0  502    0  0.00000000000E+00  0.00000000000E+00  0.23481977785E+03  0.23481977785E+03  0.00000000000E+00 0.  1.
         13   -1    0    0    0    0 -0.00000000000E+00 -0.00000000000E+00 -0.27500000000E+03  0.27500000000E+03  0.00000000000E+00 0.  1.
    9000005    2    1    2  501    0  0.87436953129E+00 -0.31031314121E+02 -0.36621669343E+02  0.47857285358E+03  0.47615871570E+03 0.  0.
         13    1    3    3    0    0 -0.15491429388E+03 -0.19562017417E+03 -0.36291077356E+01  0.24955733092E+03  0.00000000000E+00 0.  1.
          3    1    3    3  501    0  0.15578866341E+03  0.16458886005E+03 -0.32992561607E+02  0.22901552266E+03  0.00000000000E+00 0.  1.
         21    1    1    2  502  501 -0.87436953129E+00  0.31031314121E+02 -0.35585528094E+01  0.31246924268E+02  0.00000000000E+00 0. -1.
<scales pt_clust_4="550.00000" pt_clust_5="550.00000" pt_clust_6="31.04365"></scales>
<mgrwt>
<rscale>  0 0.30000000E+03</rscale>
<asrwt>  1 0.31043646E+02</asrwt>
<pdfrwt beam="1">  1        1 0.85389010E+00 0.30000000E+03</pdfrwt>
<pdfrwt beam="2">0</pdfrwt>
<totfact> 0.38215280E-04</totfact>
</mgrwt>
<clustering>
<clus scale="   31.044">  1  6  2 -1</clus>
<clus scale="  476.159">  4  5 -1 -1</clus>
<clus scale="  300.000">  1  4  2 -1</clus>
</clustering>
</event>
<event>
 6    1  0.1007353E-011  0.3000000E+03  0.7818608E-02  0.1093470E+00
          1   -1    0    0  502    0  0.00000000000E+00  0.00000000000E+00  0.22441702121E+03  0.22441702121E+03  0.00000000000E+00 0.  1.
         13   -1    0    0    0    0 -0.00000000000E+00 -0.00000000000E+00 -0.27500000000E+03  0.27500000000E+03  0.00000000000E+00 0.  1.
    9000005    2    1    2  501    0  0.52435098964E+01  0.34206091684E+02 -0.52297379575E+02  0.46476892928E+03  0.46051882763E+03 0.  0.
         13    1    3    3    0    0  0.32732719748E+02 -0.27089552634E+02 -0.25123121081E+03  0.25479873644E+03  0.00000000000E+00 0.  1.
          3    1    3    3  501    0 -0.27489209852E+02  0.61295644319E+02  0.19893383124E+03  0.20997019284E+03  0.00000000000E+00 0.  1.
         21    1    1    2  502  501 -0.52435098964E+01 -0.34206091684E+02  0.17144007812E+01  0.34648091930E+02  0.00000000000E+00 0. -1.
<scales pt_clust_4="550.00000" pt_clust_5="550.00000" pt_clust_6="34.60565"></scales>
<mgrwt>
<rscale>  0 0.30000000E+03</rscale>
<asrwt>  1 0.34605651E+02</asrwt>
<pdfrwt beam="1">  1        1 0.81606190E+00 0.30000000E+03</pdfrwt>
<pdfrwt beam="2">0</pdfrwt>
<totfact> 0.78205030E-04</totfact>
</mgrwt>
<clustering>
<clus scale="   34.606">  1  6  2 -1</clus>
<clus scale="  460.519">  4  5 -1 -1</clus>
<clus scale="  300.000">  1  4  2 -1</clus>
</clustering>
</event>
<event>
 6    1  0.1007353E-011  0.3000000E+03  0.7818608E-02  0.1093470E+00
          1   -1    0    0  502    0  0.00000000000E+00  0.00000000000E+00  0.23553575024E+03  0.23553575024E+03  0.00000000000E+00 0.  1.
         13   -1    0    0    0    0 -0.00000000000E+00 -0.00000000000E+00 -0.27500000000E+03  0.27500000000E+03  0.00000000000E+00 0.  1.
    9000005    2    1    2  501    0 -0.24747251255E+02 -0.19366611464E+02 -0.37882175366E+02  0.47907156355E+03  0.47653647469E+03 0.  0.
         13    1    3    3    0    0  0.47810414667E+02  0.17765271736E+03  0.11712722970E+03  0.21809427244E+03  0.00000000000E+00 0.  1.
          1    1    3    3  501    0 -0.72557665922E+02 -0.19701932883E+03 -0.15500940506E+03  0.26097729111E+03  0.00000000000E+00 0.  1.
         21    1    1    2  502  501  0.24747251255E+02  0.19366611464E+02 -0.15820743987E+01  0.31464186684E+02  0.00000000000E+00 0.  1.
<scales pt_clust_4="550.00000" pt_clust_5="550.00000" pt_clust_6="31.42439"></scales>
<mgrwt>
<rscale>  0 0.30000000E+03</rscale>
<asrwt>  1 0.31424387E+02</asrwt>
<pdfrwt beam="1">  1        1 0.85649364E+00 0.30000000E+03</pdfrwt>
<pdfrwt beam="2">0</pdfrwt>
<totfact> 0.35918813E-04</totfact>
</mgrwt>
<clustering>
<clus scale="   31.424">  1  6  2 -1</clus>
<clus scale="  476.536">  4  5 -1 -1</clus>
<clus scale="  300.000">  1  4  2 -1</clus>
</clustering>
</event>
<event>
 6    1  0.1007353E-011  0.3000000E+03  0.7818608E-02  0.1093470E+00
          1   -1    0    0  502    0  0.00000000000E+00  0.00000000000E+00  0.23412410656E+03  0.23412410656E+03  0.00000000000E+00 0.  1.
         13   -1    0    0    0    0 -0.00000000000E+00 -0.00000000000E+00 -0.27500000000E+03  0.27500000000E+03  0.00000000000E+00 0.  1.
    9000005    2    1    2  501    0  0.63148840682E+01  0.29955564588E+02 -0.36139450448E+02  0.47814592871E+03  0.47579434177E+03 0.  0.
         13    1    3    3    0    0  0.16777531169E+03 -0.12564859556E+03 -0.11666439333E+03  0.23988894399E+03  0.00000000000E+00 0.  1.
          1    1    3    3  501    0 -0.16146042762E+03  0.15560416014E+03  0.80524942885E+02  0.23825698472E+03  0.00000000000E+00 0.  1.
         21    1    1    2  502  501 -0.63148840682E+01 -0.29955564588E+02 -0.47364429907E+01  0.30978177848E+02  0.00000000000E+00 0.  1.
<scales pt_clust_4="550.00000" pt_clust_5="550.00000" pt_clust_6="30.61396"></scales>
<mgrwt>
<rscale>  0 0.30000000E+03</rscale>
<asrwt>  1 0.30613960E+02</asrwt>
<pdfrwt beam="1">  1        1 0.85136039E+00 0.30000000E+03</pdfrwt>
<pdfrwt beam="2">0</pdfrwt>
<totfact> 0.40526133E-04</totfact>
</mgrwt>
<clustering>
<clus scale="   30.614">  1  6  2 -1</clus>
<clus scale="  475.794">  4  5 -1 -1</clus>
<clus scale="  300.000">  1  4  2 -1</clus>
</clustering>
</event>
<event>
 6    1  0.1007353E-011  0.3000000E+03  0.7818608E-02  0.1093470E+00
          1   -1    0    0  502    0  0.00000000000E+00  0.00000000000E+00  0.22892426741E+03  0.22892426741E+03  0.00000000000E+00 0.  1.
         13   -1    0    0    0    0 -0.00000000000E+00 -0.00000000000E+00 -0.27500000000E+03  0.27500000000E+03  0.00000000000E+00 0.  1.
    9000005    2    1    2  501    0  0.21918190275E+02  0.29776259227E+02 -0.50078764349E+02  0.46673479388E+03  0.46256507920E+03 0.  0.
         13    1    3    3    0    0  0.17381551433E+03  0.17655853870E+03 -0.61222961021E+02  0.25521167991E+03  0.00000000000E+00 0.  1.
          3    1    3    3  501    0 -0.15189732405E+03 -0.14678227947E+03  0.11144196672E+02  0.21152311396E+03  0.00000000000E+00 0.  1.
         21    1    1    2  502  501 -0.21918190275E+02 -0.29776259227E+02  0.40030317619E+01  0.37189473534E+02  0.00000000000E+00 0.  1.
<scales pt_clust_4="550.00000" pt_clust_5="550.00000" pt_clust_6="36.97341"></scales>
<mgrwt>
<rscale>  0 0.30000000E+03</rscale>
<asrwt>  1 0.36973405E+02</asrwt>
<pdfrwt beam="1">  1        1 0.83245188E+00 0.30000000E+03</pdfrwt>
<pdfrwt beam="2">0</pdfrwt>
<totfact> 0.55940517E-04</totfact>
</mgrwt>
<clustering>
<clus scale="   36.973">  1  6  2 -1</clus>
<clus scale="  462.565">  4  5 -1 -1</clus>
<clus scale="  300.000">  1  4  2 -1</clus>
</clustering>
</event>
<event>
 6    1  0.1007353E-011  0.3000000E+03  0.7818608E-02  0.1093470E+00
          1   -1    0    0  502    0  0.00000000000E+00  0.00000000000E+00  0.24284670305E+03  0.24284670305E+03  0.00000000000E+00 0.  1.
         13   -1    0    0    0    0 -0.00000000000E+00 -0.00000000000E+00 -0.27500000000E+03  0.27500000000E+03  0.00000000000E+00 0.  1.
    9000005    2    1    2  501    0  0.25688468092E+02 -0.21040159429E+02 -0.59230995254E+02  0.47500061283E+03  0.47012199022E+03 0.  0.
         13    1    3    3    0    0  0.13854171174E+03 -0.20879947557E+03 -0.51382436952E+02  0.25579519486E+03  0.00000000000E+00 0.  1.
          1    1    3    3  501    0 -0.11285324365E+03  0.18775931614E+03 -0.78485583021E+01  0.21920541797E+03  0.00000000000E+00 0.  1.
         21    1    1    2  502  501 -0.25688468092E+02  0.21040159429E+02  0.27077698305E+02  0.42846090221E+02  0.00000000000E+00 0. -1.
<scales pt_clust_4="550.00000" pt_clust_5="550.00000" pt_clust_6="33.20521"></scales>
<mgrwt>
<rscale>  0 0.30000000E+03</rscale>
<asrwt>  1 0.33205206E+02</asrwt>
<pdfrwt beam="1">  1        1 0.88307892E+00 0.30000000E+03</pdfrwt>
<pdfrwt beam="2">0</pdfrwt>
<totfact> 0.18196805E-04</totfact>
</mgrwt>
<clustering>
<clus scale="   33.205">  1  6  2 -1</clus>
<clus scale="  470.122">  4  5 -1 -1</clus>
<clus scale="  300.000">  1  4  2 -1</clus>
</clustering>
</event>
<event>
 6    1  0.1007353E-011  0.3000000E+03  0.7818608E-02  0.1093470E+00
          1   -1    0    0  502    0  0.00000000000E+00  0.00000000000E+00  0.24082806745E+03  0.24082806745E+03  0.00000000000E+00 0.  1.
         13   -1    0    0    0    0 -0.00000000000E+00 -0.00000000000E+00 -0.27500000000E+03  0.27500000000E+03  0.00000000000E+00 0.  1.
    9000005    2    1    2  501    0 -0.90792740920E+01 -0.28779304804E+02 -0.49584193708E+02  0.48194268126E+03  0.47843439901E+03 0.  0.
         13    1    3    3    0    0 -0.16908576812E+03 -0.39087357026E+01  0.14921256407E+03  0.22554304350E+03  0.00000000000E+00 0.  1.
          3    1    3    3  501    0  0.16000649403E+03 -0.24870569102E+02 -0.19879675778E+03  0.25639963776E+03  0.00000000000E+00 0.  1.
         21    1    1    2  502  501  0.90792740920E+01  0.28779304804E+02  0.15412261156E+02  0.33885386186E+02  0.00000000000E+00 0.  1.
<scales pt_clust_4="550.00000" pt_clust_5="550.00000" pt_clust_6="30.17750"></scales>
<mgrwt>
<rscale>  0 0.30000000E+03</rscale>
<asrwt>  1 0.30177502E+02</asrwt>
<pdfrwt beam="1">  1        1 0.87573843E+00 0.30000000E+03</pdfrwt>
<pdfrwt beam="2">0</pdfrwt>
<totfact> 0.22718647E-04</totfact>
</mgrwt>
<clustering>
<clus scale="   30.178">  1  6  2 -1</clus>
<clus scale="  478.434">  4  5 -1 -1</clus>
<clus scale="  300.000">  1  4  2 -1</clus>
</clustering>
</event>
<event>
 6    1  0.1007353E-011  0.3000000E+03  0.7818608E-02  0.1093470E+00
          1   -1    0    0  502    0  0.00000000000E+00  0.00000000000E+00  0.22898740537E+03  0.22898740537E+03  0.00000000000E+00 0.  1.
         13   -1    0    0    0    0 -0.00000000000E+00 -0.00000000000E+00 -0.27500000000E+03  0.27500000000E+03  0.00000000000E+00 0.  1.
    9000005    2    1    2  501    0  0.33054076782E+02  0.32979726249E+01 -0.49532625952E+02  0.47058322546E+03  0.46678864857E+03 0.  0.
         13    1    3    3    0    0  0.55235234894E+02 -0.22321941592E+03 -0.74255060872E+02  0.24164364854E+03  0.00000000000E+00 0.  1.
          3    1    3    3  501    0 -0.22181158113E+02  0.22651738854E+03  0.24722434920E+02  0.22893957691E+03  0.00000000000E+00 0.  1.
         21    1    1    2  502  501 -0.33054076782E+02 -0.32979726249E+01  0.35200313237E+01  0.33404179916E+02  0.00000000000E+00 0. -1.
<scales pt_clust_4="550.00000" pt_clust_5="550.00000" pt_clust_6="33.21820"></scales>
<mgrwt>
<rscale>  0 0.30000000E+03</rscale>
<asrwt>  1 0.33218197E+02</asrwt>
<pdfrwt beam="1">  1        1 0.83268147E+00 0.30000000E+03</pdfrwt>
<pdfrwt beam="2">0</pdfrwt>
<totfact> 0.56842733E-04</totfact>
</mgrwt>
<clustering>
<clus scale="   33.218">  1  6  2 -1</clus>
<clus scale="  466.789">  4  5 -1 -1</clus>
<clus scale="  300.000">  1  4  2 -1</clus>
</clustering>
</event>
<event>
 6    1  0.1007353E-011  0.3000000E+03  0.7818608E-02  0.1093470E+00
          1   -1    0    0  502    0  0.00000000000E+00  0.00000000000E+00  0.24909894953E+03  0.24909894953E+03  0.00000000000E+00 0.  1.
         13   -1    0    0    0    0 -0.00000000000E+00 -0.00000000000E+00 -0.27500000000E+03  0.27500000000E+03  0.00000000000E+00 0.  1.
    9000005    2    1    2  501    0  0.17892240590E+02  0.26022504628E+02 -0.71163669393E+02  0.46890830094E+03  0.46239963649E+03 0.  0.
         13    1    3    3    0    0 -0.51662089947E+02  0.80740797322E+02  0.17927570051E+03  0.20329246096E+03  0.00000000000E+00 0.  1.
          1    1    3    3  501    0  0.69554330537E+02 -0.54718292693E+02 -0.25043936990E+03  0.26561583998E+03  0.00000000000E+00 0.  1.
         21    1    1    2  502  501 -0.17892240590E+02 -0.26022504628E+02  0.45262618921E+02  0.55190648592E+02  0.00000000000E+00 0.  1.
<scales pt_clust_4="550.00000" pt_clust_5="550.00000" pt_clust_6="31.58010"></scales>
<mgrwt>
<rscale>  0 0.30000000E+03</rscale>
<asrwt>  1 0.31580105E+02</asrwt>
<pdfrwt beam="1">  1        1 0.90581436E+00 0.30000000E+03</pdfrwt>
<pdfrwt beam="2">0</pdfrwt>
<totfact> 0.90900423E-05</totfact>
</mgrwt>
<clustering>
<clus scale="   31.580">  1  6  2 -1</clus>
<clus scale="  462.400">  4  5 -1 -1</clus>
<clus scale="  300.000">  1  4  2 -1</clus>
</clustering>
</event>
<event>
 6    1  0.1007353E-011  0.3000000E+03  0.7818608E-02  0.1093470E+00
          1   -1    0    0  502    0  0.00000000000E+00  0.00000000000E+00  0.22322386529E+03  0.22322386529E+03  0.00000000000E+00 0.  1.
         13   -1    0    0    0    0 -0.00000000000E+00 -0.00000000000E+00 -0.27500000000E+03  0.27500000000E+03  0.00000000000E+00 0.  1.
    9000005    2    1    2  501    0  0.11134823703E+02  0.28049685212E+02 -0.65947336578E+02  0.46488331788E+03  0.45919133147E+03 0.  0.
         13    1    3    3    0    0 -0.45861839483E+02 -0.20993465504E+03 -0.42499124227E+02  0.21904803872E+03  0.00000000000E+00 0.  1.
          1    1    3    3  501    0  0.56996663187E+02  0.23798434025E+03 -0.23448212351E+02  0.24583527916E+03  0.00000000000E+00 0.  1.
         21    1    1    2  502  501 -0.11134823703E+02 -0.28049685212E+02  0.14171201870E+02  0.33340547414E+02  0.00000000000E+00 0.  1.
<scales pt_clust_4="550.00000" pt_clust_5="550.00000" pt_clust_6="30.17895"></scales>
<mgrwt>
<rscale>  0 0.30000000E+03</rscale>
<asrwt>  1 0.30178952E+02</asrwt>
<pdfrwt beam="1">  1        1 0.81172315E+00 0.30000000E+03</pdfrwt>
<pdfrwt beam="2">0</pdfrwt>
<totfact> 0.86953897E-04</totfact>
</mgrwt>
<clustering>
<clus scale="   30.179">  1  6  2 -1</clus>
<clus scale="  459.191">  4  5 -1 -1</clus>
<clus scale="  300.000">  1  4  2 -1</clus>
</clustering>
</event>
<event>
 6    1  0.1007353E-011  0.3000000E+03  0.7818608E-02  0.1093470E+00
          1   -1    0    0  502    0  0.00000000000E+00  0.00000000000E+00  0.23093020911E+03  0.23093020911E+03  0.00000000000E+00 0.  1.
         13   -1    0    0    0    0 -0.00000000000E+00 -0.00000000000E+00 -0.27500000000E+03  0.27500000000E+03  0.00000000000E+00 0.  1.
    9000005    2    1    2  501    0 -0.32097938420E+02  0.86305846822E+01 -0.23120663365E+02  0.46664114464E+03  0.46488130545E+03 0.  0.
         13    1    3    3    0    0  0.89831980467E+02  0.17588569890E+02  0.19566215085E+03  0.21601578596E+03  0.00000000000E+00 0.  1.
          3    1    3    3  501    0 -0.12192991889E+03 -0.89579852075E+01 -0.21878281422E+03  0.25062535868E+03  0.00000000000E+00 0.  1.
         21    1    1    2  502  501  0.32097938420E+02 -0.86305846822E+01 -0.20949127526E+02  0.39289064469E+02  0.00000000000E+00 0.  1.
<scales pt_clust_4="550.00000" pt_clust_5="550.00000" pt_clust_6="33.23802"></scales>
<mgrwt>
<rscale>  0 0.30000000E+03</rscale>
<asrwt>  1 0.33238017E+02</asrwt>
<pdfrwt beam="1">  1        1 0.83974621E+00 0.30000000E+03</pdfrwt>
<pdfrwt beam="2">0</pdfrwt>
<totfact> 0.50413744E-04</totfact>
</mgrwt>
<clustering>
<clus scale="   33.238">  1  6  2 -1</clus>
<clus scale="  464.881">  4  5 -1 -1</clus>
<clus scale="  300.000">  1  4  2 -1</clus>
</clustering>
</event>
<event>
 6    1  0.1007353E-011  0.3000000E+03  0.7818608E-02  0.1093470E+00
          1   -1    0    0  502    0  0.00000000000E+00  0.00000000000E+00  0.22724895399E+03  0.22724895399E+03  0.00000000000E+00 0.  1.
         13   -1    0    0    0    0 -0.00000000000E+00 -0.00000000000E+00 -0.27500000000E+03  0.27500000000E+03  0.00000000000E+00 0.  1.
    9000005    2    1    2  501    0  0.24273437776E+02  0.21644062579E+02 -0.57226611570E+02  0.46837489948E+03  0.46372674730E+03 0.  0.
         13    1    3    3    0    0  0.21506894809E+03  0.98140865041E+02 -0.10286039785E+03  0.25781106119E+03  0.00000000000E+00 0.  1.
          3    1    3    3  501    0 -0.19079551032E+03 -0.76496802462E+02  0.45633786283E+02  0.21056383829E+03  0.00000000000E+00 0.  1.
         21    1    1    2  502  501 -0.24273437776E+02 -0.21644062579E+02  0.94755655563E+01  0.33874054510E+02  0.00000000000E+00 0. -1.
<scales pt_clust_4="550.00000" pt_clust_5="550.00000" pt_clust_6="32.52177"></scales>
<mgrwt>
<rscale>  0 0.30000000E+03</rscale>
<asrwt>  1 0.32521765E+02</asrwt>
<pdfrwt beam="1">  1        1 0.82635983E+00 0.30000000E+03</pdfrwt>
<pdfrwt beam="2">0</pdfrwt>
<totfact> 0.64407710E-04</totfact>
</mgrwt>
<clustering>
<clus scale="   32.522">  1  6  2 -1</clus>
<clus scale="  463.727">  4  5 -1 -1</clus>
<clus scale="  300.000">  1  4  2 -1</clus>
</clustering>
</event>
<event>
 6    1  0.1007353E-011  0.3000000E+03  0.7818608E-02  0.1093470E+00
          1   -1    0    0  502    0  0.00000000000E+00  0.00000000000E+00  0.23283142876E+03  0.23283142876E+03  0.00000000000E+00 0.  1.
         13   -1    0    0    0    0 -0.00000000000E+00 -0.00000000000E+00 -0.27500000000E+03  0.27500000000E+03  0.00000000000E+00 0.  1.
    9000005    2    1    2  501    0  0.13495248445E+02 -0.28616362187E+02 -0.42368088121E+02  0.47619193252E+03  0.47324695856E+03 0.  0.
         13    1    3    3    0    0 -0.86319581100E+02  0.73583771961E+02 -0.22043357778E+03  0.24790442471E+03  0.00000000000E+00 0.  1.
          3    1    3    3  501    0  0.99814829545E+02 -0.10220013415E+03  0.17806548966E+03  0.22828750781E+03  0.00000000000E+00 0.  1.
         21    1    1    2  502  501 -0.13495248445E+02  0.28616362187E+02  0.19951688038E+00  0.31639496242E+02  0.00000000000E+00 0. -1.
<scales pt_clust_4="550.00000" pt_clust_5="550.00000" pt_clust_6="31.63887"></scales>
<mgrwt>
<rscale>  0 0.30000000E+03</rscale>
<asrwt>  1 0.31638867E+02</asrwt>
<pdfrwt beam="1">  1        1 0.84665974E+00 0.30000000E+03</pdfrwt>
<pdfrwt beam="2">0</pdfrwt>
<totfact> 0.44519032E-04</totfact>
</mgrwt>
<clustering>
<clus scale="   31.639">  1  6  2 -1</clus>
<clus scale="  473.247">  4  5 -1 -1</clus>
<clus scale="  300.000">  1  4  2 -1</clus>
</clustering>
</event>
<event>
 6    1  0.1007353E-011  0.3000000E+03  0.7818608E-02  0.1093470E+00
          1   -1    0    0  502    0  0.00000000000E+00  0.00000000000E+00  0.22359382190E+03  0.22359382190E+03  0.00000000000E+00 0.  1.
         13   -1    0    0    0    0 -0.00000000000E+00 -0.00000000000E+00 -0.27500000000E+03  0.27500000000E+03  0.00000000000E+00 0.  1.
    9000005    2    1    2  501    0 -0.32720032155E+02 -0.29077490276E+01 -0.60753802878E+02  0.46444073130E+03  0.45927672793E+03 0.  0.
         13    1    3    3    0    0  0.11274610161E+03  0.75465347897E+02 -0.20451220579E+03  0.24542197228E+03  0.00000000000E+00 0.  1.
          3    1    3    3  501    0 -0.14546613376E+03 -0.78373096924E+02  0.14375840291E+03  0.21901875902E+03  0.00000000000E+00 0.  1.
         21    1    1    2  502  501  0.32720032155E+02  0.29077490276E+01  0.93476247765E+01  0.34153090601E+02  0.00000000000E+00 0. -1.
<scales pt_clust_4="550.00000" pt_clust_5="550.00000" pt_clust_6="32.84898"></scales>
<mgrwt>
<rscale>  0 0.30000000E+03</rscale>
<asrwt>  1 0.32848980E+02</asrwt>
<pdfrwt beam="1">  1        1 0.81306844E+00 0.30000000E+03</pdfrwt>
<pdfrwt beam="2">0</pdfrwt>
<totfact> 0.83484907E-04</totfact>
</mgrwt>
<clustering>
<clus scale="   32.849">  1  6  2 -1</clus>
<clus scale="  459.277">  4  5 -1 -1</clus>
<clus scale="  300.000">  1  4  2 -1</clus>
</clustering>
</event>
<event>
 6    1  0.1007353E-011  0.3000000E+03  0.7818608E-02  0.1093470E+00
          1   -1    0    0  502    0  0.00000000000E+00  0.00000000000E+00  0.23546553199E+03  0.23546553199E+03  0.00000000000E+00 0.  1.
         13   -1    0    0    0    0 -0.00000000000E+00 -0.00000000000E+00 -0.27500000000E+03  0.27500000000E+03  0.00000000000E+00 0.  1.
    9000005    2    1    2  501    0  0.30073463597E+02  0.16979623519E+02 -0.29868217186E+02  0.47460249764E+03  0.47240099444E+03 0.  0.
         13    1    3    3    0    0 -0.16719380772E+03 -0.69745762259E+02  0.11533542231E+03  0.21475684001E+03  0.00000000000E+00 0.  1.
          3    1    3    3  501    0  0.19726727131E+03  0.86725385778E+02 -0.14520363949E+03  0.25984565763E+03  0.00000000000E+00 0.  1.
         21    1    1    2  502  501 -0.30073463597E+02 -0.16979623519E+02 -0.96662508235E+01  0.35863034347E+02  0.00000000000E+00 0.  1.
<scales pt_clust_4="550.00000" pt_clust_5="550.00000" pt_clust_6="34.53581"></scales>
<mgrwt>
<rscale>  0 0.30000000E+03</rscale>
<asrwt>  1 0.34535808E+02</asrwt>
<pdfrwt beam="1">  1        1 0.85623830E+00 0.30000000E+03</pdfrwt>
<pdfrwt beam="2">0</pdfrwt>
<totfact> 0.35494708E-04</totfact>
</mgrwt>
<clustering>
<clus scale="   34.536">  1  6  2 -1</clus>
<clus scale="  472.401">  4  5 -1 -1</clus>
<clus scale="  300.000">  1  4  2 -1</clus>
</clustering>
</event>
<event>
 6    1  0.1007353E-011  0.3000000E+03  0.7818608E-02  0.1093470E+00
          1   -1    0    0  502    0  0.00000000000E+00  0.00000000000E+00  0.22808467083E+03  0.22808467083E+03  0.00000000000E+00 0.  1.
         13   -1    0    0    0    0 -0.00000000000E+00 -0.00000000000E+00 -0.27500000000E+03  0.27500000000E+03  0.00000000000E+00 0.  1.
    9000005    2    1    2  501    0 -0.33394985420E+02  0.19498865004E+02 -0.55514986902E+02  0.46346920793E+03  0.45850448432E+03 0.  0.
         13    1    3    3    0    0 -0.20144625606E+03  0.19586119519E+02 -0.16649642693E+03  0.26207874836E+03  0.00000000000E+00 0.  1.
          1    1    3    3  501    0  0.16805127064E+03 -0.87254515775E-01  0.11098144003E+03  0.20139045958E+03  0.00000000000E+00 0.  1.
         21    1    1    2  502  501  0.33394985420E+02 -0.19498865004E+02  0.85996577351E+01  0.39615462900E+02  0.00000000000E+00 0. -1.
<scales pt_clust_4="550.00000" pt_clust_5="550.00000" pt_clust_6="38.67080"></scales>
<mgrwt>
<rscale>  0 0.30000000E+03</rscale>
<asrwt>  1 0.38670800E+02</asrwt>
<pdfrwt beam="1">  1        1 0.82939880E+00 0.30000000E+03</pdfrwt>
<pdfrwt beam="2">0</pdfrwt>
<totfact> 0.58691796E-04</totfact>
</mgrwt>
<clustering>
<clus scale="   38.671">  1  6  2 -1</clus>
<clus scale="  458.504">  4  5 -1 -1</clus>
<clus scale="  300.000">  1  4  2 -1</clus>
</clustering>
</event>
<event>
 6    1  0.1007353E-011  0.3000000E+03  0.7818608E-02  0.1093470E+00
          1   -1    0    0  502    0  0.00000000000E+00  0.00000000000E+00  0.24152333539E+03  0.24152333539E+03  0.00000000000E+00 0.  1.
         13   -1    0    0    0    0 -0.00000000000E+00 -0.00000000000E+00 -0.27500000000E+03  0.27500000000E+03  0.00000000000E+00 0.  1.
    9000005    2    1    2  501    0  0.17326691157E+02 -0.38204974881E+02 -0.51413212598E+02  0.47089928377E+03  0.46620058204E+03 0.  0.
         13    1    3    3    0    0 -0.15497828825E+03  0.14702912299E+03 -0.49399189397E+01  0.21368255810E+03  0.00000000000E+00 0.  1.
          3    1    3    3  501    0  0.17230497941E+03 -0.18523409787E+03 -0.46473293659E+02  0.25721672567E+03  0.00000000000E+00 0.  1.
         21    1    1    2  502  501 -0.17326691157E+02  0.38204974881E+02  0.17936547986E+02  0.45624051615E+02  0.00000000000E+00 0.  1.
<scales pt_clust_4="550.00000" pt_clust_5="550.00000" pt_clust_6="41.95038"></scales>
<mgrwt>
<rscale>  0 0.30000000E+03</rscale>
<asrwt>  1 0.41950379E+02</asrwt>
<pdfrwt beam="1">  1        1 0.87826667E+00 0.30000000E+03</pdfrwt>
<pdfrwt beam="2">0</pdfrwt>
<totfact> 0.20024562E-04</totfact>
</mgrwt>
<clustering>
<clus scale="   41.950">  1  6  2 -1</clus>
<clus scale="  466.201">  4  5 -1 -1</clus>
<clus scale="  300.000">  1  4  2 -1</clus>
</clustering>
</event>
<event>
 6    1  0.1007353E-011  0.3000000E+03  0.7818608E-02  0.1093470E+00
          1   -1    0    0  502    0  0.00000000000E+00  0.00000000000E+00  0.24960459004E+03  0.24960459004E+03  0.00000000000E+00 0.  1.
         13   -1    0    0    0    0 -0.00000000000E+00 -0.00000000000E+00 -0.27500000000E+03  0.27500000000E+03  0.00000000000E+00 0.  1.
    9000005    2    1    2  501    0 -0.38678857708E+02  0.21517995494E+02 -0.43508179396E+02  0.47678042690E+03  0.47272352981E+03 0.  0.
         13    1    3    3    0    0  0.26341070321E+02 -0.93981147993E+02 -0.22892393223E+03  0.24886236138E+03  0.00000000000E+00 0.  1.
          1    1    3    3  501    0 -0.65019928029E+02  0.11549914349E+03  0.18541575284E+03  0.22791806551E+03  0.00000000000E+00 0.  1.
         21    1    1    2  502  501  0.38678857708E+02 -0.21517995494E+02  0.18112769438E+02  0.47824163143E+02  0.00000000000E+00 0.  1.
<scales pt_clust_4="550.00000" pt_clust_5="550.00000" pt_clust_6="44.26147"></scales>
<mgrwt>
<rscale>  0 0.30000000E+03</rscale>
<asrwt>  1 0.44261475E+02</asrwt>
<pdfrwt beam="1">  1        1 0.90765305E+00 0.30000000E+03</pdfrwt>
<pdfrwt beam="2">0</pdfrwt>
<totfact> 0.78091988E-05</totfact>
</mgrwt>
<clustering>
<clus scale="   44.261">  1  6  2 -1</clus>
<clus scale="  472.724">  4  5 -1 -1</clus>
<clus scale="  300.000">  1  4  2 -1</clus>
</clustering>
</event>
<event>
 6    1  0.1007353E-011  0.3000000E+03  0.7818608E-02  0.1093470E+00
          1   -1    0    0  502    0  0.00000000000E+00  0.00000000000E+00  0.25723618870E+03  0.25723618870E+03  0.00000000000E+00 0.  1.
         13   -1    0    0    0    0 -0.00000000000E+00 -0.00000000000E+00 -0.27500000000E+03  0.27500000000E+03  0.00000000000E+00 0.  1.
    9000005    2    1    2  501    0  0.35670649260E+02 -0.32568113208E-01 -0.46890936016E+02  0.48618419989E+03  0.48260120188E+03 0.  0.
         13    1    3    3    0    0 -0.29742990916E+02  0.21862899374E+03 -0.11390966249E+03  0.24831168644E+03  0.00000000000E+00 0.  1.
          1    1    3    3  501    0  0.65413640176E+02 -0.21866156186E+03  0.67018726477E+02  0.23787251345E+03  0.00000000000E+00 0.  1.
         21    1    1    2  502  501 -0.35670649260E+02  0.32568113208E-01  0.29127124713E+02  0.46051988810E+02  0.00000000000E+00 0. -1.
<scales pt_clust_4="550.00000" pt_clust_5="550.00000" pt_clust_6="35.67066"></scales>
<mgrwt>
<rscale>  0 0.30000000E+03</rscale>
<asrwt>  1 0.35670664E+02</asrwt>
<pdfrwt beam="1">  1        1 0.93540432E+00 0.30000000E+03</pdfrwt>
<pdfrwt beam="2">0</pdfrwt>
<totfact> 0.22192570E-05</totfact>
</mgrwt>
<clustering>
<clus scale="   35.671">  1  6  2 -1</clus>
<clus scale="  482.601">  4  5 -1 -1</clus>
<clus scale="  300.000">  1  4  2 -1</clus>
</clustering>
</event>
<event>
 6    1  0.1007353E-011  0.3000000E+03  0.7818608E-02  0.1093470E+00
          1   -1    0    0  502    0  0.00000000000E+00  0.00000000000E+00  0.23364886053E+03  0.23364886053E+03  0.00000000000E+00 0.  1.
         13   -1    0    0    0    0 -0.00000000000E+00 -0.00000000000E+00 -0.27500000000E+03  0.27500000000E+03  0.00000000000E+00 0.  1.
    9000005    2    1    2  501    0  0.27408753091E+01 -0.30716017565E+02 -0.22609608331E+02  0.47256242095E+03  0.47101280362E+03 0.  0.
         13    1    3    3    0    0  0.40147291753E+02  0.50028216839E+02 -0.23430347576E+03  0.24292539239E+03  0.00000000000E+00 0.  1.
          3    1    3    3  501    0 -0.37406416444E+02 -0.80744234404E+02  0.21169386742E+03  0.22963702856E+03  0.00000000000E+00 0.  1.
         21    1    1    2  502  501 -0.27408753091E+01  0.30716017565E+02 -0.18741531137E+02  0.36086439584E+02  0.00000000000E+00 0.  1.
<scales pt_clust_4="550.00000" pt_clust_5="550.00000" pt_clust_6="30.83808"></scales>
<mgrwt>
<rscale>  0 0.30000000E+03</rscale>
<asrwt>  1 0.30838078E+02</asrwt>
<pdfrwt beam="1">  1        1 0.84963222E+00 0.30000000E+03</pdfrwt>
<pdfrwt beam="2">0</pdfrwt>
<totfact> 0.42017453E-04</totfact>
</mgrwt>
<clustering>
<clus scale="   30.838">  1  6  2 -1</clus>
<clus scale="  471.013">  4  5 -1 -1</clus>
<clus scale="  300.000">  1  4  2 -1</clus>
</clustering>
</event>
<event>
 6    1  0.1007353E-011  0.3000000E+03  0.7818608E-02  0.1093470E+00
          1   -1    0    0  502    0  0.00000000000E+00  0.00000000000E+00  0.21807583144E+03  0.21807583144E+03  0.00000000000E+00 0.  1.
         13   -1    0    0    0    0 -0.00000000000E+00 -0.00000000000E+00 -0.27500000000E+03  0.27500000000E+03  0.00000000000E+00 0.  1.
    9000005    2    1    2  501    0  0.29241016003E+02 -0.12447393428E+02 -0.46769627279E+02  0.45971283804E+03  0.45622200824E+03 0.  0.
         13    1    3    3    0    0 -0.71821139924E+02  0.16410203838E+03  0.10342663829E+03  0.20684492899E+03  0.00000000000E+00 0.  1.
          3    1    3    3  501    0  0.10106215593E+03 -0.17654943181E+03 -0.15019626557E+03  0.25286790905E+03  0.00000000000E+00 0.  1.
         21    1    1    2  502  501 -0.29241016003E+02  0.12447393428E+02 -0.10154541279E+02  0.33362993400E+02  0.00000000000E+00 0. -1.
<scales pt_clust_4="550.00000" pt_clust_5="550.00000" pt_clust_6="31.78011"></scales>
<mgrwt>
<rscale>  0 0.30000000E+03</rscale>
<asrwt>  1 0.31780114E+02</asrwt>
<pdfrwt beam="1">  1        1 0.79300302E+00 0.30000000E+03</pdfrwt>
<pdfrwt beam="2">0</pdfrwt>
<totfact> 0.11895916E-03</totfact>
</mgrwt>
<clustering>
<clus scale="   31.780">  1  6  2 -1</clus>
<clus scale="  456.222">  4  5 -1 -1</clus>
<clus scale="  300.000">  1  4  2 -1</clus>
</clustering>
</event>
<event>
 6    1  0.1007353E-011  0.3000000E+03  0.7818608E-02  0.1093470E+00
          1   -1    0    0  502    0  0.00000000000E+00  0.00000000000E+00  0.22430835570E+03  0.22430835570E+03  0.00000000000E+00 0.  1.
         13   -1    0    0    0    0 -0.00000000000E+00 -0.00000000000E+00 -0.27500000000E+03  0.27500000000E+03  0.00000000000E+00 0.  1.
    9000005    2    1    2  501    0  0.11549923892E+02  0.31709318161E+02 -0.49752627979E+02  0.46554797430E+03  0.46164998731E+03 0.  0.
         13    1    3    3    0    0  0.18035992135E+03 -0.30086345710E+02  0.11966645376E+03  0.21852905889E+03  0.00000000000E+00 0.  1.
          3    1    3    3  501    0 -0.16880999746E+03  0.61795663870E+02 -0.16941908173E+03  0.24701891541E+03  0.00000000000E+00 0.  1.
         21    1    1    2  502  501 -0.11549923892E+02 -0.31709318161E+02 -0.93901632434E+00  0.33760381393E+02  0.00000000000E+00 0.  1.
<scales pt_clust_4="550.00000" pt_clust_5="550.00000" pt_clust_6="33.74732"></scales>
<mgrwt>
<rscale>  0 0.30000000E+03</rscale>
<asrwt>  1 0.33747320E+02</asrwt>
<pdfrwt beam="1">  1        1 0.81566675E+00 0.30000000E+03</pdfrwt>
<pdfrwt beam="2">0</pdfrwt>
<totfact> 0.79159272E-04</totfact>
</mgrwt>
<clustering>
<clus scale="   33.747">  1  6  2 -1</clus>
<clus scale="  461.650">  4  5 -1 -1</clus>
<clus scale="  300.000">  1  4  2 -1</clus>
</clustering>
</event>
<event>
 6    1  0.1007353E-011  0.3000000E+03  0.7818608E-02  0.1093470E+00
          1   -1    0    0  502    0  0.00000000000E+00  0.00000000000E+00  0.24789802573E+03  0.24789802573E+03  0.00000000000E+00 0.  1.
         13   -1    0    0    0    0 -0.00000000000E+00 -0.00000000000E+00 -0.27500000000E+03  0.27500000000E+03  0.00000000000E+00 0.  1.
    9000005    2    1    2  501    0 -0.16511849120E+02  0.25222114955E+02 -0.52123293182E+02  0.48372070264E+03  0.47995841927E+03 0.  0.
         13    1    3    3    0    0  0.20597946861E+03 -0.24597866341E+02 -0.12760752795E+03  0.24354933321E+03  0.00000000000E+00 0.  1.
          3    1    3    3  501    0 -0.22249131773E+03  0.49819981296E+02  0.75484234767E+02  0.24017136944E+03  0.00000000000E+00 0.  1.
         21    1    1    2  502  501  0.16511849120E+02 -0.25222114955E+02  0.25021318915E+02  0.39177323089E+02  0.00000000000E+00 0.  1.
<scales pt_clust_4="550.00000" pt_clust_5="550.00000" pt_clust_6="30.14625"></scales>
<mgrwt>
<rscale>  0 0.30000000E+03</rscale>
<asrwt>  1 0.30146248E+02</asrwt>
<pdfrwt beam="1">  1        1 0.90144737E+00 0.30000000E+03</pdfrwt>
<pdfrwt beam="2">0</pdfrwt>
<totfact> 0.10872905E-04</totfact>
</mgrwt>
<clustering>
<clus scale="   30.146">  1  6  2 -1</clus>
<clus scale="  479.958">  4  5 -1 -1</clus>
<clus scale="  300.000">  1  4  2 -1</clus>
</clustering>
</event>
<event>
 6    1  0.1007353E-011  0.3000000E+03  0.7818608E-02  0.1093470E+00
          1   -1    0    0  502    0  0.00000000000E+00  0.00000000000E+00  0.24418574550E+03  0.24418574550E+03  0.00000000000E+00 0.  1.
         13   -1    0    0    0    0 -0.00000000000E+00 -0.00000000000E+00 -0.27500000000E+03  0.27500000000E+03  0.00000000000E+00 0.  1.
    9000005    2    1    2  501    0  0.82664757008E+01  0.32990019864E+02 -0.62384196462E+02  0.47278168031E+03  0.46741208075E+03 0.  0.
         13    1    3    3    0    0  0.14675849179E+03 -0.10705924602E+03  0.10886674862E+03  0.21178221367E+03  0.00000000000E+00 0.  1.
          3    1    3    3  501    0 -0.13849201609E+03  0.14004926589E+03 -0.17125094508E+03  0.26099946664E+03  0.00000000000E+00 0.  1.
         21    1    1    2  502  501 -0.82664757008E+01 -0.32990019864E+02  0.31569941963E+02  0.46404065195E+02  0.00000000000E+00 0. -1.
<scales pt_clust_4="550.00000" pt_clust_5="550.00000" pt_clust_6="34.00994"></scales>
<mgrwt>
<rscale>  0 0.30000000E+03</rscale>
<asrwt>  1 0.34009940E+02</asrwt>
<pdfrwt beam="1">  1        1 0.88794817E+00 0.30000000E+03</pdfrwt>
<pdfrwt beam="2">0</pdfrwt>
<totfact> 0.15538264E-04</totfact>
</mgrwt>
<clustering>
<clus scale="   34.010">  1  6  2 -1</clus>
<clus scale="  467.412">  4  5 -1 -1</clus>
<clus scale="  300.000">  1  4  2 -1</clus>
</clustering>
</event>
<event>
 6    1  0.1007353E-011  0.3000000E+03  0.7818608E-02  0.1093470E+00
          1   -1    0    0  502    0  0.00000000000E+00  0.00000000000E+00  0.22401223524E+03  0.22401223524E+03  0.00000000000E+00 0.  1.
         13   -1    0    0    0    0 -0.00000000000E+00 -0.00000000000E+00 -0.27500000000E+03  0.27500000000E+03  0.00000000000E+00 0.  1.
    9000005    2    1    2  501    0 -0.27086747897E+02 -0.19790133030E+02 -0.48272448966E+02  0.46535641529E+03  0.46162866315E+03 0.  0.
         13    1    3    3    0    0  0.20757770077E+03  0.47762903716E+02 -0.58691534629E+02  0.22094002142E+03  0.00000000000E+00 0.  1.
          1    1    3    3  501    0 -0.23466444867E+03 -0.67553036746E+02  0.10419085664E+02  0.24441639386E+03  0.00000000000E+00 0.  1.
         21    1    1    2  502  501  0.27086747897E+02  0.19790133030E+02 -0.27153157918E+01  0.33655819955E+02  0.00000000000E+00 0.  1.
<scales pt_clust_4="550.00000" pt_clust_5="550.00000" pt_clust_6="33.54611"></scales>
<mgrwt>
<rscale>  0 0.30000000E+03</rscale>
<asrwt>  1 0.33546107E+02</asrwt>
<pdfrwt beam="1">  1        1 0.81458995E+00 0.30000000E+03</pdfrwt>
<pdfrwt beam="2">0</pdfrwt>
<totfact> 0.80854549E-04</totfact>
</mgrwt>
<clustering>
<clus scale="   33.546">  1  6  2 -1</clus>
<clus scale="  461.629">  4  5 -1 -1</clus>
<clus scale="  300.000">  1  4  2 -1</clus>
</clustering>
</event>
<event>
 6    1  0.1007353E-011  0.3000000E+03  0.7818608E-02  0.1093470E+00
          1   -1    0    0  502    0  0.00000000000E+00  0.00000000000E+00  0.23464217386E+03  0.23464217386E+03  0.00000000000E+00 0.  1.
         13   -1    0    0    0    0 -0.00000000000E+00 -0.00000000000E+00 -0.27500000000E+03  0.27500000000E+03  0.00000000000E+00 0.  1.
    9000005    2    1    2  501    0 -0.17263330626E+02  0.29215681160E+02 -0.33306384015E+02  0.47498237805E+03  0.47259640882E+03 0.  0.
         13    1    3    3    0    0  0.14761917818E+03 -0.11939364009E+03  0.10149597880E+03  0.21528515224E+03  0.00000000000E+00 0.  1.
          3    1    3    3  501    0 -0.16488250881E+03  0.14860932125E+03 -0.13480236281E+03  0.25969722581E+03  0.00000000000E+00 0.  1.
         21    1    1    2  502  501  0.17263330626E+02 -0.29215681160E+02 -0.70514421212E+01  0.34659795815E+02  0.00000000000E+00 0.  1.
<scales pt_clust_4="550.00000" pt_clust_5="550.00000" pt_clust_6="33.93493"></scales>
<mgrwt>
<rscale>  0 0.30000000E+03</rscale>
<asrwt>  1 0.33934934E+02</asrwt>
<pdfrwt beam="1">  1        1 0.85324427E+00 0.30000000E+03</pdfrwt>
<pdfrwt beam="2">0</pdfrwt>
<totfact> 0.38120560E-04</totfact>
</mgrwt>
<clustering>
<clus scale="   33.935">  1  6  2 -1</clus>
<clus scale="  472.596">  4  5 -1 -1</clus>
<clus scale="  300.000">  1  4  2 -1</clus>
</clustering>
</event>
<event>
 6    1  0.1007353E-011  0.3000000E+03  0.7818608E-02  0.1093470E+00
          1   -1    0    0  502    0  0.00000000000E+00  0.00000000000E+00  0.24917881524E+03  0.24917881524E+03  0.00000000000E+00 0.  1.
         13   -1    0    0    0    0 -0.00000000000E+00 -0.00000000000E+00 -0.27500000000E+03  0.27500000000E+03  0.00000000000E+00 0.  1.
    9000005    2    1    2  501    0  0.23597921083E+00  0.30560142714E+02 -0.46008032184E+02  0.48755250205E+03  0.48441379545E+03 0.  0.
         13    1    3    3    0    0  0.17120614300E+03 -0.36200453586E+02  0.14159117637E+03  0.22510014986E+03  0.00000000000E+00 0.  1.
          1    1    3    3  501    0 -0.17097016379E+03  0.66760596300E+02 -0.18759920855E+03  0.26245235220E+03  0.00000000000E+00 0.  1.
         21    1    1    2  502  501 -0.23597921083E+00 -0.30560142714E+02  0.20186847429E+02  0.36626313192E+02  0.00000000000E+00 0. -1.
<scales pt_clust_4="550.00000" pt_clust_5="550.00000" pt_clust_6="30.56105"></scales>
<mgrwt>
<rscale>  0 0.30000000E+03</rscale>
<asrwt>  1 0.30561054E+02</asrwt>
<pdfrwt beam="1">  1        1 0.90610478E+00 0.30000000E+03</pdfrwt>
<pdfrwt beam="2">0</pdfrwt>
<totfact> 0.90246349E-05</totfact>
</mgrwt>
<clustering>
<clus scale="   30.561">  1  6  2 -1</clus>
<clus scale="  484.414">  4  5 -1 -1</clus>
<clus scale="  300.000">  1  4  2 -1</clus>
</clustering>
</event>
<event>
 6    1  0.1007353E-011  0.3000000E+03  0.7818608E-02  0.1093470E+00
          1   -1    0    0  502    0  0.00000000000E+00  0.00000000000E+00  0.22518878265E+03  0.22518878265E+03  0.00000000000E+00 0.  1.
         13   -1    0    0    0    0 -0.00000000000E+00 -0.00000000000E+00 -0.27500000000E+03  0.27500000000E+03  0.00000000000E+00 0.  1.
    9000005    2    1    2  501    0 -0.80282425420E+01 -0.30510209438E+02 -0.58081972161E+02  0.46757389428E+03  0.46287849978E+03 0.  0.
         13    1    3    3    0    0  0.62174008273E+02  0.14107170010E+03  0.13134093001E+03  0.20252721242E+03  0.00000000000E+00 0.  1.
          1    1    3    3  501    0 -0.70202250815E+02 -0.17158190954E+03 -0.18942290217E+03  0.26504668186E+03  0.00000000000E+00 0.  1.
         21    1    1    2  502  501  0.80282425420E+01  0.30510209438E+02  0.82707548092E+01  0.32614888370E+02  0.00000000000E+00 0.  1.
<scales pt_clust_4="550.00000" pt_clust_5="550.00000" pt_clust_6="31.54878"></scales>
<mgrwt>
<rscale>  0 0.30000000E+03</rscale>
<asrwt>  1 0.31548781E+02</asrwt>
<pdfrwt beam="1">  1        1 0.81886830E+00 0.30000000E+03</pdfrwt>
<pdfrwt beam="2">0</pdfrwt>
<totfact> 0.75429097E-04</totfact>
</mgrwt>
<clustering>
<clus scale="   31.549">  1  6  2 -1</clus>
<clus scale="  462.878">  4  5 -1 -1</clus>
<clus scale="  300.000">  1  4  2 -1</clus>
</clustering>
</event>
<event>
 6    1  0.1007353E-011  0.3000000E+03  0.7818608E-02  0.1093470E+00
          1   -1    0    0  502    0  0.00000000000E+00  0.00000000000E+00  0.23799720303E+03  0.23799720303E+03  0.00000000000E+00 0.  1.
         13   -1    0    0    0    0 -0.00000000000E+00 -0.00000000000E+00 -0.27500000000E+03  0.27500000000E+03  0.00000000000E+00 0.  1.
    9000005    2    1    2  501    0  0.40312697238E+02 -0.45995731469E+01 -0.44652316795E+02  0.47170816350E+03  0.46783383000E+03 0.  0.
         13    1    3    3    0    0  0.59425686484E+02  0.21832309731E+03 -0.89841201154E+02  0.24344984793E+03  0.00000000000E+00 0.  1.
          1    1    3    3  501    0 -0.19112989246E+02 -0.22292267045E+03  0.45188884358E+02  0.22825831558E+03  0.00000000000E+00 0.  1.
         21    1    1    2  502  501 -0.40312697238E+02  0.45995731469E+01  0.76495198286E+01  0.41289039531E+02  0.00000000000E+00 0. -1.
<scales pt_clust_4="550.00000" pt_clust_5="550.00000" pt_clust_6="40.57425"></scales>
<mgrwt>
<rscale>  0 0.30000000E+03</rscale>
<asrwt>  1 0.40574248E+02</asrwt>
<pdfrwt beam="1">  1        1 0.86544437E+00 0.30000000E+03</pdfrwt>
<pdfrwt beam="2">0</pdfrwt>
<totfact> 0.27497694E-04</totfact>
</mgrwt>
<clustering>
<clus scale="   40.574">  1  6  2 -1</clus>
<clus scale="  467.834">  4  5 -1 -1</clus>
<clus scale="  300.000">  1  4  2 -1</clus>
</clustering>
</event>
<event>
 6    1  0.1007353E-011  0.3000000E+03  0.7818608E-02  0.1093470E+00
          1   -1    0    0  502    0  0.00000000000E+00  0.00000000000E+00  0.22782989298E+03  0.22782989298E+03  0.00000000000E+00 0.  1.
         13   -1    0    0    0    0 -0.00000000000E+00 -0.00000000000E+00 -0.27500000000E+03  0.27500000000E+03  0.00000000000E+00 0.  1.
    9000005    2    1    2  501    0  0.26050734913E+02  0.15768614089E+02 -0.65075605040E+02  0.46750430963E+03  0.46195038172E+03 0.  0.
         13    1    3    3    0    0 -0.14706407055E+03 -0.15746909566E+03 -0.55081326153E+02  0.22239224228E+03  0.00000000000E+00 0.  1.
          3    1    3    3  501    0  0.17311480546E+03  0.17323770975E+03 -0.99942788868E+01  0.24511206735E+03  0.00000000000E+00 0.  1.
         21    1    1    2  502  501 -0.26050734913E+02 -0.15768614089E+02  0.17905498017E+02  0.35325583350E+02  0.00000000000E+00 0.  1.
<scales pt_clust_4="550.00000" pt_clust_5="550.00000" pt_clust_6="30.45144"></scales>
<mgrwt>
<rscale>  0 0.30000000E+03</rscale>
<asrwt>  1 0.30451436E+02</asrwt>
<pdfrwt beam="1">  1        1 0.82847234E+00 0.30000000E+03</pdfrwt>
<pdfrwt beam="2">0</pdfrwt>
<totfact> 0.62508269E-04</totfact>
</mgrwt>
<clustering>
<clus scale="   30.451">  1  6  2 -1</clus>
<clus scale="  461.950">  4  5 -1 -1</clus>
<clus scale="  300.000">  1  4  2 -1</clus>
</clustering>
</event>
<event>
 6    1  0.1007353E-011  0.3000000E+03  0.7818608E-02  0.1093470E+00
          1   -1    0    0  502    0  0.00000000000E+00  0.00000000000E+00  0.24532528064E+03  0.24532528064E+03  0.00000000000E+00 0.  1.
         13   -1    0    0    0    0 -0.00000000000E+00 -0.00000000000E+00 -0.27500000000E+03  0.27500000000E+03  0.00000000000E+00 0.  1.
    9000005    2    1    2  501    0 -0.18328530696E+02  0.29457668486E+02 -0.40852977458E+02  0.48387472887E+03  0.48089718049E+03 0.  0.
         13    1    3    3    0    0  0.19545225173E+03 -0.63804293910E+01  0.10562601989E+03  0.22225919253E+03  0.00000000000E+00 0.  1.
          3    1    3    3  501    0 -0.21378078243E+03  0.35838097877E+02 -0.14647899735E+03  0.26161553635E+03  0.00000000000E+00 0.  1.
         21    1    1    2  502  501  0.18328530696E+02 -0.29457668486E+02  0.11178258101E+02  0.36450551769E+02  0.00000000000E+00 0.  1.
<scales pt_clust_4="550.00000" pt_clust_5="550.00000" pt_clust_6="34.69423"></scales>
<mgrwt>
<rscale>  0 0.30000000E+03</rscale>
<asrwt>  1 0.34694225E+02</asrwt>
<pdfrwt beam="1">  1        1 0.89209193E+00 0.30000000E+03</pdfrwt>
<pdfrwt beam="2">0</pdfrwt>
<totfact> 0.13652379E-04</totfact>
</mgrwt>
<clustering>
<clus scale="   34.694">  1  6  2 -1</clus>
<clus scale="  480.897">  4  5 -1 -1</clus>
<clus scale="  300.000">  1  4  2 -1</clus>
</clustering>
</event>
<event>
 6    1  0.1007353E-011  0.3000000E+03  0.7818608E-02  0.1093470E+00
          1   -1    0    0  502    0  0.00000000000E+00  0.00000000000E+00  0.23735342608E+03  0.23735342608E+03  0.00000000000E+00 0.  1.
         13   -1    0    0    0    0 -0.00000000000E+00 -0.00000000000E+00 -0.27500000000E+03  0.27500000000E+03  0.00000000000E+00 0.  1.
    9000005    2    1    2  501    0  0.29909502960E+02  0.20116366729E+02 -0.70385979327E+02  0.46365932742E+03  0.45686599703E+03 0.  0.
         13    1    3    3    0    0  0.10198374188E+03  0.12613174555E+03 -0.21569910384E+03  0.26988146331E+03  0.00000000000E+00 0.  1.
          3    1    3    3  501    0 -0.72074238922E+02 -0.10601537882E+03  0.14531312451E+03  0.19377786411E+03  0.00000000000E+00 0.  1.
         21    1    1    2  502  501 -0.29909502960E+02 -0.20116366729E+02  0.32739405406E+02  0.48694098657E+02  0.00000000000E+00 0. -1.
<scales pt_clust_4="550.00000" pt_clust_5="550.00000" pt_clust_6="36.04506"></scales>
<mgrwt>
<rscale>  0 0.30000000E+03</rscale>
<asrwt>  1 0.36045063E+02</asrwt>
<pdfrwt beam="1">  1        1 0.86310337E+00 0.30000000E+03</pdfrwt>
<pdfrwt beam="2">0</pdfrwt>
<totfact> 0.29786426E-04</totfact>
</mgrwt>
<clustering>
<clus scale="   36.045">  1  6  2 -1</clus>
<clus scale="  456.866">  4  5 -1 -1</clus>
<clus scale="  300.000">  1  4  2 -1</clus>
</clustering>
</event>
<event>
 6    1  0.1007353E-011  0.3000000E+03  0.7818608E-02  0.1093470E+00
          1   -1    0    0  502    0  0.00000000000E+00  0.00000000000E+00  0.23335498330E+03  0.23335498330E+03  0.00000000000E+00 0.  1.
         13   -1    0    0    0    0 -0.00000000000E+00 -0.00000000000E+00 -0.27500000000E+03  0.27500000000E+03  0.00000000000E+00 0.  1.
    9000005    2    1    2  501    0  0.22387808497E+02  0.26022477598E+02 -0.51889411726E+02  0.47253137462E+03  0.46841755479E+03 0.  0.
         13    1    3    3    0    0  0.75219199413E+02  0.19302821062E+03 -0.16429289114E+03  0.26440493970E+03  0.00000000000E+00 0.  1.
          1    1    3    3  501    0 -0.52831390916E+02 -0.16700573302E+03  0.11240347942E+03  0.20812643492E+03  0.00000000000E+00 0.  1.
         21    1    1    2  502  501 -0.22387808497E+02 -0.26022477598E+02  0.10244395026E+02  0.35823608683E+02  0.00000000000E+00 0.  1.
<scales pt_clust_4="550.00000" pt_clust_5="550.00000" pt_clust_6="34.32759"></scales>
<mgrwt>
<rscale>  0 0.30000000E+03</rscale>
<asrwt>  1 0.34327588E+02</asrwt>
<pdfrwt beam="1">  1        1 0.84856358E+00 0.30000000E+03</pdfrwt>
<pdfrwt beam="2">0</pdfrwt>
<totfact> 0.42123262E-04</totfact>
</mgrwt>
<clustering>
<clus scale="   34.328">  1  6  2 -1</clus>
<clus scale="  468.418">  4  5 -1 -1</clus>
<clus scale="  300.000">  1  4  2 -1</clus>
</clustering>
</event>
<event>
 6    1  0.1007353E-011  0.3000000E+03  0.7818608E-02  0.1093470E+00
          1   -1    0    0  502    0  0.00000000000E+00  0.00000000000E+00  0.24611168964E+03  0.24611168964E+03  0.00000000000E+00 0.  1.
         13   -1    0    0    0    0 -0.00000000000E+00 -0.00000000000E+00 -0.27500000000E+03  0.27500000000E+03  0.00000000000E+00 0.  1.
    9000005    2    1    2  501    0  0.25397630460E+02 -0.24748822253E+02 -0.47371305700E+02  0.48112212909E+03  0.47746928557E+03 0.  0.
         13    1    3    3    0    0  0.17146193253E+03 -0.47661369810E+02 -0.20062076302E+03  0.26817809574E+03  0.00000000000E+00 0.  1.
          3    1    3    3  501    0 -0.14606430207E+03  0.22912547557E+02  0.15324945732E+03  0.21294403336E+03  0.00000000000E+00 0.  1.
         21    1    1    2  502  501 -0.25397630460E+02  0.24748822253E+02  0.18482995340E+02  0.39989560546E+02  0.00000000000E+00 0. -1.
<scales pt_clust_4="550.00000" pt_clust_5="550.00000" pt_clust_6="35.46186"></scales>
<mgrwt>
<rscale>  0 0.30000000E+03</rscale>
<asrwt>  1 0.35461865E+02</asrwt>
<pdfrwt beam="1">  1        1 0.89495160E+00 0.30000000E+03</pdfrwt>
<pdfrwt beam="2">0</pdfrwt>
<totfact> 0.12594141E-04</totfact>
</mgrwt>
<clustering>
<clus scale="   35.462">  1  6  2 -1</clus>
<clus scale="  477.469">  4  5 -1 -1</clus>
<clus scale="  300.000">  1  4  2 -1</clus>
</clustering>
</event>
<event>
 6    1  0.1007353E-011  0.3000000E+03  0.7818608E-02  0.1093470E+00
          1   -1    0    0  502    0  0.00000000000E+00  0.00000000000E+00  0.25293899170E+03  0.25293899170E+03  0.00000000000E+00 0.  1.
         13   -1    0    0    0    0 -0.00000000000E+00 -0.00000000000E+00 -0.27500000000E+03  0.27500000000E+03  0.00000000000E+00 0.  1.
    9000005    2    1    2  501    0 -0.23285524449E+02  0.29066928729E+02 -0.46172045121E+02  0.48357184066E+03  0.47991954048E+03 0.  0.
         13    1    3    3    0    0 -0.13929685226E+03  0.17507991147E+03 -0.15073051130E+03  0.26977078323E+03  0.00000000000E+00 0.  1.
          1    1    3    3  501    0  0.11601132781E+03 -0.14601298274E+03  0.10455846618E+03  0.21380105743E+03  0.00000000000E+00 0.  1.
         21    1    1    2  502  501  0.23285524449E+02 -0.29066928729E+02  0.24111036819E+02  0.44367151037E+02  0.00000000000E+00 0. -1.
<scales pt_clust_4="550.00000" pt_clust_5="550.00000" pt_clust_6="37.24382"></scales>
<mgrwt>
<rscale>  0 0.30000000E+03</rscale>
<asrwt>  1 0.37243818E+02</asrwt>
<pdfrwt beam="1">  1        1 0.91977815E+00 0.30000000E+03</pdfrwt>
<pdfrwt beam="2">0</pdfrwt>
<totfact> 0.41781255E-05</totfact>
</mgrwt>
<clustering>
<clus scale="   37.244">  1  6  2 -1</clus>
<clus scale="  479.920">  4  5 -1 -1</clus>
<clus scale="  300.000">  1  4  2 -1</clus>
</clustering>
</event>
<event>
 6    1  0.1007353E-011  0.3000000E+03  0.7818608E-02  0.1093470E+00
          1   -1    0    0  502    0  0.00000000000E+00  0.00000000000E+00  0.24225822927E+03  0.24225822927E+03  0.00000000000E+00 0.  1.
         13   -1    0    0    0    0 -0.00000000000E+00 -0.00000000000E+00 -0.27500000000E+03  0.27500000000E+03  0.00000000000E+00 0.  1.
    9000005    2    1    2  501    0  0.27761115653E+02 -0.28387942747E+02 -0.65018789567E+02  0.46608830861E+03  0.45981987080E+03 0.  0.
         13    1    3    3    0    0 -0.67334201087E+02 -0.59639184450E+01 -0.24887069244E+03  0.25788773627E+03  0.00000000000E+00 0.  1.
          1    1    3    3  501    0  0.95095316740E+02 -0.22424024302E+02  0.18385190288E+03  0.20820057234E+03  0.00000000000E+00 0.  1.
         21    1    1    2  502  501 -0.27761115653E+02  0.28387942747E+02  0.32277018833E+02  0.51169920661E+02  0.00000000000E+00 0.  1.
<scales pt_clust_4="550.00000" pt_clust_5="550.00000" pt_clust_6="39.70585"></scales>
<mgrwt>
<rscale>  0 0.30000000E+03</rscale>
<asrwt>  1 0.39705854E+02</asrwt>
<pdfrwt beam="1">  1        1 0.88093902E+00 0.30000000E+03</pdfrwt>
<pdfrwt beam="2">0</pdfrwt>
<totfact> 0.18768467E-04</totfact>
</mgrwt>
<clustering>
<clus scale="   39.706">  1  6  2 -1</clus>
<clus scale="  459.820">  4  5 -1 -1</clus>
<clus scale="  300.000">  1  4  2 -1</clus>
</clustering>
</event>
<event>
 6    1  0.1007353E-011  0.3000000E+03  0.7818608E-02  0.1093470E+00
          1   -1    0    0  502    0  0.00000000000E+00  0.00000000000E+00  0.22957074498E+03  0.22957074498E+03  0.00000000000E+00 0.  1.
         13   -1    0    0    0    0 -0.00000000000E+00 -0.00000000000E+00 -0.27500000000E+03  0.27500000000E+03  0.00000000000E+00 0.  1.
    9000005    2    1    2  501    0 -0.56786164169E+01 -0.30485740473E+02 -0.60942541059E+02  0.46989670425E+03  0.46489492609E+03 0.  0.
         13    1    3    3    0    0  0.24924281818E+02  0.86613171270E+02 -0.23852884806E+03  0.25498837741E+03  0.00000000000E+00 0.  1.
          3    1    3    3  501    0 -0.30602898235E+02 -0.11709891174E+03  0.17758630700E+03  0.21490832684E+03  0.00000000000E+00 0.  1.
         21    1    1    2  502  501  0.56786164169E+01  0.30485740473E+02  0.15513286039E+02  0.34674040727E+02  0.00000000000E+00 0. -1.
<scales pt_clust_4="550.00000" pt_clust_5="550.00000" pt_clust_6="31.01011"></scales>
<mgrwt>
<rscale>  0 0.30000000E+03</rscale>
<asrwt>  1 0.31010112E+02</asrwt>
<pdfrwt beam="1">  1        1 0.83480271E+00 0.30000000E+03</pdfrwt>
<pdfrwt beam="2">0</pdfrwt>
<totfact> 0.55535942E-04</totfact>
</mgrwt>
<clustering>
<clus scale="   31.010">  1  6  2 -1</clus>
<clus scale="  464.895">  4  5 -1 -1</clus>
<clus scale="  300.000">  1  4  2 -1</clus>
</clustering>
</event>
<event>
 6    1  0.1007353E-011  0.3000000E+03  0.7818608E-02  0.1093470E+00
          1   -1    0    0  502    0  0.00000000000E+00  0.00000000000E+00  0.22219646852E+03  0.22219646852E+03  0.00000000000E+00 0.  1.
         13   -1    0    0    0    0 -0.00000000000E+00 -0.00000000000E+00 -0.27500000000E+03  0.27500000000E+03  0.00000000000E+00 0.  1.
    9000005    2    1    2  501    0 -0.72495876443E+01  0.30317727063E+02 -0.43162317704E+02  0.46456712440E+03  0.46150612813E+03 0.  0.
         13    1    3    3    0    0 -0.16154956613E+03  0.14407216301E+03 -0.13173469445E+03  0.25339510688E+03  0.00000000000E+00 0.  1.
          3    1    3    3  501    0  0.15429997849E+03 -0.11375443595E+03  0.88572376741E+02  0.21117201751E+03  0.00000000000E+00 0.  1.
         21    1    1    2  502  501  0.72495876443E+01 -0.30317727063E+02 -0.96412137712E+01  0.32629344128E+02  0.00000000000E+00 0.  1.
<scales pt_clust_4="550.00000" pt_clust_5="550.00000" pt_clust_6="31.17246"></scales>
<mgrwt>
<rscale>  0 0.30000000E+03</rscale>
<asrwt>  1 0.31172457E+02</asrwt>
<pdfrwt beam="1">  1        1 0.80798716E+00 0.30000000E+03</pdfrwt>
<pdfrwt beam="2">0</pdfrwt>
<totfact> 0.92407178E-04</totfact>
</mgrwt>
<clustering>
<clus scale="   31.172">  1  6  2 -1</clus>
<clus scale="  461.506">  4  5 -1 -1</clus>
<clus scale="  300.000">  1  4  2 -1</clus>
</clustering>
</event>
<event>
 6    1  0.1007353E-011  0.3000000E+03  0.7818608E-02  0.1093470E+00
          1   -1    0    0  502    0  0.00000000000E+00  0.00000000000E+00  0.24644662632E+03  0.24644662632E+03  0.00000000000E+00 0.  1.
         13   -1    0    0    0    0 -0.00000000000E+00 -0.00000000000E+00 -0.27500000000E+03  0.27500000000E+03  0.00000000000E+00 0.  1.
    9000005    2    1    2  501    0  0.20254261713E+02 -0.28387845384E+02 -0.71312849851E+02  0.46626984057E+03  0.45946266093E+03 0.  0.
         13    1    3    3    0    0  0.32585911497E+02 -0.94679041423E+02 -0.25320368517E+03  0.27228306723E+03  0.00000000000E+00 0.  1.
          1    1    3    3  501    0 -0.12331649784E+02  0.66291196039E+02  0.18189083532E+03  0.19398677335E+03  0.00000000000E+00 0.  1.
         21    1    1    2  502  501 -0.20254261713E+02  0.28387845384E+02  0.42759476173E+02  0.55176785749E+02  0.00000000000E+00 0.  1.
<scales pt_clust_4="550.00000" pt_clust_5="550.00000" pt_clust_6="34.87270"></scales>
<mgrwt>
<rscale>  0 0.30000000E+03</rscale>
<asrwt>  1 0.34872695E+02</asrwt>
<pdfrwt beam="1">  1        1 0.89616955E+00 0.30000000E+03</pdfrwt>
<pdfrwt beam="2">0</pdfrwt>
<totfact> 0.12244156E-04</totfact>
</mgrwt>
<clustering>
<clus scale="   34.873">  1  6  2 -1</clus>
<clus scale="  459.463">  4  5 -1 -1</clus>
<clus scale="  300.000">  1  4  2 -1</clus>
</clustering>
</event>
<event>
 6    1  0.1007353E-011  0.3000000E+03  0.7818608E-02  0.1093470E+00
          1   -1    0    0  502    0  0.00000000000E+00  0.00000000000E+00  0.25853539876E+03  0.25853539876E+03  0.00000000000E+00 0.  1.
         13   -1    0    0    0    0 -0.00000000000E+00 -0.00000000000E+00 -0.27500000000E+03  0.27500000000E+03  0.00000000000E+00 0.  1.
    9000005    2    1    2  501    0 -0.35101585720E+02 -0.45951567723E+01 -0.36058935637E+02  0.49307338292E+03  0.49047719347E+03 0.  0.
         13    1    3    3    0    0  0.14618600683E+03  0.89238430766E+01  0.16593266607E+03  0.22132246437E+03  0.00000000000E+00 0.  1.
          1    1    3    3  501    0 -0.18128759255E+03 -0.13518999849E+02 -0.20199160171E+03  0.27175091854E+03  0.00000000000E+00 0.  1.
         21    1    1    2  502  501  0.35101585720E+02  0.45951567723E+01  0.19594334400E+02  0.40462015847E+02  0.00000000000E+00 0. -1.
<scales pt_clust_4="550.00000" pt_clust_5="550.00000" pt_clust_6="35.40108"></scales>
<mgrwt>
<rscale>  0 0.30000000E+03</rscale>
<asrwt>  1 0.35401085E+02</asrwt>
<pdfrwt beam="1">  1        1 0.94012872E+00 0.30000000E+03</pdfrwt>
<pdfrwt beam="2">0</pdfrwt>
<totfact> 0.19021317E-05</totfact>
</mgrwt>
<clustering>
<clus scale="   35.401">  1  6  2 -1</clus>
<clus scale="  490.477">  4  5 -1 -1</clus>
<clus scale="  300.000">  1  4  2 -1</clus>
</clustering>
</event>
<event>
 6    1  0.1007353E-011  0.3000000E+03  0.7818608E-02  0.1093470E+00
          1   -1    0    0  502    0  0.00000000000E+00  0.00000000000E+00  0.24816218387E+03  0.24816218387E+03  0.00000000000E+00 0.  1.
         13   -1    0    0    0    0 -0.00000000000E+00 -0.00000000000E+00 -0.27500000000E+03  0.27500000000E+03  0.00000000000E+00 0.  1.
    9000005    2    1    2  501    0 -0.44694099864E+02  0.21125611405E+02 -0.16451109766E+02  0.47264745642E+03  0.46976709658E+03 0.  0.
         13    1    3    3    0    0 -0.20832829310E+03 -0.68994032313E+02 -0.12899165677E+03  0.25455785534E+03  0.00000000000E+00 0.  1.
          1    1    3    3  501    0  0.16363419323E+03  0.90119643717E+02  0.11254054701E+03  0.21808960108E+03  0.00000000000E+00 0.  1.
         21    1    1    2  502  501  0.44694099864E+02 -0.21125611405E+02 -0.10386706365E+02  0.50514727447E+02  0.00000000000E+00 0.  1.
<scales pt_clust_4="550.00000" pt_clust_5="550.00000" pt_clust_6="49.43538"></scales>
<mgrwt>
<rscale>  0 0.30000000E+03</rscale>
<asrwt>  1 0.49435377E+02</asrwt>
<pdfrwt beam="1">  1        1 0.90240794E+00 0.30000000E+03</pdfrwt>
<pdfrwt beam="2">0</pdfrwt>
<totfact> 0.96149638E-05</totfact>
</mgrwt>
<clustering>
<clus scale="   49.435">  1  6  2 -1</clus>
<clus scale="  469.767">  4  5 -1 -1</clus>
<clus scale="  300.000">  1  4  2 -1</clus>
</clustering>
</event>
<event>
 6    1  0.1007353E-011  0.3000000E+03  0.7818608E-02  0.1093470E+00
          1   -1    0    0  502    0  0.00000000000E+00  0.00000000000E+00  0.23588599545E+03  0.23588599545E+03  0.00000000000E+00 0.  1.
         13   -1    0    0    0    0 -0.00000000000E+00 -0.00000000000E+00 -0.27500000000E+03  0.27500000000E+03  0.00000000000E+00 0.  1.
    9000005    2    1    2  501    0 -0.19302273279E+02  0.31690509968E+02 -0.52759107588E+02  0.47135050491E+03  0.46691638316E+03 0.  0.
         13    1    3    3    0    0  0.22990873456E+01  0.14330509057E+03  0.16933730476E+03  0.22184850139E+03  0.00000000000E+00 0.  1.
          3    1    3    3  501    0 -0.21601360624E+02 -0.11161458060E+03 -0.22209641234E+03  0.24950200352E+03  0.00000000000E+00 0.  1.
         21    1    1    2  502  501  0.19302273279E+02 -0.31690509968E+02  0.13645103040E+02  0.39535490546E+02  0.00000000000E+00 0.  1.
<scales pt_clust_4="550.00000" pt_clust_5="550.00000" pt_clust_6="37.10615"></scales>
<mgrwt>
<rscale>  0 0.30000000E+03</rscale>
<asrwt>  1 0.37106147E+02</asrwt>
<pdfrwt beam="1">  1        1 0.85776726E+00 0.30000000E+03</pdfrwt>
<pdfrwt beam="2">0</pdfrwt>
<totfact> 0.33778685E-04</totfact>
</mgrwt>
<clustering>
<clus scale="   37.106">  1  6  2 -1</clus>
<clus scale="  466.916">  4  5 -1 -1</clus>
<clus scale="  300.000">  1  4  2 -1</clus>
</clustering>
</event>
<event>
 6    1  0.1007353E-011  0.3000000E+03  0.7818608E-02  0.1093470E+00
          1   -1    0    0  502    0  0.00000000000E+00  0.00000000000E+00  0.23035124469E+03  0.23035124469E+03  0.00000000000E+00 0.  1.
         13   -1    0    0    0    0 -0.00000000000E+00 -0.00000000000E+00 -0.27500000000E+03  0.27500000000E+03  0.00000000000E+00 0.  1.
    9000005    2    1    2  501    0 -0.31341857289E+02 -0.14538957703E+01 -0.71540718982E+02  0.46402808482E+03  0.45740525052E+03 0.  0.
         13    1    3    3    0    0  0.15227634283E+03 -0.21238056268E+02  0.12217724488E+03  0.19638334651E+03  0.00000000000E+00 0.  1.
          1    1    3    3  501    0 -0.18361820012E+03  0.19784160498E+02 -0.19371796386E+03  0.26764473831E+03  0.00000000000E+00 0.  1.
         21    1    1    2  502  501  0.31341857289E+02  0.14538957703E+01  0.26891963669E+02  0.41323159865E+02  0.00000000000E+00 0.  1.
<scales pt_clust_4="550.00000" pt_clust_5="550.00000" pt_clust_6="31.37556"></scales>
<mgrwt>
<rscale>  0 0.30000000E+03</rscale>
<asrwt>  1 0.31375561E+02</asrwt>
<pdfrwt beam="1">  1        1 0.83764089E+00 0.30000000E+03</pdfrwt>
<pdfrwt beam="2">0</pdfrwt>
<totfact> 0.52839749E-04</totfact>
</mgrwt>
<clustering>
<clus scale="   31.376">  1  6  2 -1</clus>
<clus scale="  457.405">  4  5 -1 -1</clus>
<clus scale="  300.000">  1  4  2 -1</clus>
</clustering>
</event>
<event>
 6    1  0.1007353E-011  0.3000000E+03  0.7818608E-02  0.1093470E+00
          1   -1    0    0  502    0  0.00000000000E+00  0.00000000000E+00  0.24082409302E+03  0.24082409302E+03  0.00000000000E+00 0.  1.
         13   -1    0    0    0    0 -0.00000000000E+00 -0.00000000000E+00 -0.27500000000E+03  0.27500000000E+03  0.00000000000E+00 0.  1.
    9000005    2    1    2  501    0  0.19424766794E+01  0.31344549701E+02 -0.75560839809E+02  0.46387251290E+03  0.45659830672E+03 0.  0.
         13    1    3    3    0    0  0.55851226707E+02  0.20487406857E+02  0.18667900342E+03  0.19592892508E+03  0.00000000000E+00 0.  1.
          3    1    3    3  501    0 -0.53908750028E+02  0.10857142843E+02 -0.26223984323E+03  0.26794358782E+03  0.00000000000E+00 0.  1.
         21    1    1    2  502  501 -0.19424766794E+01 -0.31344549701E+02  0.41384932834E+02  0.51951580123E+02  0.00000000000E+00 0.  1.
<scales pt_clust_4="550.00000" pt_clust_5="550.00000" pt_clust_6="31.40468"></scales>
<mgrwt>
<rscale>  0 0.30000000E+03</rscale>
<asrwt>  1 0.31404681E+02</asrwt>
<pdfrwt beam="1">  1        1 0.87572397E+00 0.30000000E+03</pdfrwt>
<pdfrwt beam="2">0</pdfrwt>
<totfact> 0.22553778E-04</totfact>
</mgrwt>
<clustering>
<clus scale="   31.405">  1  6  2 -1</clus>
<clus scale="  456.598">  4  5 -1 -1</clus>
<clus scale="  300.000">  1  4  2 -1</clus>
</clustering>
</event>
<event>
 6    1  0.1007353E-011  0.3000000E+03  0.7818608E-02  0.1093470E+00
          1   -1    0    0  502    0  0.00000000000E+00  0.00000000000E+00  0.24735151640E+03  0.24735151640E+03  0.00000000000E+00 0.  1.
         13   -1    0    0    0    0 -0.00000000000E+00 -0.00000000000E+00 -0.27500000000E+03  0.27500000000E+03  0.00000000000E+00 0.  1.
    9000005    2    1    2  501    0 -0.25667452090E+02 -0.19326317263E+02 -0.70533694389E+02  0.46876545534E+03  0.46231344934E+03 0.  0.
         13    1    3    3    0    0  0.98163128380E+02 -0.32410253155E+01  0.17080814532E+03  0.19703280571E+03  0.00000000000E+00 0.  1.
          1    1    3    3  501    0 -0.12383058047E+03 -0.16085291947E+02 -0.24134183971E+03  0.27173264962E+03  0.00000000000E+00 0.  1.
         21    1    1    2  502  501  0.25667452090E+02  0.19326317263E+02  0.42885210789E+02  0.53586061062E+02  0.00000000000E+00 0.  1.
<scales pt_clust_4="550.00000" pt_clust_5="550.00000" pt_clust_6="32.12981"></scales>
<mgrwt>
<rscale>  0 0.30000000E+03</rscale>
<asrwt>  1 0.32129809E+02</asrwt>
<pdfrwt beam="1">  1        1 0.89946006E+00 0.30000000E+03</pdfrwt>
<pdfrwt beam="2">0</pdfrwt>
<totfact> 0.11397661E-04</totfact>
</mgrwt>
<clustering>
<clus scale="   32.130">  1  6  2 -1</clus>
<clus scale="  462.313">  4  5 -1 -1</clus>
<clus scale="  300.000">  1  4  2 -1</clus>
</clustering>
</event>
<event>
 6    1  0.1007353E-011  0.3000000E+03  0.7818608E-02  0.1093470E+00
          1   -1    0    0  502    0  0.00000000000E+00  0.00000000000E+00  0.23152149483E+03  0.23152149483E+03  0.00000000000E+00 0.  1.
         13   -1    0    0    0    0 -0.00000000000E+00 -0.00000000000E+00 -0.27500000000E+03  0.27500000000E+03  0.00000000000E+00 0.  1.
    9000005    2    1    2  501    0 -0.42788558698E+02  0.97539486418E+01 -0.46559215522E+02  0.46252727878E+03  0.45808047633E+03 0.  0.
         13    1    3    3    0    0 -0.18382490404E+03 -0.10064680514E+03  0.98952555830E+02  0.23176061580E+03  0.00000000000E+00 0.  1.
          1    1    3    3  501    0  0.14103634534E+03  0.11040075379E+03 -0.14551177135E+03  0.23076666298E+03  0.00000000000E+00 0.  1.
         21    1    1    2  502  501  0.42788558698E+02 -0.97539486418E+01  0.30807103521E+01  0.43994216050E+02  0.00000000000E+00 0. -1.
<scales pt_clust_4="550.00000" pt_clust_5="550.00000" pt_clust_6="43.88622"></scales>
<mgrwt>
<rscale>  0 0.30000000E+03</rscale>
<asrwt>  1 0.43886220E+02</asrwt>
<pdfrwt beam="1">  1        1 0.84189634E+00 0.30000000E+03</pdfrwt>
<pdfrwt beam="2">0</pdfrwt>
<totfact> 0.46061837E-04</totfact>
</mgrwt>
<clustering>
<clus scale="   43.886">  1  6  2 -1</clus>
<clus scale="  458.080">  4  5 -1 -1</clus>
<clus scale="  300.000">  1  4  2 -1</clus>
</clustering>
</event>
<event>
 6    1  0.1007353E-011  0.3000000E+03  0.7818608E-02  0.1093470E+00
          1   -1    0    0  502    0  0.00000000000E+00  0.00000000000E+00  0.25605525278E+03  0.25605525278E+03  0.00000000000E+00 0.  1.
         13   -1    0    0    0    0 -0.00000000000E+00 -0.00000000000E+00 -0.27500000000E+03  0.27500000000E+03  0.00000000000E+00 0.  1.
    9000005    2    1    2  501    0 -0.41403928401E+02  0.14837879914E+02 -0.19755632038E+02  0.48706541871E+03  0.48467307449E+03 0.  0.
         13    1    3    3    0    0 -0.95055552417E+02 -0.21798349014E+03  0.39098704920E+02  0.24100014263E+03  0.00000000000E+00 0.  1.
          1    1    3    3  501    0  0.53651624016E+02  0.23282137006E+03 -0.58854336957E+02  0.24606527608E+03  0.00000000000E+00 0.  1.
         21    1    1    2  502  501  0.41403928401E+02 -0.14837879914E+02  0.81088481904E+00  0.43989834070E+02  0.00000000000E+00 0. -1.
<scales pt_clust_4="550.00000" pt_clust_5="550.00000" pt_clust_6="43.98236"></scales>
<mgrwt>
<rscale>  0 0.30000000E+03</rscale>
<asrwt>  1 0.43982360E+02</asrwt>
<pdfrwt beam="1">  1        1 0.93111001E+00 0.30000000E+03</pdfrwt>
<pdfrwt beam="2">0</pdfrwt>
<totfact> 0.24254649E-05</totfact>
</mgrwt>
<clustering>
<clus scale="   43.982">  1  6  2 -1</clus>
<clus scale="  484.673">  4  5 -1 -1</clus>
<clus scale="  300.000">  1  4  2 -1</clus>
</clustering>
</event>
<event>
 6    1  0.1007353E-011  0.3000000E+03  0.7818608E-02  0.1093470E+00
          1   -1    0    0  502    0  0.00000000000E+00  0.00000000000E+00  0.24118123296E+03  0.24118123296E+03  0.00000000000E+00 0.  1.
         13   -1    0    0    0    0 -0.00000000000E+00 -0.00000000000E+00 -0.27500000000E+03  0.27500000000E+03  0.00000000000E+00 0.  1.
    9000005    2    1    2  501    0 -0.10531316843E+02  0.32066718543E+02 -0.58891280367E+02  0.47413585275E+03  0.46925200147E+03 0.  0.
         13    1    3    3    0    0 -0.23356693952E+03  0.13233370577E+02 -0.84745860200E+02  0.24881820302E+03  0.00000000000E+00 0.  1.
          1    1    3    3  501    0  0.22303562268E+03  0.18833347966E+02  0.25854579833E+02  0.22531764973E+03  0.00000000000E+00 0.  1.
         21    1    1    2  502  501  0.10531316843E+02 -0.32066718543E+02  0.25072513325E+02  0.42045380210E+02  0.00000000000E+00 0. -1.
<scales pt_clust_4="550.00000" pt_clust_5="550.00000" pt_clust_6="33.75179"></scales>
<mgrwt>
<rscale>  0 0.30000000E+03</rscale>
<asrwt>  1 0.33751786E+02</asrwt>
<pdfrwt beam="1">  1        1 0.87702267E+00 0.30000000E+03</pdfrwt>
<pdfrwt beam="2">0</pdfrwt>
<totfact> 0.21532958E-04</totfact>
</mgrwt>
<clustering>
<clus scale="   33.752">  1  6  2 -1</clus>
<clus scale="  469.252">  4  5 -1 -1</clus>
<clus scale="  300.000">  1  4  2 -1</clus>
</clustering>
</event>
<event>
 6    1  0.1007353E-011  0.3000000E+03  0.7818608E-02  0.1093470E+00
          1   -1    0    0  502    0  0.00000000000E+00  0.00000000000E+00  0.22133925868E+03  0.22133925868E+03  0.00000000000E+00 0.  1.
         13   -1    0    0    0    0 -0.00000000000E+00 -0.00000000000E+00 -0.27500000000E+03  0.27500000000E+03  0.00000000000E+00 0.  1.
    9000005    2    1    2  501    0  0.30582851873E+02  0.57723063326E+01 -0.62685661509E+02  0.46393432798E+03  0.45862505184E+03 0.  0.
         13    1    3    3    0    0  0.57805425171E+02  0.10430000316E+03  0.17122869680E+03  0.20866054837E+03  0.00000000000E+00 0.  1.
          3    1    3    3  501    0 -0.27222573298E+02 -0.98527696825E+02 -0.23391435830E+03  0.25527377962E+03  0.00000000000E+00 0.  1.
         21    1    1    2  502  501 -0.30582851873E+02 -0.57723063326E+01  0.90249201889E+01  0.32404930697E+02  0.00000000000E+00 0.  1.
<scales pt_clust_4="550.00000" pt_clust_5="550.00000" pt_clust_6="31.12283"></scales>
<mgrwt>
<rscale>  0 0.30000000E+03</rscale>
<asrwt>  1 0.31122827E+02</asrwt>
<pdfrwt beam="1">  1        1 0.80487003E+00 0.30000000E+03</pdfrwt>
<pdfrwt beam="2">0</pdfrwt>
<totfact> 0.97654635E-04</totfact>
</mgrwt>
<clustering>
<clus scale="   31.123">  1  6  2 -1</clus>
<clus scale="  458.625">  4  5 -1 -1</clus>
<clus scale="  300.000">  1  4  2 -1</clus>
</clustering>
</event>
<event>
 6    1  0.1007353E-011  0.3000000E+03  0.7818608E-02  0.1093470E+00
          1   -1    0    0  502    0  0.00000000000E+00  0.00000000000E+00  0.22568112800E+03  0.22568112800E+03  0.00000000000E+00 0.  1.
         13   -1    0    0    0    0 -0.00000000000E+00 -0.00000000000E+00 -0.27500000000E+03  0.27500000000E+03  0.00000000000E+00 0.  1.
    9000005    2    1    2  501    0 -0.36077862184E+02 -0.10604430088E+02 -0.46943018714E+02  0.46300207870E+03  0.45907865535E+03 0.  0.
         13    1    3    3    0    0 -0.89715318159E+02 -0.47315579659E+02 -0.23932816753E+03  0.25993378804E+03  0.00000000000E+00 0.  1.
          1    1    3    3  501    0  0.53637455975E+02  0.36711149570E+02  0.19238514882E+03  0.20306829066E+03  0.00000000000E+00 0.  1.
         21    1    1    2  502  501  0.36077862184E+02  0.10604430088E+02 -0.23758532890E+01  0.37679049300E+02  0.00000000000E+00 0. -1.
<scales pt_clust_4="550.00000" pt_clust_5="550.00000" pt_clust_6="37.60407"></scales>
<mgrwt>
<rscale>  0 0.30000000E+03</rscale>
<asrwt>  1 0.37604070E+02</asrwt>
<pdfrwt beam="1">  1        1 0.82065865E+00 0.30000000E+03</pdfrwt>
<pdfrwt beam="2">0</pdfrwt>
<totfact> 0.70435513E-04</totfact>
</mgrwt>
<clustering>
<clus scale="   37.604">  1  6  2 -1</clus>
<clus scale="  459.079">  4  5 -1 -1</clus>
<clus scale="  300.000">  1  4  2 -1</clus>
</clustering>
</event>
<event>
 6    1  0.1007353E-011  0.3000000E+03  0.7818608E-02  0.1093470E+00
          1   -1    0    0  502    0  0.00000000000E+00  0.00000000000E+00  0.22925128656E+03  0.22925128656E+03  0.00000000000E+00 0.  1.
         13   -1    0    0    0    0 -0.00000000000E+00 -0.00000000000E+00 -0.27500000000E+03  0.27500000000E+03  0.00000000000E+00 0.  1.
    9000005    2    1    2  501    0 -0.36844078537E+02 -0.18464384658E+02 -0.44468720478E+02  0.46301952689E+03  0.45903289158E+03 0.  0.
         13    1    3    3    0    0 -0.11102569048E+03  0.19316983648E+03  0.34096325523E+02  0.22539709201E+03  0.00000000000E+00 0.  1.
          3    1    3    3  501    0  0.74181611941E+02 -0.21163422114E+03 -0.78565046001E+02  0.23762243488E+03  0.00000000000E+00 0.  1.
         21    1    1    2  502  501  0.36844078537E+02  0.18464384658E+02 -0.12799929572E+01  0.41231759676E+02  0.00000000000E+00 0.  1.
<scales pt_clust_4="550.00000" pt_clust_5="550.00000" pt_clust_6="41.21189"></scales>
<mgrwt>
<rscale>  0 0.30000000E+03</rscale>
<asrwt>  1 0.41211887E+02</asrwt>
<pdfrwt beam="1">  1        1 0.83364104E+00 0.30000000E+03</pdfrwt>
<pdfrwt beam="2">0</pdfrwt>
<totfact> 0.53718478E-04</totfact>
</mgrwt>
<clustering>
<clus scale="   41.212">  1  6  2 -1</clus>
<clus scale="  459.033">  4  5 -1 -1</clus>
<clus scale="  300.000">  1  4  2 -1</clus>
</clustering>
</event>
<event>
 6    1  0.1007353E-011  0.3000000E+03  0.7818608E-02  0.1093470E+00
          1   -1    0    0  502    0  0.00000000000E+00  0.00000000000E+00  0.23352473738E+03  0.23352473738E+03  0.00000000000E+00 0.  1.
         13   -1    0    0    0    0 -0.00000000000E+00 -0.00000000000E+00 -0.27500000000E+03  0.27500000000E+03  0.00000000000E+00 0.  1.
    9000005    2    1    2  501    0 -0.25737114061E+02  0.23951665307E+02 -0.61381575151E+02  0.46812247767E+03  0.46274709618E+03 0.  0.
         13    1    3    3    0    0 -0.19373430728E+03 -0.34326433668E+01 -0.17693212778E+03  0.26239234497E+03  0.00000000000E+00 0.  1.
          3    1    3    3  501    0  0.16799719322E+03  0.27384308674E+02  0.11555055263E+03  0.20573013270E+03  0.00000000000E+00 0.  1.
         21    1    1    2  502  501  0.25737114061E+02 -0.23951665307E+02  0.19906312532E+02  0.40402259712E+02  0.00000000000E+00 0.  1.
<scales pt_clust_4="550.00000" pt_clust_5="550.00000" pt_clust_6="35.15795"></scales>
<mgrwt>
<rscale>  0 0.30000000E+03</rscale>
<asrwt>  1 0.35157948E+02</asrwt>
<pdfrwt beam="1">  1        1 0.84918086E+00 0.30000000E+03</pdfrwt>
<pdfrwt beam="2">0</pdfrwt>
<totfact> 0.41387028E-04</totfact>
</mgrwt>
<clustering>
<clus scale="   35.158">  1  6  2 -1</clus>
<clus scale="  462.747">  4  5 -1 -1</clus>
<clus scale="  300.000">  1  4  2 -1</clus>
</clustering>
</event>
<event>
 6    1  0.1007353E-011  0.3000000E+03  0.7818608E-02  0.1093470E+00
          1   -1    0    0  502    0  0.00000000000E+00  0.00000000000E+00  0.24519526472E+03  0.24519526472E+03  0.00000000000E+00 0.  1.
         13   -1    0    0    0    0 -0.00000000000E+00 -0.00000000000E+00 -0.27500000000E+03  0.27500000000E+03  0.00000000000E+00 0.  1.
    9000005    2    1    2  501    0 -0.47849298596E+02  0.16309181320E+02 -0.20898918490E+02  0.46886439346E+03  0.46566244200E+03 0.  0.
         13    1    3    3    0    0 -0.13648897379E+03  0.14651537001E+03  0.13951191691E+03  0.24404829148E+03  0.00000000000E+00 0.  1.
          3    1    3    3  501    0  0.88639675196E+02 -0.13020618869E+03 -0.16041083540E+03  0.22481610197E+03  0.00000000000E+00 0.  1.
         21    1    1    2  502  501  0.47849298596E+02 -0.16309181320E+02 -0.89058167944E+01  0.51330871259E+02  0.00000000000E+00 0.  1.
<scales pt_clust_4="550.00000" pt_clust_5="550.00000" pt_clust_6="50.55242"></scales>
<mgrwt>
<rscale>  0 0.30000000E+03</rscale>
<asrwt>  1 0.50552422E+02</asrwt>
<pdfrwt beam="1">  1        1 0.89161914E+00 0.30000000E+03</pdfrwt>
<pdfrwt beam="2">0</pdfrwt>
<totfact> 0.12925271E-04</totfact>
</mgrwt>
<clustering>
<clus scale="   50.552">  1  6  2 -1</clus>
<clus scale="  465.662">  4  5 -1 -1</clus>
<clus scale="  300.000">  1  4  2 -1</clus>
</clustering>
</event>
<event>
 6    1  0.1007353E-011  0.3000000E+03  0.7818608E-02  0.1093470E+00
          1   -1    0    0  502    0  0.00000000000E+00  0.00000000000E+00  0.24409184925E+03  0.24409184925E+03  0.00000000000E+00 0.  1.
         13   -1    0    0    0    0 -0.00000000000E+00 -0.00000000000E+00 -0.27500000000E+03  0.27500000000E+03  0.00000000000E+00 0.  1.
    9000005    2    1    2  501    0  0.48354593703E+02  0.12740168041E+02 -0.44343530374E+02  0.46731359088E+03  0.46250963765E+03 0.  0.
         13    1    3    3    0    0 -0.13047947658E+03 -0.13125815934E+03 -0.12569556221E+03  0.22372521664E+03  0.00000000000E+00 0.  1.
          1    1    3    3  501    0  0.17883407028E+03  0.14399832738E+03  0.81352031835E+02  0.24358837424E+03  0.00000000000E+00 0.  1.
         21    1    1    2  502  501 -0.48354593703E+02 -0.12740168041E+02  0.13435379621E+02  0.51778258366E+02  0.00000000000E+00 0. -1.
<scales pt_clust_4="550.00000" pt_clust_5="550.00000" pt_clust_6="50.00479"></scales>
<mgrwt>
<rscale>  0 0.30000000E+03</rscale>
<asrwt>  1 0.50004786E+02</asrwt>
<pdfrwt beam="1">  1        1 0.88760672E+00 0.30000000E+03</pdfrwt>
<pdfrwt beam="2">0</pdfrwt>
<totfact> 0.14645722E-04</totfact>
</mgrwt>
<clustering>
<clus scale="   50.005">  1  6  2 -1</clus>
<clus scale="  462.510">  4  5 -1 -1</clus>
<clus scale="  300.000">  1  4  2 -1</clus>
</clustering>
</event>
<event>
 6    1  0.1007353E-011  0.3000000E+03  0.7818608E-02  0.1093470E+00
          1   -1    0    0  502    0  0.00000000000E+00  0.00000000000E+00  0.23981202267E+03  0.23981202267E+03  0.00000000000E+00 0.  1.
         13   -1    0    0    0    0 -0.00000000000E+00 -0.00000000000E+00 -0.27500000000E+03  0.27500000000E+03  0.00000000000E+00 0.  1.
    9000005    2    1    2  501    0  0.38127634862E+02 -0.85726199953E+01 -0.34605617993E+02  0.47572819614E+03  0.47285575121E+03 0.  0.
         13    1    3    3    0    0  0.15666555466E+03  0.14085319180E+02  0.17410459537E+03  0.23463781102E+03  0.00000000000E+00 0.  1.
          1    1    3    3  501    0 -0.11853791979E+03 -0.22657939176E+02 -0.20871021336E+03  0.24109038512E+03  0.00000000000E+00 0.  1.
         21    1    1    2  502  501 -0.38127634862E+02  0.85726199953E+01 -0.58235933421E+00  0.39083826529E+02  0.00000000000E+00 0.  1.
<scales pt_clust_4="550.00000" pt_clust_5="550.00000" pt_clust_6="39.07949"></scales>
<mgrwt>
<rscale>  0 0.30000000E+03</rscale>
<asrwt>  1 0.39079488E+02</asrwt>
<pdfrwt beam="1">  1        1 0.87204372E+00 0.30000000E+03</pdfrwt>
<pdfrwt beam="2">0</pdfrwt>
<totfact> 0.23649169E-04</totfact>
</mgrwt>
<clustering>
<clus scale="   39.079">  1  6  2 -1</clus>
<clus scale="  472.856">  4  5 -1 -1</clus>
<clus scale="  300.000">  1  4  2 -1</clus>
</clustering>
</event>
<event>
 6    1  0.1007353E-011  0.3000000E+03  0.7818608E-02  0.1093470E+00
          1   -1    0    0  502    0  0.00000000000E+00  0.00000000000E+00  0.22488606724E+03  0.22488606724E+03  0.00000000000E+00 0.  1.
         13   -1    0    0    0    0 -0.00000000000E+00 -0.00000000000E+00 -0.27500000000E+03  0.27500000000E+03  0.00000000000E+00 0.  1.
    9000005    2    1    2  501    0  0.28142961551E+02 -0.13294735873E+02 -0.69923111273E+02  0.46299189642E+03  0.45662181110E+03 0.  0.
         13    1    3    3    0    0  0.23052869468E+03 -0.34024985773E+02 -0.10662748045E+03  0.25626275249E+03  0.00000000000E+00 0.  1.
          1    1    3    3  501    0 -0.20238573313E+03  0.20730249900E+02  0.36704369172E+02  0.20672914393E+03  0.00000000000E+00 0.  1.
         21    1    1    2  502  501 -0.28142961551E+02  0.13294735873E+02  0.19809178509E+02  0.36894170814E+02  0.00000000000E+00 0.  1.
<scales pt_clust_4="550.00000" pt_clust_5="550.00000" pt_clust_6="31.12517"></scales>
<mgrwt>
<rscale>  0 0.30000000E+03</rscale>
<asrwt>  1 0.31125171E+02</asrwt>
<pdfrwt beam="1">  1        1 0.81776752E+00 0.30000000E+03</pdfrwt>
<pdfrwt beam="2">0</pdfrwt>
<totfact> 0.77253274E-04</totfact>
</mgrwt>
<clustering>
<clus scale="   31.125">  1  6  2 -1</clus>
<clus scale="  456.622">  4  5 -1 -1</clus>
<clus scale="  300.000">  1  4  2 -1</clus>
</clustering>
</event>
<event>
 6    1  0.1007353E-011  0.3000000E+03  0.7818608E-02  0.1093470E+00
          1   -1    0    0  502    0  0.00000000000E+00  0.00000000000E+00  0.23854887586E+03  0.23854887586E+03  0.00000000000E+00 0.  1.
         13   -1    0    0    0    0 -0.00000000000E+00 -0.00000000000E+00 -0.27500000000E+03  0.27500000000E+03  0.00000000000E+00 0.  1.
    9000005    2    1    2  501    0 -0.22108707253E+02 -0.33108832476E+02 -0.47786854915E+02  0.47215457050E+03  0.46803991840E+03 0.  0.
         13    1    3    3    0    0 -0.20914699650E+03 -0.15541810773E+02  0.10074705586E+03  0.23266710831E+03  0.00000000000E+00 0.  1.
          3    1    3    3  501    0  0.18703828925E+03 -0.17567021703E+02 -0.14853391077E+03  0.23948746219E+03  0.00000000000E+00 0.  1.
         21    1    1    2  502  501  0.22108707253E+02  0.33108832476E+02  0.11335730779E+02  0.41394305364E+02  0.00000000000E+00 0.  1.
<scales pt_clust_4="550.00000" pt_clust_5="550.00000" pt_clust_6="39.81193"></scales>
<mgrwt>
<rscale>  0 0.30000000E+03</rscale>
<asrwt>  1 0.39811929E+02</asrwt>
<pdfrwt beam="1">  1        1 0.86745046E+00 0.30000000E+03</pdfrwt>
<pdfrwt beam="2">0</pdfrwt>
<totfact> 0.26274263E-04</totfact>
</mgrwt>
<clustering>
<clus scale="   39.812">  1  6  2 -1</clus>
<clus scale="  468.040">  4  5 -1 -1</clus>
<clus scale="  300.000">  1  4  2 -1</clus>
</clustering>
</event>
<event>
 6    1  0.1007353E-011  0.3000000E+03  0.7818608E-02  0.1093470E+00
          1   -1    0    0  502    0  0.00000000000E+00  0.00000000000E+00  0.23261564215E+03  0.23261564215E+03  0.00000000000E+00 0.  1.
         13   -1    0    0    0    0 -0.00000000000E+00 -0.00000000000E+00 -0.27500000000E+03  0.27500000000E+03  0.00000000000E+00 0.  1.
    9000005    2    1    2  501    0 -0.29963933112E+02  0.49728471670E+01 -0.66789577290E+02  0.46865179695E+03  0.46287265274E+03 0.  0.
         13    1    3    3    0    0  0.13289100550E+03 -0.15777895380E+03  0.47383704889E+02  0.21165876570E+03  0.00000000000E+00 0.  1.
          3    1    3    3  501    0 -0.16285493862E+03  0.16275180097E+03 -0.11417328218E+03  0.25699303126E+03  0.00000000000E+00 0.  1.
         21    1    1    2  502  501  0.29963933112E+02 -0.49728471670E+01  0.24405219437E+02  0.38963845193E+02  0.00000000000E+00 0.  1.
<scales pt_clust_4="550.00000" pt_clust_5="550.00000" pt_clust_6="30.37378"></scales>
<mgrwt>
<rscale>  0 0.30000000E+03</rscale>
<asrwt>  1 0.30373780E+02</asrwt>
<pdfrwt beam="1">  1        1 0.84587506E+00 0.30000000E+03</pdfrwt>
<pdfrwt beam="2">0</pdfrwt>
<totfact> 0.45597152E-04</totfact>
</mgrwt>
<clustering>
<clus scale="   30.374">  1  6  2 -1</clus>
<clus scale="  462.873">  4  5 -1 -1</clus>
<clus scale="  300.000">  1  4  2 -1</clus>
</clustering>
</event>
<event>
 6    1  0.1007353E-011  0.3000000E+03  0.7818608E-02  0.1093470E+00
          1   -1    0    0  502    0  0.00000000000E+00  0.00000000000E+00  0.23566088634E+03  0.23566088634E+03  0.00000000000E+00 0.  1.
         13   -1    0    0    0    0 -0.00000000000E+00 -0.00000000000E+00 -0.27500000000E+03  0.27500000000E+03  0.00000000000E+00 0.  1.
    9000005    2    1    2  501    0 -0.25473432432E+02  0.17861310359E+02 -0.61897971913E+02  0.47223141518E+03  0.46712228420E+03 0.  0.
         13    1    3    3    0    0  0.81931037901E+02 -0.19829943124E+03  0.24295820051E+02  0.21592972531E+03  0.00000000000E+00 0.  1.
          3    1    3    3  501    0 -0.10740447033E+03  0.21616074160E+03 -0.86193791964E+02  0.25630168987E+03  0.00000000000E+00 0.  1.
         21    1    1    2  502  501  0.25473432432E+02 -0.17861310359E+02  0.22558858251E+02  0.38429471154E+02  0.00000000000E+00 0.  1.
<scales pt_clust_4="550.00000" pt_clust_5="550.00000" pt_clust_6="31.11145"></scales>
<mgrwt>
<rscale>  0 0.30000000E+03</rscale>
<asrwt>  1 0.31111448E+02</asrwt>
<pdfrwt beam="1">  1        1 0.85694868E+00 0.30000000E+03</pdfrwt>
<pdfrwt beam="2">0</pdfrwt>
<totfact> 0.35603818E-04</totfact>
</mgrwt>
<clustering>
<clus scale="   31.111">  1  6  2 -1</clus>
<clus scale="  467.122">  4  5 -1 -1</clus>
<clus scale="  300.000">  1  4  2 -1</clus>
</clustering>
</event>
<event>
 6    1  0.1007353E-011  0.3000000E+03  0.7818608E-02  0.1093470E+00
          1   -1    0    0  502    0  0.00000000000E+00  0.00000000000E+00  0.22165680767E+03  0.22165680767E+03  0.00000000000E+00 0.  1.
         13   -1    0    0    0    0 -0.00000000000E+00 -0.00000000000E+00 -0.27500000000E+03  0.27500000000E+03  0.00000000000E+00 0.  1.
    9000005    2    1    2  501    0 -0.29413986442E+02 -0.14897497629E+02 -0.60187098014E+02  0.46298252848E+03  0.45786812170E+03 0.  0.
         13    1    3    3    0    0 -0.12174043706E+02 -0.18700908553E+03 -0.17416008515E+03  0.25583655069E+03  0.00000000000E+00 0.  1.
          3    1    3    3  501    0 -0.17239942737E+02  0.17211158790E+03  0.11397298713E+03  0.20714597778E+03  0.00000000000E+00 0.  1.
         21    1    1    2  502  501  0.29413986442E+02  0.14897497629E+02  0.68439056809E+01  0.33674279191E+02  0.00000000000E+00 0.  1.
<scales pt_clust_4="550.00000" pt_clust_5="550.00000" pt_clust_6="32.97147"></scales>
<mgrwt>
<rscale>  0 0.30000000E+03</rscale>
<asrwt>  1 0.32971473E+02</asrwt>
<pdfrwt beam="1">  1        1 0.80602476E+00 0.30000000E+03</pdfrwt>
<pdfrwt beam="2">0</pdfrwt>
<totfact> 0.94653765E-04</totfact>
</mgrwt>
<clustering>
<clus scale="   32.971">  1  6  2 -1</clus>
<clus scale="  457.868">  4  5 -1 -1</clus>
<clus scale="  300.000">  1  4  2 -1</clus>
</clustering>
</event>
<event>
 6    1  0.1007353E-011  0.3000000E+03  0.7818608E-02  0.1093470E+00
          1   -1    0    0  502    0  0.00000000000E+00  0.00000000000E+00  0.24896494012E+03  0.24896494012E+03  0.00000000000E+00 0.  1.
         13   -1    0    0    0    0 -0.00000000000E+00 -0.00000000000E+00 -0.27500000000E+03  0.27500000000E+03  0.00000000000E+00 0.  1.
    9000005    2    1    2  501    0  0.20390333080E+02 -0.44803200207E+02 -0.44369675304E+02  0.47143637118E+03  0.46675528016E+03 0.  0.
         13    1    3    3    0    0 -0.16197943941E+03 -0.17984234779E+03 -0.13346700068E+02  0.24240202815E+03  0.00000000000E+00 0.  1.
          3    1    3    3  501    0  0.18236977249E+03  0.13503914758E+03 -0.31022975236E+02  0.22903434303E+03  0.00000000000E+00 0.  1.
         21    1    1    2  502  501 -0.20390333080E+02  0.44803200207E+02  0.18334615421E+02  0.52528568936E+02  0.00000000000E+00 0. -1.
<scales pt_clust_4="550.00000" pt_clust_5="550.00000" pt_clust_6="49.22492"></scales>
<mgrwt>
<rscale>  0 0.30000000E+03</rscale>
<asrwt>  1 0.49224917E+02</asrwt>
<pdfrwt beam="1">  1        1 0.90532705E+00 0.30000000E+03</pdfrwt>
<pdfrwt beam="2">0</pdfrwt>
<totfact> 0.85677080E-05</totfact>
</mgrwt>
<clustering>
<clus scale="   49.225">  1  6  2 -1</clus>
<clus scale="  466.755">  4  5 -1 -1</clus>
<clus scale="  300.000">  1  4  2 -1</clus>
</clustering>
</event>
<event>
 6    1  0.1007353E-011  0.3000000E+03  0.7818608E-02  0.1093470E+00
          1   -1    0    0  502    0  0.00000000000E+00  0.00000000000E+00  0.23623382886E+03  0.23623382886E+03  0.00000000000E+00 0.  1.
         13   -1    0    0    0    0 -0.00000000000E+00 -0.00000000000E+00 -0.27500000000E+03  0.27500000000E+03  0.00000000000E+00 0.  1.
    9000005    2    1    2  501    0  0.97453924374E+01 -0.37119820110E+02 -0.59350592947E+02  0.46768417742E+03  0.46231281965E+03 0.  0.
         13    1    3    3    0    0 -0.21503655742E+03 -0.89549973007E+02 -0.35753260958E+02  0.23566547130E+03  0.00000000000E+00 0.  1.
          1    1    3    3  501    0  0.22478194986E+03  0.52430152897E+02 -0.23597331989E+02  0.23201870613E+03  0.00000000000E+00 0.  1.
         21    1    1    2  502  501 -0.97453924374E+01  0.37119820110E+02  0.20584421802E+02  0.43549651430E+02  0.00000000000E+00 0.  1.
<scales pt_clust_4="550.00000" pt_clust_5="550.00000" pt_clust_6="38.37778"></scales>
<mgrwt>
<rscale>  0 0.30000000E+03</rscale>
<asrwt>  1 0.38377776E+02</asrwt>
<pdfrwt beam="1">  1        1 0.85903210E+00 0.30000000E+03</pdfrwt>
<pdfrwt beam="2">0</pdfrwt>
<totfact> 0.32559822E-04</totfact>
</mgrwt>
<clustering>
<clus scale="   38.378">  1  6  2 -1</clus>
<clus scale="  462.313">  4  5 -1 -1</clus>
<clus scale="  300.000">  1  4  2 -1</clus>
</clustering>
</event>
<event>
 6    1  0.1007353E-011  0.3000000E+03  0.7818608E-02  0.1093470E+00
          1   -1    0    0  502    0  0.00000000000E+00  0.00000000000E+00  0.24796841135E+03  0.24796841135E+03  0.00000000000E+00 0.  1.
         13   -1    0    0    0    0 -0.00000000000E+00 -0.00000000000E+00 -0.27500000000E+03  0.27500000000E+03  0.00000000000E+00 0.  1.
    9000005    2    1    2  501    0 -0.37013228491E+02  0.16000379414E+02 -0.31961870533E+02  0.48234454024E+03  0.47959222586E+03 0.  0.
         13    1    3    3    0    0 -0.46792684395E+02 -0.19139177137E+03  0.11485052833E+03  0.22805922327E+03  0.00000000000E+00 0.  1.
          1    1    3    3  501    0  0.97794559033E+01  0.20739215079E+03 -0.14681239886E+03  0.25428531697E+03  0.00000000000E+00 0.  1.
         21    1    1    2  502  501  0.37013228491E+02 -0.16000379414E+02  0.49302818872E+01  0.40623871113E+02  0.00000000000E+00 0.  1.
<scales pt_clust_4="550.00000" pt_clust_5="550.00000" pt_clust_6="40.32358"></scales>
<mgrwt>
<rscale>  0 0.30000000E+03</rscale>
<asrwt>  1 0.40323581E+02</asrwt>
<pdfrwt beam="1">  1        1 0.90170331E+00 0.30000000E+03</pdfrwt>
<pdfrwt beam="2">0</pdfrwt>
<totfact> 0.10211693E-04</totfact>
</mgrwt>
<clustering>
<clus scale="   40.324">  1  6  2 -1</clus>
<clus scale="  479.592">  4  5 -1 -1</clus>
<clus scale="  300.000">  1  4  2 -1</clus>
</clustering>
</event>
<event>
 6    1  0.1007353E-011  0.3000000E+03  0.7818608E-02  0.1093470E+00
          1   -1    0    0  502    0  0.00000000000E+00  0.00000000000E+00  0.25654765705E+03  0.25654765705E+03  0.00000000000E+00 0.  1.
         13   -1    0    0    0    0 -0.00000000000E+00 -0.00000000000E+00 -0.27500000000E+03  0.27500000000E+03  0.00000000000E+00 0.  1.
    9000005    2    1    2  501    0 -0.38145699117E+02  0.14991827305E+02 -0.20688247514E+02  0.49050075076E+03  0.48834734940E+03 0.  0.
         13    1    3    3    0    0  0.21664671902E+02 -0.66032937182E+02 -0.23963183413E+03  0.24950575691E+03  0.00000000000E+00 0.  1.
          1    1    3    3  501    0 -0.59810371019E+02  0.81024764488E+02  0.21894358662E+03  0.24099499385E+03  0.00000000000E+00 0.  1.
         21    1    1    2  502  501  0.38145699117E+02 -0.14991827305E+02  0.22359045673E+01  0.41046906294E+02  0.00000000000E+00 0. -1.
<scales pt_clust_4="550.00000" pt_clust_5="550.00000" pt_clust_6="40.98596"></scales>
<mgrwt>
<rscale>  0 0.30000000E+03</rscale>
<asrwt>  1 0.40985964E+02</asrwt>
<pdfrwt beam="1">  1        1 0.93290057E+00 0.30000000E+03</pdfrwt>
<pdfrwt beam="2">0</pdfrwt>
<totfact> 0.23226739E-05</totfact>
</mgrwt>
<clustering>
<clus scale="   40.986">  1  6  2 -1</clus>
<clus scale="  488.347">  4  5 -1 -1</clus>
<clus scale="  300.000">  1  4  2 -1</clus>
</clustering>
</event>
<event>
 6    1  0.1007353E-011  0.3000000E+03  0.7818608E-02  0.1093470E+00
          1   -1    0    0  502    0  0.00000000000E+00  0.00000000000E+00  0.26135576746E+03  0.26135576746E+03  0.00000000000E+00 0.  1.
         13   -1    0    0    0    0 -0.00000000000E+00 -0.00000000000E+00 -0.27500000000E+03  0.27500000000E+03  0.00000000000E+00 0.  1.
    9000005    2    1    2  501    0 -0.19036748905E+02  0.25676698238E+02 -0.31387037829E+02  0.49979762499E+03  0.49778592704E+03 0.  0.
         13    1    3    3    0    0 -0.16916627268E+03  0.95590597337E+02  0.15638944515E+03  0.24942423432E+03  0.00000000000E+00 0.  1.
          1    1    3    3  501    0  0.15012952378E+03 -0.69913899100E+02 -0.18777648298E+03  0.25037339067E+03  0.00000000000E+00 0.  1.
         21    1    1    2  502  501  0.19036748905E+02 -0.25676698238E+02  0.17742805291E+02  0.36558142470E+02  0.00000000000E+00 0.  1.
<scales pt_clust_4="550.00000" pt_clust_5="550.00000" pt_clust_6="31.96390"></scales>
<mgrwt>
<rscale>  0 0.30000000E+03</rscale>
<asrwt>  1 0.31963896E+02</asrwt>
<pdfrwt beam="1">  1        1 0.95038461E+00 0.30000000E+03</pdfrwt>
<pdfrwt beam="2">0</pdfrwt>
<totfact> 0.12322187E-05</totfact>
</mgrwt>
<clustering>
<clus scale="   31.964">  1  6  2 -1</clus>
<clus scale="  497.786">  4  5 -1 -1</clus>
<clus scale="  300.000">  1  4  2 -1</clus>
</clustering>
</event>
<event>
 6    1  0.1007353E-011  0.3000000E+03  0.7818608E-02  0.1093470E+00
          1   -1    0    0  502    0  0.00000000000E+00  0.00000000000E+00  0.24737501080E+03  0.24737501080E+03  0.00000000000E+00 0.  1.
         13   -1    0    0    0    0 -0.00000000000E+00 -0.00000000000E+00 -0.27500000000E+03  0.27500000000E+03  0.00000000000E+00 0.  1.
    9000005    2    1    2  501    0 -0.67507296252E+00  0.37449337459E+02 -0.38537876995E+02  0.48336219599E+03  0.48036541918E+03 0.  0.
         13    1    3    3    0    0 -0.19163397854E+02  0.11068031781E+03 -0.24174798688E+03  0.26656979898E+03  0.00000000000E+00 0.  1.
          3    1    3    3  501    0  0.18488324892E+02 -0.73230980351E+02  0.20321010989E+03  0.21679239701E+03  0.00000000000E+00 0.  1.
         21    1    1    2  502  501  0.67507296252E+00 -0.37449337459E+02  0.10912887798E+02  0.39012814814E+02  0.00000000000E+00 0. -1.
<scales pt_clust_4="550.00000" pt_clust_5="550.00000" pt_clust_6="37.45542"></scales>
<mgrwt>
<rscale>  0 0.30000000E+03</rscale>
<asrwt>  1 0.37455421E+02</asrwt>
<pdfrwt beam="1">  1        1 0.89954549E+00 0.30000000E+03</pdfrwt>
<pdfrwt beam="2">0</pdfrwt>
<totfact> 0.11048243E-04</totfact>
</mgrwt>
<clustering>
<clus scale="   37.455">  1  6  2 -1</clus>
<clus scale="  480.365">  4  5 -1 -1</clus>
<clus scale="  300.000">  1  4  2 -1</clus>
</clustering>
</event>
<event>
 6    1  0.1007353E-011  0.3000000E+03  0.7818608E-02  0.1093470E+00
          1   -1    0    0  502    0  0.00000000000E+00  0.00000000000E+00  0.22578336273E+03  0.22578336273E+03  0.00000000000E+00 0.  1.
         13   -1    0    0    0    0 -0.00000000000E+00 -0.00000000000E+00 -0.27500000000E+03  0.27500000000E+03  0.00000000000E+00 0.  1.
    9000005    2    1    2  501    0  0.26918589196E+01  0.36107164158E+02 -0.54917573172E+02  0.46412993072E+03  0.45944496878E+03 0.  0.
         13    1    3    3    0    0 -0.13179890967E+03  0.19053925575E+03  0.45409309567E+02  0.23608931778E+03  0.00000000000E+00 0.  1.
          3    1    3    3  501    0  0.13449076859E+03 -0.15443209159E+03 -0.10032688274E+03  0.22804061294E+03  0.00000000000E+00 0.  1.
         21    1    1    2  502  501 -0.26918589196E+01 -0.36107164158E+02  0.57009358998E+01  0.36653432010E+02  0.00000000000E+00 0.  1.
<scales pt_clust_4="550.00000" pt_clust_5="550.00000" pt_clust_6="36.20737"></scales>
<mgrwt>
<rscale>  0 0.30000000E+03</rscale>
<asrwt>  1 0.36207367E+02</asrwt>
<pdfrwt beam="1">  1        1 0.82103041E+00 0.30000000E+03</pdfrwt>
<pdfrwt beam="2">0</pdfrwt>
<totfact> 0.70401555E-04</totfact>
</mgrwt>
<clustering>
<clus scale="   36.207">  1  6  2 -1</clus>
<clus scale="  459.445">  4  5 -1 -1</clus>
<clus scale="  300.000">  1  4  2 -1</clus>
</clustering>
</event>
<event>
 6    1  0.1007353E-011  0.3000000E+03  0.7818608E-02  0.1093470E+00
          1   -1    0    0  502    0  0.00000000000E+00  0.00000000000E+00  0.21998907737E+03  0.21998907737E+03  0.00000000000E+00 0.  1.
         13   -1    0    0    0    0 -0.00000000000E+00 -0.00000000000E+00 -0.27500000000E+03  0.27500000000E+03  0.00000000000E+00 0.  1.
    9000005    2    1    2  501    0  0.30959844921E+02 -0.51626725930E+01 -0.53509110844E+02  0.46356582763E+03  0.45939621942E+03 0.  0.
         13    1    3    3    0    0 -0.25507584184E+02  0.16497338426E+03 -0.17898743248E+03  0.24475161970E+03  0.00000000000E+00 0.  1.
          3    1    3    3  501    0  0.56467429106E+02 -0.17013605685E+03  0.12547832163E+03  0.21881420792E+03  0.00000000000E+00 0.  1.
         21    1    1    2  502  501 -0.30959844921E+02  0.51626725930E+01 -0.15018117833E+01  0.31423249744E+02  0.00000000000E+00 0.  1.
<scales pt_clust_4="550.00000" pt_clust_5="550.00000" pt_clust_6="31.38734"></scales>
<mgrwt>
<rscale>  0 0.30000000E+03</rscale>
<asrwt>  1 0.31387341E+02</asrwt>
<pdfrwt beam="1">  1        1 0.79996028E+00 0.30000000E+03</pdfrwt>
<pdfrwt beam="2">0</pdfrwt>
<totfact> 0.10592927E-03</totfact>
</mgrwt>
<clustering>
<clus scale="   31.387">  1  6  2 -1</clus>
<clus scale="  459.396">  4  5 -1 -1</clus>
<clus scale="  300.000">  1  4  2 -1</clus>
</clustering>
</event>
<event>
 6    1  0.1007353E-011  0.3000000E+03  0.7818608E-02  0.1093470E+00
          1   -1    0    0  502    0  0.00000000000E+00  0.00000000000E+00  0.23884471952E+03  0.23884471952E+03  0.00000000000E+00 0.  1.
         13   -1    0    0    0    0 -0.00000000000E+00 -0.00000000000E+00 -0.27500000000E+03  0.27500000000E+03  0.00000000000E+00 0.  1.
    9000005    2    1    2  501    0  0.14254688250E+02 -0.30568078877E+02 -0.61599967266E+02  0.47159503705E+03  0.46633648733E+03 0.  0.
         13    1    3    3    0    0 -0.16593898722E+03 -0.15960482224E+03  0.29206556800E+02  0.23208289408E+03  0.00000000000E+00 0.  1.
          1    1    3    3  501    0  0.18019367547E+03  0.12903674337E+03 -0.90806524066E+02  0.23951214297E+03  0.00000000000E+00 0.  1.
         21    1    1    2  502  501 -0.14254688250E+02  0.30568078877E+02  0.25444686782E+02  0.42249682469E+02  0.00000000000E+00 0.  1.
<scales pt_clust_4="550.00000" pt_clust_5="550.00000" pt_clust_6="33.72838"></scales>
<mgrwt>
<rscale>  0 0.30000000E+03</rscale>
<asrwt>  1 0.33728379E+02</asrwt>
<pdfrwt beam="1">  1        1 0.86852625E+00 0.30000000E+03</pdfrwt>
<pdfrwt beam="2">0</pdfrwt>
<totfact> 0.26406331E-04</totfact>
</mgrwt>
<clustering>
<clus scale="   33.728">  1  6  2 -1</clus>
<clus scale="  466.336">  4  5 -1 -1</clus>
<clus scale="  300.000">  1  4  2 -1</clus>
</clustering>
</event>
<event>
 6    1  0.1007353E-011  0.3000000E+03  0.7818608E-02  0.1093470E+00
          1   -1    0    0  502    0  0.00000000000E+00  0.00000000000E+00  0.23804493943E+03  0.23804493943E+03  0.00000000000E+00 0.  1.
         13   -1    0    0    0    0 -0.00000000000E+00 -0.00000000000E+00 -0.27500000000E+03  0.27500000000E+03  0.00000000000E+00 0.  1.
    9000005    2    1    2  501    0 -0.37732657895E+02  0.25360201743E+02 -0.59528777977E+02  0.46228603852E+03  0.45617739170E+03 0.  0.
         13    1    3    3    0    0 -0.11285477179E+03 -0.73299966710E+00  0.17857771056E+03  0.21125040950E+03  0.00000000000E+00 0.  1.
          3    1    3    3  501    0  0.75122113890E+02  0.26093201410E+02 -0.23810648854E+03  0.25103562902E+03  0.00000000000E+00 0.  1.
         21    1    1    2  502  501  0.37732657895E+02 -0.25360201743E+02  0.22573717406E+02  0.50758900912E+02  0.00000000000E+00 0. -1.
<scales pt_clust_4="550.00000" pt_clust_5="550.00000" pt_clust_6="45.46310"></scales>
<mgrwt>
<rscale>  0 0.30000000E+03</rscale>
<asrwt>  1 0.45463098E+02</asrwt>
<pdfrwt beam="1">  1        1 0.86561796E+00 0.30000000E+03</pdfrwt>
<pdfrwt beam="2">0</pdfrwt>
<totfact> 0.26824674E-04</totfact>
</mgrwt>
<clustering>
<clus scale="   45.463">  1  6  2 -1</clus>
<clus scale="  456.177">  4  5 -1 -1</clus>
<clus scale="  300.000">  1  4  2 -1</clus>
</clustering>
</event>
<event>
 6    1  0.1007353E-011  0.3000000E+03  0.7818608E-02  0.1093470E+00
          1   -1    0    0  502    0  0.00000000000E+00  0.00000000000E+00  0.25732078762E+03  0.25732078762E+03  0.00000000000E+00 0.  1.
         13   -1    0    0    0    0 -0.00000000000E+00 -0.00000000000E+00 -0.27500000000E+03  0.27500000000E+03  0.00000000000E+00 0.  1.
    9000005    2    1    2  501    0 -0.77878736925E+01  0.29144209766E+02 -0.54604319609E+02  0.48463955983E+03  0.48060777698E+03 0.  0.
         13    1    3    3    0    0  0.16230898795E+03  0.16936669093E+03 -0.10734147128E+03  0.25797572564E+03  0.00000000000E+00 0.  1.
          3    1    3    3  501    0 -0.17009686164E+03 -0.14022248116E+03  0.52737151667E+02  0.22666383419E+03  0.00000000000E+00 0.  1.
         21    1    1    2  502  501  0.77878736925E+01 -0.29144209766E+02  0.36925107231E+02  0.47681227791E+02  0.00000000000E+00 0. -1.
<scales pt_clust_4="550.00000" pt_clust_5="550.00000" pt_clust_6="30.16680"></scales>
<mgrwt>
<rscale>  0 0.30000000E+03</rscale>
<asrwt>  1 0.30166802E+02</asrwt>
<pdfrwt beam="1">  1        1 0.93571195E+00 0.30000000E+03</pdfrwt>
<pdfrwt beam="2">0</pdfrwt>
<totfact> 0.22710076E-05</totfact>
</mgrwt>
<clustering>
<clus scale="   30.167">  1  6  2 -1</clus>
<clus scale="  480.608">  4  5 -1 -1</clus>
<clus scale="  300.000">  1  4  2 -1</clus>
</clustering>
</event>
<event>
 6    1  0.1007353E-011  0.3000000E+03  0.7818608E-02  0.1093470E+00
          1   -1    0    0  502    0  0.00000000000E+00  0.00000000000E+00  0.24216396939E+03  0.24216396939E+03  0.00000000000E+00 0.  1.
         13   -1    0    0    0    0 -0.00000000000E+00 -0.00000000000E+00 -0.27500000000E+03  0.27500000000E+03  0.00000000000E+00 0.  1.
    9000005    2    1    2  501    0  0.14624955679E+02 -0.28093393134E+02 -0.53010967545E+02  0.47961192355E+03  0.47561991807E+03 0.  0.
         13    1    3    3    0    0  0.17372133793E+02 -0.20507023105E+03 -0.17042677852E+03  0.26720942636E+03  0.00000000000E+00 0.  1.
          3    1    3    3  501    0 -0.27471781140E+01  0.17697683792E+03  0.11741581098E+03  0.21240249719E+03  0.00000000000E+00 0.  1.
         21    1    1    2  502  501 -0.14624955679E+02  0.28093393134E+02  0.20174936933E+02  0.37552045838E+02  0.00000000000E+00 0.  1.
<scales pt_clust_4="550.00000" pt_clust_5="550.00000" pt_clust_6="31.67220"></scales>
<mgrwt>
<rscale>  0 0.30000000E+03</rscale>
<asrwt>  1 0.31672197E+02</asrwt>
<pdfrwt beam="1">  1        1 0.88059625E+00 0.30000000E+03</pdfrwt>
<pdfrwt beam="2">0</pdfrwt>
<totfact> 0.19772971E-04</totfact>
</mgrwt>
<clustering>
<clus scale="   31.672">  1  6  2 -1</clus>
<clus scale="  475.620">  4  5 -1 -1</clus>
<clus scale="  300.000">  1  4  2 -1</clus>
</clustering>
</event>
<event>
 6    1  0.1007353E-011  0.3000000E+03  0.7818608E-02  0.1093470E+00
          1   -1    0    0  502    0  0.00000000000E+00  0.00000000000E+00  0.24432649204E+03  0.24432649204E+03  0.00000000000E+00 0.  1.
         13   -1    0    0    0    0 -0.00000000000E+00 -0.00000000000E+00 -0.27500000000E+03  0.27500000000E+03  0.00000000000E+00 0.  1.
    9000005    2    1    2  501    0 -0.12539949092E+02 -0.46730310708E+02 -0.55447738857E+02  0.46496901989E+03  0.45910866410E+03 0.  0.
         13    1    3    3    0    0 -0.18414939491E+03 -0.13526497846E+03 -0.12411302344E+03  0.26002241563E+03  0.00000000000E+00 0.  1.
          3    1    3    3  501    0  0.17160944582E+03  0.88534667755E+02  0.68665284578E+02  0.20494660425E+03  0.00000000000E+00 0.  1.
         21    1    1    2  502  501  0.12539949092E+02  0.46730310708E+02  0.24774230896E+02  0.54357472150E+02  0.00000000000E+00 0.  1.
<scales pt_clust_4="550.00000" pt_clust_5="550.00000" pt_clust_6="48.38359"></scales>
<mgrwt>
<rscale>  0 0.30000000E+03</rscale>
<asrwt>  1 0.48383595E+02</asrwt>
<pdfrwt beam="1">  1        1 0.88845997E+00 0.30000000E+03</pdfrwt>
<pdfrwt beam="2">0</pdfrwt>
<totfact> 0.14338597E-04</totfact>
</mgrwt>
<clustering>
<clus scale="   48.384">  1  6  2 -1</clus>
<clus scale="  459.109">  4  5 -1 -1</clus>
<clus scale="  300.000">  1  4  2 -1</clus>
</clustering>
</event>
<event>
 6    1  0.1007353E-011  0.3000000E+03  0.7818608E-02  0.1093470E+00
          1   -1    0    0  502    0  0.00000000000E+00  0.00000000000E+00  0.24840289953E+03  0.24840289953E+03  0.00000000000E+00 0.  1.
         13   -1    0    0    0    0 -0.00000000000E+00 -0.00000000000E+00 -0.27500000000E+03  0.27500000000E+03  0.00000000000E+00 0.  1.
    9000005    2    1    2  501    0  0.89837456336E+01 -0.32023527211E+02 -0.75600600112E+02  0.46417826819E+03  0.45677105856E+03 0.  0.
         13    1    3    3    0    0  0.10226391329E+02 -0.11532023872E+03  0.16952403364E+03  0.20528452089E+03  0.00000000000E+00 0.  1.
          3    1    3    3  501    0 -0.12426456954E+01  0.83296711505E+02 -0.24512463375E+03  0.25889374729E+03  0.00000000000E+00 0.  1.
         21    1    1    2  502  501 -0.89837456336E+01  0.32023527211E+02  0.49003499647E+02  0.59224631348E+02  0.00000000000E+00 0.  1.
<scales pt_clust_4="550.00000" pt_clust_5="550.00000" pt_clust_6="33.25980"></scales>
<mgrwt>
<rscale>  0 0.30000000E+03</rscale>
<asrwt>  1 0.33259795E+02</asrwt>
<pdfrwt beam="1">  1        1 0.90328327E+00 0.30000000E+03</pdfrwt>
<pdfrwt beam="2">0</pdfrwt>
<totfact> 0.10011393E-04</totfact>
</mgrwt>
<clustering>
<clus scale="   33.260">  1  6  2 -1</clus>
<clus scale="  456.771">  4  5 -1 -1</clus>
<clus scale="  300.000">  1  4  2 -1</clus>
</clustering>
</event>
<event>
 6    1  0.1007353E-011  0.3000000E+03  0.7818608E-02  0.1093470E+00
          1   -1    0    0  502    0  0.00000000000E+00  0.00000000000E+00  0.24284195263E+03  0.24284195263E+03  0.00000000000E+00 0.  1.
         13   -1    0    0    0    0 -0.00000000000E+00 -0.00000000000E+00 -0.27500000000E+03  0.27500000000E+03  0.00000000000E+00 0.  1.
    9000005    2    1    2  501    0  0.28458775331E+02  0.41597828451E+02 -0.52894403110E+02  0.46334169873E+03  0.45754500399E+03 0.  0.
         13    1    3    3    0    0  0.64945878352E+00 -0.27887220583E+02 -0.25049433114E+03  0.25204271226E+03  0.00000000000E+00 0.  1.
          3    1    3    3  501    0  0.27809316547E+02  0.69485049034E+02  0.19759992803E+03  0.21129898647E+03  0.00000000000E+00 0.  1.
         21    1    1    2  502  501 -0.28458775331E+02 -0.41597828451E+02  0.20736355738E+02  0.54500253894E+02  0.00000000000E+00 0. -1.
<scales pt_clust_4="550.00000" pt_clust_5="550.00000" pt_clust_6="50.40120"></scales>
<mgrwt>
<rscale>  0 0.30000000E+03</rscale>
<asrwt>  1 0.50401203E+02</asrwt>
<pdfrwt beam="1">  1        1 0.88306165E+00 0.30000000E+03</pdfrwt>
<pdfrwt beam="2">0</pdfrwt>
<totfact> 0.16876139E-04</totfact>
</mgrwt>
<clustering>
<clus scale="   50.401">  1  6  2 -1</clus>
<clus scale="  457.545">  4  5 -1 -1</clus>
<clus scale="  300.000">  1  4  2 -1</clus>
</clustering>
</event>
<event>
 6    1  0.1007353E-011  0.3000000E+03  0.7818608E-02  0.1093470E+00
          1   -1    0    0  502    0  0.00000000000E+00  0.00000000000E+00  0.24618206295E+03  0.24618206295E+03  0.00000000000E+00 0.  1.
         13   -1    0    0    0    0 -0.00000000000E+00 -0.00000000000E+00 -0.27500000000E+03  0.27500000000E+03  0.00000000000E+00 0.  1.
    9000005    2    1    2  501    0 -0.23559122232E+01 -0.57103846676E+02 -0.26568244448E+02  0.46398537821E+03  0.45968484852E+03 0.  0.
         13    1    3    3    0    0  0.17265246073E+01 -0.13788596419E+03  0.18887584214E+03  0.23385808464E+03  0.00000000000E+00 0.  1.
          1    1    3    3  501    0 -0.40824368306E+01  0.80782117509E+02 -0.21544408659E+03  0.23012729357E+03  0.00000000000E+00 0.  1.
         21    1    1    2  502  501  0.23559122232E+01  0.57103846676E+02 -0.22496926058E+01  0.57196684733E+02  0.00000000000E+00 0.  1.
<scales pt_clust_4="550.00000" pt_clust_5="550.00000" pt_clust_6="57.15242"></scales>
<mgrwt>
<rscale>  0 0.30000000E+03</rscale>
<asrwt>  1 0.57152425E+02</asrwt>
<pdfrwt beam="1">  1        1 0.89520750E+00 0.30000000E+03</pdfrwt>
<pdfrwt beam="2">0</pdfrwt>
<totfact> 0.11488190E-04</totfact>
</mgrwt>
<clustering>
<clus scale="   57.152">  1  6  2 -1</clus>
<clus scale="  459.685">  4  5 -1 -1</clus>
<clus scale="  300.000">  1  4  2 -1</clus>
</clustering>
</event>
<event>
 6    1  0.1007353E-011  0.3000000E+03  0.7818608E-02  0.1093470E+00
          1   -1    0    0  502    0  0.00000000000E+00  0.00000000000E+00  0.22228181992E+03  0.22228181992E+03  0.00000000000E+00 0.  1.
         13   -1    0    0    0    0 -0.00000000000E+00 -0.00000000000E+00 -0.27500000000E+03  0.27500000000E+03  0.00000000000E+00 0.  1.
    9000005    2    1    2  501    0 -0.30692589671E+02 -0.13431337232E+02 -0.55289374395E+02  0.46368052648E+03  0.45915169589E+03 0.  0.
         13    1    3    3    0    0 -0.37803783688E+02 -0.15408314433E+03  0.14760606897E+03  0.21669862257E+03  0.00000000000E+00 0.  1.
          1    1    3    3  501    0  0.71111940165E+01  0.14065180709E+03 -0.20289544337E+03  0.24698190391E+03  0.00000000000E+00 0.  1.
         21    1    1    2  502  501  0.30692589671E+02  0.13431337232E+02  0.25711943160E+01  0.33601293439E+02  0.00000000000E+00 0.  1.
<scales pt_clust_4="550.00000" pt_clust_5="550.00000" pt_clust_6="33.50277"></scales>
<mgrwt>
<rscale>  0 0.30000000E+03</rscale>
<asrwt>  1 0.33502774E+02</asrwt>
<pdfrwt beam="1">  1        1 0.80829753E+00 0.30000000E+03</pdfrwt>
<pdfrwt beam="2">0</pdfrwt>
<totfact> 0.90649676E-04</totfact>
</mgrwt>
<clustering>
<clus scale="   33.503">  1  6  2 -1</clus>
<clus scale="  459.152">  4  5 -1 -1</clus>
<clus scale="  300.000">  1  4  2 -1</clus>
</clustering>
</event>
<event>
 6    1  0.1007353E-011  0.3000000E+03  0.7818608E-02  0.1093470E+00
          1   -1    0    0  502    0  0.00000000000E+00  0.00000000000E+00  0.24653427657E+03  0.24653427657E+03  0.00000000000E+00 0.  1.
         13   -1    0    0    0    0 -0.00000000000E+00 -0.00000000000E+00 -0.27500000000E+03  0.27500000000E+03  0.00000000000E+00 0.  1.
    9000005    2    1    2  501    0 -0.47352752583E+02 -0.46345937352E+01 -0.30821783707E+02  0.47389696288E+03  0.47049398130E+03 0.  0.
         13    1    3    3    0    0  0.13475047548E+03 -0.17658497727E+03 -0.59116107657E+01  0.22220461737E+03  0.00000000000E+00 0.  1.
          1    1    3    3  501    0 -0.18210322806E+03  0.17195038354E+03 -0.24910172941E+02  0.25169234550E+03  0.00000000000E+00 0.  1.
         21    1    1    2  502  501  0.47352752583E+02  0.46345937352E+01  0.23560602814E+01  0.47637313698E+02  0.00000000000E+00 0.  1.
<scales pt_clust_4="550.00000" pt_clust_5="550.00000" pt_clust_6="47.57901"></scales>
<mgrwt>
<rscale>  0 0.30000000E+03</rscale>
<asrwt>  1 0.47579015E+02</asrwt>
<pdfrwt beam="1">  1        1 0.89648828E+00 0.30000000E+03</pdfrwt>
<pdfrwt beam="2">0</pdfrwt>
<totfact> 0.11476939E-04</totfact>
</mgrwt>
<clustering>
<clus scale="   47.579">  1  6  2 -1</clus>
<clus scale="  470.494">  4  5 -1 -1</clus>
<clus scale="  300.000">  1  4  2 -1</clus>
</clustering>
</event>
<event>
 6    1  0.1007353E-011  0.3000000E+03  0.7818608E-02  0.1093470E+00
          1   -1    0    0  502    0  0.00000000000E+00  0.00000000000E+00  0.25430021712E+03  0.25430021712E+03  0.00000000000E+00 0.  1.
         13   -1    0    0    0    0 -0.00000000000E+00 -0.00000000000E+00 -0.27500000000E+03  0.27500000000E+03  0.00000000000E+00 0.  1.
    9000005    2    1    2  501    0 -0.49464655135E+02 -0.38641943651E+01 -0.59549466500E+02  0.46628448874E+03  0.45979713067E+03 0.  0.
         13    1    3    3    0    0  0.17483582060E+03 -0.98384159347E+02 -0.92041437447E+02  0.22072297838E+03  0.00000000000E+00 0.  1.
          1    1    3    3  501    0 -0.22430047574E+03  0.94519964982E+02  0.32491970947E+02  0.24556151036E+03  0.00000000000E+00 0.  1.
         21    1    1    2  502  501  0.49464655135E+02  0.38641943651E+01  0.38849683615E+02  0.63015728376E+02  0.00000000000E+00 0.  1.
<scales pt_clust_4="550.00000" pt_clust_5="550.00000" pt_clust_6="49.61536"></scales>
<mgrwt>
<rscale>  0 0.30000000E+03</rscale>
<asrwt>  1 0.49615362E+02</asrwt>
<pdfrwt beam="1">  1        1 0.92472806E+00 0.30000000E+03</pdfrwt>
<pdfrwt beam="2">0</pdfrwt>
<totfact> 0.31185443E-05</totfact>
</mgrwt>
<clustering>
<clus scale="   49.615">  1  6  2 -1</clus>
<clus scale="  459.797">  4  5 -1 -1</clus>
<clus scale="  300.000">  1  4  2 -1</clus>
</clustering>
</event>
<event>
 6    1  0.1007353E-011  0.3000000E+03  0.7818608E-02  0.1093470E+00
          1   -1    0    0  502    0  0.00000000000E+00  0.00000000000E+00  0.22723802646E+03  0.22723802646E+03  0.00000000000E+00 0.  1.
         13   -1    0    0    0    0 -0.00000000000E+00 -0.00000000000E+00 -0.27500000000E+03  0.27500000000E+03  0.00000000000E+00 0.  1.
    9000005    2    1    2  501    0 -0.16275235711E+02  0.25945022691E+02 -0.40671698353E+02  0.47080079532E+03  0.46803971447E+03 0.  0.
         13    1    3    3    0    0 -0.45035975876E+02 -0.20465526898E+03 -0.98168386008E+02  0.23140667721E+03  0.00000000000E+00 0.  1.
          3    1    3    3  501    0  0.28760740164E+02  0.23060029167E+03  0.57496687654E+02  0.23939411811E+03  0.00000000000E+00 0.  1.
         21    1    1    2  502  501  0.16275235711E+02 -0.25945022691E+02 -0.70902751830E+01  0.31437231145E+02  0.00000000000E+00 0.  1.
<scales pt_clust_4="550.00000" pt_clust_5="550.00000" pt_clust_6="30.62725"></scales>
<mgrwt>
<rscale>  0 0.30000000E+03</rscale>
<asrwt>  1 0.30627250E+02</asrwt>
<pdfrwt beam="1">  1        1 0.82632010E+00 0.30000000E+03</pdfrwt>
<pdfrwt beam="2">0</pdfrwt>
<totfact> 0.65202052E-04</totfact>
</mgrwt>
<clustering>
<clus scale="   30.627">  1  6  2 -1</clus>
<clus scale="  468.040">  4  5 -1 -1</clus>
<clus scale="  300.000">  1  4  2 -1</clus>
</clustering>
</event>
<event>
 6    1  0.1007353E-011  0.3000000E+03  0.7818608E-02  0.1093470E+00
          1   -1    0    0  502    0  0.00000000000E+00  0.00000000000E+00  0.22493240491E+03  0.22493240491E+03  0.00000000000E+00 0.  1.
         13   -1    0    0    0    0 -0.00000000000E+00 -0.00000000000E+00 -0.27500000000E+03  0.27500000000E+03  0.00000000000E+00 0.  1.
    9000005    2    1    2  501    0  0.31341178875E+02  0.73353455841E+01 -0.64052807659E+02  0.46483734887E+03  0.45927652013E+03 0.  0.
         13    1    3    3    0    0  0.17945317560E+03  0.76431408362E+02 -0.17923061032E+03  0.26489396765E+03  0.00000000000E+00 0.  1.
          3    1    3    3  501    0 -0.14811199673E+03 -0.69096062778E+02  0.11517780267E+03  0.19994338122E+03  0.00000000000E+00 0.  1.
         21    1    1    2  502  501 -0.31341178875E+02 -0.73353455841E+01  0.13985212571E+02  0.35095056044E+02  0.00000000000E+00 0.  1.
<scales pt_clust_4="550.00000" pt_clust_5="550.00000" pt_clust_6="32.18815"></scales>
<mgrwt>
<rscale>  0 0.30000000E+03</rscale>
<asrwt>  1 0.32188147E+02</asrwt>
<pdfrwt beam="1">  1        1 0.81793602E+00 0.30000000E+03</pdfrwt>
<pdfrwt beam="2">0</pdfrwt>
<totfact> 0.76512675E-04</totfact>
</mgrwt>
<clustering>
<clus scale="   32.188">  1  6  2 -1</clus>
<clus scale="  459.277">  4  5 -1 -1</clus>
<clus scale="  300.000">  1  4  2 -1</clus>
</clustering>
</event>
<event>
 6    1  0.1007353E-011  0.3000000E+03  0.7818608E-02  0.1093470E+00
          1   -1    0    0  502    0  0.00000000000E+00  0.00000000000E+00  0.23872459413E+03  0.23872459413E+03  0.00000000000E+00 0.  1.
         13   -1    0    0    0    0 -0.00000000000E+00 -0.00000000000E+00 -0.27500000000E+03  0.27500000000E+03  0.00000000000E+00 0.  1.
    9000005    2    1    2  501    0 -0.31425955455E+02 -0.15911799958E+02 -0.55235243898E+02  0.47372145035E+03  0.46916980327E+03 0.  0.
         13    1    3    3    0    0 -0.48826187424E+02  0.61546637921E+02  0.19551248789E+03  0.21070623659E+03  0.00000000000E+00 0.  1.
          1    1    3    3  501    0  0.17400231970E+02 -0.77458437880E+02 -0.25074773179E+03  0.26301521376E+03  0.00000000000E+00 0.  1.
         21    1    1    2  502  501  0.31425955455E+02  0.15911799958E+02  0.18959838025E+02  0.40003143777E+02  0.00000000000E+00 0. -1.
<scales pt_clust_4="550.00000" pt_clust_5="550.00000" pt_clust_6="35.22465"></scales>
<mgrwt>
<rscale>  0 0.30000000E+03</rscale>
<asrwt>  1 0.35224651E+02</asrwt>
<pdfrwt beam="1">  1        1 0.86808943E+00 0.30000000E+03</pdfrwt>
<pdfrwt beam="2">0</pdfrwt>
<totfact> 0.26466471E-04</totfact>
</mgrwt>
<clustering>
<clus scale="   35.225">  1  6  2 -1</clus>
<clus scale="  469.170">  4  5 -1 -1</clus>
<clus scale="  300.000">  1  4  2 -1</clus>
</clustering>
</event>
<event>
 6    1  0.1007353E-011  0.3000000E+03  0.7818608E-02  0.1093470E+00
          1   -1    0    0  502    0  0.00000000000E+00  0.00000000000E+00  0.23160392794E+03  0.23160392794E+03  0.00000000000E+00 0.  1.
         13   -1    0    0    0    0 -0.00000000000E+00 -0.00000000000E+00 -0.27500000000E+03  0.27500000000E+03  0.00000000000E+00 0.  1.
    9000005    2    1    2  501    0 -0.33266523016E+02  0.14727606517E+02 -0.58654933226E+02  0.46715273289E+03  0.46202566022E+03 0.  0.
         13    1    3    3    0    0  0.17475785737E+03  0.98185872550E+02  0.65551646031E+02  0.21089758789E+03  0.00000000000E+00 0.  1.
          3    1    3    3  501    0 -0.20802438039E+03 -0.83458266033E+02 -0.12420657926E+03  0.25625514499E+03  0.00000000000E+00 0.  1.
         21    1    1    2  502  501  0.33266523016E+02 -0.14727606517E+02  0.15258861170E+02  0.39451195058E+02  0.00000000000E+00 0. -1.
<scales pt_clust_4="550.00000" pt_clust_5="550.00000" pt_clust_6="36.38082"></scales>
<mgrwt>
<rscale>  0 0.30000000E+03</rscale>
<asrwt>  1 0.36380818E+02</asrwt>
<pdfrwt beam="1">  1        1 0.84219610E+00 0.30000000E+03</pdfrwt>
<pdfrwt beam="2">0</pdfrwt>
<totfact> 0.47394712E-04</totfact>
</mgrwt>
<clustering>
<clus scale="   36.381">  1  6  2 -1</clus>
<clus scale="  462.026">  4  5 -1 -1</clus>
<clus scale="  300.000">  1  4  2 -1</clus>
</clustering>
</event>
<event>
 6    1  0.1007353E-011  0.3000000E+03  0.7818608E-02  0.1093470E+00
          1   -1    0    0  502    0  0.00000000000E+00  0.00000000000E+00  0.22031812913E+03  0.22031812913E+03  0.00000000000E+00 0.  1.
         13   -1    0    0    0    0 -0.00000000000E+00 -0.00000000000E+00 -0.27500000000E+03  0.27500000000E+03  0.00000000000E+00 0.  1.
    9000005    2    1    2  501    0  0.11872119578E+02 -0.29837369948E+02 -0.51026024803E+02  0.46299814956E+03  0.45905600467E+03 0.  0.
         13    1    3    3    0    0  0.14190984131E+03 -0.10488484755E+03  0.13626877064E+03  0.22295383414E+03  0.00000000000E+00 0.  1.
          3    1    3    3  501    0 -0.13003772173E+03  0.75047477601E+02 -0.18729479544E+03  0.24004431542E+03  0.00000000000E+00 0.  1.
         21    1    1    2  502  501 -0.11872119578E+02  0.29837369948E+02 -0.36558460658E+01  0.32319979566E+02  0.00000000000E+00 0. -1.
<scales pt_clust_4="550.00000" pt_clust_5="550.00000" pt_clust_6="32.11257"></scales>
<mgrwt>
<rscale>  0 0.30000000E+03</rscale>
<asrwt>  1 0.32112566E+02</asrwt>
<pdfrwt beam="1">  1        1 0.80115683E+00 0.30000000E+03</pdfrwt>
<pdfrwt beam="2">0</pdfrwt>
<totfact> 0.10338668E-03</totfact>
</mgrwt>
<clustering>
<clus scale="   32.113">  1  6  2 -1</clus>
<clus scale="  459.056">  4  5 -1 -1</clus>
<clus scale="  300.000">  1  4  2 -1</clus>
</clustering>
</event>
<event>
 6    1  0.1007353E-011  0.3000000E+03  0.7818608E-02  0.1093470E+00
          1   -1    0    0  502    0  0.00000000000E+00  0.00000000000E+00  0.25936607936E+03  0.25936607936E+03  0.00000000000E+00 0.  1.
         13   -1    0    0    0    0 -0.00000000000E+00 -0.00000000000E+00 -0.27500000000E+03  0.27500000000E+03  0.00000000000E+00 0.  1.
    9000005    2    1    2  501    0 -0.31268502951E+02  0.12001627805E+02 -0.21265417211E+02  0.50040327470E+03  0.49882808764E+03 0.  0.
         13    1    3    3    0    0  0.17964496829E+02  0.21474063746E+03 -0.14321902287E+03  0.25874302510E+03  0.00000000000E+00 0.  1.
          3    1    3    3  501    0 -0.49232999780E+02 -0.20273900966E+03  0.12195360566E+03  0.24166024960E+03  0.00000000000E+00 0.  1.
         21    1    1    2  502  501  0.31268502951E+02 -0.12001627805E+02  0.56314965756E+01  0.33962804662E+02  0.00000000000E+00 0. -1.
<scales pt_clust_4="550.00000" pt_clust_5="550.00000" pt_clust_6="33.49266"></scales>
<mgrwt>
<rscale>  0 0.30000000E+03</rscale>
<asrwt>  1 0.33492661E+02</asrwt>
<pdfrwt beam="1">  1        1 0.94314938E+00 0.30000000E+03</pdfrwt>
<pdfrwt beam="2">0</pdfrwt>
<totfact> 0.16991434E-05</totfact>
</mgrwt>
<clustering>
<clus scale="   33.493">  1  6  2 -1</clus>
<clus scale="  498.828">  4  5 -1 -1</clus>
<clus scale="  300.000">  1  4  2 -1</clus>
</clustering>
</event>
<event>
 6    1  0.1007353E-011  0.3000000E+03  0.7818608E-02  0.1093470E+00
          1   -1    0    0  502    0  0.00000000000E+00  0.00000000000E+00  0.23289672151E+03  0.23289672151E+03  0.00000000000E+00 0.  1.
         13   -1    0    0    0    0 -0.00000000000E+00 -0.00000000000E+00 -0.27500000000E+03  0.27500000000E+03  0.00000000000E+00 0.  1.
    9000005    2    1    2  501    0 -0.24483292243E+02  0.22010791611E+02 -0.31604347746E+02  0.47334047616E+03  0.47113529376E+03 0.  0.
         13    1    3    3    0    0 -0.18150625905E+03  0.15794351975E+03  0.57445526441E+02  0.24736747162E+03  0.00000000000E+00 0.  1.
          3    1    3    3  501    0  0.15702296681E+03 -0.13593272814E+03 -0.89049874187E+02  0.22597300454E+03  0.00000000000E+00 0.  1.
         21    1    1    2  502  501  0.24483292243E+02 -0.22010791611E+02 -0.10498930741E+02  0.34556245356E+02  0.00000000000E+00 0.  1.
<scales pt_clust_4="550.00000" pt_clust_5="550.00000" pt_clust_6="32.92275"></scales>
<mgrwt>
<rscale>  0 0.30000000E+03</rscale>
<asrwt>  1 0.32922752E+02</asrwt>
<pdfrwt beam="1">  1        1 0.84689717E+00 0.30000000E+03</pdfrwt>
<pdfrwt beam="2">0</pdfrwt>
<totfact> 0.43967400E-04</totfact>
</mgrwt>
<clustering>
<clus scale="   32.923">  1  6  2 -1</clus>
<clus scale="  471.135">  4  5 -1 -1</clus>
<clus scale="  300.000">  1  4  2 -1</clus>
</clustering>
</event>
<event>
 6    1  0.1007353E-011  0.3000000E+03  0.7818608E-02  0.1093470E+00
          1   -1    0    0  502    0  0.00000000000E+00  0.00000000000E+00  0.21953235045E+03  0.21953235045E+03  0.00000000000E+00 0.  1.
         13   -1    0    0    0    0 -0.00000000000E+00 -0.00000000000E+00 -0.27500000000E+03  0.27500000000E+03  0.00000000000E+00 0.  1.
    9000005    2    1    2  501    0 -0.18983346967E+01  0.33674748913E+02 -0.47964333321E+02  0.45997960608E+03  0.45622699214E+03 0.  0.
         13    1    3    3    0    0  0.10017319539E+03 -0.17745368641E+03 -0.88201615339E+02  0.22204505138E+03  0.00000000000E+00 0.  1.
          1    1    3    3  501    0 -0.10207153009E+03  0.21112843532E+03  0.40237282018E+02  0.23793455470E+03  0.00000000000E+00 0.  1.
         21    1    1    2  502  501  0.18983346967E+01 -0.33674748913E+02 -0.75033162265E+01  0.34552744368E+02  0.00000000000E+00 0. -1.
<scales pt_clust_4="550.00000" pt_clust_5="550.00000" pt_clust_6="33.72823"></scales>
<mgrwt>
<rscale>  0 0.30000000E+03</rscale>
<asrwt>  1 0.33728230E+02</asrwt>
<pdfrwt beam="1">  1        1 0.79829946E+00 0.30000000E+03</pdfrwt>
<pdfrwt beam="2">0</pdfrwt>
<totfact> 0.10742777E-03</totfact>
</mgrwt>
<clustering>
<clus scale="   33.728">  1  6  2 -1</clus>
<clus scale="  456.227">  4  5 -1 -1</clus>
<clus scale="  300.000">  1  4  2 -1</clus>
</clustering>
</event>
<event>
 6    1  0.1007353E-011  0.3000000E+03  0.7818608E-02  0.1093470E+00
          1   -1    0    0  502    0  0.00000000000E+00  0.00000000000E+00  0.23354598242E+03  0.23354598242E+03  0.00000000000E+00 0.  1.
         13   -1    0    0    0    0 -0.00000000000E+00 -0.00000000000E+00 -0.27500000000E+03  0.27500000000E+03  0.00000000000E+00 0.  1.
    9000005    2    1    2  501    0  0.30986833248E+02  0.21344550854E+01 -0.68449630329E+02  0.46739379122E+03  0.46130994401E+03 0.  0.
         13    1    3    3    0    0 -0.13855917422E+03 -0.14239708257E+03 -0.12854436853E+03  0.23664156136E+03  0.00000000000E+00 0.  1.
          1    1    3    3  501    0  0.16954600747E+03  0.14453153765E+03  0.60094738198E+02  0.23075222985E+03  0.00000000000E+00 0.  1.
         21    1    1    2  502  501 -0.30986833248E+02 -0.21344550854E+01  0.26995612749E+02  0.41152191205E+02  0.00000000000E+00 0.  1.
<scales pt_clust_4="550.00000" pt_clust_5="550.00000" pt_clust_6="31.06026"></scales>
<mgrwt>
<rscale>  0 0.30000000E+03</rscale>
<asrwt>  1 0.31060260E+02</asrwt>
<pdfrwt beam="1">  1        1 0.84925812E+00 0.30000000E+03</pdfrwt>
<pdfrwt beam="2">0</pdfrwt>
<totfact> 0.42298033E-04</totfact>
</mgrwt>
<clustering>
<clus scale="   31.060">  1  6  2 -1</clus>
<clus scale="  461.310">  4  5 -1 -1</clus>
<clus scale="  300.000">  1  4  2 -1</clus>
</clustering>
</event>
<event>
 6    1  0.1007353E-011  0.3000000E+03  0.7818608E-02  0.1093470E+00
          1   -1    0    0  502    0  0.00000000000E+00  0.00000000000E+00  0.23716715225E+03  0.23716715225E+03  0.00000000000E+00 0.  1.
         13   -1    0    0    0    0 -0.00000000000E+00 -0.00000000000E+00 -0.27500000000E+03  0.27500000000E+03  0.00000000000E+00 0.  1.
    9000005    2    1    2  501    0  0.33724054178E+02  0.84248421209E+01 -0.21539794032E+02  0.47377765636E+03  0.47200954984E+03 0.  0.
         13    1    3    3    0    0  0.21454115503E+03 -0.11908192819E+03  0.28240751524E+02  0.24699383164E+03  0.00000000000E+00 0.  1.
          3    1    3    3  501    0 -0.18081710085E+03  0.12750677031E+03 -0.49780545555E+02  0.22678382471E+03  0.00000000000E+00 0.  1.
         21    1    1    2  502  501 -0.33724054178E+02 -0.84248421209E+01 -0.16293053723E+02  0.38389495888E+02  0.00000000000E+00 0. -1.
<scales pt_clust_4="550.00000" pt_clust_5="550.00000" pt_clust_6="34.76048"></scales>
<mgrwt>
<rscale>  0 0.30000000E+03</rscale>
<asrwt>  1 0.34760480E+02</asrwt>
<pdfrwt beam="1">  1        1 0.86242601E+00 0.30000000E+03</pdfrwt>
<pdfrwt beam="2">0</pdfrwt>
<totfact> 0.30499273E-04</totfact>
</mgrwt>
<clustering>
<clus scale="   34.760">  1  6  2 -1</clus>
<clus scale="  472.010">  4  5 -1 -1</clus>
<clus scale="  300.000">  1  4  2 -1</clus>
</clustering>
</event>
<event>
 6    1  0.1007353E-011  0.3000000E+03  0.7818608E-02  0.1093470E+00
          1   -1    0    0  502    0  0.00000000000E+00  0.00000000000E+00  0.23106891575E+03  0.23106891575E+03  0.00000000000E+00 0.  1.
         13   -1    0    0    0    0 -0.00000000000E+00 -0.00000000000E+00 -0.27500000000E+03  0.27500000000E+03  0.00000000000E+00 0.  1.
    9000005    2    1    2  501    0 -0.18916893975E+02  0.23839225690E+02 -0.47108299305E+02  0.47547067635E+03  0.47215147426E+03 0.  0.
         13    1    3    3    0    0  0.94484909284E+02  0.71762948090E+02  0.18090596924E+03  0.21634298812E+03  0.00000000000E+00 0.  1.
          3    1    3    3  501    0 -0.11340180326E+03 -0.47923722400E+02 -0.22801426854E+03  0.25912768823E+03  0.00000000000E+00 0.  1.
         21    1    1    2  502  501  0.18916893975E+02 -0.23839225690E+02  0.31772150596E+01  0.30598239405E+02  0.00000000000E+00 0.  1.
<scales pt_clust_4="550.00000" pt_clust_5="550.00000" pt_clust_6="30.43284"></scales>
<mgrwt>
<rscale>  0 0.30000000E+03</rscale>
<asrwt>  1 0.30432837E+02</asrwt>
<pdfrwt beam="1">  1        1 0.84025060E+00 0.30000000E+03</pdfrwt>
<pdfrwt beam="2">0</pdfrwt>
<totfact> 0.50812620E-04</totfact>
</mgrwt>
<clustering>
<clus scale="   30.433">  1  6  2 -1</clus>
<clus scale="  472.151">  4  5 -1 -1</clus>
<clus scale="  300.000">  1  4  2 -1</clus>
</clustering>
</event>
<event>
 6    1  0.1007353E-011  0.3000000E+03  0.7818608E-02  0.1093470E+00
          1   -1    0    0  502    0  0.00000000000E+00  0.00000000000E+00  0.23599933800E+03  0.23599933800E+03  0.00000000000E+00 0.  1.
         13   -1    0    0    0    0 -0.00000000000E+00 -0.00000000000E+00 -0.27500000000E+03  0.27500000000E+03  0.00000000000E+00 0.  1.
    9000005    2    1    2  501    0 -0.29496339203E+02  0.12476069007E+02 -0.49339276849E+02  0.47734561189E+03  0.47370748635E+03 0.  0.
         13    1    3    3    0    0 -0.10561451588E+03 -0.20226196644E+03 -0.91154809998E+02  0.24571025297E+03  0.00000000000E+00 0.  1.
          1    1    3    3  501    0  0.76118176676E+02  0.21473803544E+03  0.41815533149E+02  0.23163535891E+03  0.00000000000E+00 0.  1.
         21    1    1    2  502  501  0.29496339203E+02 -0.12476069007E+02  0.10338614851E+02  0.33653726114E+02  0.00000000000E+00 0. -1.
<scales pt_clust_4="550.00000" pt_clust_5="550.00000" pt_clust_6="32.02634"></scales>
<mgrwt>
<rscale>  0 0.30000000E+03</rscale>
<asrwt>  1 0.32026338E+02</asrwt>
<pdfrwt beam="1">  1        1 0.85817941E+00 0.30000000E+03</pdfrwt>
<pdfrwt beam="2">0</pdfrwt>
<totfact> 0.34382599E-04</totfact>
</mgrwt>
<clustering>
<clus scale="   32.026">  1  6  2 -1</clus>
<clus scale="  473.707">  4  5 -1 -1</clus>
<clus scale="  300.000">  1  4  2 -1</clus>
</clustering>
</event>
<event>
 6    1  0.1007353E-011  0.3000000E+03  0.7818608E-02  0.1093470E+00
          1   -1    0    0  502    0  0.00000000000E+00  0.00000000000E+00  0.24311481760E+03  0.24311481760E+03  0.00000000000E+00 0.  1.
         13   -1    0    0    0    0 -0.00000000000E+00 -0.00000000000E+00 -0.27500000000E+03  0.27500000000E+03  0.00000000000E+00 0.  1.
    9000005    2    1    2  501    0 -0.13204800904E+02  0.28352020356E+02 -0.68714897775E+02  0.46979679033E+03  0.46369071934E+03 0.  0.
         13    1    3    3    0    0  0.19484513797E+03  0.12100552097E+03 -0.76874111645E+02  0.24190203169E+03  0.00000000000E+00 0.  1.
          3    1    3    3  501    0 -0.20804993887E+03 -0.92653500616E+02  0.81592138702E+01  0.22789475863E+03  0.00000000000E+00 0.  1.
         21    1    1    2  502  501  0.13204800904E+02 -0.28352020356E+02  0.36829715379E+02  0.48318027278E+02  0.00000000000E+00 0.  1.
<scales pt_clust_4="550.00000" pt_clust_5="550.00000" pt_clust_6="31.27625"></scales>
<mgrwt>
<rscale>  0 0.30000000E+03</rscale>
<asrwt>  1 0.31276250E+02</asrwt>
<pdfrwt beam="1">  1        1 0.88405388E+00 0.30000000E+03</pdfrwt>
<pdfrwt beam="2">0</pdfrwt>
<totfact> 0.17857808E-04</totfact>
</mgrwt>
<clustering>
<clus scale="   31.276">  1  6  2 -1</clus>
<clus scale="  463.691">  4  5 -1 -1</clus>
<clus scale="  300.000">  1  4  2 -1</clus>
</clustering>
</event>
<event>
 6    1  0.1007353E-011  0.3000000E+03  0.7818608E-02  0.1093470E+00
          1   -1    0    0  502    0  0.00000000000E+00  0.00000000000E+00  0.23002075322E+03  0.23002075322E+03  0.00000000000E+00 0.  1.
         13   -1    0    0    0    0 -0.00000000000E+00 -0.00000000000E+00 -0.27500000000E+03  0.27500000000E+03  0.00000000000E+00 0.  1.
    9000005    2    1    2  501    0  0.24223494042E+02 -0.30510215804E+02 -0.60533838868E+02  0.46307321138E+03  0.45744376978E+03 0.  0.
         13    1    3    3    0    0  0.18571968370E+03  0.11102821097E+03 -0.10996310654E+03  0.24271577894E+03  0.00000000000E+00 0.  1.
          3    1    3    3  501    0 -0.16149618966E+03 -0.14153842677E+03  0.49429267673E+02  0.22035743244E+03  0.00000000000E+00 0.  1.
         21    1    1    2  502  501 -0.24223494042E+02  0.30510215804E+02  0.15554592092E+02  0.41947541849E+02  0.00000000000E+00 0.  1.
<scales pt_clust_4="550.00000" pt_clust_5="550.00000" pt_clust_6="38.95704"></scales>
<mgrwt>
<rscale>  0 0.30000000E+03</rscale>
<asrwt>  1 0.38957040E+02</asrwt>
<pdfrwt beam="1">  1        1 0.83643910E+00 0.30000000E+03</pdfrwt>
<pdfrwt beam="2">0</pdfrwt>
<totfact> 0.51774378E-04</totfact>
</mgrwt>
<clustering>
<clus scale="   38.957">  1  6  2 -1</clus>
<clus scale="  457.444">  4  5 -1 -1</clus>
<clus scale="  300.000">  1  4  2 -1</clus>
</clustering>
</event>
<event>
 6    1  0.1007353E-011  0.3000000E+03  0.7818608E-02  0.1093470E+00
          1   -1    0    0  502    0  0.00000000000E+00  0.00000000000E+00  0.23085704091E+03  0.23085704091E+03  0.00000000000E+00 0.  1.
         13   -1    0    0    0    0 -0.00000000000E+00 -0.00000000000E+00 -0.27500000000E+03  0.27500000000E+03  0.00000000000E+00 0.  1.
    9000005    2    1    2  501    0  0.82780046513E+01 -0.30342523016E+02 -0.65993428640E+02  0.46756034283E+03  0.46180986077E+03 0.  0.
         13    1    3    3    0    0 -0.15540702551E+03  0.58240047030E+02  0.11971966551E+03  0.20463637254E+03  0.00000000000E+00 0.  1.
          3    1    3    3  501    0  0.16368503017E+03 -0.88582570046E+02 -0.18571309415E+03  0.26292397029E+03  0.00000000000E+00 0.  1.
         21    1    1    2  502  501 -0.82780046513E+01  0.30342523016E+02  0.21850469549E+02  0.38296698076E+02  0.00000000000E+00 0.  1.
<scales pt_clust_4="550.00000" pt_clust_5="550.00000" pt_clust_6="31.45146"></scales>
<mgrwt>
<rscale>  0 0.30000000E+03</rscale>
<asrwt>  1 0.31451456E+02</asrwt>
<pdfrwt beam="1">  1        1 0.83948015E+00 0.30000000E+03</pdfrwt>
<pdfrwt beam="2">0</pdfrwt>
<totfact> 0.51182586E-04</totfact>
</mgrwt>
<clustering>
<clus scale="   31.451">  1  6  2 -1</clus>
<clus scale="  461.810">  4  5 -1 -1</clus>
<clus scale="  300.000">  1  4  2 -1</clus>
</clustering>
</event>
<event>
 6    1  0.1007353E-011  0.3000000E+03  0.7818608E-02  0.1093470E+00
          1   -1    0    0  502    0  0.00000000000E+00  0.00000000000E+00  0.24352817455E+03  0.24352817455E+03  0.00000000000E+00 0.  1.
         13   -1    0    0    0    0 -0.00000000000E+00 -0.00000000000E+00 -0.27500000000E+03  0.27500000000E+03  0.00000000000E+00 0.  1.
    9000005    2    1    2  501    0  0.93716937903E+01 -0.32671567962E+02 -0.48634696232E+02  0.48045161836E+03  0.47677370304E+03 0.  0.
         13    1    3    3    0    0  0.13262540449E+03  0.14685206828E+03  0.95087417692E+02  0.21953734278E+03  0.00000000000E+00 0.  1.
          1    1    3    3  501    0 -0.12325371069E+03 -0.17952363624E+03 -0.14372211392E+03  0.26091427558E+03  0.00000000000E+00 0.  1.
         21    1    1    2  502  501 -0.93716937903E+01  0.32671567962E+02  0.17162870778E+02  0.38076556185E+02  0.00000000000E+00 0.  1.
<scales pt_clust_4="550.00000" pt_clust_5="550.00000" pt_clust_6="33.98912"></scales>
<mgrwt>
<rscale>  0 0.30000000E+03</rscale>
<asrwt>  1 0.33989116E+02</asrwt>
<pdfrwt beam="1">  1        1 0.88555700E+00 0.30000000E+03</pdfrwt>
<pdfrwt beam="2">0</pdfrwt>
<totfact> 0.16766430E-04</totfact>
</mgrwt>
<clustering>
<clus scale="   33.989">  1  6  2 -1</clus>
<clus scale="  476.774">  4  5 -1 -1</clus>
<clus scale="  300.000">  1  4  2 -1</clus>
</clustering>
</event>
<event>
 6    1  0.1007353E-011  0.3000000E+03  0.7818608E-02  0.1093470E+00
          1   -1    0    0  502    0  0.00000000000E+00  0.00000000000E+00  0.22717222786E+03  0.22717222786E+03  0.00000000000E+00 0.  1.
         13   -1    0    0    0    0 -0.00000000000E+00 -0.00000000000E+00 -0.27500000000E+03  0.27500000000E+03  0.00000000000E+00 0.  1.
    9000005    2    1    2  501    0 -0.33035932450E+02 -0.11096647496E+02 -0.48560480563E+02  0.46731472824E+03  0.46347645737E+03 0.  0.
         13    1    3    3    0    0 -0.20883173930E+03 -0.34452982891E+02 -0.15331227865E+03  0.26134719848E+03  0.00000000000E+00 0.  1.
          1    1    3    3  501    0  0.17579580685E+03  0.23356335395E+02  0.10475179809E+03  0.20596752975E+03  0.00000000000E+00 0.  1.
         21    1    1    2  502  501  0.33035932450E+02  0.11096647496E+02  0.73270842487E+00  0.34857499625E+02  0.00000000000E+00 0.  1.
<scales pt_clust_4="550.00000" pt_clust_5="550.00000" pt_clust_6="34.84980"></scales>
<mgrwt>
<rscale>  0 0.30000000E+03</rscale>
<asrwt>  1 0.34849798E+02</asrwt>
<pdfrwt beam="1">  1        1 0.82608083E+00 0.30000000E+03</pdfrwt>
<pdfrwt beam="2">0</pdfrwt>
<totfact> 0.63937361E-04</totfact>
</mgrwt>
<clustering>
<clus scale="   34.850">  1  6  2 -1</clus>
<clus scale="  463.476">  4  5 -1 -1</clus>
<clus scale="  300.000">  1  4  2 -1</clus>
</clustering>
</event>
<event>
 6    1  0.1007353E-011  0.3000000E+03  0.7818608E-02  0.1093470E+00
          1   -1    0    0  502    0  0.00000000000E+00  0.00000000000E+00  0.24744311083E+03  0.24744311083E+03  0.00000000000E+00 0.  1.
         13   -1    0    0    0    0 -0.00000000000E+00 -0.00000000000E+00 -0.27500000000E+03  0.27500000000E+03  0.00000000000E+00 0.  1.
    9000005    2    1    2  501    0 -0.41582369748E+02  0.22064394851E+01 -0.29897723301E+02  0.48073650040E+03  0.47799555134E+03 0.  0.
         13    1    3    3    0    0 -0.83566248945E+02  0.21393148542E+03  0.73843817336E+02  0.24125278812E+03  0.00000000000E+00 0.  1.
          3    1    3    3  501    0  0.41983879197E+02 -0.21172504594E+03 -0.10374154064E+03  0.23948371227E+03  0.00000000000E+00 0.  1.
         21    1    1    2  502  501  0.41582369748E+02 -0.22064394851E+01  0.23408341267E+01  0.41706610429E+02  0.00000000000E+00 0.  1.
<scales pt_clust_4="550.00000" pt_clust_5="550.00000" pt_clust_6="41.64087"></scales>
<mgrwt>
<rscale>  0 0.30000000E+03</rscale>
<asrwt>  1 0.41640868E+02</asrwt>
<pdfrwt beam="1">  1        1 0.89979313E+00 0.30000000E+03</pdfrwt>
<pdfrwt beam="2">0</pdfrwt>
<totfact> 0.10760415E-04</totfact>
</mgrwt>
<clustering>
<clus scale="   41.641">  1  6  2 -1</clus>
<clus scale="  477.996">  4  5 -1 -1</clus>
<clus scale="  300.000">  1  4  2 -1</clus>
</clustering>
</event>
<event>
 6    1  0.1007353E-011  0.3000000E+03  0.7818608E-02  0.1093470E+00
          1   -1    0    0  502    0  0.00000000000E+00  0.00000000000E+00  0.22530653130E+03  0.22530653130E+03  0.00000000000E+00 0.  1.
         13   -1    0    0    0    0 -0.00000000000E+00 -0.00000000000E+00 -0.27500000000E+03  0.27500000000E+03  0.00000000000E+00 0.  1.
    9000005    2    1    2  501    0  0.87887723368E+01 -0.34425236551E+02 -0.56894431699E+02  0.46405472722E+03  0.45918130849E+03 0.  0.
         13    1    3    3    0    0  0.16649877612E+02 -0.93233337394E+02  0.18884026883E+03  0.21125889509E+03  0.00000000000E+00 0.  1.
          1    1    3    3  501    0 -0.78611052757E+01  0.58808100843E+02 -0.24573470052E+03  0.25279583213E+03  0.00000000000E+00 0.  1.
         21    1    1    2  502  501 -0.87887723368E+01  0.34425236551E+02  0.72009630008E+01  0.36251804078E+02  0.00000000000E+00 0.  1.
<scales pt_clust_4="550.00000" pt_clust_5="550.00000" pt_clust_6="35.52942"></scales>
<mgrwt>
<rscale>  0 0.30000000E+03</rscale>
<asrwt>  1 0.35529416E+02</asrwt>
<pdfrwt beam="1">  1        1 0.81929648E+00 0.30000000E+03</pdfrwt>
<pdfrwt beam="2">0</pdfrwt>
<totfact> 0.73139882E-04</totfact>
</mgrwt>
<clustering>
<clus scale="   35.529">  1  6  2 -1</clus>
<clus scale="  459.181">  4  5 -1 -1</clus>
<clus scale="  300.000">  1  4  2 -1</clus>
</clustering>
</event>
<event>
 6    1  0.1007353E-011  0.3000000E+03  0.7818608E-02  0.1093470E+00
          1   -1    0    0  502    0  0.00000000000E+00  0.00000000000E+00  0.23565268112E+03  0.23565268112E+03  0.00000000000E+00 0.  1.
         13   -1    0    0    0    0 -0.00000000000E+00 -0.00000000000E+00 -0.27500000000E+03  0.27500000000E+03  0.00000000000E+00 0.  1.
    9000005    2    1    2  501    0 -0.90077900341E+01  0.35358075416E+02 -0.45035099335E+02  0.47372458037E+03  0.47016537952E+03 0.  0.
         13    1    3    3    0    0 -0.20814037617E+03  0.60016134269E+02  0.87095890357E+02  0.23347386723E+03  0.00000000000E+00 0.  1.
          1    1    3    3  501    0  0.19913258613E+03 -0.24658058853E+02 -0.13213098969E+03  0.24025071314E+03  0.00000000000E+00 0.  1.
         21    1    1    2  502  501  0.90077900341E+01 -0.35358075416E+02  0.56877804518E+01  0.36928100748E+02  0.00000000000E+00 0.  1.
<scales pt_clust_4="550.00000" pt_clust_5="550.00000" pt_clust_6="36.48745"></scales>
<mgrwt>
<rscale>  0 0.30000000E+03</rscale>
<asrwt>  1 0.36487447E+02</asrwt>
<pdfrwt beam="1">  1        1 0.85691884E+00 0.30000000E+03</pdfrwt>
<pdfrwt beam="2">0</pdfrwt>
<totfact> 0.34575043E-04</totfact>
</mgrwt>
<clustering>
<clus scale="   36.487">  1  6  2 -1</clus>
<clus scale="  470.165">  4  5 -1 -1</clus>
<clus scale="  300.000">  1  4  2 -1</clus>
</clustering>
</event>
<event>
 6    1  0.1007353E-011  0.3000000E+03  0.7818608E-02  0.1093470E+00
          1   -1    0    0  502    0  0.00000000000E+00  0.00000000000E+00  0.22796719957E+03  0.22796719957E+03  0.00000000000E+00 0.  1.
         13   -1    0    0    0    0 -0.00000000000E+00 -0.00000000000E+00 -0.27500000000E+03  0.27500000000E+03  0.00000000000E+00 0.  1.
    9000005    2    1    2  501    0 -0.47851527745E+01  0.36747200680E+02 -0.63897512803E+02  0.46225266939E+03  0.45631281350E+03 0.  0.
         13    1    3    3    0    0 -0.73438805285E+02  0.14485225570E+03 -0.21161539505E+03  0.26675177511E+03  0.00000000000E+00 0.  1.
          3    1    3    3  501    0  0.68653652511E+02 -0.10810505502E+03  0.14771788225E+03  0.19550089427E+03  0.00000000000E+00 0.  1.
         21    1    1    2  502  501  0.47851527745E+01 -0.36747200680E+02  0.16864712377E+02  0.40714530188E+02  0.00000000000E+00 0.  1.
<scales pt_clust_4="550.00000" pt_clust_5="550.00000" pt_clust_6="37.05745"></scales>
<mgrwt>
<rscale>  0 0.30000000E+03</rscale>
<asrwt>  1 0.37057448E+02</asrwt>
<pdfrwt beam="1">  1        1 0.82897163E+00 0.30000000E+03</pdfrwt>
<pdfrwt beam="2">0</pdfrwt>
<totfact> 0.59648481E-04</totfact>
</mgrwt>
<clustering>
<clus scale="   37.057">  1  6  2 -1</clus>
<clus scale="  456.313">  4  5 -1 -1</clus>
<clus scale="  300.000">  1  4  2 -1</clus>
</clustering>
</event>
<event>
 6    1  0.1007353E-011  0.3000000E+03  0.7818608E-02  0.1093470E+00
          1   -1    0    0  502    0  0.00000000000E+00  0.00000000000E+00  0.22762051090E+03  0.22762051090E+03  0.00000000000E+00 0.  1.
         13   -1    0    0    0    0 -0.00000000000E+00 -0.00000000000E+00 -0.27500000000E+03  0.27500000000E+03  0.00000000000E+00 0.  1.
    9000005    2    1    2  501    0  0.24258945307E+02 -0.22519255073E+02 -0.45078644535E+02  0.46944058983E+03  0.46609738243E+03 0.  0.
         13    1    3    3    0    0  0.22490124980E+03 -0.74825190565E+02  0.48533917709E+02  0.24193991500E+03  0.00000000000E+00 0.  1.
          3    1    3    3  501    0 -0.20064230449E+03  0.52305935492E+02 -0.93612562244E+02  0.22750067483E+03  0.00000000000E+00 0.  1.
         21    1    1    2  502  501 -0.24258945307E+02  0.22519255073E+02 -0.23008445652E+01  0.33179921070E+02  0.00000000000E+00 0.  1.
<scales pt_clust_4="550.00000" pt_clust_5="550.00000" pt_clust_6="33.10005"></scales>
<mgrwt>
<rscale>  0 0.30000000E+03</rscale>
<asrwt>  1 0.33100049E+02</asrwt>
<pdfrwt beam="1">  1        1 0.82771095E+00 0.30000000E+03</pdfrwt>
<pdfrwt beam="2">0</pdfrwt>
<totfact> 0.62462692E-04</totfact>
</mgrwt>
<clustering>
<clus scale="   33.100">  1  6  2 -1</clus>
<clus scale="  466.097">  4  5 -1 -1</clus>
<clus scale="  300.000">  1  4  2 -1</clus>
</clustering>
</event>
<event>
 6    1  0.1007353E-011  0.3000000E+03  0.7818608E-02  0.1093470E+00
          1   -1    0    0  502    0  0.00000000000E+00  0.00000000000E+00  0.22351673280E+03  0.22351673280E+03  0.00000000000E+00 0.  1.
         13   -1    0    0    0    0 -0.00000000000E+00 -0.00000000000E+00 -0.27500000000E+03  0.27500000000E+03  0.00000000000E+00 0.  1.
    9000005    2    1    2  501    0  0.26984124733E+02  0.21589643847E+02 -0.60953132219E+02  0.46268470728E+03  0.45734844300E+03 0.  0.
         13    1    3    3    0    0 -0.12704608422E+03  0.18903889720E+03 -0.25000473728E+01  0.22777766003E+03  0.00000000000E+00 0.  1.
          3    1    3    3  501    0  0.15403020896E+03 -0.16744925335E+03 -0.58453084846E+02  0.23490704725E+03  0.00000000000E+00 0.  1.
         21    1    1    2  502  501 -0.26984124733E+02 -0.21589643847E+02  0.94698650139E+01  0.35832025514E+02  0.00000000000E+00 0.  1.
<scales pt_clust_4="550.00000" pt_clust_5="550.00000" pt_clust_6="34.55800"></scales>
<mgrwt>
<rscale>  0 0.30000000E+03</rscale>
<asrwt>  1 0.34558005E+02</asrwt>
<pdfrwt beam="1">  1        1 0.81278812E+00 0.30000000E+03</pdfrwt>
<pdfrwt beam="2">0</pdfrwt>
<totfact> 0.83116726E-04</totfact>
</mgrwt>
<clustering>
<clus scale="   34.558">  1  6  2 -1</clus>
<clus scale="  457.348">  4  5 -1 -1</clus>
<clus scale="  300.000">  1  4  2 -1</clus>
</clustering>
</event>
<event>
 6    1  0.1007353E-011  0.3000000E+03  0.7818608E-02  0.1093470E+00
          1   -1    0    0  502    0  0.00000000000E+00  0.00000000000E+00  0.22400334751E+03  0.22400334751E+03  0.00000000000E+00 0.  1.
         13   -1    0    0    0    0 -0.00000000000E+00 -0.00000000000E+00 -0.27500000000E+03  0.27500000000E+03  0.00000000000E+00 0.  1.
    9000005    2    1    2  501    0  0.20212689782E+02 -0.31391056997E+02 -0.52331830237E+02  0.46164382413E+03  0.45714598173E+03 0.  0.
         13    1    3    3    0    0 -0.12059383259E+03 -0.19761503721E+03  0.19337780226E+02  0.23231126777E+03  0.00000000000E+00 0.  1.
          3    1    3    3  501    0  0.14080652237E+03  0.16622398021E+03 -0.71669610463E+02  0.22933255636E+03  0.00000000000E+00 0.  1.
         21    1    1    2  502  501 -0.20212689782E+02  0.31391056997E+02  0.13351777463E+01  0.37359523381E+02  0.00000000000E+00 0.  1.
<scales pt_clust_4="550.00000" pt_clust_5="550.00000" pt_clust_6="37.33566"></scales>
<mgrwt>
<rscale>  0 0.30000000E+03</rscale>
<asrwt>  1 0.37335657E+02</asrwt>
<pdfrwt beam="1">  1        1 0.81455763E+00 0.30000000E+03</pdfrwt>
<pdfrwt beam="2">0</pdfrwt>
<totfact> 0.79302655E-04</totfact>
</mgrwt>
<clustering>
<clus scale="   37.336">  1  6  2 -1</clus>
<clus scale="  457.146">  4  5 -1 -1</clus>
<clus scale="  300.000">  1  4  2 -1</clus>
</clustering>
</event>
<event>
 6    1  0.1007353E-011  0.3000000E+03  0.7818608E-02  0.1093470E+00
          1   -1    0    0  502    0  0.00000000000E+00  0.00000000000E+00  0.22570189930E+03  0.22570189930E+03  0.00000000000E+00 0.  1.
         13   -1    0    0    0    0 -0.00000000000E+00 -0.00000000000E+00 -0.27500000000E+03  0.27500000000E+03  0.00000000000E+00 0.  1.
    9000005    2    1    2  501    0  0.37496691101E+02 -0.10188854626E+02 -0.40568426981E+02  0.46087701003E+03  0.45744071365E+03 0.  0.
         13    1    3    3    0    0  0.21810862270E+03  0.10325640522E+03  0.10569935448E+02  0.24154705556E+03  0.00000000000E+00 0.  1.
          1    1    3    3  501    0 -0.18061193160E+03 -0.11344525984E+03 -0.51138362429E+02  0.21932995447E+03  0.00000000000E+00 0.  1.
         21    1    1    2  502  501 -0.37496691101E+02  0.10188854626E+02 -0.87296737207E+01  0.39824889270E+02  0.00000000000E+00 0. -1.
<scales pt_clust_4="550.00000" pt_clust_5="550.00000" pt_clust_6="38.85635"></scales>
<mgrwt>
<rscale>  0 0.30000000E+03</rscale>
<asrwt>  1 0.38856352E+02</asrwt>
<pdfrwt beam="1">  1        1 0.82073418E+00 0.30000000E+03</pdfrwt>
<pdfrwt beam="2">0</pdfrwt>
<totfact> 0.69905857E-04</totfact>
</mgrwt>
<clustering>
<clus scale="   38.856">  1  6  2 -1</clus>
<clus scale="  457.441">  4  5 -1 -1</clus>
<clus scale="  300.000">  1  4  2 -1</clus>
</clustering>
</event>
<event>
 6    1  0.1007353E-011  0.3000000E+03  0.7818608E-02  0.1093470E+00
          1   -1    0    0  502    0  0.00000000000E+00  0.00000000000E+00  0.25649509346E+03  0.25649509346E+03  0.00000000000E+00 0.  1.
         13   -1    0    0    0    0 -0.00000000000E+00 -0.00000000000E+00 -0.27500000000E+03  0.27500000000E+03  0.00000000000E+00 0.  1.
    9000005    2    1    2  501    0  0.30634491833E+02 -0.99644582780E+01 -0.29198997902E+02  0.49755211026E+03  0.49564882571E+03 0.  0.
         13    1    3    3    0    0 -0.61628219216E+01 -0.19128113971E+03 -0.17705218368E+03  0.26071810549E+03  0.00000000000E+00 0.  1.
          1    1    3    3  501    0  0.36797313754E+02  0.18131668144E+03  0.14785318578E+03  0.23683400476E+03  0.00000000000E+00 0.  1.
         21    1    1    2  502  501 -0.30634491833E+02  0.99644582780E+01  0.10694091363E+02  0.33942983203E+02  0.00000000000E+00 0. -1.
<scales pt_clust_4="550.00000" pt_clust_5="550.00000" pt_clust_6="32.21432"></scales>
<mgrwt>
<rscale>  0 0.30000000E+03</rscale>
<asrwt>  1 0.32214322E+02</asrwt>
<pdfrwt beam="1">  1        1 0.93270943E+00 0.30000000E+03</pdfrwt>
<pdfrwt beam="2">0</pdfrwt>
<totfact> 0.24427622E-05</totfact>
</mgrwt>
<clustering>
<clus scale="   32.214">  1  6  2 -1</clus>
<clus scale="  495.649">  4  5 -1 -1</clus>
<clus scale="  300.000">  1  4  2 -1</clus>
</clustering>
</event>
<event>
 6    1  0.1007353E-011  0.3000000E+03  0.7818608E-02  0.1093470E+00
          1   -1    0    0  502    0  0.00000000000E+00  0.00000000000E+00  0.22519017795E+03  0.22519017795E+03  0.00000000000E+00 0.  1.
         13   -1    0    0    0    0 -0.00000000000E+00 -0.00000000000E+00 -0.27500000000E+03  0.27500000000E+03  0.00000000000E+00 0.  1.
    9000005    2    1    2  501    0  0.29838138933E+02  0.24952455268E+02 -0.48017956956E+02  0.46125240273E+03  0.45709420831E+03 0.  0.
         13    1    3    3    0    0  0.15943389958E+03  0.46840653926E+02 -0.20019490714E+03  0.26017535633E+03  0.00000000000E+00 0.  1.
          1    1    3    3  501    0 -0.12959576065E+03 -0.21888198658E+02  0.15217695019E+03  0.20107704640E+03  0.00000000000E+00 0.  1.
         21    1    1    2  502  501 -0.29838138933E+02 -0.24952455268E+02 -0.17918650911E+01  0.38937775224E+02  0.00000000000E+00 0. -1.
<scales pt_clust_4="550.00000" pt_clust_5="550.00000" pt_clust_6="38.89652"></scales>
<mgrwt>
<rscale>  0 0.30000000E+03</rscale>
<asrwt>  1 0.38896524E+02</asrwt>
<pdfrwt beam="1">  1        1 0.81887337E+00 0.30000000E+03</pdfrwt>
<pdfrwt beam="2">0</pdfrwt>
<totfact> 0.72525275E-04</totfact>
</mgrwt>
<clustering>
<clus scale="   38.897">  1  6  2 -1</clus>
<clus scale="  457.094">  4  5 -1 -1</clus>
<clus scale="  300.000">  1  4  2 -1</clus>
</clustering>
</event>
<event>
 6    1  0.1007353E-011  0.3000000E+03  0.7818608E-02  0.1093470E+00
          1   -1    0    0  502    0  0.00000000000E+00  0.00000000000E+00  0.22637106539E+03  0.22637106539E+03  0.00000000000E+00 0.  1.
         13   -1    0    0    0    0 -0.00000000000E+00 -0.00000000000E+00 -0.27500000000E+03  0.27500000000E+03  0.00000000000E+00 0.  1.
    9000005    2    1    2  501    0  0.31419856321E+02  0.47182703067E+01 -0.65144258923E+02  0.46556289058E+03  0.45988646552E+03 0.  0.
         13    1    3    3    0    0  0.93366632358E+01 -0.22277813638E+02 -0.26327750052E+03  0.26438327583E+03  0.00000000000E+00 0.  1.
          3    1    3    3  501    0  0.22083193085E+02  0.26996083945E+02  0.19813324160E+03  0.20117961475E+03  0.00000000000E+00 0.  1.
         21    1    1    2  502  501 -0.31419856321E+02 -0.47182703067E+01  0.16515324311E+02  0.35808174807E+02  0.00000000000E+00 0. -1.
<scales pt_clust_4="550.00000" pt_clust_5="550.00000" pt_clust_6="31.77215"></scales>
<mgrwt>
<rscale>  0 0.30000000E+03</rscale>
<asrwt>  1 0.31772149E+02</asrwt>
<pdfrwt beam="1">  1        1 0.82316751E+00 0.30000000E+03</pdfrwt>
<pdfrwt beam="2">0</pdfrwt>
<totfact> 0.69075884E-04</totfact>
</mgrwt>
<clustering>
<clus scale="   31.772">  1  6  2 -1</clus>
<clus scale="  459.886">  4  5 -1 -1</clus>
<clus scale="  300.000">  1  4  2 -1</clus>
</clustering>
</event>
<event>
 6    1  0.1007353E-011  0.3000000E+03  0.7818608E-02  0.1093470E+00
          1   -1    0    0  502    0  0.00000000000E+00  0.00000000000E+00  0.26518535429E+03  0.26518535429E+03  0.00000000000E+00 0.  1.
         13   -1    0    0    0    0 -0.00000000000E+00 -0.00000000000E+00 -0.27500000000E+03  0.27500000000E+03  0.00000000000E+00 0.  1.
    9000005    2    1    2  501    0 -0.30866708427E+02 -0.21243422625E+02 -0.53697678253E+02  0.48248130557E+03  0.47801750269E+03 0.  0.
         13    1    3    3    0    0 -0.20439059816E+03  0.81565237803E+02  0.86920084268E+02  0.23660833815E+03  0.00000000000E+00 0.  1.
          1    1    3    3  501    0  0.17352388974E+03 -0.10280866043E+03 -0.14061776252E+03  0.24587296741E+03  0.00000000000E+00 0.  1.
         21    1    1    2  502  501  0.30866708427E+02  0.21243422625E+02  0.43883032547E+02  0.57704048727E+02  0.00000000000E+00 0.  1.
<scales pt_clust_4="550.00000" pt_clust_5="550.00000" pt_clust_6="37.47048"></scales>
<mgrwt>
<rscale>  0 0.30000000E+03</rscale>
<asrwt>  1 0.37470478E+02</asrwt>
<pdfrwt beam="1">  1        1 0.96431038E+00 0.30000000E+03</pdfrwt>
<pdfrwt beam="2">0</pdfrwt>
<totfact> 0.60631032E-06</totfact>
</mgrwt>
<clustering>
<clus scale="   37.470">  1  6  2 -1</clus>
<clus scale="  478.018">  4  5 -1 -1</clus>
<clus scale="  300.000">  1  4  2 -1</clus>
</clustering>
</event>
<event>
 6    1  0.1007353E-011  0.3000000E+03  0.7818608E-02  0.1093470E+00
          1   -1    0    0  502    0  0.00000000000E+00  0.00000000000E+00  0.25110976478E+03  0.25110976478E+03  0.00000000000E+00 0.  1.
         13   -1    0    0    0    0 -0.00000000000E+00 -0.00000000000E+00 -0.27500000000E+03  0.27500000000E+03  0.00000000000E+00 0.  1.
    9000005    2    1    2  501    0  0.26272741724E+02  0.30206029644E+02 -0.26695950409E+02  0.48597831549E+03  0.48359031026E+03 0.  0.
         13    1    3    3    0    0 -0.11190415817E+03 -0.17341969767E+03  0.75160114686E+02  0.21964966423E+03  0.00000000000E+00 0.  1.
          3    1    3    3  501    0  0.13817689990E+03  0.20362572731E+03 -0.10185606509E+03  0.26632865126E+03  0.00000000000E+00 0.  1.
         21    1    1    2  502  501 -0.26272741724E+02 -0.30206029644E+02  0.28057151924E+01  0.40131449293E+02  0.00000000000E+00 0.  1.
<scales pt_clust_4="550.00000" pt_clust_5="550.00000" pt_clust_6="40.03325"></scales>
<mgrwt>
<rscale>  0 0.30000000E+03</rscale>
<asrwt>  1 0.40033251E+02</asrwt>
<pdfrwt beam="1">  1        1 0.91312642E+00 0.30000000E+03</pdfrwt>
<pdfrwt beam="2">0</pdfrwt>
<totfact> 0.58612234E-05</totfact>
</mgrwt>
<clustering>
<clus scale="   40.033">  1  6  2 -1</clus>
<clus scale="  483.590">  4  5 -1 -1</clus>
<clus scale="  300.000">  1  4  2 -1</clus>
</clustering>
</event>
<event>
 6    1  0.1007353E-011  0.3000000E+03  0.7818608E-02  0.1093470E+00
          1   -1    0    0  502    0  0.00000000000E+00  0.00000000000E+00  0.25194388507E+03  0.25194388507E+03  0.00000000000E+00 0.  1.
         13   -1    0    0    0    0 -0.00000000000E+00 -0.00000000000E+00 -0.27500000000E+03  0.27500000000E+03  0.00000000000E+00 0.  1.
    9000005    2    1    2  501    0  0.45261560971E+02 -0.24487107697E+01 -0.31868769650E+02  0.48076739788E+03  0.47756367879E+03 0.  0.
         13    1    3    3    0    0  0.24123870116E+03  0.69364541215E+02  0.51099097129E+02  0.25616141052E+03  0.00000000000E+00 0.  1.
          1    1    3    3  501    0 -0.19597714019E+03 -0.71813251985E+02 -0.82967866779E+02  0.22460598735E+03  0.00000000000E+00 0.  1.
         21    1    1    2  502  501 -0.45261560971E+02  0.24487107697E+01  0.88126547152E+01  0.46176487189E+02  0.00000000000E+00 0. -1.
<scales pt_clust_4="550.00000" pt_clust_5="550.00000" pt_clust_6="45.32775"></scales>
<mgrwt>
<rscale>  0 0.30000000E+03</rscale>
<asrwt>  1 0.45327752E+02</asrwt>
<pdfrwt beam="1">  1        1 0.91615958E+00 0.30000000E+03</pdfrwt>
<pdfrwt beam="2">0</pdfrwt>
<totfact> 0.48563617E-05</totfact>
</mgrwt>
<clustering>
<clus scale="   45.328">  1  6  2 -1</clus>
<clus scale="  477.564">  4  5 -1 -1</clus>
<clus scale="  300.000">  1  4  2 -1</clus>
</clustering>
</event>
<event>
 6    1  0.1007353E-011  0.3000000E+03  0.7818608E-02  0.1093470E+00
          1   -1    0    0  502    0  0.00000000000E+00  0.00000000000E+00  0.22212757082E+03  0.22212757082E+03  0.00000000000E+00 0.  1.
         13   -1    0    0    0    0 -0.00000000000E+00 -0.00000000000E+00 -0.27500000000E+03  0.27500000000E+03  0.00000000000E+00 0.  1.
    9000005    2    1    2  501    0  0.25345002184E+01  0.30423917819E+02 -0.48250517827E+02  0.46625038618E+03  0.46274104170E+03 0.  0.
         13    1    3    3    0    0 -0.16923015428E+03  0.13210242335E+03  0.79875089918E+02  0.22906314710E+03  0.00000000000E+00 0.  1.
          3    1    3    3  501    0  0.17176465449E+03 -0.10167850553E+03 -0.12812560774E+03  0.23718723908E+03  0.00000000000E+00 0.  1.
         21    1    1    2  502  501 -0.25345002184E+01 -0.30423917819E+02 -0.46219113524E+01  0.30877184642E+02  0.00000000000E+00 0.  1.
<scales pt_clust_4="550.00000" pt_clust_5="550.00000" pt_clust_6="30.52932"></scales>
<mgrwt>
<rscale>  0 0.30000000E+03</rscale>
<asrwt>  1 0.30529320E+02</asrwt>
<pdfrwt beam="1">  1        1 0.80773662E+00 0.30000000E+03</pdfrwt>
<pdfrwt beam="2">0</pdfrwt>
<totfact> 0.93190488E-04</totfact>
</mgrwt>
<clustering>
<clus scale="   30.529">  1  6  2 -1</clus>
<clus scale="  462.741">  4  5 -1 -1</clus>
<clus scale="  300.000">  1  4  2 -1</clus>
</clustering>
</event>
<event>
 6    1  0.1007353E-011  0.3000000E+03  0.7818608E-02  0.1093470E+00
          1   -1    0    0  502    0  0.00000000000E+00  0.00000000000E+00  0.22401601361E+03  0.22401601361E+03  0.00000000000E+00 0.  1.
         13   -1    0    0    0    0 -0.00000000000E+00 -0.00000000000E+00 -0.27500000000E+03  0.27500000000E+03  0.00000000000E+00 0.  1.
    9000005    2    1    2  501    0  0.22277180236E+02 -0.26986899953E+02 -0.45086839841E+02  0.46352880654E+03  0.46000170199E+03 0.  0.
         13    1    3    3    0    0 -0.19355782941E+03  0.88221413239E+02  0.92238556097E+01  0.21291484352E+03  0.00000000000E+00 0.  1.
          1    1    3    3  501    0  0.21583500965E+03 -0.11520831319E+03 -0.54310695450E+02  0.25061396302E+03  0.00000000000E+00 0.  1.
         21    1    1    2  502  501 -0.22277180236E+02  0.26986899953E+02 -0.58971465476E+01  0.35487207072E+02  0.00000000000E+00 0. -1.
<scales pt_clust_4="550.00000" pt_clust_5="550.00000" pt_clust_6="34.99381"></scales>
<mgrwt>
<rscale>  0 0.30000000E+03</rscale>
<asrwt>  1 0.34993810E+02</asrwt>
<pdfrwt beam="1">  1        1 0.81460369E+00 0.30000000E+03</pdfrwt>
<pdfrwt beam="2">0</pdfrwt>
<totfact> 0.80195275E-04</totfact>
</mgrwt>
<clustering>
<clus scale="   34.994">  1  6  2 -1</clus>
<clus scale="  460.002">  4  5 -1 -1</clus>
<clus scale="  300.000">  1  4  2 -1</clus>
</clustering>
</event>
<event>
 6    1  0.1007353E-011  0.3000000E+03  0.7818608E-02  0.1093470E+00
          1   -1    0    0  502    0  0.00000000000E+00  0.00000000000E+00  0.25300256159E+03  0.25300256159E+03  0.00000000000E+00 0.  1.
         13   -1    0    0    0    0 -0.00000000000E+00 -0.00000000000E+00 -0.27500000000E+03  0.27500000000E+03  0.00000000000E+00 0.  1.
    9000005    2    1    2  501    0 -0.28242287296E+02 -0.36373125216E+02 -0.38778985162E+02  0.47898979447E+03  0.47519131145E+03 0.  0.
         13    1    3    3    0    0 -0.18661887919E+03  0.22933482598E+02 -0.17877410276E+03  0.25944697052E+03  0.00000000000E+00 0.  1.
          3    1    3    3  501    0  0.15837659190E+03 -0.59306607814E+02  0.13999511760E+03  0.21954282394E+03  0.00000000000E+00 0.  1.
         21    1    1    2  502  501  0.28242287296E+02  0.36373125216E+02  0.16781546750E+02  0.49012767122E+02  0.00000000000E+00 0. -1.
<scales pt_clust_4="550.00000" pt_clust_5="550.00000" pt_clust_6="46.05031"></scales>
<mgrwt>
<rscale>  0 0.30000000E+03</rscale>
<asrwt>  1 0.46050310E+02</asrwt>
<pdfrwt beam="1">  1        1 0.92000931E+00 0.30000000E+03</pdfrwt>
<pdfrwt beam="2">0</pdfrwt>
<totfact> 0.39741036E-05</totfact>
</mgrwt>
<clustering>
<clus scale="   46.050">  1  6  2 -1</clus>
<clus scale="  475.191">  4  5 -1 -1</clus>
<clus scale="  300.000">  1  4  2 -1</clus>
</clustering>
</event>
<event>
 6    1  0.1007353E-011  0.3000000E+03  0.7818608E-02  0.1093470E+00
          1   -1    0    0  502    0  0.00000000000E+00  0.00000000000E+00  0.22409097408E+03  0.22409097408E+03  0.00000000000E+00 0.  1.
         13   -1    0    0    0    0 -0.00000000000E+00 -0.00000000000E+00 -0.27500000000E+03  0.27500000000E+03  0.00000000000E+00 0.  1.
    9000005    2    1    2  501    0  0.15764329807E+02  0.28676310944E+02 -0.54046931220E+02  0.46621710371E+03  0.46191608774E+03 0.  0.
         13    1    3    3    0    0 -0.73952943739E+02  0.14758763523E+03 -0.19887184201E+03  0.25845919892E+03  0.00000000000E+00 0.  1.
          3    1    3    3  501    0  0.89717273546E+02 -0.11891132428E+03  0.14482491079E+03  0.20775790479E+03  0.00000000000E+00 0.  1.
         21    1    1    2  502  501 -0.15764329807E+02 -0.28676310944E+02  0.31379052981E+01  0.32873870373E+02  0.00000000000E+00 0.  1.
<scales pt_clust_4="550.00000" pt_clust_5="550.00000" pt_clust_6="32.72377"></scales>
<mgrwt>
<rscale>  0 0.30000000E+03</rscale>
<asrwt>  1 0.32723767E+02</asrwt>
<pdfrwt beam="1">  1        1 0.81487627E+00 0.30000000E+03</pdfrwt>
<pdfrwt beam="2">0</pdfrwt>
<totfact> 0.80803789E-04</totfact>
</mgrwt>
<clustering>
<clus scale="   32.724">  1  6  2 -1</clus>
<clus scale="  461.916">  4  5 -1 -1</clus>
<clus scale="  300.000">  1  4  2 -1</clus>
</clustering>
</event>
<event>
 6    1  0.1007353E-011  0.3000000E+03  0.7818608E-02  0.1093470E+00
          1   -1    0    0  502    0  0.00000000000E+00  0.00000000000E+00  0.24493554868E+03  0.24493554868E+03  0.00000000000E+00 0.  1.
         13   -1    0    0    0    0 -0.00000000000E+00 -0.00000000000E+00 -0.27500000000E+03  0.27500000000E+03  0.00000000000E+00 0.  1.
    9000005    2    1    2  501    0  0.20001970074E+02  0.35040564219E+02 -0.33295433370E+02  0.47945889871E+03  0.47659661111E+03 0.  0.
         13    1    3    3    0    0 -0.10562569475E+03 -0.20356430338E+02 -0.22165028904E+03  0.24637374511E+03  0.00000000000E+00 0.  1.
          3    1    3    3  501    0  0.12562766482E+03  0.55396994556E+02  0.18835485567E+03  0.23308515360E+03  0.00000000000E+00 0.  1.
         21    1    1    2  502  501 -0.20001970074E+02 -0.35040564219E+02  0.32309820452E+01  0.40476649967E+02  0.00000000000E+00 0.  1.
<scales pt_clust_4="550.00000" pt_clust_5="550.00000" pt_clust_6="40.34749"></scales>
<mgrwt>
<rscale>  0 0.30000000E+03</rscale>
<asrwt>  1 0.40347490E+02</asrwt>
<pdfrwt beam="1">  1        1 0.89067472E+00 0.30000000E+03</pdfrwt>
<pdfrwt beam="2">0</pdfrwt>
<totfact> 0.13833951E-04</totfact>
</mgrwt>
<clustering>
<clus scale="   40.347">  1  6  2 -1</clus>
<clus scale="  476.597">  4  5 -1 -1</clus>
<clus scale="  300.000">  1  4  2 -1</clus>
</clustering>
</event>
<event>
 6    1  0.1007353E-011  0.3000000E+03  0.7818608E-02  0.1093470E+00
          1   -1    0    0  502    0  0.00000000000E+00  0.00000000000E+00  0.22619016368E+03  0.22619016368E+03  0.00000000000E+00 0.  1.
         13   -1    0    0    0    0 -0.00000000000E+00 -0.00000000000E+00 -0.27500000000E+03  0.27500000000E+03  0.00000000000E+00 0.  1.
    9000005    2    1    2  501    0 -0.21829331338E+02  0.22816624422E+02 -0.62575828840E+02  0.46674280374E+03  0.46144988074E+03 0.  0.
         13    1    3    3    0    0 -0.14988693333E+03  0.14511425405E+03 -0.16157165936E+03  0.26387428943E+03  0.00000000000E+00 0.  1.
          3    1    3    3  501    0  0.12805760199E+03 -0.12229762963E+03  0.98995830519E+02  0.20286851432E+03  0.00000000000E+00 0.  1.
         21    1    1    2  502  501  0.21829331338E+02 -0.22816624422E+02  0.13765992521E+02  0.34447359939E+02  0.00000000000E+00 0.  1.
<scales pt_clust_4="550.00000" pt_clust_5="550.00000" pt_clust_6="31.57718"></scales>
<mgrwt>
<rscale>  0 0.30000000E+03</rscale>
<asrwt>  1 0.31577176E+02</asrwt>
<pdfrwt beam="1">  1        1 0.82250969E+00 0.30000000E+03</pdfrwt>
<pdfrwt beam="2">0</pdfrwt>
<totfact> 0.70096197E-04</totfact>
</mgrwt>
<clustering>
<clus scale="   31.577">  1  6  2 -1</clus>
<clus scale="  461.450">  4  5 -1 -1</clus>
<clus scale="  300.000">  1  4  2 -1</clus>
</clustering>
</event>
<event>
 6    1  0.1007353E-011  0.3000000E+03  0.7818608E-02  0.1093470E+00
          1   -1    0    0  502    0  0.00000000000E+00  0.00000000000E+00  0.23681662556E+03  0.23681662556E+03  0.00000000000E+00 0.  1.
         13   -1    0    0    0    0 -0.00000000000E+00 -0.00000000000E+00 -0.27500000000E+03  0.27500000000E+03  0.00000000000E+00 0.  1.
    9000005    2    1    2  501    0 -0.24335970549E+01  0.34341391546E+02 -0.49596619016E+02  0.47554658669E+03  0.47169850321E+03 0.  0.
         13    1    3    3    0    0 -0.54394857614E+02 -0.79407216024E+02  0.18565491812E+03  0.20912210575E+03  0.00000000000E+00 0.  1.
          1    1    3    3  501    0  0.51961260559E+02  0.11374860757E+03 -0.23525153713E+03  0.26642448094E+03  0.00000000000E+00 0.  1.
         21    1    1    2  502  501  0.24335970549E+01 -0.34341391546E+02  0.11413244580E+02  0.36270038872E+02  0.00000000000E+00 0.  1.
<scales pt_clust_4="550.00000" pt_clust_5="550.00000" pt_clust_6="34.42751"></scales>
<mgrwt>
<rscale>  0 0.30000000E+03</rscale>
<asrwt>  1 0.34427512E+02</asrwt>
<pdfrwt beam="1">  1        1 0.86115137E+00 0.30000000E+03</pdfrwt>
<pdfrwt beam="2">0</pdfrwt>
<totfact> 0.31537552E-04</totfact>
</mgrwt>
<clustering>
<clus scale="   34.428">  1  6  2 -1</clus>
<clus scale="  471.699">  4  5 -1 -1</clus>
<clus scale="  300.000">  1  4  2 -1</clus>
</clustering>
</event>
<event>
 6    1  0.1007353E-011  0.3000000E+03  0.7818608E-02  0.1093470E+00
          1   -1    0    0  502    0  0.00000000000E+00  0.00000000000E+00  0.22697621835E+03  0.22697621835E+03  0.00000000000E+00 0.  1.
         13   -1    0    0    0    0 -0.00000000000E+00 -0.00000000000E+00 -0.27500000000E+03  0.27500000000E+03  0.00000000000E+00 0.  1.
    9000005    2    1    2  501    0 -0.54287994203E+01 -0.32607046489E+02 -0.46375310151E+02  0.46887925773E+03  0.46540777561E+03 0.  0.
         13    1    3    3    0    0 -0.68489577818E+02  0.20464010197E+03 -0.56887203658E+02  0.22316932483E+03  0.00000000000E+00 0.  1.
          1    1    3    3  501    0  0.63060778398E+02 -0.23724714846E+03  0.10511893507E+02  0.24570993291E+03  0.00000000000E+00 0.  1.
         21    1    1    2  502  501  0.54287994203E+01  0.32607046489E+02 -0.16484714982E+01  0.33096960619E+02  0.00000000000E+00 0.  1.
<scales pt_clust_4="550.00000" pt_clust_5="550.00000" pt_clust_6="33.05588"></scales>
<mgrwt>
<rscale>  0 0.30000000E+03</rscale>
<asrwt>  1 0.33055882E+02</asrwt>
<pdfrwt beam="1">  1        1 0.82536807E+00 0.30000000E+03</pdfrwt>
<pdfrwt beam="2">0</pdfrwt>
<totfact> 0.65525585E-04</totfact>
</mgrwt>
<clustering>
<clus scale="   33.056">  1  6  2 -1</clus>
<clus scale="  465.408">  4  5 -1 -1</clus>
<clus scale="  300.000">  1  4  2 -1</clus>
</clustering>
</event>
<event>
 6    1  0.1007353E-011  0.3000000E+03  0.7818608E-02  0.1093470E+00
          1   -1    0    0  502    0  0.00000000000E+00  0.00000000000E+00  0.22496827069E+03  0.22496827069E+03  0.00000000000E+00 0.  1.
         13   -1    0    0    0    0 -0.00000000000E+00 -0.00000000000E+00 -0.27500000000E+03  0.27500000000E+03  0.00000000000E+00 0.  1.
    9000005    2    1    2  501    0  0.29773839210E+02 -0.23111315158E+02 -0.58088972703E+02  0.46142565063E+03  0.45620027173E+03 0.  0.
         13    1    3    3    0    0  0.19909321403E+03 -0.14516798848E+03 -0.68086076352E+01  0.24649180492E+03  0.00000000000E+00 0.  1.
          3    1    3    3  501    0 -0.16931937482E+03  0.12205667332E+03 -0.51280365067E+02  0.21493384572E+03  0.00000000000E+00 0.  1.
         21    1    1    2  502  501 -0.29773839210E+02  0.23111315158E+02  0.80572433891E+01  0.38542620054E+02  0.00000000000E+00 0.  1.
<scales pt_clust_4="550.00000" pt_clust_5="550.00000" pt_clust_6="37.69104"></scales>
<mgrwt>
<rscale>  0 0.30000000E+03</rscale>
<asrwt>  1 0.37691039E+02</asrwt>
<pdfrwt beam="1">  1        1 0.81806644E+00 0.30000000E+03</pdfrwt>
<pdfrwt beam="2">0</pdfrwt>
<totfact> 0.74098756E-04</totfact>
</mgrwt>
<clustering>
<clus scale="   37.691">  1  6  2 -1</clus>
<clus scale="  456.200">  4  5 -1 -1</clus>
<clus scale="  300.000">  1  4  2 -1</clus>
</clustering>
</event>
<event>
 6    1  0.1007353E-011  0.3000000E+03  0.7818608E-02  0.1093470E+00
          1   -1    0    0  502    0  0.00000000000E+00  0.00000000000E+00  0.23011896238E+03  0.23011896238E+03  0.00000000000E+00 0.  1.
         13   -1    0    0    0    0 -0.00000000000E+00 -0.00000000000E+00 -0.27500000000E+03  0.27500000000E+03  0.00000000000E+00 0.  1.
    9000005    2    1    2  501    0  0.34378344806E+02 -0.61068872680E+01 -0.24437521563E+02  0.46465784509E+03  0.46269920670E+03 0.  0.
         13    1    3    3    0    0  0.15665005845E+03  0.13674672811E+03  0.10833742494E+03  0.23446941401E+03  0.00000000000E+00 0.  1.
          1    1    3    3  501    0 -0.12227171364E+03 -0.14285361538E+03 -0.13277494650E+03  0.23018843108E+03  0.00000000000E+00 0.  1.
         21    1    1    2  502  501 -0.34378344806E+02  0.61068872680E+01 -0.20443516058E+02  0.40461117292E+02  0.00000000000E+00 0.  1.
<scales pt_clust_4="550.00000" pt_clust_5="550.00000" pt_clust_6="34.91656"></scales>
<mgrwt>
<rscale>  0 0.30000000E+03</rscale>
<asrwt>  1 0.34916556E+02</asrwt>
<pdfrwt beam="1">  1        1 0.83679623E+00 0.30000000E+03</pdfrwt>
<pdfrwt beam="2">0</pdfrwt>
<totfact> 0.52521082E-04</totfact>
</mgrwt>
<clustering>
<clus scale="   34.917">  1  6  2 -1</clus>
<clus scale="  462.699">  4  5 -1 -1</clus>
<clus scale="  300.000">  1  4  2 -1</clus>
</clustering>
</event>
<event>
 6    1  0.1007353E-011  0.3000000E+03  0.7818608E-02  0.1093470E+00
          1   -1    0    0  502    0  0.00000000000E+00  0.00000000000E+00  0.22541334755E+03  0.22541334755E+03  0.00000000000E+00 0.  1.
         13   -1    0    0    0    0 -0.00000000000E+00 -0.00000000000E+00 -0.27500000000E+03  0.27500000000E+03  0.00000000000E+00 0.  1.
    9000005    2    1    2  501    0 -0.29302529284E+02 -0.13201944818E+02 -0.42811615446E+02  0.46756778931E+03  0.46449313624E+03 0.  0.
         13    1    3    3    0    0  0.10691547956E+03  0.84696189421E+02 -0.19707451477E+03  0.23967212738E+03  0.00000000000E+00 0.  1.
          1    1    3    3  501    0 -0.13621800885E+03 -0.97898134239E+02  0.15426289932E+03  0.22789566193E+03  0.00000000000E+00 0.  1.
         21    1    1    2  502  501  0.29302529284E+02  0.13201944818E+02 -0.67750370051E+01  0.32845558236E+02  0.00000000000E+00 0. -1.
<scales pt_clust_4="550.00000" pt_clust_5="550.00000" pt_clust_6="32.13924"></scales>
<mgrwt>
<rscale>  0 0.30000000E+03</rscale>
<asrwt>  1 0.32139238E+02</asrwt>
<pdfrwt beam="1">  1        1 0.81968490E+00 0.30000000E+03</pdfrwt>
<pdfrwt beam="2">0</pdfrwt>
<totfact> 0.73963232E-04</totfact>
</mgrwt>
<clustering>
<clus scale="   32.139">  1  6  2 -1</clus>
<clus scale="  464.493">  4  5 -1 -1</clus>
<clus scale="  300.000">  1  4  2 -1</clus>
</clustering>
</event>
<event>
 6    1  0.1007353E-011  0.3000000E+03  0.7818608E-02  0.1093470E+00
          1   -1    0    0  502    0  0.00000000000E+00  0.00000000000E+00  0.23450173686E+03  0.23450173686E+03  0.00000000000E+00 0.  1.
         13   -1    0    0    0    0 -0.00000000000E+00 -0.00000000000E+00 -0.27500000000E+03  0.27500000000E+03  0.00000000000E+00 0.  1.
    9000005    2    1    2  501    0 -0.34221188651E+02  0.20836912113E+01 -0.38351329808E+02  0.47515001428E+03  0.47235715306E+03 0.  0.
         13    1    3    3    0    0 -0.15862668190E+03 -0.17690766540E+03 -0.84778897729E+02  0.25228200052E+03  0.00000000000E+00 0.  1.
          3    1    3    3  501    0  0.12440549325E+03  0.17899135661E+03  0.46427567921E+02  0.22286801375E+03  0.00000000000E+00 0.  1.
         21    1    1    2  502  501  0.34221188651E+02 -0.20836912113E+01 -0.21469333293E+01  0.34351722584E+02  0.00000000000E+00 0. -1.
<scales pt_clust_4="550.00000" pt_clust_5="550.00000" pt_clust_6="34.28457"></scales>
<mgrwt>
<rscale>  0 0.30000000E+03</rscale>
<asrwt>  1 0.34284567E+02</asrwt>
<pdfrwt beam="1">  1        1 0.85273359E+00 0.30000000E+03</pdfrwt>
<pdfrwt beam="2">0</pdfrwt>
<totfact> 0.38481450E-04</totfact>
</mgrwt>
<clustering>
<clus scale="   34.285">  1  6  2 -1</clus>
<clus scale="  472.357">  4  5 -1 -1</clus>
<clus scale="  300.000">  1  4  2 -1</clus>
</clustering>
</event>
<event>
 6    1  0.1007353E-011  0.3000000E+03  0.7818608E-02  0.1093470E+00
          1   -1    0    0  502    0  0.00000000000E+00  0.00000000000E+00  0.23386514331E+03  0.23386514331E+03  0.00000000000E+00 0.  1.
         13   -1    0    0    0    0 -0.00000000000E+00 -0.00000000000E+00 -0.27500000000E+03  0.27500000000E+03  0.00000000000E+00 0.  1.
    9000005    2    1    2  501    0  0.29880970735E+02 -0.11576423476E+02 -0.60585250134E+02  0.47137909527E+03  0.46636980276E+03 0.  0.
         13    1    3    3    0    0  0.20030105404E+03  0.13573305472E+03 -0.39053922978E+02  0.24509015340E+03  0.00000000000E+00 0.  1.
          1    1    3    3  501    0 -0.17042008331E+03 -0.14730947820E+03 -0.21531327156E+02  0.22628894187E+03  0.00000000000E+00 0.  1.
         21    1    1    2  502  501 -0.29880970735E+02  0.11576423476E+02  0.19450393440E+02  0.37486048039E+02  0.00000000000E+00 0. -1.
<scales pt_clust_4="550.00000" pt_clust_5="550.00000" pt_clust_6="32.04506"></scales>
<mgrwt>
<rscale>  0 0.30000000E+03</rscale>
<asrwt>  1 0.32045062E+02</asrwt>
<pdfrwt beam="1">  1        1 0.85041870E+00 0.30000000E+03</pdfrwt>
<pdfrwt beam="2">0</pdfrwt>
<totfact> 0.41007722E-04</totfact>
</mgrwt>
<clustering>
<clus scale="   32.045">  1  6  2 -1</clus>
<clus scale="  466.370">  4  5 -1 -1</clus>
<clus scale="  300.000">  1  4  2 -1</clus>
</clustering>
</event>
<event>
 6    1  0.1007353E-011  0.3000000E+03  0.7818608E-02  0.1093470E+00
          1   -1    0    0  502    0  0.00000000000E+00  0.00000000000E+00  0.25358723207E+03  0.25358723207E+03  0.00000000000E+00 0.  1.
         13   -1    0    0    0    0 -0.00000000000E+00 -0.00000000000E+00 -0.27500000000E+03  0.27500000000E+03  0.00000000000E+00 0.  1.
    9000005    2    1    2  501    0 -0.28557929191E+02  0.16699913103E+02 -0.54520062665E+02  0.48178407639E+03  0.47754477969E+03 0.  0.
         13    1    3    3    0    0 -0.16226117919E+03 -0.16719670437E+03 -0.93598577269E+02  0.25108588549E+03  0.00000000000E+00 0.  1.
          3    1    3    3  501    0  0.13370325000E+03  0.18389661747E+03  0.39078514604E+02  0.23069819090E+03  0.00000000000E+00 0.  1.
         21    1    1    2  502  501  0.28557929191E+02 -0.16699913103E+02  0.33107294736E+02  0.46803155685E+02  0.00000000000E+00 0. -1.
<scales pt_clust_4="550.00000" pt_clust_5="550.00000" pt_clust_6="33.08236"></scales>
<mgrwt>
<rscale>  0 0.30000000E+03</rscale>
<asrwt>  1 0.33082358E+02</asrwt>
<pdfrwt beam="1">  1        1 0.92213539E+00 0.30000000E+03</pdfrwt>
<pdfrwt beam="2">0</pdfrwt>
<totfact> 0.38025834E-05</totfact>
</mgrwt>
<clustering>
<clus scale="   33.082">  1  6  2 -1</clus>
<clus scale="  477.545">  4  5 -1 -1</clus>
<clus scale="  300.000">  1  4  2 -1</clus>
</clustering>
</event>
<event>
 6    1  0.1007353E-011  0.3000000E+03  0.7818608E-02  0.1093470E+00
          1   -1    0    0  502    0  0.00000000000E+00  0.00000000000E+00  0.23421363436E+03  0.23421363436E+03  0.00000000000E+00 0.  1.
         13   -1    0    0    0    0 -0.00000000000E+00 -0.00000000000E+00 -0.27500000000E+03  0.27500000000E+03  0.00000000000E+00 0.  1.
    9000005    2    1    2  501    0  0.68593879907E+01  0.33353465760E+02 -0.53141668727E+02  0.47298990738E+03  0.46875997125E+03 0.  0.
         13    1    3    3    0    0  0.13041108945E+03 -0.32477491004E+02  0.16560764381E+03  0.21327853001E+03  0.00000000000E+00 0.  1.
          3    1    3    3  501    0 -0.12355170146E+03  0.65830956764E+02 -0.21874931254E+03  0.25971137737E+03  0.00000000000E+00 0.  1.
         21    1    1    2  502  501 -0.68593879907E+01 -0.33353465760E+02  0.12355303083E+02  0.36223726977E+02  0.00000000000E+00 0.  1.
<scales pt_clust_4="550.00000" pt_clust_5="550.00000" pt_clust_6="34.05150"></scales>
<mgrwt>
<rscale>  0 0.30000000E+03</rscale>
<asrwt>  1 0.34051503E+02</asrwt>
<pdfrwt beam="1">  1        1 0.85168594E+00 0.30000000E+03</pdfrwt>
<pdfrwt beam="2">0</pdfrwt>
<totfact> 0.39432634E-04</totfact>
</mgrwt>
<clustering>
<clus scale="   34.052">  1  6  2 -1</clus>
<clus scale="  468.760">  4  5 -1 -1</clus>
<clus scale="  300.000">  1  4  2 -1</clus>
</clustering>
</event>
<event>
 6    1  0.1007353E-011  0.3000000E+03  0.7818608E-02  0.1093470E+00
          1   -1    0    0  502    0  0.00000000000E+00  0.00000000000E+00  0.24023146560E+03  0.24023146560E+03  0.00000000000E+00 0.  1.
         13   -1    0    0    0    0 -0.00000000000E+00 -0.00000000000E+00 -0.27500000000E+03  0.27500000000E+03  0.00000000000E+00 0.  1.
    9000005    2    1    2  501    0 -0.47037706581E+01 -0.39131145179E+02 -0.45051667543E+02  0.47449923256E+03  0.47070850530E+03 0.  0.
         13    1    3    3    0    0  0.22593362821E+03  0.29631146118E+02 -0.52011867516E+02  0.23372899593E+03  0.00000000000E+00 0.  1.
          3    1    3    3  501    0 -0.23063739887E+03 -0.68762291297E+02  0.69601999723E+01  0.24077023663E+03  0.00000000000E+00 0.  1.
         21    1    1    2  502  501  0.47037706581E+01  0.39131145179E+02  0.10283133141E+02  0.40732233042E+02  0.00000000000E+00 0. -1.
<scales pt_clust_4="550.00000" pt_clust_5="550.00000" pt_clust_6="39.41284"></scales>
<mgrwt>
<rscale>  0 0.30000000E+03</rscale>
<asrwt>  1 0.39412840E+02</asrwt>
<pdfrwt beam="1">  1        1 0.87356897E+00 0.30000000E+03</pdfrwt>
<pdfrwt beam="2">0</pdfrwt>
<totfact> 0.22775259E-04</totfact>
</mgrwt>
<clustering>
<clus scale="   39.413">  1  6  2 -1</clus>
<clus scale="  470.709">  4  5 -1 -1</clus>
<clus scale="  300.000">  1  4  2 -1</clus>
</clustering>
</event>
<event>
 6    1  0.1007353E-011  0.3000000E+03  0.7818608E-02  0.1093470E+00
          1   -1    0    0  502    0  0.00000000000E+00  0.00000000000E+00  0.22499090989E+03  0.22499090989E+03  0.00000000000E+00 0.  1.
         13   -1    0    0    0    0 -0.00000000000E+00 -0.00000000000E+00 -0.27500000000E+03  0.27500000000E+03  0.00000000000E+00 0.  1.
    9000005    2    1    2  501    0  0.29911089381E+01 -0.30122222520E+02 -0.37217963373E+02  0.46712895703E+03  0.46465900473E+03 0.  0.
         13    1    3    3    0    0 -0.57824522074E+02 -0.34400502205E+02 -0.24318873535E+03  0.25232485194E+03  0.00000000000E+00 0.  1.
          3    1    3    3  501    0  0.60815631012E+02  0.42782796847E+01  0.20597077198E+03  0.21480410509E+03  0.00000000000E+00 0.  1.
         21    1    1    2  502  501 -0.29911089381E+01  0.30122222520E+02 -0.12791126741E+02  0.32861952856E+02  0.00000000000E+00 0.  1.
<scales pt_clust_4="550.00000" pt_clust_5="550.00000" pt_clust_6="30.27038"></scales>
<mgrwt>
<rscale>  0 0.30000000E+03</rscale>
<asrwt>  1 0.30270381E+02</asrwt>
<pdfrwt beam="1">  1        1 0.81814876E+00 0.30000000E+03</pdfrwt>
<pdfrwt beam="2">0</pdfrwt>
<totfact> 0.77099904E-04</totfact>
</mgrwt>
<clustering>
<clus scale="   30.270">  1  6  2 -1</clus>
<clus scale="  464.659">  4  5 -1 -1</clus>
<clus scale="  300.000">  1  4  2 -1</clus>
</clustering>
</event>
<event>
 6    1  0.1007353E-011  0.3000000E+03  0.7818608E-02  0.1093470E+00
          1   -1    0    0  502    0  0.00000000000E+00  0.00000000000E+00  0.23238410926E+03  0.23238410926E+03  0.00000000000E+00 0.  1.
         13   -1    0    0    0    0 -0.00000000000E+00 -0.00000000000E+00 -0.27500000000E+03  0.27500000000E+03  0.00000000000E+00 0.  1.
    9000005    2    1    2  501    0  0.56740733446E+01 -0.29917545651E+02 -0.42617978499E+02  0.47693325294E+03  0.47404828976E+03 0.  0.
         13    1    3    3    0    0 -0.22309795112E+03 -0.28550464998E+02  0.49512910290E+02  0.23030274234E+03  0.00000000000E+00 0.  1.
          1    1    3    3  501    0  0.22877202447E+03 -0.13670806526E+01 -0.92130888789E+02  0.24663051060E+03  0.00000000000E+00 0.  1.
         21    1    1    2  502  501 -0.56740733446E+01  0.29917545651E+02  0.20877561721E-02  0.30450856317E+02  0.00000000000E+00 0.  1.
<scales pt_clust_4="550.00000" pt_clust_5="550.00000" pt_clust_6="30.45086"></scales>
<mgrwt>
<rscale>  0 0.30000000E+03</rscale>
<asrwt>  1 0.30450856E+02</asrwt>
<pdfrwt beam="1">  1        1 0.84503312E+00 0.30000000E+03</pdfrwt>
<pdfrwt beam="2">0</pdfrwt>
<totfact> 0.46359527E-04</totfact>
</mgrwt>
<clustering>
<clus scale="   30.451">  1  6  2 -1</clus>
<clus scale="  474.048">  4  5 -1 -1</clus>
<clus scale="  300.000">  1  4  2 -1</clus>
</clustering>
</event>
<event>
 6    1  0.1007353E-011  0.3000000E+03  0.7818608E-02  0.1093470E+00
          1   -1    0    0  502    0  0.00000000000E+00  0.00000000000E+00  0.23119348472E+03  0.23119348472E+03  0.00000000000E+00 0.  1.
         13   -1    0    0    0    0 -0.00000000000E+00 -0.00000000000E+00 -0.27500000000E+03  0.27500000000E+03  0.00000000000E+00 0.  1.
    9000005    2    1    2  501    0  0.29538939278E+02  0.26456187589E+02 -0.50593510879E+02  0.46596237605E+03  0.46150704627E+03 0.  0.
         13    1    3    3    0    0 -0.49261701005E+02  0.23358138831E+03 -0.52145117282E+02  0.24434830347E+03  0.00000000000E+00 0.  1.
          3    1    3    3  501    0  0.78800640284E+02 -0.20712520072E+03  0.15516064026E+01  0.22161407258E+03  0.00000000000E+00 0.  1.
         21    1    1    2  502  501 -0.29538939278E+02 -0.26456187589E+02  0.67869955953E+01  0.40231108668E+02  0.00000000000E+00 0.  1.
<scales pt_clust_4="550.00000" pt_clust_5="550.00000" pt_clust_6="39.65449"></scales>
<mgrwt>
<rscale>  0 0.30000000E+03</rscale>
<asrwt>  1 0.39654493E+02</asrwt>
<pdfrwt beam="1">  1        1 0.84070358E+00 0.30000000E+03</pdfrwt>
<pdfrwt beam="2">0</pdfrwt>
<totfact> 0.47963057E-04</totfact>
</mgrwt>
<clustering>
<clus scale="   39.654">  1  6  2 -1</clus>
<clus scale="  461.507">  4  5 -1 -1</clus>
<clus scale="  300.000">  1  4  2 -1</clus>
</clustering>
</event>
<event>
 6    1  0.1007353E-011  0.3000000E+03  0.7818608E-02  0.1093470E+00
          1   -1    0    0  502    0  0.00000000000E+00  0.00000000000E+00  0.23753154883E+03  0.23753154883E+03  0.00000000000E+00 0.  1.
         13   -1    0    0    0    0 -0.00000000000E+00 -0.00000000000E+00 -0.27500000000E+03  0.27500000000E+03  0.00000000000E+00 0.  1.
    9000005    2    1    2  501    0  0.36754815235E+02  0.27291800470E+02 -0.39298003019E+02  0.46671554643E+03  0.46279942677E+03 0.  0.
         13    1    3    3    0    0 -0.15569347086E+03 -0.13981560209E+03 -0.32368048003E+02  0.21174642852E+03  0.00000000000E+00 0.  1.
          3    1    3    3  501    0  0.19244828610E+03  0.16710740256E+03 -0.69299550161E+01  0.25496911791E+03  0.00000000000E+00 0.  1.
         21    1    1    2  502  501 -0.36754815235E+02 -0.27291800470E+02  0.18295518473E+01  0.45816002399E+02  0.00000000000E+00 0. -1.
<scales pt_clust_4="550.00000" pt_clust_5="550.00000" pt_clust_6="45.77946"></scales>
<mgrwt>
<rscale>  0 0.30000000E+03</rscale>
<asrwt>  1 0.45779458E+02</asrwt>
<pdfrwt beam="1">  1        1 0.86375109E+00 0.30000000E+03</pdfrwt>
<pdfrwt beam="2">0</pdfrwt>
<totfact> 0.28061576E-04</totfact>
</mgrwt>
<clustering>
<clus scale="   45.779">  1  6  2 -1</clus>
<clus scale="  462.799">  4  5 -1 -1</clus>
<clus scale="  300.000">  1  4  2 -1</clus>
</clustering>
</event>
<event>
 6    1  0.1007353E-011  0.3000000E+03  0.7818608E-02  0.1093470E+00
          1   -1    0    0  502    0  0.00000000000E+00  0.00000000000E+00  0.23177056994E+03  0.23177056994E+03  0.00000000000E+00 0.  1.
         13   -1    0    0    0    0 -0.00000000000E+00 -0.00000000000E+00 -0.27500000000E+03  0.27500000000E+03  0.00000000000E+00 0.  1.
    9000005    2    1    2  501    0  0.27995843658E+02 -0.12583129330E+02 -0.23930715145E+02  0.47051394567E+03  0.46890147317E+03 0.  0.
         13    1    3    3    0    0 -0.17184644342E+03  0.42842614221E+02 -0.14629904192E+03  0.22971743376E+03  0.00000000000E+00 0.  1.
          3    1    3    3  501    0  0.19984228708E+03 -0.55425743551E+02  0.12236832677E+03  0.24079651191E+03  0.00000000000E+00 0.  1.
         21    1    1    2  502  501 -0.27995843658E+02  0.12583129330E+02 -0.19298714914E+02  0.36256624266E+02  0.00000000000E+00 0.  1.
<scales pt_clust_4="550.00000" pt_clust_5="550.00000" pt_clust_6="30.69370"></scales>
<mgrwt>
<rscale>  0 0.30000000E+03</rscale>
<asrwt>  1 0.30693702E+02</asrwt>
<pdfrwt beam="1">  1        1 0.84280207E+00 0.30000000E+03</pdfrwt>
<pdfrwt beam="2">0</pdfrwt>
<totfact> 0.48372776E-04</totfact>
</mgrwt>
<clustering>
<clus scale="   30.694">  1  6  2 -1</clus>
<clus scale="  468.901">  4  5 -1 -1</clus>
<clus scale="  300.000">  1  4  2 -1</clus>
</clustering>
</event>
<event>
 6    1  0.1007353E-011  0.3000000E+03  0.7818608E-02  0.1093470E+00
          1   -1    0    0  502    0  0.00000000000E+00  0.00000000000E+00  0.23181023868E+03  0.23181023868E+03  0.00000000000E+00 0.  1.
         13   -1    0    0    0    0 -0.00000000000E+00 -0.00000000000E+00 -0.27500000000E+03  0.27500000000E+03  0.00000000000E+00 0.  1.
    9000005    2    1    2  501    0  0.33968231417E+02  0.33833840940E+01 -0.62439205458E+02  0.46762058273E+03  0.46217428205E+03 0.  0.
         13    1    3    3    0    0  0.25817212698E+02  0.23090507042E+03 -0.59890622504E+02  0.23993867275E+03  0.00000000000E+00 0.  1.
          1    1    3    3  501    0  0.81510187196E+01 -0.22752168633E+03 -0.25485829542E+01  0.22768190998E+03  0.00000000000E+00 0.  1.
         21    1    1    2  502  501 -0.33968231417E+02 -0.33833840940E+01  0.19249444138E+02  0.39189655946E+02  0.00000000000E+00 0.  1.
<scales pt_clust_4="550.00000" pt_clust_5="550.00000" pt_clust_6="34.13632"></scales>
<mgrwt>
<rscale>  0 0.30000000E+03</rscale>
<asrwt>  1 0.34136315E+02</asrwt>
<pdfrwt beam="1">  1        1 0.84294632E+00 0.30000000E+03</pdfrwt>
<pdfrwt beam="2">0</pdfrwt>
<totfact> 0.47274398E-04</totfact>
</mgrwt>
<clustering>
<clus scale="   34.136">  1  6  2 -1</clus>
<clus scale="  462.174">  4  5 -1 -1</clus>
<clus scale="  300.000">  1  4  2 -1</clus>
</clustering>
</event>
<event>
 6    1  0.1007353E-011  0.3000000E+03  0.7818608E-02  0.1093470E+00
          1   -1    0    0  502    0  0.00000000000E+00  0.00000000000E+00  0.22730661570E+03  0.22730661570E+03  0.00000000000E+00 0.  1.
         13   -1    0    0    0    0 -0.00000000000E+00 -0.00000000000E+00 -0.27500000000E+03  0.27500000000E+03  0.00000000000E+00 0.  1.
    9000005    2    1    2  501    0  0.31541521519E+02 -0.13016897719E+02 -0.65464742421E+02  0.46383417913E+03  0.45792161559E+03 0.  0.
         13    1    3    3    0    0  0.18231972438E+03  0.11945900072E+03  0.61324932967E+02  0.22643251126E+03  0.00000000000E+00 0.  1.
          3    1    3    3  501    0 -0.15077820286E+03 -0.13247589843E+03 -0.12678967539E+03  0.23740166787E+03  0.00000000000E+00 0.  1.
         21    1    1    2  502  501 -0.31541521519E+02  0.13016897719E+02  0.17771358119E+02  0.38472436566E+02  0.00000000000E+00 0.  1.
<scales pt_clust_4="550.00000" pt_clust_5="550.00000" pt_clust_6="34.12195"></scales>
<mgrwt>
<rscale>  0 0.30000000E+03</rscale>
<asrwt>  1 0.34121946E+02</asrwt>
<pdfrwt beam="1">  1        1 0.82656951E+00 0.30000000E+03</pdfrwt>
<pdfrwt beam="2">0</pdfrwt>
<totfact> 0.63554581E-04</totfact>
</mgrwt>
<clustering>
<clus scale="   34.122">  1  6  2 -1</clus>
<clus scale="  457.922">  4  5 -1 -1</clus>
<clus scale="  300.000">  1  4  2 -1</clus>
</clustering>
</event>
<event>
 6    1  0.1007353E-011  0.3000000E+03  0.7818608E-02  0.1093470E+00
          1   -1    0    0  502    0  0.00000000000E+00  0.00000000000E+00  0.23304759387E+03  0.23304759387E+03  0.00000000000E+00 0.  1.
         13   -1    0    0    0    0 -0.00000000000E+00 -0.00000000000E+00 -0.27500000000E+03  0.27500000000E+03  0.00000000000E+00 0.  1.
    9000005    2    1    2  501    0  0.33914733267E+02 -0.19107778829E+02 -0.53512770066E+02  0.46744022559E+03  0.46273257028E+03 0.  0.
         13    1    3    3    0    0 -0.11633058662E+03  0.72136390499E+02 -0.19744330331E+03  0.24025054056E+03  0.00000000000E+00 0.  1.
          3    1    3    3  501    0  0.15024531989E+03 -0.91244169328E+02  0.14393053324E+03  0.22718968503E+03  0.00000000000E+00 0.  1.
         21    1    1    2  502  501 -0.33914733267E+02  0.19107778829E+02  0.11560363934E+02  0.40607368280E+02  0.00000000000E+00 0. -1.
<scales pt_clust_4="550.00000" pt_clust_5="550.00000" pt_clust_6="38.92706"></scales>
<mgrwt>
<rscale>  0 0.30000000E+03</rscale>
<asrwt>  1 0.38927064E+02</asrwt>
<pdfrwt beam="1">  1        1 0.84744580E+00 0.30000000E+03</pdfrwt>
<pdfrwt beam="2">0</pdfrwt>
<totfact> 0.42132457E-04</totfact>
</mgrwt>
<clustering>
<clus scale="   38.927">  1  6  2 -1</clus>
<clus scale="  462.733">  4  5 -1 -1</clus>
<clus scale="  300.000">  1  4  2 -1</clus>
</clustering>
</event>
<event>
 6    1  0.1007353E-011  0.3000000E+03  0.7818608E-02  0.1093470E+00
          1   -1    0    0  502    0  0.00000000000E+00  0.00000000000E+00  0.22937380634E+03  0.22937380634E+03  0.00000000000E+00 0.  1.
         13   -1    0    0    0    0 -0.00000000000E+00 -0.00000000000E+00 -0.27500000000E+03  0.27500000000E+03  0.00000000000E+00 0.  1.
    9000005    2    1    2  501    0  0.31657225328E+02  0.64252364490E+01 -0.54150503331E+02  0.47096531289E+03  0.46672538538E+03 0.  0.
         13    1    3    3    0    0 -0.20180404220E+02  0.13694967238E+03 -0.21607948654E+03  0.25661801570E+03  0.00000000000E+00 0.  1.
          3    1    3    3  501    0  0.51837629548E+02 -0.13052443593E+03  0.16192898321E+03  0.21434729719E+03  0.00000000000E+00 0.  1.
         21    1    1    2  502  501 -0.31657225328E+02 -0.64252364490E+01  0.85243096675E+01  0.33408493444E+02  0.00000000000E+00 0.  1.
<scales pt_clust_4="550.00000" pt_clust_5="550.00000" pt_clust_6="32.30269"></scales>
<mgrwt>
<rscale>  0 0.30000000E+03</rscale>
<asrwt>  1 0.32302687E+02</asrwt>
<pdfrwt beam="1">  1        1 0.83408657E+00 0.30000000E+03</pdfrwt>
<pdfrwt beam="2">0</pdfrwt>
<totfact> 0.55777082E-04</totfact>
</mgrwt>
<clustering>
<clus scale="   32.303">  1  6  2 -1</clus>
<clus scale="  466.725">  4  5 -1 -1</clus>
<clus scale="  300.000">  1  4  2 -1</clus>
</clustering>
</event>
<event>
 6    1  0.1007353E-011  0.3000000E+03  0.7818608E-02  0.1093470E+00
          1   -1    0    0  502    0  0.00000000000E+00  0.00000000000E+00  0.21707664542E+03  0.21707664542E+03  0.00000000000E+00 0.  1.
         13   -1    0    0    0    0 -0.00000000000E+00 -0.00000000000E+00 -0.27500000000E+03  0.27500000000E+03  0.00000000000E+00 0.  1.
    9000005    2    1    2  501    0 -0.13555778840E+02 -0.27991431459E+02 -0.52487509690E+02  0.46050406578E+03  0.45644471358E+03 0.  0.
         13    1    3    3    0    0  0.14087005726E+03 -0.18294866618E+02  0.14939232577E+03  0.20614834992E+03  0.00000000000E+00 0.  1.
          3    1    3    3  501    0 -0.15442583610E+03 -0.96965648404E+01 -0.20187983546E+03  0.25435571586E+03  0.00000000000E+00 0.  1.
         21    1    1    2  502  501  0.13555778840E+02  0.27991431459E+02 -0.54358448929E+01  0.31572579634E+02  0.00000000000E+00 0.  1.
<scales pt_clust_4="550.00000" pt_clust_5="550.00000" pt_clust_6="31.10113"></scales>
<mgrwt>
<rscale>  0 0.30000000E+03</rscale>
<asrwt>  1 0.31101131E+02</asrwt>
<pdfrwt beam="1">  1        1 0.78936962E+00 0.30000000E+03</pdfrwt>
<pdfrwt beam="2">0</pdfrwt>
<totfact> 0.12756572E-03</totfact>
</mgrwt>
<clustering>
<clus scale="   31.101">  1  6  2 -1</clus>
<clus scale="  456.445">  4  5 -1 -1</clus>
<clus scale="  300.000">  1  4  2 -1</clus>
</clustering>
</event>
<event>
 6    1  0.1007353E-011  0.3000000E+03  0.7818608E-02  0.1093470E+00
          1   -1    0    0  502    0  0.00000000000E+00  0.00000000000E+00  0.24037197868E+03  0.24037197868E+03  0.00000000000E+00 0.  1.
         13   -1    0    0    0    0 -0.00000000000E+00 -0.00000000000E+00 -0.27500000000E+03  0.27500000000E+03  0.00000000000E+00 0.  1.
    9000005    2    1    2  501    0  0.32433202797E+02 -0.25338664692E+02 -0.64322339311E+02  0.46462049503E+03  0.45830217160E+03 0.  0.
         13    1    3    3    0    0  0.11560909883E+03  0.12924647815E+03 -0.18347925584E+03  0.25245742843E+03  0.00000000000E+00 0.  1.
          3    1    3    3  501    0 -0.83175896037E+02 -0.15458514285E+03  0.11915691653E+03  0.21216306659E+03  0.00000000000E+00 0.  1.
         21    1    1    2  502  501 -0.32433202797E+02  0.25338664692E+02  0.29694317992E+02  0.50751483654E+02  0.00000000000E+00 0. -1.
<scales pt_clust_4="550.00000" pt_clust_5="550.00000" pt_clust_6="41.15775"></scales>
<mgrwt>
<rscale>  0 0.30000000E+03</rscale>
<asrwt>  1 0.41157752E+02</asrwt>
<pdfrwt beam="1">  1        1 0.87407992E+00 0.30000000E+03</pdfrwt>
<pdfrwt beam="2">0</pdfrwt>
<totfact> 0.22321828E-04</totfact>
</mgrwt>
<clustering>
<clus scale="   41.158">  1  6  2 -1</clus>
<clus scale="  458.302">  4  5 -1 -1</clus>
<clus scale="  300.000">  1  4  2 -1</clus>
</clustering>
</event>
<event>
 6    1  0.1007353E-011  0.3000000E+03  0.7818608E-02  0.1093470E+00
          1   -1    0    0  502    0  0.00000000000E+00  0.00000000000E+00  0.24778030667E+03  0.24778030667E+03  0.00000000000E+00 0.  1.
         13   -1    0    0    0    0 -0.00000000000E+00 -0.00000000000E+00 -0.27500000000E+03  0.27500000000E+03  0.00000000000E+00 0.  1.
    9000005    2    1    2  501    0  0.26726060768E+02  0.24066720260E+02 -0.23700202058E+02  0.48664339802E+03  0.48473354321E+03 0.  0.
         13    1    3    3    0    0 -0.85821637355E+02 -0.10958823930E+02 -0.23183297290E+03  0.24745095793E+03  0.00000000000E+00 0.  1.
          3    1    3    3  501    0  0.11254769812E+03  0.35025544189E+02  0.20813277084E+03  0.23919244009E+03  0.00000000000E+00 0.  1.
         21    1    1    2  502  501 -0.26726060768E+02 -0.24066720260E+02 -0.35194912685E+01  0.36136908653E+02  0.00000000000E+00 0. -1.
<scales pt_clust_4="550.00000" pt_clust_5="550.00000" pt_clust_6="35.96513"></scales>
<mgrwt>
<rscale>  0 0.30000000E+03</rscale>
<asrwt>  1 0.35965131E+02</asrwt>
<pdfrwt beam="1">  1        1 0.90101930E+00 0.30000000E+03</pdfrwt>
<pdfrwt beam="2">0</pdfrwt>
<totfact> 0.10658531E-04</totfact>
</mgrwt>
<clustering>
<clus scale="   35.965">  1  6  2 -1</clus>
<clus scale="  484.734">  4  5 -1 -1</clus>
<clus scale="  300.000">  1  4  2 -1</clus>
</clustering>
</event>
<event>
 6    1  0.1007353E-011  0.3000000E+03  0.7818608E-02  0.1093470E+00
          1   -1    0    0  502    0  0.00000000000E+00  0.00000000000E+00  0.22729021556E+03  0.22729021556E+03  0.00000000000E+00 0.  1.
         13   -1    0    0    0    0 -0.00000000000E+00 -0.00000000000E+00 -0.27500000000E+03  0.27500000000E+03  0.00000000000E+00 0.  1.
    9000005    2    1    2  501    0  0.27641788222E+02  0.20200714047E+02 -0.50109266912E+02  0.46796974324E+03  0.46401789260E+03 0.  0.
         13    1    3    3    0    0 -0.37348729831E+02 -0.20086161779E+03  0.59524889038E+02  0.21279927052E+03  0.00000000000E+00 0.  1.
          3    1    3    3  501    0  0.64990518053E+02  0.22106233184E+03 -0.10963415595E+03  0.25517047271E+03  0.00000000000E+00 0.  1.
         21    1    1    2  502  501 -0.27641788222E+02 -0.20200714047E+02  0.23994824683E+01  0.34320472320E+02  0.00000000000E+00 0.  1.
<scales pt_clust_4="550.00000" pt_clust_5="550.00000" pt_clust_6="34.23649"></scales>
<mgrwt>
<rscale>  0 0.30000000E+03</rscale>
<asrwt>  1 0.34236491E+02</asrwt>
<pdfrwt beam="1">  1        1 0.82650987E+00 0.30000000E+03</pdfrwt>
<pdfrwt beam="2">0</pdfrwt>
<totfact> 0.63591703E-04</totfact>
</mgrwt>
<clustering>
<clus scale="   34.236">  1  6  2 -1</clus>
<clus scale="  464.018">  4  5 -1 -1</clus>
<clus scale="  300.000">  1  4  2 -1</clus>
</clustering>
</event>
<event>
 6    1  0.1007353E-011  0.3000000E+03  0.7818608E-02  0.1093470E+00
          1   -1    0    0  502    0  0.00000000000E+00  0.00000000000E+00  0.24408731937E+03  0.24408731937E+03  0.00000000000E+00 0.  1.
         13   -1    0    0    0    0 -0.00000000000E+00 -0.00000000000E+00 -0.27500000000E+03  0.27500000000E+03  0.00000000000E+00 0.  1.
    9000005    2    1    2  501    0  0.33067045756E+02 -0.10229750668E+02 -0.53791354370E+02  0.47759622363E+03  0.47329331889E+03 0.  0.
         13    1    3    3    0    0 -0.86691634607E+02  0.10209235862E+03 -0.21123485297E+03  0.25011687730E+03  0.00000000000E+00 0.  1.
          3    1    3    3  501    0  0.11975868036E+03 -0.11232210929E+03  0.15744349860E+03  0.22747934633E+03  0.00000000000E+00 0.  1.
         21    1    1    2  502  501 -0.33067045756E+02  0.10229750668E+02  0.22878673739E+02  0.41491095741E+02  0.00000000000E+00 0. -1.
<scales pt_clust_4="550.00000" pt_clust_5="550.00000" pt_clust_6="34.61325"></scales>
<mgrwt>
<rscale>  0 0.30000000E+03</rscale>
<asrwt>  1 0.34613253E+02</asrwt>
<pdfrwt beam="1">  1        1 0.88759025E+00 0.30000000E+03</pdfrwt>
<pdfrwt beam="2">0</pdfrwt>
<totfact> 0.15663778E-04</totfact>
</mgrwt>
<clustering>
<clus scale="   34.613">  1  6  2 -1</clus>
<clus scale="  473.293">  4  5 -1 -1</clus>
<clus scale="  300.000">  1  4  2 -1</clus>
</clustering>
</event>
<event>
 6    1  0.1007353E-011  0.3000000E+03  0.7818608E-02  0.1093470E+00
          1   -1    0    0  502    0  0.00000000000E+00  0.00000000000E+00  0.24972546401E+03  0.24972546401E+03  0.00000000000E+00 0.  1.
         13   -1    0    0    0    0 -0.00000000000E+00 -0.00000000000E+00 -0.27500000000E+03  0.27500000000E+03  0.00000000000E+00 0.  1.
    9000005    2    1    2  501    0  0.43323327172E+02  0.62520458735E+01 -0.24077891212E+02  0.48093698706E+03  0.47833528191E+03 0.  0.
         13    1    3    3    0    0 -0.17944655088E+03  0.11229484768E+01 -0.14199290191E+03  0.22883249294E+03  0.00000000000E+00 0.  1.
          1    1    3    3  501    0  0.22276987805E+03  0.51290973967E+01  0.11791501070E+03  0.25210449412E+03  0.00000000000E+00 0.  1.
         21    1    1    2  502  501 -0.43323327172E+02 -0.62520458735E+01 -0.11966447773E+01  0.43788476949E+02  0.00000000000E+00 0.  1.
<scales pt_clust_4="550.00000" pt_clust_5="550.00000" pt_clust_6="43.77212"></scales>
<mgrwt>
<rscale>  0 0.30000000E+03</rscale>
<asrwt>  1 0.43772123E+02</asrwt>
<pdfrwt beam="1">  1        1 0.90809260E+00 0.30000000E+03</pdfrwt>
<pdfrwt beam="2">0</pdfrwt>
<totfact> 0.76490195E-05</totfact>
</mgrwt>
<clustering>
<clus scale="   43.772">  1  6  2 -1</clus>
<clus scale="  478.335">  4  5 -1 -1</clus>
<clus scale="  300.000">  1  4  2 -1</clus>
</clustering>
</event>
<event>
 6    1  0.1007353E-011  0.3000000E+03  0.7818608E-02  0.1093470E+00
          1   -1    0    0  502    0  0.00000000000E+00  0.00000000000E+00  0.23156149995E+03  0.23156149995E+03  0.00000000000E+00 0.  1.
         13   -1    0    0    0    0 -0.00000000000E+00 -0.00000000000E+00 -0.27500000000E+03  0.27500000000E+03  0.00000000000E+00 0.  1.
    9000005    2    1    2  501    0 -0.33785048489E+02 -0.11271692536E+02 -0.29849187493E+02  0.46844129573E+03  0.46613066086E+03 0.  0.
         13    1    3    3    0    0 -0.19213143585E+03 -0.15663428708E+02 -0.16993462336E+03  0.25697783534E+03  0.00000000000E+00 0.  1.
          3    1    3    3  501    0  0.15834638736E+03  0.43917361723E+01  0.14008543587E+03  0.21146346039E+03  0.00000000000E+00 0.  1.
         21    1    1    2  502  501  0.33785048489E+02  0.11271692536E+02 -0.13589312556E+02  0.38120204220E+02  0.00000000000E+00 0.  1.
<scales pt_clust_4="550.00000" pt_clust_5="550.00000" pt_clust_6="35.61575"></scales>
<mgrwt>
<rscale>  0 0.30000000E+03</rscale>
<asrwt>  1 0.35615752E+02</asrwt>
<pdfrwt beam="1">  1        1 0.84204182E+00 0.30000000E+03</pdfrwt>
<pdfrwt beam="2">0</pdfrwt>
<totfact> 0.47722793E-04</totfact>
</mgrwt>
<clustering>
<clus scale="   35.616">  1  6  2 -1</clus>
<clus scale="  466.131">  4  5 -1 -1</clus>
<clus scale="  300.000">  1  4  2 -1</clus>
</clustering>
</event>
<event>
 6    1  0.1007353E-011  0.3000000E+03  0.7818608E-02  0.1093470E+00
          1   -1    0    0  502    0  0.00000000000E+00  0.00000000000E+00  0.23996118611E+03  0.23996118611E+03  0.00000000000E+00 0.  1.
         13   -1    0    0    0    0 -0.00000000000E+00 -0.00000000000E+00 -0.27500000000E+03  0.27500000000E+03  0.00000000000E+00 0.  1.
    9000005    2    1    2  501    0 -0.27822693663E+02 -0.16952028929E+02 -0.12309649627E+02  0.47523602436E+03  0.47395809710E+03 0.  0.
         13    1    3    3    0    0  0.16719773555E+03  0.85074761320E+02 -0.12749483956E+03  0.22682092474E+03  0.00000000000E+00 0.  1.
          3    1    3    3  501    0 -0.19502042922E+03 -0.10202679025E+03  0.11518518993E+03  0.24841509962E+03  0.00000000000E+00 0.  1.
         21    1    1    2  502  501  0.27822693663E+02  0.16952028929E+02 -0.22729164265E+02  0.39725161745E+02  0.00000000000E+00 0. -1.
<scales pt_clust_4="550.00000" pt_clust_5="550.00000" pt_clust_6="32.58028"></scales>
<mgrwt>
<rscale>  0 0.30000000E+03</rscale>
<asrwt>  1 0.32580280E+02</asrwt>
<pdfrwt beam="1">  1        1 0.87258613E+00 0.30000000E+03</pdfrwt>
<pdfrwt beam="2">0</pdfrwt>
<totfact> 0.24153773E-04</totfact>
</mgrwt>
<clustering>
<clus scale="   32.580">  1  6  2 -1</clus>
<clus scale="  473.958">  4  5 -1 -1</clus>
<clus scale="  300.000">  1  4  2 -1</clus>
</clustering>
</event>
<event>
 6    1  0.1007353E-011  0.3000000E+03  0.7818608E-02  0.1093470E+00
          1   -1    0    0  502    0  0.00000000000E+00  0.00000000000E+00  0.24226223229E+03  0.24226223229E+03  0.00000000000E+00 0.  1.
         13   -1    0    0    0    0 -0.00000000000E+00 -0.00000000000E+00 -0.27500000000E+03  0.27500000000E+03  0.00000000000E+00 0.  1.
    9000005    2    1    2  501    0  0.27063253182E+01  0.33940383858E+02 -0.57112453578E+02  0.47538862289E+03  0.47071566424E+03 0.  0.
         13    1    3    3    0    0  0.17452542163E+03  0.14715204484E+03  0.63410907514E+02  0.23692570626E+03  0.00000000000E+00 0.  1.
          3    1    3    3  501    0 -0.17181909631E+03 -0.11321166098E+03 -0.12052336109E+03  0.23846291663E+03  0.00000000000E+00 0.  1.
         21    1    1    2  502  501 -0.27063253182E+01 -0.33940383858E+02  0.24374685869E+02  0.41873609402E+02  0.00000000000E+00 0.  1.
<scales pt_clust_4="550.00000" pt_clust_5="550.00000" pt_clust_6="34.04811"></scales>
<mgrwt>
<rscale>  0 0.30000000E+03</rscale>
<asrwt>  1 0.34048111E+02</asrwt>
<pdfrwt beam="1">  1        1 0.88095357E+00 0.30000000E+03</pdfrwt>
<pdfrwt beam="2">0</pdfrwt>
<totfact> 0.19302744E-04</totfact>
</mgrwt>
<clustering>
<clus scale="   34.048">  1  6  2 -1</clus>
<clus scale="  470.716">  4  5 -1 -1</clus>
<clus scale="  300.000">  1  4  2 -1</clus>
</clustering>
</event>
<event>
 6    1  0.1007353E-011  0.3000000E+03  0.7818608E-02  0.1093470E+00
          1   -1    0    0  502    0  0.00000000000E+00  0.00000000000E+00  0.22968522671E+03  0.22968522671E+03  0.00000000000E+00 0.  1.
         13   -1    0    0    0    0 -0.00000000000E+00 -0.00000000000E+00 -0.27500000000E+03  0.27500000000E+03  0.00000000000E+00 0.  1.
    9000005    2    1    2  501    0  0.28450427987E+02  0.12960306825E+02 -0.71826085198E+02  0.46369442207E+03  0.45702968628E+03 0.  0.
         13    1    3    3    0    0 -0.10641565894E+03  0.13178125720E+03  0.11477381646E+03  0.20460601448E+03  0.00000000000E+00 0.  1.
          1    1    3    3  501    0  0.13486608692E+03 -0.11882095037E+03 -0.18659990166E+03  0.25908840759E+03  0.00000000000E+00 0.  1.
         21    1    1    2  502  501 -0.28450427987E+02 -0.12960306825E+02  0.26511311905E+02  0.40990804634E+02  0.00000000000E+00 0.  1.
<scales pt_clust_4="550.00000" pt_clust_5="550.00000" pt_clust_6="31.26334"></scales>
<mgrwt>
<rscale>  0 0.30000000E+03</rscale>
<asrwt>  1 0.31263340E+02</asrwt>
<pdfrwt beam="1">  1        1 0.83521901E+00 0.30000000E+03</pdfrwt>
<pdfrwt beam="2">0</pdfrwt>
<totfact> 0.55063015E-04</totfact>
</mgrwt>
<clustering>
<clus scale="   31.263">  1  6  2 -1</clus>
<clus scale="  457.030">  4  5 -1 -1</clus>
<clus scale="  300.000">  1  4  2 -1</clus>
</clustering>
</event>
<event>
 6    1  0.1007353E-011  0.3000000E+03  0.7818608E-02  0.1093470E+00
          1   -1    0    0  502    0  0.00000000000E+00  0.00000000000E+00  0.22452717779E+03  0.22452717779E+03  0.00000000000E+00 0.  1.
         13   -1    0    0    0    0 -0.00000000000E+00 -0.00000000000E+00 -0.27500000000E+03  0.27500000000E+03  0.00000000000E+00 0.  1.
    9000005    2    1    2  501    0 -0.28075816237E+02  0.11904603854E+02 -0.44238051117E+02  0.46840092808E+03  0.46530898681E+03 0.  0.
         13    1    3    3    0    0  0.48800851072E+02  0.22731320741E+03  0.12241904730E+02  0.23281469361E+03  0.00000000000E+00 0.  1.
          3    1    3    3  501    0 -0.76876667309E+02 -0.21540860355E+03 -0.56479955847E+02  0.23558623447E+03  0.00000000000E+00 0.  1.
         21    1    1    2  502  501  0.28075816237E+02 -0.11904603854E+02 -0.62347710947E+01  0.31126249708E+02  0.00000000000E+00 0. -1.
<scales pt_clust_4="550.00000" pt_clust_5="550.00000" pt_clust_6="30.49544"></scales>
<mgrwt>
<rscale>  0 0.30000000E+03</rscale>
<asrwt>  1 0.30495442E+02</asrwt>
<pdfrwt beam="1">  1        1 0.81646246E+00 0.30000000E+03</pdfrwt>
<pdfrwt beam="2">0</pdfrwt>
<totfact> 0.79501538E-04</totfact>
</mgrwt>
<clustering>
<clus scale="   30.495">  1  6  2 -1</clus>
<clus scale="  465.309">  4  5 -1 -1</clus>
<clus scale="  300.000">  1  4  2 -1</clus>
</clustering>
</event>
<event>
 6    1  0.1007353E-011  0.3000000E+03  0.7818608E-02  0.1093470E+00
          1   -1    0    0  502    0  0.00000000000E+00  0.00000000000E+00  0.25256468382E+03  0.25256468382E+03  0.00000000000E+00 0.  1.
         13   -1    0    0    0    0 -0.00000000000E+00 -0.00000000000E+00 -0.27500000000E+03  0.27500000000E+03  0.00000000000E+00 0.  1.
    9000005    2    1    2  501    0 -0.24925840833E+02  0.25686058418E+02 -0.71448318972E+02  0.46687411140E+03  0.45998424155E+03 0.  0.
         13    1    3    3    0    0  0.11688893116E+03  0.15105760805E+02 -0.22720946385E+03  0.25595965834E+03  0.00000000000E+00 0.  1.
          3    1    3    3  501    0 -0.14181477199E+03  0.10580297613E+02  0.15576114488E+03  0.21091445305E+03  0.00000000000E+00 0.  1.
         21    1    1    2  502  501  0.24925840833E+02 -0.25686058418E+02  0.49013002791E+02  0.60690572422E+02  0.00000000000E+00 0.  1.
<scales pt_clust_4="550.00000" pt_clust_5="550.00000" pt_clust_6="35.79205"></scales>
<mgrwt>
<rscale>  0 0.30000000E+03</rscale>
<asrwt>  1 0.35792054E+02</asrwt>
<pdfrwt beam="1">  1        1 0.91841703E+00 0.30000000E+03</pdfrwt>
<pdfrwt beam="2">0</pdfrwt>
<totfact> 0.45093044E-05</totfact>
</mgrwt>
<clustering>
<clus scale="   35.792">  1  6  2 -1</clus>
<clus scale="  459.984">  4  5 -1 -1</clus>
<clus scale="  300.000">  1  4  2 -1</clus>
</clustering>
</event>
<event>
 6    1  0.1007353E-011  0.3000000E+03  0.7818608E-02  0.1093470E+00
          1   -1    0    0  502    0  0.00000000000E+00  0.00000000000E+00  0.23615618522E+03  0.23615618522E+03  0.00000000000E+00 0.  1.
         13   -1    0    0    0    0 -0.00000000000E+00 -0.00000000000E+00 -0.27500000000E+03  0.27500000000E+03  0.00000000000E+00 0.  1.
    9000005    2    1    2  501    0 -0.33235469410E+02  0.21533037146E+02 -0.50933673223E+02  0.46975047555E+03  0.46529883097E+03 0.  0.
         13    1    3    3    0    0 -0.89149148804E+02  0.12219730855E+03 -0.21891574810E+03  0.26608994290E+03  0.00000000000E+00 0.  1.
          3    1    3    3  501    0  0.55913679394E+02 -0.10066427140E+03  0.16798207488E+03  0.20366053265E+03  0.00000000000E+00 0.  1.
         21    1    1    2  502  501  0.33235469410E+02 -0.21533037146E+02  0.12089858441E+02  0.41405709664E+02  0.00000000000E+00 0. -1.
<scales pt_clust_4="550.00000" pt_clust_5="550.00000" pt_clust_6="39.60137"></scales>
<mgrwt>
<rscale>  0 0.30000000E+03</rscale>
<asrwt>  1 0.39601365E+02</asrwt>
<pdfrwt beam="1">  1        1 0.85874976E+00 0.30000000E+03</pdfrwt>
<pdfrwt beam="2">0</pdfrwt>
<totfact> 0.32595801E-04</totfact>
</mgrwt>
<clustering>
<clus scale="   39.601">  1  6  2 -1</clus>
<clus scale="  465.299">  4  5 -1 -1</clus>
<clus scale="  300.000">  1  4  2 -1</clus>
</clustering>
</event>
<event>
 6    1  0.1007353E-011  0.3000000E+03  0.7818608E-02  0.1093470E+00
          1   -1    0    0  502    0  0.00000000000E+00  0.00000000000E+00  0.23167891957E+03  0.23167891957E+03  0.00000000000E+00 0.  1.
         13   -1    0    0    0    0 -0.00000000000E+00 -0.00000000000E+00 -0.27500000000E+03  0.27500000000E+03  0.00000000000E+00 0.  1.
    9000005    2    1    2  501    0 -0.30094027184E+02 -0.11706615875E+02 -0.72472328845E+02  0.46317615401E+03  0.45633016103E+03 0.  0.
         13    1    3    3    0    0 -0.21059539622E+03 -0.78463386815E+02 -0.13335558251E+03  0.26132476990E+03  0.00000000000E+00 0.  1.
          3    1    3    3  501    0  0.18050136903E+03  0.66756770939E+02  0.60883253664E+02  0.20185138411E+03  0.00000000000E+00 0.  1.
         21    1    1    2  502  501  0.30094027184E+02  0.11706615875E+02  0.29151248417E+02  0.43502765563E+02  0.00000000000E+00 0. -1.
<scales pt_clust_4="550.00000" pt_clust_5="550.00000" pt_clust_6="32.29079"></scales>
<mgrwt>
<rscale>  0 0.30000000E+03</rscale>
<asrwt>  1 0.32290793E+02</asrwt>
<pdfrwt beam="1">  1        1 0.84246880E+00 0.30000000E+03</pdfrwt>
<pdfrwt beam="2">0</pdfrwt>
<totfact> 0.48215457E-04</totfact>
</mgrwt>
<clustering>
<clus scale="   32.291">  1  6  2 -1</clus>
<clus scale="  456.330">  4  5 -1 -1</clus>
<clus scale="  300.000">  1  4  2 -1</clus>
</clustering>
</event>
<event>
 6    1  0.1007353E-011  0.3000000E+03  0.7818608E-02  0.1093470E+00
          1   -1    0    0  502    0  0.00000000000E+00  0.00000000000E+00  0.22517594601E+03  0.22517594601E+03  0.00000000000E+00 0.  1.
         13   -1    0    0    0    0 -0.00000000000E+00 -0.00000000000E+00 -0.27500000000E+03  0.27500000000E+03  0.00000000000E+00 0.  1.
    9000005    2    1    2  501    0  0.14124665512E+02  0.31214299111E+02 -0.54306801602E+02  0.46562260072E+03  0.46117387063E+03 0.  0.
         13    1    3    3    0    0  0.24262248895E+02 -0.14636614913E+03 -0.19060157496E+03  0.24153812683E+03  0.00000000000E+00 0.  1.
          3    1    3    3  501    0 -0.10137583383E+02  0.17758044824E+03  0.13629477336E+03  0.22408447389E+03  0.00000000000E+00 0.  1.
         21    1    1    2  502  501 -0.14124665512E+02 -0.31214299111E+02  0.44827476153E+01  0.34553345294E+02  0.00000000000E+00 0. -1.
<scales pt_clust_4="550.00000" pt_clust_5="550.00000" pt_clust_6="34.26133"></scales>
<mgrwt>
<rscale>  0 0.30000000E+03</rscale>
<asrwt>  1 0.34261329E+02</asrwt>
<pdfrwt beam="1">  1        1 0.81882162E+00 0.30000000E+03</pdfrwt>
<pdfrwt beam="2">0</pdfrwt>
<totfact> 0.74328875E-04</totfact>
</mgrwt>
<clustering>
<clus scale="   34.261">  1  6  2 -1</clus>
<clus scale="  461.174">  4  5 -1 -1</clus>
<clus scale="  300.000">  1  4  2 -1</clus>
</clustering>
</event>
<event>
 6    1  0.1007353E-011  0.3000000E+03  0.7818608E-02  0.1093470E+00
          1   -1    0    0  502    0  0.00000000000E+00  0.00000000000E+00  0.23603169646E+03  0.23603169646E+03  0.00000000000E+00 0.  1.
         13   -1    0    0    0    0 -0.00000000000E+00 -0.00000000000E+00 -0.27500000000E+03  0.27500000000E+03  0.00000000000E+00 0.  1.
    9000005    2    1    2  501    0  0.35523811137E+02 -0.10418022394E+02 -0.45266224322E+02  0.47347986356E+03  0.46985494973E+03 0.  0.
         13    1    3    3    0    0  0.74835718400E+02 -0.18182478095E+03 -0.16833374205E+03  0.25883756379E+03  0.00000000000E+00 0.  1.
          3    1    3    3  501    0 -0.39311907263E+02  0.17140675855E+03  0.12306751773E+03  0.21464229977E+03  0.00000000000E+00 0.  1.
         21    1    1    2  502  501 -0.35523811137E+02  0.10418022394E+02  0.62979207836E+01  0.37551832904E+02  0.00000000000E+00 0. -1.
<scales pt_clust_4="550.00000" pt_clust_5="550.00000" pt_clust_6="37.01995"></scales>
<mgrwt>
<rscale>  0 0.30000000E+03</rscale>
<asrwt>  1 0.37019945E+02</asrwt>
<pdfrwt beam="1">  1        1 0.85829708E+00 0.30000000E+03</pdfrwt>
<pdfrwt beam="2">0</pdfrwt>
<totfact> 0.33365755E-04</totfact>
</mgrwt>
<clustering>
<clus scale="   37.020">  1  6  2 -1</clus>
<clus scale="  469.855">  4  5 -1 -1</clus>
<clus scale="  300.000">  1  4  2 -1</clus>
</clustering>
</event>
<event>
 6    1  0.1007353E-011  0.3000000E+03  0.7818608E-02  0.1093470E+00
          1   -1    0    0  502    0  0.00000000000E+00  0.00000000000E+00  0.22540376761E+03  0.22540376761E+03  0.00000000000E+00 0.  1.
         13   -1    0    0    0    0 -0.00000000000E+00 -0.00000000000E+00 -0.27500000000E+03  0.27500000000E+03  0.00000000000E+00 0.  1.
    9000005    2    1    2  501    0  0.25196560325E+02  0.16371218882E+02 -0.66002761084E+02  0.46616844019E+03  0.46049296053E+03 0.  0.
         13    1    3    3    0    0 -0.17533131231E+03 -0.31281671472E+02 -0.16020222316E+03  0.23955033782E+03  0.00000000000E+00 0.  1.
          1    1    3    3  501    0  0.20052787264E+03  0.47652890354E+02  0.94199462072E+02  0.22661810236E+03  0.00000000000E+00 0.  1.
         21    1    1    2  502  501 -0.25196560325E+02 -0.16371218882E+02  0.16406528691E+02  0.34235327420E+02  0.00000000000E+00 0.  1.
<scales pt_clust_4="550.00000" pt_clust_5="550.00000" pt_clust_6="30.04802"></scales>
<mgrwt>
<rscale>  0 0.30000000E+03</rscale>
<asrwt>  1 0.30048019E+02</asrwt>
<pdfrwt beam="1">  1        1 0.81965006E+00 0.30000000E+03</pdfrwt>
<pdfrwt beam="2">0</pdfrwt>
<totfact> 0.74973296E-04</totfact>
</mgrwt>
<clustering>
<clus scale="   30.048">  1  6  2 -1</clus>
<clus scale="  460.493">  4  5 -1 -1</clus>
<clus scale="  300.000">  1  4  2 -1</clus>
</clustering>
</event>
<event>
 6    1  0.1007353E-011  0.3000000E+03  0.7818608E-02  0.1093470E+00
          1   -1    0    0  502    0  0.00000000000E+00  0.00000000000E+00  0.22783004280E+03  0.22783004280E+03  0.00000000000E+00 0.  1.
         13   -1    0    0    0    0 -0.00000000000E+00 -0.00000000000E+00 -0.27500000000E+03  0.27500000000E+03  0.00000000000E+00 0.  1.
    9000005    2    1    2  501    0 -0.14477704863E+02 -0.35370948820E+02 -0.55488794274E+02  0.46371596594E+03  0.45879492457E+03 0.  0.
         13    1    3    3    0    0 -0.16741625523E+03 -0.82967418144E+02  0.12315254155E+03  0.22378191053E+03  0.00000000000E+00 0.  1.
          1    1    3    3  501    0  0.15293855036E+03  0.47596469324E+02 -0.17864133583E+03  0.23993405541E+03  0.00000000000E+00 0.  1.
         21    1    1    2  502  501  0.14477704863E+02  0.35370948820E+02  0.83188370723E+01  0.39114076862E+02  0.00000000000E+00 0. -1.
<scales pt_clust_4="550.00000" pt_clust_5="550.00000" pt_clust_6="38.21921"></scales>
<mgrwt>
<rscale>  0 0.30000000E+03</rscale>
<asrwt>  1 0.38219209E+02</asrwt>
<pdfrwt beam="1">  1        1 0.82847288E+00 0.30000000E+03</pdfrwt>
<pdfrwt beam="2">0</pdfrwt>
<totfact> 0.59894195E-04</totfact>
</mgrwt>
<clustering>
<clus scale="   38.219">  1  6  2 -1</clus>
<clus scale="  458.795">  4  5 -1 -1</clus>
<clus scale="  300.000">  1  4  2 -1</clus>
</clustering>
</event>
<event>
 6    1  0.1007353E-011  0.3000000E+03  0.7818608E-02  0.1093470E+00
          1   -1    0    0  502    0  0.00000000000E+00  0.00000000000E+00  0.22253222265E+03  0.22253222265E+03  0.00000000000E+00 0.  1.
         13   -1    0    0    0    0 -0.00000000000E+00 -0.00000000000E+00 -0.27500000000E+03  0.27500000000E+03  0.00000000000E+00 0.  1.
    9000005    2    1    2  501    0  0.32589041303E+02 -0.22315415371E+01 -0.60901651907E+02  0.46379566042E+03  0.45861789982E+03 0.  0.
         13    1    3    3    0    0  0.24174210974E+03 -0.46041431897E+02 -0.32422953145E+02  0.24821424005E+03  0.00000000000E+00 0.  1.
          1    1    3    3  501    0 -0.20915306843E+03  0.43809890360E+02 -0.28478698762E+02  0.21558142038E+03  0.00000000000E+00 0.  1.
         21    1    1    2  502  501 -0.32589041303E+02  0.22315415371E+01  0.84338745530E+01  0.33736562224E+02  0.00000000000E+00 0.  1.
<scales pt_clust_4="550.00000" pt_clust_5="550.00000" pt_clust_6="32.66535"></scales>
<mgrwt>
<rscale>  0 0.30000000E+03</rscale>
<asrwt>  1 0.32665355E+02</asrwt>
<pdfrwt beam="1">  1        1 0.80920808E+00 0.30000000E+03</pdfrwt>
<pdfrwt beam="2">0</pdfrwt>
<totfact> 0.89617572E-04</totfact>
</mgrwt>
<clustering>
<clus scale="   32.665">  1  6  2 -1</clus>
<clus scale="  458.618">  4  5 -1 -1</clus>
<clus scale="  300.000">  1  4  2 -1</clus>
</clustering>
</event>
<event>
 6    1  0.1007353E-011  0.3000000E+03  0.7818608E-02  0.1093470E+00
          1   -1    0    0  502    0  0.00000000000E+00  0.00000000000E+00  0.24600549461E+03  0.24600549461E+03  0.00000000000E+00 0.  1.
         13   -1    0    0    0    0 -0.00000000000E+00 -0.00000000000E+00 -0.27500000000E+03  0.27500000000E+03  0.00000000000E+00 0.  1.
    9000005    2    1    2  501    0 -0.23239788963E+02  0.26849596779E+02 -0.56410655915E+02  0.47614310560E+03  0.47145424621E+03 0.  0.
         13    1    3    3    0    0  0.19305969557E+02 -0.16900356744E+03 -0.17436010392E+03  0.24359058296E+03  0.00000000000E+00 0.  1.
          3    1    3    3  501    0 -0.42545758519E+02  0.19585316422E+03  0.11794944801E+03  0.23255252264E+03  0.00000000000E+00 0.  1.
         21    1    1    2  502  501  0.23239788963E+02 -0.26849596779E+02  0.27416150524E+02  0.44862389011E+02  0.00000000000E+00 0.  1.
<scales pt_clust_4="550.00000" pt_clust_5="550.00000" pt_clust_6="35.51040"></scales>
<mgrwt>
<rscale>  0 0.30000000E+03</rscale>
<asrwt>  1 0.35510402E+02</asrwt>
<pdfrwt beam="1">  1        1 0.89456543E+00 0.30000000E+03</pdfrwt>
<pdfrwt beam="2">0</pdfrwt>
<totfact> 0.12717622E-04</totfact>
</mgrwt>
<clustering>
<clus scale="   35.510">  1  6  2 -1</clus>
<clus scale="  471.454">  4  5 -1 -1</clus>
<clus scale="  300.000">  1  4  2 -1</clus>
</clustering>
</event>
<event>
 6    1  0.1007353E-011  0.3000000E+03  0.7818608E-02  0.1093470E+00
          1   -1    0    0  502    0  0.00000000000E+00  0.00000000000E+00  0.24075610192E+03  0.24075610192E+03  0.00000000000E+00 0.  1.
         13   -1    0    0    0    0 -0.00000000000E+00 -0.00000000000E+00 -0.27500000000E+03  0.27500000000E+03  0.00000000000E+00 0.  1.
    9000005    2    1    2  501    0 -0.14541095982E+02  0.39635201357E+02 -0.22872465870E+02  0.47203308591E+03  0.46958459497E+03 0.  0.
         13    1    3    3    0    0 -0.11789532478E+03 -0.14907662315E+03 -0.13139013085E+03  0.23105521777E+03  0.00000000000E+00 0.  1.
          3    1    3    3  501    0  0.10335422880E+03  0.18871182451E+03  0.10851766498E+03  0.24097786814E+03  0.00000000000E+00 0.  1.
         21    1    1    2  502  501  0.14541095982E+02 -0.39635201357E+02 -0.11371432208E+02  0.43723016015E+02  0.00000000000E+00 0. -1.
<scales pt_clust_4="550.00000" pt_clust_5="550.00000" pt_clust_6="42.21841"></scales>
<mgrwt>
<rscale>  0 0.30000000E+03</rscale>
<asrwt>  1 0.42218414E+02</asrwt>
<pdfrwt beam="1">  1        1 0.87547673E+00 0.30000000E+03</pdfrwt>
<pdfrwt beam="2">0</pdfrwt>
<totfact> 0.21478512E-04</totfact>
</mgrwt>
<clustering>
<clus scale="   42.218">  1  6  2 -1</clus>
<clus scale="  469.585">  4  5 -1 -1</clus>
<clus scale="  300.000">  1  4  2 -1</clus>
</clustering>
</event>
<event>
 6    1  0.1007353E-011  0.3000000E+03  0.7818608E-02  0.1093470E+00
          1   -1    0    0  502    0  0.00000000000E+00  0.00000000000E+00  0.23587322105E+03  0.23587322105E+03  0.00000000000E+00 0.  1.
         13   -1    0    0    0    0 -0.00000000000E+00 -0.00000000000E+00 -0.27500000000E+03  0.27500000000E+03  0.00000000000E+00 0.  1.
    9000005    2    1    2  501    0  0.10818490777E+02  0.44997653363E+02 -0.40328039692E+02  0.46457773986E+03  0.46050439416E+03 0.  0.
         13    1    3    3    0    0  0.13506257687E+03  0.18973427177E+03  0.71299511324E+02  0.24356644652E+03  0.00000000000E+00 0.  1.
          1    1    3    3  501    0 -0.12424408610E+03 -0.14473661841E+03 -0.11162755102E+03  0.22101129334E+03  0.00000000000E+00 0.  1.
         21    1    1    2  502  501 -0.10818490777E+02 -0.44997653363E+02  0.12012607404E+01  0.46295481186E+02  0.00000000000E+00 0. -1.
<scales pt_clust_4="550.00000" pt_clust_5="550.00000" pt_clust_6="46.27989"></scales>
<mgrwt>
<rscale>  0 0.30000000E+03</rscale>
<asrwt>  1 0.46279894E+02</asrwt>
<pdfrwt beam="1">  1        1 0.85772080E+00 0.30000000E+03</pdfrwt>
<pdfrwt beam="2">0</pdfrwt>
<totfact> 0.32488279E-04</totfact>
</mgrwt>
<clustering>
<clus scale="   46.280">  1  6  2 -1</clus>
<clus scale="  460.504">  4  5 -1 -1</clus>
<clus scale="  300.000">  1  4  2 -1</clus>
</clustering>
</event>
<event>
 6    1  0.1007353E-011  0.3000000E+03  0.7818608E-02  0.1093470E+00
          1   -1    0    0  502    0  0.00000000000E+00  0.00000000000E+00  0.22718534088E+03  0.22718534088E+03  0.00000000000E+00 0.  1.
         13   -1    0    0    0    0 -0.00000000000E+00 -0.00000000000E+00 -0.27500000000E+03  0.27500000000E+03  0.00000000000E+00 0.  1.
    9000005    2    1    2  501    0 -0.88127017867E+01  0.30445683915E+02 -0.45620417378E+02  0.47041400036E+03  0.46712258120E+03 0.  0.
         13    1    3    3    0    0 -0.13727544194E+03  0.13696510682E+03  0.12582313701E+03  0.23116108940E+03  0.00000000000E+00 0.  1.
          1    1    3    3  501    0  0.12846274015E+03 -0.10651942291E+03 -0.17144355438E+03  0.23925291096E+03  0.00000000000E+00 0.  1.
         21    1    1    2  502  501  0.88127017867E+01 -0.30445683915E+02 -0.21942417383E+01  0.31771340523E+02  0.00000000000E+00 0. -1.
<scales pt_clust_4="550.00000" pt_clust_5="550.00000" pt_clust_6="31.69548"></scales>
<mgrwt>
<rscale>  0 0.30000000E+03</rscale>
<asrwt>  1 0.31695479E+02</asrwt>
<pdfrwt beam="1">  1        1 0.82612851E+00 0.30000000E+03</pdfrwt>
<pdfrwt beam="2">0</pdfrwt>
<totfact> 0.65029728E-04</totfact>
</mgrwt>
<clustering>
<clus scale="   31.695">  1  6  2 -1</clus>
<clus scale="  467.123">  4  5 -1 -1</clus>
<clus scale="  300.000">  1  4  2 -1</clus>
</clustering>
</event>
<event>
 6    1  0.1007353E-011  0.3000000E+03  0.7818608E-02  0.1093470E+00
          1   -1    0    0  502    0  0.00000000000E+00  0.00000000000E+00  0.23078147376E+03  0.23078147376E+03  0.00000000000E+00 0.  1.
         13   -1    0    0    0    0 -0.00000000000E+00 -0.00000000000E+00 -0.27500000000E+03  0.27500000000E+03  0.00000000000E+00 0.  1.
    9000005    2    1    2  501    0  0.32689707485E+02  0.12380896133E+02 -0.50653469132E+02  0.47023837240E+03  0.46619357500E+03 0.  0.
         13    1    3    3    0    0  0.13238516872E+02  0.50313341516E+02 -0.25563284391E+03  0.26087322889E+03  0.00000000000E+00 0.  1.
          1    1    3    3  501    0  0.19451190612E+02 -0.37932445383E+02  0.20497937478E+03  0.20936514351E+03  0.00000000000E+00 0.  1.
         21    1    1    2  502  501 -0.32689707485E+02 -0.12380896133E+02  0.64349428906E+01  0.35543101363E+02  0.00000000000E+00 0. -1.
<scales pt_clust_4="550.00000" pt_clust_5="550.00000" pt_clust_6="34.95574"></scales>
<mgrwt>
<rscale>  0 0.30000000E+03</rscale>
<asrwt>  1 0.34955737E+02</asrwt>
<pdfrwt beam="1">  1        1 0.83920536E+00 0.30000000E+03</pdfrwt>
<pdfrwt beam="2">0</pdfrwt>
<totfact> 0.50411007E-04</totfact>
</mgrwt>
<clustering>
<clus scale="   34.956">  1  6  2 -1</clus>
<clus scale="  466.194">  4  5 -1 -1</clus>
<clus scale="  300.000">  1  4  2 -1</clus>
</clustering>
</event>
<event>
 6    1  0.1007353E-011  0.3000000E+03  0.7818608E-02  0.1093470E+00
          1   -1    0    0  502    0  0.00000000000E+00  0.00000000000E+00  0.22853016508E+03  0.22853016508E+03  0.00000000000E+00 0.  1.
         13   -1    0    0    0    0 -0.00000000000E+00 -0.00000000000E+00 -0.27500000000E+03  0.27500000000E+03  0.00000000000E+00 0.  1.
    9000005    2    1    2  501    0  0.18828252540E+02  0.33830891734E+02 -0.49313795621E+02  0.46470851595E+03  0.46045968556E+03 0.  0.
         13    1    3    3    0    0 -0.18067145325E+03  0.12289784219E+03 -0.10019138009E+03  0.24038378955E+03  0.00000000000E+00 0.  1.
          1    1    3    3  501    0  0.19949970579E+03 -0.89066950455E+02  0.50877584473E+02  0.22432472640E+03  0.00000000000E+00 0.  1.
         21    1    1    2  502  501 -0.18828252540E+02 -0.33830891734E+02  0.28439607062E+01  0.38821649137E+02  0.00000000000E+00 0. -1.
<scales pt_clust_4="550.00000" pt_clust_5="550.00000" pt_clust_6="38.71734"></scales>
<mgrwt>
<rscale>  0 0.30000000E+03</rscale>
<asrwt>  1 0.38717339E+02</asrwt>
<pdfrwt beam="1">  1        1 0.83101878E+00 0.30000000E+03</pdfrwt>
<pdfrwt beam="2">0</pdfrwt>
<totfact> 0.56913108E-04</totfact>
</mgrwt>
<clustering>
<clus scale="   38.717">  1  6  2 -1</clus>
<clus scale="  460.460">  4  5 -1 -1</clus>
<clus scale="  300.000">  1  4  2 -1</clus>
</clustering>
</event>
<event>
 6    1  0.1007353E-011  0.3000000E+03  0.7818608E-02  0.1093470E+00
          1   -1    0    0  502    0  0.00000000000E+00  0.00000000000E+00  0.24698442620E+03  0.24698442620E+03  0.00000000000E+00 0.  1.
         13   -1    0    0    0    0 -0.00000000000E+00 -0.00000000000E+00 -0.27500000000E+03  0.27500000000E+03  0.00000000000E+00 0.  1.
    9000005    2    1    2  501    0  0.46019345408E+02 -0.13179733603E+02 -0.32723175271E+02  0.47388404116E+03  0.47032307272E+03 0.  0.
         13    1    3    3    0    0 -0.63734451865E+01  0.13196775765E+03  0.17239508676E+03  0.21720077302E+03  0.00000000000E+00 0.  1.
          1    1    3    3  501    0  0.52392790594E+02 -0.14514749125E+03 -0.20511826203E+03  0.25668326814E+03  0.00000000000E+00 0.  1.
         21    1    1    2  502  501 -0.46019345408E+02  0.13179733603E+02  0.47076014694E+01  0.48100385042E+02  0.00000000000E+00 0.  1.
<scales pt_clust_4="550.00000" pt_clust_5="550.00000" pt_clust_6="47.86946"></scales>
<mgrwt>
<rscale>  0 0.30000000E+03</rscale>
<asrwt>  1 0.47869463E+02</asrwt>
<pdfrwt beam="1">  1        1 0.89812519E+00 0.30000000E+03</pdfrwt>
<pdfrwt beam="2">0</pdfrwt>
<totfact> 0.10986659E-04</totfact>
</mgrwt>
<clustering>
<clus scale="   47.869">  1  6  2 -1</clus>
<clus scale="  470.323">  4  5 -1 -1</clus>
<clus scale="  300.000">  1  4  2 -1</clus>
</clustering>
</event>
<event>
 6    1  0.1007353E-011  0.3000000E+03  0.7818608E-02  0.1093470E+00
          1   -1    0    0  502    0  0.00000000000E+00  0.00000000000E+00  0.22869377778E+03  0.22869377778E+03  0.00000000000E+00 0.  1.
         13   -1    0    0    0    0 -0.00000000000E+00 -0.00000000000E+00 -0.27500000000E+03  0.27500000000E+03  0.00000000000E+00 0.  1.
    9000005    2    1    2  501    0 -0.86012845388E+01  0.30336984860E+02 -0.68446487572E+02  0.46516448898E+03  0.45901935188E+03 0.  0.
         13    1    3    3    0    0 -0.20552308765E+03 -0.86276018511E+02 -0.77877322784E+02  0.23611050026E+03  0.00000000000E+00 0.  1.
          3    1    3    3  501    0  0.19692180311E+03  0.11661300337E+03  0.94308352122E+01  0.22905398872E+03  0.00000000000E+00 0.  1.
         21    1    1    2  502  501  0.86012845388E+01 -0.30336984860E+02  0.22140265356E+02  0.38529288809E+02  0.00000000000E+00 0. -1.
<scales pt_clust_4="550.00000" pt_clust_5="550.00000" pt_clust_6="31.53276"></scales>
<mgrwt>
<rscale>  0 0.30000000E+03</rscale>
<asrwt>  1 0.31532757E+02</asrwt>
<pdfrwt beam="1">  1        1 0.83161374E+00 0.30000000E+03</pdfrwt>
<pdfrwt beam="2">0</pdfrwt>
<totfact> 0.58505398E-04</totfact>
</mgrwt>
<clustering>
<clus scale="   31.533">  1  6  2 -1</clus>
<clus scale="  459.019">  4  5 -1 -1</clus>
<clus scale="  300.000">  1  4  2 -1</clus>
</clustering>
</event>
<event>
 6    1  0.1007353E-011  0.3000000E+03  0.7818608E-02  0.1093470E+00
          1   -1    0    0  502    0  0.00000000000E+00  0.00000000000E+00  0.23360180951E+03  0.23360180951E+03  0.00000000000E+00 0.  1.
         13   -1    0    0    0    0 -0.00000000000E+00 -0.00000000000E+00 -0.27500000000E+03  0.27500000000E+03  0.00000000000E+00 0.  1.
    9000005    2    1    2  501    0  0.28545800837E+02 -0.21356812880E+02 -0.45408250177E+02  0.47272623592E+03  0.46918781819E+03 0.  0.
         13    1    3    3    0    0  0.16114078661E+03 -0.94764536707E+02 -0.18764820604E+03  0.26487453587E+03  0.00000000000E+00 0.  1.
          1    1    3    3  501    0 -0.13259498577E+03  0.73407723826E+02  0.14223995586E+03  0.20785170004E+03  0.00000000000E+00 0.  1.
         21    1    1    2  502  501 -0.28545800837E+02  0.21356812880E+02  0.40100596860E+01  0.35875573591E+02  0.00000000000E+00 0. -1.
<scales pt_clust_4="550.00000" pt_clust_5="550.00000" pt_clust_6="35.65075"></scales>
<mgrwt>
<rscale>  0 0.30000000E+03</rscale>
<asrwt>  1 0.35650753E+02</asrwt>
<pdfrwt beam="1">  1        1 0.84946113E+00 0.30000000E+03</pdfrwt>
<pdfrwt beam="2">0</pdfrwt>
<totfact> 0.41032421E-04</totfact>
</mgrwt>
<clustering>
<clus scale="   35.651">  1  6  2 -1</clus>
<clus scale="  469.188">  4  5 -1 -1</clus>
<clus scale="  300.000">  1  4  2 -1</clus>
</clustering>
</event>
<event>
 6    1  0.1007353E-011  0.3000000E+03  0.7818608E-02  0.1093470E+00
          1   -1    0    0  502    0  0.00000000000E+00  0.00000000000E+00  0.24702248393E+03  0.24702248393E+03  0.00000000000E+00 0.  1.
         13   -1    0    0    0    0 -0.00000000000E+00 -0.00000000000E+00 -0.27500000000E+03  0.27500000000E+03  0.00000000000E+00 0.  1.
    9000005    2    1    2  501    0  0.56811210938E+01 -0.40048424601E+02 -0.26431543323E+02  0.48154358225E+03  0.47911318462E+03 0.  0.
         13    1    3    3    0    0 -0.40902291658E+02  0.86539881517E+02  0.19787082267E+03  0.21980675836E+03  0.00000000000E+00 0.  1.
          1    1    3    3  501    0  0.46583412752E+02 -0.12658830612E+03 -0.22430236599E+03  0.26173682389E+03  0.00000000000E+00 0.  1.
         21    1    1    2  502  501 -0.56811210938E+01  0.40048424601E+02 -0.15459727436E+01  0.40478901685E+02  0.00000000000E+00 0. -1.
<scales pt_clust_4="550.00000" pt_clust_5="550.00000" pt_clust_6="40.44937"></scales>
<mgrwt>
<rscale>  0 0.30000000E+03</rscale>
<asrwt>  1 0.40449369E+02</asrwt>
<pdfrwt beam="1">  1        1 0.89826358E+00 0.30000000E+03</pdfrwt>
<pdfrwt beam="2">0</pdfrwt>
<totfact> 0.11282095E-04</totfact>
</mgrwt>
<clustering>
<clus scale="   40.449">  1  6  2 -1</clus>
<clus scale="  479.113">  4  5 -1 -1</clus>
<clus scale="  300.000">  1  4  2 -1</clus>
</clustering>
</event>
<event>
 6    1  0.1007353E-011  0.3000000E+03  0.7818608E-02  0.1093470E+00
          1   -1    0    0  502    0  0.00000000000E+00  0.00000000000E+00  0.22432635804E+03  0.22432635804E+03  0.00000000000E+00 0.  1.
         13   -1    0    0    0    0 -0.00000000000E+00 -0.00000000000E+00 -0.27500000000E+03  0.27500000000E+03  0.00000000000E+00 0.  1.
    9000005    2    1    2  501    0  0.30245781992E+02 -0.31504992654E+01 -0.56804888889E+02  0.46830499181E+03  0.46385130913E+03 0.  0.
         13    1    3    3    0    0  0.51396843705E+02  0.14609915080E+03 -0.20499360131E+03  0.25692211657E+03  0.00000000000E+00 0.  1.
          3    1    3    3  501    0 -0.21151061713E+02 -0.14924965007E+03  0.14818871242E+03  0.21138287524E+03  0.00000000000E+00 0.  1.
         21    1    1    2  502  501 -0.30245781992E+02  0.31504992654E+01  0.61312469328E+01  0.31021366231E+02  0.00000000000E+00 0.  1.
<scales pt_clust_4="550.00000" pt_clust_5="550.00000" pt_clust_6="30.40942"></scales>
<mgrwt>
<rscale>  0 0.30000000E+03</rscale>
<asrwt>  1 0.30409422E+02</asrwt>
<pdfrwt beam="1">  1        1 0.81573221E+00 0.30000000E+03</pdfrwt>
<pdfrwt beam="2">0</pdfrwt>
<totfact> 0.80643885E-04</totfact>
</mgrwt>
<clustering>
<clus scale="   30.409">  1  6  2 -1</clus>
<clus scale="  463.851">  4  5 -1 -1</clus>
<clus scale="  300.000">  1  4  2 -1</clus>
</clustering>
</event>
<event>
 6    1  0.1007353E-011  0.3000000E+03  0.7818608E-02  0.1093470E+00
          1   -1    0    0  502    0  0.00000000000E+00  0.00000000000E+00  0.24804331846E+03  0.24804331846E+03  0.00000000000E+00 0.  1.
         13   -1    0    0    0    0 -0.00000000000E+00 -0.00000000000E+00 -0.27500000000E+03  0.27500000000E+03  0.00000000000E+00 0.  1.
    9000005    2    1    2  501    0  0.41751998708E+02 -0.36972627840E+02 -0.24917749324E+02  0.46723685065E+03  0.46322691606E+03 0.  0.
         13    1    3    3    0    0  0.11551605883E+03 -0.17630869123E+03  0.12882101390E+03  0.24702948827E+03  0.00000000000E+00 0.  1.
          3    1    3    3  501    0 -0.73764060126E+02  0.13933606339E+03 -0.15373876322E+03  0.22020736238E+03  0.00000000000E+00 0.  1.
         21    1    1    2  502  501 -0.41751998708E+02  0.36972627840E+02 -0.20389322134E+01  0.55806467816E+02  0.00000000000E+00 0.  1.
<scales pt_clust_4="550.00000" pt_clust_5="550.00000" pt_clust_6="55.76921"></scales>
<mgrwt>
<rscale>  0 0.30000000E+03</rscale>
<asrwt>  1 0.55769208E+02</asrwt>
<pdfrwt beam="1">  1        1 0.90197570E+00 0.30000000E+03</pdfrwt>
<pdfrwt beam="2">0</pdfrwt>
<totfact> 0.95554520E-05</totfact>
</mgrwt>
<clustering>
<clus scale="   55.769">  1  6  2 -1</clus>
<clus scale="  463.227">  4  5 -1 -1</clus>
<clus scale="  300.000">  1  4  2 -1</clus>
</clustering>
</event>
<event>
 6    1  0.1007353E-011  0.3000000E+03  0.7818608E-02  0.1093470E+00
          1   -1    0    0  502    0  0.00000000000E+00  0.00000000000E+00  0.25379419772E+03  0.25379419772E+03  0.00000000000E+00 0.  1.
         13   -1    0    0    0    0 -0.00000000000E+00 -0.00000000000E+00 -0.27500000000E+03  0.27500000000E+03  0.00000000000E+00 0.  1.
    9000005    2    1    2  501    0  0.21020395746E+02 -0.30345224955E+02 -0.54022702857E+02  0.47940149909E+03  0.47491541898E+03 0.  0.
         13    1    3    3    0    0 -0.21103649492E+03  0.26681055093E+02  0.50424196204E+02  0.21861125417E+03  0.00000000000E+00 0.  1.
          3    1    3    3  501    0  0.23205689066E+03 -0.57026280047E+02 -0.10444689906E+03  0.26079024492E+03  0.00000000000E+00 0.  1.
         21    1    1    2  502  501 -0.21020395746E+02  0.30345224955E+02  0.32816900578E+02  0.49392698635E+02  0.00000000000E+00 0.  1.
<scales pt_clust_4="550.00000" pt_clust_5="550.00000" pt_clust_6="36.91463"></scales>
<mgrwt>
<rscale>  0 0.30000000E+03</rscale>
<asrwt>  1 0.36914627E+02</asrwt>
<pdfrwt beam="1">  1        1 0.92288799E+00 0.30000000E+03</pdfrwt>
<pdfrwt beam="2">0</pdfrwt>
<totfact> 0.35920824E-05</totfact>
</mgrwt>
<clustering>
<clus scale="   36.915">  1  6  2 -1</clus>
<clus scale="  474.915">  4  5 -1 -1</clus>
<clus scale="  300.000">  1  4  2 -1</clus>
</clustering>
</event>
<event>
 6    1  0.1007353E-011  0.3000000E+03  0.7818608E-02  0.1093470E+00
          1   -1    0    0  502    0  0.00000000000E+00  0.00000000000E+00  0.24178084587E+03  0.24178084587E+03  0.00000000000E+00 0.  1.
         13   -1    0    0    0    0 -0.00000000000E+00 -0.00000000000E+00 -0.27500000000E+03  0.27500000000E+03  0.00000000000E+00 0.  1.
    9000005    2    1    2  501    0 -0.27816099482E+02  0.14135715168E+02 -0.59945038345E+02  0.47569767753E+03  0.47087293292E+03 0.  0.
         13    1    3    3    0    0  0.97114130299E+02  0.19726864870E+03  0.54043228967E+02  0.22642160820E+03  0.00000000000E+00 0.  1.
          3    1    3    3  501    0 -0.12493022978E+03 -0.18313293353E+03 -0.11398826731E+03  0.24927606933E+03  0.00000000000E+00 0.  1.
         21    1    1    2  502  501  0.27816099482E+02 -0.14135715168E+02  0.26725884214E+02  0.41083168339E+02  0.00000000000E+00 0.  1.
<scales pt_clust_4="550.00000" pt_clust_5="550.00000" pt_clust_6="31.20182"></scales>
<mgrwt>
<rscale>  0 0.30000000E+03</rscale>
<asrwt>  1 0.31201824E+02</asrwt>
<pdfrwt beam="1">  1        1 0.87920308E+00 0.30000000E+03</pdfrwt>
<pdfrwt beam="2">0</pdfrwt>
<totfact> 0.20626236E-04</totfact>
</mgrwt>
<clustering>
<clus scale="   31.202">  1  6  2 -1</clus>
<clus scale="  470.873">  4  5 -1 -1</clus>
<clus scale="  300.000">  1  4  2 -1</clus>
</clustering>
</event>
<event>
 6    1  0.1007353E-011  0.3000000E+03  0.7818608E-02  0.1093470E+00
          1   -1    0    0  502    0  0.00000000000E+00  0.00000000000E+00  0.24808050823E+03  0.24808050823E+03  0.00000000000E+00 0.  1.
         13   -1    0    0    0    0 -0.00000000000E+00 -0.00000000000E+00 -0.27500000000E+03  0.27500000000E+03  0.00000000000E+00 0.  1.
    9000005    2    1    2  501    0 -0.37808812472E+02  0.23832667011E+02 -0.46037690450E+02  0.47446972920E+03  0.47011121308E+03 0.  0.
         13    1    3    3    0    0 -0.47425731459E+02 -0.22157585392E+03 -0.19023957025E+02  0.22739166649E+03  0.00000000000E+00 0.  1.
          1    1    3    3  501    0  0.96169189869E+01  0.24540852094E+03 -0.27013733424E+02  0.24707806271E+03  0.00000000000E+00 0.  1.
         21    1    1    2  502  501  0.37808812472E+02 -0.23832667011E+02  0.19118198676E+02  0.48610779031E+02  0.00000000000E+00 0.  1.
<scales pt_clust_4="550.00000" pt_clust_5="550.00000" pt_clust_6="44.69343"></scales>
<mgrwt>
<rscale>  0 0.30000000E+03</rscale>
<asrwt>  1 0.44693426E+02</asrwt>
<pdfrwt beam="1">  1        1 0.90211094E+00 0.30000000E+03</pdfrwt>
<pdfrwt beam="2">0</pdfrwt>
<totfact> 0.98887118E-05</totfact>
</mgrwt>
<clustering>
<clus scale="   44.693">  1  6  2 -1</clus>
<clus scale="  470.111">  4  5 -1 -1</clus>
<clus scale="  300.000">  1  4  2 -1</clus>
</clustering>
</event>
<event>
 6    1  0.1007353E-011  0.3000000E+03  0.7818608E-02  0.1093470E+00
          1   -1    0    0  502    0  0.00000000000E+00  0.00000000000E+00  0.22972534763E+03  0.22972534763E+03  0.00000000000E+00 0.  1.
         13   -1    0    0    0    0 -0.00000000000E+00 -0.00000000000E+00 -0.27500000000E+03  0.27500000000E+03  0.00000000000E+00 0.  1.
    9000005    2    1    2  501    0 -0.24976459391E+01 -0.34502162161E+02 -0.58251852700E+02  0.46777883010E+03  0.46284675447E+03 0.  0.
         13    1    3    3    0    0 -0.20624903164E+03  0.25181739953E+01  0.77299070729E+02  0.22027290026E+03  0.00000000000E+00 0.  1.
          3    1    3    3  501    0  0.20375138570E+03 -0.37020336156E+02 -0.13555092343E+03  0.24750592984E+03  0.00000000000E+00 0.  1.
         21    1    1    2  502  501  0.24976459391E+01  0.34502162161E+02  0.12977200330E+02  0.36946517527E+02  0.00000000000E+00 0.  1.
<scales pt_clust_4="550.00000" pt_clust_5="550.00000" pt_clust_6="34.59245"></scales>
<mgrwt>
<rscale>  0 0.30000000E+03</rscale>
<asrwt>  1 0.34592448E+02</asrwt>
<pdfrwt beam="1">  1        1 0.83536490E+00 0.30000000E+03</pdfrwt>
<pdfrwt beam="2">0</pdfrwt>
<totfact> 0.53886834E-04</totfact>
</mgrwt>
<clustering>
<clus scale="   34.592">  1  6  2 -1</clus>
<clus scale="  462.847">  4  5 -1 -1</clus>
<clus scale="  300.000">  1  4  2 -1</clus>
</clustering>
</event>
<event>
 6    1  0.1007353E-011  0.3000000E+03  0.7818608E-02  0.1093470E+00
          1   -1    0    0  502    0  0.00000000000E+00  0.00000000000E+00  0.22639568253E+03  0.22639568253E+03  0.00000000000E+00 0.  1.
         13   -1    0    0    0    0 -0.00000000000E+00 -0.00000000000E+00 -0.27500000000E+03  0.27500000000E+03  0.00000000000E+00 0.  1.
    9000005    2    1    2  501    0 -0.27456057282E+02  0.13252639940E+02 -0.64595380232E+02  0.46696921546E+03  0.46147396188E+03 0.  0.
         13    1    3    3    0    0  0.13942213047E+03  0.12794332630E+03 -0.15558123970E+03  0.24497662614E+03  0.00000000000E+00 0.  1.
          1    1    3    3  501    0 -0.16687818776E+03 -0.11469068636E+03  0.90985859466E+02  0.22199258931E+03  0.00000000000E+00 0.  1.
         21    1    1    2  502  501  0.27456057282E+02 -0.13252639940E+02  0.15991062760E+02  0.34426467072E+02  0.00000000000E+00 0.  1.
<scales pt_clust_4="550.00000" pt_clust_5="550.00000" pt_clust_6="30.48717"></scales>
<mgrwt>
<rscale>  0 0.30000000E+03</rscale>
<asrwt>  1 0.30487170E+02</asrwt>
<pdfrwt beam="1">  1        1 0.82325703E+00 0.30000000E+03</pdfrwt>
<pdfrwt beam="2">0</pdfrwt>
<totfact> 0.69495577E-04</totfact>
</mgrwt>
<clustering>
<clus scale="   30.487">  1  6  2 -1</clus>
<clus scale="  461.474">  4  5 -1 -1</clus>
<clus scale="  300.000">  1  4  2 -1</clus>
</clustering>
</event>
<event>
 6    1  0.1007353E-011  0.3000000E+03  0.7818608E-02  0.1093470E+00
          1   -1    0    0  502    0  0.00000000000E+00  0.00000000000E+00  0.23270159019E+03  0.23270159019E+03  0.00000000000E+00 0.  1.
         13   -1    0    0    0    0 -0.00000000000E+00 -0.00000000000E+00 -0.27500000000E+03  0.27500000000E+03  0.00000000000E+00 0.  1.
    9000005    2    1    2  501    0  0.30850158085E+02 -0.33729935311E+02 -0.46228525156E+02  0.46182254708E+03  0.45722373917E+03 0.  0.
         13    1    3    3    0    0 -0.82878274852E+02  0.17558425305E+03 -0.98832551026E+02  0.21786810575E+03  0.00000000000E+00 0.  1.
          3    1    3    3  501    0  0.11372843294E+03 -0.20931418836E+03  0.52604025870E+02  0.24395444133E+03  0.00000000000E+00 0.  1.
         21    1    1    2  502  501 -0.30850158085E+02  0.33729935311E+02  0.39301153463E+01  0.45879043109E+02  0.00000000000E+00 0. -1.
<scales pt_clust_4="550.00000" pt_clust_5="550.00000" pt_clust_6="45.71040"></scales>
<mgrwt>
<rscale>  0 0.30000000E+03</rscale>
<asrwt>  1 0.45710401E+02</asrwt>
<pdfrwt beam="1">  1        1 0.84618760E+00 0.30000000E+03</pdfrwt>
<pdfrwt beam="2">0</pdfrwt>
<totfact> 0.42007414E-04</totfact>
</mgrwt>
<clustering>
<clus scale="   45.710">  1  6  2 -1</clus>
<clus scale="  457.224">  4  5 -1 -1</clus>
<clus scale="  300.000">  1  4  2 -1</clus>
</clustering>
</event>
<event>
 6    1  0.1007353E-011  0.3000000E+03  0.7818608E-02  0.1093470E+00
          1   -1    0    0  502    0  0.00000000000E+00  0.00000000000E+00  0.24343547721E+03  0.24343547721E+03  0.00000000000E+00 0.  1.
         13   -1    0    0    0    0 -0.00000000000E+00 -0.00000000000E+00 -0.27500000000E+03  0.27500000000E+03  0.00000000000E+00 0.  1.
    9000005    2    1    2  501    0  0.36065128410E+02  0.52259339755E+01 -0.64279677412E+02  0.46946318693E+03  0.46361169429E+03 0.  0.
         13    1    3    3    0    0  0.19303958992E+03  0.13820716203E+03 -0.10524153124E+03  0.25969459527E+03  0.00000000000E+00 0.  1.
          3    1    3    3  501    0 -0.15697446151E+03 -0.13298122805E+03  0.40961853826E+02  0.20976859167E+03  0.00000000000E+00 0.  1.
         21    1    1    2  502  501 -0.36065128410E+02 -0.52259339755E+01  0.32715154624E+02  0.48972290279E+02  0.00000000000E+00 0.  1.
<scales pt_clust_4="550.00000" pt_clust_5="550.00000" pt_clust_6="36.44179"></scales>
<mgrwt>
<rscale>  0 0.30000000E+03</rscale>
<asrwt>  1 0.36441787E+02</asrwt>
<pdfrwt beam="1">  1        1 0.88521992E+00 0.30000000E+03</pdfrwt>
<pdfrwt beam="2">0</pdfrwt>
<totfact> 0.16727053E-04</totfact>
</mgrwt>
<clustering>
<clus scale="   36.442">  1  6  2 -1</clus>
<clus scale="  463.612">  4  5 -1 -1</clus>
<clus scale="  300.000">  1  4  2 -1</clus>
</clustering>
</event>
<event>
 6    1  0.1007353E-011  0.3000000E+03  0.7818608E-02  0.1093470E+00
          1   -1    0    0  502    0  0.00000000000E+00  0.00000000000E+00  0.22735067420E+03  0.22735067420E+03  0.00000000000E+00 0.  1.
         13   -1    0    0    0    0 -0.00000000000E+00 -0.00000000000E+00 -0.27500000000E+03  0.27500000000E+03  0.00000000000E+00 0.  1.
    9000005    2    1    2  501    0 -0.73339664942E+01 -0.34970335826E+02 -0.62971903581E+02  0.46347275190E+03  0.45778250258E+03 0.  0.
         13    1    3    3    0    0  0.16048549545E+03  0.14218161327E+03 -0.42626652638E+02  0.21860520789E+03  0.00000000000E+00 0.  1.
          3    1    3    3  501    0 -0.16781946194E+03 -0.17715194910E+03 -0.20345250943E+02  0.24486754401E+03  0.00000000000E+00 0.  1.
         21    1    1    2  502  501  0.73339664942E+01  0.34970335826E+02  0.15322577784E+02  0.38877922299E+02  0.00000000000E+00 0.  1.
<scales pt_clust_4="550.00000" pt_clust_5="550.00000" pt_clust_6="35.73110"></scales>
<mgrwt>
<rscale>  0 0.30000000E+03</rscale>
<asrwt>  1 0.35731099E+02</asrwt>
<pdfrwt beam="1">  1        1 0.82672972E+00 0.30000000E+03</pdfrwt>
<pdfrwt beam="2">0</pdfrwt>
<totfact> 0.62804131E-04</totfact>
</mgrwt>
<clustering>
<clus scale="   35.731">  1  6  2 -1</clus>
<clus scale="  457.783">  4  5 -1 -1</clus>
<clus scale="  300.000">  1  4  2 -1</clus>
</clustering>
</event>
<event>
 6    1  0.1007353E-011  0.3000000E+03  0.7818608E-02  0.1093470E+00
          1   -1    0    0  502    0  0.00000000000E+00  0.00000000000E+00  0.23140633843E+03  0.23140633843E+03  0.00000000000E+00 0.  1.
         13   -1    0    0    0    0 -0.00000000000E+00 -0.00000000000E+00 -0.27500000000E+03  0.27500000000E+03  0.00000000000E+00 0.  1.
    9000005    2    1    2  501    0  0.21386105791E+02  0.31528402144E+02 -0.55681150318E+02  0.46643743744E+03  0.46153232485E+03 0.  0.
         13    1    3    3    0    0  0.30740530110E+02  0.23391360554E+03  0.45032440322E+02  0.24018425371E+03  0.00000000000E+00 0.  1.
          3    1    3    3  501    0 -0.93544243183E+01 -0.20238520340E+03 -0.10071359064E+03  0.22625318373E+03  0.00000000000E+00 0.  1.
         21    1    1    2  502  501 -0.21386105791E+02 -0.31528402144E+02  0.12087488752E+02  0.39968900998E+02  0.00000000000E+00 0.  1.
<scales pt_clust_4="550.00000" pt_clust_5="550.00000" pt_clust_6="38.09732"></scales>
<mgrwt>
<rscale>  0 0.30000000E+03</rscale>
<asrwt>  1 0.38097318E+02</asrwt>
<pdfrwt beam="1">  1        1 0.84147759E+00 0.30000000E+03</pdfrwt>
<pdfrwt beam="2">0</pdfrwt>
<totfact> 0.47635143E-04</totfact>
</mgrwt>
<clustering>
<clus scale="   38.097">  1  6  2 -1</clus>
<clus scale="  461.532">  4  5 -1 -1</clus>
<clus scale="  300.000">  1  4  2 -1</clus>
</clustering>
</event>
<event>
 6    1  0.1007353E-011  0.3000000E+03  0.7818608E-02  0.1093470E+00
          1   -1    0    0  502    0  0.00000000000E+00  0.00000000000E+00  0.22340204292E+03  0.22340204292E+03  0.00000000000E+00 0.  1.
         13   -1    0    0    0    0 -0.00000000000E+00 -0.00000000000E+00 -0.27500000000E+03  0.27500000000E+03  0.00000000000E+00 0.  1.
    9000005    2    1    2  501    0 -0.12177299913E+02 -0.28591002756E+02 -0.31254576083E+02  0.46125927482E+03  0.45914871012E+03 0.  0.
         13    1    3    3    0    0  0.20365954480E+03 -0.11542768811E+02 -0.10891650379E+03  0.23124283881E+03  0.00000000000E+00 0.  1.
          1    1    3    3  501    0 -0.21583684472E+03 -0.17048233945E+02  0.77661927711E+02  0.23001643601E+03  0.00000000000E+00 0.  1.
         21    1    1    2  502  501  0.12177299913E+02  0.28591002756E+02 -0.20343381000E+02  0.37142768102E+02  0.00000000000E+00 0.  1.
<scales pt_clust_4="550.00000" pt_clust_5="550.00000" pt_clust_6="31.07625"></scales>
<mgrwt>
<rscale>  0 0.30000000E+03</rscale>
<asrwt>  1 0.31076246E+02</asrwt>
<pdfrwt beam="1">  1        1 0.81237107E+00 0.30000000E+03</pdfrwt>
<pdfrwt beam="2">0</pdfrwt>
<totfact> 0.85453180E-04</totfact>
</mgrwt>
<clustering>
<clus scale="   31.076">  1  6  2 -1</clus>
<clus scale="  459.149">  4  5 -1 -1</clus>
<clus scale="  300.000">  1  4  2 -1</clus>
</clustering>
</event>
<event>
 6    1  0.1007353E-011  0.3000000E+03  0.7818608E-02  0.1093470E+00
          1   -1    0    0  502    0  0.00000000000E+00  0.00000000000E+00  0.24430087616E+03  0.24430087616E+03  0.00000000000E+00 0.  1.
         13   -1    0    0    0    0 -0.00000000000E+00 -0.00000000000E+00 -0.27500000000E+03  0.27500000000E+03  0.00000000000E+00 0.  1.
    9000005    2    1    2  501    0 -0.21759964500E+02 -0.25540474901E+02 -0.14501999781E+02  0.48204287379E+03  0.48065498256E+03 0.  0.
         13    1    3    3    0    0 -0.13859555935E+03  0.15833074525E+03  0.10326769593E+03  0.23439618381E+03  0.00000000000E+00 0.  1.
          1    1    3    3  501    0  0.11683559485E+03 -0.18387122016E+03 -0.11776969572E+03  0.24764668997E+03  0.00000000000E+00 0.  1.
         21    1    1    2  502  501  0.21759964500E+02  0.25540474901E+02 -0.16197124059E+02  0.37258002375E+02  0.00000000000E+00 0.  1.
<scales pt_clust_4="550.00000" pt_clust_5="550.00000" pt_clust_6="33.55314"></scales>
<mgrwt>
<rscale>  0 0.30000000E+03</rscale>
<asrwt>  1 0.33553138E+02</asrwt>
<pdfrwt beam="1">  1        1 0.88836682E+00 0.30000000E+03</pdfrwt>
<pdfrwt beam="2">0</pdfrwt>
<totfact> 0.15373147E-04</totfact>
</mgrwt>
<clustering>
<clus scale="   33.553">  1  6  2 -1</clus>
<clus scale="  480.655">  4  5 -1 -1</clus>
<clus scale="  300.000">  1  4  2 -1</clus>
</clustering>
</event>
<event>
 6    1  0.1007353E-011  0.3000000E+03  0.7818608E-02  0.1093470E+00
          1   -1    0    0  502    0  0.00000000000E+00  0.00000000000E+00  0.23825257848E+03  0.23825257848E+03  0.00000000000E+00 0.  1.
         13   -1    0    0    0    0 -0.00000000000E+00 -0.00000000000E+00 -0.27500000000E+03  0.27500000000E+03  0.00000000000E+00 0.  1.
    9000005    2    1    2  501    0  0.22120423215E+02  0.25400993809E+02 -0.26840669942E+02  0.47814321596E+03  0.47619952729E+03 0.  0.
         13    1    3    3    0    0 -0.16737460600E+03 -0.14556893865E+03 -0.21542235749E+02  0.22286462832E+03  0.00000000000E+00 0.  1.
          3    1    3    3  501    0  0.18949502922E+03  0.17096993246E+03 -0.52984341936E+01  0.25527858764E+03  0.00000000000E+00 0.  1.
         21    1    1    2  502  501 -0.22120423215E+02 -0.25400993809E+02 -0.99067515821E+01  0.35109362520E+02  0.00000000000E+00 0. -1.
<scales pt_clust_4="550.00000" pt_clust_5="550.00000" pt_clust_6="33.68271"></scales>
<mgrwt>
<rscale>  0 0.30000000E+03</rscale>
<asrwt>  1 0.33682707E+02</asrwt>
<pdfrwt beam="1">  1        1 0.86637301E+00 0.30000000E+03</pdfrwt>
<pdfrwt beam="2">0</pdfrwt>
<totfact> 0.27819535E-04</totfact>
</mgrwt>
<clustering>
<clus scale="   33.683">  1  6  2 -1</clus>
<clus scale="  476.200">  4  5 -1 -1</clus>
<clus scale="  300.000">  1  4  2 -1</clus>
</clustering>
</event>
<event>
 6    1  0.1007353E-011  0.3000000E+03  0.7818608E-02  0.1093470E+00
          1   -1    0    0  502    0  0.00000000000E+00  0.00000000000E+00  0.22469500202E+03  0.22469500202E+03  0.00000000000E+00 0.  1.
         13   -1    0    0    0    0 -0.00000000000E+00 -0.00000000000E+00 -0.27500000000E+03  0.27500000000E+03  0.00000000000E+00 0.  1.
    9000005    2    1    2  501    0  0.18018992861E+01 -0.30035759674E+02 -0.40038855167E+02  0.46790211935E+03  0.46521381070E+03 0.  0.
         13    1    3    3    0    0  0.71638474041E+02 -0.80659211693E+02  0.19206557291E+03  0.22028881881E+03  0.00000000000E+00 0.  1.
          3    1    3    3  501    0 -0.69836574755E+02  0.50623452019E+02 -0.23210442808E+03  0.24761330054E+03  0.00000000000E+00 0.  1.
         21    1    1    2  502  501 -0.18018992861E+01  0.30035759674E+02 -0.10266142815E+02  0.31792882671E+02  0.00000000000E+00 0.  1.
<scales pt_clust_4="550.00000" pt_clust_5="550.00000" pt_clust_6="30.08978"></scales>
<mgrwt>
<rscale>  0 0.30000000E+03</rscale>
<asrwt>  1 0.30089776E+02</asrwt>
<pdfrwt beam="1">  1        1 0.81707273E+00 0.30000000E+03</pdfrwt>
<pdfrwt beam="2">0</pdfrwt>
<totfact> 0.78791946E-04</totfact>
</mgrwt>
<clustering>
<clus scale="   30.090">  1  6  2 -1</clus>
<clus scale="  465.214">  4  5 -1 -1</clus>
<clus scale="  300.000">  1  4  2 -1</clus>
</clustering>
</event>
