<event>
 6    1  0.1440222E-002  0.6115084E+03  0.7818608E-02  0.9881813E-01
          1   -1    0    0  502    0  0.00000000000E+00  0.00000000000E+00  0.93485629262E+02  0.93485629262E+02  0.00000000000E+00 0.  1.
         13   -1    0    0    0    0 -0.00000000000E+00 -0.00000000000E+00 -0.10000000000E+04  0.10000000000E+04  0.00000000000E+00 0.  1.
    9000005    2    1    2  501    0  0.37858968653E-05  0.46329905299E-05 -0.90651438164E+03  0.10934856168E+04  0.61150835651E+03 0.  0.
         13    1    3    3    0    0  0.30561342996E+03 -0.87610456861E+01 -0.44780570182E+03  0.54222345124E+03  0.00000000000E+00 0.  1.
          3    1    3    3  501    0 -0.30561342617E+03  0.87610503191E+01 -0.45870867982E+03  0.55126216559E+03  0.00000000000E+00 0.  1.
         21    1    1    2  502  501 -0.37858968357E-05 -0.46329905298E-05  0.10902681921E-04  0.12436482186E-04  0.00000000000E+00 0.  1.
<mgrwt>
<rscale>  1 0.61150836E+03</rscale>
<asrwt>0</asrwt>
<pdfrwt beam="1">  1        1 0.33994846E+00 0.61150836E+03</pdfrwt>
<pdfrwt beam="2">0</pdfrwt>
<totfact> 0.24736835E+00</totfact>
</mgrwt>
</event>
<event>
 6    1  0.1440222E-002  0.6521781E+03  0.7818608E-02  0.9802701E-01
          1   -1    0    0  502    0  0.00000000000E+00  0.00000000000E+00  0.10635872649E+03  0.10635872649E+03  0.00000000000E+00 0.  1.
         13   -1    0    0    0    0 -0.00000000000E+00 -0.00000000000E+00 -0.10000000000E+04  0.10000000000E+04  0.00000000000E+00 0.  1.
    9000005    2    1    2  501    0 -0.14289748668E-03  0.40835825342E-03 -0.89366593325E+03  0.11063340630E+04  0.65217808810E+03 0.  0.
         13    1    3    3    0    0 -0.12908374444E+03 -0.11811756709E+03 -0.91362598976E+03  0.93022944584E+03  0.00000000000E+00 0.  1.
          3    1    3    3  501    0  0.12908360155E+03  0.11811797545E+03  0.19960056512E+02  0.17610461711E+03  0.00000000000E+00 0.  1.
         21    1    1    2  502  501  0.14289748669E-03 -0.40835825343E-03  0.24659743111E-01  0.24663537996E-01  0.00000000000E+00 0. -1.
<mgrwt>
<rscale>  1 0.65217809E+03</rscale>
<asrwt>0</asrwt>
<pdfrwt beam="1">  1        1 0.38675982E+00 0.65217809E+03</pdfrwt>
<pdfrwt beam="2">0</pdfrwt>
<totfact> 0.15312632E+00</totfact>
</mgrwt>
</event>
<event>
 6    1  0.1440222E-002  0.6440386E+03  0.7818608E-02  0.9818030E-01
          1   -1    0    0  502    0  0.00000000000E+00  0.00000000000E+00  0.10442439500E+03  0.10442439500E+03  0.00000000000E+00 0.  1.
         13   -1    0    0    0    0 -0.00000000000E+00 -0.00000000000E+00 -0.10000000000E+04  0.10000000000E+04  0.00000000000E+00 0.  1.
    9000005    2    1    2  501    0  0.14805129522E+01  0.92193762151E+00 -0.89489361267E+03  0.11025516961E+04  0.64403619673E+03 0.  0.
         13    1    3    3    0    0  0.57662759464E+02 -0.29789357582E+03 -0.26392911940E+03  0.40214942051E+03  0.00000000000E+00 0.  1.
          3    1    3    3  501    0 -0.56182246512E+02  0.29881551345E+03 -0.63096449327E+03  0.70040227560E+03  0.00000000000E+00 0.  1.
         21    1    1    2  502  501 -0.14805129522E+01 -0.92193762151E+00 -0.68199232909E+00  0.18726988857E+01  0.00000000000E+00 0. -1.
<mgrwt>
<rscale>  1 0.64403856E+03</rscale>
<asrwt>0</asrwt>
<pdfrwt beam="1">  1        1 0.37972587E+00 0.64403856E+03</pdfrwt>
<pdfrwt beam="2">0</pdfrwt>
<totfact> 0.16473533E+00</totfact>
</mgrwt>
</event>
<event>
 6    1  0.1440222E-002  0.6594199E+03  0.7818608E-02  0.9789262E-01
          1   -1    0    0  502    0  0.00000000000E+00  0.00000000000E+00  0.10877014376E+03  0.10877014376E+03  0.00000000000E+00 0.  1.
         13   -1    0    0    0    0 -0.00000000000E+00 -0.00000000000E+00 -0.10000000000E+04  0.10000000000E+04  0.00000000000E+00 0.  1.
    9000005    2    1    2  501    0 -0.26146665013E-01  0.57395276124E-02 -0.89128809281E+03  0.11087060494E+04  0.65941992605E+03 0.  0.
         13    1    3    3    0    0  0.28054640929E+03  0.54997853893E+02 -0.16950857943E+03  0.33236156546E+03  0.00000000000E+00 0.  1.
          3    1    3    3  501    0 -0.28057255595E+03 -0.54992114366E+02 -0.72177951338E+03  0.77634448393E+03  0.00000000000E+00 0.  1.
         21    1    1    2  502  501  0.26146665013E-01 -0.57395276124E-02  0.58236570809E-01  0.64094371424E-01  0.00000000000E+00 0. -1.
<mgrwt>
<rscale>  1 0.65941993E+03</rscale>
<asrwt>0</asrwt>
<pdfrwt beam="1">  1        1 0.39552863E+00 0.65941993E+03</pdfrwt>
<pdfrwt beam="2">0</pdfrwt>
<totfact> 0.13981508E+00</totfact>
</mgrwt>
</event>
<event>
 6    1  0.1440222E-002  0.6437031E+03  0.7818608E-02  0.9818667E-01
          1   -1    0    0  502    0  0.00000000000E+00  0.00000000000E+00  0.10397335594E+03  0.10397335594E+03  0.00000000000E+00 0.  1.
         13   -1    0    0    0    0 -0.00000000000E+00 -0.00000000000E+00 -0.10000000000E+04  0.10000000000E+04  0.00000000000E+00 0.  1.
    9000005    2    1    2  501    0  0.25593562148E-01  0.67290882648E-01 -0.89640785167E+03  0.11035854096E+04  0.64370312617E+03 0.  0.
         13    1    3    3    0    0  0.29929841616E+02  0.31736376748E+03 -0.37167605310E+03  0.48965155445E+03  0.00000000000E+00 0.  1.
          3    1    3    3  501    0 -0.29904248054E+02 -0.31729647660E+03 -0.52473179857E+03  0.61393385519E+03  0.00000000000E+00 0.  1.
         21    1    1    2  502  501 -0.25593562148E-01 -0.67290882648E-01  0.38120760731E+00  0.38794630193E+00  0.00000000000E+00 0.  1.
<mgrwt>
<rscale>  1 0.64370313E+03</rscale>
<asrwt>0</asrwt>
<pdfrwt beam="1">  1        1 0.37808573E+00 0.64370313E+03</pdfrwt>
<pdfrwt beam="2">0</pdfrwt>
<totfact> 0.16751203E+00</totfact>
</mgrwt>
</event>
<event>
 6    1  0.1440222E-002  0.6523490E+03  0.7818608E-02  0.9802381E-01
          1   -1    0    0  502    0  0.00000000000E+00  0.00000000000E+00  0.10812277542E+03  0.10812277542E+03  0.00000000000E+00 0.  1.
         13   -1    0    0    0    0 -0.00000000000E+00 -0.00000000000E+00 -0.10000000000E+04  0.10000000000E+04  0.00000000000E+00 0.  1.
    9000005    2    1    2  501    0 -0.18177763617E+00  0.97982266058E+00 -0.89345024999E+03  0.11062606518E+04  0.65234828684E+03 0.  0.
         13    1    3    3    0    0  0.26822906996E+03  0.18572041793E+03 -0.46251578830E+03  0.56600332334E+03  0.00000000000E+00 0.  1.
          1    1    3    3  501    0 -0.26841084759E+03 -0.18474059527E+03 -0.43093446169E+03  0.54025732843E+03  0.00000000000E+00 0.  1.
         21    1    1    2  502  501  0.18177763617E+00 -0.97982266058E+00  0.15730254084E+01  0.18621236508E+01  0.00000000000E+00 0. -1.
<mgrwt>
<rscale>  1 0.65234905E+03</rscale>
<asrwt>0</asrwt>
<pdfrwt beam="1">  1        1 0.39317456E+00 0.65234905E+03</pdfrwt>
<pdfrwt beam="2">0</pdfrwt>
<totfact> 0.14341379E+00</totfact>
</mgrwt>
</event>
<event>
 6    1  0.1440222E-002  0.6405092E+03  0.7818608E-02  0.9824753E-01
          1   -1    0    0  502    0  0.00000000000E+00  0.00000000000E+00  0.10258051071E+03  0.10258051071E+03  0.00000000000E+00 0.  1.
         13   -1    0    0    0    0 -0.00000000000E+00 -0.00000000000E+00 -0.10000000000E+04  0.10000000000E+04  0.00000000000E+00 0.  1.
    9000005    2    1    2  501    0 -0.12522072207E-01 -0.81799094392E-02 -0.89743341599E+03  0.11025600738E+04  0.64050915688E+03 0.  0.
         13    1    3    3    0    0 -0.13137043855E+03 -0.19097419815E+03 -0.82913274723E+03  0.86092418308E+03  0.00000000000E+00 0.  1.
          3    1    3    3  501    0  0.13135791648E+03  0.19096601824E+03 -0.68300668755E+02  0.24163589074E+03  0.00000000000E+00 0.  1.
         21    1    1    2  502  501  0.12522072207E-01  0.81799094392E-02  0.13926692601E-01  0.20436877883E-01  0.00000000000E+00 0.  1.
<mgrwt>
<rscale>  1 0.64050916E+03</rscale>
<asrwt>0</asrwt>
<pdfrwt beam="1">  1        1 0.37302083E+00 0.64050916E+03</pdfrwt>
<pdfrwt beam="2">0</pdfrwt>
<totfact> 0.17644126E+00</totfact>
</mgrwt>
</event>
<event>
 6    1  0.1440223E-002  0.4778475E+03  0.7818608E-02  0.1019728E+00
          1   -1    0    0  502    0  0.00000000000E+00  0.00000000000E+00  0.57084561671E+02  0.57084561671E+02  0.00000000000E+00 0.  1.
         13   -1    0    0    0    0 -0.00000000000E+00 -0.00000000000E+00 -0.10000000000E+04  0.10000000000E+04  0.00000000000E+00 0.  1.
    9000005    2    1    2  501    0  0.12117954341E-04 -0.11530058600E-04 -0.94291542237E+03  0.10570845385E+04  0.47784749440E+03 0.  0.
         13    1    3    3    0    0 -0.11566917223E+03  0.15771525868E+03 -0.16788816819E+03  0.25775937857E+03  0.00000000000E+00 0.  1.
          1    1    3    3  501    0  0.11566918435E+03 -0.15771527021E+03 -0.77502725417E+03  0.79932515998E+03  0.00000000000E+00 0.  1.
         21    1    1    2  502  501 -0.12117954351E-04  0.11530058578E-04 -0.15963159637E-04  0.23121624814E-04  0.00000000000E+00 0.  1.
<mgrwt>
<rscale>  1 0.47784749E+03</rscale>
<asrwt>0</asrwt>
<pdfrwt beam="1">  1        1 0.20758066E+00 0.47784749E+03</pdfrwt>
<pdfrwt beam="2">0</pdfrwt>
<totfact> 0.95350655E+00</totfact>
</mgrwt>
</event>
<event>
 6    1  0.1440222E-002  0.6720132E+03  0.7818608E-02  0.9766328E-01
          1   -1    0    0  502    0  0.00000000000E+00  0.00000000000E+00  0.12028061331E+03  0.12028061331E+03  0.00000000000E+00 0.  1.
         13   -1    0    0    0    0 -0.00000000000E+00 -0.00000000000E+00 -0.10000000000E+04  0.10000000000E+04  0.00000000000E+00 0.  1.
    9000005    2    1    2  501    0  0.28978202810E-01  0.25976446837E+00 -0.88709697337E+03  0.11128983980E+04  0.67201319618E+03 0.  0.
         13    1    3    3    0    0  0.20305068883E+03 -0.21859628210E+03 -0.69912491984E+03  0.76012470709E+03  0.00000000000E+00 0.  1.
          1    1    3    3  501    0 -0.20302171063E+03  0.21885604657E+03 -0.18797205353E+03  0.35277369094E+03  0.00000000000E+00 0.  1.
         21    1    1    2  502  501 -0.28978202810E-01 -0.25976446837E+00  0.73775866767E+01  0.73822152832E+01  0.00000000000E+00 0.  1.
<mgrwt>
<rscale>  1 0.67201325E+03</rscale>
<asrwt>0</asrwt>
<pdfrwt beam="1">  1        1 0.43738497E+00 0.67201325E+03</pdfrwt>
<pdfrwt beam="2">0</pdfrwt>
<totfact> 0.90360679E-01</totfact>
</mgrwt>
</event>
<event>
 6    1  0.1440222E-002  0.6522611E+03  0.7818608E-02  0.9802546E-01
          1   -1    0    0  502    0  0.00000000000E+00  0.00000000000E+00  0.10636698416E+03  0.10636698416E+03  0.00000000000E+00 0.  1.
         13   -1    0    0    0    0 -0.00000000000E+00 -0.00000000000E+00 -0.10000000000E+04  0.10000000000E+04  0.00000000000E+00 0.  1.
    9000005    2    1    2  501    0 -0.10891564342E-01  0.17219424854E-02 -0.89363242903E+03  0.11063559417E+04  0.65226110678E+03 0.  0.
         13    1    3    3    0    0  0.25439545193E+03 -0.64109070796E+01 -0.79276659888E+03  0.83260856709E+03  0.00000000000E+00 0.  1.
          3    1    3    3  501    0 -0.25440634349E+03  0.64126290221E+01 -0.10086583016E+03  0.27374737463E+03  0.00000000000E+00 0.  1.
         21    1    1    2  502  501  0.10891564342E-01 -0.17219424854E-02 -0.58680846382E-03  0.11042445558E-01  0.00000000000E+00 0. -1.
<mgrwt>
<rscale>  1 0.65226111E+03</rscale>
<asrwt>0</asrwt>
<pdfrwt beam="1">  1        1 0.38678985E+00 0.65226111E+03</pdfrwt>
<pdfrwt beam="2">0</pdfrwt>
<totfact> 0.15307711E+00</totfact>
</mgrwt>
</event>
<event>
 6    1  0.1440222E-002  0.6498409E+03  0.7818608E-02  0.9807078E-01
          1   -1    0    0  502    0  0.00000000000E+00  0.00000000000E+00  0.10559615656E+03  0.10559615656E+03  0.00000000000E+00 0.  1.
         13   -1    0    0    0    0 -0.00000000000E+00 -0.00000000000E+00 -0.10000000000E+04  0.10000000000E+04  0.00000000000E+00 0.  1.
    9000005    2    1    2  501    0 -0.67446139538E-02  0.64558885359E-02 -0.89442563727E+03  0.11055724471E+04  0.64984091520E+03 0.  0.
         13    1    3    3    0    0  0.19487552550E+03 -0.24896679858E+03 -0.57462736274E+03  0.65586396703E+03  0.00000000000E+00 0.  1.
          3    1    3    3  501    0 -0.19488227011E+03  0.24897325447E+03 -0.31979827452E+03  0.44970848005E+03  0.00000000000E+00 0.  1.
         21    1    1    2  502  501  0.67446139538E-02 -0.64558885359E-02  0.21793828111E-01  0.23709476120E-01  0.00000000000E+00 0.  1.
<mgrwt>
<rscale>  1 0.64984092E+03</rscale>
<asrwt>0</asrwt>
<pdfrwt beam="1">  1        1 0.38398683E+00 0.64984092E+03</pdfrwt>
<pdfrwt beam="2">0</pdfrwt>
<totfact> 0.15758152E+00</totfact>
</mgrwt>
</event>
<event>
 6    1  0.1440222E-002  0.6292556E+03  0.7818608E-02  0.9846503E-01
          1   -1    0    0  502    0  0.00000000000E+00  0.00000000000E+00  0.98990709724E+02  0.98990709724E+02  0.00000000000E+00 0.  1.
         13   -1    0    0    0    0 -0.00000000000E+00 -0.00000000000E+00 -0.10000000000E+04  0.10000000000E+04  0.00000000000E+00 0.  1.
    9000005    2    1    2  501    0  0.12888322900E-04 -0.82733386364E-05 -0.90100936149E+03  0.10989906369E+04  0.62925555258E+03 0.  0.
         13    1    3    3    0    0  0.95164883644E+02  0.25004722640E+03 -0.73965703256E+03  0.78655737001E+03  0.00000000000E+00 0.  1.
          1    1    3    3  501    0 -0.95164870755E+02 -0.25004723467E+03 -0.16135232894E+03  0.31243326687E+03  0.00000000000E+00 0.  1.
         21    1    1    2  502  501 -0.12888322897E-04  0.82733386298E-05  0.71216795488E-04  0.72844965225E-04  0.00000000000E+00 0.  1.
<mgrwt>
<rscale>  1 0.62925555E+03</rscale>
<asrwt>0</asrwt>
<pdfrwt beam="1">  1        1 0.35996698E+00 0.62925555E+03</pdfrwt>
<pdfrwt beam="2">0</pdfrwt>
<totfact> 0.20171234E+00</totfact>
</mgrwt>
</event>
<event>
 6    1  0.1440222E-002  0.6621526E+03  0.7818608E-02  0.9784239E-01
          1   -1    0    0  502    0  0.00000000000E+00  0.00000000000E+00  0.11195570281E+03  0.11195570281E+03  0.00000000000E+00 0.  1.
         13   -1    0    0    0    0 -0.00000000000E+00 -0.00000000000E+00 -0.10000000000E+04  0.10000000000E+04  0.00000000000E+00 0.  1.
    9000005    2    1    2  501    0 -0.32768452501E-01 -0.10792951932E-01 -0.89038833576E+03  0.11096114104E+04  0.66215262015E+03 0.  0.
         13    1    3    3    0    0  0.26781350373E+03  0.53114184120E+02 -0.13141336449E+03  0.30300934260E+03  0.00000000000E+00 0.  1.
          1    1    3    3  501    0 -0.26784627219E+03 -0.53124977072E+02 -0.75897497127E+03  0.80660206776E+03  0.00000000000E+00 0.  1.
         21    1    1    2  502  501  0.32768452501E-01  0.10792951932E-01  0.23440385678E+01  0.23442924448E+01  0.00000000000E+00 0. -1.
<mgrwt>
<rscale>  1 0.66215262E+03</rscale>
<asrwt>0</asrwt>
<pdfrwt beam="1">  1        1 0.40711251E+00 0.66215262E+03</pdfrwt>
<pdfrwt beam="2">0</pdfrwt>
<totfact> 0.12406233E+00</totfact>
</mgrwt>
</event>
<event>
 6    1  0.1440222E-002  0.6453864E+03  0.7818608E-02  0.9815475E-01
          1   -1    0    0  502    0  0.00000000000E+00  0.00000000000E+00  0.10558825835E+03  0.10558825835E+03  0.00000000000E+00 0.  1.
         13   -1    0    0    0    0 -0.00000000000E+00 -0.00000000000E+00 -0.10000000000E+04  0.10000000000E+04  0.00000000000E+00 0.  1.
    9000005    2    1    2  501    0  0.30048374009E-01 -0.12929298814E-01 -0.89586889896E+03  0.11041307339E+04  0.64538638997E+03 0.  0.
         13    1    3    3    0    0  0.28227898091E+03  0.14042454687E+03 -0.33020000584E+03  0.45654410551E+03  0.00000000000E+00 0.  1.
          1    1    3    3  501    0 -0.28224893253E+03 -0.14043747617E+03 -0.56566889312E+03  0.64758662839E+03  0.00000000000E+00 0.  1.
         21    1    1    2  502  501 -0.30048374009E-01  0.12929298813E-01  0.14571573092E+01  0.14575244407E+01  0.00000000000E+00 0.  1.
<mgrwt>
<rscale>  1 0.64538639E+03</rscale>
<asrwt>0</asrwt>
<pdfrwt beam="1">  1        1 0.38395811E+00 0.64538639E+03</pdfrwt>
<pdfrwt beam="2">0</pdfrwt>
<totfact> 0.15775753E+00</totfact>
</mgrwt>
</event>
<event>
 6    1  0.1440222E-002  0.6408252E+03  0.7818608E-02  0.9824149E-01
          1   -1    0    0  502    0  0.00000000000E+00  0.00000000000E+00  0.10266439893E+03  0.10266439893E+03  0.00000000000E+00 0.  1.
         13   -1    0    0    0    0 -0.00000000000E+00 -0.00000000000E+00 -0.10000000000E+04  0.10000000000E+04  0.00000000000E+00 0.  1.
    9000005    2    1    2  501    0  0.15503243475E-04 -0.37907023625E-04 -0.89733574974E+03  0.11026642447E+04  0.64082524046E+03 0.  0.
         13    1    3    3    0    0 -0.17242016647E+03  0.18275567273E+03 -0.10653133576E+03  0.27290524953E+03  0.00000000000E+00 0.  1.
          3    1    3    3  501    0  0.17242018197E+03 -0.18275571064E+03 -0.79080441398E+03  0.82975899519E+03  0.00000000000E+00 0.  1.
         21    1    1    2  502  501 -0.15503243477E-04  0.37907023642E-04  0.14867203714E-03  0.15420981690E-03  0.00000000000E+00 0.  1.
<mgrwt>
<rscale>  1 0.64082524E+03</rscale>
<asrwt>0</asrwt>
<pdfrwt beam="1">  1        1 0.37332587E+00 0.64082524E+03</pdfrwt>
<pdfrwt beam="2">0</pdfrwt>
<totfact> 0.17588688E+00</totfact>
</mgrwt>
</event>
<event>
 6    1  0.1440222E-002  0.6591279E+03  0.7818608E-02  0.9789800E-01
          1   -1    0    0  502    0  0.00000000000E+00  0.00000000000E+00  0.10865923925E+03  0.10865923925E+03  0.00000000000E+00 0.  1.
         13   -1    0    0    0    0 -0.00000000000E+00 -0.00000000000E+00 -0.10000000000E+04  0.10000000000E+04  0.00000000000E+00 0.  1.
    9000005    2    1    2  501    0  0.68860056990E-01 -0.34287413617E-02 -0.89135756845E+03  0.11085882747E+04  0.65912794153E+03 0.  0.
         13    1    3    3    0    0 -0.15997805692E+03  0.25953069987E+03 -0.23523952729E+03  0.38508024888E+03  0.00000000000E+00 0.  1.
          1    1    3    3  501    0  0.16004691698E+03 -0.25953412862E+03 -0.65611804116E+03  0.72350802586E+03  0.00000000000E+00 0.  1.
         21    1    1    2  502  501 -0.68860056990E-01  0.34287413617E-02  0.16807702077E-01  0.70964516240E-01  0.00000000000E+00 0.  1.
<mgrwt>
<rscale>  1 0.65912795E+03</rscale>
<asrwt>0</asrwt>
<pdfrwt beam="1">  1        1 0.39512534E+00 0.65912795E+03</pdfrwt>
<pdfrwt beam="2">0</pdfrwt>
<totfact> 0.14040136E+00</totfact>
</mgrwt>
</event>
<event>
 6    1  0.1440222E-002  0.6520283E+03  0.7818608E-02  0.9802981E-01
          1   -1    0    0  502    0  0.00000000000E+00  0.00000000000E+00  0.10636010756E+03  0.10636010756E+03  0.00000000000E+00 0.  1.
         13   -1    0    0    0    0 -0.00000000000E+00 -0.00000000000E+00 -0.10000000000E+04  0.10000000000E+04  0.00000000000E+00 0.  1.
    9000005    2    1    2  501    0 -0.36260866578E-01 -0.27435937884E-01 -0.89370705108E+03  0.11062790035E+04  0.65202832641E+03 0.  0.
         13    1    3    3    0    0  0.17005662012E+03 -0.26294679411E+03 -0.29297194217E+03  0.42882727231E+03  0.00000000000E+00 0.  1.
          1    1    3    3  501    0 -0.17009288099E+03  0.26291935817E+03 -0.60073510890E+03  0.67745173122E+03  0.00000000000E+00 0.  1.
         21    1    1    2  502  501  0.36260866578E-01  0.27435937884E-01  0.67158637824E-01  0.81104030522E-01  0.00000000000E+00 0.  1.
<mgrwt>
<rscale>  1 0.65202833E+03</rscale>
<asrwt>0</asrwt>
<pdfrwt beam="1">  1        1 0.38676484E+00 0.65202833E+03</pdfrwt>
<pdfrwt beam="2">0</pdfrwt>
<totfact> 0.15312272E+00</totfact>
</mgrwt>
</event>
<event>
 6    1  0.1440222E-002  0.6494718E+03  0.7818608E-02  0.9807771E-01
          3   -1    0    0  502    0  0.00000000000E+00  0.00000000000E+00  0.10577018992E+03  0.10577018992E+03  0.00000000000E+00 0.  1.
         13   -1    0    0    0    0 -0.00000000000E+00 -0.00000000000E+00 -0.10000000000E+04  0.10000000000E+04  0.00000000000E+00 0.  1.
    9000005    2    1    2  501    0 -0.40018549418E-02 -0.17610233623E-02 -0.89454659350E+03  0.11054533763E+04  0.64947175401E+03 0.  0.
         13    1    3    3    0    0  0.78867719823E+02 -0.22059488138E+03 -0.83003824036E+03  0.86246489748E+03  0.00000000000E+00 0.  1.
          3    1    3    3  501    0 -0.78871721678E+02  0.22059312035E+03 -0.64508353145E+02  0.24298847885E+03  0.00000000000E+00 0.  1.
         21    1    1    2  502  501  0.40018549418E-02  0.17610233623E-02  0.31678342349E+00  0.31681359416E+00  0.00000000000E+00 0. -1.
<mgrwt>
<rscale>  1 0.64947175E+03</rscale>
<asrwt>0</asrwt>
<pdfrwt beam="1">  1        3 0.38461968E+00 0.64947175E+03</pdfrwt>
<pdfrwt beam="2">0</pdfrwt>
<totfact> 0.71364781E-02</totfact>
</mgrwt>
</event>
<event>
 6    1  0.1440222E-002  0.6688435E+03  0.7818608E-02  0.9772049E-01
          1   -1    0    0  502    0  0.00000000000E+00  0.00000000000E+00  0.11192005594E+03  0.11192005594E+03  0.00000000000E+00 0.  1.
         13   -1    0    0    0    0 -0.00000000000E+00 -0.00000000000E+00 -0.10000000000E+04  0.10000000000E+04  0.00000000000E+00 0.  1.
    9000005    2    1    2  501    0  0.16578060912E-02  0.46987200769E-02 -0.88816200427E+03  0.11118378446E+04  0.66884351445E+03 0.  0.
         13    1    3    3    0    0 -0.24203279074E+02 -0.28841210733E+03 -0.16557403200E+03  0.33343980333E+03  0.00000000000E+00 0.  1.
          3    1    3    3  501    0  0.24204936880E+02  0.28841680605E+03 -0.72258797227E+03  0.77839804127E+03  0.00000000000E+00 0.  1.
         21    1    1    2  502  501 -0.16578060912E-02 -0.46987200770E-02  0.82060215092E-01  0.82211344669E-01  0.00000000000E+00 0. -1.
<mgrwt>
<rscale>  1 0.66884351E+03</rscale>
<asrwt>0</asrwt>
<pdfrwt beam="1">  1        1 0.40698288E+00 0.66884351E+03</pdfrwt>
<pdfrwt beam="2">0</pdfrwt>
<totfact> 0.12407125E+00</totfact>
</mgrwt>
</event>
<event>
 6    1  0.1440222E-002  0.6516538E+03  0.7818608E-02  0.9803681E-01
          1   -1    0    0  502    0  0.00000000000E+00  0.00000000000E+00  0.10616327516E+03  0.10616327516E+03  0.00000000000E+00 0.  1.
         13   -1    0    0    0    0 -0.00000000000E+00 -0.00000000000E+00 -0.10000000000E+04  0.10000000000E+04  0.00000000000E+00 0.  1.
    9000005    2    1    2  501    0 -0.51860422445E-06  0.12779980125E-04 -0.89383683935E+03  0.11061631599E+04  0.65165377388E+03 0.  0.
         13    1    3    3    0    0 -0.16712247904E+03  0.26276522569E+03 -0.60962501272E+03  0.68455689535E+03  0.00000000000E+00 0.  1.
          3    1    3    3  501    0  0.16712247852E+03 -0.26276521291E+03 -0.28421182663E+03  0.42160626459E+03  0.00000000000E+00 0.  1.
         21    1    1    2  502  501  0.51860421761E-06 -0.12779980146E-04  0.11451224240E-03  0.11522434856E-03  0.00000000000E+00 0. -1.
<mgrwt>
<rscale>  1 0.65165377E+03</rscale>
<asrwt>0</asrwt>
<pdfrwt beam="1">  1        1 0.38604909E+00 0.65165377E+03</pdfrwt>
<pdfrwt beam="2">0</pdfrwt>
<totfact> 0.15425455E+00</totfact>
</mgrwt>
</event>
<event>
 6    1  0.1440222E-002  0.5368770E+03  0.7818608E-02  0.1004578E+00
          1   -1    0    0  502    0  0.00000000000E+00  0.00000000000E+00  0.72339282382E+02  0.72339282382E+02  0.00000000000E+00 0.  1.
         13   -1    0    0    0    0 -0.00000000000E+00 -0.00000000000E+00 -0.10000000000E+04  0.10000000000E+04  0.00000000000E+00 0.  1.
    9000005    2    1    2  501    0  0.98039174924E-01  0.85450071535E-01 -0.92792450906E+03  0.10720451747E+04  0.53687702989E+03 0.  0.
         13    1    3    3    0    0  0.32189933799E+01  0.22004594530E+02 -0.99815743906E+03  0.99840514684E+03  0.00000000000E+00 0.  1.
          3    1    3    3  501    0 -0.31209542049E+01 -0.21919144459E+02  0.70232930001E+02  0.73640027875E+02  0.00000000000E+00 0.  1.
         21    1    1    2  502  501 -0.98039174924E-01 -0.85450071535E-01  0.26379143800E+00  0.29410766278E+00  0.00000000000E+00 0.  1.
<mgrwt>
<rscale>  1 0.53687705E+03</rscale>
<asrwt>0</asrwt>
<pdfrwt beam="1">  1        1 0.26305249E+00 0.53687705E+03</pdfrwt>
<pdfrwt beam="2">0</pdfrwt>
<totfact> 0.53869739E+00</totfact>
</mgrwt>
</event>
<event>
 6    1  0.1440222E-002  0.6513088E+03  0.7818608E-02  0.9804326E-01
          1   -1    0    0  502    0  0.00000000000E+00  0.00000000000E+00  0.10956837177E+03  0.10956837177E+03  0.00000000000E+00 0.  1.
         13   -1    0    0    0    0 -0.00000000000E+00 -0.00000000000E+00 -0.10000000000E+04  0.10000000000E+04  0.00000000000E+00 0.  1.
    9000005    2    1    2  501    0 -0.22332509844E+00  0.19389517190E+00 -0.89394233131E+03  0.11060452332E+04  0.65130874295E+03 0.  0.
         13    1    3    3    0    0 -0.12819024780E+03 -0.77099915021E+00  0.61422290790E+02  0.14214792252E+03  0.00000000000E+00 0.  1.
          1    1    3    3  501    0  0.12796692270E+03  0.96489432211E+00 -0.95536462210E+03  0.96389731066E+03  0.00000000000E+00 0.  1.
         21    1    1    2  502  501  0.22332509844E+00 -0.19389517190E+00  0.35107030775E+01  0.35231385916E+01  0.00000000000E+00 0.  1.
<mgrwt>
<rscale>  1 0.65130881E+03</rscale>
<asrwt>0</asrwt>
<pdfrwt beam="1">  1        1 0.39843128E+00 0.65130881E+03</pdfrwt>
<pdfrwt beam="2">0</pdfrwt>
<totfact> 0.13592405E+00</totfact>
</mgrwt>
</event>
<event>
 6    1  0.1440222E-002  0.6320968E+03  0.7818608E-02  0.9840966E-01
          1   -1    0    0  502    0  0.00000000000E+00  0.00000000000E+00  0.99887300642E+02  0.99887300642E+02  0.00000000000E+00 0.  1.
         13   -1    0    0    0    0 -0.00000000000E+00 -0.00000000000E+00 -0.10000000000E+04  0.10000000000E+04  0.00000000000E+00 0.  1.
    9000005    2    1    2  501    0 -0.10270460967E-03 -0.17301330737E-03 -0.90011338885E+03  0.10998865824E+04  0.63209681328E+03 0.  0.
         13    1    3    3    0    0  0.18029461929E+03 -0.18028393151E+03 -0.77502509925E+03  0.81588746171E+03  0.00000000000E+00 0.  1.
          3    1    3    3  501    0 -0.18029472200E+03  0.18028375850E+03 -0.12508828960E+03  0.28399912069E+03  0.00000000000E+00 0.  1.
         21    1    1    2  502  501  0.10270460968E-03  0.17301330739E-03  0.68948798433E-03  0.71824475071E-03  0.00000000000E+00 0.  1.
<mgrwt>
<rscale>  1 0.63209681E+03</rscale>
<asrwt>0</asrwt>
<pdfrwt beam="1">  1        1 0.36322731E+00 0.63209681E+03</pdfrwt>
<pdfrwt beam="2">0</pdfrwt>
<totfact> 0.19509288E+00</totfact>
</mgrwt>
</event>
<event>
 6    1  0.1440222E-002  0.6429060E+03  0.7818608E-02  0.9820182E-01
          1   -1    0    0  502    0  0.00000000000E+00  0.00000000000E+00  0.10333884193E+03  0.10333884193E+03  0.00000000000E+00 0.  1.
         13   -1    0    0    0    0 -0.00000000000E+00 -0.00000000000E+00 -0.10000000000E+04  0.10000000000E+04  0.00000000000E+00 0.  1.
    9000005    2    1    2  501    0  0.21876202297E-03 -0.37173418168E-03 -0.89666797015E+03  0.11033320162E+04  0.64290597235E+03 0.  0.
         13    1    3    3    0    0 -0.90894737684E+01  0.99721536176E+02 -0.97255098681E+03  0.97769239807E+03  0.00000000000E+00 0.  1.
          1    1    3    3  501    0  0.90896925305E+01 -0.99721907911E+02  0.75883016655E+02  0.12563961813E+03  0.00000000000E+00 0.  1.
         21    1    1    2  502  501 -0.21876202297E-03  0.37173418169E-03  0.68120860099E-02  0.68257277217E-02  0.00000000000E+00 0.  1.
<mgrwt>
<rscale>  1 0.64290597E+03</rscale>
<asrwt>0</asrwt>
<pdfrwt beam="1">  1        1 0.37577840E+00 0.64290597E+03</pdfrwt>
<pdfrwt beam="2">0</pdfrwt>
<totfact> 0.17150422E+00</totfact>
</mgrwt>
</event>
<event>
 6    1  0.1440222E-002  0.6365568E+03  0.7818608E-02  0.9832337E-01
          1   -1    0    0  502    0  0.00000000000E+00  0.00000000000E+00  0.10131058994E+03  0.10131058994E+03  0.00000000000E+00 0.  1.
         13   -1    0    0    0    0 -0.00000000000E+00 -0.00000000000E+00 -0.10000000000E+04  0.10000000000E+04  0.00000000000E+00 0.  1.
    9000005    2    1    2  501    0 -0.15516337783E-03  0.79589228733E-04 -0.89869886379E+03  0.11013011346E+04  0.63655678560E+03 0.  0.
         13    1    3    3    0    0 -0.11966580267E+03 -0.62450343317E+02  0.49328657264E+02  0.14371244253E+03  0.00000000000E+00 0.  1.
          3    1    3    3  501    0  0.11966564751E+03  0.62450422906E+02 -0.94802752105E+03  0.95758869208E+03  0.00000000000E+00 0.  1.
         21    1    1    2  502  501  0.15516337782E-03 -0.79589228738E-04  0.94537335364E-02  0.94553417652E-02  0.00000000000E+00 0.  1.
<mgrwt>
<rscale>  1 0.63655679E+03</rscale>
<asrwt>0</asrwt>
<pdfrwt beam="1">  1        1 0.36840292E+00 0.63655679E+03</pdfrwt>
<pdfrwt beam="2">0</pdfrwt>
<totfact> 0.18501230E+00</totfact>
</mgrwt>
</event>
<event>
 6    1  0.1440222E-002  0.6411626E+03  0.7818608E-02  0.9823505E-01
          1   -1    0    0  502    0  0.00000000000E+00  0.00000000000E+00  0.10317346891E+03  0.10317346891E+03  0.00000000000E+00 0.  1.
         13   -1    0    0    0    0 -0.00000000000E+00 -0.00000000000E+00 -0.10000000000E+04  0.10000000000E+04  0.00000000000E+00 0.  1.
    9000005    2    1    2  501    0  0.23197423713E-02 -0.57574422326E-02 -0.89722760790E+03  0.11027723441E+04  0.64116258657E+03 0.  0.
         13    1    3    3    0    0 -0.24627845229E+03  0.18342424237E+03 -0.29028810685E+03  0.42256918218E+03  0.00000000000E+00 0.  1.
          1    1    3    3  501    0  0.24628077203E+03 -0.18342999982E+03 -0.60693950105E+03  0.68020316189E+03  0.00000000000E+00 0.  1.
         21    1    1    2  502  501 -0.23197423713E-02  0.57574422326E-02  0.40107681442E+00  0.40112484392E+00  0.00000000000E+00 0. -1.
<mgrwt>
<rscale>  1 0.64116259E+03</rscale>
<asrwt>0</asrwt>
<pdfrwt beam="1">  1        1 0.37517704E+00 0.64116259E+03</pdfrwt>
<pdfrwt beam="2">0</pdfrwt>
<totfact> 0.17260807E+00</totfact>
</mgrwt>
</event>
<event>
 6    1  0.1440222E-002  0.6087122E+03  0.7818608E-02  0.9887494E-01
          1   -1    0    0  502    0  0.00000000000E+00  0.00000000000E+00  0.92818638317E+02  0.92818638317E+02  0.00000000000E+00 0.  1.
         13   -1    0    0    0    0 -0.00000000000E+00 -0.00000000000E+00 -0.10000000000E+04  0.10000000000E+04  0.00000000000E+00 0.  1.
    9000005    2    1    2  501    0 -0.95265377549E-02 -0.27540985129E-01 -0.90736612705E+03  0.10926315889E+04  0.60871216483E+03 0.  0.
         13    1    3    3    0    0  0.26088218712E+03 -0.82784197338E+02 -0.69262302962E+03  0.74474116312E+03  0.00000000000E+00 0.  1.
          1    1    3    3  501    0 -0.26089171366E+03  0.82756656353E+02 -0.21474309743E+03  0.34789042574E+03  0.00000000000E+00 0.  1.
         21    1    1    2  502  501  0.95265377549E-02  0.27540985129E-01  0.18476536397E+00  0.18704946005E+00  0.00000000000E+00 0.  1.
<mgrwt>
<rscale>  1 0.60871217E+03</rscale>
<asrwt>0</asrwt>
<pdfrwt beam="1">  1        1 0.33752303E+00 0.60871217E+03</pdfrwt>
<pdfrwt beam="2">0</pdfrwt>
<totfact> 0.25356533E+00</totfact>
</mgrwt>
</event>
<event>
 6    1  0.1440222E-002  0.6337190E+03  0.7818608E-02  0.9837818E-01
          1   -1    0    0  502    0  0.00000000000E+00  0.00000000000E+00  0.10102957747E+03  0.10102957747E+03  0.00000000000E+00 0.  1.
         13   -1    0    0    0    0 -0.00000000000E+00 -0.00000000000E+00 -0.10000000000E+04  0.10000000000E+04  0.00000000000E+00 0.  1.
    9000005    2    1    2  501    0 -0.20659626420E-01  0.62821908263E-03 -0.89959988634E+03  0.11003997744E+04  0.63371894998E+03 0.  0.
         13    1    3    3    0    0  0.27913719165E+03 -0.12448286537E+03 -0.59486362060E+03  0.66878717291E+03  0.00000000000E+00 0.  1.
          3    1    3    3  501    0 -0.27915785128E+03  0.12448349359E+03 -0.30473626574E+03  0.43161260149E+03  0.00000000000E+00 0.  1.
         21    1    1    2  502  501  0.20659626420E-01 -0.62821908262E-03  0.62946381685E+00  0.62980307362E+00  0.00000000000E+00 0.  1.
<mgrwt>
<rscale>  1 0.63371895E+03</rscale>
<asrwt>0</asrwt>
<pdfrwt beam="1">  1        1 0.36738106E+00 0.63371895E+03</pdfrwt>
<pdfrwt beam="2">0</pdfrwt>
<totfact> 0.18702881E+00</totfact>
</mgrwt>
</event>
<event>
 6    1  0.1440222E-002  0.6488254E+03  0.7818608E-02  0.9808986E-01
          1   -1    0    0  502    0  0.00000000000E+00  0.00000000000E+00  0.11800284879E+03  0.11800284879E+03  0.00000000000E+00 0.  1.
         13   -1    0    0    0    0 -0.00000000000E+00 -0.00000000000E+00 -0.10000000000E+04  0.10000000000E+04  0.00000000000E+00 0.  1.
    9000005    2    1    2  501    0 -0.55774021884E+00 -0.39583793783E+00 -0.89474628111E+03  0.11052353872E+04  0.64882500403E+03 0.  0.
         13    1    3    3    0    0 -0.28686078617E+03  0.14722574385E+03 -0.38429587624E+03  0.50164514429E+03  0.00000000000E+00 0.  1.
          1    1    3    3  501    0  0.28630304595E+03 -0.14762158179E+03 -0.51045040486E+03  0.60359024293E+03  0.00000000000E+00 0.  1.
         21    1    1    2  502  501  0.55774021884E+00  0.39583793783E+00  0.12749129895E+02  0.12767461568E+02  0.00000000000E+00 0.  1.
<mgrwt>
<rscale>  1 0.64882536E+03</rscale>
<asrwt>0</asrwt>
<pdfrwt beam="1">  1        1 0.42910217E+00 0.64882536E+03</pdfrwt>
<pdfrwt beam="2">0</pdfrwt>
<totfact> 0.99012068E-01</totfact>
</mgrwt>
</event>
<event>
 6    1  0.1440222E-002  0.6492494E+03  0.7818608E-02  0.9808189E-01
          1   -1    0    0  502    0  0.00000000000E+00  0.00000000000E+00  0.10538182022E+03  0.10538182022E+03  0.00000000000E+00 0.  1.
         13   -1    0    0    0    0 -0.00000000000E+00 -0.00000000000E+00 -0.10000000000E+04  0.10000000000E+04  0.00000000000E+00 0.  1.
    9000005    2    1    2  501    0 -0.40071779239E-04  0.58160746423E-05 -0.89461880771E+03  0.11053811910E+04  0.64924938681E+03 0.  0.
         13    1    3    3    0    0 -0.95741070038E+02 -0.74115519642E+01 -0.97526519375E+03  0.97998136806E+03  0.00000000000E+00 0.  1.
          3    1    3    3  501    0  0.95741029966E+02  0.74115577803E+01  0.80646386045E+02  0.12539982293E+03  0.00000000000E+00 0.  1.
         21    1    1    2  502  501  0.40071779247E-04 -0.58160746424E-05  0.62793298441E-03  0.62923716286E-03  0.00000000000E+00 0.  1.
<mgrwt>
<rscale>  1 0.64924939E+03</rscale>
<asrwt>0</asrwt>
<pdfrwt beam="1">  1        1 0.38320743E+00 0.64924939E+03</pdfrwt>
<pdfrwt beam="2">0</pdfrwt>
<totfact> 0.15885385E+00</totfact>
</mgrwt>
</event>
<event>
 6    1  0.1440222E-002  0.6521569E+03  0.7818608E-02  0.9802740E-01
          1   -1    0    0  502    0  0.00000000000E+00  0.00000000000E+00  0.10632719524E+03  0.10632719524E+03  0.00000000000E+00 0.  1.
         13   -1    0    0    0    0 -0.00000000000E+00 -0.00000000000E+00 -0.10000000000E+04  0.10000000000E+04  0.00000000000E+00 0.  1.
    9000005    2    1    2  501    0  0.14592143373E-04  0.36880781600E-04 -0.89367285054E+03  0.11063271347E+04  0.65215685621E+03 0.  0.
         13    1    3    3    0    0 -0.15983476907E+03 -0.88449141265E+01 -0.92875423726E+03  0.94244884165E+03  0.00000000000E+00 0.  1.
          3    1    3    3  501    0  0.15983478366E+03  0.88449510073E+01  0.35081386712E+02  0.16387829301E+03  0.00000000000E+00 0.  1.
         21    1    1    2  502  501 -0.14592143398E-04 -0.36880781601E-04  0.45784542375E-04  0.60575135335E-04  0.00000000000E+00 0.  1.
<mgrwt>
<rscale>  1 0.65215686E+03</rscale>
<asrwt>0</asrwt>
<pdfrwt beam="1">  1        1 0.38664516E+00 0.65215686E+03</pdfrwt>
<pdfrwt beam="2">0</pdfrwt>
<totfact> 0.15330601E+00</totfact>
</mgrwt>
</event>
<event>
 6    1  0.1440222E-002  0.6558537E+03  0.7818608E-02  0.9795857E-01
          1   -1    0    0  502    0  0.00000000000E+00  0.00000000000E+00  0.10753607065E+03  0.10753607065E+03  0.00000000000E+00 0.  1.
         13   -1    0    0    0    0 -0.00000000000E+00 -0.00000000000E+00 -0.10000000000E+04  0.10000000000E+04  0.00000000000E+00 0.  1.
    9000005    2    1    2  501    0  0.18475431062E-04  0.43013066353E-05 -0.89246396256E+03  0.11075360324E+04  0.65585374788E+03 0.  0.
         13    1    3    3    0    0  0.98908252281E+02  0.27547561600E+02  0.79693267840E+02  0.12997202568E+03  0.00000000000E+00 0.  1.
          1    1    3    3  501    0 -0.98908233805E+02 -0.27547557298E+02 -0.97215723040E+03  0.97756400673E+03  0.00000000000E+00 0.  1.
         21    1    1    2  502  501 -0.18475431058E-04 -0.43013066365E-05  0.33215953051E-04  0.38251043497E-04  0.00000000000E+00 0. -1.
<mgrwt>
<rscale>  1 0.65585375E+03</rscale>
<asrwt>0</asrwt>
<pdfrwt beam="1">  1        1 0.39104108E+00 0.65585375E+03</pdfrwt>
<pdfrwt beam="2">0</pdfrwt>
<totfact> 0.14648010E+00</totfact>
</mgrwt>
</event>
<event>
 6    1  0.1440222E-002  0.6488842E+03  0.7818608E-02  0.9808875E-01
          1   -1    0    0  502    0  0.00000000000E+00  0.00000000000E+00  0.10612863261E+03  0.10612863261E+03  0.00000000000E+00 0.  1.
         13   -1    0    0    0    0 -0.00000000000E+00 -0.00000000000E+00 -0.10000000000E+04  0.10000000000E+04  0.00000000000E+00 0.  1.
    9000005    2    1    2  501    0 -0.36280205156E+00 -0.44209165110E+00 -0.89463171540E+03  0.11051772129E+04  0.64888399477E+03 0.  0.
         13    1    3    3    0    0  0.22987741408E+03  0.22125231429E+03 -0.54455170688E+03  0.63113609749E+03  0.00000000000E+00 0.  1.
          3    1    3    3  501    0 -0.23024021613E+03 -0.22169440594E+03 -0.35008000851E+03  0.47404111542E+03  0.00000000000E+00 0.  1.
         21    1    1    2  502  501  0.36280205156E+00  0.44209165110E+00  0.76034800390E+00  0.95141969899E+00  0.00000000000E+00 0.  1.
<mgrwt>
<rscale>  1 0.64888425E+03</rscale>
<asrwt>0</asrwt>
<pdfrwt beam="1">  1        1 0.38592311E+00 0.64888425E+03</pdfrwt>
<pdfrwt beam="2">0</pdfrwt>
<totfact> 0.15453185E+00</totfact>
</mgrwt>
</event>
<event>
 6    1  0.1440222E-002  0.6615485E+03  0.7818608E-02  0.9785347E-01
          1   -1    0    0  502    0  0.00000000000E+00  0.00000000000E+00  0.11056890493E+03  0.11056890493E+03  0.00000000000E+00 0.  1.
         13   -1    0    0    0    0 -0.00000000000E+00 -0.00000000000E+00 -0.10000000000E+04  0.10000000000E+04  0.00000000000E+00 0.  1.
    9000005    2    1    2  501    0  0.64858543305E+00 -0.16349028993E+00 -0.89048017942E+03  0.11093247305E+04  0.66154815416E+03 0.  0.
         13    1    3    3    0    0 -0.36952619519E+02  0.25183180077E+03 -0.91128585887E+02  0.27035008995E+03  0.00000000000E+00 0.  1.
          1    1    3    3  501    0  0.37601204952E+02 -0.25199529106E+03 -0.79935159354E+03  0.83897464051E+03  0.00000000000E+00 0.  1.
         21    1    1    2  502  501 -0.64858543305E+00  0.16349028993E+00  0.10490843551E+01  0.12441744745E+01  0.00000000000E+00 0.  1.
<mgrwt>
<rscale>  1 0.66154849E+03</rscale>
<asrwt>0</asrwt>
<pdfrwt beam="1">  1        1 0.40206959E+00 0.66154849E+03</pdfrwt>
<pdfrwt beam="2">0</pdfrwt>
<totfact> 0.13068747E+00</totfact>
</mgrwt>
</event>
<event>
 6    1  0.1440222E-002  0.6601737E+03  0.7818608E-02  0.9787874E-01
          1   -1    0    0  502    0  0.00000000000E+00  0.00000000000E+00  0.10896716304E+03  0.10896716304E+03  0.00000000000E+00 0.  1.
         13   -1    0    0    0    0 -0.00000000000E+00 -0.00000000000E+00 -0.10000000000E+04  0.10000000000E+04  0.00000000000E+00 0.  1.
    9000005    2    1    2  501    0 -0.18772288371E-03  0.31850661133E-02 -0.89104237455E+03  0.11089571059E+04  0.66017372678E+03 0.  0.
         13    1    3    3    0    0  0.99840795644E+02 -0.21238234851E+03 -0.55596495696E+02  0.24117507493E+03  0.00000000000E+00 0.  1.
          3    1    3    3  501    0 -0.99840983366E+02  0.21238553357E+03 -0.83544587885E+03  0.86778203100E+03  0.00000000000E+00 0.  1.
         21    1    1    2  502  501  0.18772288372E-03 -0.31850661133E-02  0.95375952623E-02  0.10057117351E-01  0.00000000000E+00 0. -1.
<mgrwt>
<rscale>  1 0.66017373E+03</rscale>
<asrwt>0</asrwt>
<pdfrwt beam="1">  1        1 0.39624506E+00 0.66017373E+03</pdfrwt>
<pdfrwt beam="2">0</pdfrwt>
<totfact> 0.13877320E+00</totfact>
</mgrwt>
</event>
<event>
 6    1  0.1440222E-002  0.6578874E+03  0.7818608E-02  0.9792091E-01
          1   -1    0    0  502    0  0.00000000000E+00  0.00000000000E+00  0.10820441814E+03  0.10820441814E+03  0.00000000000E+00 0.  1.
         13   -1    0    0    0    0 -0.00000000000E+00 -0.00000000000E+00 -0.10000000000E+04  0.10000000000E+04  0.00000000000E+00 0.  1.
    9000005    2    1    2  501    0  0.57165873491E-03  0.33255678849E-03 -0.89179574712E+03  0.11082037365E+04  0.65788742723E+03 0.  0.
         13    1    3    3    0    0 -0.23258904652E+02 -0.24380449997E+03 -0.81580404917E+03  0.85177336040E+03  0.00000000000E+00 0.  1.
          1    1    3    3  501    0  0.23259476311E+02  0.24380483253E+03 -0.75991697954E+02  0.25643037605E+03  0.00000000000E+00 0.  1.
         21    1    1    2  502  501 -0.57165873491E-03 -0.33255678851E-03  0.16526410997E-03  0.68168904409E-03  0.00000000000E+00 0.  1.
<mgrwt>
<rscale>  1 0.65788743E+03</rscale>
<asrwt>0</asrwt>
<pdfrwt beam="1">  1        1 0.39347144E+00 0.65788743E+03</pdfrwt>
<pdfrwt beam="2">0</pdfrwt>
<totfact> 0.14283128E+00</totfact>
</mgrwt>
</event>
<event>
 6    1  0.1440222E-002  0.6504628E+03  0.7818608E-02  0.9805911E-01
          1   -1    0    0  502    0  0.00000000000E+00  0.00000000000E+00  0.10577603301E+03  0.10577603301E+03  0.00000000000E+00 0.  1.
         13   -1    0    0    0    0 -0.00000000000E+00 -0.00000000000E+00 -0.10000000000E+04  0.10000000000E+04  0.00000000000E+00 0.  1.
    9000005    2    1    2  501    0  0.16312692185E-04 -0.16826772711E-04 -0.89422454038E+03  0.11057754591E+04  0.65046278711E+03 0.  0.
         13    1    3    3    0    0 -0.22126206733E+02 -0.10767870200E+02  0.10419067349E+03  0.10705705253E+03  0.00000000000E+00 0.  1.
          3    1    3    3  501    0  0.22126223046E+02  0.10767853373E+02 -0.99841521387E+03  0.99871840661E+03  0.00000000000E+00 0.  1.
         21    1    1    2  502  501 -0.16312692184E-04  0.16826772711E-04  0.57339413267E-03  0.57387287407E-03  0.00000000000E+00 0.  1.
<mgrwt>
<rscale>  1 0.65046279E+03</rscale>
<asrwt>0</asrwt>
<pdfrwt beam="1">  1        1 0.38464093E+00 0.65046279E+03</pdfrwt>
<pdfrwt beam="2">0</pdfrwt>
<totfact> 0.15651762E+00</totfact>
</mgrwt>
</event>
<event>
 6    1  0.1440222E-002  0.6176502E+03  0.7818608E-02  0.9869449E-01
          1   -1    0    0  502    0  0.00000000000E+00  0.00000000000E+00  0.96047125553E+02  0.96047125553E+02  0.00000000000E+00 0.  1.
         13   -1    0    0    0    0 -0.00000000000E+00 -0.00000000000E+00 -0.10000000000E+04  0.10000000000E+04  0.00000000000E+00 0.  1.
    9000005    2    1    2  501    0 -0.25995902718E+00 -0.80404840912E-01 -0.90459687923E+03  0.10953479934E+04  0.61765009401E+03 0.  0.
         13    1    3    3    0    0 -0.26191580121E+03 -0.14989998792E+03 -0.33507895500E+03  0.45094101541E+03  0.00000000000E+00 0.  1.
          1    1    3    3  501    0  0.26165584218E+03  0.14981958308E+03 -0.56951792424E+03  0.64440697796E+03  0.00000000000E+00 0.  1.
         21    1    1    2  502  501  0.25995902718E+00  0.80404840912E-01  0.64400478659E+00  0.69913217592E+00  0.00000000000E+00 0. -1.
<mgrwt>
<rscale>  1 0.61765015E+03</rscale>
<asrwt>0</asrwt>
<pdfrwt beam="1">  1        1 0.34926301E+00 0.61765015E+03</pdfrwt>
<pdfrwt beam="2">0</pdfrwt>
<totfact> 0.22508986E+00</totfact>
</mgrwt>
</event>
<event>
 6    1  0.1440222E-002  0.6476044E+03  0.7818608E-02  0.9811285E-01
          1   -1    0    0  502    0  0.00000000000E+00  0.00000000000E+00  0.10488651681E+03  0.10488651681E+03  0.00000000000E+00 0.  1.
         13   -1    0    0    0    0 -0.00000000000E+00 -0.00000000000E+00 -0.10000000000E+04  0.10000000000E+04  0.00000000000E+00 0.  1.
    9000005    2    1    2  501    0  0.94994017654E-01 -0.46167431823E-02 -0.89507155246E+03  0.11047825776E+04  0.64760439362E+03 0.  0.
         13    1    3    3    0    0 -0.13518368584E+03 -0.28249230778E+03 -0.30725120587E+03  0.43872524019E+03  0.00000000000E+00 0.  1.
          3    1    3    3  501    0  0.13527867986E+03  0.28248769104E+03 -0.58782034660E+03  0.66605733739E+03  0.00000000000E+00 0.  1.
         21    1    1    2  502  501 -0.94994017654E-01  0.46167431823E-02 -0.41930728995E-01  0.10393923100E+00  0.00000000000E+00 0. -1.
<mgrwt>
<rscale>  1 0.64760440E+03</rscale>
<asrwt>0</asrwt>
<pdfrwt beam="1">  1        1 0.38140632E+00 0.64760440E+03</pdfrwt>
<pdfrwt beam="2">0</pdfrwt>
<totfact> 0.16183978E+00</totfact>
</mgrwt>
</event>
