<event>
 6    1  0.1000035E-011  0.3000000E+03  0.7818608E-02  0.1093470E+00
          1   -1    0    0  502    0  0.00000000000E+00  0.00000000000E+00  0.23864630969E+03  0.23864630969E+03  0.00000000000E+00 0.  1.
         13   -1    0    0    0    0 -0.00000000000E+00 -0.00000000000E+00 -0.27500000000E+03  0.27500000000E+03  0.00000000000E+00 0.  1.
    9000005    2    1    2  501    0  0.35389476870E+02 -0.37103576052E+01 -0.57299097798E+02  0.47235597279E+03  0.46751555760E+03 0.  0.
         13    1    3    3    0    0 -0.15196536134E+03  0.97903217933E+02  0.10080685600E+03  0.20697954813E+03  0.00000000000E+00 0.  1.
          3    1    3    3  501    0  0.18735483821E+03 -0.10161357554E+03 -0.15810595380E+03  0.26537642465E+03  0.00000000000E+00 0.  1.
         21    1    1    2  502  501 -0.35389476870E+02  0.37103576052E+01  0.20945407489E+02  0.41290336903E+02  0.00000000000E+00 0.  1.
<scales pt_clust_4="550.00000" pt_clust_5="550.00000" pt_clust_6="35.58345"></scales>
<mgrwt>
<rscale>  0 0.30000000E+03</rscale>
<asrwt>  1 0.35583449E+02</asrwt>
<pdfrwt beam="1">  1        1 0.86780476E+00 0.30000000E+03</pdfrwt>
<pdfrwt beam="2">0</pdfrwt>
<totfact> 0.26597069E-04</totfact>
</mgrwt>
<clustering>
<clus scale="   35.583">  1  6  2 -1</clus>
<clus scale="  467.516">  4  5 -1 -1</clus>
<clus scale="  300.000">  1  4  2 -1</clus>
</clustering>
</event>
<event>
 6    1  0.1000035E-011  0.3000000E+03  0.7818608E-02  0.1093470E+00
          1   -1    0    0  502    0  0.00000000000E+00  0.00000000000E+00  0.22982674531E+03  0.22982674531E+03  0.00000000000E+00 0.  1.
         13   -1    0    0    0    0 -0.00000000000E+00 -0.00000000000E+00 -0.27500000000E+03  0.27500000000E+03  0.00000000000E+00 0.  1.
    9000005    2    1    2  501    0 -0.25929628336E+02  0.27275540237E+02 -0.53062422937E+02  0.46637496126E+03  0.46181563750E+03 0.  0.
         13    1    3    3    0    0 -0.32683350866E+02 -0.21672697410E+03 -0.29238524158E+02  0.22111913988E+03  0.00000000000E+00 0.  1.
          1    1    3    3  501    0  0.67537225301E+01  0.24400251433E+03 -0.23823898780E+02  0.24525582138E+03  0.00000000000E+00 0.  1.
         21    1    1    2  502  501  0.25929628336E+02 -0.27275540237E+02  0.78891682469E+01  0.38451784048E+02  0.00000000000E+00 0.  1.
<scales pt_clust_4="550.00000" pt_clust_5="550.00000" pt_clust_6="37.63377"></scales>
<mgrwt>
<rscale>  0 0.30000000E+03</rscale>
<asrwt>  1 0.37633771E+02</asrwt>
<pdfrwt beam="1">  1        1 0.83573362E+00 0.30000000E+03</pdfrwt>
<pdfrwt beam="2">0</pdfrwt>
<totfact> 0.52722307E-04</totfact>
</mgrwt>
<clustering>
<clus scale="   37.634">  1  6  2 -1</clus>
<clus scale="  461.816">  4  5 -1 -1</clus>
<clus scale="  300.000">  1  4  2 -1</clus>
</clustering>
</event>
<event>
 6    1  0.1000035E-011  0.3000000E+03  0.7818608E-02  0.1093470E+00
          1   -1    0    0  502    0  0.00000000000E+00  0.00000000000E+00  0.22347304671E+03  0.22347304671E+03  0.00000000000E+00 0.  1.
         13   -1    0    0    0    0 -0.00000000000E+00 -0.00000000000E+00 -0.27500000000E+03  0.27500000000E+03  0.00000000000E+00 0.  1.
    9000005    2    1    2  501    0 -0.12668279129E+02  0.34987263382E+02 -0.39406944747E+02  0.45933880976E+03  0.45613007022E+03 0.  0.
         13    1    3    3    0    0 -0.10695209064E+03 -0.60768852211E+02 -0.20927055012E+03  0.24274630016E+03  0.00000000000E+00 0.  1.
          1    1    3    3  501    0  0.94283811511E+02  0.95756115592E+02  0.16986360537E+03  0.21659250960E+03  0.00000000000E+00 0.  1.
         21    1    1    2  502  501  0.12668279129E+02 -0.34987263382E+02 -0.12120008539E+02  0.39134236954E+02  0.00000000000E+00 0.  1.
<scales pt_clust_4="550.00000" pt_clust_5="550.00000" pt_clust_6="37.21015"></scales>
<mgrwt>
<rscale>  0 0.30000000E+03</rscale>
<asrwt>  1 0.37210150E+02</asrwt>
<pdfrwt beam="1">  1        1 0.81262926E+00 0.30000000E+03</pdfrwt>
<pdfrwt beam="2">0</pdfrwt>
<totfact> 0.82218349E-04</totfact>
</mgrwt>
<clustering>
<clus scale="   37.210">  1  6  2 -1</clus>
<clus scale="  456.130">  4  5 -1 -1</clus>
<clus scale="  300.000">  1  4  2 -1</clus>
</clustering>
</event>
<event>
 6    1  0.1000035E-011  0.3000000E+03  0.7818608E-02  0.1093470E+00
          1   -1    0    0  502    0  0.00000000000E+00  0.00000000000E+00  0.25530811598E+03  0.25530811598E+03  0.00000000000E+00 0.  1.
         13   -1    0    0    0    0 -0.00000000000E+00 -0.00000000000E+00 -0.27500000000E+03  0.27500000000E+03  0.00000000000E+00 0.  1.
    9000005    2    1    2  501    0  0.10838598693E+02  0.42033469187E+02 -0.65184689960E+02  0.46742820547E+03  0.46082078481E+03 0.  0.
         13    1    3    3    0    0 -0.10535698653E+03 -0.23666825779E+02  0.16743236700E+03  0.19923305642E+03  0.00000000000E+00 0.  1.
          3    1    3    3  501    0  0.11619558522E+03  0.65700294967E+02 -0.23261705696E+03  0.26819514905E+03  0.00000000000E+00 0.  1.
         21    1    1    2  502  501 -0.10838598693E+02 -0.42033469187E+02  0.45492805941E+02  0.62879910511E+02  0.00000000000E+00 0. -1.
<scales pt_clust_4="550.00000" pt_clust_5="550.00000" pt_clust_6="43.40838"></scales>
<mgrwt>
<rscale>  0 0.30000000E+03</rscale>
<asrwt>  1 0.43408383E+02</asrwt>
<pdfrwt beam="1">  1        1 0.92839315E+00 0.30000000E+03</pdfrwt>
<pdfrwt beam="2">0</pdfrwt>
<totfact> 0.26927560E-05</totfact>
</mgrwt>
<clustering>
<clus scale="   43.408">  1  6  2 -1</clus>
<clus scale="  460.821">  4  5 -1 -1</clus>
<clus scale="  300.000">  1  4  2 -1</clus>
</clustering>
</event>
<event>
 6    1  0.1000035E-011  0.3000000E+03  0.7818608E-02  0.1093470E+00
          1   -1    0    0  502    0  0.00000000000E+00  0.00000000000E+00  0.23891234895E+03  0.23891234895E+03  0.00000000000E+00 0.  1.
         13   -1    0    0    0    0 -0.00000000000E+00 -0.00000000000E+00 -0.27500000000E+03  0.27500000000E+03  0.00000000000E+00 0.  1.
    9000005    2    1    2  501    0 -0.28541674024E+02 -0.12879601365E+02 -0.32750175268E+02  0.48242187369E+03  0.48028926591E+03 0.  0.
         13    1    3    3    0    0 -0.59069523245E+02 -0.24253303683E+03 -0.15236834789E+02  0.25008727210E+03  0.00000000000E+00 0.  1.
          1    1    3    3  501    0  0.30527849222E+02  0.22965343547E+03 -0.17513340479E+02  0.23233460159E+03  0.00000000000E+00 0.  1.
         21    1    1    2  502  501  0.28541674024E+02  0.12879601365E+02 -0.33374757832E+01  0.31490475258E+02  0.00000000000E+00 0.  1.
<scales pt_clust_4="550.00000" pt_clust_5="550.00000" pt_clust_6="31.31313"></scales>
<mgrwt>
<rscale>  0 0.30000000E+03</rscale>
<asrwt>  1 0.31313133E+02</asrwt>
<pdfrwt beam="1">  1        1 0.86877218E+00 0.30000000E+03</pdfrwt>
<pdfrwt beam="2">0</pdfrwt>
<totfact> 0.26624971E-04</totfact>
</mgrwt>
<clustering>
<clus scale="   31.313">  1  6  2 -1</clus>
<clus scale="  480.289">  4  5 -1 -1</clus>
<clus scale="  300.000">  1  4  2 -1</clus>
</clustering>
</event>
<event>
 6    1  0.1000035E-011  0.3000000E+03  0.7818608E-02  0.1093470E+00
          1   -1    0    0  502    0  0.00000000000E+00  0.00000000000E+00  0.24820288937E+03  0.24820288937E+03  0.00000000000E+00 0.  1.
         13   -1    0    0    0    0 -0.00000000000E+00 -0.00000000000E+00 -0.27500000000E+03  0.27500000000E+03  0.00000000000E+00 0.  1.
    9000005    2    1    2  501    0  0.24221930577E+02 -0.20687652960E+02 -0.41877741586E+02  0.48795936038E+03  0.48511432800E+03 0.  0.
         13    1    3    3    0    0 -0.43569337244E+02  0.11379230498E+03  0.18146902723E+03  0.21858175511E+03  0.00000000000E+00 0.  1.
          3    1    3    3  501    0  0.67791267821E+02 -0.13447995794E+03 -0.22334676882E+03  0.26937760527E+03  0.00000000000E+00 0.  1.
         21    1    1    2  502  501 -0.24221930577E+02  0.20687652960E+02  0.15080630958E+02  0.35243528994E+02  0.00000000000E+00 0.  1.
<scales pt_clust_4="550.00000" pt_clust_5="550.00000" pt_clust_6="31.85406"></scales>
<mgrwt>
<rscale>  0 0.30000000E+03</rscale>
<asrwt>  1 0.31854056E+02</asrwt>
<pdfrwt beam="1">  1        1 0.90255596E+00 0.30000000E+03</pdfrwt>
<pdfrwt beam="2">0</pdfrwt>
<totfact> 0.10365600E-04</totfact>
</mgrwt>
<clustering>
<clus scale="   31.854">  1  6  2 -1</clus>
<clus scale="  485.114">  4  5 -1 -1</clus>
<clus scale="  300.000">  1  4  2 -1</clus>
</clustering>
</event>
<event>
 6    1  0.1000035E-011  0.3000000E+03  0.7818608E-02  0.1093470E+00
          1   -1    0    0  502    0  0.00000000000E+00  0.00000000000E+00  0.25076588864E+03  0.25076588864E+03  0.00000000000E+00 0.  1.
         13   -1    0    0    0    0 -0.00000000000E+00 -0.00000000000E+00 -0.27500000000E+03  0.27500000000E+03  0.00000000000E+00 0.  1.
    9000005    2    1    2  501    0  0.22702264744E+01 -0.57464105647E+02 -0.14331177904E+02  0.46741055078E+03  0.46363774971E+03 0.  0.
         13    1    3    3    0    0 -0.22203724450E+02 -0.24401502120E+03 -0.94869771302E+02  0.26274818640E+03  0.00000000000E+00 0.  1.
          1    1    3    3  501    0  0.24473950924E+02  0.18655091555E+03  0.80538593398E+02  0.20466236438E+03  0.00000000000E+00 0.  1.
         21    1    1    2  502  501 -0.22702264744E+01  0.57464105647E+02 -0.99029334516E+01  0.58355337862E+02  0.00000000000E+00 0. -1.
<scales pt_clust_4="550.00000" pt_clust_5="550.00000" pt_clust_6="57.50896"></scales>
<mgrwt>
<rscale>  0 0.30000000E+03</rscale>
<asrwt>  1 0.57508962E+02</asrwt>
<pdfrwt beam="1">  1        1 0.91187596E+00 0.30000000E+03</pdfrwt>
<pdfrwt beam="2">0</pdfrwt>
<totfact> 0.59080820E-05</totfact>
</mgrwt>
<clustering>
<clus scale="   57.509">  1  6  2 -1</clus>
<clus scale="  463.638">  4  5 -1 -1</clus>
<clus scale="  300.000">  1  4  2 -1</clus>
</clustering>
</event>
<event>
 6    1  0.1000035E-011  0.3000000E+03  0.7818608E-02  0.1093470E+00
          1   -1    0    0  502    0  0.00000000000E+00  0.00000000000E+00  0.22871144753E+03  0.22871144753E+03  0.00000000000E+00 0.  1.
         13   -1    0    0    0    0 -0.00000000000E+00 -0.00000000000E+00 -0.27500000000E+03  0.27500000000E+03  0.00000000000E+00 0.  1.
    9000005    2    1    2  501    0  0.17253449829E+01  0.40824460740E+02 -0.43959331016E+02  0.46278421109E+03  0.45887600705E+03 0.  0.
         13    1    3    3    0    0  0.10104687910E+03 -0.13229678401E+03 -0.16084970496E+03  0.23148550370E+03  0.00000000000E+00 0.  1.
          1    1    3    3  501    0 -0.99321534116E+02  0.17312124475E+03  0.11689037395E+03  0.23129870740E+03  0.00000000000E+00 0.  1.
         21    1    1    2  502  501 -0.17253449829E+01 -0.40824460740E+02 -0.23292214509E+01  0.40927236440E+02  0.00000000000E+00 0. -1.
<scales pt_clust_4="550.00000" pt_clust_5="550.00000" pt_clust_6="40.86090"></scales>
<mgrwt>
<rscale>  0 0.30000000E+03</rscale>
<asrwt>  1 0.40860903E+02</asrwt>
<pdfrwt beam="1">  1        1 0.83167799E+00 0.30000000E+03</pdfrwt>
<pdfrwt beam="2">0</pdfrwt>
<totfact> 0.55685140E-04</totfact>
</mgrwt>
<clustering>
<clus scale="   40.861">  1  6  2 -1</clus>
<clus scale="  458.876">  4  5 -1 -1</clus>
<clus scale="  300.000">  1  4  2 -1</clus>
</clustering>
</event>
<event>
 6    1  0.1000035E-011  0.3000000E+03  0.7818608E-02  0.1093470E+00
          1   -1    0    0  502    0  0.00000000000E+00  0.00000000000E+00  0.24482184531E+03  0.24482184531E+03  0.00000000000E+00 0.  1.
         13   -1    0    0    0    0 -0.00000000000E+00 -0.00000000000E+00 -0.27500000000E+03  0.27500000000E+03  0.00000000000E+00 0.  1.
    9000005    2    1    2  501    0 -0.15570774024E+02  0.39462999968E+02 -0.45284131529E+02  0.47478888065E+03  0.47071652961E+03 0.  0.
         13    1    3    3    0    0 -0.72860995065E+02  0.12418629697E+03 -0.22551602686E+03  0.26756016020E+03  0.00000000000E+00 0.  1.
          3    1    3    3  501    0  0.57290221041E+02 -0.84723297004E+02  0.18023189533E+03  0.20722872044E+03  0.00000000000E+00 0.  1.
         21    1    1    2  502  501  0.15570774024E+02 -0.39462999968E+02  0.15105976839E+02  0.45032964664E+02  0.00000000000E+00 0.  1.
<scales pt_clust_4="550.00000" pt_clust_5="550.00000" pt_clust_6="42.42378"></scales>
<mgrwt>
<rscale>  0 0.30000000E+03</rscale>
<asrwt>  1 0.42423783E+02</asrwt>
<pdfrwt beam="1">  1        1 0.89026126E+00 0.30000000E+03</pdfrwt>
<pdfrwt beam="2">0</pdfrwt>
<totfact> 0.13881050E-04</totfact>
</mgrwt>
<clustering>
<clus scale="   42.424">  1  6  2 -1</clus>
<clus scale="  470.717">  4  5 -1 -1</clus>
<clus scale="  300.000">  1  4  2 -1</clus>
</clustering>
</event>
<event>
 6    1  0.1000035E-011  0.3000000E+03  0.7818608E-02  0.1093470E+00
          1   -1    0    0  502    0  0.00000000000E+00  0.00000000000E+00  0.24482508178E+03  0.24482508178E+03  0.00000000000E+00 0.  1.
         13   -1    0    0    0    0 -0.00000000000E+00 -0.00000000000E+00 -0.27500000000E+03  0.27500000000E+03  0.00000000000E+00 0.  1.
    9000005    2    1    2  501    0  0.50991075878E+02 -0.27616524152E+02 -0.30274068493E+02  0.46183566847E+03  0.45717929002E+03 0.  0.
         13    1    3    3    0    0 -0.14059262684E+03  0.13368251306E+03  0.47238743015E+02  0.19967173025E+03  0.00000000000E+00 0.  1.
          3    1    3    3  501    0  0.19158370272E+03 -0.16129903721E+03 -0.77512811508E+02  0.26216393822E+03  0.00000000000E+00 0.  1.
         21    1    1    2  502  501 -0.50991075878E+02  0.27616524152E+02  0.99150276618E-01  0.57989413312E+02  0.00000000000E+00 0.  1.
<scales pt_clust_4="550.00000" pt_clust_5="550.00000" pt_clust_6="57.98933"></scales>
<mgrwt>
<rscale>  0 0.30000000E+03</rscale>
<asrwt>  1 0.57989329E+02</asrwt>
<pdfrwt beam="1">  1        1 0.89027302E+00 0.30000000E+03</pdfrwt>
<pdfrwt beam="2">0</pdfrwt>
<totfact> 0.13134842E-04</totfact>
</mgrwt>
<clustering>
<clus scale="   57.989">  1  6  2 -1</clus>
<clus scale="  457.179">  4  5 -1 -1</clus>
<clus scale="  300.000">  1  4  2 -1</clus>
</clustering>
</event>
<event>
 6    1  0.1000035E-011  0.3000000E+03  0.7818608E-02  0.1093470E+00
          1   -1    0    0  502    0  0.00000000000E+00  0.00000000000E+00  0.23206705008E+03  0.23206705008E+03  0.00000000000E+00 0.  1.
         13   -1    0    0    0    0 -0.00000000000E+00 -0.00000000000E+00 -0.27500000000E+03  0.27500000000E+03  0.00000000000E+00 0.  1.
    9000005    2    1    2  501    0  0.26569640573E+02 -0.33377696554E+02 -0.23351726456E+02  0.46012622840E+03  0.45754871490E+03 0.  0.
         13    1    3    3    0    0 -0.19497618919E+03 -0.20282429006E+02  0.84392123289E+02  0.21342240218E+03  0.00000000000E+00 0.  1.
          1    1    3    3  501    0  0.22154582976E+03 -0.13095267548E+02 -0.10774384975E+03  0.24670382623E+03  0.00000000000E+00 0.  1.
         21    1    1    2  502  501 -0.26569640573E+02  0.33377696554E+02 -0.19581223462E+02  0.46940821677E+02  0.00000000000E+00 0. -1.
<scales pt_clust_4="550.00000" pt_clust_5="550.00000" pt_clust_6="42.66167"></scales>
<mgrwt>
<rscale>  0 0.30000000E+03</rscale>
<asrwt>  1 0.42661672E+02</asrwt>
<pdfrwt beam="1">  1        1 0.84388018E+00 0.30000000E+03</pdfrwt>
<pdfrwt beam="2">0</pdfrwt>
<totfact> 0.44552385E-04</totfact>
</mgrwt>
<clustering>
<clus scale="   42.662">  1  6  2 -1</clus>
<clus scale="  457.549">  4  5 -1 -1</clus>
<clus scale="  300.000">  1  4  2 -1</clus>
</clustering>
</event>
<event>
 6    1  0.1000035E-011  0.3000000E+03  0.7818608E-02  0.1093470E+00
          1   -1    0    0  502    0  0.00000000000E+00  0.00000000000E+00  0.22865360789E+03  0.22865360789E+03  0.00000000000E+00 0.  1.
         13   -1    0    0    0    0 -0.00000000000E+00 -0.00000000000E+00 -0.27500000000E+03  0.27500000000E+03  0.00000000000E+00 0.  1.
    9000005    2    1    2  501    0 -0.75431255615E+00  0.30153541962E+02 -0.70487762976E+02  0.46501928549E+03  0.45865521480E+03 0.  0.
         13    1    3    3    0    0  0.11076924315E+03  0.12183186198E+03 -0.20824002258E+03  0.26547454648E+03  0.00000000000E+00 0.  1.
          3    1    3    3  501    0 -0.11152355571E+03 -0.91678320022E+02  0.13775225960E+03  0.19954473901E+03  0.00000000000E+00 0.  1.
         21    1    1    2  502  501  0.75431255615E+00 -0.30153541962E+02  0.24141370868E+02  0.38634322404E+02  0.00000000000E+00 0. -1.
<scales pt_clust_4="550.00000" pt_clust_5="550.00000" pt_clust_6="30.16298"></scales>
<mgrwt>
<rscale>  0 0.30000000E+03</rscale>
<asrwt>  1 0.30162975E+02</asrwt>
<pdfrwt beam="1">  1        1 0.83146767E+00 0.30000000E+03</pdfrwt>
<pdfrwt beam="2">0</pdfrwt>
<totfact> 0.59161226E-04</totfact>
</mgrwt>
<clustering>
<clus scale="   30.163">  1  6  2 -1</clus>
<clus scale="  458.655">  4  5 -1 -1</clus>
<clus scale="  300.000">  1  4  2 -1</clus>
</clustering>
</event>
<event>
 6    1  0.1000035E-011  0.3000000E+03  0.7818608E-02  0.1093470E+00
          1   -1    0    0  502    0  0.00000000000E+00  0.00000000000E+00  0.23112650583E+03  0.23112650583E+03  0.00000000000E+00 0.  1.
         13   -1    0    0    0    0 -0.00000000000E+00 -0.00000000000E+00 -0.27500000000E+03  0.27500000000E+03  0.00000000000E+00 0.  1.
    9000005    2    1    2  501    0  0.19674564256E+02  0.28799182698E+02 -0.59443346619E+02  0.46793093399E+03  0.46282757710E+03 0.  0.
         13    1    3    3    0    0  0.11863489371E+03  0.11576975468E+03 -0.21021559839E+03  0.26770781070E+03  0.00000000000E+00 0.  1.
          1    1    3    3  501    0 -0.98960329456E+02 -0.86970571981E+02  0.15077225177E+03  0.20022312329E+03  0.00000000000E+00 0.  1.
         21    1    1    2  502  501 -0.19674564256E+02 -0.28799182698E+02  0.15569852447E+02  0.38195571837E+02  0.00000000000E+00 0.  1.
<scales pt_clust_4="550.00000" pt_clust_5="550.00000" pt_clust_6="34.87809"></scales>
<mgrwt>
<rscale>  0 0.30000000E+03</rscale>
<asrwt>  1 0.34878093E+02</asrwt>
<pdfrwt beam="1">  1        1 0.84046002E+00 0.30000000E+03</pdfrwt>
<pdfrwt beam="2">0</pdfrwt>
<totfact> 0.49331241E-04</totfact>
</mgrwt>
<clustering>
<clus scale="   34.878">  1  6  2 -1</clus>
<clus scale="  462.828">  4  5 -1 -1</clus>
<clus scale="  300.000">  1  4  2 -1</clus>
</clustering>
</event>
<event>
 6    1  0.1000035E-011  0.3000000E+03  0.7818608E-02  0.1093470E+00
          1   -1    0    0  502    0  0.00000000000E+00  0.00000000000E+00  0.23242836674E+03  0.23242836674E+03  0.00000000000E+00 0.  1.
         13   -1    0    0    0    0 -0.00000000000E+00 -0.00000000000E+00 -0.27500000000E+03  0.27500000000E+03  0.00000000000E+00 0.  1.
    9000005    2    1    2  501    0 -0.31472139077E+02 -0.51493847106E+01 -0.58315726009E+02  0.47186310057E+03  0.46715848497E+03 0.  0.
         13    1    3    3    0    0  0.92772964972E+02 -0.17060281256E+03  0.93206035204E+02  0.21540544951E+03  0.00000000000E+00 0.  1.
          1    1    3    3  501    0 -0.12424510405E+03  0.16545342785E+03 -0.15152176121E+03  0.25645765106E+03  0.00000000000E+00 0.  1.
         21    1    1    2  502  501  0.31472139077E+02  0.51493847106E+01  0.15744092749E+02  0.35565266166E+02  0.00000000000E+00 0.  1.
<scales pt_clust_4="550.00000" pt_clust_5="550.00000" pt_clust_6="31.89062"></scales>
<mgrwt>
<rscale>  0 0.30000000E+03</rscale>
<asrwt>  1 0.31890621E+02</asrwt>
<pdfrwt beam="1">  1        1 0.84519406E+00 0.30000000E+03</pdfrwt>
<pdfrwt beam="2">0</pdfrwt>
<totfact> 0.45802961E-04</totfact>
</mgrwt>
<clustering>
<clus scale="   31.891">  1  6  2 -1</clus>
<clus scale="  467.158">  4  5 -1 -1</clus>
<clus scale="  300.000">  1  4  2 -1</clus>
</clustering>
</event>
<event>
 6    1  0.1000035E-011  0.3000000E+03  0.7818608E-02  0.1093470E+00
          1   -1    0    0  502    0  0.00000000000E+00  0.00000000000E+00  0.22962874895E+03  0.22962874895E+03  0.00000000000E+00 0.  1.
         13   -1    0    0    0    0 -0.00000000000E+00 -0.00000000000E+00 -0.27500000000E+03  0.27500000000E+03  0.00000000000E+00 0.  1.
    9000005    2    1    2  501    0 -0.17985826478E+02 -0.28420978241E+02 -0.61516643656E+02  0.46732036302E+03  0.46203114861E+03 0.  0.
         13    1    3    3    0    0 -0.13655943542E+03  0.12819602330E+03  0.10061224111E+03  0.21261590451E+03  0.00000000000E+00 0.  1.
          3    1    3    3  501    0  0.11857360894E+03 -0.15661700154E+03 -0.16212888476E+03  0.25470445851E+03  0.00000000000E+00 0.  1.
         21    1    1    2  502  501  0.17985826478E+02  0.28420978241E+02  0.16145392609E+02  0.37308385931E+02  0.00000000000E+00 0.  1.
<scales pt_clust_4="550.00000" pt_clust_5="550.00000" pt_clust_6="33.63394"></scales>
<mgrwt>
<rscale>  0 0.30000000E+03</rscale>
<asrwt>  1 0.33633941E+02</asrwt>
<pdfrwt beam="1">  1        1 0.83501363E+00 0.30000000E+03</pdfrwt>
<pdfrwt beam="2">0</pdfrwt>
<totfact> 0.54492351E-04</totfact>
</mgrwt>
<clustering>
<clus scale="   33.634">  1  6  2 -1</clus>
<clus scale="  462.031">  4  5 -1 -1</clus>
<clus scale="  300.000">  1  4  2 -1</clus>
</clustering>
</event>
<event>
 6    1  0.1000035E-011  0.3000000E+03  0.7818608E-02  0.1093470E+00
          1   -1    0    0  502    0  0.00000000000E+00  0.00000000000E+00  0.22246543147E+03  0.22246543147E+03  0.00000000000E+00 0.  1.
         13   -1    0    0    0    0 -0.00000000000E+00 -0.00000000000E+00 -0.27500000000E+03  0.27500000000E+03  0.00000000000E+00 0.  1.
    9000005    2    1    2  501    0  0.31630965695E+02  0.12837531264E+02 -0.57528940860E+02  0.46296522923E+03  0.45810686988E+03 0.  0.
         13    1    3    3    0    0  0.20199446145E+03 -0.12325622453E+03 -0.62910504463E+02  0.24485013970E+03  0.00000000000E+00 0.  1.
          1    1    3    3  501    0 -0.17036349575E+03  0.13609375579E+03  0.53815636027E+01  0.21811508952E+03  0.00000000000E+00 0.  1.
         21    1    1    2  502  501 -0.31630965695E+02 -0.12837531264E+02  0.49943723273E+01  0.34500202242E+02  0.00000000000E+00 0. -1.
<scales pt_clust_4="550.00000" pt_clust_5="550.00000" pt_clust_6="34.13679"></scales>
<mgrwt>
<rscale>  0 0.30000000E+03</rscale>
<asrwt>  1 0.34136787E+02</asrwt>
<pdfrwt beam="1">  1        1 0.80896521E+00 0.30000000E+03</pdfrwt>
<pdfrwt beam="2">0</pdfrwt>
<totfact> 0.89262168E-04</totfact>
</mgrwt>
<clustering>
<clus scale="   34.137">  1  6  2 -1</clus>
<clus scale="  458.107">  4  5 -1 -1</clus>
<clus scale="  300.000">  1  4  2 -1</clus>
</clustering>
</event>
<event>
 6    1  0.1000035E-011  0.3000000E+03  0.7818608E-02  0.1093470E+00
          1   -1    0    0  502    0  0.00000000000E+00  0.00000000000E+00  0.23827933559E+03  0.23827933559E+03  0.00000000000E+00 0.  1.
         13   -1    0    0    0    0 -0.00000000000E+00 -0.00000000000E+00 -0.27500000000E+03  0.27500000000E+03  0.00000000000E+00 0.  1.
    9000005    2    1    2  501    0 -0.47950421216E+02  0.58243283335E+01 -0.50672643863E+02  0.46300187119E+03  0.45767876311E+03 0.  0.
         13    1    3    3    0    0 -0.25022398139E+03 -0.28731874450E+02 -0.54780738024E+02  0.25775665022E+03  0.00000000000E+00 0.  1.
          3    1    3    3  501    0  0.20227356017E+03  0.34556202784E+02  0.41080941612E+01  0.20524522098E+03  0.00000000000E+00 0.  1.
         21    1    1    2  502  501  0.47950421216E+02 -0.58243283335E+01  0.13951979453E+02  0.50277464395E+02  0.00000000000E+00 0.  1.
<scales pt_clust_4="550.00000" pt_clust_5="550.00000" pt_clust_6="48.30285"></scales>
<mgrwt>
<rscale>  0 0.30000000E+03</rscale>
<asrwt>  1 0.48302854E+02</asrwt>
<pdfrwt beam="1">  1        1 0.86647031E+00 0.30000000E+03</pdfrwt>
<pdfrwt beam="2">0</pdfrwt>
<totfact> 0.25988396E-04</totfact>
</mgrwt>
<clustering>
<clus scale="   48.303">  1  6  2 -1</clus>
<clus scale="  457.679">  4  5 -1 -1</clus>
<clus scale="  300.000">  1  4  2 -1</clus>
</clustering>
</event>
<event>
 6    1  0.1000035E-011  0.3000000E+03  0.7818608E-02  0.1093470E+00
          1   -1    0    0  502    0  0.00000000000E+00  0.00000000000E+00  0.24134117897E+03  0.24134117897E+03  0.00000000000E+00 0.  1.
         13   -1    0    0    0    0 -0.00000000000E+00 -0.00000000000E+00 -0.27500000000E+03  0.27500000000E+03  0.00000000000E+00 0.  1.
    9000005    2    1    2  501    0  0.10532018448E+02  0.35005463491E+02 -0.46675123439E+02  0.47753744184E+03  0.47384294373E+03 0.  0.
         13    1    3    3    0    0  0.35893525658E+02 -0.20021293620E+03  0.68209204998E+02  0.21453685150E+03  0.00000000000E+00 0.  1.
          3    1    3    3  501    0 -0.25361507210E+02  0.23521839969E+03 -0.11488432844E+03  0.26300059034E+03  0.00000000000E+00 0.  1.
         21    1    1    2  502  501 -0.10532018448E+02 -0.35005463491E+02  0.13016302405E+02  0.38803737128E+02  0.00000000000E+00 0.  1.
<scales pt_clust_4="550.00000" pt_clust_5="550.00000" pt_clust_6="36.55552"></scales>
<mgrwt>
<rscale>  0 0.30000000E+03</rscale>
<asrwt>  1 0.36555518E+02</asrwt>
<pdfrwt beam="1">  1        1 0.87760429E+00 0.30000000E+03</pdfrwt>
<pdfrwt beam="2">0</pdfrwt>
<totfact> 0.20897822E-04</totfact>
</mgrwt>
<clustering>
<clus scale="   36.556">  1  6  2 -1</clus>
<clus scale="  473.843">  4  5 -1 -1</clus>
<clus scale="  300.000">  1  4  2 -1</clus>
</clustering>
</event>
<event>
 6    1  0.1000035E-011  0.3000000E+03  0.7818608E-02  0.1093470E+00
          1   -1    0    0  502    0  0.00000000000E+00  0.00000000000E+00  0.23082828447E+03  0.23082828447E+03  0.00000000000E+00 0.  1.
         13   -1    0    0    0    0 -0.00000000000E+00 -0.00000000000E+00 -0.27500000000E+03  0.27500000000E+03  0.00000000000E+00 0.  1.
    9000005    2    1    2  501    0 -0.17100100866E+02  0.38214178219E+02 -0.34728371868E+02  0.46291076350E+03  0.45970379407E+03 0.  0.
         13    1    3    3    0    0  0.11189158585E+03  0.20589455633E+03  0.41618798732E+02  0.23800088176E+03  0.00000000000E+00 0.  1.
          3    1    3    3  501    0 -0.12899168671E+03 -0.16768037811E+03 -0.76347170600E+02  0.22490988174E+03  0.00000000000E+00 0.  1.
         21    1    1    2  502  501  0.17100100866E+02 -0.38214178219E+02 -0.94433436622E+01  0.42917520969E+02  0.00000000000E+00 0. -1.
<scales pt_clust_4="550.00000" pt_clust_5="550.00000" pt_clust_6="41.86572"></scales>
<mgrwt>
<rscale>  0 0.30000000E+03</rscale>
<asrwt>  1 0.41865721E+02</asrwt>
<pdfrwt beam="1">  1        1 0.83937558E+00 0.30000000E+03</pdfrwt>
<pdfrwt beam="2">0</pdfrwt>
<totfact> 0.48621712E-04</totfact>
</mgrwt>
<clustering>
<clus scale="   41.866">  1  6  2 -1</clus>
<clus scale="  459.704">  4  5 -1 -1</clus>
<clus scale="  300.000">  1  4  2 -1</clus>
</clustering>
</event>
<event>
 6    1  0.1000035E-011  0.3000000E+03  0.7818608E-02  0.1093470E+00
          1   -1    0    0  502    0  0.00000000000E+00  0.00000000000E+00  0.23445221002E+03  0.23445221002E+03  0.00000000000E+00 0.  1.
         13   -1    0    0    0    0 -0.00000000000E+00 -0.00000000000E+00 -0.27500000000E+03  0.27500000000E+03  0.00000000000E+00 0.  1.
    9000005    2    1    2  501    0 -0.59628210073E+01  0.38965503711E+02 -0.65566166033E+02  0.46276404391E+03  0.45639650798E+03 0.  0.
         13    1    3    3    0    0  0.21549011357E+03 -0.33678120443E+02  0.83339601743E+01  0.21826511341E+03  0.00000000000E+00 0.  1.
          3    1    3    3  501    0 -0.22145293457E+03  0.72643624154E+02 -0.73900126207E+02  0.24449893050E+03  0.00000000000E+00 0.  1.
         21    1    1    2  502  501  0.59628210073E+01 -0.38965503711E+02  0.25018376050E+02  0.46688166103E+02  0.00000000000E+00 0.  1.
<scales pt_clust_4="550.00000" pt_clust_5="550.00000" pt_clust_6="39.41910"></scales>
<mgrwt>
<rscale>  0 0.30000000E+03</rscale>
<asrwt>  1 0.39419103E+02</asrwt>
<pdfrwt beam="1">  1        1 0.85255349E+00 0.30000000E+03</pdfrwt>
<pdfrwt beam="2">0</pdfrwt>
<totfact> 0.37648719E-04</totfact>
</mgrwt>
<clustering>
<clus scale="   39.419">  1  6  2 -1</clus>
<clus scale="  456.397">  4  5 -1 -1</clus>
<clus scale="  300.000">  1  4  2 -1</clus>
</clustering>
</event>
<event>
 6    1  0.1000035E-011  0.3000000E+03  0.7818608E-02  0.1093470E+00
          1   -1    0    0  502    0  0.00000000000E+00  0.00000000000E+00  0.23775348192E+03  0.23775348192E+03  0.00000000000E+00 0.  1.
         13   -1    0    0    0    0 -0.00000000000E+00 -0.00000000000E+00 -0.27500000000E+03  0.27500000000E+03  0.00000000000E+00 0.  1.
    9000005    2    1    2  501    0  0.34722802774E+02 -0.32732071636E+01 -0.40081322874E+02  0.47776172524E+03  0.47479823793E+03 0.  0.
         13    1    3    3    0    0  0.16900815878E+03 -0.18043081333E+03  0.18373642247E+02  0.24790447125E+03  0.00000000000E+00 0.  1.
          3    1    3    3  501    0 -0.13428535601E+03  0.17715760617E+03 -0.58454965121E+02  0.22985725399E+03  0.00000000000E+00 0.  1.
         21    1    1    2  502  501 -0.34722802774E+02  0.32732071636E+01  0.28348047955E+01  0.34991756684E+02  0.00000000000E+00 0.  1.
<scales pt_clust_4="550.00000" pt_clust_5="550.00000" pt_clust_6="34.87674"></scales>
<mgrwt>
<rscale>  0 0.30000000E+03</rscale>
<asrwt>  1 0.34876739E+02</asrwt>
<pdfrwt beam="1">  1        1 0.86455812E+00 0.30000000E+03</pdfrwt>
<pdfrwt beam="2">0</pdfrwt>
<totfact> 0.28904173E-04</totfact>
</mgrwt>
<clustering>
<clus scale="   34.877">  1  6  2 -1</clus>
<clus scale="  474.798">  4  5 -1 -1</clus>
<clus scale="  300.000">  1  4  2 -1</clus>
</clustering>
</event>
<event>
 6    1  0.1000035E-011  0.3000000E+03  0.7818608E-02  0.1093470E+00
          1   -1    0    0  502    0  0.00000000000E+00  0.00000000000E+00  0.24494864426E+03  0.24494864426E+03  0.00000000000E+00 0.  1.
         13   -1    0    0    0    0 -0.00000000000E+00 -0.00000000000E+00 -0.27500000000E+03  0.27500000000E+03  0.00000000000E+00 0.  1.
    9000005    2    1    2  501    0 -0.34549113331E+02  0.14396583187E+02 -0.27987017550E+02  0.48246312264E+03  0.48019421979E+03 0.  0.
         13    1    3    3    0    0 -0.24321271072E+03 -0.43689537343E+02  0.50260255273E+02  0.25216520693E+03  0.00000000000E+00 0.  1.
          3    1    3    3  501    0  0.20866359739E+03  0.58086120530E+02 -0.78247272823E+02  0.23029791570E+03  0.00000000000E+00 0.  1.
         21    1    1    2  502  501  0.34549113331E+02 -0.14396583187E+02 -0.20643381862E+01  0.37485521626E+02  0.00000000000E+00 0.  1.
<scales pt_clust_4="550.00000" pt_clust_5="550.00000" pt_clust_6="37.42864"></scales>
<mgrwt>
<rscale>  0 0.30000000E+03</rscale>
<asrwt>  1 0.37428637E+02</asrwt>
<pdfrwt beam="1">  1        1 0.89072234E+00 0.30000000E+03</pdfrwt>
<pdfrwt beam="2">0</pdfrwt>
<totfact> 0.14005843E-04</totfact>
</mgrwt>
<clustering>
<clus scale="   37.429">  1  6  2 -1</clus>
<clus scale="  480.194">  4  5 -1 -1</clus>
<clus scale="  300.000">  1  4  2 -1</clus>
</clustering>
</event>
<event>
 6    1  0.1000035E-011  0.3000000E+03  0.7818608E-02  0.1093470E+00
          1   -1    0    0  502    0  0.00000000000E+00  0.00000000000E+00  0.24323926872E+03  0.24323926872E+03  0.00000000000E+00 0.  1.
         13   -1    0    0    0    0 -0.00000000000E+00 -0.00000000000E+00 -0.27500000000E+03  0.27500000000E+03  0.00000000000E+00 0.  1.
    9000005    2    1    2  501    0 -0.43181486872E+02 -0.32734856305E+02 -0.14487864815E+02  0.46136604530E+03  0.45794379339E+03 0.  0.
         13    1    3    3    0    0  0.79711912981E+02  0.12304924215E+03  0.14544196631E+03  0.20651506151E+03  0.00000000000E+00 0.  1.
          1    1    3    3  501    0 -0.12289339985E+03 -0.15578409846E+03 -0.15992983112E+03  0.25485098380E+03  0.00000000000E+00 0.  1.
         21    1    1    2  502  501  0.43181486872E+02  0.32734856305E+02 -0.17272866465E+02  0.56873223416E+02  0.00000000000E+00 0.  1.
<scales pt_clust_4="550.00000" pt_clust_5="550.00000" pt_clust_6="54.18685"></scales>
<mgrwt>
<rscale>  0 0.30000000E+03</rscale>
<asrwt>  1 0.54186849E+02</asrwt>
<pdfrwt beam="1">  1        1 0.88450643E+00 0.30000000E+03</pdfrwt>
<pdfrwt beam="2">0</pdfrwt>
<totfact> 0.15933766E-04</totfact>
</mgrwt>
<clustering>
<clus scale="   54.187">  1  6  2 -1</clus>
<clus scale="  457.944">  4  5 -1 -1</clus>
<clus scale="  300.000">  1  4  2 -1</clus>
</clustering>
</event>
<event>
 6    1  0.1000035E-011  0.3000000E+03  0.7818608E-02  0.1093470E+00
          1   -1    0    0  502    0  0.00000000000E+00  0.00000000000E+00  0.26851719656E+03  0.26851719656E+03  0.00000000000E+00 0.  1.
         13   -1    0    0    0    0 -0.00000000000E+00 -0.00000000000E+00 -0.27500000000E+03  0.27500000000E+03  0.00000000000E+00 0.  1.
    9000005    2    1    2  501    0  0.16958899416E+02 -0.38931081827E+02 -0.64108962609E+02  0.47193502265E+03  0.46562804159E+03 0.  0.
         13    1    3    3    0    0  0.45915948561E+02  0.35451110034E+02 -0.25685031682E+03  0.26331946526E+03  0.00000000000E+00 0.  1.
          3    1    3    3  501    0 -0.28957049145E+02 -0.74382191861E+02  0.19274135421E+03  0.20861555739E+03  0.00000000000E+00 0.  1.
         21    1    1    2  502  501 -0.16958899416E+02  0.38931081827E+02  0.57626159166E+02  0.71582173911E+02  0.00000000000E+00 0. -1.
<scales pt_clust_4="550.00000" pt_clust_5="550.00000" pt_clust_6="42.46450"></scales>
<mgrwt>
<rscale>  0 0.30000000E+03</rscale>
<asrwt>  1 0.42464496E+02</asrwt>
<pdfrwt beam="1">  1        1 0.97642617E+00 0.30000000E+03</pdfrwt>
<pdfrwt beam="2">0</pdfrwt>
<totfact> 0.36363045E-06</totfact>
</mgrwt>
<clustering>
<clus scale="   42.464">  1  6  2 -1</clus>
<clus scale="  465.628">  4  5 -1 -1</clus>
<clus scale="  300.000">  1  4  2 -1</clus>
</clustering>
</event>
<event>
 6    1  0.1000035E-011  0.3000000E+03  0.7818608E-02  0.1093470E+00
          1   -1    0    0  502    0  0.00000000000E+00  0.00000000000E+00  0.22992686534E+03  0.22992686534E+03  0.00000000000E+00 0.  1.
         13   -1    0    0    0    0 -0.00000000000E+00 -0.00000000000E+00 -0.27500000000E+03  0.27500000000E+03  0.00000000000E+00 0.  1.
    9000005    2    1    2  501    0 -0.27055047591E+02 -0.23589214302E+02 -0.60290080147E+02  0.46593991802E+03  0.46062640698E+03 0.  0.
         13    1    3    3    0    0  0.17895072715E+03 -0.47211722663E+02  0.93906793219E+02  0.20753504600E+03  0.00000000000E+00 0.  1.
          3    1    3    3  501    0 -0.20600577474E+03  0.23622508361E+02 -0.15419687337E+03  0.25840487202E+03  0.00000000000E+00 0.  1.
         21    1    1    2  502  501  0.27055047591E+02  0.23589214302E+02  0.15216945484E+02  0.38986947321E+02  0.00000000000E+00 0. -1.
<scales pt_clust_4="550.00000" pt_clust_5="550.00000" pt_clust_6="35.89466"></scales>
<mgrwt>
<rscale>  0 0.30000000E+03</rscale>
<asrwt>  1 0.35894660E+02</asrwt>
<pdfrwt beam="1">  1        1 0.83609769E+00 0.30000000E+03</pdfrwt>
<pdfrwt beam="2">0</pdfrwt>
<totfact> 0.52864254E-04</totfact>
</mgrwt>
<clustering>
<clus scale="   35.895">  1  6  2 -1</clus>
<clus scale="  460.626">  4  5 -1 -1</clus>
<clus scale="  300.000">  1  4  2 -1</clus>
</clustering>
</event>
<event>
 6    1  0.1000035E-011  0.3000000E+03  0.7818608E-02  0.1093470E+00
          1   -1    0    0  502    0  0.00000000000E+00  0.00000000000E+00  0.22372226677E+03  0.22372226677E+03  0.00000000000E+00 0.  1.
         13   -1    0    0    0    0 -0.00000000000E+00 -0.00000000000E+00 -0.27500000000E+03  0.27500000000E+03  0.00000000000E+00 0.  1.
    9000005    2    1    2  501    0  0.12949008078E+02  0.27206505346E+02 -0.58930603413E+02  0.46763469425E+03  0.46292712224E+03 0.  0.
         13    1    3    3    0    0  0.87068424433E+02 -0.20148097722E+03  0.25292839573E+01  0.21950374027E+03  0.00000000000E+00 0.  1.
          1    1    3    3  501    0 -0.74119416355E+02  0.22868748257E+03 -0.61459887370E+02  0.24813095397E+03  0.00000000000E+00 0.  1.
         21    1    1    2  502  501 -0.12949008078E+02 -0.27206505346E+02  0.76528701834E+01  0.31087572523E+02  0.00000000000E+00 0. -1.
<scales pt_clust_4="550.00000" pt_clust_5="550.00000" pt_clust_6="30.13089"></scales>
<mgrwt>
<rscale>  0 0.30000000E+03</rscale>
<asrwt>  1 0.30130894E+02</asrwt>
<pdfrwt beam="1">  1        1 0.81353552E+00 0.30000000E+03</pdfrwt>
<pdfrwt beam="2">0</pdfrwt>
<totfact> 0.84147873E-04</totfact>
</mgrwt>
<clustering>
<clus scale="   30.131">  1  6  2 -1</clus>
<clus scale="  462.927">  4  5 -1 -1</clus>
<clus scale="  300.000">  1  4  2 -1</clus>
</clustering>
</event>
<event>
 6    1  0.1000035E-011  0.3000000E+03  0.7818608E-02  0.1093470E+00
          1   -1    0    0  502    0  0.00000000000E+00  0.00000000000E+00  0.24240512217E+03  0.24240512217E+03  0.00000000000E+00 0.  1.
         13   -1    0    0    0    0 -0.00000000000E+00 -0.00000000000E+00 -0.27500000000E+03  0.27500000000E+03  0.00000000000E+00 0.  1.
    9000005    2    1    2  501    0  0.40462973220E+02  0.26790764537E+02 -0.38858559461E+02  0.46847424261E+03  0.46433084227E+03 0.  0.
         13    1    3    3    0    0 -0.11674392656E+03 -0.15968231866E+03  0.57865545546E+02  0.20609708548E+03  0.00000000000E+00 0.  1.
          1    1    3    3  501    0  0.15720689978E+03  0.18647308320E+03 -0.96724105007E+02  0.26237715713E+03  0.00000000000E+00 0.  1.
         21    1    1    2  502  501 -0.40462973220E+02 -0.26790764537E+02  0.62636816285E+01  0.48930879553E+02  0.00000000000E+00 0.  1.
<scales pt_clust_4="550.00000" pt_clust_5="550.00000" pt_clust_6="48.52831"></scales>
<mgrwt>
<rscale>  0 0.30000000E+03</rscale>
<asrwt>  1 0.48528314E+02</asrwt>
<pdfrwt beam="1">  1        1 0.88147317E+00 0.30000000E+03</pdfrwt>
<pdfrwt beam="2">0</pdfrwt>
<totfact> 0.17822609E-04</totfact>
</mgrwt>
<clustering>
<clus scale="   48.528">  1  6  2 -1</clus>
<clus scale="  464.331">  4  5 -1 -1</clus>
<clus scale="  300.000">  1  4  2 -1</clus>
</clustering>
</event>
<event>
 6    1  0.1000035E-011  0.3000000E+03  0.7818608E-02  0.1093470E+00
          1   -1    0    0  502    0  0.00000000000E+00  0.00000000000E+00  0.22191876003E+03  0.22191876003E+03  0.00000000000E+00 0.  1.
         13   -1    0    0    0    0 -0.00000000000E+00 -0.00000000000E+00 -0.27500000000E+03  0.27500000000E+03  0.00000000000E+00 0.  1.
    9000005    2    1    2  501    0  0.12597026909E+02 -0.30389182253E+02 -0.40485167780E+02  0.46169308020E+03  0.45873659545E+03 0.  0.
         13    1    3    3    0    0 -0.14908017269E+03  0.51083998085E+02  0.13651794573E+03  0.20849849461E+03  0.00000000000E+00 0.  1.
          3    1    3    3  501    0  0.16167719959E+03 -0.81473180338E+02 -0.17700311351E+03  0.25319458559E+03  0.00000000000E+00 0.  1.
         21    1    1    2  502  501 -0.12597026909E+02  0.30389182253E+02 -0.12596072189E+02  0.35225679831E+02  0.00000000000E+00 0.  1.
<scales pt_clust_4="550.00000" pt_clust_5="550.00000" pt_clust_6="32.89663"></scales>
<mgrwt>
<rscale>  0 0.30000000E+03</rscale>
<asrwt>  1 0.32896635E+02</asrwt>
<pdfrwt beam="1">  1        1 0.80697731E+00 0.30000000E+03</pdfrwt>
<pdfrwt beam="2">0</pdfrwt>
<totfact> 0.93116940E-04</totfact>
</mgrwt>
<clustering>
<clus scale="   32.897">  1  6  2 -1</clus>
<clus scale="  458.737">  4  5 -1 -1</clus>
<clus scale="  300.000">  1  4  2 -1</clus>
</clustering>
</event>
<event>
 6    1  0.1000035E-011  0.3000000E+03  0.7818608E-02  0.1093470E+00
          1   -1    0    0  502    0  0.00000000000E+00  0.00000000000E+00  0.23993021717E+03  0.23993021717E+03  0.00000000000E+00 0.  1.
         13   -1    0    0    0    0 -0.00000000000E+00 -0.00000000000E+00 -0.27500000000E+03  0.27500000000E+03  0.00000000000E+00 0.  1.
    9000005    2    1    2  501    0  0.30253729828E+02  0.11389775023E+02 -0.55631387226E+02  0.47661840804E+03  0.47225548222E+03 0.  0.
         13    1    3    3    0    0 -0.11853300833E+03  0.26945102085E+02  0.16812121275E+03  0.20746289974E+03  0.00000000000E+00 0.  1.
          1    1    3    3  501    0  0.14878673816E+03 -0.15555327062E+02 -0.22375259998E+03  0.26915550830E+03  0.00000000000E+00 0.  1.
         21    1    1    2  502  501 -0.30253729828E+02 -0.11389775023E+02  0.20561604391E+02  0.38311809128E+02  0.00000000000E+00 0. -1.
<scales pt_clust_4="550.00000" pt_clust_5="550.00000" pt_clust_6="32.32669"></scales>
<mgrwt>
<rscale>  0 0.30000000E+03</rscale>
<asrwt>  1 0.32326694E+02</asrwt>
<pdfrwt beam="1">  1        1 0.87247352E+00 0.30000000E+03</pdfrwt>
<pdfrwt beam="2">0</pdfrwt>
<totfact> 0.24253994E-04</totfact>
</mgrwt>
<clustering>
<clus scale="   32.327">  1  6  2 -1</clus>
<clus scale="  472.255">  4  5 -1 -1</clus>
<clus scale="  300.000">  1  4  2 -1</clus>
</clustering>
</event>
<event>
 6    1  0.1000035E-011  0.3000000E+03  0.7818608E-02  0.1093470E+00
          1   -1    0    0  502    0  0.00000000000E+00  0.00000000000E+00  0.25132001288E+03  0.25132001288E+03  0.00000000000E+00 0.  1.
         13   -1    0    0    0    0 -0.00000000000E+00 -0.00000000000E+00 -0.27500000000E+03  0.27500000000E+03  0.00000000000E+00 0.  1.
    9000005    2    1    2  501    0 -0.33961313276E+01 -0.37093010910E+02 -0.41480510575E+02  0.48503704058E+03  0.48182244947E+03 0.  0.
         13    1    3    3    0    0  0.93454162433E+01  0.71150454540E+02 -0.24439021622E+03  0.25470826797E+03  0.00000000000E+00 0.  1.
          3    1    3    3  501    0 -0.12741547571E+02 -0.10824346545E+03  0.20290970565E+03  0.23032877261E+03  0.00000000000E+00 0.  1.
         21    1    1    2  502  501  0.33961313276E+01  0.37093010910E+02  0.17800523456E+02  0.41282972297E+02  0.00000000000E+00 0. -1.
<scales pt_clust_4="550.00000" pt_clust_5="550.00000" pt_clust_6="37.24816"></scales>
<mgrwt>
<rscale>  0 0.30000000E+03</rscale>
<asrwt>  1 0.37248157E+02</asrwt>
<pdfrwt beam="1">  1        1 0.91389096E+00 0.30000000E+03</pdfrwt>
<pdfrwt beam="2">0</pdfrwt>
<totfact> 0.56874530E-05</totfact>
</mgrwt>
<clustering>
<clus scale="   37.248">  1  6  2 -1</clus>
<clus scale="  481.822">  4  5 -1 -1</clus>
<clus scale="  300.000">  1  4  2 -1</clus>
</clustering>
</event>
<event>
 6    1  0.1000035E-011  0.3000000E+03  0.7818608E-02  0.1093470E+00
          1   -1    0    0  502    0  0.00000000000E+00  0.00000000000E+00  0.22392137023E+03  0.22392137023E+03  0.00000000000E+00 0.  1.
         13   -1    0    0    0    0 -0.00000000000E+00 -0.00000000000E+00 -0.27500000000E+03  0.27500000000E+03  0.00000000000E+00 0.  1.
    9000005    2    1    2  501    0  0.32226483158E+02  0.14020766374E+02 -0.62177548722E+02  0.46206605706E+03  0.45651272208E+03 0.  0.
         13    1    3    3    0    0 -0.13055626337E+03 -0.16615547650E+03 -0.58333331217E+02  0.21921532293E+03  0.00000000000E+00 0.  1.
          3    1    3    3  501    0  0.16278274653E+03  0.18017624287E+03 -0.38442175058E+01  0.24285073414E+03  0.00000000000E+00 0.  1.
         21    1    1    2  502  501 -0.32226483158E+02 -0.14020766374E+02  0.11098918950E+02  0.36855313163E+02  0.00000000000E+00 0.  1.
<scales pt_clust_4="550.00000" pt_clust_5="550.00000" pt_clust_6="35.14439"></scales>
<mgrwt>
<rscale>  0 0.30000000E+03</rscale>
<asrwt>  1 0.35144389E+02</asrwt>
<pdfrwt beam="1">  1        1 0.81425953E+00 0.30000000E+03</pdfrwt>
<pdfrwt beam="2">0</pdfrwt>
<totfact> 0.80643375E-04</totfact>
</mgrwt>
<clustering>
<clus scale="   35.144">  1  6  2 -1</clus>
<clus scale="  456.513">  4  5 -1 -1</clus>
<clus scale="  300.000">  1  4  2 -1</clus>
</clustering>
</event>
<event>
 6    1  0.1000035E-011  0.3000000E+03  0.7818608E-02  0.1093470E+00
          1   -1    0    0  502    0  0.00000000000E+00  0.00000000000E+00  0.24194109350E+03  0.24194109350E+03  0.00000000000E+00 0.  1.
         13   -1    0    0    0    0 -0.00000000000E+00 -0.00000000000E+00 -0.27500000000E+03  0.27500000000E+03  0.00000000000E+00 0.  1.
    9000005    2    1    2  501    0 -0.31833335684E+02  0.17561557369E+02 -0.46686797790E+02  0.47811469811E+03  0.47443886635E+03 0.  0.
         13    1    3    3    0    0  0.22039596027E+03  0.33566390849E+02 -0.27987918272E+02  0.22468735048E+03  0.00000000000E+00 0.  1.
          1    1    3    3  501    0 -0.25222929595E+03 -0.16004833480E+02 -0.18698879518E+02  0.25342734763E+03  0.00000000000E+00 0.  1.
         21    1    1    2  502  501  0.31833335684E+02 -0.17561557369E+02  0.13627891291E+02  0.38826395391E+02  0.00000000000E+00 0.  1.
<scales pt_clust_4="550.00000" pt_clust_5="550.00000" pt_clust_6="36.35615"></scales>
<mgrwt>
<rscale>  0 0.30000000E+03</rscale>
<asrwt>  1 0.36356149E+02</asrwt>
<pdfrwt beam="1">  1        1 0.87978579E+00 0.30000000E+03</pdfrwt>
<pdfrwt beam="2">0</pdfrwt>
<totfact> 0.19717415E-04</totfact>
</mgrwt>
<clustering>
<clus scale="   36.356">  1  6  2 -1</clus>
<clus scale="  474.439">  4  5 -1 -1</clus>
<clus scale="  300.000">  1  4  2 -1</clus>
</clustering>
</event>
<event>
 6    1  0.1000035E-011  0.3000000E+03  0.7818608E-02  0.1093470E+00
          1   -1    0    0  502    0  0.00000000000E+00  0.00000000000E+00  0.23317271239E+03  0.23317271239E+03  0.00000000000E+00 0.  1.
         13   -1    0    0    0    0 -0.00000000000E+00 -0.00000000000E+00 -0.27500000000E+03  0.27500000000E+03  0.00000000000E+00 0.  1.
    9000005    2    1    2  501    0  0.92863829205E+01 -0.29144294076E+02 -0.45384123899E+02  0.47737859170E+03  0.47423092932E+03 0.  0.
         13    1    3    3    0    0  0.17473434238E+03  0.36386045316E+02  0.13515375166E+03  0.22388070772E+03  0.00000000000E+00 0.  1.
          3    1    3    3  501    0 -0.16544795946E+03 -0.65530339391E+02 -0.18053787555E+03  0.25349788398E+03  0.00000000000E+00 0.  1.
         21    1    1    2  502  501 -0.92863829205E+01  0.29144294076E+02  0.35568362883E+01  0.30794120694E+02  0.00000000000E+00 0.  1.
<scales pt_clust_4="550.00000" pt_clust_5="550.00000" pt_clust_6="30.58802"></scales>
<mgrwt>
<rscale>  0 0.30000000E+03</rscale>
<asrwt>  1 0.30588017E+02</asrwt>
<pdfrwt beam="1">  1        1 0.84790077E+00 0.30000000E+03</pdfrwt>
<pdfrwt beam="2">0</pdfrwt>
<totfact> 0.43662769E-04</totfact>
</mgrwt>
<clustering>
<clus scale="   30.588">  1  6  2 -1</clus>
<clus scale="  474.231">  4  5 -1 -1</clus>
<clus scale="  300.000">  1  4  2 -1</clus>
</clustering>
</event>
<event>
 6    1  0.1000035E-011  0.3000000E+03  0.7818608E-02  0.1093470E+00
          1   -1    0    0  502    0  0.00000000000E+00  0.00000000000E+00  0.23804543963E+03  0.23804543963E+03  0.00000000000E+00 0.  1.
         13   -1    0    0    0    0 -0.00000000000E+00 -0.00000000000E+00 -0.27500000000E+03  0.27500000000E+03  0.00000000000E+00 0.  1.
    9000005    2    1    2  501    0  0.18569519754E+02 -0.26429930894E+02 -0.62836274304E+02  0.47165423975E+03  0.46633245244E+03 0.  0.
         13    1    3    3    0    0 -0.80152965091E+02 -0.41984273448E+02  0.18416933166E+03  0.20519629567E+03  0.00000000000E+00 0.  1.
          1    1    3    3  501    0  0.98722484846E+02  0.15554342553E+02 -0.24700560597E+03  0.26645794409E+03  0.00000000000E+00 0.  1.
         21    1    1    2  502  501 -0.18569519754E+02  0.26429930894E+02  0.25881713929E+02  0.41391199872E+02  0.00000000000E+00 0.  1.
<scales pt_clust_4="550.00000" pt_clust_5="550.00000" pt_clust_6="32.30121"></scales>
<mgrwt>
<rscale>  0 0.30000000E+03</rscale>
<asrwt>  1 0.32301212E+02</asrwt>
<pdfrwt beam="1">  1        1 0.86561978E+00 0.30000000E+03</pdfrwt>
<pdfrwt beam="2">0</pdfrwt>
<totfact> 0.28564389E-04</totfact>
</mgrwt>
<clustering>
<clus scale="   32.301">  1  6  2 -1</clus>
<clus scale="  466.332">  4  5 -1 -1</clus>
<clus scale="  300.000">  1  4  2 -1</clus>
</clustering>
</event>
<event>
 6    1  0.1000035E-011  0.3000000E+03  0.7818608E-02  0.1093470E+00
          1   -1    0    0  502    0  0.00000000000E+00  0.00000000000E+00  0.23333972891E+03  0.23333972891E+03  0.00000000000E+00 0.  1.
         13   -1    0    0    0    0 -0.00000000000E+00 -0.00000000000E+00 -0.27500000000E+03  0.27500000000E+03  0.00000000000E+00 0.  1.
    9000005    2    1    2  501    0  0.92078901029E+01  0.36791763368E+02 -0.38985544263E+02  0.47031903382E+03  0.46716346370E+03 0.  0.
         13    1    3    3    0    0  0.19619836041E+03 -0.50302273823E+00  0.11306208234E+03  0.22644443938E+03  0.00000000000E+00 0.  1.
          3    1    3    3  501    0 -0.18699047031E+03  0.37294786107E+02 -0.15204762660E+03  0.24387459444E+03  0.00000000000E+00 0.  1.
         21    1    1    2  502  501 -0.92078901029E+01 -0.36791763368E+02 -0.26747268241E+01  0.38020695095E+02  0.00000000000E+00 0.  1.
<scales pt_clust_4="550.00000" pt_clust_5="550.00000" pt_clust_6="37.92650"></scales>
<mgrwt>
<rscale>  0 0.30000000E+03</rscale>
<asrwt>  1 0.37926496E+02</asrwt>
<pdfrwt beam="1">  1        1 0.84850811E+00 0.30000000E+03</pdfrwt>
<pdfrwt beam="2">0</pdfrwt>
<totfact> 0.41397927E-04</totfact>
</mgrwt>
<clustering>
<clus scale="   37.926">  1  6  2 -1</clus>
<clus scale="  467.163">  4  5 -1 -1</clus>
<clus scale="  300.000">  1  4  2 -1</clus>
</clustering>
</event>
<event>
 6    1  0.1000035E-011  0.3000000E+03  0.7818608E-02  0.1093470E+00
          1   -1    0    0  502    0  0.00000000000E+00  0.00000000000E+00  0.23683317820E+03  0.23683317820E+03  0.00000000000E+00 0.  1.
         13   -1    0    0    0    0 -0.00000000000E+00 -0.00000000000E+00 -0.27500000000E+03  0.27500000000E+03  0.00000000000E+00 0.  1.
    9000005    2    1    2  501    0  0.35335289116E+02 -0.27679896188E+02 -0.14393552540E+02  0.46104019009E+03  0.45862416335E+03 0.  0.
         13    1    3    3    0    0 -0.69773466001E+02  0.19204916572E+03  0.47383602950E+02  0.20975324655E+03  0.00000000000E+00 0.  1.
          3    1    3    3  501    0  0.10510875512E+03 -0.21972906191E+03 -0.61777155490E+02  0.25128694353E+03  0.00000000000E+00 0.  1.
         21    1    1    2  502  501 -0.35335289116E+02  0.27679896188E+02 -0.23773269262E+02  0.50792988112E+02  0.00000000000E+00 0. -1.
<scales pt_clust_4="550.00000" pt_clust_5="550.00000" pt_clust_6="44.88609"></scales>
<mgrwt>
<rscale>  0 0.30000000E+03</rscale>
<asrwt>  1 0.44886093E+02</asrwt>
<pdfrwt beam="1">  1        1 0.86121156E+00 0.30000000E+03</pdfrwt>
<pdfrwt beam="2">0</pdfrwt>
<totfact> 0.29997526E-04</totfact>
</mgrwt>
<clustering>
<clus scale="   44.886">  1  6  2 -1</clus>
<clus scale="  458.624">  4  5 -1 -1</clus>
<clus scale="  300.000">  1  4  2 -1</clus>
</clustering>
</event>
<event>
 6    1  0.1000035E-011  0.3000000E+03  0.7818608E-02  0.1093470E+00
          1   -1    0    0  502    0  0.00000000000E+00  0.00000000000E+00  0.23946485518E+03  0.23946485518E+03  0.00000000000E+00 0.  1.
         13   -1    0    0    0    0 -0.00000000000E+00 -0.00000000000E+00 -0.27500000000E+03  0.27500000000E+03  0.00000000000E+00 0.  1.
    9000005    2    1    2  501    0 -0.61592410719E+01  0.33078027545E+02 -0.57116056601E+02  0.47449201552E+03  0.46983862838E+03 0.  0.
         13    1    3    3    0    0 -0.34116029878E+02  0.23323619277E+03 -0.11774875885E+03  0.26349154697E+03  0.00000000000E+00 0.  1.
          1    1    3    3  501    0  0.27956788806E+02 -0.20015816523E+03  0.60632702247E+02  0.21100046855E+03  0.00000000000E+00 0.  1.
         21    1    1    2  502  501  0.61592410719E+01 -0.33078027545E+02  0.21580911781E+02  0.39972839656E+02  0.00000000000E+00 0.  1.
<scales pt_clust_4="550.00000" pt_clust_5="550.00000" pt_clust_6="33.64658"></scales>
<mgrwt>
<rscale>  0 0.30000000E+03</rscale>
<asrwt>  1 0.33646577E+02</asrwt>
<pdfrwt beam="1">  1        1 0.87078129E+00 0.30000000E+03</pdfrwt>
<pdfrwt beam="2">0</pdfrwt>
<totfact> 0.25048736E-04</totfact>
</mgrwt>
<clustering>
<clus scale="   33.647">  1  6  2 -1</clus>
<clus scale="  469.839">  4  5 -1 -1</clus>
<clus scale="  300.000">  1  4  2 -1</clus>
</clustering>
</event>
<event>
 6    1  0.1000035E-011  0.3000000E+03  0.7818608E-02  0.1093470E+00
          1   -1    0    0  502    0  0.00000000000E+00  0.00000000000E+00  0.22997445886E+03  0.22997445886E+03  0.00000000000E+00 0.  1.
         13   -1    0    0    0    0 -0.00000000000E+00 -0.00000000000E+00 -0.27500000000E+03  0.27500000000E+03  0.00000000000E+00 0.  1.
    9000005    2    1    2  501    0  0.19282409399E+02  0.34748845454E+02 -0.58978574771E+02  0.46285580836E+03  0.45735952321E+03 0.  0.
         13    1    3    3    0    0 -0.14335601646E+03 -0.83159122758E+02  0.11120050199E+03  0.19957940474E+03  0.00000000000E+00 0.  1.
          1    1    3    3  501    0  0.16263842586E+03  0.11790796821E+03 -0.17017907676E+03  0.26327640362E+03  0.00000000000E+00 0.  1.
         21    1    1    2  502  501 -0.19282409399E+02 -0.34748845454E+02  0.13953033628E+02  0.42118650501E+02  0.00000000000E+00 0.  1.
<scales pt_clust_4="550.00000" pt_clust_5="550.00000" pt_clust_6="39.74033"></scales>
<mgrwt>
<rscale>  0 0.30000000E+03</rscale>
<asrwt>  1 0.39740327E+02</asrwt>
<pdfrwt beam="1">  1        1 0.83627076E+00 0.30000000E+03</pdfrwt>
<pdfrwt beam="2">0</pdfrwt>
<totfact> 0.51731363E-04</totfact>
</mgrwt>
<clustering>
<clus scale="   39.740">  1  6  2 -1</clus>
<clus scale="  457.360">  4  5 -1 -1</clus>
<clus scale="  300.000">  1  4  2 -1</clus>
</clustering>
</event>
<event>
 6    1  0.1000035E-011  0.3000000E+03  0.7818608E-02  0.1093470E+00
          1   -1    0    0  502    0  0.00000000000E+00  0.00000000000E+00  0.24665764688E+03  0.24665764688E+03  0.00000000000E+00 0.  1.
         13   -1    0    0    0    0 -0.00000000000E+00 -0.00000000000E+00 -0.27500000000E+03  0.27500000000E+03  0.00000000000E+00 0.  1.
    9000005    2    1    2  501    0  0.33259986794E+02  0.14816419702E+02 -0.64296109913E+02  0.47048709244E+03  0.46464864294E+03 0.  0.
         13    1    3    3    0    0 -0.33585258832E+02  0.16838530992E+03 -0.19369109998E+03  0.25883937958E+03  0.00000000000E+00 0.  1.
          1    1    3    3  501    0  0.66845245627E+02 -0.15356889022E+03  0.12939499007E+03  0.21164771286E+03  0.00000000000E+00 0.  1.
         21    1    1    2  502  501 -0.33259986794E+02 -0.14816419702E+02  0.35953756795E+02  0.51170554443E+02  0.00000000000E+00 0. -1.
<scales pt_clust_4="550.00000" pt_clust_5="550.00000" pt_clust_6="36.41089"></scales>
<mgrwt>
<rscale>  0 0.30000000E+03</rscale>
<asrwt>  1 0.36410891E+02</asrwt>
<pdfrwt beam="1">  1        1 0.89693690E+00 0.30000000E+03</pdfrwt>
<pdfrwt beam="2">0</pdfrwt>
<totfact> 0.11908682E-04</totfact>
</mgrwt>
<clustering>
<clus scale="   36.411">  1  6  2 -1</clus>
<clus scale="  464.649">  4  5 -1 -1</clus>
<clus scale="  300.000">  1  4  2 -1</clus>
</clustering>
</event>
<event>
 6    1  0.1000035E-011  0.3000000E+03  0.7818608E-02  0.1093470E+00
          1   -1    0    0  502    0  0.00000000000E+00  0.00000000000E+00  0.22917885804E+03  0.22917885804E+03  0.00000000000E+00 0.  1.
         13   -1    0    0    0    0 -0.00000000000E+00 -0.00000000000E+00 -0.27500000000E+03  0.27500000000E+03  0.00000000000E+00 0.  1.
    9000005    2    1    2  501    0 -0.19090425413E+02 -0.23227507729E+02 -0.55310304523E+02  0.47265100268E+03  0.46843972834E+03 0.  0.
         13    1    3    3    0    0 -0.33028677771E+02 -0.21993071565E+03 -0.13477282532E+03  0.26004639526E+03  0.00000000000E+00 0.  1.
          3    1    3    3  501    0  0.13938252358E+02  0.19670320792E+03  0.79462520794E+02  0.21260460742E+03  0.00000000000E+00 0.  1.
         21    1    1    2  502  501  0.19090425413E+02  0.23227507729E+02  0.94891625638E+01  0.31527855365E+02  0.00000000000E+00 0. -1.
<scales pt_clust_4="550.00000" pt_clust_5="550.00000" pt_clust_6="30.06595"></scales>
<mgrwt>
<rscale>  0 0.30000000E+03</rscale>
<asrwt>  1 0.30065952E+02</asrwt>
<pdfrwt beam="1">  1        1 0.83337767E+00 0.30000000E+03</pdfrwt>
<pdfrwt beam="2">0</pdfrwt>
<totfact> 0.57237876E-04</totfact>
</mgrwt>
<clustering>
<clus scale="   30.066">  1  6  2 -1</clus>
<clus scale="  468.440">  4  5 -1 -1</clus>
<clus scale="  300.000">  1  4  2 -1</clus>
</clustering>
</event>
<event>
 6    1  0.1000035E-011  0.3000000E+03  0.7818608E-02  0.1093470E+00
          1   -1    0    0  502    0  0.00000000000E+00  0.00000000000E+00  0.24698044624E+03  0.24698044624E+03  0.00000000000E+00 0.  1.
         13   -1    0    0    0    0 -0.00000000000E+00 -0.00000000000E+00 -0.27500000000E+03  0.27500000000E+03  0.00000000000E+00 0.  1.
    9000005    2    1    2  501    0  0.58216822000E+01  0.31089400144E+02 -0.67845116952E+02  0.47112262218E+03  0.46513774567E+03 0.  0.
         13    1    3    3    0    0 -0.46988151036E+02 -0.17886863833E+03  0.87564772053E+02  0.20462029572E+03  0.00000000000E+00 0.  1.
          3    1    3    3  501    0  0.52809833236E+02  0.20995803847E+03 -0.15540988900E+03  0.26650232646E+03  0.00000000000E+00 0.  1.
         21    1    1    2  502  501 -0.58216822000E+01 -0.31089400144E+02  0.39825563195E+02  0.50857824066E+02  0.00000000000E+00 0.  1.
<scales pt_clust_4="550.00000" pt_clust_5="550.00000" pt_clust_6="31.62978"></scales>
<mgrwt>
<rscale>  0 0.30000000E+03</rscale>
<asrwt>  1 0.31629777E+02</asrwt>
<pdfrwt beam="1">  1        1 0.89811071E+00 0.30000000E+03</pdfrwt>
<pdfrwt beam="2">0</pdfrwt>
<totfact> 0.11859161E-04</totfact>
</mgrwt>
<clustering>
<clus scale="   31.630">  1  6  2 -1</clus>
<clus scale="  465.138">  4  5 -1 -1</clus>
<clus scale="  300.000">  1  4  2 -1</clus>
</clustering>
</event>
<event>
 6    1  0.1000035E-011  0.3000000E+03  0.7818608E-02  0.1093470E+00
          1   -1    0    0  502    0  0.00000000000E+00  0.00000000000E+00  0.21871569568E+03  0.21871569568E+03  0.00000000000E+00 0.  1.
         13   -1    0    0    0    0 -0.00000000000E+00 -0.00000000000E+00 -0.27500000000E+03  0.27500000000E+03  0.00000000000E+00 0.  1.
    9000005    2    1    2  501    0  0.23986167767E+02  0.19549661238E+02 -0.43574694084E+02  0.46026334612E+03  0.45714994074E+03 0.  0.
         13    1    3    3    0    0  0.12314164751E+03  0.84023474030E+02 -0.20911467985E+03  0.25681269218E+03  0.00000000000E+00 0.  1.
          1    1    3    3  501    0 -0.99155479741E+02 -0.64473812792E+02  0.16553998577E+03  0.20345065393E+03  0.00000000000E+00 0.  1.
         21    1    1    2  502  501 -0.23986167767E+02 -0.19549661238E+02 -0.12709610239E+02  0.33452349560E+02  0.00000000000E+00 0.  1.
<scales pt_clust_4="550.00000" pt_clust_5="550.00000" pt_clust_6="30.94392"></scales>
<mgrwt>
<rscale>  0 0.30000000E+03</rscale>
<asrwt>  1 0.30943924E+02</asrwt>
<pdfrwt beam="1">  1        1 0.79532980E+00 0.30000000E+03</pdfrwt>
<pdfrwt beam="2">0</pdfrwt>
<totfact> 0.11481743E-03</totfact>
</mgrwt>
<clustering>
<clus scale="   30.944">  1  6  2 -1</clus>
<clus scale="  457.150">  4  5 -1 -1</clus>
<clus scale="  300.000">  1  4  2 -1</clus>
</clustering>
</event>
<event>
 6    1  0.1000035E-011  0.3000000E+03  0.7818608E-02  0.1093470E+00
          1   -1    0    0  502    0  0.00000000000E+00  0.00000000000E+00  0.24791527522E+03  0.24791527522E+03  0.00000000000E+00 0.  1.
         13   -1    0    0    0    0 -0.00000000000E+00 -0.00000000000E+00 -0.27500000000E+03  0.27500000000E+03  0.00000000000E+00 0.  1.
    9000005    2    1    2  501    0  0.34693275953E+02 -0.29787915720E+02 -0.42950924668E+02  0.47451403951E+03  0.47034864563E+03 0.  0.
         13    1    3    3    0    0 -0.18173575695E+03 -0.13159814621E+03 -0.66895912440E+02  0.23413889156E+03  0.00000000000E+00 0.  1.
          1    1    3    3  501    0  0.21642903290E+03  0.10181023049E+03  0.23944987773E+02  0.24037514795E+03  0.00000000000E+00 0.  1.
         21    1    1    2  502  501 -0.34693275953E+02  0.29787915720E+02  0.15866199889E+02  0.48401235709E+02  0.00000000000E+00 0. -1.
<scales pt_clust_4="550.00000" pt_clust_5="550.00000" pt_clust_6="45.72683"></scales>
<mgrwt>
<rscale>  0 0.30000000E+03</rscale>
<asrwt>  1 0.45726834E+02</asrwt>
<pdfrwt beam="1">  1        1 0.90151009E+00 0.30000000E+03</pdfrwt>
<pdfrwt beam="2">0</pdfrwt>
<totfact> 0.10045716E-04</totfact>
</mgrwt>
<clustering>
<clus scale="   45.727">  1  6  2 -1</clus>
<clus scale="  470.349">  4  5 -1 -1</clus>
<clus scale="  300.000">  1  4  2 -1</clus>
</clustering>
</event>
<event>
 6    1  0.1000035E-011  0.3000000E+03  0.7818608E-02  0.1093470E+00
          1   -1    0    0  502    0  0.00000000000E+00  0.00000000000E+00  0.23308160276E+03  0.23308160276E+03  0.00000000000E+00 0.  1.
         13   -1    0    0    0    0 -0.00000000000E+00 -0.00000000000E+00 -0.27500000000E+03  0.27500000000E+03  0.00000000000E+00 0.  1.
    9000005    2    1    2  501    0  0.43038380475E+02  0.83745250308E+01 -0.45258925427E+02  0.46410895226E+03  0.45981117252E+03 0.  0.
         13    1    3    3    0    0 -0.88047240207E+02  0.17809919977E+03 -0.12566132803E+03  0.23507958404E+03  0.00000000000E+00 0.  1.
          1    1    3    3  501    0  0.13108562068E+03 -0.16972467474E+03  0.80402402607E+02  0.22902936823E+03  0.00000000000E+00 0.  1.
         21    1    1    2  502  501 -0.43038380475E+02 -0.83745250308E+01  0.33405281876E+01  0.43972650499E+02  0.00000000000E+00 0. -1.
<scales pt_clust_4="550.00000" pt_clust_5="550.00000" pt_clust_6="43.84558"></scales>
<mgrwt>
<rscale>  0 0.30000000E+03</rscale>
<asrwt>  1 0.43845580E+02</asrwt>
<pdfrwt beam="1">  1        1 0.84756946E+00 0.30000000E+03</pdfrwt>
<pdfrwt beam="2">0</pdfrwt>
<totfact> 0.41126324E-04</totfact>
</mgrwt>
<clustering>
<clus scale="   43.846">  1  6  2 -1</clus>
<clus scale="  459.811">  4  5 -1 -1</clus>
<clus scale="  300.000">  1  4  2 -1</clus>
</clustering>
</event>
<event>
 6    1  0.1000035E-011  0.3000000E+03  0.7818608E-02  0.1093470E+00
          1   -1    0    0  502    0  0.00000000000E+00  0.00000000000E+00  0.24619418789E+03  0.24619418789E+03  0.00000000000E+00 0.  1.
         13   -1    0    0    0    0 -0.00000000000E+00 -0.00000000000E+00 -0.27500000000E+03  0.27500000000E+03  0.00000000000E+00 0.  1.
    9000005    2    1    2  501    0  0.24492880847E+02 -0.35561301139E+02 -0.32737564242E+02  0.47783561289E+03  0.47475321746E+03 0.  0.
         13    1    3    3    0    0  0.18273100161E+03 -0.18405776348E+03 -0.87197446939E+01  0.25950705808E+03  0.00000000000E+00 0.  1.
          1    1    3    3  501    0 -0.15823812077E+03  0.14849646234E+03 -0.24017819548E+02  0.21832855481E+03  0.00000000000E+00 0.  1.
         21    1    1    2  502  501 -0.24492880847E+02  0.35561301139E+02  0.39317521326E+01  0.43358574997E+02  0.00000000000E+00 0.  1.
<scales pt_clust_4="550.00000" pt_clust_5="550.00000" pt_clust_6="43.17994"></scales>
<mgrwt>
<rscale>  0 0.30000000E+03</rscale>
<asrwt>  1 0.43179942E+02</asrwt>
<pdfrwt beam="1">  1        1 0.89525159E+00 0.30000000E+03</pdfrwt>
<pdfrwt beam="2">0</pdfrwt>
<totfact> 0.12054161E-04</totfact>
</mgrwt>
<clustering>
<clus scale="   43.180">  1  6  2 -1</clus>
<clus scale="  474.753">  4  5 -1 -1</clus>
<clus scale="  300.000">  1  4  2 -1</clus>
</clustering>
</event>
<event>
 6    1  0.1000035E-011  0.3000000E+03  0.7818608E-02  0.1093470E+00
          1   -1    0    0  502    0  0.00000000000E+00  0.00000000000E+00  0.23038282962E+03  0.23038282962E+03  0.00000000000E+00 0.  1.
         13   -1    0    0    0    0 -0.00000000000E+00 -0.00000000000E+00 -0.27500000000E+03  0.27500000000E+03  0.00000000000E+00 0.  1.
    9000005    2    1    2  501    0  0.30937937872E+02 -0.73731992363E+01 -0.50165443711E+02  0.47309810562E+03  0.46935458422E+03 0.  0.
         13    1    3    3    0    0 -0.18472165662E+02 -0.19763830228E+03 -0.15358314699E+03  0.25097789240E+03  0.00000000000E+00 0.  1.
          1    1    3    3  501    0  0.49410103534E+02  0.19026510305E+03  0.10341770328E+03  0.22212021322E+03  0.00000000000E+00 0.  1.
         21    1    1    2  502  501 -0.30937937872E+02  0.73731992363E+01  0.55482733301E+01  0.32284723999E+02  0.00000000000E+00 0.  1.
<scales pt_clust_4="550.00000" pt_clust_5="550.00000" pt_clust_6="31.80440"></scales>
<mgrwt>
<rscale>  0 0.30000000E+03</rscale>
<asrwt>  1 0.31804403E+02</asrwt>
<pdfrwt beam="1">  1        1 0.83775574E+00 0.30000000E+03</pdfrwt>
<pdfrwt beam="2">0</pdfrwt>
<totfact> 0.52601337E-04</totfact>
</mgrwt>
<clustering>
<clus scale="   31.804">  1  6  2 -1</clus>
<clus scale="  469.355">  4  5 -1 -1</clus>
<clus scale="  300.000">  1  4  2 -1</clus>
</clustering>
</event>
<event>
 6    1  0.1000035E-011  0.3000000E+03  0.7818608E-02  0.1093470E+00
          1   -1    0    0  502    0  0.00000000000E+00  0.00000000000E+00  0.22932294357E+03  0.22932294357E+03  0.00000000000E+00 0.  1.
         13   -1    0    0    0    0 -0.00000000000E+00 -0.00000000000E+00 -0.27500000000E+03  0.27500000000E+03  0.00000000000E+00 0.  1.
    9000005    2    1    2  501    0 -0.12458158739E+02  0.33684724518E+02 -0.25285416348E+02  0.46302299961E+03  0.46093500573E+03 0.  0.
         13    1    3    3    0    0 -0.48738560944E+02 -0.16828976309E+02 -0.23690630837E+03  0.24245259477E+03  0.00000000000E+00 0.  1.
          1    1    3    3  501    0  0.36280402204E+02  0.50513700827E+02  0.21162089202E+03  0.22057040485E+03  0.00000000000E+00 0.  1.
         21    1    1    2  502  501  0.12458158739E+02 -0.33684724518E+02 -0.20391640086E+02  0.41299943952E+02  0.00000000000E+00 0. -1.
<scales pt_clust_4="550.00000" pt_clust_5="550.00000" pt_clust_6="35.91473"></scales>
<mgrwt>
<rscale>  0 0.30000000E+03</rscale>
<asrwt>  1 0.35914728E+02</asrwt>
<pdfrwt beam="1">  1        1 0.83390161E+00 0.30000000E+03</pdfrwt>
<pdfrwt beam="2">0</pdfrwt>
<totfact> 0.54849280E-04</totfact>
</mgrwt>
<clustering>
<clus scale="   35.915">  1  6  2 -1</clus>
<clus scale="  460.935">  4  5 -1 -1</clus>
<clus scale="  300.000">  1  4  2 -1</clus>
</clustering>
</event>
<event>
 6    1  0.1000035E-011  0.3000000E+03  0.7818608E-02  0.1093470E+00
          1   -1    0    0  502    0  0.00000000000E+00  0.00000000000E+00  0.22175133684E+03  0.22175133684E+03  0.00000000000E+00 0.  1.
         13   -1    0    0    0    0 -0.00000000000E+00 -0.00000000000E+00 -0.27500000000E+03  0.27500000000E+03  0.00000000000E+00 0.  1.
    9000005    2    1    2  501    0 -0.11515802408E+01 -0.34748504566E+02 -0.53819946972E+02  0.46197906237E+03  0.45751424313E+03 0.  0.
         13    1    3    3    0    0 -0.20864345902E+03 -0.76667365344E+02 -0.10248753785E+03  0.24477269725E+03  0.00000000000E+00 0.  1.
          3    1    3    3  501    0  0.20749187878E+03  0.41918860778E+02  0.48667590878E+02  0.21720636513E+03  0.00000000000E+00 0.  1.
         21    1    1    2  502  501  0.11515802408E+01  0.34748504566E+02  0.57128381365E+00  0.34772274470E+02  0.00000000000E+00 0.  1.
<scales pt_clust_4="550.00000" pt_clust_5="550.00000" pt_clust_6="34.76758"></scales>
<mgrwt>
<rscale>  0 0.30000000E+03</rscale>
<asrwt>  1 0.34767581E+02</asrwt>
<pdfrwt beam="1">  1        1 0.80636850E+00 0.30000000E+03</pdfrwt>
<pdfrwt beam="2">0</pdfrwt>
<totfact> 0.93148119E-04</totfact>
</mgrwt>
<clustering>
<clus scale="   34.768">  1  6  2 -1</clus>
<clus scale="  457.514">  4  5 -1 -1</clus>
<clus scale="  300.000">  1  4  2 -1</clus>
</clustering>
</event>
<event>
 6    1  0.1000035E-011  0.3000000E+03  0.7818608E-02  0.1093470E+00
          1   -1    0    0  502    0  0.00000000000E+00  0.00000000000E+00  0.22844971490E+03  0.22844971490E+03  0.00000000000E+00 0.  1.
         13   -1    0    0    0    0 -0.00000000000E+00 -0.00000000000E+00 -0.27500000000E+03  0.27500000000E+03  0.00000000000E+00 0.  1.
    9000005    2    1    2  501    0 -0.19132498213E+02  0.30639988697E+02 -0.39196774335E+02  0.46658597234E+03  0.46353125145E+03 0.  0.
         13    1    3    3    0    0 -0.17895118674E+03  0.15523138921E+03 -0.96802513874E+02  0.25591216877E+03  0.00000000000E+00 0.  1.
          1    1    3    3  501    0  0.15981868853E+03 -0.12459140051E+03  0.57605739539E+02  0.21067380357E+03  0.00000000000E+00 0.  1.
         21    1    1    2  502  501  0.19132498213E+02 -0.30639988697E+02 -0.73535107636E+01  0.36863742564E+02  0.00000000000E+00 0.  1.
<scales pt_clust_4="550.00000" pt_clust_5="550.00000" pt_clust_6="36.12288"></scales>
<mgrwt>
<rscale>  0 0.30000000E+03</rscale>
<asrwt>  1 0.36122883E+02</asrwt>
<pdfrwt beam="1">  1        1 0.83072624E+00 0.30000000E+03</pdfrwt>
<pdfrwt beam="2">0</pdfrwt>
<totfact> 0.57959070E-04</totfact>
</mgrwt>
<clustering>
<clus scale="   36.123">  1  6  2 -1</clus>
<clus scale="  463.531">  4  5 -1 -1</clus>
<clus scale="  300.000">  1  4  2 -1</clus>
</clustering>
</event>
<event>
 6    1  0.1000035E-011  0.3000000E+03  0.7818608E-02  0.1093470E+00
          1   -1    0    0  502    0  0.00000000000E+00  0.00000000000E+00  0.23672668267E+03  0.23672668267E+03  0.00000000000E+00 0.  1.
         13   -1    0    0    0    0 -0.00000000000E+00 -0.00000000000E+00 -0.27500000000E+03  0.27500000000E+03  0.00000000000E+00 0.  1.
    9000005    2    1    2  501    0 -0.16976190273E+02 -0.25113423423E+02 -0.51590876249E+02  0.47861728147E+03  0.47486209423E+03 0.  0.
         13    1    3    3    0    0 -0.12873425400E+03 -0.21345301136E+03 -0.69809825152E+02  0.25885924341E+03  0.00000000000E+00 0.  1.
          1    1    3    3  501    0  0.11175806373E+03  0.18833958794E+03  0.18218948903E+02  0.21975803806E+03  0.00000000000E+00 0.  1.
         21    1    1    2  502  501  0.16976190273E+02  0.25113423423E+02  0.13317558917E+02  0.33109401198E+02  0.00000000000E+00 0. -1.
<scales pt_clust_4="550.00000" pt_clust_5="550.00000" pt_clust_6="30.31295"></scales>
<mgrwt>
<rscale>  0 0.30000000E+03</rscale>
<asrwt>  1 0.30312952E+02</asrwt>
<pdfrwt beam="1">  1        1 0.86082430E+00 0.30000000E+03</pdfrwt>
<pdfrwt beam="2">0</pdfrwt>
<totfact> 0.32571623E-04</totfact>
</mgrwt>
<clustering>
<clus scale="   30.313">  1  6  2 -1</clus>
<clus scale="  474.862">  4  5 -1 -1</clus>
<clus scale="  300.000">  1  4  2 -1</clus>
</clustering>
</event>
<event>
 6    1  0.1000035E-011  0.3000000E+03  0.7818608E-02  0.1093470E+00
          1   -1    0    0  502    0  0.00000000000E+00  0.00000000000E+00  0.24417803281E+03  0.24417803281E+03  0.00000000000E+00 0.  1.
         13   -1    0    0    0    0 -0.00000000000E+00 -0.00000000000E+00 -0.27500000000E+03  0.27500000000E+03  0.00000000000E+00 0.  1.
    9000005    2    1    2  501    0  0.30074106788E+02 -0.16076651972E+02 -0.54846512600E+02  0.47746365375E+03  0.47307556487E+03 0.  0.
         13    1    3    3    0    0 -0.60944024497E+01 -0.56394728734E+02  0.20465471163E+03  0.21237009715E+03  0.00000000000E+00 0.  1.
          1    1    3    3  501    0  0.36168509238E+02  0.40318076762E+02 -0.25950122423E+03  0.26509355660E+03  0.00000000000E+00 0.  1.
         21    1    1    2  502  501 -0.30074106788E+02  0.16076651972E+02  0.24024545405E+02  0.41714379052E+02  0.00000000000E+00 0. -1.
<scales pt_clust_4="550.00000" pt_clust_5="550.00000" pt_clust_6="34.10148"></scales>
<mgrwt>
<rscale>  0 0.30000000E+03</rscale>
<asrwt>  1 0.34101476E+02</asrwt>
<pdfrwt beam="1">  1        1 0.88792012E+00 0.30000000E+03</pdfrwt>
<pdfrwt beam="2">0</pdfrwt>
<totfact> 0.15544213E-04</totfact>
</mgrwt>
<clustering>
<clus scale="   34.101">  1  6  2 -1</clus>
<clus scale="  473.076">  4  5 -1 -1</clus>
<clus scale="  300.000">  1  4  2 -1</clus>
</clustering>
</event>
<event>
 6    1  0.1000035E-011  0.3000000E+03  0.7818608E-02  0.1093470E+00
          1   -1    0    0  502    0  0.00000000000E+00  0.00000000000E+00  0.24547600047E+03  0.24547600047E+03  0.00000000000E+00 0.  1.
         13   -1    0    0    0    0 -0.00000000000E+00 -0.00000000000E+00 -0.27500000000E+03  0.27500000000E+03  0.00000000000E+00 0.  1.
    9000005    2    1    2  501    0 -0.14109336857E+02 -0.46987280667E+02 -0.17307008324E+02  0.46991778843E+03  0.46702924685E+03 0.  0.
         13    1    3    3    0    0 -0.94524831897E+02 -0.21896022706E+03 -0.10526018060E+03  0.26068799455E+03  0.00000000000E+00 0.  1.
          1    1    3    3  501    0  0.80415495040E+02  0.17197294639E+03  0.87953172280E+02  0.20922979388E+03  0.00000000000E+00 0.  1.
         21    1    1    2  502  501  0.14109336857E+02  0.46987280667E+02 -0.12216991205E+02  0.50558212044E+02  0.00000000000E+00 0. -1.
<scales pt_clust_4="550.00000" pt_clust_5="550.00000" pt_clust_6="49.05997"></scales>
<mgrwt>
<rscale>  0 0.30000000E+03</rscale>
<asrwt>  1 0.49059967E+02</asrwt>
<pdfrwt beam="1">  1        1 0.89264000E+00 0.30000000E+03</pdfrwt>
<pdfrwt beam="2">0</pdfrwt>
<totfact> 0.12626384E-04</totfact>
</mgrwt>
<clustering>
<clus scale="   49.060">  1  6  2 -1</clus>
<clus scale="  467.029">  4  5 -1 -1</clus>
<clus scale="  300.000">  1  4  2 -1</clus>
</clustering>
</event>
<event>
 6    1  0.1000035E-011  0.3000000E+03  0.7818608E-02  0.1093470E+00
          1   -1    0    0  502    0  0.00000000000E+00  0.00000000000E+00  0.23298476455E+03  0.23298476455E+03  0.00000000000E+00 0.  1.
         13   -1    0    0    0    0 -0.00000000000E+00 -0.00000000000E+00 -0.27500000000E+03  0.27500000000E+03  0.00000000000E+00 0.  1.
    9000005    2    1    2  501    0  0.27707016841E+02  0.27531996074E+02 -0.57162113495E+02  0.46609064200E+03  0.46092004702E+03 0.  0.
         13    1    3    3    0    0  0.18039454266E+03  0.16246597609E+03 -0.91520156849E+02  0.25944811335E+03  0.00000000000E+00 0.  1.
          1    1    3    3  501    0 -0.15268752582E+03 -0.13493398001E+03  0.34358043355E+02  0.20664252865E+03  0.00000000000E+00 0.  1.
         21    1    1    2  502  501 -0.27707016841E+02 -0.27531996074E+02  0.15146878044E+02  0.41894122553E+02  0.00000000000E+00 0.  1.
<scales pt_clust_4="550.00000" pt_clust_5="550.00000" pt_clust_6="39.06008"></scales>
<mgrwt>
<rscale>  0 0.30000000E+03</rscale>
<asrwt>  1 0.39060077E+02</asrwt>
<pdfrwt beam="1">  1        1 0.84721733E+00 0.30000000E+03</pdfrwt>
<pdfrwt beam="2">0</pdfrwt>
<totfact> 0.42307390E-04</totfact>
</mgrwt>
<clustering>
<clus scale="   39.060">  1  6  2 -1</clus>
<clus scale="  460.920">  4  5 -1 -1</clus>
<clus scale="  300.000">  1  4  2 -1</clus>
</clustering>
</event>
<event>
 6    1  0.1000035E-011  0.3000000E+03  0.7818608E-02  0.1093470E+00
          1   -1    0    0  502    0  0.00000000000E+00  0.00000000000E+00  0.22281410394E+03  0.22281410394E+03  0.00000000000E+00 0.  1.
         13   -1    0    0    0    0 -0.00000000000E+00 -0.00000000000E+00 -0.27500000000E+03  0.27500000000E+03  0.00000000000E+00 0.  1.
    9000005    2    1    2  501    0  0.34049965892E+01 -0.31695055687E+02 -0.54413778296E+02  0.46585891632E+03  0.46157068807E+03 0.  0.
         13    1    3    3    0    0  0.10353576315E+03 -0.18373391689E+03 -0.15137326648E+03  0.25959906061E+03  0.00000000000E+00 0.  1.
          1    1    3    3  501    0 -0.10013076656E+03  0.15203886120E+03  0.96959488180E+02  0.20625985571E+03  0.00000000000E+00 0.  1.
         21    1    1    2  502  501 -0.34049965892E+01  0.31695055687E+02  0.22278822365E+01  0.31955187624E+02  0.00000000000E+00 0. -1.
<scales pt_clust_4="550.00000" pt_clust_5="550.00000" pt_clust_6="31.87743"></scales>
<mgrwt>
<rscale>  0 0.30000000E+03</rscale>
<asrwt>  1 0.31877430E+02</asrwt>
<pdfrwt beam="1">  1        1 0.81023311E+00 0.30000000E+03</pdfrwt>
<pdfrwt beam="2">0</pdfrwt>
<totfact> 0.88394855E-04</totfact>
</mgrwt>
<clustering>
<clus scale="   31.877">  1  6  2 -1</clus>
<clus scale="  461.571">  4  5 -1 -1</clus>
<clus scale="  300.000">  1  4  2 -1</clus>
</clustering>
</event>
<event>
 6    1  0.1000035E-011  0.3000000E+03  0.7818608E-02  0.1093470E+00
          1   -1    0    0  502    0  0.00000000000E+00  0.00000000000E+00  0.23457428837E+03  0.23457428837E+03  0.00000000000E+00 0.  1.
         13   -1    0    0    0    0 -0.00000000000E+00 -0.00000000000E+00 -0.27500000000E+03  0.27500000000E+03  0.00000000000E+00 0.  1.
    9000005    2    1    2  501    0 -0.33149161828E+02  0.23632753093E+02 -0.56389442578E+02  0.46584541170E+03  0.46062436369E+03 0.  0.
         13    1    3    3    0    0 -0.23941721943E+03  0.73043070372E+02 -0.29463567903E+02  0.25203967331E+03  0.00000000000E+00 0.  1.
          1    1    3    3  501    0  0.20626805760E+03 -0.49410317279E+02 -0.26925874675E+02  0.21380573839E+03  0.00000000000E+00 0.  1.
         21    1    1    2  502  501  0.33149161828E+02 -0.23632753093E+02  0.15963730946E+02  0.43728876665E+02  0.00000000000E+00 0. -1.
<scales pt_clust_4="550.00000" pt_clust_5="550.00000" pt_clust_6="40.71086"></scales>
<mgrwt>
<rscale>  0 0.30000000E+03</rscale>
<asrwt>  1 0.40710858E+02</asrwt>
<pdfrwt beam="1">  1        1 0.85299741E+00 0.30000000E+03</pdfrwt>
<pdfrwt beam="2">0</pdfrwt>
<totfact> 0.37061146E-04</totfact>
</mgrwt>
<clustering>
<clus scale="   40.711">  1  6  2 -1</clus>
<clus scale="  460.624">  4  5 -1 -1</clus>
<clus scale="  300.000">  1  4  2 -1</clus>
</clustering>
</event>
<event>
 6    1  0.1000035E-011  0.3000000E+03  0.7818608E-02  0.1093470E+00
          1   -1    0    0  502    0  0.00000000000E+00  0.00000000000E+00  0.24513499937E+03  0.24513499937E+03  0.00000000000E+00 0.  1.
         13   -1    0    0    0    0 -0.00000000000E+00 -0.00000000000E+00 -0.27500000000E+03  0.27500000000E+03  0.00000000000E+00 0.  1.
    9000005    2    1    2  501    0 -0.41606594940E+02  0.26161102475E+01 -0.59371233137E+02  0.46906083240E+03  0.46341684085E+03 0.  0.
         13    1    3    3    0    0  0.99805859525E+00 -0.51231088420E+02  0.19705112039E+03  0.20360443165E+03  0.00000000000E+00 0.  1.
          3    1    3    3  501    0 -0.42604653535E+02  0.53847198668E+02 -0.25642235353E+03  0.26545640074E+03  0.00000000000E+00 0.  1.
         21    1    1    2  502  501  0.41606594940E+02 -0.26161102475E+01  0.29506232504E+02  0.51074166973E+02  0.00000000000E+00 0. -1.
<scales pt_clust_4="550.00000" pt_clust_5="550.00000" pt_clust_6="41.68876"></scales>
<mgrwt>
<rscale>  0 0.30000000E+03</rscale>
<asrwt>  1 0.41688761E+02</asrwt>
<pdfrwt beam="1">  1        1 0.89140000E+00 0.30000000E+03</pdfrwt>
<pdfrwt beam="2">0</pdfrwt>
<totfact> 0.13461317E-04</totfact>
</mgrwt>
<clustering>
<clus scale="   41.689">  1  6  2 -1</clus>
<clus scale="  463.417">  4  5 -1 -1</clus>
<clus scale="  300.000">  1  4  2 -1</clus>
</clustering>
</event>
<event>
 6    1  0.1000035E-011  0.3000000E+03  0.7818608E-02  0.1093470E+00
          1   -1    0    0  502    0  0.00000000000E+00  0.00000000000E+00  0.24142139237E+03  0.24142139237E+03  0.00000000000E+00 0.  1.
         13   -1    0    0    0    0 -0.00000000000E+00 -0.00000000000E+00 -0.27500000000E+03  0.27500000000E+03  0.00000000000E+00 0.  1.
    9000005    2    1    2  501    0 -0.27001134275E+02  0.19795968952E+02 -0.39395820541E+02  0.48243931467E+03  0.47966104702E+03 0.  0.
         13    1    3    3    0    0  0.15294369993E+01  0.13011160521E+03 -0.22775048630E+03  0.26230069195E+03  0.00000000000E+00 0.  1.
          1    1    3    3  501    0 -0.28530571274E+02 -0.11031563626E+03  0.18835466576E+03  0.22013862272E+03  0.00000000000E+00 0.  1.
         21    1    1    2  502  501  0.27001134275E+02 -0.19795968952E+02  0.58172129131E+01  0.33982077702E+02  0.00000000000E+00 0.  1.
<scales pt_clust_4="550.00000" pt_clust_5="550.00000" pt_clust_6="33.48047"></scales>
<mgrwt>
<rscale>  0 0.30000000E+03</rscale>
<asrwt>  1 0.33480467E+02</asrwt>
<pdfrwt beam="1">  1        1 0.87789597E+00 0.30000000E+03</pdfrwt>
<pdfrwt beam="2">0</pdfrwt>
<totfact> 0.21082417E-04</totfact>
</mgrwt>
<clustering>
<clus scale="   33.480">  1  6  2 -1</clus>
<clus scale="  479.661">  4  5 -1 -1</clus>
<clus scale="  300.000">  1  4  2 -1</clus>
</clustering>
</event>
<event>
 6    1  0.1000035E-011  0.3000000E+03  0.7818608E-02  0.1093470E+00
          1   -1    0    0  502    0  0.00000000000E+00  0.00000000000E+00  0.22626609864E+03  0.22626609864E+03  0.00000000000E+00 0.  1.
         13   -1    0    0    0    0 -0.00000000000E+00 -0.00000000000E+00 -0.27500000000E+03  0.27500000000E+03  0.00000000000E+00 0.  1.
    9000005    2    1    2  501    0 -0.81563741679E+00  0.36651518993E+02 -0.45521824144E+02  0.46446505859E+03  0.46077278031E+03 0.  0.
         13    1    3    3    0    0  0.13000180615E+03  0.20183940218E+03  0.27056288702E+02  0.24160226951E+03  0.00000000000E+00 0.  1.
          1    1    3    3  501    0 -0.13081744356E+03 -0.16518788319E+03 -0.72578112846E+02  0.22286278908E+03  0.00000000000E+00 0.  1.
         21    1    1    2  502  501  0.81563741679E+00 -0.36651518993E+02 -0.32120772111E+01  0.36801040051E+02  0.00000000000E+00 0.  1.
<scales pt_clust_4="550.00000" pt_clust_5="550.00000" pt_clust_6="36.66059"></scales>
<mgrwt>
<rscale>  0 0.30000000E+03</rscale>
<asrwt>  1 0.36660593E+02</asrwt>
<pdfrwt beam="1">  1        1 0.82278581E+00 0.30000000E+03</pdfrwt>
<pdfrwt beam="2">0</pdfrwt>
<totfact> 0.67771693E-04</totfact>
</mgrwt>
<clustering>
<clus scale="   36.661">  1  6  2 -1</clus>
<clus scale="  460.773">  4  5 -1 -1</clus>
<clus scale="  300.000">  1  4  2 -1</clus>
</clustering>
</event>
<event>
 6    1  0.1000035E-011  0.3000000E+03  0.7818608E-02  0.1093470E+00
          1   -1    0    0  502    0  0.00000000000E+00  0.00000000000E+00  0.23841065424E+03  0.23841065424E+03  0.00000000000E+00 0.  1.
         13   -1    0    0    0    0 -0.00000000000E+00 -0.00000000000E+00 -0.27500000000E+03  0.27500000000E+03  0.00000000000E+00 0.  1.
    9000005    2    1    2  501    0 -0.17851563598E+02  0.28785295512E+02 -0.37223020970E+02  0.47953332989E+03  0.47688509059E+03 0.  0.
         13    1    3    3    0    0 -0.20574764840E+03 -0.85308911413E+02  0.71986385966E+02  0.23407636564E+03  0.00000000000E+00 0.  1.
          1    1    3    3  501    0  0.18789608480E+03  0.11409420692E+03 -0.10920940694E+03  0.24545696425E+03  0.00000000000E+00 0.  1.
         21    1    1    2  502  501  0.17851563598E+02 -0.28785295512E+02  0.63367521082E+00  0.33877324346E+02  0.00000000000E+00 0.  1.
<scales pt_clust_4="550.00000" pt_clust_5="550.00000" pt_clust_6="33.87140"></scales>
<mgrwt>
<rscale>  0 0.30000000E+03</rscale>
<asrwt>  1 0.33871397E+02</asrwt>
<pdfrwt beam="1">  1        1 0.86694783E+00 0.30000000E+03</pdfrwt>
<pdfrwt beam="2">0</pdfrwt>
<totfact> 0.27404109E-04</totfact>
</mgrwt>
<clustering>
<clus scale="   33.871">  1  6  2 -1</clus>
<clus scale="  476.885">  4  5 -1 -1</clus>
<clus scale="  300.000">  1  4  2 -1</clus>
</clustering>
</event>
<event>
 6    1  0.1000035E-011  0.3000000E+03  0.7818608E-02  0.1093470E+00
          1   -1    0    0  502    0  0.00000000000E+00  0.00000000000E+00  0.24617642570E+03  0.24617642570E+03  0.00000000000E+00 0.  1.
         13   -1    0    0    0    0 -0.00000000000E+00 -0.00000000000E+00 -0.27500000000E+03  0.27500000000E+03  0.00000000000E+00 0.  1.
    9000005    2    1    2  501    0  0.17314159483E+02 -0.25235186671E+02 -0.42149989158E+02  0.48779696947E+03  0.48500790414E+03 0.  0.
         13    1    3    3    0    0 -0.12002101379E+03 -0.21817919026E+03 -0.15958052934E+02  0.24952327000E+03  0.00000000000E+00 0.  1.
          3    1    3    3  501    0  0.13733517327E+03  0.19294400359E+03 -0.26191936224E+02  0.23827369948E+03  0.00000000000E+00 0.  1.
         21    1    1    2  502  501 -0.17314159483E+02  0.25235186671E+02  0.13326414858E+02  0.33379456225E+02  0.00000000000E+00 0.  1.
<scales pt_clust_4="550.00000" pt_clust_5="550.00000" pt_clust_6="30.60384"></scales>
<mgrwt>
<rscale>  0 0.30000000E+03</rscale>
<asrwt>  1 0.30603836E+02</asrwt>
<pdfrwt beam="1">  1        1 0.89518700E+00 0.30000000E+03</pdfrwt>
<pdfrwt beam="2">0</pdfrwt>
<totfact> 0.12871650E-04</totfact>
</mgrwt>
<clustering>
<clus scale="   30.604">  1  6  2 -1</clus>
<clus scale="  485.008">  4  5 -1 -1</clus>
<clus scale="  300.000">  1  4  2 -1</clus>
</clustering>
</event>
<event>
 6    1  0.1000035E-011  0.3000000E+03  0.7818608E-02  0.1093470E+00
          1   -1    0    0  502    0  0.00000000000E+00  0.00000000000E+00  0.24369081982E+03  0.24369081982E+03  0.00000000000E+00 0.  1.
         13   -1    0    0    0    0 -0.00000000000E+00 -0.00000000000E+00 -0.27500000000E+03  0.27500000000E+03  0.00000000000E+00 0.  1.
    9000005    2    1    2  501    0  0.12735592432E+02  0.39580580778E+02 -0.36440544064E+02  0.47679632633E+03  0.47357998888E+03 0.  0.
         13    1    3    3    0    0  0.21173855254E+03 -0.61565745275E+02 -0.10366758557E+03  0.24366067373E+03  0.00000000000E+00 0.  1.
          3    1    3    3  501    0 -0.19900296011E+03  0.10114632605E+03  0.67227041509E+02  0.23313565261E+03  0.00000000000E+00 0.  1.
         21    1    1    2  502  501 -0.12735592432E+02 -0.39580580778E+02  0.51313638856E+01  0.41894493488E+02  0.00000000000E+00 0.  1.
<scales pt_clust_4="550.00000" pt_clust_5="550.00000" pt_clust_6="41.57905"></scales>
<mgrwt>
<rscale>  0 0.30000000E+03</rscale>
<asrwt>  1 0.41579053E+02</asrwt>
<pdfrwt beam="1">  1        1 0.88614844E+00 0.30000000E+03</pdfrwt>
<pdfrwt beam="2">0</pdfrwt>
<totfact> 0.15853670E-04</totfact>
</mgrwt>
<clustering>
<clus scale="   41.579">  1  6  2 -1</clus>
<clus scale="  473.580">  4  5 -1 -1</clus>
<clus scale="  300.000">  1  4  2 -1</clus>
</clustering>
</event>
<event>
 6    1  0.1000035E-011  0.3000000E+03  0.7818608E-02  0.1093470E+00
          1   -1    0    0  502    0  0.00000000000E+00  0.00000000000E+00  0.24294141294E+03  0.24294141294E+03  0.00000000000E+00 0.  1.
         13   -1    0    0    0    0 -0.00000000000E+00 -0.00000000000E+00 -0.27500000000E+03  0.27500000000E+03  0.00000000000E+00 0.  1.
    9000005    2    1    2  501    0 -0.33768510064E+02 -0.31790094355E+01 -0.47572191717E+02  0.48064408995E+03  0.47707987738E+03 0.  0.
         13    1    3    3    0    0 -0.55359978893E+01 -0.11197785992E+03 -0.23597749660E+03  0.26125670764E+03  0.00000000000E+00 0.  1.
          1    1    3    3  501    0 -0.28232512175E+02  0.10879885049E+03  0.18840530488E+03  0.21938738231E+03  0.00000000000E+00 0.  1.
         21    1    1    2  502  501  0.33768510064E+02  0.31790094355E+01  0.15513604655E+02  0.37297322991E+02  0.00000000000E+00 0. -1.
<scales pt_clust_4="550.00000" pt_clust_5="550.00000" pt_clust_6="33.91782"></scales>
<mgrwt>
<rscale>  0 0.30000000E+03</rscale>
<asrwt>  1 0.33917818E+02</asrwt>
<pdfrwt beam="1">  1        1 0.88342332E+00 0.30000000E+03</pdfrwt>
<pdfrwt beam="2">0</pdfrwt>
<totfact> 0.17932995E-04</totfact>
</mgrwt>
<clustering>
<clus scale="   33.918">  1  6  2 -1</clus>
<clus scale="  477.080">  4  5 -1 -1</clus>
<clus scale="  300.000">  1  4  2 -1</clus>
</clustering>
</event>
<event>
 6    1  0.1000035E-011  0.3000000E+03  0.7818608E-02  0.1093470E+00
          1   -1    0    0  502    0  0.00000000000E+00  0.00000000000E+00  0.22695879867E+03  0.22695879867E+03  0.00000000000E+00 0.  1.
         13   -1    0    0    0    0 -0.00000000000E+00 -0.00000000000E+00 -0.27500000000E+03  0.27500000000E+03  0.00000000000E+00 0.  1.
    9000005    2    1    2  501    0 -0.17767209034E+02  0.25476961260E+02 -0.54837923361E+02  0.47016344205E+03  0.46592028839E+03 0.  0.
         13    1    3    3    0    0 -0.82347029973E+02  0.45969613145E+01 -0.25014955079E+03  0.26339507049E+03  0.00000000000E+00 0.  1.
          3    1    3    3  501    0  0.64579820939E+02  0.20879999946E+02  0.19531162743E+03  0.20676837156E+03  0.00000000000E+00 0.  1.
         21    1    1    2  502  501  0.17767209034E+02 -0.25476961260E+02  0.67967220279E+01  0.31795356615E+02  0.00000000000E+00 0.  1.
<scales pt_clust_4="550.00000" pt_clust_5="550.00000" pt_clust_6="31.06041"></scales>
<mgrwt>
<rscale>  0 0.30000000E+03</rscale>
<asrwt>  1 0.31060413E+02</asrwt>
<pdfrwt beam="1">  1        1 0.82530472E+00 0.30000000E+03</pdfrwt>
<pdfrwt beam="2">0</pdfrwt>
<totfact> 0.66392295E-04</totfact>
</mgrwt>
<clustering>
<clus scale="   31.060">  1  6  2 -1</clus>
<clus scale="  465.920">  4  5 -1 -1</clus>
<clus scale="  300.000">  1  4  2 -1</clus>
</clustering>
</event>
<event>
 6    1  0.1000035E-011  0.3000000E+03  0.7818608E-02  0.1093470E+00
          1   -1    0    0  502    0  0.00000000000E+00  0.00000000000E+00  0.22075379791E+03  0.22075379791E+03  0.00000000000E+00 0.  1.
         13   -1    0    0    0    0 -0.00000000000E+00 -0.00000000000E+00 -0.27500000000E+03  0.27500000000E+03  0.00000000000E+00 0.  1.
    9000005    2    1    2  501    0  0.69310344474E+01 -0.32246406639E+02 -0.46443423283E+02  0.46186053402E+03  0.45833425722E+03 0.  0.
         13    1    3    3    0    0 -0.56825871356E+02  0.57087328285E+02 -0.23238249130E+03  0.24594667099E+03  0.00000000000E+00 0.  1.
          3    1    3    3  501    0  0.63756905803E+02 -0.89333734924E+02  0.18593906802E+03  0.21591386303E+03  0.00000000000E+00 0.  1.
         21    1    1    2  502  501 -0.69310344474E+01  0.32246406639E+02 -0.78027788121E+01  0.33893263886E+02  0.00000000000E+00 0. -1.
<scales pt_clust_4="550.00000" pt_clust_5="550.00000" pt_clust_6="32.98289"></scales>
<mgrwt>
<rscale>  0 0.30000000E+03</rscale>
<asrwt>  1 0.32982891E+02</asrwt>
<pdfrwt beam="1">  1        1 0.80274108E+00 0.30000000E+03</pdfrwt>
<pdfrwt beam="2">0</pdfrwt>
<totfact> 0.10016554E-03</totfact>
</mgrwt>
<clustering>
<clus scale="   32.983">  1  6  2 -1</clus>
<clus scale="  458.334">  4  5 -1 -1</clus>
<clus scale="  300.000">  1  4  2 -1</clus>
</clustering>
</event>
<event>
 6    1  0.1000035E-011  0.3000000E+03  0.7818608E-02  0.1093470E+00
          1   -1    0    0  502    0  0.00000000000E+00  0.00000000000E+00  0.23139992758E+03  0.23139992758E+03  0.00000000000E+00 0.  1.
         13   -1    0    0    0    0 -0.00000000000E+00 -0.00000000000E+00 -0.27500000000E+03  0.27500000000E+03  0.00000000000E+00 0.  1.
    9000005    2    1    2  501    0  0.45825000129E+01 -0.44679300273E+02 -0.37440046061E+02  0.46106577815E+03  0.45734303925E+03 0.  0.
         13    1    3    3    0    0  0.35033860172E+02 -0.24679282123E+03  0.16064626366E+02  0.24978418723E+03  0.00000000000E+00 0.  1.
          1    1    3    3  501    0 -0.30451360159E+02  0.20211352096E+03 -0.53504672427E+02  0.21128159092E+03  0.00000000000E+00 0.  1.
         21    1    1    2  502  501 -0.45825000129E+01  0.44679300273E+02 -0.61600263627E+01  0.45334149424E+02  0.00000000000E+00 0. -1.
<scales pt_clust_4="550.00000" pt_clust_5="550.00000" pt_clust_6="44.91371"></scales>
<mgrwt>
<rscale>  0 0.30000000E+03</rscale>
<asrwt>  1 0.44913708E+02</asrwt>
<pdfrwt beam="1">  1        1 0.84145428E+00 0.30000000E+03</pdfrwt>
<pdfrwt beam="2">0</pdfrwt>
<totfact> 0.46254168E-04</totfact>
</mgrwt>
<clustering>
<clus scale="   44.914">  1  6  2 -1</clus>
<clus scale="  457.343">  4  5 -1 -1</clus>
<clus scale="  300.000">  1  4  2 -1</clus>
</clustering>
</event>
<event>
 6    1  0.1000035E-011  0.3000000E+03  0.7818608E-02  0.1093470E+00
          1   -1    0    0  502    0  0.00000000000E+00  0.00000000000E+00  0.24220847657E+03  0.24220847657E+03  0.00000000000E+00 0.  1.
         13   -1    0    0    0    0 -0.00000000000E+00 -0.00000000000E+00 -0.27500000000E+03  0.27500000000E+03  0.00000000000E+00 0.  1.
    9000005    2    1    2  501    0  0.47872495391E+01  0.31467686440E+02 -0.36863016251E+02  0.48511938026E+03  0.48266841422E+03 0.  0.
         13    1    3    3    0    0  0.23541318445E+03 -0.47081310394E+02 -0.17063454686E+02  0.24068065707E+03  0.00000000000E+00 0.  1.
          1    1    3    3  501    0 -0.23062593491E+03  0.78548996834E+02 -0.19799561565E+02  0.24443872319E+03  0.00000000000E+00 0.  1.
         21    1    1    2  502  501 -0.47872495391E+01 -0.31467686440E+02  0.40714928163E+01  0.32089096307E+02  0.00000000000E+00 0.  1.
<scales pt_clust_4="550.00000" pt_clust_5="550.00000" pt_clust_6="31.82975"></scales>
<mgrwt>
<rscale>  0 0.30000000E+03</rscale>
<asrwt>  1 0.31829751E+02</asrwt>
<pdfrwt beam="1">  1        1 0.88075810E+00 0.30000000E+03</pdfrwt>
<pdfrwt beam="2">0</pdfrwt>
<totfact> 0.19661900E-04</totfact>
</mgrwt>
<clustering>
<clus scale="   31.830">  1  6  2 -1</clus>
<clus scale="  482.668">  4  5 -1 -1</clus>
<clus scale="  300.000">  1  4  2 -1</clus>
</clustering>
</event>
<event>
 6    1  0.1000035E-011  0.3000000E+03  0.7818608E-02  0.1093470E+00
          1   -1    0    0  502    0  0.00000000000E+00  0.00000000000E+00  0.22989638269E+03  0.22989638269E+03  0.00000000000E+00 0.  1.
         13   -1    0    0    0    0 -0.00000000000E+00 -0.00000000000E+00 -0.27500000000E+03  0.27500000000E+03  0.00000000000E+00 0.  1.
    9000005    2    1    2  501    0 -0.23151108010E+02  0.32482366437E+02 -0.59212054148E+02  0.46258650298E+03  0.45704390101E+03 0.  0.
         13    1    3    3    0    0 -0.15174811966E+03 -0.11944501907E+03 -0.14930254236E+03  0.24410213755E+03  0.00000000000E+00 0.  1.
          1    1    3    3  501    0  0.12859701165E+03  0.15192738550E+03  0.90090488209E+02  0.21848436543E+03  0.00000000000E+00 0.  1.
         21    1    1    2  502  501  0.23151108010E+02 -0.32482366437E+02  0.14108436838E+02  0.42309879714E+02  0.00000000000E+00 0.  1.
<scales pt_clust_4="550.00000" pt_clust_5="550.00000" pt_clust_6="39.88832"></scales>
<mgrwt>
<rscale>  0 0.30000000E+03</rscale>
<asrwt>  1 0.39888318E+02</asrwt>
<pdfrwt beam="1">  1        1 0.83598685E+00 0.30000000E+03</pdfrwt>
<pdfrwt beam="2">0</pdfrwt>
<totfact> 0.51942012E-04</totfact>
</mgrwt>
<clustering>
<clus scale="   39.888">  1  6  2 -1</clus>
<clus scale="  457.044">  4  5 -1 -1</clus>
<clus scale="  300.000">  1  4  2 -1</clus>
</clustering>
</event>
<event>
 6    1  0.1000035E-011  0.3000000E+03  0.7818608E-02  0.1093470E+00
          1   -1    0    0  502    0  0.00000000000E+00  0.00000000000E+00  0.23272523954E+03  0.23272523954E+03  0.00000000000E+00 0.  1.
         13   -1    0    0    0    0 -0.00000000000E+00 -0.00000000000E+00 -0.27500000000E+03  0.27500000000E+03  0.00000000000E+00 0.  1.
    9000005    2    1    2  501    0 -0.31076358394E+02 -0.18303827433E+02 -0.33022632554E+02  0.47049122256E+03  0.46794307998E+03 0.  0.
         13    1    3    3    0    0  0.16413551594E+03 -0.79648698852E+02  0.11702674666E+03  0.21674787716E+03  0.00000000000E+00 0.  1.
          3    1    3    3  501    0 -0.19521187434E+03  0.61344871419E+02 -0.15004937921E+03  0.25374334540E+03  0.00000000000E+00 0.  1.
         21    1    1    2  502  501  0.31076358394E+02  0.18303827433E+02 -0.92521279041E+01  0.37234016980E+02  0.00000000000E+00 0.  1.
<scales pt_clust_4="550.00000" pt_clust_5="550.00000" pt_clust_6="36.06621"></scales>
<mgrwt>
<rscale>  0 0.30000000E+03</rscale>
<asrwt>  1 0.36066209E+02</asrwt>
<pdfrwt beam="1">  1        1 0.84627360E+00 0.30000000E+03</pdfrwt>
<pdfrwt beam="2">0</pdfrwt>
<totfact> 0.43781663E-04</totfact>
</mgrwt>
<clustering>
<clus scale="   36.066">  1  6  2 -1</clus>
<clus scale="  467.943">  4  5 -1 -1</clus>
<clus scale="  300.000">  1  4  2 -1</clus>
</clustering>
</event>
<event>
 6    1  0.1000035E-011  0.3000000E+03  0.7818608E-02  0.1093470E+00
          1   -1    0    0  502    0  0.00000000000E+00  0.00000000000E+00  0.25397526452E+03  0.25397526452E+03  0.00000000000E+00 0.  1.
         13   -1    0    0    0    0 -0.00000000000E+00 -0.00000000000E+00 -0.27500000000E+03  0.27500000000E+03  0.00000000000E+00 0.  1.
    9000005    2    1    2  501    0 -0.25707799377E+02  0.15921060645E+02 -0.69542623678E+02  0.47180572196E+03  0.46567165648E+03 0.  0.
         13    1    3    3    0    0  0.21810946384E+03  0.17264734824E+02 -0.19938760456E+01  0.21880078800E+03  0.00000000000E+00 0.  1.
          1    1    3    3  501    0 -0.24381726322E+03 -0.13436741791E+01 -0.67548747632E+02  0.25300493397E+03  0.00000000000E+00 0.  1.
         21    1    1    2  502  501  0.25707799377E+02 -0.15921060645E+02  0.48517888203E+02  0.57169542560E+02  0.00000000000E+00 0.  1.
<scales pt_clust_4="550.00000" pt_clust_5="550.00000" pt_clust_6="30.23857"></scales>
<mgrwt>
<rscale>  0 0.30000000E+03</rscale>
<asrwt>  1 0.30238570E+02</asrwt>
<pdfrwt beam="1">  1        1 0.92354642E+00 0.30000000E+03</pdfrwt>
<pdfrwt beam="2">0</pdfrwt>
<totfact> 0.36136643E-05</totfact>
</mgrwt>
<clustering>
<clus scale="   30.239">  1  6  2 -1</clus>
<clus scale="  465.672">  4  5 -1 -1</clus>
<clus scale="  300.000">  1  4  2 -1</clus>
</clustering>
</event>
<event>
 6    1  0.1000035E-011  0.3000000E+03  0.7818608E-02  0.1093470E+00
          1   -1    0    0  502    0  0.00000000000E+00  0.00000000000E+00  0.24056639443E+03  0.24056639443E+03  0.00000000000E+00 0.  1.
         13   -1    0    0    0    0 -0.00000000000E+00 -0.00000000000E+00 -0.27500000000E+03  0.27500000000E+03  0.00000000000E+00 0.  1.
    9000005    2    1    2  501    0  0.12553874109E+02 -0.41686430535E+02 -0.61463505503E+02  0.46432213879E+03  0.45817237784E+03 0.  0.
         13    1    3    3    0    0 -0.77573939622E+02  0.16512916536E+03 -0.13508837228E+03  0.22701151003E+03  0.00000000000E+00 0.  1.
          1    1    3    3  501    0  0.90127813731E+02 -0.20681559589E+03  0.73624866780E+02  0.23731062876E+03  0.00000000000E+00 0.  1.
         21    1    1    2  502  501 -0.12553874109E+02  0.41686430535E+02  0.27029899938E+02  0.51244255644E+02  0.00000000000E+00 0.  1.
<scales pt_clust_4="550.00000" pt_clust_5="550.00000" pt_clust_6="43.53571"></scales>
<mgrwt>
<rscale>  0 0.30000000E+03</rscale>
<asrwt>  1 0.43535712E+02</asrwt>
<pdfrwt beam="1">  1        1 0.87478689E+00 0.30000000E+03</pdfrwt>
<pdfrwt beam="2">0</pdfrwt>
<totfact> 0.21722899E-04</totfact>
</mgrwt>
<clustering>
<clus scale="   43.536">  1  6  2 -1</clus>
<clus scale="  458.172">  4  5 -1 -1</clus>
<clus scale="  300.000">  1  4  2 -1</clus>
</clustering>
</event>
<event>
 6    1  0.1000035E-011  0.3000000E+03  0.7818608E-02  0.1093470E+00
          1   -1    0    0  502    0  0.00000000000E+00  0.00000000000E+00  0.24691762721E+03  0.24691762721E+03  0.00000000000E+00 0.  1.
         13   -1    0    0    0    0 -0.00000000000E+00 -0.00000000000E+00 -0.27500000000E+03  0.27500000000E+03  0.00000000000E+00 0.  1.
    9000005    2    1    2  501    0  0.12534867164E+02  0.34488263444E+02 -0.73436292199E+02  0.46357775049E+03  0.45625089427E+03 0.  0.
         13    1    3    3    0    0 -0.28594256617E+01  0.23610532526E+03 -0.10590222911E+03  0.25878404715E+03  0.00000000000E+00 0.  1.
          1    1    3    3  501    0  0.15394292825E+02 -0.20161706181E+03  0.32465936913E+02  0.20479370333E+03  0.00000000000E+00 0.  1.
         21    1    1    2  502  501 -0.12534867164E+02 -0.34488263444E+02  0.45353919411E+02  0.58339876724E+02  0.00000000000E+00 0.  1.
<scales pt_clust_4="550.00000" pt_clust_5="550.00000" pt_clust_6="36.69555"></scales>
<mgrwt>
<rscale>  0 0.30000000E+03</rscale>
<asrwt>  1 0.36695548E+02</asrwt>
<pdfrwt beam="1">  1        1 0.89788228E+00 0.30000000E+03</pdfrwt>
<pdfrwt beam="2">0</pdfrwt>
<totfact> 0.11602345E-04</totfact>
</mgrwt>
<clustering>
<clus scale="   36.696">  1  6  2 -1</clus>
<clus scale="  456.251">  4  5 -1 -1</clus>
<clus scale="  300.000">  1  4  2 -1</clus>
</clustering>
</event>
<event>
 6    1  0.1000035E-011  0.3000000E+03  0.7818608E-02  0.1093470E+00
          1   -1    0    0  502    0  0.00000000000E+00  0.00000000000E+00  0.23363616939E+03  0.23363616939E+03  0.00000000000E+00 0.  1.
         13   -1    0    0    0    0 -0.00000000000E+00 -0.00000000000E+00 -0.27500000000E+03  0.27500000000E+03  0.00000000000E+00 0.  1.
    9000005    2    1    2  501    0  0.28117956954E+02  0.21265086373E+02 -0.58340867128E+02  0.46950762264E+03  0.46453302093E+03 0.  0.
         13    1    3    3    0    0 -0.13504151036E+03 -0.14267566334E+01 -0.20730411048E+03  0.24741309460E+03  0.00000000000E+00 0.  1.
          3    1    3    3  501    0  0.16315946732E+03  0.22691843006E+02  0.14896324336E+03  0.22209452804E+03  0.00000000000E+00 0.  1.
         21    1    1    2  502  501 -0.28117956954E+02 -0.21265086373E+02  0.16977036513E+02  0.39128546746E+02  0.00000000000E+00 0.  1.
<scales pt_clust_4="550.00000" pt_clust_5="550.00000" pt_clust_6="35.25370"></scales>
<mgrwt>
<rscale>  0 0.30000000E+03</rscale>
<asrwt>  1 0.35253701E+02</asrwt>
<pdfrwt beam="1">  1        1 0.84958607E+00 0.30000000E+03</pdfrwt>
<pdfrwt beam="2">0</pdfrwt>
<totfact> 0.41008034E-04</totfact>
</mgrwt>
<clustering>
<clus scale="   35.254">  1  6  2 -1</clus>
<clus scale="  464.533">  4  5 -1 -1</clus>
<clus scale="  300.000">  1  4  2 -1</clus>
</clustering>
</event>
<event>
 6    1  0.1000035E-011  0.3000000E+03  0.7818608E-02  0.1093470E+00
          1   -1    0    0  502    0  0.00000000000E+00  0.00000000000E+00  0.24153431108E+03  0.24153431108E+03  0.00000000000E+00 0.  1.
         13   -1    0    0    0    0 -0.00000000000E+00 -0.00000000000E+00 -0.27500000000E+03  0.27500000000E+03  0.00000000000E+00 0.  1.
    9000005    2    1    2  501    0  0.30715116529E+02  0.16962017407E+02 -0.56593626011E+02  0.47451015265E+03  0.46981476993E+03 0.  0.
         13    1    3    3    0    0  0.26194949552E+02 -0.22623298212E+03 -0.21550839775E+02  0.22876183308E+03  0.00000000000E+00 0.  1.
          3    1    3    3  501    0  0.45201669767E+01  0.24319499952E+03 -0.35042786236E+02  0.24574831957E+03  0.00000000000E+00 0.  1.
         21    1    1    2  502  501 -0.30715116529E+02 -0.16962017407E+02  0.23127937094E+02  0.42024158435E+02  0.00000000000E+00 0. -1.
<scales pt_clust_4="550.00000" pt_clust_5="550.00000" pt_clust_6="35.08744"></scales>
<mgrwt>
<rscale>  0 0.30000000E+03</rscale>
<asrwt>  1 0.35087440E+02</asrwt>
<pdfrwt beam="1">  1        1 0.87830659E+00 0.30000000E+03</pdfrwt>
<pdfrwt beam="2">0</pdfrwt>
<totfact> 0.20671304E-04</totfact>
</mgrwt>
<clustering>
<clus scale="   35.087">  1  6  2 -1</clus>
<clus scale="  469.815">  4  5 -1 -1</clus>
<clus scale="  300.000">  1  4  2 -1</clus>
</clustering>
</event>
<event>
 6    1  0.1000035E-011  0.3000000E+03  0.7818608E-02  0.1093470E+00
          1   -1    0    0  502    0  0.00000000000E+00  0.00000000000E+00  0.24830451703E+03  0.24830451703E+03  0.00000000000E+00 0.  1.
         13   -1    0    0    0    0 -0.00000000000E+00 -0.00000000000E+00 -0.27500000000E+03  0.27500000000E+03  0.00000000000E+00 0.  1.
    9000005    2    1    2  501    0  0.28048431819E+02  0.23608977001E+02 -0.58262494948E+02  0.47492503204E+03  0.46990974604E+03 0.  0.
         13    1    3    3    0    0 -0.79827261988E+02 -0.11154154332E+03  0.15064381791E+03  0.20373381535E+03  0.00000000000E+00 0.  1.
          1    1    3    3  501    0  0.10787569381E+03  0.13515052032E+03 -0.20890631286E+03  0.27119121669E+03  0.00000000000E+00 0.  1.
         21    1    1    2  502  501 -0.28048431819E+02 -0.23608977001E+02  0.31567011976E+02  0.48379484987E+02  0.00000000000E+00 0.  1.
<scales pt_clust_4="550.00000" pt_clust_5="550.00000" pt_clust_6="36.66195"></scales>
<mgrwt>
<rscale>  0 0.30000000E+03</rscale>
<asrwt>  1 0.36661947E+02</asrwt>
<pdfrwt beam="1">  1        1 0.90292552E+00 0.30000000E+03</pdfrwt>
<pdfrwt beam="2">0</pdfrwt>
<totfact> 0.99622923E-05</totfact>
</mgrwt>
<clustering>
<clus scale="   36.662">  1  6  2 -1</clus>
<clus scale="  469.910">  4  5 -1 -1</clus>
<clus scale="  300.000">  1  4  2 -1</clus>
</clustering>
</event>
<event>
 6    1  0.1000035E-011  0.3000000E+03  0.7818608E-02  0.1093470E+00
          1   -1    0    0  502    0  0.00000000000E+00  0.00000000000E+00  0.24507339908E+03  0.24507339908E+03  0.00000000000E+00 0.  1.
         13   -1    0    0    0    0 -0.00000000000E+00 -0.00000000000E+00 -0.27500000000E+03  0.27500000000E+03  0.00000000000E+00 0.  1.
    9000005    2    1    2  501    0 -0.24545012569E+02  0.23488247032E+02 -0.74302532301E+02  0.46418620308E+03  0.45693961246E+03 0.  0.
         13    1    3    3    0    0  0.31243249560E+02 -0.21161857108E+03 -0.10022034207E+02  0.21414714903E+03  0.00000000000E+00 0.  1.
          3    1    3    3  501    0 -0.55788262129E+02  0.23510681811E+03 -0.64280498094E+02  0.25003905405E+03  0.00000000000E+00 0.  1.
         21    1    1    2  502  501  0.24545012569E+02 -0.23488247032E+02  0.44375931376E+02  0.55887195995E+02  0.00000000000E+00 0. -1.
<scales pt_clust_4="550.00000" pt_clust_5="550.00000" pt_clust_6="33.97286"></scales>
<mgrwt>
<rscale>  0 0.30000000E+03</rscale>
<asrwt>  1 0.33972863E+02</asrwt>
<pdfrwt beam="1">  1        1 0.89117600E+00 0.30000000E+03</pdfrwt>
<pdfrwt beam="2">0</pdfrwt>
<totfact> 0.14070975E-04</totfact>
</mgrwt>
<clustering>
<clus scale="   33.973">  1  6  2 -1</clus>
<clus scale="  456.940">  4  5 -1 -1</clus>
<clus scale="  300.000">  1  4  2 -1</clus>
</clustering>
</event>
<event>
 6    1  0.1000035E-011  0.3000000E+03  0.7818608E-02  0.1093470E+00
          1   -1    0    0  502    0  0.00000000000E+00  0.00000000000E+00  0.22922815041E+03  0.22922815041E+03  0.00000000000E+00 0.  1.
         13   -1    0    0    0    0 -0.00000000000E+00 -0.00000000000E+00 -0.27500000000E+03  0.27500000000E+03  0.00000000000E+00 0.  1.
    9000005    2    1    2  501    0  0.34409997623E+02 -0.15045046800E+02 -0.49810102360E+02  0.46645635068E+03  0.46226624300E+03 0.  0.
         13    1    3    3    0    0 -0.17824727695E+03  0.10947070038E+03  0.20532026605E+02  0.21018441926E+03  0.00000000000E+00 0.  1.
          3    1    3    3  501    0  0.21265727458E+03 -0.12451574718E+03 -0.70342128964E+02  0.25627193142E+03  0.00000000000E+00 0.  1.
         21    1    1    2  502  501 -0.34409997623E+02  0.15045046800E+02  0.40382527672E+01  0.37771799732E+02  0.00000000000E+00 0.  1.
<scales pt_clust_4="550.00000" pt_clust_5="550.00000" pt_clust_6="37.55531"></scales>
<mgrwt>
<rscale>  0 0.30000000E+03</rscale>
<asrwt>  1 0.37555311E+02</asrwt>
<pdfrwt beam="1">  1        1 0.83355691E+00 0.30000000E+03</pdfrwt>
<pdfrwt beam="2">0</pdfrwt>
<totfact> 0.54718620E-04</totfact>
</mgrwt>
<clustering>
<clus scale="   37.555">  1  6  2 -1</clus>
<clus scale="  462.266">  4  5 -1 -1</clus>
<clus scale="  300.000">  1  4  2 -1</clus>
</clustering>
</event>
<event>
 6    1  0.1000035E-011  0.3000000E+03  0.7818608E-02  0.1093470E+00
          1   -1    0    0  502    0  0.00000000000E+00  0.00000000000E+00  0.23851086459E+03  0.23851086459E+03  0.00000000000E+00 0.  1.
         13   -1    0    0    0    0 -0.00000000000E+00 -0.00000000000E+00 -0.27500000000E+03  0.27500000000E+03  0.00000000000E+00 0.  1.
    9000005    2    1    2  501    0 -0.35113349661E+02 -0.18050204174E+02 -0.18219090106E+02  0.47000739632E+03  0.46799173087E+03 0.  0.
         13    1    3    3    0    0  0.58469312080E+02 -0.52344170359E+02  0.20826659249E+03  0.22256133126E+03  0.00000000000E+00 0.  1.
          1    1    3    3  501    0 -0.93582661741E+02  0.34293966185E+02 -0.22648568259E+03  0.24744606506E+03  0.00000000000E+00 0.  1.
         21    1    1    2  502  501  0.35113349661E+02  0.18050204174E+02 -0.18270045309E+02  0.43503468261E+02  0.00000000000E+00 0. -1.
<scales pt_clust_4="550.00000" pt_clust_5="550.00000" pt_clust_6="39.48112"></scales>
<mgrwt>
<rscale>  0 0.30000000E+03</rscale>
<asrwt>  1 0.39481119E+02</asrwt>
<pdfrwt beam="1">  1        1 0.86731223E+00 0.30000000E+03</pdfrwt>
<pdfrwt beam="2">0</pdfrwt>
<totfact> 0.26402162E-04</totfact>
</mgrwt>
<clustering>
<clus scale="   39.481">  1  6  2 -1</clus>
<clus scale="  467.992">  4  5 -1 -1</clus>
<clus scale="  300.000">  1  4  2 -1</clus>
</clustering>
</event>
<event>
 6    1  0.1000035E-011  0.3000000E+03  0.7818608E-02  0.1093470E+00
          1   -1    0    0  502    0  0.00000000000E+00  0.00000000000E+00  0.22303622259E+03  0.22303622259E+03  0.00000000000E+00 0.  1.
         13   -1    0    0    0    0 -0.00000000000E+00 -0.00000000000E+00 -0.27500000000E+03  0.27500000000E+03  0.00000000000E+00 0.  1.
    9000005    2    1    2  501    0 -0.92062181931E+01 -0.29585830709E+02 -0.44059724972E+02  0.46605888878E+03  0.46293579751E+03 0.  0.
         13    1    3    3    0    0 -0.72171821981E+02  0.26926103090E+02 -0.24030652677E+03  0.25235097330E+03  0.00000000000E+00 0.  1.
          3    1    3    3  501    0  0.62965603788E+02 -0.56511933799E+02  0.19624680180E+03  0.21370791548E+03  0.00000000000E+00 0.  1.
         21    1    1    2  502  501  0.92062181931E+01  0.29585830709E+02 -0.79040524424E+01  0.31977333803E+02  0.00000000000E+00 0. -1.
<scales pt_clust_4="550.00000" pt_clust_5="550.00000" pt_clust_6="30.98511"></scales>
<mgrwt>
<rscale>  0 0.30000000E+03</rscale>
<asrwt>  1 0.30985106E+02</asrwt>
<pdfrwt beam="1">  1        1 0.81104081E+00 0.30000000E+03</pdfrwt>
<pdfrwt beam="2">0</pdfrwt>
<totfact> 0.87590722E-04</totfact>
</mgrwt>
<clustering>
<clus scale="   30.985">  1  6  2 -1</clus>
<clus scale="  462.936">  4  5 -1 -1</clus>
<clus scale="  300.000">  1  4  2 -1</clus>
</clustering>
</event>
<event>
 6    1  0.1000035E-011  0.3000000E+03  0.7818608E-02  0.1093470E+00
          1   -1    0    0  502    0  0.00000000000E+00  0.00000000000E+00  0.21830064292E+03  0.21830064292E+03  0.00000000000E+00 0.  1.
         13   -1    0    0    0    0 -0.00000000000E+00 -0.00000000000E+00 -0.27500000000E+03  0.27500000000E+03  0.00000000000E+00 0.  1.
    9000005    2    1    2  501    0  0.81853360795E+01 -0.29969698016E+02 -0.51435042199E+02  0.46179039796E+03  0.45786419991E+03 0.  0.
         13    1    3    3    0    0 -0.29556796416E+02  0.56200853012E+02 -0.24150526857E+03  0.24971370575E+03  0.00000000000E+00 0.  1.
          3    1    3    3  501    0  0.37742132495E+02 -0.86170551028E+02  0.19007022637E+03  0.21207669222E+03  0.00000000000E+00 0.  1.
         21    1    1    2  502  501 -0.81853360795E+01  0.29969698016E+02 -0.52643148821E+01  0.31510244954E+02  0.00000000000E+00 0. -1.
<scales pt_clust_4="550.00000" pt_clust_5="550.00000" pt_clust_6="31.06740"></scales>
<mgrwt>
<rscale>  0 0.30000000E+03</rscale>
<asrwt>  1 0.31067402E+02</asrwt>
<pdfrwt beam="1">  1        1 0.79382052E+00 0.30000000E+03</pdfrwt>
<pdfrwt beam="2">0</pdfrwt>
<totfact> 0.11776740E-03</totfact>
</mgrwt>
<clustering>
<clus scale="   31.067">  1  6  2 -1</clus>
<clus scale="  457.864">  4  5 -1 -1</clus>
<clus scale="  300.000">  1  4  2 -1</clus>
</clustering>
</event>
<event>
 6    1  0.1000035E-011  0.3000000E+03  0.7818608E-02  0.1093470E+00
          1   -1    0    0  502    0  0.00000000000E+00  0.00000000000E+00  0.22970036302E+03  0.22970036302E+03  0.00000000000E+00 0.  1.
         13   -1    0    0    0    0 -0.00000000000E+00 -0.00000000000E+00 -0.27500000000E+03  0.27500000000E+03  0.00000000000E+00 0.  1.
    9000005    2    1    2  501    0 -0.11927228515E+02  0.27559307785E+02 -0.50313575923E+02  0.47425510379E+03  0.47062158187E+03 0.  0.
         13    1    3    3    0    0 -0.70394484975E+02 -0.27247775657E+02  0.19875781896E+03  0.21260878484E+03  0.00000000000E+00 0.  1.
          1    1    3    3  501    0  0.58467256460E+02  0.54807083441E+02 -0.24907139488E+03  0.26164631895E+03  0.00000000000E+00 0.  1.
         21    1    1    2  502  501  0.11927228515E+02 -0.27559307785E+02  0.50139389397E+01  0.30445259225E+02  0.00000000000E+00 0.  1.
<scales pt_clust_4="550.00000" pt_clust_5="550.00000" pt_clust_6="30.02956"></scales>
<mgrwt>
<rscale>  0 0.30000000E+03</rscale>
<asrwt>  1 0.30029556E+02</asrwt>
<pdfrwt beam="1">  1        1 0.83527405E+00 0.30000000E+03</pdfrwt>
<pdfrwt beam="2">0</pdfrwt>
<totfact> 0.55438870E-04</totfact>
</mgrwt>
<clustering>
<clus scale="   30.030">  1  6  2 -1</clus>
<clus scale="  470.622">  4  5 -1 -1</clus>
<clus scale="  300.000">  1  4  2 -1</clus>
</clustering>
</event>
<event>
 6    1  0.1000035E-011  0.3000000E+03  0.7818608E-02  0.1093470E+00
          1   -1    0    0  502    0  0.00000000000E+00  0.00000000000E+00  0.22615886342E+03  0.22615886342E+03  0.00000000000E+00 0.  1.
         13   -1    0    0    0    0 -0.00000000000E+00 -0.00000000000E+00 -0.27500000000E+03  0.27500000000E+03  0.00000000000E+00 0.  1.
    9000005    2    1    2  501    0  0.19819000595E+02  0.32926429179E+02 -0.54860637300E+02  0.46225928872E+03  0.45738060514E+03 0.  0.
         13    1    3    3    0    0 -0.34398517141E+01 -0.20927192189E+03 -0.63721887319E+02  0.21878539438E+03  0.00000000000E+00 0.  1.
          1    1    3    3  501    0  0.23258852309E+02  0.24219835107E+03  0.88612500196E+01  0.24347389434E+03  0.00000000000E+00 0.  1.
         21    1    1    2  502  501 -0.19819000595E+02 -0.32926429179E+02  0.60195007216E+01  0.38899574702E+02  0.00000000000E+00 0.  1.
<scales pt_clust_4="550.00000" pt_clust_5="550.00000" pt_clust_6="38.43101"></scales>
<mgrwt>
<rscale>  0 0.30000000E+03</rscale>
<asrwt>  1 0.38431010E+02</asrwt>
<pdfrwt beam="1">  1        1 0.82239587E+00 0.30000000E+03</pdfrwt>
<pdfrwt beam="2">0</pdfrwt>
<totfact> 0.67722675E-04</totfact>
</mgrwt>
<clustering>
<clus scale="   38.431">  1  6  2 -1</clus>
<clus scale="  457.381">  4  5 -1 -1</clus>
<clus scale="  300.000">  1  4  2 -1</clus>
</clustering>
</event>
<event>
 6    1  0.1000035E-011  0.3000000E+03  0.7818608E-02  0.1093470E+00
          1   -1    0    0  502    0  0.00000000000E+00  0.00000000000E+00  0.25448808700E+03  0.25448808700E+03  0.00000000000E+00 0.  1.
         13   -1    0    0    0    0 -0.00000000000E+00 -0.00000000000E+00 -0.27500000000E+03  0.27500000000E+03  0.00000000000E+00 0.  1.
    9000005    2    1    2  501    0  0.40833615367E+02 -0.25143862907E+02 -0.50597179782E+02  0.47287782942E+03  0.46771120253E+03 0.  0.
         13    1    3    3    0    0  0.41812355431E+02 -0.22569441262E+03  0.68612464543E+02  0.23957026370E+03  0.00000000000E+00 0.  1.
          3    1    3    3  501    0 -0.97874006404E+00  0.20055054972E+03 -0.11920964432E+03  0.23330756572E+03  0.00000000000E+00 0.  1.
         21    1    1    2  502  501 -0.40833615367E+02  0.25143862907E+02  0.30085266781E+02  0.56610257578E+02  0.00000000000E+00 0.  1.
<scales pt_clust_4="550.00000" pt_clust_5="550.00000" pt_clust_6="47.95412"></scales>
<mgrwt>
<rscale>  0 0.30000000E+03</rscale>
<asrwt>  1 0.47954124E+02</asrwt>
<pdfrwt beam="1">  1        1 0.92541123E+00 0.30000000E+03</pdfrwt>
<pdfrwt beam="2">0</pdfrwt>
<totfact> 0.30371291E-05</totfact>
</mgrwt>
<clustering>
<clus scale="   47.954">  1  6  2 -1</clus>
<clus scale="  467.711">  4  5 -1 -1</clus>
<clus scale="  300.000">  1  4  2 -1</clus>
</clustering>
</event>
<event>
 6    1  0.1000035E-011  0.3000000E+03  0.7818608E-02  0.1093470E+00
          1   -1    0    0  502    0  0.00000000000E+00  0.00000000000E+00  0.22405409218E+03  0.22405409218E+03  0.00000000000E+00 0.  1.
         13   -1    0    0    0    0 -0.00000000000E+00 -0.00000000000E+00 -0.27500000000E+03  0.27500000000E+03  0.00000000000E+00 0.  1.
    9000005    2    1    2  501    0 -0.93767907141E+01 -0.33093988925E+02 -0.54826455544E+02  0.46443913937E+03  0.45990720547E+03 0.  0.
         13    1    3    3    0    0 -0.22792108839E+03 -0.11209159221E+02 -0.83382359967E+02  0.24295325834E+03  0.00000000000E+00 0.  1.
          3    1    3    3  501    0  0.21854429768E+03 -0.21884829704E+02  0.28555904423E+02  0.22148588103E+03  0.00000000000E+00 0.  1.
         21    1    1    2  502  501  0.93767907141E+01  0.33093988925E+02  0.38805477205E+01  0.34614952805E+02  0.00000000000E+00 0.  1.
<scales pt_clust_4="550.00000" pt_clust_5="550.00000" pt_clust_6="34.39675"></scales>
<mgrwt>
<rscale>  0 0.30000000E+03</rscale>
<asrwt>  1 0.34396748E+02</asrwt>
<pdfrwt beam="1">  1        1 0.81474215E+00 0.30000000E+03</pdfrwt>
<pdfrwt beam="2">0</pdfrwt>
<totfact> 0.80247713E-04</totfact>
</mgrwt>
<clustering>
<clus scale="   34.397">  1  6  2 -1</clus>
<clus scale="  459.907">  4  5 -1 -1</clus>
<clus scale="  300.000">  1  4  2 -1</clus>
</clustering>
</event>
<event>
 6    1  0.1000035E-011  0.3000000E+03  0.7818608E-02  0.1093470E+00
          1   -1    0    0  502    0  0.00000000000E+00  0.00000000000E+00  0.23981295117E+03  0.23981295117E+03  0.00000000000E+00 0.  1.
         13   -1    0    0    0    0 -0.00000000000E+00 -0.00000000000E+00 -0.27500000000E+03  0.27500000000E+03  0.00000000000E+00 0.  1.
    9000005    2    1    2  501    0 -0.72455976961E+01  0.29207693720E+02 -0.64465502957E+02  0.47282704955E+03  0.46744414603E+03 0.  0.
         13    1    3    3    0    0  0.99960732897E+01  0.19893250286E+03 -0.17863308643E+03  0.26755156838E+03  0.00000000000E+00 0.  1.
          1    1    3    3  501    0 -0.17241670986E+02 -0.16972480914E+03  0.11416758347E+03  0.20527548117E+03  0.00000000000E+00 0.  1.
         21    1    1    2  502  501  0.72455976961E+01 -0.29207693720E+02  0.29278454128E+02  0.41985901616E+02  0.00000000000E+00 0.  1.
<scales pt_clust_4="550.00000" pt_clust_5="550.00000" pt_clust_6="30.09299"></scales>
<mgrwt>
<rscale>  0 0.30000000E+03</rscale>
<asrwt>  1 0.30092990E+02</asrwt>
<pdfrwt beam="1">  1        1 0.87204710E+00 0.30000000E+03</pdfrwt>
<pdfrwt beam="2">0</pdfrwt>
<totfact> 0.24836689E-04</totfact>
</mgrwt>
<clustering>
<clus scale="   30.093">  1  6  2 -1</clus>
<clus scale="  467.444">  4  5 -1 -1</clus>
<clus scale="  300.000">  1  4  2 -1</clus>
</clustering>
</event>
<event>
 6    1  0.1000035E-011  0.3000000E+03  0.7818608E-02  0.1093470E+00
          1   -1    0    0  502    0  0.00000000000E+00  0.00000000000E+00  0.24616127799E+03  0.24616127799E+03  0.00000000000E+00 0.  1.
         13   -1    0    0    0    0 -0.00000000000E+00 -0.00000000000E+00 -0.27500000000E+03  0.27500000000E+03  0.00000000000E+00 0.  1.
    9000005    2    1    2  501    0  0.30297686239E+02  0.23822786963E+02 -0.34866530124E+02  0.48215090192E+03  0.47934157167E+03 0.  0.
         13    1    3    3    0    0 -0.12550851992E+02  0.34691871589E+02  0.22020658292E+03  0.22327558980E+03  0.00000000000E+00 0.  1.
          3    1    3    3  501    0  0.42848538231E+02 -0.10869084626E+02 -0.25507311304E+03  0.25887531212E+03  0.00000000000E+00 0.  1.
         21    1    1    2  502  501 -0.30297686239E+02 -0.23822786963E+02  0.60278081130E+01  0.39010376065E+02  0.00000000000E+00 0.  1.
<scales pt_clust_4="550.00000" pt_clust_5="550.00000" pt_clust_6="38.54186"></scales>
<mgrwt>
<rscale>  0 0.30000000E+03</rscale>
<asrwt>  1 0.38541860E+02</asrwt>
<pdfrwt beam="1">  1        1 0.89513192E+00 0.30000000E+03</pdfrwt>
<pdfrwt beam="2">0</pdfrwt>
<totfact> 0.12343773E-04</totfact>
</mgrwt>
<clustering>
<clus scale="   38.542">  1  6  2 -1</clus>
<clus scale="  479.342">  4  5 -1 -1</clus>
<clus scale="  300.000">  1  4  2 -1</clus>
</clustering>
</event>
<event>
 6    1  0.1000035E-011  0.3000000E+03  0.7818608E-02  0.1093470E+00
          1   -1    0    0  502    0  0.00000000000E+00  0.00000000000E+00  0.23266860986E+03  0.23266860986E+03  0.00000000000E+00 0.  1.
         13   -1    0    0    0    0 -0.00000000000E+00 -0.00000000000E+00 -0.27500000000E+03  0.27500000000E+03  0.00000000000E+00 0.  1.
    9000005    2    1    2  501    0 -0.20152526722E+02 -0.27747434884E+02 -0.29928127552E+02  0.47120101605E+03  0.46899750557E+03 0.  0.
         13    1    3    3    0    0  0.14834458825E+03  0.15928954970E+03  0.15417942221E+00  0.21766786920E+03  0.00000000000E+00 0.  1.
          3    1    3    3  501    0 -0.16849711498E+03 -0.18703698459E+03 -0.30082306974E+02  0.25353314685E+03  0.00000000000E+00 0.  1.
         21    1    1    2  502  501  0.20152526722E+02  0.27747434884E+02 -0.12403262586E+02  0.36467593816E+02  0.00000000000E+00 0. -1.
<scales pt_clust_4="550.00000" pt_clust_5="550.00000" pt_clust_6="34.29352"></scales>
<mgrwt>
<rscale>  0 0.30000000E+03</rscale>
<asrwt>  1 0.34293522E+02</asrwt>
<pdfrwt beam="1">  1        1 0.84606767E+00 0.30000000E+03</pdfrwt>
<pdfrwt beam="2">0</pdfrwt>
<totfact> 0.44383017E-04</totfact>
</mgrwt>
<clustering>
<clus scale="   34.294">  1  6  2 -1</clus>
<clus scale="  468.998">  4  5 -1 -1</clus>
<clus scale="  300.000">  1  4  2 -1</clus>
</clustering>
</event>
<event>
 6    1  0.1000035E-011  0.3000000E+03  0.7818608E-02  0.1093470E+00
          1   -1    0    0  502    0  0.00000000000E+00  0.00000000000E+00  0.23611682774E+03  0.23611682774E+03  0.00000000000E+00 0.  1.
         13   -1    0    0    0    0 -0.00000000000E+00 -0.00000000000E+00 -0.27500000000E+03  0.27500000000E+03  0.00000000000E+00 0.  1.
    9000005    2    1    2  501    0 -0.30553141710E+02  0.73213796331E+01 -0.67496174838E+02  0.46862211060E+03  0.46267034902E+03 0.  0.
         13    1    3    3    0    0 -0.19004866555E+03  0.11527249311E+03  0.68800172063E+02  0.23267940738E+03  0.00000000000E+00 0.  1.
          1    1    3    3  501    0  0.15949552384E+03 -0.10795111348E+03 -0.13629634690E+03  0.23594270322E+03  0.00000000000E+00 0.  1.
         21    1    1    2  502  501  0.30553141710E+02 -0.73213796331E+01  0.28613002576E+02  0.42494717136E+02  0.00000000000E+00 0.  1.
<scales pt_clust_4="550.00000" pt_clust_5="550.00000" pt_clust_6="31.41810"></scales>
<mgrwt>
<rscale>  0 0.30000000E+03</rscale>
<asrwt>  1 0.31418101E+02</asrwt>
<pdfrwt beam="1">  1        1 0.85860665E+00 0.30000000E+03</pdfrwt>
<pdfrwt beam="2">0</pdfrwt>
<totfact> 0.34154335E-04</totfact>
</mgrwt>
<clustering>
<clus scale="   31.418">  1  6  2 -1</clus>
<clus scale="  462.670">  4  5 -1 -1</clus>
<clus scale="  300.000">  1  4  2 -1</clus>
</clustering>
</event>
<event>
 6    1  0.1000035E-011  0.3000000E+03  0.7818608E-02  0.1093470E+00
          1   -1    0    0  502    0  0.00000000000E+00  0.00000000000E+00  0.23264619972E+03  0.23264619972E+03  0.00000000000E+00 0.  1.
         13   -1    0    0    0    0 -0.00000000000E+00 -0.00000000000E+00 -0.27500000000E+03  0.27500000000E+03  0.00000000000E+00 0.  1.
    9000005    2    1    2  501    0 -0.35522172756E+02 -0.47022634647E+00 -0.46278053981E+02  0.47190482821E+03  0.46828459588E+03 0.  0.
         13    1    3    3    0    0 -0.23053216096E+03  0.30207021004E+02 -0.11942483027E+03  0.26138062560E+03  0.00000000000E+00 0.  1.
          1    1    3    3  501    0  0.19500998820E+03 -0.30677247350E+02  0.73146776288E+02  0.21052420261E+03  0.00000000000E+00 0.  1.
         21    1    1    2  502  501  0.35522172756E+02  0.47022634647E+00  0.39242536973E+01  0.35741371507E+02  0.00000000000E+00 0. -1.
<scales pt_clust_4="550.00000" pt_clust_5="550.00000" pt_clust_6="35.52528"></scales>
<mgrwt>
<rscale>  0 0.30000000E+03</rscale>
<asrwt>  1 0.35525285E+02</asrwt>
<pdfrwt beam="1">  1        1 0.84598618E+00 0.30000000E+03</pdfrwt>
<pdfrwt beam="2">0</pdfrwt>
<totfact> 0.44164498E-04</totfact>
</mgrwt>
<clustering>
<clus scale="   35.525">  1  6  2 -1</clus>
<clus scale="  468.285">  4  5 -1 -1</clus>
<clus scale="  300.000">  1  4  2 -1</clus>
</clustering>
</event>
<event>
 6    1  0.1000035E-011  0.3000000E+03  0.7818608E-02  0.1093470E+00
          1   -1    0    0  502    0  0.00000000000E+00  0.00000000000E+00  0.23637066696E+03  0.23637066696E+03  0.00000000000E+00 0.  1.
         13   -1    0    0    0    0 -0.00000000000E+00 -0.00000000000E+00 -0.27500000000E+03  0.27500000000E+03  0.00000000000E+00 0.  1.
    9000005    2    1    2  501    0  0.32754374737E+02  0.14142502892E+02 -0.60046500963E+02  0.46975871514E+03  0.46453719842E+03 0.  0.
         13    1    3    3    0    0  0.11400743656E+03  0.13053393359E+03  0.14115787821E+03  0.22352259392E+03  0.00000000000E+00 0.  1.
          1    1    3    3  501    0 -0.81253061823E+02 -0.11639143070E+03 -0.20120437917E+03  0.24623612122E+03  0.00000000000E+00 0.  1.
         21    1    1    2  502  501 -0.32754374737E+02 -0.14142502892E+02  0.21417167923E+02  0.41611951821E+02  0.00000000000E+00 0.  1.
<scales pt_clust_4="550.00000" pt_clust_5="550.00000" pt_clust_6="35.67716"></scales>
<mgrwt>
<rscale>  0 0.30000000E+03</rscale>
<asrwt>  1 0.35677156E+02</asrwt>
<pdfrwt beam="1">  1        1 0.85952970E+00 0.30000000E+03</pdfrwt>
<pdfrwt beam="2">0</pdfrwt>
<totfact> 0.32604573E-04</totfact>
</mgrwt>
<clustering>
<clus scale="   35.677">  1  6  2 -1</clus>
<clus scale="  464.537">  4  5 -1 -1</clus>
<clus scale="  300.000">  1  4  2 -1</clus>
</clustering>
</event>
<event>
 6    1  0.1000035E-011  0.3000000E+03  0.7818608E-02  0.1093470E+00
          1   -1    0    0  502    0  0.00000000000E+00  0.00000000000E+00  0.23591294229E+03  0.23591294229E+03  0.00000000000E+00 0.  1.
         13   -1    0    0    0    0 -0.00000000000E+00 -0.00000000000E+00 -0.27500000000E+03  0.27500000000E+03  0.00000000000E+00 0.  1.
    9000005    2    1    2  501    0 -0.32198087409E+02  0.15456367913E+02 -0.41870718640E+02  0.47508885947E+03  0.47189050761E+03 0.  0.
         13    1    3    3    0    0 -0.64064603135E+02  0.18760166027E+03 -0.16756455887E+03  0.25956990908E+03  0.00000000000E+00 0.  1.
          1    1    3    3  501    0  0.31866515726E+02 -0.17214529236E+03  0.12569384023E+03  0.21551895039E+03  0.00000000000E+00 0.  1.
         21    1    1    2  502  501  0.32198087409E+02 -0.15456367913E+02  0.27836609327E+01  0.35824082822E+02  0.00000000000E+00 0.  1.
<scales pt_clust_4="550.00000" pt_clust_5="550.00000" pt_clust_6="35.71577"></scales>
<mgrwt>
<rscale>  0 0.30000000E+03</rscale>
<asrwt>  1 0.35715769E+02</asrwt>
<pdfrwt beam="1">  1        1 0.85786524E+00 0.30000000E+03</pdfrwt>
<pdfrwt beam="2">0</pdfrwt>
<totfact> 0.33939396E-04</totfact>
</mgrwt>
<clustering>
<clus scale="   35.716">  1  6  2 -1</clus>
<clus scale="  471.891">  4  5 -1 -1</clus>
<clus scale="  300.000">  1  4  2 -1</clus>
</clustering>
</event>
<event>
 6    1  0.1000035E-011  0.3000000E+03  0.7818608E-02  0.1093470E+00
          1   -1    0    0  502    0  0.00000000000E+00  0.00000000000E+00  0.22170155929E+03  0.22170155929E+03  0.00000000000E+00 0.  1.
         13   -1    0    0    0    0 -0.00000000000E+00 -0.00000000000E+00 -0.27500000000E+03  0.27500000000E+03  0.00000000000E+00 0.  1.
    9000005    2    1    2  501    0 -0.27875286398E+02  0.11106222966E+02 -0.39560200774E+02  0.46369975605E+03  0.46103370212E+03 0.  0.
         13    1    3    3    0    0 -0.16782798089E+03 -0.15588116313E+03 -0.78971609802E+02  0.24228430272E+03  0.00000000000E+00 0.  1.
          3    1    3    3  501    0  0.13995269449E+03  0.16698738610E+03  0.39411409028E+02  0.22141545333E+03  0.00000000000E+00 0.  1.
         21    1    1    2  502  501  0.27875286398E+02 -0.11106222966E+02 -0.13738239941E+02  0.33001803239E+02  0.00000000000E+00 0. -1.
<scales pt_clust_4="550.00000" pt_clust_5="550.00000" pt_clust_6="30.00634"></scales>
<mgrwt>
<rscale>  0 0.30000000E+03</rscale>
<asrwt>  1 0.30006344E+02</asrwt>
<pdfrwt beam="1">  1        1 0.80618749E+00 0.30000000E+03</pdfrwt>
<pdfrwt beam="2">0</pdfrwt>
<totfact> 0.96095933E-04</totfact>
</mgrwt>
<clustering>
<clus scale="   30.006">  1  6  2 -1</clus>
<clus scale="  461.034">  4  5 -1 -1</clus>
<clus scale="  300.000">  1  4  2 -1</clus>
</clustering>
</event>
<event>
 6    1  0.1000035E-011  0.3000000E+03  0.7818608E-02  0.1093470E+00
          1   -1    0    0  502    0  0.00000000000E+00  0.00000000000E+00  0.22342216909E+03  0.22342216909E+03  0.00000000000E+00 0.  1.
         13   -1    0    0    0    0 -0.00000000000E+00 -0.00000000000E+00 -0.27500000000E+03  0.27500000000E+03  0.00000000000E+00 0.  1.
    9000005    2    1    2  501    0  0.87726509457E+01  0.35106319592E+02 -0.56050088640E+02  0.46196103678E+03  0.45711811820E+03 0.  0.
         13    1    3    3    0    0 -0.19841953763E+03 -0.87119062373E+02 -0.43851447014E+02  0.22109498716E+03  0.00000000000E+00 0.  1.
          3    1    3    3  501    0  0.20719218857E+03  0.12222538197E+03 -0.12198641626E+02  0.24086604962E+03  0.00000000000E+00 0.  1.
         21    1    1    2  502  501 -0.87726509457E+01 -0.35106319592E+02  0.44722577251E+01  0.36461132306E+02  0.00000000000E+00 0. -1.
<scales pt_clust_4="550.00000" pt_clust_5="550.00000" pt_clust_6="36.18581"></scales>
<mgrwt>
<rscale>  0 0.30000000E+03</rscale>
<asrwt>  1 0.36185813E+02</asrwt>
<pdfrwt beam="1">  1        1 0.81244425E+00 0.30000000E+03</pdfrwt>
<pdfrwt beam="2">0</pdfrwt>
<totfact> 0.82924759E-04</totfact>
</mgrwt>
<clustering>
<clus scale="   36.186">  1  6  2 -1</clus>
<clus scale="  457.118">  4  5 -1 -1</clus>
<clus scale="  300.000">  1  4  2 -1</clus>
</clustering>
</event>
<event>
 6    1  0.1000035E-011  0.3000000E+03  0.7818608E-02  0.1093470E+00
          1   -1    0    0  502    0  0.00000000000E+00  0.00000000000E+00  0.23051852416E+03  0.23051852416E+03  0.00000000000E+00 0.  1.
         13   -1    0    0    0    0 -0.00000000000E+00 -0.00000000000E+00 -0.27500000000E+03  0.27500000000E+03  0.00000000000E+00 0.  1.
    9000005    2    1    2  501    0  0.30154597088E+02  0.11678423001E+00 -0.47226219362E+02  0.47523904297E+03  0.47192427232E+03 0.  0.
         13    1    3    3    0    0  0.14145327158E+03  0.14657533412E+03  0.11154953106E+03  0.23224266295E+03  0.00000000000E+00 0.  1.
          1    1    3    3  501    0 -0.11129867450E+03 -0.14645854989E+03 -0.15877575042E+03  0.24299638002E+03  0.00000000000E+00 0.  1.
         21    1    1    2  502  501 -0.30154597088E+02 -0.11678423001E+00  0.27447435257E+01  0.30279481190E+02  0.00000000000E+00 0.  1.
<scales pt_clust_4="550.00000" pt_clust_5="550.00000" pt_clust_6="30.15482"></scales>
<mgrwt>
<rscale>  0 0.30000000E+03</rscale>
<asrwt>  1 0.30154823E+02</asrwt>
<pdfrwt beam="1">  1        1 0.83824918E+00 0.30000000E+03</pdfrwt>
<pdfrwt beam="2">0</pdfrwt>
<totfact> 0.52699156E-04</totfact>
</mgrwt>
<clustering>
<clus scale="   30.155">  1  6  2 -1</clus>
<clus scale="  471.924">  4  5 -1 -1</clus>
<clus scale="  300.000">  1  4  2 -1</clus>
</clustering>
</event>
<event>
 6    1  0.1000035E-011  0.3000000E+03  0.7818608E-02  0.1093470E+00
          1   -1    0    0  502    0  0.00000000000E+00  0.00000000000E+00  0.23874837771E+03  0.23874837771E+03  0.00000000000E+00 0.  1.
         13   -1    0    0    0    0 -0.00000000000E+00 -0.00000000000E+00 -0.27500000000E+03  0.27500000000E+03  0.00000000000E+00 0.  1.
    9000005    2    1    2  501    0  0.30867380599E+02 -0.11368059152E+02 -0.52554094914E+02  0.47703600149E+03  0.47298983696E+03 0.  0.
         13    1    3    3    0    0  0.26299421149E+02  0.15261697948E+03  0.15053070043E+03  0.21597012236E+03  0.00000000000E+00 0.  1.
          3    1    3    3  501    0  0.45679594495E+01 -0.16398503863E+03 -0.20308479534E+03  0.26106587913E+03  0.00000000000E+00 0.  1.
         21    1    1    2  502  501 -0.30867380599E+02  0.11368059152E+02  0.16302472619E+02  0.36712376216E+02  0.00000000000E+00 0.  1.
<scales pt_clust_4="550.00000" pt_clust_5="550.00000" pt_clust_6="32.89419"></scales>
<mgrwt>
<rscale>  0 0.30000000E+03</rscale>
<asrwt>  1 0.32894193E+02</asrwt>
<pdfrwt beam="1">  1        1 0.86817592E+00 0.30000000E+03</pdfrwt>
<pdfrwt beam="2">0</pdfrwt>
<totfact> 0.26753890E-04</totfact>
</mgrwt>
<clustering>
<clus scale="   32.894">  1  6  2 -1</clus>
<clus scale="  472.990">  4  5 -1 -1</clus>
<clus scale="  300.000">  1  4  2 -1</clus>
</clustering>
</event>
<event>
 6    1  0.1000035E-011  0.3000000E+03  0.7818608E-02  0.1093470E+00
          1   -1    0    0  502    0  0.00000000000E+00  0.00000000000E+00  0.24695584619E+03  0.24695584619E+03  0.00000000000E+00 0.  1.
         13   -1    0    0    0    0 -0.00000000000E+00 -0.00000000000E+00 -0.27500000000E+03  0.27500000000E+03  0.00000000000E+00 0.  1.
    9000005    2    1    2  501    0 -0.40081014488E+02 -0.11309113593E+02 -0.21027891167E+02  0.47972301875E+03  0.47744907450E+03 0.  0.
         13    1    3    3    0    0 -0.16577934965E+03  0.12622340323E+03 -0.14683743500E+03  0.25490463435E+03  0.00000000000E+00 0.  1.
          3    1    3    3  501    0  0.12569833517E+03 -0.13753251682E+03  0.12580954383E+03  0.22481838440E+03  0.00000000000E+00 0.  1.
         21    1    1    2  502  501  0.40081014488E+02  0.11309113593E+02 -0.70162626381E+01  0.42232827446E+02  0.00000000000E+00 0.  1.
<scales pt_clust_4="550.00000" pt_clust_5="550.00000" pt_clust_6="41.64595"></scales>
<mgrwt>
<rscale>  0 0.30000000E+03</rscale>
<asrwt>  1 0.41645954E+02</asrwt>
<pdfrwt beam="1">  1        1 0.89802126E+00 0.30000000E+03</pdfrwt>
<pdfrwt beam="2">0</pdfrwt>
<totfact> 0.11294911E-04</totfact>
</mgrwt>
<clustering>
<clus scale="   41.646">  1  6  2 -1</clus>
<clus scale="  477.449">  4  5 -1 -1</clus>
<clus scale="  300.000">  1  4  2 -1</clus>
</clustering>
</event>
<event>
 6    1  0.1000035E-011  0.3000000E+03  0.7818608E-02  0.1093470E+00
          1   -1    0    0  502    0  0.00000000000E+00  0.00000000000E+00  0.23701717279E+03  0.23701717279E+03  0.00000000000E+00 0.  1.
         13   -1    0    0    0    0 -0.00000000000E+00 -0.00000000000E+00 -0.27500000000E+03  0.27500000000E+03  0.00000000000E+00 0.  1.
    9000005    2    1    2  501    0 -0.25675171455E+02 -0.27457814012E+02 -0.62289910041E+02  0.46725133475E+03  0.46155241409E+03 0.  0.
         13    1    3    3    0    0 -0.14473969859E+03  0.22970244297E+02  0.15568465713E+03  0.21381048836E+03  0.00000000000E+00 0.  1.
          1    1    3    3  501    0  0.11906452713E+03 -0.50428058309E+02 -0.21797456717E+03  0.25344084639E+03  0.00000000000E+00 0.  1.
         21    1    1    2  502  501  0.25675171455E+02  0.27457814012E+02  0.24307082827E+02  0.44765838036E+02  0.00000000000E+00 0.  1.
<scales pt_clust_4="550.00000" pt_clust_5="550.00000" pt_clust_6="37.59183"></scales>
<mgrwt>
<rscale>  0 0.30000000E+03</rscale>
<asrwt>  1 0.37591834E+02</asrwt>
<pdfrwt beam="1">  1        1 0.86188063E+00 0.30000000E+03</pdfrwt>
<pdfrwt beam="2">0</pdfrwt>
<totfact> 0.30469053E-04</totfact>
</mgrwt>
<clustering>
<clus scale="   37.592">  1  6  2 -1</clus>
<clus scale="  461.552">  4  5 -1 -1</clus>
<clus scale="  300.000">  1  4  2 -1</clus>
</clustering>
</event>
<event>
 6    1  0.1000035E-011  0.3000000E+03  0.7818608E-02  0.1093470E+00
          1   -1    0    0  502    0  0.00000000000E+00  0.00000000000E+00  0.25017265846E+03  0.25017265846E+03  0.00000000000E+00 0.  1.
         13   -1    0    0    0    0 -0.00000000000E+00 -0.00000000000E+00 -0.27500000000E+03  0.27500000000E+03  0.00000000000E+00 0.  1.
    9000005    2    1    2  501    0 -0.16065222743E+02  0.34071942275E+02 -0.26135755027E+02  0.48748047653E+03  0.48531963558E+03 0.  0.
         13    1    3    3    0    0  0.16733511026E+03  0.86558834745E+02  0.13983620094E+03  0.23462232224E+03  0.00000000000E+00 0.  1.
          3    1    3    3  501    0 -0.18340033301E+03 -0.52486892470E+02 -0.16597195597E+03  0.25285815430E+03  0.00000000000E+00 0.  1.
         21    1    1    2  502  501  0.16065222743E+02 -0.34071942275E+02  0.13084134828E+01  0.37692181922E+02  0.00000000000E+00 0.  1.
<scales pt_clust_4="550.00000" pt_clust_5="550.00000" pt_clust_6="37.66947"></scales>
<mgrwt>
<rscale>  0 0.30000000E+03</rscale>
<asrwt>  1 0.37669466E+02</asrwt>
<pdfrwt beam="1">  1        1 0.90971876E+00 0.30000000E+03</pdfrwt>
<pdfrwt beam="2">0</pdfrwt>
<totfact> 0.72003909E-05</totfact>
</mgrwt>
<clustering>
<clus scale="   37.669">  1  6  2 -1</clus>
<clus scale="  485.320">  4  5 -1 -1</clus>
<clus scale="  300.000">  1  4  2 -1</clus>
</clustering>
</event>
<event>
 6    1  0.1000035E-011  0.3000000E+03  0.7818608E-02  0.1093470E+00
          1   -1    0    0  502    0  0.00000000000E+00  0.00000000000E+00  0.25335338382E+03  0.25335338382E+03  0.00000000000E+00 0.  1.
         13   -1    0    0    0    0 -0.00000000000E+00 -0.00000000000E+00 -0.27500000000E+03  0.27500000000E+03  0.00000000000E+00 0.  1.
    9000005    2    1    2  501    0 -0.10100434322E+02 -0.45208601760E+02 -0.56878811351E+02  0.47015420837E+03  0.46439632214E+03 0.  0.
         13    1    3    3    0    0  0.20500947238E+03 -0.12075221664E+03 -0.15434328535E+02  0.23842860585E+03  0.00000000000E+00 0.  1.
          1    1    3    3  501    0 -0.21510990670E+03  0.75543614881E+02 -0.41444482816E+02  0.23172560253E+03  0.00000000000E+00 0.  1.
         21    1    1    2  502  501  0.10100434322E+02  0.45208601760E+02  0.35232195174E+02  0.58199175452E+02  0.00000000000E+00 0. -1.
<scales pt_clust_4="550.00000" pt_clust_5="550.00000" pt_clust_6="46.32317"></scales>
<mgrwt>
<rscale>  0 0.30000000E+03</rscale>
<asrwt>  1 0.46323174E+02</asrwt>
<pdfrwt beam="1">  1        1 0.92128503E+00 0.30000000E+03</pdfrwt>
<pdfrwt beam="2">0</pdfrwt>
<totfact> 0.37267755E-05</totfact>
</mgrwt>
<clustering>
<clus scale="   46.323">  1  6  2 -1</clus>
<clus scale="  464.396">  4  5 -1 -1</clus>
<clus scale="  300.000">  1  4  2 -1</clus>
</clustering>
</event>
<event>
 6    1  0.1000035E-011  0.3000000E+03  0.7818608E-02  0.1093470E+00
          1   -1    0    0  502    0  0.00000000000E+00  0.00000000000E+00  0.24647716991E+03  0.24647716991E+03  0.00000000000E+00 0.  1.
         13   -1    0    0    0    0 -0.00000000000E+00 -0.00000000000E+00 -0.27500000000E+03  0.27500000000E+03  0.00000000000E+00 0.  1.
    9000005    2    1    2  501    0 -0.23135079047E+02 -0.19961934462E+02 -0.43563184731E+02  0.48741952793E+03  0.48450627904E+03 0.  0.
         13    1    3    3    0    0 -0.19476081354E+03  0.45018924343E+02  0.12704333794E+03  0.23685119327E+03  0.00000000000E+00 0.  1.
          3    1    3    3  501    0  0.17162573449E+03 -0.64980858805E+02 -0.17060652267E+03  0.25056833465E+03  0.00000000000E+00 0.  1.
         21    1    1    2  502  501  0.23135079047E+02  0.19961934462E+02  0.15040354646E+02  0.34057641989E+02  0.00000000000E+00 0. -1.
<scales pt_clust_4="550.00000" pt_clust_5="550.00000" pt_clust_6="30.55668"></scales>
<mgrwt>
<rscale>  0 0.30000000E+03</rscale>
<asrwt>  1 0.30556680E+02</asrwt>
<pdfrwt beam="1">  1        1 0.89628062E+00 0.30000000E+03</pdfrwt>
<pdfrwt beam="2">0</pdfrwt>
<totfact> 0.12518841E-04</totfact>
</mgrwt>
<clustering>
<clus scale="   30.557">  1  6  2 -1</clus>
<clus scale="  484.506">  4  5 -1 -1</clus>
<clus scale="  300.000">  1  4  2 -1</clus>
</clustering>
</event>
<event>
 6    1  0.1000035E-011  0.3000000E+03  0.7818608E-02  0.1093470E+00
          1   -1    0    0  502    0  0.00000000000E+00  0.00000000000E+00  0.24554708727E+03  0.24554708727E+03  0.00000000000E+00 0.  1.
         13   -1    0    0    0    0 -0.00000000000E+00 -0.00000000000E+00 -0.27500000000E+03  0.27500000000E+03  0.00000000000E+00 0.  1.
    9000005    2    1    2  501    0  0.28858623292E+02 -0.45244669743E+02 -0.39031564076E+02  0.46603423704E+03  0.46128575398E+03 0.  0.
         13    1    3    3    0    0 -0.33253902470E+02 -0.15800033876E+03  0.16109321253E+03  0.22808102113E+03  0.00000000000E+00 0.  1.
          1    1    3    3  501    0  0.62112525762E+02  0.11275566902E+03 -0.20012477660E+03  0.23795321591E+03  0.00000000000E+00 0.  1.
         21    1    1    2  502  501 -0.28858623292E+02  0.45244669743E+02  0.95786513444E+01  0.54512850229E+02  0.00000000000E+00 0. -1.
<scales pt_clust_4="550.00000" pt_clust_5="550.00000" pt_clust_6="53.66470"></scales>
<mgrwt>
<rscale>  0 0.30000000E+03</rscale>
<asrwt>  1 0.53664702E+02</asrwt>
<pdfrwt beam="1">  1        1 0.89289850E+00 0.30000000E+03</pdfrwt>
<pdfrwt beam="2">0</pdfrwt>
<totfact> 0.12342615E-04</totfact>
</mgrwt>
<clustering>
<clus scale="   53.665">  1  6  2 -1</clus>
<clus scale="  461.286">  4  5 -1 -1</clus>
<clus scale="  300.000">  1  4  2 -1</clus>
</clustering>
</event>
<event>
 6    1  0.1000035E-011  0.3000000E+03  0.7818608E-02  0.1093470E+00
          1   -1    0    0  502    0  0.00000000000E+00  0.00000000000E+00  0.23004621082E+03  0.23004621082E+03  0.00000000000E+00 0.  1.
         13   -1    0    0    0    0 -0.00000000000E+00 -0.00000000000E+00 -0.27500000000E+03  0.27500000000E+03  0.00000000000E+00 0.  1.
    9000005    2    1    2  501    0 -0.18341856609E+02  0.24183112089E+02 -0.59354017613E+02  0.47145137203E+03  0.46671431323E+03 0.  0.
         13    1    3    3    0    0 -0.18162552575E+03 -0.12839379255E+03 -0.10074207483E+03  0.24417568104E+03  0.00000000000E+00 0.  1.
          1    1    3    3  501    0  0.16328366914E+03  0.15257690464E+03  0.41388057219E+02  0.22727569099E+03  0.00000000000E+00 0.  1.
         21    1    1    2  502  501  0.18341856609E+02 -0.24183112089E+02  0.14400228430E+02  0.33594838785E+02  0.00000000000E+00 0.  1.
<scales pt_clust_4="550.00000" pt_clust_5="550.00000" pt_clust_6="30.35204"></scales>
<mgrwt>
<rscale>  0 0.30000000E+03</rscale>
<asrwt>  1 0.30352045E+02</asrwt>
<pdfrwt beam="1">  1        1 0.83653168E+00 0.30000000E+03</pdfrwt>
<pdfrwt beam="2">0</pdfrwt>
<totfact> 0.54173829E-04</totfact>
</mgrwt>
<clustering>
<clus scale="   30.352">  1  6  2 -1</clus>
<clus scale="  466.714">  4  5 -1 -1</clus>
<clus scale="  300.000">  1  4  2 -1</clus>
</clustering>
</event>
<event>
 6    1  0.1000035E-011  0.3000000E+03  0.7818608E-02  0.1093470E+00
          1   -1    0    0  502    0  0.00000000000E+00  0.00000000000E+00  0.24045130356E+03  0.24045130356E+03  0.00000000000E+00 0.  1.
         13   -1    0    0    0    0 -0.00000000000E+00 -0.00000000000E+00 -0.27500000000E+03  0.27500000000E+03  0.00000000000E+00 0.  1.
    9000005    2    1    2  501    0 -0.20930609713E+02 -0.49398295296E+02 -0.32108694441E+02  0.46174622362E+03  0.45749352429E+03 0.  0.
         13    1    3    3    0    0 -0.22551241941E+03 -0.53808035141E+02  0.56701243244E+02  0.23867590356E+03  0.00000000000E+00 0.  1.
          3    1    3    3  501    0  0.20458180969E+03  0.44097398453E+01 -0.88809937685E+02  0.22307032007E+03  0.00000000000E+00 0.  1.
         21    1    1    2  502  501  0.20930609713E+02  0.49398295296E+02 -0.24400019996E+01  0.53705079935E+02  0.00000000000E+00 0. -1.
<scales pt_clust_4="550.00000" pt_clust_5="550.00000" pt_clust_6="53.64962"></scales>
<mgrwt>
<rscale>  0 0.30000000E+03</rscale>
<asrwt>  1 0.53649623E+02</asrwt>
<pdfrwt beam="1">  1        1 0.87436838E+00 0.30000000E+03</pdfrwt>
<pdfrwt beam="2">0</pdfrwt>
<totfact> 0.21149890E-04</totfact>
</mgrwt>
<clustering>
<clus scale="   53.650">  1  6  2 -1</clus>
<clus scale="  457.494">  4  5 -1 -1</clus>
<clus scale="  300.000">  1  4  2 -1</clus>
</clustering>
</event>
<event>
 6    1  0.1000035E-011  0.3000000E+03  0.7818608E-02  0.1093470E+00
          1   -1    0    0  502    0  0.00000000000E+00  0.00000000000E+00  0.24881226908E+03  0.24881226908E+03  0.00000000000E+00 0.  1.
         13   -1    0    0    0    0 -0.00000000000E+00 -0.00000000000E+00 -0.27500000000E+03  0.27500000000E+03  0.00000000000E+00 0.  1.
    9000005    2    1    2  501    0  0.22444526532E+02  0.48168589517E+02 -0.48399794633E+02  0.46621586675E+03  0.46064164434E+03 0.  0.
         13    1    3    3    0    0  0.17730966653E+03 -0.36231493680E+02  0.12415997247E+03  0.21947012950E+03  0.00000000000E+00 0.  1.
          1    1    3    3  501    0 -0.15486513999E+03  0.84400083196E+02 -0.17255976710E+03  0.24674573725E+03  0.00000000000E+00 0.  1.
         21    1    1    2  502  501 -0.22444526532E+02 -0.48168589517E+02  0.22212063711E+02  0.57596402332E+02  0.00000000000E+00 0.  1.
<scales pt_clust_4="550.00000" pt_clust_5="550.00000" pt_clust_6="53.14104"></scales>
<mgrwt>
<rscale>  0 0.30000000E+03</rscale>
<asrwt>  1 0.53141037E+02</asrwt>
<pdfrwt beam="1">  1        1 0.90477189E+00 0.30000000E+03</pdfrwt>
<pdfrwt beam="2">0</pdfrwt>
<totfact> 0.86614611E-05</totfact>
</mgrwt>
<clustering>
<clus scale="   53.141">  1  6  2 -1</clus>
<clus scale="  460.642">  4  5 -1 -1</clus>
<clus scale="  300.000">  1  4  2 -1</clus>
</clustering>
</event>
<event>
 6    1  0.1000035E-011  0.3000000E+03  0.7818608E-02  0.1093470E+00
          1   -1    0    0  502    0  0.00000000000E+00  0.00000000000E+00  0.22045895776E+03  0.22045895776E+03  0.00000000000E+00 0.  1.
         13   -1    0    0    0    0 -0.00000000000E+00 -0.00000000000E+00 -0.27500000000E+03  0.27500000000E+03  0.00000000000E+00 0.  1.
    9000005    2    1    2  501    0 -0.12245253512E+02  0.28097137766E+02 -0.66734778680E+02  0.46247286080E+03  0.45660510390E+03 0.  0.
         13    1    3    3    0    0  0.45092408146E+02 -0.50800731431E+02  0.18255505459E+03  0.19478292416E+03  0.00000000000E+00 0.  1.
          3    1    3    3  501    0 -0.57337661658E+02  0.78897869197E+02 -0.24928983327E+03  0.26768993664E+03  0.00000000000E+00 0.  1.
         21    1    1    2  502  501  0.12245253512E+02 -0.28097137766E+02  0.12193736440E+02  0.32986096959E+02  0.00000000000E+00 0.  1.
<scales pt_clust_4="550.00000" pt_clust_5="550.00000" pt_clust_6="30.64956"></scales>
<mgrwt>
<rscale>  0 0.30000000E+03</rscale>
<asrwt>  1 0.30649558E+02</asrwt>
<pdfrwt beam="1">  1        1 0.80166894E+00 0.30000000E+03</pdfrwt>
<pdfrwt beam="2">0</pdfrwt>
<totfact> 0.10342209E-03</totfact>
</mgrwt>
<clustering>
<clus scale="   30.650">  1  6  2 -1</clus>
<clus scale="  456.605">  4  5 -1 -1</clus>
<clus scale="  300.000">  1  4  2 -1</clus>
</clustering>
</event>
<event>
 6    1  0.1000035E-011  0.3000000E+03  0.7818608E-02  0.1093470E+00
          1   -1    0    0  502    0  0.00000000000E+00  0.00000000000E+00  0.25310153669E+03  0.25310153669E+03  0.00000000000E+00 0.  1.
         13   -1    0    0    0    0 -0.00000000000E+00 -0.00000000000E+00 -0.27500000000E+03  0.27500000000E+03  0.00000000000E+00 0.  1.
    9000005    2    1    2  501    0 -0.43827069491E+02 -0.10517744504E+02 -0.53047422819E+02  0.47331383143E+03  0.46816719127E+03 0.  0.
         13    1    3    3    0    0 -0.19563824764E+03 -0.10371212753E+03  0.95716745940E+02  0.24123064646E+03  0.00000000000E+00 0.  1.
          1    1    3    3  501    0  0.15181117815E+03  0.93194383029E+02 -0.14876416876E+03  0.23208318497E+03  0.00000000000E+00 0.  1.
         21    1    1    2  502  501  0.43827069491E+02  0.10517744504E+02  0.31148959510E+02  0.54787705265E+02  0.00000000000E+00 0. -1.
<scales pt_clust_4="550.00000" pt_clust_5="550.00000" pt_clust_6="45.07144"></scales>
<mgrwt>
<rscale>  0 0.30000000E+03</rscale>
<asrwt>  1 0.45071443E+02</asrwt>
<pdfrwt beam="1">  1        1 0.92036922E+00 0.30000000E+03</pdfrwt>
<pdfrwt beam="2">0</pdfrwt>
<totfact> 0.39184201E-05</totfact>
</mgrwt>
<clustering>
<clus scale="   45.071">  1  6  2 -1</clus>
<clus scale="  468.167">  4  5 -1 -1</clus>
<clus scale="  300.000">  1  4  2 -1</clus>
</clustering>
</event>
<event>
 6    1  0.1000035E-011  0.3000000E+03  0.7818608E-02  0.1093470E+00
          1   -1    0    0  502    0  0.00000000000E+00  0.00000000000E+00  0.22002431240E+03  0.22002431240E+03  0.00000000000E+00 0.  1.
         13   -1    0    0    0    0 -0.00000000000E+00 -0.00000000000E+00 -0.27500000000E+03  0.27500000000E+03  0.00000000000E+00 0.  1.
    9000005    2    1    2  501    0  0.96939277344E+01 -0.29489103475E+02 -0.63528840460E+02  0.46282592917E+03  0.45739299042E+03 0.  0.
         13    1    3    3    0    0 -0.10092099354E+03  0.30432679733E+02 -0.23068029903E+03  0.25362293921E+03  0.00000000000E+00 0.  1.
          1    1    3    3  501    0  0.11061492127E+03 -0.59921783208E+02  0.16715145857E+03  0.20920298997E+03  0.00000000000E+00 0.  1.
         21    1    1    2  502  501 -0.96939277344E+01  0.29489103475E+02  0.85531528643E+01  0.32198383230E+02  0.00000000000E+00 0.  1.
<scales pt_clust_4="550.00000" pt_clust_5="550.00000" pt_clust_6="31.04158"></scales>
<mgrwt>
<rscale>  0 0.30000000E+03</rscale>
<asrwt>  1 0.31041576E+02</asrwt>
<pdfrwt beam="1">  1        1 0.80008841E+00 0.30000000E+03</pdfrwt>
<pdfrwt beam="2">0</pdfrwt>
<totfact> 0.10592757E-03</totfact>
</mgrwt>
<clustering>
<clus scale="   31.042">  1  6  2 -1</clus>
<clus scale="  457.393">  4  5 -1 -1</clus>
<clus scale="  300.000">  1  4  2 -1</clus>
</clustering>
</event>
<event>
 6    1  0.1000035E-011  0.3000000E+03  0.7818608E-02  0.1093470E+00
          1   -1    0    0  502    0  0.00000000000E+00  0.00000000000E+00  0.24193575005E+03  0.24193575005E+03  0.00000000000E+00 0.  1.
         13   -1    0    0    0    0 -0.00000000000E+00 -0.00000000000E+00 -0.27500000000E+03  0.27500000000E+03  0.00000000000E+00 0.  1.
    9000005    2    1    2  501    0  0.29500678009E+02  0.16516812259E+02 -0.71961351260E+02  0.46539858307E+03  0.45855676852E+03 0.  0.
         13    1    3    3    0    0 -0.10177782460E+03  0.18359607610E+03 -0.12771952034E+03  0.24572041148E+03  0.00000000000E+00 0.  1.
          1    1    3    3  501    0  0.13127850261E+03 -0.16707926384E+03  0.55758169077E+02  0.21967817159E+03  0.00000000000E+00 0.  1.
         21    1    1    2  502  501 -0.29500678009E+02 -0.16516812259E+02  0.38897101310E+02  0.51537166982E+02  0.00000000000E+00 0.  1.
<scales pt_clust_4="550.00000" pt_clust_5="550.00000" pt_clust_6="33.80969"></scales>
<mgrwt>
<rscale>  0 0.30000000E+03</rscale>
<asrwt>  1 0.33809689E+02</asrwt>
<pdfrwt beam="1">  1        1 0.87976636E+00 0.30000000E+03</pdfrwt>
<pdfrwt beam="2">0</pdfrwt>
<totfact> 0.19997904E-04</totfact>
</mgrwt>
<clustering>
<clus scale="   33.810">  1  6  2 -1</clus>
<clus scale="  458.557">  4  5 -1 -1</clus>
<clus scale="  300.000">  1  4  2 -1</clus>
</clustering>
</event>
<event>
 6    1  0.1000035E-011  0.3000000E+03  0.7818608E-02  0.1093470E+00
          1   -1    0    0  502    0  0.00000000000E+00  0.00000000000E+00  0.22144784778E+03  0.22144784778E+03  0.00000000000E+00 0.  1.
         13   -1    0    0    0    0 -0.00000000000E+00 -0.00000000000E+00 -0.27500000000E+03  0.27500000000E+03  0.00000000000E+00 0.  1.
    9000005    2    1    2  501    0 -0.21129963394E+02 -0.21358128715E+02 -0.47267544748E+02  0.46575352736E+03  0.46237374757E+03 0.  0.
         13    1    3    3    0    0  0.67231836871E+02 -0.48349392083E+01  0.19554424563E+03  0.20683580088E+03  0.00000000000E+00 0.  1.
          1    1    3    3  501    0 -0.88361800265E+02 -0.16523189506E+02 -0.24281179038E+03  0.25891772648E+03  0.00000000000E+00 0.  1.
         21    1    1    2  502  501  0.21129963394E+02  0.21358128715E+02 -0.62846074720E+01  0.30694320424E+02  0.00000000000E+00 0.  1.
<scales pt_clust_4="550.00000" pt_clust_5="550.00000" pt_clust_6="30.04407"></scales>
<mgrwt>
<rscale>  0 0.30000000E+03</rscale>
<asrwt>  1 0.30044066E+02</asrwt>
<pdfrwt beam="1">  1        1 0.80526490E+00 0.30000000E+03</pdfrwt>
<pdfrwt beam="2">0</pdfrwt>
<totfact> 0.97643221E-04</totfact>
</mgrwt>
<clustering>
<clus scale="   30.044">  1  6  2 -1</clus>
<clus scale="  462.374">  4  5 -1 -1</clus>
<clus scale="  300.000">  1  4  2 -1</clus>
</clustering>
</event>
<event>
 6    1  0.1448502E-011  0.3000000E+03  0.7818608E-02  0.1093470E+00
          1   -1    0    0  502    0  0.00000000000E+00  0.00000000000E+00  0.26849296396E+03  0.26849296396E+03  0.00000000000E+00 0.  1.
         13   -1    0    0    0    0 -0.00000000000E+00 -0.00000000000E+00 -0.27500000000E+03  0.27500000000E+03  0.00000000000E+00 0.  1.
    9000005    2    1    2  501    0 -0.28635800286E+02 -0.92596088275E+01 -0.16559269448E+01  0.51300882590E+03  0.51212260636E+03 0.  0.
         13    1    3    3    0    0  0.88330114565E+02 -0.23247879875E+03  0.55018635085E+02  0.25470699090E+03  0.00000000000E+00 0.  1.
          3    1    3    3  501    0 -0.11696591485E+03  0.22321918992E+03 -0.56674562030E+02  0.25830183501E+03  0.00000000000E+00 0.  1.
         21    1    1    2  502  501  0.28635800286E+02  0.92596088275E+01 -0.48511090932E+01  0.30484138057E+02  0.00000000000E+00 0.  1.
<scales pt_clust_4="550.00000" pt_clust_5="550.00000" pt_clust_6="30.09569"></scales>
<mgrwt>
<rscale>  0 0.30000000E+03</rscale>
<asrwt>  1 0.30095686E+02</asrwt>
<pdfrwt beam="1">  1        1 0.97633805E+00 0.30000000E+03</pdfrwt>
<pdfrwt beam="2">0</pdfrwt>
<totfact> 0.38983116E-06</totfact>
</mgrwt>
<clustering>
<clus scale="   30.096">  1  6  2 -1</clus>
<clus scale="  512.123">  4  5 -1 -1</clus>
<clus scale="  300.000">  1  4  2 -1</clus>
</clustering>
</event>
<event>
 6    1  0.1000035E-011  0.3000000E+03  0.7818608E-02  0.1093470E+00
          1   -1    0    0  502    0  0.00000000000E+00  0.00000000000E+00  0.25269130366E+03  0.25269130366E+03  0.00000000000E+00 0.  1.
         13   -1    0    0    0    0 -0.00000000000E+00 -0.00000000000E+00 -0.27500000000E+03  0.27500000000E+03  0.00000000000E+00 0.  1.
    9000005    2    1    2  501    0 -0.23353167152E+02 -0.28678135594E+02  0.18227637941E+02  0.47281872149E+03  0.47101750576E+03 0.  0.
         13    1    3    3    0    0  0.39280917513E+02 -0.12407915349E+03 -0.19297069633E+03  0.23275806421E+03  0.00000000000E+00 0.  1.
          3    1    3    3  501    0 -0.62634084664E+02  0.95401017891E+02  0.21119833427E+03  0.24006065729E+03  0.00000000000E+00 0.  1.
         21    1    1    2  502  501  0.23353167152E+02  0.28678135594E+02 -0.40536334278E+02  0.54872582169E+02  0.00000000000E+00 0.  1.
<scales pt_clust_4="550.00000" pt_clust_5="550.00000" pt_clust_6="36.98388"></scales>
<mgrwt>
<rscale>  0 0.30000000E+03</rscale>
<asrwt>  1 0.36983878E+02</asrwt>
<pdfrwt beam="1">  1        1 0.91887747E+00 0.30000000E+03</pdfrwt>
<pdfrwt beam="2">0</pdfrwt>
<totfact> 0.43780451E-05</totfact>
</mgrwt>
<clustering>
<clus scale="   36.984">  1  6  2 -1</clus>
<clus scale="  471.018">  4  5 -1 -1</clus>
<clus scale="  300.000">  1  4  2 -1</clus>
</clustering>
</event>
<event>
 6    1  0.1000035E-011  0.3000000E+03  0.7818608E-02  0.1093470E+00
          1   -1    0    0  502    0  0.00000000000E+00  0.00000000000E+00  0.24014283803E+03  0.24014283803E+03  0.00000000000E+00 0.  1.
         13   -1    0    0    0    0 -0.00000000000E+00 -0.00000000000E+00 -0.27500000000E+03  0.27500000000E+03  0.00000000000E+00 0.  1.
    9000005    2    1    2  501    0 -0.21178010423E+02  0.29057168327E+02 -0.41971947291E+02  0.47848977095E+03  0.47528727038E+03 0.  0.
         13    1    3    3    0    0 -0.52454903955E+02  0.99946598463E+02  0.19712344837E+03  0.22715301757E+03  0.00000000000E+00 0.  1.
          3    1    3    3  501    0  0.31276893532E+02 -0.70889430136E+02 -0.23909539566E+03  0.25133675338E+03  0.00000000000E+00 0.  1.
         21    1    1    2  502  501  0.21178010423E+02 -0.29057168327E+02  0.71147853249E+01  0.36653067087E+02  0.00000000000E+00 0.  1.
<scales pt_clust_4="550.00000" pt_clust_5="550.00000" pt_clust_6="35.95591"></scales>
<mgrwt>
<rscale>  0 0.30000000E+03</rscale>
<asrwt>  1 0.35955906E+02</asrwt>
<pdfrwt beam="1">  1        1 0.87324668E+00 0.30000000E+03</pdfrwt>
<pdfrwt beam="2">0</pdfrwt>
<totfact> 0.23342707E-04</totfact>
</mgrwt>
<clustering>
<clus scale="   35.956">  1  6  2 -1</clus>
<clus scale="  475.287">  4  5 -1 -1</clus>
<clus scale="  300.000">  1  4  2 -1</clus>
</clustering>
</event>
<event>
 6    1  0.1000035E-011  0.3000000E+03  0.7818608E-02  0.1093470E+00
          1   -1    0    0  502    0  0.00000000000E+00  0.00000000000E+00  0.22963116628E+03  0.22963116628E+03  0.00000000000E+00 0.  1.
         13   -1    0    0    0    0 -0.00000000000E+00 -0.00000000000E+00 -0.27500000000E+03  0.27500000000E+03  0.00000000000E+00 0.  1.
    9000005    2    1    2  501    0  0.24659496269E+02 -0.28807484703E+02 -0.39836907915E+02  0.46630931697E+03  0.46305446541E+03 0.  0.
         13    1    3    3    0    0 -0.11708146246E+02  0.12894330293E+03 -0.20021404058E+03  0.23843053098E+03  0.00000000000E+00 0.  1.
          3    1    3    3  501    0  0.36367642515E+02 -0.15775078763E+03  0.16037713267E+03  0.22787878599E+03  0.00000000000E+00 0.  1.
         21    1    1    2  502  501 -0.24659496269E+02  0.28807484703E+02 -0.55319258064E+01  0.38321849306E+02  0.00000000000E+00 0.  1.
<scales pt_clust_4="550.00000" pt_clust_5="550.00000" pt_clust_6="37.92049"></scales>
<mgrwt>
<rscale>  0 0.30000000E+03</rscale>
<asrwt>  1 0.37920487E+02</asrwt>
<pdfrwt beam="1">  1        1 0.83502242E+00 0.30000000E+03</pdfrwt>
<pdfrwt beam="2">0</pdfrwt>
<totfact> 0.53279782E-04</totfact>
</mgrwt>
<clustering>
<clus scale="   37.920">  1  6  2 -1</clus>
<clus scale="  463.054">  4  5 -1 -1</clus>
<clus scale="  300.000">  1  4  2 -1</clus>
</clustering>
</event>
<event>
 6    1  0.1000035E-011  0.3000000E+03  0.7818608E-02  0.1093470E+00
          1   -1    0    0  502    0  0.00000000000E+00  0.00000000000E+00  0.24968446113E+03  0.24968446113E+03  0.00000000000E+00 0.  1.
         13   -1    0    0    0    0 -0.00000000000E+00 -0.00000000000E+00 -0.27500000000E+03  0.27500000000E+03  0.00000000000E+00 0.  1.
    9000005    2    1    2  501    0  0.60496083249E+01  0.30290723898E+02 -0.49897489286E+02  0.48520791111E+03  0.48164596111E+03 0.  0.
         13    1    3    3    0    0 -0.69702511994E+02 -0.17203712603E+03 -0.15787851358E+03  0.24368183757E+03  0.00000000000E+00 0.  1.
          1    1    3    3  501    0  0.75752120319E+02  0.20232784993E+03  0.10798102430E+03  0.24152607354E+03  0.00000000000E+00 0.  1.
         21    1    1    2  502  501 -0.60496083249E+01 -0.30290723898E+02  0.24581950414E+02  0.39476550018E+02  0.00000000000E+00 0.  1.
<scales pt_clust_4="550.00000" pt_clust_5="550.00000" pt_clust_6="30.88893"></scales>
<mgrwt>
<rscale>  0 0.30000000E+03</rscale>
<asrwt>  1 0.30888925E+02</asrwt>
<pdfrwt beam="1">  1        1 0.90794350E+00 0.30000000E+03</pdfrwt>
<pdfrwt beam="2">0</pdfrwt>
<totfact> 0.82232144E-05</totfact>
</mgrwt>
<clustering>
<clus scale="   30.889">  1  6  2 -1</clus>
<clus scale="  481.646">  4  5 -1 -1</clus>
<clus scale="  300.000">  1  4  2 -1</clus>
</clustering>
</event>
<event>
 6    1  0.1000035E-011  0.3000000E+03  0.7818608E-02  0.1093470E+00
          1   -1    0    0  502    0  0.00000000000E+00  0.00000000000E+00  0.23964791204E+03  0.23964791204E+03  0.00000000000E+00 0.  1.
         13   -1    0    0    0    0 -0.00000000000E+00 -0.00000000000E+00 -0.27500000000E+03  0.27500000000E+03  0.00000000000E+00 0.  1.
    9000005    2    1    2  501    0 -0.31398097363E+02  0.17641626772E+02 -0.51376856539E+02  0.47522887196E+03  0.47106881858E+03 0.  0.
         13    1    3    3    0    0 -0.20822975726E+03  0.14562213989E+03 -0.31442477028E+02  0.25603528819E+03  0.00000000000E+00 0.  1.
          3    1    3    3  501    0  0.17683165990E+03 -0.12798051312E+03 -0.19934379511E+02  0.21919358377E+03  0.00000000000E+00 0.  1.
         21    1    1    2  502  501  0.31398097363E+02 -0.17641626772E+02  0.16024768583E+02  0.39419040086E+02  0.00000000000E+00 0. -1.
<scales pt_clust_4="550.00000" pt_clust_5="550.00000" pt_clust_6="36.01482"></scales>
<mgrwt>
<rscale>  0 0.30000000E+03</rscale>
<asrwt>  1 0.36014824E+02</asrwt>
<pdfrwt beam="1">  1        1 0.87144695E+00 0.30000000E+03</pdfrwt>
<pdfrwt beam="2">0</pdfrwt>
<totfact> 0.24347945E-04</totfact>
</mgrwt>
<clustering>
<clus scale="   36.015">  1  6  2 -1</clus>
<clus scale="  471.069">  4  5 -1 -1</clus>
<clus scale="  300.000">  1  4  2 -1</clus>
</clustering>
</event>
<event>
 6    1  0.1000035E-011  0.3000000E+03  0.7818608E-02  0.1093470E+00
          1   -1    0    0  502    0  0.00000000000E+00  0.00000000000E+00  0.22908798646E+03  0.22908798646E+03  0.00000000000E+00 0.  1.
         13   -1    0    0    0    0 -0.00000000000E+00 -0.00000000000E+00 -0.27500000000E+03  0.27500000000E+03  0.00000000000E+00 0.  1.
    9000005    2    1    2  501    0  0.26667828477E+02  0.20457868934E+02 -0.46716317260E+02  0.47046739185E+03  0.46693410137E+03 0.  0.
         13    1    3    3    0    0  0.90205610076E+02 -0.20472987749E+03 -0.72249196289E+02  0.23509853507E+03  0.00000000000E+00 0.  1.
          1    1    3    3  501    0 -0.63537781599E+02  0.22518774643E+03  0.25532879029E+02  0.23536885678E+03  0.00000000000E+00 0.  1.
         21    1    1    2  502  501 -0.26667828477E+02 -0.20457868934E+02  0.80430371531E+00  0.33620594603E+02  0.00000000000E+00 0.  1.
<scales pt_clust_4="550.00000" pt_clust_5="550.00000" pt_clust_6="33.61097"></scales>
<mgrwt>
<rscale>  0 0.30000000E+03</rscale>
<asrwt>  1 0.33610973E+02</asrwt>
<pdfrwt beam="1">  1        1 0.83304722E+00 0.30000000E+03</pdfrwt>
<pdfrwt beam="2">0</pdfrwt>
<totfact> 0.56356557E-04</totfact>
</mgrwt>
<clustering>
<clus scale="   33.611">  1  6  2 -1</clus>
<clus scale="  466.934">  4  5 -1 -1</clus>
<clus scale="  300.000">  1  4  2 -1</clus>
</clustering>
</event>
<event>
 6    1  0.1000035E-011  0.3000000E+03  0.7818608E-02  0.1093470E+00
          1   -1    0    0  502    0  0.00000000000E+00  0.00000000000E+00  0.23719097826E+03  0.23719097826E+03  0.00000000000E+00 0.  1.
         13   -1    0    0    0    0 -0.00000000000E+00 -0.00000000000E+00 -0.27500000000E+03  0.27500000000E+03  0.00000000000E+00 0.  1.
    9000005    2    1    2  501    0  0.20175274707E+02 -0.33500940325E+02 -0.46808180166E+02  0.47206194184E+03  0.46810481357E+03 0.  0.
         13    1    3    3    0    0 -0.30695606499E+02  0.13481394868E+02 -0.25266023574E+03  0.25487479866E+03  0.00000000000E+00 0.  1.
          1    1    3    3  501    0  0.50870881206E+02 -0.46982335193E+02  0.20585205558E+03  0.21718714318E+03  0.00000000000E+00 0.  1.
         21    1    1    2  502  501 -0.20175274707E+02  0.33500940325E+02  0.89991584303E+01  0.40129036427E+02  0.00000000000E+00 0.  1.
<scales pt_clust_4="550.00000" pt_clust_5="550.00000" pt_clust_6="39.10697"></scales>
<mgrwt>
<rscale>  0 0.30000000E+03</rscale>
<asrwt>  1 0.39106965E+02</asrwt>
<pdfrwt beam="1">  1        1 0.86251265E+00 0.30000000E+03</pdfrwt>
<pdfrwt beam="2">0</pdfrwt>
<totfact> 0.29776399E-04</totfact>
</mgrwt>
<clustering>
<clus scale="   39.107">  1  6  2 -1</clus>
<clus scale="  468.105">  4  5 -1 -1</clus>
<clus scale="  300.000">  1  4  2 -1</clus>
</clustering>
</event>
<event>
 6    1  0.1000035E-011  0.3000000E+03  0.7818608E-02  0.1093470E+00
          1   -1    0    0  502    0  0.00000000000E+00  0.00000000000E+00  0.22511244951E+03  0.22511244951E+03  0.00000000000E+00 0.  1.
         13   -1    0    0    0    0 -0.00000000000E+00 -0.00000000000E+00 -0.27500000000E+03  0.27500000000E+03  0.00000000000E+00 0.  1.
    9000005    2    1    2  501    0  0.21749489046E+02 -0.27988618670E+02 -0.56912732277E+02  0.46397720040E+03  0.45910715563E+03 0.  0.
         13    1    3    3    0    0 -0.12139399443E+03  0.66845923163E+01  0.16051519144E+03  0.20136114904E+03  0.00000000000E+00 0.  1.
          3    1    3    3  501    0  0.14314348347E+03 -0.34673210986E+02 -0.21742792372E+03  0.26261605136E+03  0.00000000000E+00 0.  1.
         21    1    1    2  502  501 -0.21749489046E+02  0.27988618670E+02  0.70251817836E+01  0.36135249106E+02  0.00000000000E+00 0.  1.
<scales pt_clust_4="550.00000" pt_clust_5="550.00000" pt_clust_6="35.44578"></scales>
<mgrwt>
<rscale>  0 0.30000000E+03</rscale>
<asrwt>  1 0.35445776E+02</asrwt>
<pdfrwt beam="1">  1        1 0.81859073E+00 0.30000000E+03</pdfrwt>
<pdfrwt beam="2">0</pdfrwt>
<totfact> 0.74191024E-04</totfact>
</mgrwt>
<clustering>
<clus scale="   35.446">  1  6  2 -1</clus>
<clus scale="  459.107">  4  5 -1 -1</clus>
<clus scale="  300.000">  1  4  2 -1</clus>
</clustering>
</event>
<event>
 6    1  0.1000035E-011  0.3000000E+03  0.7818608E-02  0.1093470E+00
          1   -1    0    0  502    0  0.00000000000E+00  0.00000000000E+00  0.25298949690E+03  0.25298949690E+03  0.00000000000E+00 0.  1.
         13   -1    0    0    0    0 -0.00000000000E+00 -0.00000000000E+00 -0.27500000000E+03  0.27500000000E+03  0.00000000000E+00 0.  1.
    9000005    2    1    2  501    0  0.26402075847E+02 -0.36658090854E+02 -0.26088600865E+02  0.48262964553E+03  0.47980191165E+03 0.  0.
         13    1    3    3    0    0  0.94416905539E+02 -0.62313817872E+01  0.21253331424E+03  0.23264520591E+03  0.00000000000E+00 0.  1.
          1    1    3    3  501    0 -0.68014829693E+02 -0.30426709067E+02 -0.23862191511E+03  0.24998443962E+03  0.00000000000E+00 0.  1.
         21    1    1    2  502  501 -0.26402075847E+02  0.36658090854E+02  0.40780977611E+01  0.45359851361E+02  0.00000000000E+00 0. -1.
<scales pt_clust_4="550.00000" pt_clust_5="550.00000" pt_clust_6="45.17616"></scales>
<mgrwt>
<rscale>  0 0.30000000E+03</rscale>
<asrwt>  1 0.45176158E+02</asrwt>
<pdfrwt beam="1">  1        1 0.91996181E+00 0.30000000E+03</pdfrwt>
<pdfrwt beam="2">0</pdfrwt>
<totfact> 0.39971866E-05</totfact>
</mgrwt>
<clustering>
<clus scale="   45.176">  1  6  2 -1</clus>
<clus scale="  479.802">  4  5 -1 -1</clus>
<clus scale="  300.000">  1  4  2 -1</clus>
</clustering>
</event>
<event>
 6    1  0.1000035E-011  0.3000000E+03  0.7818608E-02  0.1093470E+00
          1   -1    0    0  502    0  0.00000000000E+00  0.00000000000E+00  0.24339137139E+03  0.24339137139E+03  0.00000000000E+00 0.  1.
         13   -1    0    0    0    0 -0.00000000000E+00 -0.00000000000E+00 -0.27500000000E+03  0.27500000000E+03  0.00000000000E+00 0.  1.
    9000005    2    1    2  501    0  0.29498818871E+02  0.20432156836E+02 -0.41021730173E+02  0.48129339532E+03  0.47819754985E+03 0.  0.
         13    1    3    3    0    0  0.18544901819E+03 -0.11838028330E+03  0.86773765131E+02  0.23650563659E+03  0.00000000000E+00 0.  1.
          1    1    3    3  501    0 -0.15595019932E+03  0.13881244014E+03 -0.12779549530E+03  0.24478775873E+03  0.00000000000E+00 0.  1.
         21    1    1    2  502  501 -0.29498818871E+02 -0.20432156836E+02  0.94131015652E+01  0.37097976075E+02  0.00000000000E+00 0.  1.
<scales pt_clust_4="550.00000" pt_clust_5="550.00000" pt_clust_6="35.88389"></scales>
<mgrwt>
<rscale>  0 0.30000000E+03</rscale>
<asrwt>  1 0.35883887E+02</asrwt>
<pdfrwt beam="1">  1        1 0.88505953E+00 0.30000000E+03</pdfrwt>
<pdfrwt beam="2">0</pdfrwt>
<totfact> 0.16860307E-04</totfact>
</mgrwt>
<clustering>
<clus scale="   35.884">  1  6  2 -1</clus>
<clus scale="  478.198">  4  5 -1 -1</clus>
<clus scale="  300.000">  1  4  2 -1</clus>
</clustering>
</event>
<event>
 6    1  0.1000035E-011  0.3000000E+03  0.7818608E-02  0.1093470E+00
          1   -1    0    0  502    0  0.00000000000E+00  0.00000000000E+00  0.22763597426E+03  0.22763597426E+03  0.00000000000E+00 0.  1.
         13   -1    0    0    0    0 -0.00000000000E+00 -0.00000000000E+00 -0.27500000000E+03  0.27500000000E+03  0.00000000000E+00 0.  1.
    9000005    2    1    2  501    0  0.29046065022E+02 -0.14259198424E+02 -0.63143729280E+02  0.46663600653E+03  0.46121040037E+03 0.  0.
         13    1    3    3    0    0  0.12648842737E+03 -0.20817262297E+03 -0.13209781893E+02  0.24394602179E+03  0.00000000000E+00 0.  1.
          1    1    3    3  501    0 -0.97442362345E+02  0.19391342455E+03 -0.49933947388E+02  0.22268998473E+03  0.00000000000E+00 0.  1.
         21    1    1    2  502  501 -0.29046065022E+02  0.14259198424E+02  0.15779703541E+02  0.35999967733E+02  0.00000000000E+00 0. -1.
<scales pt_clust_4="550.00000" pt_clust_5="550.00000" pt_clust_6="32.35736"></scales>
<mgrwt>
<rscale>  0 0.30000000E+03</rscale>
<asrwt>  1 0.32357358E+02</asrwt>
<pdfrwt beam="1">  1        1 0.82776718E+00 0.30000000E+03</pdfrwt>
<pdfrwt beam="2">0</pdfrwt>
<totfact> 0.62661072E-04</totfact>
</mgrwt>
<clustering>
<clus scale="   32.357">  1  6  2 -1</clus>
<clus scale="  461.210">  4  5 -1 -1</clus>
<clus scale="  300.000">  1  4  2 -1</clus>
</clustering>
</event>
<event>
 6    1  0.1000035E-011  0.3000000E+03  0.7818608E-02  0.1093470E+00
          1   -1    0    0  502    0  0.00000000000E+00  0.00000000000E+00  0.23071837678E+03  0.23071837678E+03  0.00000000000E+00 0.  1.
         13   -1    0    0    0    0 -0.00000000000E+00 -0.00000000000E+00 -0.27500000000E+03  0.27500000000E+03  0.00000000000E+00 0.  1.
    9000005    2    1    2  501    0 -0.39026446300E+02  0.10876106484E+02 -0.45225840269E+02  0.46519375773E+03  0.46121416110E+03 0.  0.
         13    1    3    3    0    0 -0.12154716610E+03 -0.17105705019E+03 -0.13144118190E+03  0.24761060621E+03  0.00000000000E+00 0.  1.
          1    1    3    3  501    0  0.82520719800E+02  0.18193315668E+03  0.86215341626E+02  0.21758315152E+03  0.00000000000E+00 0.  1.
         21    1    1    2  502  501  0.39026446300E+02 -0.10876106484E+02  0.94421704772E+00  0.40524619047E+02  0.00000000000E+00 0.  1.
<scales pt_clust_4="550.00000" pt_clust_5="550.00000" pt_clust_6="40.51362"></scales>
<mgrwt>
<rscale>  0 0.30000000E+03</rscale>
<asrwt>  1 0.40513618E+02</asrwt>
<pdfrwt beam="1">  1        1 0.83897592E+00 0.30000000E+03</pdfrwt>
<pdfrwt beam="2">0</pdfrwt>
<totfact> 0.49251138E-04</totfact>
</mgrwt>
<clustering>
<clus scale="   40.514">  1  6  2 -1</clus>
<clus scale="  461.214">  4  5 -1 -1</clus>
<clus scale="  300.000">  1  4  2 -1</clus>
</clustering>
</event>
<event>
 6    1  0.1000035E-011  0.3000000E+03  0.7818608E-02  0.1093470E+00
          1   -1    0    0  502    0  0.00000000000E+00  0.00000000000E+00  0.25540444647E+03  0.25540444647E+03  0.00000000000E+00 0.  1.
         13   -1    0    0    0    0 -0.00000000000E+00 -0.00000000000E+00 -0.27500000000E+03  0.27500000000E+03  0.00000000000E+00 0.  1.
    9000005    2    1    2  501    0 -0.55037644552E+02 -0.86072304216E+01 -0.53817414932E+02  0.46502583735E+03  0.45852970298E+03 0.  0.
         13    1    3    3    0    0  0.23289642103E+02 -0.34437716504E+02  0.19682216740E+03  0.20116493066E+03  0.00000000000E+00 0.  1.
          3    1    3    3  501    0 -0.78327286655E+02  0.25830486083E+02 -0.25063958233E+03  0.26386090669E+03  0.00000000000E+00 0.  1.
         21    1    1    2  502  501  0.55037644552E+02  0.86072304216E+01  0.34221861405E+02  0.65378609127E+02  0.00000000000E+00 0.  1.
<scales pt_clust_4="550.00000" pt_clust_5="550.00000" pt_clust_6="55.70661"></scales>
<mgrwt>
<rscale>  0 0.30000000E+03</rscale>
<asrwt>  1 0.55706613E+02</asrwt>
<pdfrwt beam="1">  1        1 0.92874344E+00 0.30000000E+03</pdfrwt>
<pdfrwt beam="2">0</pdfrwt>
<totfact> 0.25398240E-05</totfact>
</mgrwt>
<clustering>
<clus scale="   55.707">  1  6  2 -1</clus>
<clus scale="  458.530">  4  5 -1 -1</clus>
<clus scale="  300.000">  1  4  2 -1</clus>
</clustering>
</event>
<event>
 6    1  0.1000035E-011  0.3000000E+03  0.7818608E-02  0.1093470E+00
          1   -1    0    0  502    0  0.00000000000E+00  0.00000000000E+00  0.26458100310E+03  0.26458100310E+03  0.00000000000E+00 0.  1.
         13   -1    0    0    0    0 -0.00000000000E+00 -0.00000000000E+00 -0.27500000000E+03  0.27500000000E+03  0.00000000000E+00 0.  1.
    9000005    2    1    2  501    0  0.31380983835E+02  0.16119720712E+02 -0.22631413594E+02  0.50224797933E+03  0.50049599431E+03 0.  0.
         13    1    3    3    0    0  0.38896580751E+02  0.10069580870E+03  0.22007175578E+03  0.24512072041E+03  0.00000000000E+00 0.  1.
          3    1    3    3  501    0 -0.75155969155E+01 -0.84576087989E+02 -0.24270316937E+03  0.25712725892E+03  0.00000000000E+00 0.  1.
         21    1    1    2  502  501 -0.31380983835E+02 -0.16119720712E+02  0.12212416698E+02  0.37333023772E+02  0.00000000000E+00 0. -1.
<scales pt_clust_4="550.00000" pt_clust_5="550.00000" pt_clust_6="35.27905"></scales>
<mgrwt>
<rscale>  0 0.30000000E+03</rscale>
<asrwt>  1 0.35279052E+02</asrwt>
<pdfrwt beam="1">  1        1 0.96211274E+00 0.30000000E+03</pdfrwt>
<pdfrwt beam="2">0</pdfrwt>
<totfact> 0.68207442E-06</totfact>
</mgrwt>
<clustering>
<clus scale="   35.279">  1  6  2 -1</clus>
<clus scale="  500.496">  4  5 -1 -1</clus>
<clus scale="  300.000">  1  4  2 -1</clus>
</clustering>
</event>
<event>
 6    1  0.1000035E-011  0.3000000E+03  0.7818608E-02  0.1093470E+00
          1   -1    0    0  502    0  0.00000000000E+00  0.00000000000E+00  0.24870696403E+03  0.24870696403E+03  0.00000000000E+00 0.  1.
         13   -1    0    0    0    0 -0.00000000000E+00 -0.00000000000E+00 -0.27500000000E+03  0.27500000000E+03  0.00000000000E+00 0.  1.
    9000005    2    1    2  501    0 -0.26052230663E+02 -0.15408426529E+02 -0.72857421240E+02  0.46816976653E+03  0.46147436346E+03 0.  0.
         13    1    3    3    0    0 -0.22439327547E+03 -0.99100620569E+02 -0.59869869727E+02  0.25250282448E+03  0.00000000000E+00 0.  1.
          1    1    3    3  501    0  0.19834104480E+03  0.83692194040E+02 -0.12987551513E+02  0.21566694204E+03  0.00000000000E+00 0.  1.
         21    1    1    2  502  501  0.26052230663E+02  0.15408426529E+02  0.46564385268E+02  0.55537197499E+02  0.00000000000E+00 0. -1.
<scales pt_clust_4="550.00000" pt_clust_5="550.00000" pt_clust_6="30.26778"></scales>
<mgrwt>
<rscale>  0 0.30000000E+03</rscale>
<asrwt>  1 0.30267777E+02</asrwt>
<pdfrwt beam="1">  1        1 0.90438896E+00 0.30000000E+03</pdfrwt>
<pdfrwt beam="2">0</pdfrwt>
<totfact> 0.97550491E-05</totfact>
</mgrwt>
<clustering>
<clus scale="   30.268">  1  6  2 -1</clus>
<clus scale="  461.474">  4  5 -1 -1</clus>
<clus scale="  300.000">  1  4  2 -1</clus>
</clustering>
</event>
<event>
 6    1  0.1000035E-011  0.3000000E+03  0.7818608E-02  0.1093470E+00
          1   -1    0    0  502    0  0.00000000000E+00  0.00000000000E+00  0.23955056298E+03  0.23955056298E+03  0.00000000000E+00 0.  1.
         13   -1    0    0    0    0 -0.00000000000E+00 -0.00000000000E+00 -0.27500000000E+03  0.27500000000E+03  0.00000000000E+00 0.  1.
    9000005    2    1    2  501    0 -0.25223229322E+02 -0.25181280136E+02 -0.13648681641E+02  0.47277041098E+03  0.47122740457E+03 0.  0.
         13    1    3    3    0    0 -0.23203961680E+03  0.72956452633E+02 -0.16936301996E+02  0.24382753345E+03  0.00000000000E+00 0.  1.
          1    1    3    3  501    0  0.20681638748E+03 -0.98137732768E+02  0.32876203547E+01  0.22894287753E+03  0.00000000000E+00 0.  1.
         21    1    1    2  502  501  0.25223229322E+02  0.25181280136E+02 -0.21800755374E+02  0.41780152005E+02  0.00000000000E+00 0.  1.
<scales pt_clust_4="550.00000" pt_clust_5="550.00000" pt_clust_6="35.64140"></scales>
<mgrwt>
<rscale>  0 0.30000000E+03</rscale>
<asrwt>  1 0.35641401E+02</asrwt>
<pdfrwt beam="1">  1        1 0.87109296E+00 0.30000000E+03</pdfrwt>
<pdfrwt beam="2">0</pdfrwt>
<totfact> 0.24599037E-04</totfact>
</mgrwt>
<clustering>
<clus scale="   35.641">  1  6  2 -1</clus>
<clus scale="  471.227">  4  5 -1 -1</clus>
<clus scale="  300.000">  1  4  2 -1</clus>
</clustering>
</event>
<event>
 6    1  0.1000035E-011  0.3000000E+03  0.7818608E-02  0.1093470E+00
          1   -1    0    0  502    0  0.00000000000E+00  0.00000000000E+00  0.24656965821E+03  0.24656965821E+03  0.00000000000E+00 0.  1.
         13   -1    0    0    0    0 -0.00000000000E+00 -0.00000000000E+00 -0.27500000000E+03  0.27500000000E+03  0.00000000000E+00 0.  1.
    9000005    2    1    2  501    0 -0.82840087483E+00 -0.31475241723E+02 -0.73899304507E+02  0.46626320596E+03  0.45929172966E+03 0.  0.
         13    1    3    3    0    0 -0.17898167157E+03 -0.45823670063E+02  0.10572611598E+03  0.21286676372E+03  0.00000000000E+00 0.  1.
          3    1    3    3  501    0  0.17815327069E+03  0.14348428340E+02 -0.17962542049E+03  0.25339644224E+03  0.00000000000E+00 0.  1.
         21    1    1    2  502  501  0.82840087483E+00  0.31475241723E+02  0.45468962714E+02  0.55306452244E+02  0.00000000000E+00 0.  1.
<scales pt_clust_4="550.00000" pt_clust_5="550.00000" pt_clust_6="31.48614"></scales>
<mgrwt>
<rscale>  0 0.30000000E+03</rscale>
<asrwt>  1 0.31486141E+02</asrwt>
<pdfrwt beam="1">  1        1 0.89661694E+00 0.30000000E+03</pdfrwt>
<pdfrwt beam="2">0</pdfrwt>
<totfact> 0.12340170E-04</totfact>
</mgrwt>
<clustering>
<clus scale="   31.486">  1  6  2 -1</clus>
<clus scale="  459.292">  4  5 -1 -1</clus>
<clus scale="  300.000">  1  4  2 -1</clus>
</clustering>
</event>
<event>
 6    1  0.1000035E-011  0.3000000E+03  0.7818608E-02  0.1093470E+00
          1   -1    0    0  502    0  0.00000000000E+00  0.00000000000E+00  0.23554334411E+03  0.23554334411E+03  0.00000000000E+00 0.  1.
         13   -1    0    0    0    0 -0.00000000000E+00 -0.00000000000E+00 -0.27500000000E+03  0.27500000000E+03  0.00000000000E+00 0.  1.
    9000005    2    1    2  501    0 -0.39677835258E+02  0.27721616599E+02 -0.43537517366E+02  0.46196894686E+03  0.45735869272E+03 0.  0.
         13    1    3    3    0    0 -0.85732658167E+02  0.17215987880E+03 -0.17596075719E+03  0.26067470267E+03  0.00000000000E+00 0.  1.
          1    1    3    3  501    0  0.46054822909E+02 -0.14443826220E+03  0.13242323982E+03  0.20129424419E+03  0.00000000000E+00 0.  1.
         21    1    1    2  502  501  0.39677835258E+02 -0.27721616599E+02  0.40808614768E+01  0.48574397248E+02  0.00000000000E+00 0. -1.
<scales pt_clust_4="550.00000" pt_clust_5="550.00000" pt_clust_6="48.40267"></scales>
<mgrwt>
<rscale>  0 0.30000000E+03</rscale>
<asrwt>  1 0.48402672E+02</asrwt>
<pdfrwt beam="1">  1        1 0.85652125E+00 0.30000000E+03</pdfrwt>
<pdfrwt beam="2">0</pdfrwt>
<totfact> 0.33161182E-04</totfact>
</mgrwt>
<clustering>
<clus scale="   48.403">  1  6  2 -1</clus>
<clus scale="  457.359">  4  5 -1 -1</clus>
<clus scale="  300.000">  1  4  2 -1</clus>
</clustering>
</event>
<event>
 6    1  0.1000035E-011  0.3000000E+03  0.7818608E-02  0.1093470E+00
          1   -1    0    0  502    0  0.00000000000E+00  0.00000000000E+00  0.23274029557E+03  0.23274029557E+03  0.00000000000E+00 0.  1.
         13   -1    0    0    0    0 -0.00000000000E+00 -0.00000000000E+00 -0.27500000000E+03  0.27500000000E+03  0.00000000000E+00 0.  1.
    9000005    2    1    2  501    0  0.20907618344E+02 -0.27676919401E+02 -0.62265611925E+02  0.46769810898E+03  0.46223519375E+03 0.  0.
         13    1    3    3    0    0 -0.18137588115E+03 -0.64575922835E+02  0.89322109311E+02  0.21223972127E+03  0.00000000000E+00 0.  1.
          1    1    3    3  501    0  0.20228349949E+03  0.36899003434E+02 -0.15158772124E+03  0.25545838771E+03  0.00000000000E+00 0.  1.
         21    1    1    2  502  501 -0.20907618344E+02  0.27676919401E+02  0.20005907490E+02  0.40042186590E+02  0.00000000000E+00 0.  1.
<scales pt_clust_4="550.00000" pt_clust_5="550.00000" pt_clust_6="34.68631"></scales>
<mgrwt>
<rscale>  0 0.30000000E+03</rscale>
<asrwt>  1 0.34686314E+02</asrwt>
<pdfrwt beam="1">  1        1 0.84632835E+00 0.30000000E+03</pdfrwt>
<pdfrwt beam="2">0</pdfrwt>
<totfact> 0.44052089E-04</totfact>
</mgrwt>
<clustering>
<clus scale="   34.686">  1  6  2 -1</clus>
<clus scale="  462.235">  4  5 -1 -1</clus>
<clus scale="  300.000">  1  4  2 -1</clus>
</clustering>
</event>
<event>
 6    1  0.1000035E-011  0.3000000E+03  0.7818608E-02  0.1093470E+00
          1   -1    0    0  502    0  0.00000000000E+00  0.00000000000E+00  0.22593837479E+03  0.22593837479E+03  0.00000000000E+00 0.  1.
         13   -1    0    0    0    0 -0.00000000000E+00 -0.00000000000E+00 -0.27500000000E+03  0.27500000000E+03  0.00000000000E+00 0.  1.
    9000005    2    1    2  501    0  0.21129201973E+02 -0.28503218125E+02 -0.55899759631E+02  0.46480477959E+03  0.46006502082E+03 0.  0.
         13    1    3    3    0    0  0.10315118918E+03  0.91475863151E+01 -0.23911014088E+03  0.26057149813E+03  0.00000000000E+00 0.  1.
          3    1    3    3  501    0 -0.82021987211E+02 -0.37650804440E+02  0.18321038125E+03  0.20423328147E+03  0.00000000000E+00 0.  1.
         21    1    1    2  502  501 -0.21129201973E+02  0.28503218125E+02  0.68381344200E+01  0.36133595196E+02  0.00000000000E+00 0. -1.
<scales pt_clust_4="550.00000" pt_clust_5="550.00000" pt_clust_6="35.48065"></scales>
<mgrwt>
<rscale>  0 0.30000000E+03</rscale>
<asrwt>  1 0.35480651E+02</asrwt>
<pdfrwt beam="1">  1        1 0.82159409E+00 0.30000000E+03</pdfrwt>
<pdfrwt beam="2">0</pdfrwt>
<totfact> 0.69865224E-04</totfact>
</mgrwt>
<clustering>
<clus scale="   35.481">  1  6  2 -1</clus>
<clus scale="  460.065">  4  5 -1 -1</clus>
<clus scale="  300.000">  1  4  2 -1</clus>
</clustering>
</event>
<event>
 6    1  0.1000035E-011  0.3000000E+03  0.7818608E-02  0.1093470E+00
          1   -1    0    0  502    0  0.00000000000E+00  0.00000000000E+00  0.23791252379E+03  0.23791252379E+03  0.00000000000E+00 0.  1.
         13   -1    0    0    0    0 -0.00000000000E+00 -0.00000000000E+00 -0.27500000000E+03  0.27500000000E+03  0.00000000000E+00 0.  1.
    9000005    2    1    2  501    0  0.12213253632E+02  0.29059820401E+02 -0.64782031142E+02  0.47095272042E+03  0.46540962236E+03 0.  0.
         13    1    3    3    0    0  0.64380301187E+02  0.16004347844E+03 -0.20783408950E+03  0.27009951301E+03  0.00000000000E+00 0.  1.
          3    1    3    3  501    0 -0.52167047555E+02 -0.13098365804E+03  0.14305205836E+03  0.20085320740E+03  0.00000000000E+00 0.  1.
         21    1    1    2  502  501 -0.12213253632E+02 -0.29059820401E+02  0.27694554927E+02  0.41959803367E+02  0.00000000000E+00 0.  1.
<scales pt_clust_4="550.00000" pt_clust_5="550.00000" pt_clust_6="31.52200"></scales>
<mgrwt>
<rscale>  0 0.30000000E+03</rscale>
<asrwt>  1 0.31522004E+02</asrwt>
<pdfrwt beam="1">  1        1 0.86513645E+00 0.30000000E+03</pdfrwt>
<pdfrwt beam="2">0</pdfrwt>
<totfact> 0.29042202E-04</totfact>
</mgrwt>
<clustering>
<clus scale="   31.522">  1  6  2 -1</clus>
<clus scale="  465.410">  4  5 -1 -1</clus>
<clus scale="  300.000">  1  4  2 -1</clus>
</clustering>
</event>
<event>
 6    1  0.1000035E-011  0.3000000E+03  0.7818608E-02  0.1093470E+00
          1   -1    0    0  502    0  0.00000000000E+00  0.00000000000E+00  0.24699517267E+03  0.24699517267E+03  0.00000000000E+00 0.  1.
         13   -1    0    0    0    0 -0.00000000000E+00 -0.00000000000E+00 -0.27500000000E+03  0.27500000000E+03  0.00000000000E+00 0.  1.
    9000005    2    1    2  501    0  0.41073179091E+01 -0.30371235145E+02 -0.42932646786E+02  0.48790526539E+03  0.48504541422E+03 0.  0.
         13    1    3    3    0    0  0.23270183597E+03  0.31994031737E+02 -0.79860916202E+02  0.24809580502E+03  0.00000000000E+00 0.  1.
          1    1    3    3  501    0 -0.22859451806E+03 -0.62365266882E+02  0.36928269416E+02  0.23980946037E+03  0.00000000000E+00 0.  1.
         21    1    1    2  502  501 -0.41073179091E+01  0.30371235145E+02  0.14927819460E+02  0.34089907282E+02  0.00000000000E+00 0.  1.
<scales pt_clust_4="550.00000" pt_clust_5="550.00000" pt_clust_6="30.64771"></scales>
<mgrwt>
<rscale>  0 0.30000000E+03</rscale>
<asrwt>  1 0.30647708E+02</asrwt>
<pdfrwt beam="1">  1        1 0.89816426E+00 0.30000000E+03</pdfrwt>
<pdfrwt beam="2">0</pdfrwt>
<totfact> 0.11913979E-04</totfact>
</mgrwt>
<clustering>
<clus scale="   30.648">  1  6  2 -1</clus>
<clus scale="  485.045">  4  5 -1 -1</clus>
<clus scale="  300.000">  1  4  2 -1</clus>
</clustering>
</event>
<event>
 6    1  0.1000035E-011  0.3000000E+03  0.7818608E-02  0.1093470E+00
          1   -1    0    0  502    0  0.00000000000E+00  0.00000000000E+00  0.23326903156E+03  0.23326903156E+03  0.00000000000E+00 0.  1.
         13   -1    0    0    0    0 -0.00000000000E+00 -0.00000000000E+00 -0.27500000000E+03  0.27500000000E+03  0.00000000000E+00 0.  1.
    9000005    2    1    2  501    0 -0.16183197668E+02  0.38921851779E+02 -0.55397002878E+02  0.46395687826E+03  0.45870508012E+03 0.  0.
         13    1    3    3    0    0  0.11462763009E+02 -0.28977275443E+02  0.19786177072E+03  0.20030066835E+03  0.00000000000E+00 0.  1.
          3    1    3    3  501    0 -0.27645960677E+02  0.67899127222E+02 -0.25325877360E+03  0.26365620991E+03  0.00000000000E+00 0.  1.
         21    1    1    2  502  501  0.16183197668E+02 -0.38921851779E+02  0.13666034437E+02  0.44312153298E+02  0.00000000000E+00 0.  1.
<scales pt_clust_4="550.00000" pt_clust_5="550.00000" pt_clust_6="42.15218"></scales>
<mgrwt>
<rscale>  0 0.30000000E+03</rscale>
<asrwt>  1 0.42152182E+02</asrwt>
<pdfrwt beam="1">  1        1 0.84825102E+00 0.30000000E+03</pdfrwt>
<pdfrwt beam="2">0</pdfrwt>
<totfact> 0.40829321E-04</totfact>
</mgrwt>
<clustering>
<clus scale="   42.152">  1  6  2 -1</clus>
<clus scale="  458.705">  4  5 -1 -1</clus>
<clus scale="  300.000">  1  4  2 -1</clus>
</clustering>
</event>
<event>
 6    1  0.1000035E-011  0.3000000E+03  0.7818608E-02  0.1093470E+00
          1   -1    0    0  502    0  0.00000000000E+00  0.00000000000E+00  0.24367476951E+03  0.24367476951E+03  0.00000000000E+00 0.  1.
         13   -1    0    0    0    0 -0.00000000000E+00 -0.00000000000E+00 -0.27500000000E+03  0.27500000000E+03  0.00000000000E+00 0.  1.
    9000005    2    1    2  501    0 -0.15751147544E+02  0.54363505645E+02 -0.34681760123E+02  0.46197595394E+03  0.45718209517E+03 0.  0.
         13    1    3    3    0    0 -0.92173613842E+02  0.97267591614E+02  0.18328615316E+03  0.22704795398E+03  0.00000000000E+00 0.  1.
          3    1    3    3  501    0  0.76422466297E+02 -0.42904085968E+02 -0.21796791328E+03  0.23492799996E+03  0.00000000000E+00 0.  1.
         21    1    1    2  502  501  0.15751147544E+02 -0.54363505645E+02  0.33565296294E+01  0.56698815562E+02  0.00000000000E+00 0.  1.
<scales pt_clust_4="550.00000" pt_clust_5="550.00000" pt_clust_6="56.59938"></scales>
<mgrwt>
<rscale>  0 0.30000000E+03</rscale>
<asrwt>  1 0.56599376E+02</asrwt>
<pdfrwt beam="1">  1        1 0.88609007E+00 0.30000000E+03</pdfrwt>
<pdfrwt beam="2">0</pdfrwt>
<totfact> 0.15042444E-04</totfact>
</mgrwt>
<clustering>
<clus scale="   56.599">  1  6  2 -1</clus>
<clus scale="  457.182">  4  5 -1 -1</clus>
<clus scale="  300.000">  1  4  2 -1</clus>
</clustering>
</event>
<event>
 6    1  0.1000035E-011  0.3000000E+03  0.7818608E-02  0.1093470E+00
          1   -1    0    0  502    0  0.00000000000E+00  0.00000000000E+00  0.22948062826E+03  0.22948062826E+03  0.00000000000E+00 0.  1.
         13   -1    0    0    0    0 -0.00000000000E+00 -0.00000000000E+00 -0.27500000000E+03  0.27500000000E+03  0.00000000000E+00 0.  1.
    9000005    2    1    2  501    0  0.20880909874E+02 -0.29185953138E+02 -0.46705775653E+02  0.46857464252E+03  0.46485797173E+03 0.  0.
         13    1    3    3    0    0  0.12190632869E+03  0.10533907972E+03  0.14271342108E+03  0.21523149223E+03  0.00000000000E+00 0.  1.
          3    1    3    3  501    0 -0.10102541881E+03 -0.13452503286E+03 -0.18941919673E+03  0.25334315030E+03  0.00000000000E+00 0.  1.
         21    1    1    2  502  501 -0.20880909874E+02  0.29185953138E+02  0.11864039180E+01  0.35905985740E+02  0.00000000000E+00 0.  1.
<scales pt_clust_4="550.00000" pt_clust_5="550.00000" pt_clust_6="35.88638"></scales>
<mgrwt>
<rscale>  0 0.30000000E+03</rscale>
<asrwt>  1 0.35886380E+02</asrwt>
<pdfrwt beam="1">  1        1 0.83447501E+00 0.30000000E+03</pdfrwt>
<pdfrwt beam="2">0</pdfrwt>
<totfact> 0.54325778E-04</totfact>
</mgrwt>
<clustering>
<clus scale="   35.886">  1  6  2 -1</clus>
<clus scale="  464.858">  4  5 -1 -1</clus>
<clus scale="  300.000">  1  4  2 -1</clus>
</clustering>
</event>
<event>
 6    1  0.1000035E-011  0.3000000E+03  0.7818608E-02  0.1093470E+00
          1   -1    0    0  502    0  0.00000000000E+00  0.00000000000E+00  0.26395522773E+03  0.26395522773E+03  0.00000000000E+00 0.  1.
         13   -1    0    0    0    0 -0.00000000000E+00 -0.00000000000E+00 -0.27500000000E+03  0.27500000000E+03  0.00000000000E+00 0.  1.
    9000005    2    1    2  501    0 -0.25151548216E+02 -0.22960733618E+02 -0.44994551235E+02  0.49086798246E+03  0.48761364921E+03 0.  0.
         13    1    3    3    0    0 -0.11858845553E+03 -0.22791668202E+03 -0.64134977447E+02  0.26480659180E+03  0.00000000000E+00 0.  1.
          1    1    3    3  501    0  0.93436907317E+02  0.20495594840E+03  0.19140426212E+02  0.22606139066E+03  0.00000000000E+00 0.  1.
         21    1    1    2  502  501  0.25151548216E+02  0.22960733618E+02  0.33949778968E+02  0.48087245273E+02  0.00000000000E+00 0.  1.
<scales pt_clust_4="550.00000" pt_clust_5="550.00000" pt_clust_6="34.05577"></scales>
<mgrwt>
<rscale>  0 0.30000000E+03</rscale>
<asrwt>  1 0.34055773E+02</asrwt>
<pdfrwt beam="1">  1        1 0.95983719E+00 0.30000000E+03</pdfrwt>
<pdfrwt beam="2">0</pdfrwt>
<totfact> 0.76855052E-06</totfact>
</mgrwt>
<clustering>
<clus scale="   34.056">  1  6  2 -1</clus>
<clus scale="  487.614">  4  5 -1 -1</clus>
<clus scale="  300.000">  1  4  2 -1</clus>
</clustering>
</event>
<event>
 6    1  0.1000035E-011  0.3000000E+03  0.7818608E-02  0.1093470E+00
          1   -1    0    0  502    0  0.00000000000E+00  0.00000000000E+00  0.23901632948E+03  0.23901632948E+03  0.00000000000E+00 0.  1.
         13   -1    0    0    0    0 -0.00000000000E+00 -0.00000000000E+00 -0.27500000000E+03  0.27500000000E+03  0.00000000000E+00 0.  1.
    9000005    2    1    2  501    0  0.45103975921E+02 -0.27468392103E+01 -0.23289416975E+02  0.46707958648E+03  0.46430488841E+03 0.  0.
         13    1    3    3    0    0 -0.14047969217E+03 -0.16617840575E+03  0.84456516618E+01  0.21776394440E+03  0.00000000000E+00 0.  1.
          1    1    3    3  501    0  0.18558366809E+03  0.16343156654E+03 -0.31735068637E+02  0.24931564208E+03  0.00000000000E+00 0.  1.
         21    1    1    2  502  501 -0.45103975921E+02  0.27468392103E+01 -0.12694253548E+02  0.46936742991E+02  0.00000000000E+00 0. -1.
<scales pt_clust_4="550.00000" pt_clust_5="550.00000" pt_clust_6="45.18756"></scales>
<mgrwt>
<rscale>  0 0.30000000E+03</rscale>
<asrwt>  1 0.45187563E+02</asrwt>
<pdfrwt beam="1">  1        1 0.86915029E+00 0.30000000E+03</pdfrwt>
<pdfrwt beam="2">0</pdfrwt>
<totfact> 0.24659763E-04</totfact>
</mgrwt>
<clustering>
<clus scale="   45.188">  1  6  2 -1</clus>
<clus scale="  464.305">  4  5 -1 -1</clus>
<clus scale="  300.000">  1  4  2 -1</clus>
</clustering>
</event>
<event>
 6    1  0.1000035E-011  0.3000000E+03  0.7818608E-02  0.1093470E+00
          1   -1    0    0  502    0  0.00000000000E+00  0.00000000000E+00  0.23999677283E+03  0.23999677283E+03  0.00000000000E+00 0.  1.
         13   -1    0    0    0    0 -0.00000000000E+00 -0.00000000000E+00 -0.27500000000E+03  0.27500000000E+03  0.00000000000E+00 0.  1.
    9000005    2    1    2  501    0  0.30745951127E+02 -0.14527018338E+01 -0.59589515882E+02  0.47560249094E+03  0.47084965236E+03 0.  0.
         13    1    3    3    0    0 -0.15836691053E+02  0.22623039874E+03 -0.84184839442E+02  0.24190510802E+03  0.00000000000E+00 0.  1.
          1    1    3    3  501    0  0.46582642180E+02 -0.22768310057E+03  0.24595323560E+02  0.23369738291E+03  0.00000000000E+00 0.  1.
         21    1    1    2  502  501 -0.30745951127E+02  0.14527018338E+01  0.24586288712E+02  0.39394281894E+02  0.00000000000E+00 0. -1.
<scales pt_clust_4="550.00000" pt_clust_5="550.00000" pt_clust_6="30.78025"></scales>
<mgrwt>
<rscale>  0 0.30000000E+03</rscale>
<asrwt>  1 0.30780251E+02</asrwt>
<pdfrwt beam="1">  1        1 0.87271554E+00 0.30000000E+03</pdfrwt>
<pdfrwt beam="2">0</pdfrwt>
<totfact> 0.24342299E-04</totfact>
</mgrwt>
<clustering>
<clus scale="   30.780">  1  6  2 -1</clus>
<clus scale="  470.850">  4  5 -1 -1</clus>
<clus scale="  300.000">  1  4  2 -1</clus>
</clustering>
</event>
<event>
 6    1  0.1000035E-011  0.3000000E+03  0.7818608E-02  0.1093470E+00
          1   -1    0    0  502    0  0.00000000000E+00  0.00000000000E+00  0.24285111834E+03  0.24285111834E+03  0.00000000000E+00 0.  1.
         13   -1    0    0    0    0 -0.00000000000E+00 -0.00000000000E+00 -0.27500000000E+03  0.27500000000E+03  0.00000000000E+00 0.  1.
    9000005    2    1    2  501    0 -0.12502096772E+02 -0.30543375801E+02 -0.54274538376E+02  0.47811769520E+03  0.47387931451E+03 0.  0.
         13    1    3    3    0    0 -0.12397006288E+03  0.19060425933E+03 -0.25243820642E+02  0.22877021363E+03  0.00000000000E+00 0.  1.
          1    1    3    3  501    0  0.11146796611E+03 -0.22114763513E+03 -0.29030717734E+02  0.24934748157E+03  0.00000000000E+00 0.  1.
         21    1    1    2  502  501  0.12502096772E+02  0.30543375801E+02  0.22125656711E+02  0.39733423134E+02  0.00000000000E+00 0.  1.
<scales pt_clust_4="550.00000" pt_clust_5="550.00000" pt_clust_6="33.00303"></scales>
<mgrwt>
<rscale>  0 0.30000000E+03</rscale>
<asrwt>  1 0.33003034E+02</asrwt>
<pdfrwt beam="1">  1        1 0.88309498E+00 0.30000000E+03</pdfrwt>
<pdfrwt beam="2">0</pdfrwt>
<totfact> 0.18208840E-04</totfact>
</mgrwt>
<clustering>
<clus scale="   33.003">  1  6  2 -1</clus>
<clus scale="  473.879">  4  5 -1 -1</clus>
<clus scale="  300.000">  1  4  2 -1</clus>
</clustering>
</event>
<event>
 6    1  0.1000035E-011  0.3000000E+03  0.7818608E-02  0.1093470E+00
          1   -1    0    0  502    0  0.00000000000E+00  0.00000000000E+00  0.22631415891E+03  0.22631415891E+03  0.00000000000E+00 0.  1.
         13   -1    0    0    0    0 -0.00000000000E+00 -0.00000000000E+00 -0.27500000000E+03  0.27500000000E+03  0.00000000000E+00 0.  1.
    9000005    2    1    2  501    0  0.13952829648E+02  0.30751704991E+02 -0.42582760168E+02  0.46699803425E+03  0.46382488475E+03 0.  0.
         13    1    3    3    0    0  0.15208837890E+03  0.12014457243E+03 -0.17085084159E+03  0.25837105750E+03  0.00000000000E+00 0.  1.
          3    1    3    3  501    0 -0.13813554925E+03 -0.89392867437E+02  0.12826808142E+03  0.20862697675E+03  0.00000000000E+00 0.  1.
         21    1    1    2  502  501 -0.13952829648E+02 -0.30751704991E+02 -0.61030809186E+01  0.34316124661E+02  0.00000000000E+00 0.  1.
<scales pt_clust_4="550.00000" pt_clust_5="550.00000" pt_clust_6="33.76907"></scales>
<mgrwt>
<rscale>  0 0.30000000E+03</rscale>
<asrwt>  1 0.33769068E+02</asrwt>
<pdfrwt beam="1">  1        1 0.82296058E+00 0.30000000E+03</pdfrwt>
<pdfrwt beam="2">0</pdfrwt>
<totfact> 0.68573937E-04</totfact>
</mgrwt>
<clustering>
<clus scale="   33.769">  1  6  2 -1</clus>
<clus scale="  463.825">  4  5 -1 -1</clus>
<clus scale="  300.000">  1  4  2 -1</clus>
</clustering>
</event>
<event>
 6    1  0.1000035E-011  0.3000000E+03  0.7818608E-02  0.1093470E+00
          1   -1    0    0  502    0  0.00000000000E+00  0.00000000000E+00  0.23045691880E+03  0.23045691880E+03  0.00000000000E+00 0.  1.
         13   -1    0    0    0    0 -0.00000000000E+00 -0.00000000000E+00 -0.27500000000E+03  0.27500000000E+03  0.00000000000E+00 0.  1.
    9000005    2    1    2  501    0  0.21479771423E+02  0.32830940808E+02 -0.28179324656E+02  0.46294781644E+03  0.46042084570E+03 0.  0.
         13    1    3    3    0    0  0.12097192707E+03 -0.93566855839E+02  0.15596789084E+03  0.21843751194E+03  0.00000000000E+00 0.  1.
          1    1    3    3  501    0 -0.99492155648E+02  0.12639779665E+03 -0.18414721549E+03  0.24451030450E+03  0.00000000000E+00 0.  1.
         21    1    1    2  502  501 -0.21479771423E+02 -0.32830940808E+02 -0.16363756546E+02  0.42509102356E+02  0.00000000000E+00 0. -1.
<scales pt_clust_4="550.00000" pt_clust_5="550.00000" pt_clust_6="39.23331"></scales>
<mgrwt>
<rscale>  0 0.30000000E+03</rscale>
<asrwt>  1 0.39233312E+02</asrwt>
<pdfrwt beam="1">  1        1 0.83802516E+00 0.30000000E+03</pdfrwt>
<pdfrwt beam="2">0</pdfrwt>
<totfact> 0.50349812E-04</totfact>
</mgrwt>
<clustering>
<clus scale="   39.233">  1  6  2 -1</clus>
<clus scale="  460.421">  4  5 -1 -1</clus>
<clus scale="  300.000">  1  4  2 -1</clus>
</clustering>
</event>
<event>
 6    1  0.1000035E-011  0.3000000E+03  0.7818608E-02  0.1093470E+00
          1   -1    0    0  502    0  0.00000000000E+00  0.00000000000E+00  0.24129332519E+03  0.24129332519E+03  0.00000000000E+00 0.  1.
         13   -1    0    0    0    0 -0.00000000000E+00 -0.00000000000E+00 -0.27500000000E+03  0.27500000000E+03  0.00000000000E+00 0.  1.
    9000005    2    1    2  501    0 -0.14594648025E+02 -0.45915497882E+02 -0.36641012161E+02  0.46802483617E+03  0.46409422190E+03 0.  0.
         13    1    3    3    0    0  0.11988599109E+03  0.16432021746E+03 -0.72403890153E+02  0.21590763774E+03  0.00000000000E+00 0.  1.
          3    1    3    3  501    0 -0.13448063911E+03 -0.21023571534E+03  0.35762877992E+02  0.25211719843E+03  0.00000000000E+00 0.  1.
         21    1    1    2  502  501  0.14594648025E+02  0.45915497882E+02  0.29343373530E+01  0.48268489022E+02  0.00000000000E+00 0.  1.
<scales pt_clust_4="550.00000" pt_clust_5="550.00000" pt_clust_6="48.17921"></scales>
<mgrwt>
<rscale>  0 0.30000000E+03</rscale>
<asrwt>  1 0.48179214E+02</asrwt>
<pdfrwt beam="1">  1        1 0.87743027E+00 0.30000000E+03</pdfrwt>
<pdfrwt beam="2">0</pdfrwt>
<totfact> 0.19969617E-04</totfact>
</mgrwt>
<clustering>
<clus scale="   48.179">  1  6  2 -1</clus>
<clus scale="  464.094">  4  5 -1 -1</clus>
<clus scale="  300.000">  1  4  2 -1</clus>
</clustering>
</event>
<event>
 6    1  0.1000035E-011  0.3000000E+03  0.7818608E-02  0.1093470E+00
          1   -1    0    0  502    0  0.00000000000E+00  0.00000000000E+00  0.22433739656E+03  0.22433739656E+03  0.00000000000E+00 0.  1.
         13   -1    0    0    0    0 -0.00000000000E+00 -0.00000000000E+00 -0.27500000000E+03  0.27500000000E+03  0.00000000000E+00 0.  1.
    9000005    2    1    2  501    0 -0.23430316717E+02 -0.22024350289E+02 -0.60725727900E+02  0.46564291302E+03  0.46054495619E+03 0.  0.
         13    1    3    3    0    0 -0.21051780388E+03 -0.85217246730E+02 -0.12339085717E+03  0.25846668745E+03  0.00000000000E+00 0.  1.
          3    1    3    3  501    0  0.18708748717E+03  0.63192896441E+02  0.62665129265E+02  0.20717622557E+03  0.00000000000E+00 0.  1.
         21    1    1    2  502  501  0.23430316717E+02  0.22024350289E+02  0.10063124461E+02  0.33694483540E+02  0.00000000000E+00 0. -1.
<scales pt_clust_4="550.00000" pt_clust_5="550.00000" pt_clust_6="32.15668"></scales>
<mgrwt>
<rscale>  0 0.30000000E+03</rscale>
<asrwt>  1 0.32156675E+02</asrwt>
<pdfrwt beam="1">  1        1 0.81577235E+00 0.30000000E+03</pdfrwt>
<pdfrwt beam="2">0</pdfrwt>
<totfact> 0.79727578E-04</totfact>
</mgrwt>
<clustering>
<clus scale="   32.157">  1  6  2 -1</clus>
<clus scale="  460.545">  4  5 -1 -1</clus>
<clus scale="  300.000">  1  4  2 -1</clus>
</clustering>
</event>
<event>
 6    1  0.1000035E-011  0.3000000E+03  0.7818608E-02  0.1093470E+00
          1   -1    0    0  502    0  0.00000000000E+00  0.00000000000E+00  0.23463401590E+03  0.23463401590E+03  0.00000000000E+00 0.  1.
         13   -1    0    0    0    0 -0.00000000000E+00 -0.00000000000E+00 -0.27500000000E+03  0.27500000000E+03  0.00000000000E+00 0.  1.
    9000005    2    1    2  501    0 -0.27392382631E+02 -0.36915941674E+02 -0.48614781405E+02  0.46293099637E+03  0.45807049791E+03 0.  0.
         13    1    3    3    0    0  0.17160279741E+03  0.30765196443E+02  0.10416041669E+03  0.20308473550E+03  0.00000000000E+00 0.  1.
          3    1    3    3  501    0 -0.19899518004E+03 -0.67681138117E+02 -0.15277519809E+03  0.25984626087E+03  0.00000000000E+00 0.  1.
         21    1    1    2  502  501  0.27392382631E+02  0.36915941674E+02  0.82487973029E+01  0.46703019526E+02  0.00000000000E+00 0.  1.
<scales pt_clust_4="550.00000" pt_clust_5="550.00000" pt_clust_6="45.96879"></scales>
<mgrwt>
<rscale>  0 0.30000000E+03</rscale>
<asrwt>  1 0.45968787E+02</asrwt>
<pdfrwt beam="1">  1        1 0.85321460E+00 0.30000000E+03</pdfrwt>
<pdfrwt beam="2">0</pdfrwt>
<totfact> 0.36085186E-04</totfact>
</mgrwt>
<clustering>
<clus scale="   45.969">  1  6  2 -1</clus>
<clus scale="  458.070">  4  5 -1 -1</clus>
<clus scale="  300.000">  1  4  2 -1</clus>
</clustering>
</event>
<event>
 6    1  0.1000035E-011  0.3000000E+03  0.7818608E-02  0.1093470E+00
          1   -1    0    0  502    0  0.00000000000E+00  0.00000000000E+00  0.23482755355E+03  0.23482755355E+03  0.00000000000E+00 0.  1.
         13   -1    0    0    0    0 -0.00000000000E+00 -0.00000000000E+00 -0.27500000000E+03  0.27500000000E+03  0.00000000000E+00 0.  1.
    9000005    2    1    2  501    0  0.17786639449E+02  0.25792349319E+02 -0.45120090294E+02  0.47810864742E+03  0.47494257165E+03 0.  0.
         13    1    3    3    0    0 -0.26001037325E+02 -0.20958944261E+03  0.55558492859E+02  0.21838162589E+03  0.00000000000E+00 0.  1.
          1    1    3    3  501    0  0.43787676774E+02  0.23538179193E+03 -0.10067858315E+03  0.25972702154E+03  0.00000000000E+00 0.  1.
         21    1    1    2  502  501 -0.17786639449E+02 -0.25792349319E+02  0.49476438444E+01  0.31718906127E+02  0.00000000000E+00 0.  1.
<scales pt_clust_4="550.00000" pt_clust_5="550.00000" pt_clust_6="31.33065"></scales>
<mgrwt>
<rscale>  0 0.30000000E+03</rscale>
<asrwt>  1 0.31330653E+02</asrwt>
<pdfrwt beam="1">  1        1 0.85391838E+00 0.30000000E+03</pdfrwt>
<pdfrwt beam="2">0</pdfrwt>
<totfact> 0.38123990E-04</totfact>
</mgrwt>
<clustering>
<clus scale="   31.331">  1  6  2 -1</clus>
<clus scale="  474.943">  4  5 -1 -1</clus>
<clus scale="  300.000">  1  4  2 -1</clus>
</clustering>
</event>
<event>
 6    1  0.1000035E-011  0.3000000E+03  0.7818608E-02  0.1093470E+00
          1   -1    0    0  502    0  0.00000000000E+00  0.00000000000E+00  0.22730923384E+03  0.22730923384E+03  0.00000000000E+00 0.  1.
         13   -1    0    0    0    0 -0.00000000000E+00 -0.00000000000E+00 -0.27500000000E+03  0.27500000000E+03  0.00000000000E+00 0.  1.
    9000005    2    1    2  501    0 -0.20805881542E+02  0.29148771501E+02 -0.29624379731E+02  0.46219776534E+03  0.45985501500E+03 0.  0.
         13    1    3    3    0    0 -0.37139030760E+02  0.11148453654E+03  0.19205877246E+03  0.22515479469E+03  0.00000000000E+00 0.  1.
          3    1    3    3  501    0  0.16333149218E+02 -0.82335765041E+02 -0.22168315219E+03  0.23704297065E+03  0.00000000000E+00 0.  1.
         21    1    1    2  502  501  0.20805881542E+02 -0.29148771501E+02 -0.18066386428E+02  0.40111468502E+02  0.00000000000E+00 0.  1.
<scales pt_clust_4="550.00000" pt_clust_5="550.00000" pt_clust_6="35.81252"></scales>
<mgrwt>
<rscale>  0 0.30000000E+03</rscale>
<asrwt>  1 0.35812524E+02</asrwt>
<pdfrwt beam="1">  1        1 0.82657903E+00 0.30000000E+03</pdfrwt>
<pdfrwt beam="2">0</pdfrwt>
<totfact> 0.62970046E-04</totfact>
</mgrwt>
<clustering>
<clus scale="   35.813">  1  6  2 -1</clus>
<clus scale="  459.855">  4  5 -1 -1</clus>
<clus scale="  300.000">  1  4  2 -1</clus>
</clustering>
</event>
<event>
 6    1  0.1000035E-011  0.3000000E+03  0.7818608E-02  0.1093470E+00
          1   -1    0    0  502    0  0.00000000000E+00  0.00000000000E+00  0.22741042730E+03  0.22741042730E+03  0.00000000000E+00 0.  1.
         13   -1    0    0    0    0 -0.00000000000E+00 -0.00000000000E+00 -0.27500000000E+03  0.27500000000E+03  0.00000000000E+00 0.  1.
    9000005    2    1    2  501    0  0.75964986199E+01 -0.30233157350E+02 -0.53759349808E+02  0.47063281342E+03  0.46651197924E+03 0.  0.
         13    1    3    3    0    0  0.22258588956E+03  0.34240365939E+02  0.37565857151E+02  0.22831573427E+03  0.00000000000E+00 0.  1.
          3    1    3    3  501    0 -0.21498939094E+03 -0.64473523289E+02 -0.91325206958E+02  0.24231707915E+03  0.00000000000E+00 0.  1.
         21    1    1    2  502  501 -0.75964986199E+01  0.30233157350E+02  0.61697771085E+01  0.31777613885E+02  0.00000000000E+00 0. -1.
<scales pt_clust_4="550.00000" pt_clust_5="550.00000" pt_clust_6="31.17291"></scales>
<mgrwt>
<rscale>  0 0.30000000E+03</rscale>
<asrwt>  1 0.31172914E+02</asrwt>
<pdfrwt beam="1">  1        1 0.82694701E+00 0.30000000E+03</pdfrwt>
<pdfrwt beam="2">0</pdfrwt>
<totfact> 0.64159117E-04</totfact>
</mgrwt>
<clustering>
<clus scale="   31.173">  1  6  2 -1</clus>
<clus scale="  466.512">  4  5 -1 -1</clus>
<clus scale="  300.000">  1  4  2 -1</clus>
</clustering>
</event>
<event>
 6    1  0.1000035E-011  0.3000000E+03  0.7818608E-02  0.1093470E+00
          1   -1    0    0  502    0  0.00000000000E+00  0.00000000000E+00  0.24935756761E+03  0.24935756761E+03  0.00000000000E+00 0.  1.
         13   -1    0    0    0    0 -0.00000000000E+00 -0.00000000000E+00 -0.27500000000E+03  0.27500000000E+03  0.00000000000E+00 0.  1.
    9000005    2    1    2  501    0  0.49144830617E+02  0.32607700748E+02 -0.40040047707E+02  0.46364704256E+03  0.45813414862E+03 0.  0.
         13    1    3    3    0    0  0.10833725920E+03 -0.12474311796E+03 -0.18041026716E+03  0.24463375014E+03  0.00000000000E+00 0.  1.
          3    1    3    3  501    0 -0.59192428588E+02  0.15735081870E+03  0.14037021946E+03  0.21901329243E+03  0.00000000000E+00 0.  1.
         21    1    1    2  502  501 -0.49144830617E+02 -0.32607700748E+02  0.14397615316E+02  0.60710525045E+02  0.00000000000E+00 0.  1.
<scales pt_clust_4="550.00000" pt_clust_5="550.00000" pt_clust_6="58.97861"></scales>
<mgrwt>
<rscale>  0 0.30000000E+03</rscale>
<asrwt>  1 0.58978611E+02</asrwt>
<pdfrwt beam="1">  1        1 0.90675479E+00 0.30000000E+03</pdfrwt>
<pdfrwt beam="2">0</pdfrwt>
<totfact> 0.77681866E-05</totfact>
</mgrwt>
<clustering>
<clus scale="   58.979">  1  6  2 -1</clus>
<clus scale="  458.134">  4  5 -1 -1</clus>
<clus scale="  300.000">  1  4  2 -1</clus>
</clustering>
</event>
<event>
 6    1  0.1000035E-011  0.3000000E+03  0.7818608E-02  0.1093470E+00
          1   -1    0    0  502    0  0.00000000000E+00  0.00000000000E+00  0.23184765609E+03  0.23184765609E+03  0.00000000000E+00 0.  1.
         13   -1    0    0    0    0 -0.00000000000E+00 -0.00000000000E+00 -0.27500000000E+03  0.27500000000E+03  0.00000000000E+00 0.  1.
    9000005    2    1    2  501    0 -0.67499628786E+01  0.37088974640E+02 -0.60296251560E+02  0.46543428134E+03  0.45996986668E+03 0.  0.
         13    1    3    3    0    0 -0.95250682075E+02  0.19979915111E+03 -0.14201795866E+03  0.26298572927E+03  0.00000000000E+00 0.  1.
          1    1    3    3  501    0  0.88500719197E+02 -0.16271017647E+03  0.81721707098E+02  0.20244855207E+03  0.00000000000E+00 0.  1.
         21    1    1    2  502  501  0.67499628786E+01 -0.37088974640E+02  0.17143907654E+02  0.41413374752E+02  0.00000000000E+00 0.  1.
<scales pt_clust_4="550.00000" pt_clust_5="550.00000" pt_clust_6="37.69820"></scales>
<mgrwt>
<rscale>  0 0.30000000E+03</rscale>
<asrwt>  1 0.37698197E+02</asrwt>
<pdfrwt beam="1">  1        1 0.84308239E+00 0.30000000E+03</pdfrwt>
<pdfrwt beam="2">0</pdfrwt>
<totfact> 0.46286272E-04</totfact>
</mgrwt>
<clustering>
<clus scale="   37.698">  1  6  2 -1</clus>
<clus scale="  459.970">  4  5 -1 -1</clus>
<clus scale="  300.000">  1  4  2 -1</clus>
</clustering>
</event>
<event>
 6    1  0.1000035E-011  0.3000000E+03  0.7818608E-02  0.1093470E+00
          1   -1    0    0  502    0  0.00000000000E+00  0.00000000000E+00  0.24659035051E+03  0.24659035051E+03  0.00000000000E+00 0.  1.
         13   -1    0    0    0    0 -0.00000000000E+00 -0.00000000000E+00 -0.27500000000E+03  0.27500000000E+03  0.00000000000E+00 0.  1.
    9000005    2    1    2  501    0  0.14691212424E+02  0.35576834379E+02 -0.42524206613E+02  0.48059323366E+03  0.47715826015E+03 0.  0.
         13    1    3    3    0    0  0.17960353721E+03  0.41114998487E+02  0.14231983993E+03  0.23281497056E+03  0.00000000000E+00 0.  1.
          1    1    3    3  501    0 -0.16491232478E+03 -0.55381641080E+01 -0.18484404654E+03  0.24777826311E+03  0.00000000000E+00 0.  1.
         21    1    1    2  502  501 -0.14691212424E+02 -0.35576834379E+02  0.14114557119E+02  0.40997116845E+02  0.00000000000E+00 0.  1.
<scales pt_clust_4="550.00000" pt_clust_5="550.00000" pt_clust_6="38.49082"></scales>
<mgrwt>
<rscale>  0 0.30000000E+03</rscale>
<asrwt>  1 0.38490815E+02</asrwt>
<pdfrwt beam="1">  1        1 0.89669218E+00 0.30000000E+03</pdfrwt>
<pdfrwt beam="2">0</pdfrwt>
<totfact> 0.11861653E-04</totfact>
</mgrwt>
<clustering>
<clus scale="   38.491">  1  6  2 -1</clus>
<clus scale="  477.158">  4  5 -1 -1</clus>
<clus scale="  300.000">  1  4  2 -1</clus>
</clustering>
</event>
<event>
 6    1  0.1000035E-011  0.3000000E+03  0.7818608E-02  0.1093470E+00
          1   -1    0    0  502    0  0.00000000000E+00  0.00000000000E+00  0.24354419031E+03  0.24354419031E+03  0.00000000000E+00 0.  1.
         13   -1    0    0    0    0 -0.00000000000E+00 -0.00000000000E+00 -0.27500000000E+03  0.27500000000E+03  0.00000000000E+00 0.  1.
    9000005    2    1    2  501    0 -0.24411853858E+02  0.19849371718E+02 -0.50637547946E+02  0.48169483144E+03  0.47799143633E+03 0.  0.
         13    1    3    3    0    0 -0.18245023081E+03  0.17263643143E+03  0.16865217269E+02  0.25174562505E+03  0.00000000000E+00 0.  1.
          1    1    3    3  501    0  0.15803837696E+03 -0.15278705971E+03 -0.67502765215E+02  0.22994920639E+03  0.00000000000E+00 0.  1.
         21    1    1    2  502  501  0.24411853858E+02 -0.19849371718E+02  0.19181738253E+02  0.36849358866E+02  0.00000000000E+00 0.  1.
<scales pt_clust_4="550.00000" pt_clust_5="550.00000" pt_clust_6="31.46325"></scales>
<mgrwt>
<rscale>  0 0.30000000E+03</rscale>
<asrwt>  1 0.31463251E+02</asrwt>
<pdfrwt beam="1">  1        1 0.88561524E+00 0.30000000E+03</pdfrwt>
<pdfrwt beam="2">0</pdfrwt>
<totfact> 0.16982082E-04</totfact>
</mgrwt>
<clustering>
<clus scale="   31.463">  1  6  2 -1</clus>
<clus scale="  477.991">  4  5 -1 -1</clus>
<clus scale="  300.000">  1  4  2 -1</clus>
</clustering>
</event>
<event>
 6    1  0.1000035E-011  0.3000000E+03  0.7818608E-02  0.1093470E+00
          1   -1    0    0  502    0  0.00000000000E+00  0.00000000000E+00  0.24169639504E+03  0.24169639504E+03  0.00000000000E+00 0.  1.
         13   -1    0    0    0    0 -0.00000000000E+00 -0.00000000000E+00 -0.27500000000E+03  0.27500000000E+03  0.00000000000E+00 0.  1.
    9000005    2    1    2  501    0 -0.33315881421E+02  0.99591648291E+01 -0.64252365263E+02  0.47014579157E+03  0.46443467353E+03 0.  0.
         13    1    3    3    0    0 -0.19130930184E+03  0.84450960732E+02  0.98719923808E+02  0.23125059372E+03  0.00000000000E+00 0.  1.
          1    1    3    3  501    0  0.15799342042E+03 -0.74491795903E+02 -0.16297228907E+03  0.23889519785E+03  0.00000000000E+00 0.  1.
         21    1    1    2  502  501  0.33315881421E+02 -0.99591648291E+01  0.30948760307E+02  0.46550603471E+02  0.00000000000E+00 0.  1.
<scales pt_clust_4="550.00000" pt_clust_5="550.00000" pt_clust_6="34.77259"></scales>
<mgrwt>
<rscale>  0 0.30000000E+03</rscale>
<asrwt>  1 0.34772589E+02</asrwt>
<pdfrwt beam="1">  1        1 0.87889598E+00 0.30000000E+03</pdfrwt>
<pdfrwt beam="2">0</pdfrwt>
<totfact> 0.20379009E-04</totfact>
</mgrwt>
<clustering>
<clus scale="   34.773">  1  6  2 -1</clus>
<clus scale="  464.435">  4  5 -1 -1</clus>
<clus scale="  300.000">  1  4  2 -1</clus>
</clustering>
</event>
<event>
 6    1  0.1000035E-011  0.3000000E+03  0.7818608E-02  0.1093470E+00
          1   -1    0    0  502    0  0.00000000000E+00  0.00000000000E+00  0.22618757990E+03  0.22618757990E+03  0.00000000000E+00 0.  1.
         13   -1    0    0    0    0 -0.00000000000E+00 -0.00000000000E+00 -0.27500000000E+03  0.27500000000E+03  0.00000000000E+00 0.  1.
    9000005    2    1    2  501    0  0.26835220317E+00  0.34878521267E+02 -0.50597581538E+02  0.46626237324E+03  0.46219465832E+03 0.  0.
         13    1    3    3    0    0 -0.19792632605E+03 -0.76865926867E+02 -0.97997235816E+02  0.23385178957E+03  0.00000000000E+00 0.  1.
          3    1    3    3  501    0  0.19819467825E+03  0.11174444813E+03  0.47399654277E+02  0.23241058367E+03  0.00000000000E+00 0.  1.
         21    1    1    2  502  501 -0.26835220317E+00 -0.34878521267E+02  0.17851614347E+01  0.34925206657E+02  0.00000000000E+00 0.  1.
<scales pt_clust_4="550.00000" pt_clust_5="550.00000" pt_clust_6="34.87955"></scales>
<mgrwt>
<rscale>  0 0.30000000E+03</rscale>
<asrwt>  1 0.34879554E+02</asrwt>
<pdfrwt beam="1">  1        1 0.82250029E+00 0.30000000E+03</pdfrwt>
<pdfrwt beam="2">0</pdfrwt>
<totfact> 0.68804807E-04</totfact>
</mgrwt>
<clustering>
<clus scale="   34.880">  1  6  2 -1</clus>
<clus scale="  462.195">  4  5 -1 -1</clus>
<clus scale="  300.000">  1  4  2 -1</clus>
</clustering>
</event>
<event>
 6    1  0.1000035E-011  0.3000000E+03  0.7818608E-02  0.1093470E+00
          1   -1    0    0  502    0  0.00000000000E+00  0.00000000000E+00  0.24344922414E+03  0.24344922414E+03  0.00000000000E+00 0.  1.
         13   -1    0    0    0    0 -0.00000000000E+00 -0.00000000000E+00 -0.27500000000E+03  0.27500000000E+03  0.00000000000E+00 0.  1.
    9000005    2    1    2  501    0 -0.31069272213E+02 -0.14235601253E+02 -0.71487883674E+02  0.46588569496E+03  0.45909804099E+03 0.  0.
         13    1    3    3    0    0  0.98555275259E+02 -0.68789286678E+02  0.15691647318E+03  0.19765598346E+03  0.00000000000E+00 0.  1.
          3    1    3    3  501    0 -0.12962454747E+03  0.54553685425E+02 -0.22840435686E+03  0.26822971150E+03  0.00000000000E+00 0.  1.
         21    1    1    2  502  501  0.31069272213E+02  0.14235601253E+02  0.39937107814E+02  0.52563529176E+02  0.00000000000E+00 0.  1.
<scales pt_clust_4="550.00000" pt_clust_5="550.00000" pt_clust_6="34.17531"></scales>
<mgrwt>
<rscale>  0 0.30000000E+03</rscale>
<asrwt>  1 0.34175313E+02</asrwt>
<pdfrwt beam="1">  1        1 0.88526991E+00 0.30000000E+03</pdfrwt>
<pdfrwt beam="2">0</pdfrwt>
<totfact> 0.16902132E-04</totfact>
</mgrwt>
<clustering>
<clus scale="   34.175">  1  6  2 -1</clus>
<clus scale="  459.098">  4  5 -1 -1</clus>
<clus scale="  300.000">  1  4  2 -1</clus>
</clustering>
</event>
<event>
 6    1  0.1000035E-011  0.3000000E+03  0.7818608E-02  0.1093470E+00
          1   -1    0    0  502    0  0.00000000000E+00  0.00000000000E+00  0.24490147853E+03  0.24490147853E+03  0.00000000000E+00 0.  1.
         13   -1    0    0    0    0 -0.00000000000E+00 -0.00000000000E+00 -0.27500000000E+03  0.27500000000E+03  0.00000000000E+00 0.  1.
    9000005    2    1    2  501    0  0.23072483088E+02 -0.23858228461E+02 -0.46189646374E+02  0.48301680906E+03  0.47965633516E+03 0.  0.
         13    1    3    3    0    0 -0.42452974498E+02  0.22178943119E+03 -0.35197362989E+02  0.22854247131E+03  0.00000000000E+00 0.  1.
          3    1    3    3  501    0  0.65525457587E+02 -0.24564765965E+03 -0.10992283384E+02  0.25447433776E+03  0.00000000000E+00 0.  1.
         21    1    1    2  502  501 -0.23072483088E+02  0.23858228461E+02  0.16091124905E+02  0.36884669469E+02  0.00000000000E+00 0. -1.
<scales pt_clust_4="550.00000" pt_clust_5="550.00000" pt_clust_6="33.18968"></scales>
<mgrwt>
<rscale>  0 0.30000000E+03</rscale>
<asrwt>  1 0.33189675E+02</asrwt>
<pdfrwt beam="1">  1        1 0.89055083E+00 0.30000000E+03</pdfrwt>
<pdfrwt beam="2">0</pdfrwt>
<totfact> 0.14397866E-04</totfact>
</mgrwt>
<clustering>
<clus scale="   33.190">  1  6  2 -1</clus>
<clus scale="  479.656">  4  5 -1 -1</clus>
<clus scale="  300.000">  1  4  2 -1</clus>
</clustering>
</event>
<event>
 6    1  0.1000035E-011  0.3000000E+03  0.7818608E-02  0.1093470E+00
          1   -1    0    0  502    0  0.00000000000E+00  0.00000000000E+00  0.24629172352E+03  0.24629172352E+03  0.00000000000E+00 0.  1.
         13   -1    0    0    0    0 -0.00000000000E+00 -0.00000000000E+00 -0.27500000000E+03  0.27500000000E+03  0.00000000000E+00 0.  1.
    9000005    2    1    2  501    0  0.10528395326E+02  0.37842002258E+02 -0.39378824160E+02  0.48058883872E+03  0.47735948285E+03 0.  0.
         13    1    3    3    0    0 -0.11668183092E+03  0.21253572083E+03  0.48569344074E+02  0.24727527875E+03  0.00000000000E+00 0.  1.
          1    1    3    3  501    0  0.12721022625E+03 -0.17469371857E+03 -0.87948168234E+02  0.23331355997E+03  0.00000000000E+00 0.  1.
         21    1    1    2  502  501 -0.10528395326E+02 -0.37842002258E+02  0.10670547677E+02  0.40702884796E+02  0.00000000000E+00 0.  1.
<scales pt_clust_4="550.00000" pt_clust_5="550.00000" pt_clust_6="39.27931"></scales>
<mgrwt>
<rscale>  0 0.30000000E+03</rscale>
<asrwt>  1 0.39279311E+02</asrwt>
<pdfrwt beam="1">  1        1 0.89560627E+00 0.30000000E+03</pdfrwt>
<pdfrwt beam="2">0</pdfrwt>
<totfact> 0.12151733E-04</totfact>
</mgrwt>
<clustering>
<clus scale="   39.279">  1  6  2 -1</clus>
<clus scale="  477.359">  4  5 -1 -1</clus>
<clus scale="  300.000">  1  4  2 -1</clus>
</clustering>
</event>
<event>
 6    1  0.1000035E-011  0.3000000E+03  0.7818608E-02  0.1093470E+00
          1   -1    0    0  502    0  0.00000000000E+00  0.00000000000E+00  0.23892363795E+03  0.23892363795E+03  0.00000000000E+00 0.  1.
         13   -1    0    0    0    0 -0.00000000000E+00 -0.00000000000E+00 -0.27500000000E+03  0.27500000000E+03  0.00000000000E+00 0.  1.
    9000005    2    1    2  501    0  0.36756987869E+01  0.40913962734E+02 -0.41612744288E+02  0.47247349155E+03  0.46884124885E+03 0.  0.
         13    1    3    3    0    0  0.43469384587E+02 -0.20723988329E+03 -0.61117532505E+02  0.22039353303E+03  0.00000000000E+00 0.  1.
          3    1    3    3  501    0 -0.39793685800E+02  0.24815384602E+03  0.19504788217E+02  0.25207995852E+03  0.00000000000E+00 0.  1.
         21    1    1    2  502  501 -0.36756987869E+01 -0.40913962734E+02  0.55363822383E+01  0.41450146399E+02  0.00000000000E+00 0.  1.
<scales pt_clust_4="550.00000" pt_clust_5="550.00000" pt_clust_6="41.07874"></scales>
<mgrwt>
<rscale>  0 0.30000000E+03</rscale>
<asrwt>  1 0.41078743E+02</asrwt>
<pdfrwt beam="1">  1        1 0.86881323E+00 0.30000000E+03</pdfrwt>
<pdfrwt beam="2">0</pdfrwt>
<totfact> 0.25287896E-04</totfact>
</mgrwt>
<clustering>
<clus scale="   41.079">  1  6  2 -1</clus>
<clus scale="  468.841">  4  5 -1 -1</clus>
<clus scale="  300.000">  1  4  2 -1</clus>
</clustering>
</event>
<event>
 6    1  0.1000035E-011  0.3000000E+03  0.7818608E-02  0.1093470E+00
          1   -1    0    0  502    0  0.00000000000E+00  0.00000000000E+00  0.23038314770E+03  0.23038314770E+03  0.00000000000E+00 0.  1.
         13   -1    0    0    0    0 -0.00000000000E+00 -0.00000000000E+00 -0.27500000000E+03  0.27500000000E+03  0.00000000000E+00 0.  1.
    9000005    2    1    2  501    0  0.91363764469E+01  0.30290058104E+02 -0.57865714129E+02  0.47108309910E+03  0.46644387056E+03 0.  0.
         13    1    3    3    0    0 -0.16969049740E+03 -0.88469952277E+02 -0.14429037922E+03  0.23966958693E+03  0.00000000000E+00 0.  1.
          3    1    3    3  501    0  0.17882687385E+03  0.11876001038E+03  0.86424665087E+02  0.23141351216E+03  0.00000000000E+00 0.  1.
         21    1    1    2  502  501 -0.91363764469E+01 -0.30290058104E+02  0.13248861829E+02  0.34300048605E+02  0.00000000000E+00 0. -1.
<scales pt_clust_4="550.00000" pt_clust_5="550.00000" pt_clust_6="31.63797"></scales>
<mgrwt>
<rscale>  0 0.30000000E+03</rscale>
<asrwt>  1 0.31637968E+02</asrwt>
<pdfrwt beam="1">  1        1 0.83775690E+00 0.30000000E+03</pdfrwt>
<pdfrwt beam="2">0</pdfrwt>
<totfact> 0.52652922E-04</totfact>
</mgrwt>
<clustering>
<clus scale="   31.638">  1  6  2 -1</clus>
<clus scale="  466.444">  4  5 -1 -1</clus>
<clus scale="  300.000">  1  4  2 -1</clus>
</clustering>
</event>
<event>
 6    1  0.1000035E-011  0.3000000E+03  0.7818608E-02  0.1093470E+00
          1   -1    0    0  502    0  0.00000000000E+00  0.00000000000E+00  0.23562302205E+03  0.23562302205E+03  0.00000000000E+00 0.  1.
         13   -1    0    0    0    0 -0.00000000000E+00 -0.00000000000E+00 -0.27500000000E+03  0.27500000000E+03  0.00000000000E+00 0.  1.
    9000005    2    1    2  501    0 -0.41154713187E+02 -0.56824310141E+01 -0.58423374495E+02  0.46492000616E+03  0.45935968587E+03 0.  0.
         13    1    3    3    0    0 -0.30837252019E+01 -0.21328518419E+03  0.61718848708E+02  0.22205696441E+03  0.00000000000E+00 0.  1.
          3    1    3    3  501    0 -0.38070987985E+02  0.20760275318E+03 -0.12014222320E+03  0.24286304175E+03  0.00000000000E+00 0.  1.
         21    1    1    2  502  501  0.41154713187E+02  0.56824310141E+01  0.19046396542E+02  0.45703015885E+02  0.00000000000E+00 0. -1.
<scales pt_clust_4="550.00000" pt_clust_5="550.00000" pt_clust_6="41.54516"></scales>
<mgrwt>
<rscale>  0 0.30000000E+03</rscale>
<asrwt>  1 0.41545161E+02</asrwt>
<pdfrwt beam="1">  1        1 0.85681099E+00 0.30000000E+03</pdfrwt>
<pdfrwt beam="2">0</pdfrwt>
<totfact> 0.33847770E-04</totfact>
</mgrwt>
<clustering>
<clus scale="   41.545">  1  6  2 -1</clus>
<clus scale="  459.360">  4  5 -1 -1</clus>
<clus scale="  300.000">  1  4  2 -1</clus>
</clustering>
</event>
<event>
 6    1  0.1000035E-011  0.3000000E+03  0.7818608E-02  0.1093470E+00
          1   -1    0    0  502    0  0.00000000000E+00  0.00000000000E+00  0.25564259299E+03  0.25564259299E+03  0.00000000000E+00 0.  1.
         13   -1    0    0    0    0 -0.00000000000E+00 -0.00000000000E+00 -0.27500000000E+03  0.27500000000E+03  0.00000000000E+00 0.  1.
    9000005    2    1    2  501    0  0.25778921201E+02  0.33097084241E+02 -0.48469747708E+02  0.47957892543E+03  0.47527535126E+03 0.  0.
         13    1    3    3    0    0  0.15001173666E+03 -0.12922547673E+03 -0.15278536300E+03  0.25009220723E+03  0.00000000000E+00 0.  1.
          1    1    3    3  501    0 -0.12423281546E+03  0.16232256097E+03  0.10431561530E+03  0.22948671820E+03  0.00000000000E+00 0.  1.
         21    1    1    2  502  501 -0.25778921201E+02 -0.33097084241E+02  0.29112340697E+02  0.51063667557E+02  0.00000000000E+00 0.  1.
<scales pt_clust_4="550.00000" pt_clust_5="550.00000" pt_clust_6="41.95199"></scales>
<mgrwt>
<rscale>  0 0.30000000E+03</rscale>
<asrwt>  1 0.41951994E+02</asrwt>
<pdfrwt beam="1">  1        1 0.92960943E+00 0.30000000E+03</pdfrwt>
<pdfrwt beam="2">0</pdfrwt>
<totfact> 0.25803984E-05</totfact>
</mgrwt>
<clustering>
<clus scale="   41.952">  1  6  2 -1</clus>
<clus scale="  475.275">  4  5 -1 -1</clus>
<clus scale="  300.000">  1  4  2 -1</clus>
</clustering>
</event>
<event>
 6    1  0.1000035E-011  0.3000000E+03  0.7818608E-02  0.1093470E+00
          1   -1    0    0  502    0  0.00000000000E+00  0.00000000000E+00  0.22961415732E+03  0.22961415732E+03  0.00000000000E+00 0.  1.
         13   -1    0    0    0    0 -0.00000000000E+00 -0.00000000000E+00 -0.27500000000E+03  0.27500000000E+03  0.00000000000E+00 0.  1.
    9000005    2    1    2  501    0 -0.13830490271E+02  0.30811431597E+02 -0.69609769254E+02  0.46305184991E+03  0.45654229701E+03 0.  0.
         13    1    3    3    0    0 -0.21541567361E+03 -0.29110999132E+02  0.47267395430E+02  0.22245352184E+03  0.00000000000E+00 0.  1.
          1    1    3    3  501    0  0.20158518334E+03  0.59922430729E+02 -0.11687716468E+03  0.24059832807E+03  0.00000000000E+00 0.  1.
         21    1    1    2  502  501  0.13830490271E+02 -0.30811431597E+02  0.24223926574E+02  0.41562307406E+02  0.00000000000E+00 0.  1.
<scales pt_clust_4="550.00000" pt_clust_5="550.00000" pt_clust_6="33.77317"></scales>
<mgrwt>
<rscale>  0 0.30000000E+03</rscale>
<asrwt>  1 0.33773167E+02</asrwt>
<pdfrwt beam="1">  1        1 0.83496057E+00 0.30000000E+03</pdfrwt>
<pdfrwt beam="2">0</pdfrwt>
<totfact> 0.54498567E-04</totfact>
</mgrwt>
<clustering>
<clus scale="   33.773">  1  6  2 -1</clus>
<clus scale="  456.542">  4  5 -1 -1</clus>
<clus scale="  300.000">  1  4  2 -1</clus>
</clustering>
</event>
<event>
 6    1  0.1000035E-011  0.3000000E+03  0.7818608E-02  0.1093470E+00
          1   -1    0    0  502    0  0.00000000000E+00  0.00000000000E+00  0.23983169344E+03  0.23983169344E+03  0.00000000000E+00 0.  1.
         13   -1    0    0    0    0 -0.00000000000E+00 -0.00000000000E+00 -0.27500000000E+03  0.27500000000E+03  0.00000000000E+00 0.  1.
    9000005    2    1    2  501    0  0.46253583731E+02  0.35588479176E+00 -0.52848166851E+02  0.46531302906E+03  0.45998235359E+03 0.  0.
         13    1    3    3    0    0 -0.87609796308E+02  0.12470538483E+02 -0.22797728523E+03  0.24454985855E+03  0.00000000000E+00 0.  1.
          1    1    3    3  501    0  0.13386338004E+03 -0.12114653691E+02  0.17512911838E+03  0.22076317051E+03  0.00000000000E+00 0.  1.
         21    1    1    2  502  501 -0.46253583731E+02 -0.35588479176E+00  0.17679860291E+02  0.49518664379E+02  0.00000000000E+00 0.  1.
<scales pt_clust_4="550.00000" pt_clust_5="550.00000" pt_clust_6="46.25495"></scales>
<mgrwt>
<rscale>  0 0.30000000E+03</rscale>
<asrwt>  1 0.46254953E+02</asrwt>
<pdfrwt beam="1">  1        1 0.87211525E+00 0.30000000E+03</pdfrwt>
<pdfrwt beam="2">0</pdfrwt>
<totfact> 0.22901872E-04</totfact>
</mgrwt>
<clustering>
<clus scale="   46.255">  1  6  2 -1</clus>
<clus scale="  459.982">  4  5 -1 -1</clus>
<clus scale="  300.000">  1  4  2 -1</clus>
</clustering>
</event>
<event>
 6    1  0.1000035E-011  0.3000000E+03  0.7818608E-02  0.1093470E+00
          1   -1    0    0  502    0  0.00000000000E+00  0.00000000000E+00  0.21899128073E+03  0.21899128073E+03  0.00000000000E+00 0.  1.
         13   -1    0    0    0    0 -0.00000000000E+00 -0.00000000000E+00 -0.27500000000E+03  0.27500000000E+03  0.00000000000E+00 0.  1.
    9000005    2    1    2  501    0 -0.29672428574E+02  0.14061285655E+02 -0.51694425853E+02  0.46087352266E+03  0.45678651190E+03 0.  0.
         13    1    3    3    0    0 -0.23496265966E+03 -0.55075519896E+02 -0.25410818421E+02  0.24266535398E+03  0.00000000000E+00 0.  1.
          1    1    3    3  501    0  0.20529023109E+03  0.69136805551E+02 -0.26283607432E+02  0.21820816869E+03  0.00000000000E+00 0.  1.
         21    1    1    2  502  501  0.29672428574E+02 -0.14061285655E+02 -0.43142934173E+01  0.33117758068E+02  0.00000000000E+00 0.  1.
<scales pt_clust_4="550.00000" pt_clust_5="550.00000" pt_clust_6="32.83556"></scales>
<mgrwt>
<rscale>  0 0.30000000E+03</rscale>
<asrwt>  1 0.32835558E+02</asrwt>
<pdfrwt beam="1">  1        1 0.79633193E+00 0.30000000E+03</pdfrwt>
<pdfrwt beam="2">0</pdfrwt>
<totfact> 0.11160538E-03</totfact>
</mgrwt>
<clustering>
<clus scale="   32.836">  1  6  2 -1</clus>
<clus scale="  456.787">  4  5 -1 -1</clus>
<clus scale="  300.000">  1  4  2 -1</clus>
</clustering>
</event>
<event>
 6    1  0.1000035E-011  0.3000000E+03  0.7818608E-02  0.1093470E+00
          1   -1    0    0  502    0  0.00000000000E+00  0.00000000000E+00  0.22709637166E+03  0.22709637166E+03  0.00000000000E+00 0.  1.
         13   -1    0    0    0    0 -0.00000000000E+00 -0.00000000000E+00 -0.27500000000E+03  0.27500000000E+03  0.00000000000E+00 0.  1.
    9000005    2    1    2  501    0  0.28413682297E+02 -0.10138853760E+02 -0.68060575673E+02  0.46581364543E+03  0.45982602863E+03 0.  0.
         13    1    3    3    0    0  0.63065850134E+02  0.16572180516E+03  0.11362102681E+03  0.21059619154E+03  0.00000000000E+00 0.  1.
          3    1    3    3  501    0 -0.34652167837E+02 -0.17586065892E+03 -0.18168160248E+03  0.25521745389E+03  0.00000000000E+00 0.  1.
         21    1    1    2  502  501 -0.28413682297E+02  0.10138853760E+02  0.20156947334E+02  0.36282726235E+02  0.00000000000E+00 0. -1.
<scales pt_clust_4="550.00000" pt_clust_5="550.00000" pt_clust_6="30.16842"></scales>
<mgrwt>
<rscale>  0 0.30000000E+03</rscale>
<asrwt>  1 0.30168422E+02</asrwt>
<pdfrwt beam="1">  1        1 0.82580499E+00 0.30000000E+03</pdfrwt>
<pdfrwt beam="2">0</pdfrwt>
<totfact> 0.66083348E-04</totfact>
</mgrwt>
<clustering>
<clus scale="   30.168">  1  6  2 -1</clus>
<clus scale="  459.826">  4  5 -1 -1</clus>
<clus scale="  300.000">  1  4  2 -1</clus>
</clustering>
</event>
<event>
 6    1  0.1000035E-011  0.3000000E+03  0.7818608E-02  0.1093470E+00
          1   -1    0    0  502    0  0.00000000000E+00  0.00000000000E+00  0.24926642675E+03  0.24926642675E+03  0.00000000000E+00 0.  1.
         13   -1    0    0    0    0 -0.00000000000E+00 -0.00000000000E+00 -0.27500000000E+03  0.27500000000E+03  0.00000000000E+00 0.  1.
    9000005    2    1    2  501    0 -0.11027712366E+02  0.37890971081E+02 -0.50447661006E+02  0.47770332695E+03  0.47339007800E+03 0.  0.
         13    1    3    3    0    0 -0.18710703617E+03 -0.12225285709E+03  0.32064803811E+02  0.22579405593E+03  0.00000000000E+00 0.  1.
          3    1    3    3  501    0  0.17607932380E+03  0.16014382817E+03 -0.82512464817E+02  0.25190927101E+03  0.00000000000E+00 0.  1.
         21    1    1    2  502  501  0.11027712366E+02 -0.37890971081E+02  0.24714087752E+02  0.46563099799E+02  0.00000000000E+00 0. -1.
<scales pt_clust_4="550.00000" pt_clust_5="550.00000" pt_clust_6="39.46310"></scales>
<mgrwt>
<rscale>  0 0.30000000E+03</rscale>
<asrwt>  1 0.39463098E+02</asrwt>
<pdfrwt beam="1">  1        1 0.90642337E+00 0.30000000E+03</pdfrwt>
<pdfrwt beam="2">0</pdfrwt>
<totfact> 0.84737468E-05</totfact>
</mgrwt>
<clustering>
<clus scale="   39.463">  1  6  2 -1</clus>
<clus scale="  473.390">  4  5 -1 -1</clus>
<clus scale="  300.000">  1  4  2 -1</clus>
</clustering>
</event>
<event>
 6    1  0.1000035E-011  0.3000000E+03  0.7818608E-02  0.1093470E+00
          1   -1    0    0  502    0  0.00000000000E+00  0.00000000000E+00  0.23454965439E+03  0.23454965439E+03  0.00000000000E+00 0.  1.
         13   -1    0    0    0    0 -0.00000000000E+00 -0.00000000000E+00 -0.27500000000E+03  0.27500000000E+03  0.00000000000E+00 0.  1.
    9000005    2    1    2  501    0  0.64206101602E+01 -0.31095048742E+02 -0.54926106648E+02  0.47465446921E+03  0.47039543116E+03 0.  0.
         13    1    3    3    0    0 -0.19011232004E+03  0.11665398515E+03 -0.15632245243E+01  0.22305445558E+03  0.00000000000E+00 0.  1.
          3    1    3    3  501    0  0.19653293020E+03 -0.14774903389E+03 -0.53362882123E+02  0.25160001363E+03  0.00000000000E+00 0.  1.
         21    1    1    2  502  501 -0.64206101602E+01  0.31095048742E+02  0.14475761036E+02  0.34895185179E+02  0.00000000000E+00 0.  1.
<scales pt_clust_4="550.00000" pt_clust_5="550.00000" pt_clust_6="31.75100"></scales>
<mgrwt>
<rscale>  0 0.30000000E+03</rscale>
<asrwt>  1 0.31751005E+02</asrwt>
<pdfrwt beam="1">  1        1 0.85290783E+00 0.30000000E+03</pdfrwt>
<pdfrwt beam="2">0</pdfrwt>
<totfact> 0.38893420E-04</totfact>
</mgrwt>
<clustering>
<clus scale="   31.751">  1  6  2 -1</clus>
<clus scale="  470.395">  4  5 -1 -1</clus>
<clus scale="  300.000">  1  4  2 -1</clus>
</clustering>
</event>
<event>
 6    1  0.1000035E-011  0.3000000E+03  0.7818608E-02  0.1093470E+00
          1   -1    0    0  502    0  0.00000000000E+00  0.00000000000E+00  0.24929424151E+03  0.24929424151E+03  0.00000000000E+00 0.  1.
         13   -1    0    0    0    0 -0.00000000000E+00 -0.00000000000E+00 -0.27500000000E+03  0.27500000000E+03  0.00000000000E+00 0.  1.
    9000005    2    1    2  501    0 -0.24802874879E+02  0.28640276688E+02 -0.52155913403E+02  0.47808754561E+03  0.47372145182E+03 0.  0.
         13    1    3    3    0    0 -0.72700201096E+02 -0.20884119116E+03 -0.77915288590E+02  0.23445842822E+03  0.00000000000E+00 0.  1.
          1    1    3    3  501    0  0.47897326217E+02  0.23748146785E+03  0.25759375187E+02  0.24362911739E+03  0.00000000000E+00 0.  1.
         21    1    1    2  502  501  0.24802874879E+02 -0.28640276688E+02  0.26450154910E+02  0.46206695898E+02  0.00000000000E+00 0.  1.
<scales pt_clust_4="550.00000" pt_clust_5="550.00000" pt_clust_6="37.88731"></scales>
<mgrwt>
<rscale>  0 0.30000000E+03</rscale>
<asrwt>  1 0.37887307E+02</asrwt>
<pdfrwt beam="1">  1        1 0.90652451E+00 0.30000000E+03</pdfrwt>
<pdfrwt beam="2">0</pdfrwt>
<totfact> 0.84960566E-05</totfact>
</mgrwt>
<clustering>
<clus scale="   37.887">  1  6  2 -1</clus>
<clus scale="  473.721">  4  5 -1 -1</clus>
<clus scale="  300.000">  1  4  2 -1</clus>
</clustering>
</event>
<event>
 6    1  0.1000035E-011  0.3000000E+03  0.7818608E-02  0.1093470E+00
          1   -1    0    0  502    0  0.00000000000E+00  0.00000000000E+00  0.24176566054E+03  0.24176566054E+03  0.00000000000E+00 0.  1.
         13   -1    0    0    0    0 -0.00000000000E+00 -0.00000000000E+00 -0.27500000000E+03  0.27500000000E+03  0.00000000000E+00 0.  1.
    9000005    2    1    2  501    0 -0.19116095604E+02 -0.28497899845E+02 -0.36108510431E+02  0.48232997751E+03  0.47975079706E+03 0.  0.
         13    1    3    3    0    0  0.98362423945E+01 -0.11513165509E+03 -0.23588207165E+03  0.26266404664E+03  0.00000000000E+00 0.  1.
          1    1    3    3  501    0 -0.28952337998E+02  0.86633755247E+02  0.19977356122E+03  0.21966593088E+03  0.00000000000E+00 0.  1.
         21    1    1    2  502  501  0.19116095604E+02  0.28497899845E+02  0.28741709712E+01  0.34435683026E+02  0.00000000000E+00 0.  1.
<scales pt_clust_4="550.00000" pt_clust_5="550.00000" pt_clust_6="34.31553"></scales>
<mgrwt>
<rscale>  0 0.30000000E+03</rscale>
<asrwt>  1 0.34315527E+02</asrwt>
<pdfrwt beam="1">  1        1 0.87914786E+00 0.30000000E+03</pdfrwt>
<pdfrwt beam="2">0</pdfrwt>
<totfact> 0.20288875E-04</totfact>
</mgrwt>
<clustering>
<clus scale="   34.316">  1  6  2 -1</clus>
<clus scale="  479.751">  4  5 -1 -1</clus>
<clus scale="  300.000">  1  4  2 -1</clus>
</clustering>
</event>
<event>
 6    1  0.1000035E-011  0.3000000E+03  0.7818608E-02  0.1093470E+00
          1   -1    0    0  502    0  0.00000000000E+00  0.00000000000E+00  0.23080460532E+03  0.23080460532E+03  0.00000000000E+00 0.  1.
         13   -1    0    0    0    0 -0.00000000000E+00 -0.00000000000E+00 -0.27500000000E+03  0.27500000000E+03  0.00000000000E+00 0.  1.
    9000005    2    1    2  501    0 -0.33070986241E+01  0.30509920748E+02 -0.54311653277E+02  0.47349159163E+03  0.46936418643E+03 0.  0.
         13    1    3    3    0    0 -0.16654865139E+03 -0.15190947994E+03 -0.32002648847E+02  0.22768204345E+03  0.00000000000E+00 0.  1.
          1    1    3    3  501    0  0.16324155277E+03  0.18241940069E+03 -0.22309004429E+02  0.24580954818E+03  0.00000000000E+00 0.  1.
         21    1    1    2  502  501  0.33070986241E+01 -0.30509920748E+02  0.10116258595E+02  0.32313013684E+02  0.00000000000E+00 0. -1.
<scales pt_clust_4="550.00000" pt_clust_5="550.00000" pt_clust_6="30.68863"></scales>
<mgrwt>
<rscale>  0 0.30000000E+03</rscale>
<asrwt>  1 0.30688633E+02</asrwt>
<pdfrwt beam="1">  1        1 0.83928947E+00 0.30000000E+03</pdfrwt>
<pdfrwt beam="2">0</pdfrwt>
<totfact> 0.51594148E-04</totfact>
</mgrwt>
<clustering>
<clus scale="   30.689">  1  6  2 -1</clus>
<clus scale="  469.364">  4  5 -1 -1</clus>
<clus scale="  300.000">  1  4  2 -1</clus>
</clustering>
</event>
<event>
 6    1  0.1000035E-011  0.3000000E+03  0.7818608E-02  0.1093470E+00
          1   -1    0    0  502    0  0.00000000000E+00  0.00000000000E+00  0.24768527282E+03  0.24768527282E+03  0.00000000000E+00 0.  1.
         13   -1    0    0    0    0 -0.00000000000E+00 -0.00000000000E+00 -0.27500000000E+03  0.27500000000E+03  0.00000000000E+00 0.  1.
    9000005    2    1    2  501    0 -0.15246160471E+02  0.33026751380E+02 -0.33324970864E+02  0.48581611573E+03  0.48330480331E+03 0.  0.
         13    1    3    3    0    0 -0.26539577890E+02  0.47075959195E+02 -0.25639022089E+03  0.26202374033E+03  0.00000000000E+00 0.  1.
          3    1    3    3  501    0  0.11293417419E+02 -0.14049207815E+02  0.22306525002E+03  0.22379237540E+03  0.00000000000E+00 0.  1.
         21    1    1    2  502  501  0.15246160471E+02 -0.33026751380E+02  0.60102436869E+01  0.36869157096E+02  0.00000000000E+00 0.  1.
<scales pt_clust_4="550.00000" pt_clust_5="550.00000" pt_clust_6="36.37598"></scales>
<mgrwt>
<rscale>  0 0.30000000E+03</rscale>
<asrwt>  1 0.36375977E+02</asrwt>
<pdfrwt beam="1">  1        1 0.90067372E+00 0.30000000E+03</pdfrwt>
<pdfrwt beam="2">0</pdfrwt>
<totfact> 0.10749062E-04</totfact>
</mgrwt>
<clustering>
<clus scale="   36.376">  1  6  2 -1</clus>
<clus scale="  483.305">  4  5 -1 -1</clus>
<clus scale="  300.000">  1  4  2 -1</clus>
</clustering>
</event>
<event>
 6    1  0.1000035E-011  0.3000000E+03  0.7818608E-02  0.1093470E+00
          1   -1    0    0  502    0  0.00000000000E+00  0.00000000000E+00  0.23428193125E+03  0.23428193125E+03  0.00000000000E+00 0.  1.
         13   -1    0    0    0    0 -0.00000000000E+00 -0.00000000000E+00 -0.27500000000E+03  0.27500000000E+03  0.00000000000E+00 0.  1.
    9000005    2    1    2  501    0 -0.13777876647E+02  0.27812199264E+02 -0.70736438600E+02  0.46610264407E+03  0.45965713608E+03 0.  0.
         13    1    3    3    0    0  0.67399603596E+02 -0.77422516485E+02 -0.23403353644E+03  0.25555556891E+03  0.00000000000E+00 0.  1.
          3    1    3    3  501    0 -0.81177480243E+02  0.10523471575E+03  0.16329709784E+03  0.21054707516E+03  0.00000000000E+00 0.  1.
         21    1    1    2  502  501  0.13777876647E+02 -0.27812199264E+02  0.30018369852E+02  0.43179287180E+02  0.00000000000E+00 0. -1.
<scales pt_clust_4="550.00000" pt_clust_5="550.00000" pt_clust_6="31.03785"></scales>
<mgrwt>
<rscale>  0 0.30000000E+03</rscale>
<asrwt>  1 0.31037853E+02</asrwt>
<pdfrwt beam="1">  1        1 0.85193430E+00 0.30000000E+03</pdfrwt>
<pdfrwt beam="2">0</pdfrwt>
<totfact> 0.39912923E-04</totfact>
</mgrwt>
<clustering>
<clus scale="   31.038">  1  6  2 -1</clus>
<clus scale="  459.657">  4  5 -1 -1</clus>
<clus scale="  300.000">  1  4  2 -1</clus>
</clustering>
</event>
<event>
 6    1  0.1000035E-011  0.3000000E+03  0.7818608E-02  0.1093470E+00
          1   -1    0    0  502    0  0.00000000000E+00  0.00000000000E+00  0.22380852221E+03  0.22380852221E+03  0.00000000000E+00 0.  1.
         13   -1    0    0    0    0 -0.00000000000E+00 -0.00000000000E+00 -0.27500000000E+03  0.27500000000E+03  0.00000000000E+00 0.  1.
    9000005    2    1    2  501    0 -0.27813141465E+02  0.19036538038E+02 -0.29580231907E+02  0.45877095776E+03  0.45657402570E+03 0.  0.
         13    1    3    3    0    0 -0.23047082865E+03 -0.27668010486E+02 -0.78654662097E+02  0.24508952963E+03  0.00000000000E+00 0.  1.
          3    1    3    3  501    0  0.20265768719E+03  0.46704548524E+02  0.49074430190E+02  0.21368142813E+03  0.00000000000E+00 0.  1.
         21    1    1    2  502  501  0.27813141465E+02 -0.19036538038E+02 -0.21611245881E+02  0.40037564451E+02  0.00000000000E+00 0.  1.
<scales pt_clust_4="550.00000" pt_clust_5="550.00000" pt_clust_6="33.70403"></scales>
<mgrwt>
<rscale>  0 0.30000000E+03</rscale>
<asrwt>  1 0.33704032E+02</asrwt>
<pdfrwt beam="1">  1        1 0.81384917E+00 0.30000000E+03</pdfrwt>
<pdfrwt beam="2">0</pdfrwt>
<totfact> 0.81897203E-04</totfact>
</mgrwt>
<clustering>
<clus scale="   33.704">  1  6  2 -1</clus>
<clus scale="  456.574">  4  5 -1 -1</clus>
<clus scale="  300.000">  1  4  2 -1</clus>
</clustering>
</event>
<event>
 6    1  0.1000035E-011  0.3000000E+03  0.7818608E-02  0.1093470E+00
          1   -1    0    0  502    0  0.00000000000E+00  0.00000000000E+00  0.22398072626E+03  0.22398072626E+03  0.00000000000E+00 0.  1.
         13   -1    0    0    0    0 -0.00000000000E+00 -0.00000000000E+00 -0.27500000000E+03  0.27500000000E+03  0.00000000000E+00 0.  1.
    9000005    2    1    2  501    0 -0.13487058787E+02 -0.27426546974E+02 -0.57233500283E+02  0.46779206093E+03  0.46327057157E+03 0.  0.
         13    1    3    3    0    0 -0.20298839265E+03 -0.13017979606E+03  0.11821387470E+02  0.24143490231E+03  0.00000000000E+00 0.  1.
          3    1    3    3  501    0  0.18950133386E+03  0.10275324909E+03 -0.69054887753E+02  0.22635715862E+03  0.00000000000E+00 0.  1.
         21    1    1    2  502  501  0.13487058787E+02  0.27426546974E+02  0.62142265448E+01  0.31188665332E+02  0.00000000000E+00 0. -1.
<scales pt_clust_4="550.00000" pt_clust_5="550.00000" pt_clust_6="30.56332"></scales>
<mgrwt>
<rscale>  0 0.30000000E+03</rscale>
<asrwt>  1 0.30563315E+02</asrwt>
<pdfrwt beam="1">  1        1 0.81447537E+00 0.30000000E+03</pdfrwt>
<pdfrwt beam="2">0</pdfrwt>
<totfact> 0.82474300E-04</totfact>
</mgrwt>
<clustering>
<clus scale="   30.563">  1  6  2 -1</clus>
<clus scale="  463.271">  4  5 -1 -1</clus>
<clus scale="  300.000">  1  4  2 -1</clus>
</clustering>
</event>
<event>
 6    1  0.1000035E-011  0.3000000E+03  0.7818608E-02  0.1093470E+00
          1   -1    0    0  502    0  0.00000000000E+00  0.00000000000E+00  0.24627983069E+03  0.24627983069E+03  0.00000000000E+00 0.  1.
         13   -1    0    0    0    0 -0.00000000000E+00 -0.00000000000E+00 -0.27500000000E+03  0.27500000000E+03  0.00000000000E+00 0.  1.
    9000005    2    1    2  501    0  0.29947066426E+02  0.23491337635E+02 -0.62352333776E+02  0.47048817568E+03  0.46478235788E+03 0.  0.
         13    1    3    3    0    0  0.23603671697E+02  0.24309017726E+03 -0.89349550221E+01  0.24439681058E+03  0.00000000000E+00 0.  1.
          3    1    3    3  501    0  0.63433947290E+01 -0.21959883963E+03 -0.53417378754E+02  0.22609136511E+03  0.00000000000E+00 0.  1.
         21    1    1    2  502  501 -0.29947066426E+02 -0.23491337635E+02  0.33632164466E+02  0.50791655005E+02  0.00000000000E+00 0.  1.
<scales pt_clust_4="550.00000" pt_clust_5="550.00000" pt_clust_6="38.06139"></scales>
<mgrwt>
<rscale>  0 0.30000000E+03</rscale>
<asrwt>  1 0.38061394E+02</asrwt>
<pdfrwt beam="1">  1        1 0.89556302E+00 0.30000000E+03</pdfrwt>
<pdfrwt beam="2">0</pdfrwt>
<totfact> 0.12235793E-04</totfact>
</mgrwt>
<clustering>
<clus scale="   38.061">  1  6  2 -1</clus>
<clus scale="  464.782">  4  5 -1 -1</clus>
<clus scale="  300.000">  1  4  2 -1</clus>
</clustering>
</event>
<event>
 6    1  0.1000035E-011  0.3000000E+03  0.7818608E-02  0.1093470E+00
          1   -1    0    0  502    0  0.00000000000E+00  0.00000000000E+00  0.22785674227E+03  0.22785674227E+03  0.00000000000E+00 0.  1.
         13   -1    0    0    0    0 -0.00000000000E+00 -0.00000000000E+00 -0.27500000000E+03  0.27500000000E+03  0.00000000000E+00 0.  1.
    9000005    2    1    2  501    0  0.26559764131E+02 -0.18073098280E+02 -0.61685752595E+02  0.46759284985E+03  0.46239148262E+03 0.  0.
         13    1    3    3    0    0  0.10922262198E+03 -0.18428917314E+03 -0.15049846849E+03  0.26180502193E+03  0.00000000000E+00 0.  1.
          3    1    3    3  501    0 -0.82662857853E+02  0.16621607486E+03  0.88812715898E+02  0.20578782791E+03  0.00000000000E+00 0.  1.
         21    1    1    2  502  501 -0.26559764131E+02  0.18073098280E+02  0.14542494867E+02  0.35263892427E+02  0.00000000000E+00 0.  1.
<scales pt_clust_4="550.00000" pt_clust_5="550.00000" pt_clust_6="32.12566"></scales>
<mgrwt>
<rscale>  0 0.30000000E+03</rscale>
<asrwt>  1 0.32125659E+02</asrwt>
<pdfrwt beam="1">  1        1 0.82856997E+00 0.30000000E+03</pdfrwt>
<pdfrwt beam="2">0</pdfrwt>
<totfact> 0.61753079E-04</totfact>
</mgrwt>
<clustering>
<clus scale="   32.126">  1  6  2 -1</clus>
<clus scale="  462.391">  4  5 -1 -1</clus>
<clus scale="  300.000">  1  4  2 -1</clus>
</clustering>
</event>
<event>
 6    1  0.1000035E-011  0.3000000E+03  0.7818608E-02  0.1093470E+00
          1   -1    0    0  502    0  0.00000000000E+00  0.00000000000E+00  0.24283984593E+03  0.24283984593E+03  0.00000000000E+00 0.  1.
         13   -1    0    0    0    0 -0.00000000000E+00 -0.00000000000E+00 -0.27500000000E+03  0.27500000000E+03  0.00000000000E+00 0.  1.
    9000005    2    1    2  501    0  0.17994164674E+02  0.27828454914E+02 -0.44029215526E+02  0.48263917144E+03  0.47948283089E+03 0.  0.
         13    1    3    3    0    0  0.17675404160E+03  0.15280571685E+03 -0.12498214768E+03  0.26497568863E+03  0.00000000000E+00 0.  1.
          1    1    3    3  501    0 -0.15875987693E+03 -0.12497726194E+03  0.80952932157E+02  0.21766348281E+03  0.00000000000E+00 0.  1.
         21    1    1    2  502  501 -0.17994164674E+02 -0.27828454914E+02  0.11869061460E+02  0.35200674498E+02  0.00000000000E+00 0.  1.
<scales pt_clust_4="550.00000" pt_clust_5="550.00000" pt_clust_6="33.13929"></scales>
<mgrwt>
<rscale>  0 0.30000000E+03</rscale>
<asrwt>  1 0.33139295E+02</asrwt>
<pdfrwt beam="1">  1        1 0.88305399E+00 0.30000000E+03</pdfrwt>
<pdfrwt beam="2">0</pdfrwt>
<totfact> 0.18217566E-04</totfact>
</mgrwt>
<clustering>
<clus scale="   33.139">  1  6  2 -1</clus>
<clus scale="  479.483">  4  5 -1 -1</clus>
<clus scale="  300.000">  1  4  2 -1</clus>
</clustering>
</event>
<event>
 6    1  0.1000035E-011  0.3000000E+03  0.7818608E-02  0.1093470E+00
          1   -1    0    0  502    0  0.00000000000E+00  0.00000000000E+00  0.25041233490E+03  0.25041233490E+03  0.00000000000E+00 0.  1.
         13   -1    0    0    0    0 -0.00000000000E+00 -0.00000000000E+00 -0.27500000000E+03  0.27500000000E+03  0.00000000000E+00 0.  1.
    9000005    2    1    2  501    0 -0.47091216684E+02 -0.30465384223E+02 -0.38225943232E+02  0.46769123862E+03  0.46273982930E+03 0.  0.
         13    1    3    3    0    0  0.14052513882E+03 -0.12278542701E+03 -0.14177306293E+03  0.23435694378E+03  0.00000000000E+00 0.  1.
          3    1    3    3  501    0 -0.18761635550E+03  0.92320042783E+02  0.10354711970E+03  0.23333429484E+03  0.00000000000E+00 0.  1.
         21    1    1    2  502  501  0.47091216684E+02  0.30465384223E+02  0.13638278127E+02  0.57721096273E+02  0.00000000000E+00 0.  1.
<scales pt_clust_4="550.00000" pt_clust_5="550.00000" pt_clust_6="56.08674"></scales>
<mgrwt>
<rscale>  0 0.30000000E+03</rscale>
<asrwt>  1 0.56086739E+02</asrwt>
<pdfrwt beam="1">  1        1 0.91059031E+00 0.30000000E+03</pdfrwt>
<pdfrwt beam="2">0</pdfrwt>
<totfact> 0.63872349E-05</totfact>
</mgrwt>
<clustering>
<clus scale="   56.087">  1  6  2 -1</clus>
<clus scale="  462.740">  4  5 -1 -1</clus>
<clus scale="  300.000">  1  4  2 -1</clus>
</clustering>
</event>
<event>
 6    1  0.1000035E-011  0.3000000E+03  0.7818608E-02  0.1093470E+00
          1   -1    0    0  502    0  0.00000000000E+00  0.00000000000E+00  0.24625793705E+03  0.24625793705E+03  0.00000000000E+00 0.  1.
         13   -1    0    0    0    0 -0.00000000000E+00 -0.00000000000E+00 -0.27500000000E+03  0.27500000000E+03  0.00000000000E+00 0.  1.
    9000005    2    1    2  501    0  0.80619439169E+01 -0.37240670705E+02 -0.29745695964E+02  0.48314140817E+03  0.48071712198E+03 0.  0.
         13    1    3    3    0    0 -0.13428831042E+03  0.17305384223E+03  0.33111419327E+02  0.22153408025E+03  0.00000000000E+00 0.  1.
          1    1    3    3  501    0  0.14235025433E+03 -0.21029451293E+03 -0.62857115291E+02  0.26160732792E+03  0.00000000000E+00 0.  1.
         21    1    1    2  502  501 -0.80619439169E+01  0.37240670705E+02  0.10036330105E+01  0.38116528876E+02  0.00000000000E+00 0. -1.
<scales pt_clust_4="550.00000" pt_clust_5="550.00000" pt_clust_6="38.10331"></scales>
<mgrwt>
<rscale>  0 0.30000000E+03</rscale>
<asrwt>  1 0.38103313E+02</asrwt>
<pdfrwt beam="1">  1        1 0.89548341E+00 0.30000000E+03</pdfrwt>
<pdfrwt beam="2">0</pdfrwt>
<totfact> 0.12258364E-04</totfact>
</mgrwt>
<clustering>
<clus scale="   38.103">  1  6  2 -1</clus>
<clus scale="  480.717">  4  5 -1 -1</clus>
<clus scale="  300.000">  1  4  2 -1</clus>
</clustering>
</event>
<event>
 6    1  0.1000035E-011  0.3000000E+03  0.7818608E-02  0.1093470E+00
          1   -1    0    0  502    0  0.00000000000E+00  0.00000000000E+00  0.22822030087E+03  0.22822030087E+03  0.00000000000E+00 0.  1.
         13   -1    0    0    0    0 -0.00000000000E+00 -0.00000000000E+00 -0.27500000000E+03  0.27500000000E+03  0.00000000000E+00 0.  1.
    9000005    2    1    2  501    0  0.28133788474E+02 -0.10431632619E+02 -0.60188302320E+02  0.47035512701E+03  0.46552227096E+03 0.  0.
         13    1    3    3    0    0  0.19810872390E+03  0.10497879839E+03 -0.12272448350E+03  0.25559521405E+03  0.00000000000E+00 0.  1.
          3    1    3    3  501    0 -0.16997493542E+03 -0.11541043101E+03  0.62536181177E+02  0.21475991296E+03  0.00000000000E+00 0.  1.
         21    1    1    2  502  501 -0.28133788474E+02  0.10431632619E+02  0.13408603185E+02  0.32865173852E+02  0.00000000000E+00 0. -1.
<scales pt_clust_4="550.00000" pt_clust_5="550.00000" pt_clust_6="30.00548"></scales>
<mgrwt>
<rscale>  0 0.30000000E+03</rscale>
<asrwt>  1 0.30005483E+02</asrwt>
<pdfrwt beam="1">  1        1 0.82989200E+00 0.30000000E+03</pdfrwt>
<pdfrwt beam="2">0</pdfrwt>
<totfact> 0.60978696E-04</totfact>
</mgrwt>
<clustering>
<clus scale="   30.005">  1  6  2 -1</clus>
<clus scale="  465.522">  4  5 -1 -1</clus>
<clus scale="  300.000">  1  4  2 -1</clus>
</clustering>
</event>
<event>
 6    1  0.1000035E-011  0.3000000E+03  0.7818608E-02  0.1093470E+00
          1   -1    0    0  502    0  0.00000000000E+00  0.00000000000E+00  0.22189608381E+03  0.22189608381E+03  0.00000000000E+00 0.  1.
         13   -1    0    0    0    0 -0.00000000000E+00 -0.00000000000E+00 -0.27500000000E+03  0.27500000000E+03  0.00000000000E+00 0.  1.
    9000005    2    1    2  501    0  0.10522390673E+02  0.32265864527E+02 -0.57058375508E+02  0.46272819731E+03  0.45794095651E+03 0.  0.
         13    1    3    3    0    0  0.26443845996E+02 -0.13482168940E+03 -0.19974242471E+03  0.24243184847E+03  0.00000000000E+00 0.  1.
          1    1    3    3  501    0 -0.15921455323E+02  0.16708755393E+03  0.14268404920E+03  0.22029634884E+03  0.00000000000E+00 0.  1.
         21    1    1    2  502  501 -0.10522390673E+02 -0.32265864527E+02  0.39544593175E+01  0.34167886497E+02  0.00000000000E+00 0.  1.
<scales pt_clust_4="550.00000" pt_clust_5="550.00000" pt_clust_6="33.93828"></scales>
<mgrwt>
<rscale>  0 0.30000000E+03</rscale>
<asrwt>  1 0.33938278E+02</asrwt>
<pdfrwt beam="1">  1        1 0.80689485E+00 0.30000000E+03</pdfrwt>
<pdfrwt beam="2">0</pdfrwt>
<totfact> 0.92706009E-04</totfact>
</mgrwt>
<clustering>
<clus scale="   33.938">  1  6  2 -1</clus>
<clus scale="  457.941">  4  5 -1 -1</clus>
<clus scale="  300.000">  1  4  2 -1</clus>
</clustering>
</event>
<event>
 6    1  0.1000035E-011  0.3000000E+03  0.7818608E-02  0.1093470E+00
          1   -1    0    0  502    0  0.00000000000E+00  0.00000000000E+00  0.24845037522E+03  0.24845037522E+03  0.00000000000E+00 0.  1.
         13   -1    0    0    0    0 -0.00000000000E+00 -0.00000000000E+00 -0.27500000000E+03  0.27500000000E+03  0.00000000000E+00 0.  1.
    9000005    2    1    2  501    0 -0.29041226606E+02 -0.19996830203E+02 -0.40164325837E+02  0.48565320408E+03  0.48270342396E+03 0.  0.
         13    1    3    3    0    0  0.43989335059E+02  0.16149284181E+03  0.14112834461E+03  0.21893425773E+03  0.00000000000E+00 0.  1.
          3    1    3    3  501    0 -0.73030561665E+02 -0.18148967201E+03 -0.18129267045E+03  0.26671894635E+03  0.00000000000E+00 0.  1.
         21    1    1    2  502  501  0.29041226606E+02  0.19996830203E+02  0.13614701054E+02  0.37797171134E+02  0.00000000000E+00 0.  1.
<scales pt_clust_4="550.00000" pt_clust_5="550.00000" pt_clust_6="35.25998"></scales>
<mgrwt>
<rscale>  0 0.30000000E+03</rscale>
<asrwt>  1 0.35259978E+02</asrwt>
<pdfrwt beam="1">  1        1 0.90345591E+00 0.30000000E+03</pdfrwt>
<pdfrwt beam="2">0</pdfrwt>
<totfact> 0.98372616E-05</totfact>
</mgrwt>
<clustering>
<clus scale="   35.260">  1  6  2 -1</clus>
<clus scale="  482.703">  4  5 -1 -1</clus>
<clus scale="  300.000">  1  4  2 -1</clus>
</clustering>
</event>
<event>
 6    1  0.1000035E-011  0.3000000E+03  0.7818608E-02  0.1093470E+00
          1   -1    0    0  502    0  0.00000000000E+00  0.00000000000E+00  0.25130893973E+03  0.25130893973E+03  0.00000000000E+00 0.  1.
         13   -1    0    0    0    0 -0.00000000000E+00 -0.00000000000E+00 -0.27500000000E+03  0.27500000000E+03  0.00000000000E+00 0.  1.
    9000005    2    1    2  501    0  0.35504457691E+02 -0.55104681782E+01 -0.55304930972E+02  0.47845114417E+03  0.47388387838E+03 0.  0.
         13    1    3    3    0    0  0.16756228778E+03 -0.17939723122E+03 -0.81226998623E+02  0.25856974332E+03  0.00000000000E+00 0.  1.
          1    1    3    3  501    0 -0.13205783009E+03  0.17388676304E+03  0.25922067651E+02  0.21988140085E+03  0.00000000000E+00 0.  1.
         21    1    1    2  502  501 -0.35504457691E+02  0.55104681782E+01  0.31613870705E+02  0.47857795566E+02  0.00000000000E+00 0.  1.
<scales pt_clust_4="550.00000" pt_clust_5="550.00000" pt_clust_6="35.92954"></scales>
<mgrwt>
<rscale>  0 0.30000000E+03</rscale>
<asrwt>  1 0.35929539E+02</asrwt>
<pdfrwt beam="1">  1        1 0.91385069E+00 0.30000000E+03</pdfrwt>
<pdfrwt beam="2">0</pdfrwt>
<totfact> 0.57385758E-05</totfact>
</mgrwt>
<clustering>
<clus scale="   35.930">  1  6  2 -1</clus>
<clus scale="  473.884">  4  5 -1 -1</clus>
<clus scale="  300.000">  1  4  2 -1</clus>
</clustering>
</event>
<event>
 6    1  0.1000035E-011  0.3000000E+03  0.7818608E-02  0.1093470E+00
          1   -1    0    0  502    0  0.00000000000E+00  0.00000000000E+00  0.21869495831E+03  0.21869495831E+03  0.00000000000E+00 0.  1.
         13   -1    0    0    0    0 -0.00000000000E+00 -0.00000000000E+00 -0.27500000000E+03  0.27500000000E+03  0.00000000000E+00 0.  1.
    9000005    2    1    2  501    0  0.30178127984E+02 -0.99781348024E+01 -0.59014271457E+02  0.46179476225E+03  0.45690418648E+03 0.  0.
         13    1    3    3    0    0 -0.62906451041E+02 -0.48690110259E+02  0.18304386052E+03  0.19958207157E+03  0.00000000000E+00 0.  1.
          1    1    3    3  501    0  0.93084579025E+02  0.38711975456E+02 -0.24205813197E+03  0.26221269067E+03  0.00000000000E+00 0.  1.
         21    1    1    2  502  501 -0.30178127984E+02  0.99781348024E+01  0.27092297624E+01  0.31900196060E+02  0.00000000000E+00 0.  1.
<scales pt_clust_4="550.00000" pt_clust_5="550.00000" pt_clust_6="31.78494"></scales>
<mgrwt>
<rscale>  0 0.30000000E+03</rscale>
<asrwt>  1 0.31784943E+02</asrwt>
<pdfrwt beam="1">  1        1 0.79525439E+00 0.30000000E+03</pdfrwt>
<pdfrwt beam="2">0</pdfrwt>
<totfact> 0.11437876E-03</totfact>
</mgrwt>
<clustering>
<clus scale="   31.785">  1  6  2 -1</clus>
<clus scale="  456.904">  4  5 -1 -1</clus>
<clus scale="  300.000">  1  4  2 -1</clus>
</clustering>
</event>
<event>
 6    1  0.1000035E-011  0.3000000E+03  0.7818608E-02  0.1093470E+00
          1   -1    0    0  502    0  0.00000000000E+00  0.00000000000E+00  0.25687957656E+03  0.25687957656E+03  0.00000000000E+00 0.  1.
         13   -1    0    0    0    0 -0.00000000000E+00 -0.00000000000E+00 -0.27500000000E+03  0.27500000000E+03  0.00000000000E+00 0.  1.
    9000005    2    1    2  501    0 -0.31553264077E+02 -0.41377249833E+02 -0.46764042756E+02  0.47248140988E+03  0.46727306975E+03 0.  0.
         13    1    3    3    0    0  0.15674112174E+03  0.58775782598E+02  0.11645239718E+03  0.20392040769E+03  0.00000000000E+00 0.  1.
          1    1    3    3  501    0 -0.18829438581E+03 -0.10015303243E+03 -0.16321643993E+03  0.26856100219E+03  0.00000000000E+00 0.  1.
         21    1    1    2  502  501  0.31553264077E+02  0.41377249833E+02  0.28643619318E+02  0.59398166683E+02  0.00000000000E+00 0.  1.
<scales pt_clust_4="550.00000" pt_clust_5="550.00000" pt_clust_6="52.03542"></scales>
<mgrwt>
<rscale>  0 0.30000000E+03</rscale>
<asrwt>  1 0.52035423E+02</asrwt>
<pdfrwt beam="1">  1        1 0.93410755E+00 0.30000000E+03</pdfrwt>
<pdfrwt beam="2">0</pdfrwt>
<totfact> 0.21501289E-05</totfact>
</mgrwt>
<clustering>
<clus scale="   52.035">  1  6  2 -1</clus>
<clus scale="  467.273">  4  5 -1 -1</clus>
<clus scale="  300.000">  1  4  2 -1</clus>
</clustering>
</event>
<event>
 6    1  0.1000035E-011  0.3000000E+03  0.7818608E-02  0.1093470E+00
          1   -1    0    0  502    0  0.00000000000E+00  0.00000000000E+00  0.26918820136E+03  0.26918820136E+03  0.00000000000E+00 0.  1.
         13   -1    0    0    0    0 -0.00000000000E+00 -0.00000000000E+00 -0.27500000000E+03  0.27500000000E+03  0.00000000000E+00 0.  1.
    9000005    2    1    2  501    0 -0.20527708402E+02 -0.29212752134E+02 -0.20779417259E+02  0.50547384606E+03  0.50378294251E+03 0.  0.
         13    1    3    3    0    0 -0.16895550034E+03 -0.20362322789E+03 -0.64451759975E+02  0.27232776097E+03  0.00000000000E+00 0.  1.
          3    1    3    3  501    0  0.14842779194E+03  0.17441047576E+03  0.43672342716E+02  0.23314608509E+03  0.00000000000E+00 0.  1.
         21    1    1    2  502  501  0.20527708402E+02  0.29212752134E+02  0.14967618621E+02  0.38714355304E+02  0.00000000000E+00 0.  1.
<scales pt_clust_4="550.00000" pt_clust_5="550.00000" pt_clust_6="35.70395"></scales>
<mgrwt>
<rscale>  0 0.30000000E+03</rscale>
<asrwt>  1 0.35703945E+02</asrwt>
<pdfrwt beam="1">  1        1 0.97886619E+00 0.30000000E+03</pdfrwt>
<pdfrwt beam="2">0</pdfrwt>
<totfact> 0.31496181E-06</totfact>
</mgrwt>
<clustering>
<clus scale="   35.704">  1  6  2 -1</clus>
<clus scale="  503.783">  4  5 -1 -1</clus>
<clus scale="  300.000">  1  4  2 -1</clus>
</clustering>
</event>
<event>
 6    1  0.1000035E-011  0.3000000E+03  0.7818608E-02  0.1093470E+00
          1   -1    0    0  502    0  0.00000000000E+00  0.00000000000E+00  0.24185574296E+03  0.24185574296E+03  0.00000000000E+00 0.  1.
         13   -1    0    0    0    0 -0.00000000000E+00 -0.00000000000E+00 -0.27500000000E+03  0.27500000000E+03  0.00000000000E+00 0.  1.
    9000005    2    1    2  501    0  0.30392043856E+02  0.89326168936E+01 -0.70912855771E+02  0.46756137184E+03  0.46106565188E+03 0.  0.
         13    1    3    3    0    0 -0.47859732712E+02 -0.20938972413E+03  0.25697300786E+02  0.21632143179E+03  0.00000000000E+00 0.  1.
          3    1    3    3  501    0  0.78251776568E+02  0.21832234102E+03 -0.96610156557E+02  0.25123994005E+03  0.00000000000E+00 0.  1.
         21    1    1    2  502  501 -0.30392043856E+02 -0.89326168936E+01  0.37768598731E+02  0.49294371123E+02  0.00000000000E+00 0.  1.
<scales pt_clust_4="550.00000" pt_clust_5="550.00000" pt_clust_6="31.67756"></scales>
<mgrwt>
<rscale>  0 0.30000000E+03</rscale>
<asrwt>  1 0.31677563E+02</asrwt>
<pdfrwt beam="1">  1        1 0.87947543E+00 0.30000000E+03</pdfrwt>
<pdfrwt beam="2">0</pdfrwt>
<totfact> 0.20411861E-04</totfact>
</mgrwt>
<clustering>
<clus scale="   31.678">  1  6  2 -1</clus>
<clus scale="  461.066">  4  5 -1 -1</clus>
<clus scale="  300.000">  1  4  2 -1</clus>
</clustering>
</event>
<event>
 6    1  0.1000035E-011  0.3000000E+03  0.7818608E-02  0.1093470E+00
          1   -1    0    0  502    0  0.00000000000E+00  0.00000000000E+00  0.23094231287E+03  0.23094231287E+03  0.00000000000E+00 0.  1.
         13   -1    0    0    0    0 -0.00000000000E+00 -0.00000000000E+00 -0.27500000000E+03  0.27500000000E+03  0.00000000000E+00 0.  1.
    9000005    2    1    2  501    0 -0.15103286593E+02 -0.35780282477E+02 -0.40951603923E+02  0.46698097776E+03  0.46355783010E+03 0.  0.
         13    1    3    3    0    0 -0.73211706169E+02  0.22325543568E+01 -0.24275554318E+03  0.25356496597E+03  0.00000000000E+00 0.  1.
          3    1    3    3  501    0  0.58108419576E+02 -0.38012836834E+02  0.20180393926E+03  0.21341601180E+03  0.00000000000E+00 0.  1.
         21    1    1    2  502  501  0.15103286593E+02  0.35780282477E+02 -0.31060832119E+01  0.38961335102E+02  0.00000000000E+00 0. -1.
<scales pt_clust_4="550.00000" pt_clust_5="550.00000" pt_clust_6="38.83733"></scales>
<mgrwt>
<rscale>  0 0.30000000E+03</rscale>
<asrwt>  1 0.38837326E+02</asrwt>
<pdfrwt beam="1">  1        1 0.83979023E+00 0.30000000E+03</pdfrwt>
<pdfrwt beam="2">0</pdfrwt>
<totfact> 0.48935840E-04</totfact>
</mgrwt>
<clustering>
<clus scale="   38.837">  1  6  2 -1</clus>
<clus scale="  463.558">  4  5 -1 -1</clus>
<clus scale="  300.000">  1  4  2 -1</clus>
</clustering>
</event>
<event>
 6    1  0.1000035E-011  0.3000000E+03  0.7818608E-02  0.1093470E+00
          1   -1    0    0  502    0  0.00000000000E+00  0.00000000000E+00  0.23737035205E+03  0.23737035205E+03  0.00000000000E+00 0.  1.
         13   -1    0    0    0    0 -0.00000000000E+00 -0.00000000000E+00 -0.27500000000E+03  0.27500000000E+03  0.00000000000E+00 0.  1.
    9000005    2    1    2  501    0  0.36540497959E+02  0.98443140942E+00 -0.45750491382E+02  0.47492538984E+03  0.47130122147E+03 0.  0.
         13    1    3    3    0    0  0.12334860764E+02  0.20333762103E+03  0.97478326208E+02  0.22583259507E+03  0.00000000000E+00 0.  1.
          1    1    3    3  501    0  0.24205637195E+02 -0.20235318962E+03 -0.14322881759E+03  0.24909279478E+03  0.00000000000E+00 0.  1.
         21    1    1    2  502  501 -0.36540497959E+02 -0.98443140942E+00  0.81208434285E+01  0.37444962202E+02  0.00000000000E+00 0.  1.
<scales pt_clust_4="550.00000" pt_clust_5="550.00000" pt_clust_6="36.55376"></scales>
<mgrwt>
<rscale>  0 0.30000000E+03</rscale>
<asrwt>  1 0.36553756E+02</asrwt>
<pdfrwt beam="1">  1        1 0.86316492E+00 0.30000000E+03</pdfrwt>
<pdfrwt beam="2">0</pdfrwt>
<totfact> 0.29663409E-04</totfact>
</mgrwt>
<clustering>
<clus scale="   36.554">  1  6  2 -1</clus>
<clus scale="  471.301">  4  5 -1 -1</clus>
<clus scale="  300.000">  1  4  2 -1</clus>
</clustering>
</event>
<event>
 6    1  0.1000035E-011  0.3000000E+03  0.7818608E-02  0.1093470E+00
          1   -1    0    0  502    0  0.00000000000E+00  0.00000000000E+00  0.22467660935E+03  0.22467660935E+03  0.00000000000E+00 0.  1.
         13   -1    0    0    0    0 -0.00000000000E+00 -0.00000000000E+00 -0.27500000000E+03  0.27500000000E+03  0.00000000000E+00 0.  1.
    9000005    2    1    2  501    0  0.32522774028E+02 -0.10880182834E+02 -0.58763890187E+02  0.46435874926E+03  0.45934708448E+03 0.  0.
         13    1    3    3    0    0 -0.57939413034E+02  0.20896172053E+03 -0.65546750306E+02  0.22653554402E+03  0.00000000000E+00 0.  1.
          1    1    3    3  501    0  0.90462187062E+02 -0.21984190336E+03  0.67828601184E+01  0.23782320524E+03  0.00000000000E+00 0.  1.
         21    1    1    2  502  501 -0.32522774028E+02  0.10880182834E+02  0.84404995407E+01  0.35317860092E+02  0.00000000000E+00 0.  1.
<scales pt_clust_4="550.00000" pt_clust_5="550.00000" pt_clust_6="34.29445"></scales>
<mgrwt>
<rscale>  0 0.30000000E+03</rscale>
<asrwt>  1 0.34294449E+02</asrwt>
<pdfrwt beam="1">  1        1 0.81700585E+00 0.30000000E+03</pdfrwt>
<pdfrwt beam="2">0</pdfrwt>
<totfact> 0.76954608E-04</totfact>
</mgrwt>
<clustering>
<clus scale="   34.294">  1  6  2 -1</clus>
<clus scale="  459.347">  4  5 -1 -1</clus>
<clus scale="  300.000">  1  4  2 -1</clus>
</clustering>
</event>
<event>
 6    1  0.1000035E-011  0.3000000E+03  0.7818608E-02  0.1093470E+00
          1   -1    0    0  502    0  0.00000000000E+00  0.00000000000E+00  0.25716884964E+03  0.25716884964E+03  0.00000000000E+00 0.  1.
         13   -1    0    0    0    0 -0.00000000000E+00 -0.00000000000E+00 -0.27500000000E+03  0.27500000000E+03  0.00000000000E+00 0.  1.
    9000005    2    1    2  501    0 -0.30516897366E+02  0.18228424372E+02 -0.57427638114E+02  0.47895758840E+03  0.47417178468E+03 0.  0.
         13    1    3    3    0    0 -0.22642305315E+03  0.57372766809E+02 -0.12889253266E+03  0.26678140555E+03  0.00000000000E+00 0.  1.
          3    1    3    3  501    0  0.19590615579E+03 -0.39144342437E+02  0.71464894545E+02  0.21217618286E+03  0.00000000000E+00 0.  1.
         21    1    1    2  502  501  0.30516897366E+02 -0.18228424372E+02  0.39596487754E+02  0.53211261236E+02  0.00000000000E+00 0.  1.
<scales pt_clust_4="550.00000" pt_clust_5="550.00000" pt_clust_6="35.54654"></scales>
<mgrwt>
<rscale>  0 0.30000000E+03</rscale>
<asrwt>  1 0.35546540E+02</asrwt>
<pdfrwt beam="1">  1        1 0.93515945E+00 0.30000000E+03</pdfrwt>
<pdfrwt beam="2">0</pdfrwt>
<totfact> 0.22360145E-05</totfact>
</mgrwt>
<clustering>
<clus scale="   35.547">  1  6  2 -1</clus>
<clus scale="  474.172">  4  5 -1 -1</clus>
<clus scale="  300.000">  1  4  2 -1</clus>
</clustering>
</event>
<event>
 6    1  0.1000035E-011  0.3000000E+03  0.7818608E-02  0.1093470E+00
          1   -1    0    0  502    0  0.00000000000E+00  0.00000000000E+00  0.23009694896E+03  0.23009694896E+03  0.00000000000E+00 0.  1.
         13   -1    0    0    0    0 -0.00000000000E+00 -0.00000000000E+00 -0.27500000000E+03  0.27500000000E+03  0.00000000000E+00 0.  1.
    9000005    2    1    2  501    0  0.39153073272E+01 -0.32335176886E+02 -0.58544724075E+02  0.46978422407E+03  0.46498262244E+03 0.  0.
         13    1    3    3    0    0  0.10869126580E+03  0.18241660567E+03 -0.86338834157E+02  0.22922478830E+03  0.00000000000E+00 0.  1.
          1    1    3    3  501    0 -0.10477595848E+03 -0.21475178256E+03  0.27794110082E+02  0.24055943577E+03  0.00000000000E+00 0.  1.
         21    1    1    2  502  501 -0.39153073272E+01  0.32335176886E+02  0.13641673031E+02  0.35312724885E+02  0.00000000000E+00 0. -1.
<scales pt_clust_4="550.00000" pt_clust_5="550.00000" pt_clust_6="32.57136"></scales>
<mgrwt>
<rscale>  0 0.30000000E+03</rscale>
<asrwt>  1 0.32571357E+02</asrwt>
<pdfrwt beam="1">  1        1 0.83671618E+00 0.30000000E+03</pdfrwt>
<pdfrwt beam="2">0</pdfrwt>
<totfact> 0.53284474E-04</totfact>
</mgrwt>
<clustering>
<clus scale="   32.571">  1  6  2 -1</clus>
<clus scale="  464.983">  4  5 -1 -1</clus>
<clus scale="  300.000">  1  4  2 -1</clus>
</clustering>
</event>
<event>
 6    1  0.1000035E-011  0.3000000E+03  0.7818608E-02  0.1093470E+00
          1   -1    0    0  502    0  0.00000000000E+00  0.00000000000E+00  0.23843628776E+03  0.23843628776E+03  0.00000000000E+00 0.  1.
         13   -1    0    0    0    0 -0.00000000000E+00 -0.00000000000E+00 -0.27500000000E+03  0.27500000000E+03  0.00000000000E+00 0.  1.
    9000005    2    1    2  501    0 -0.79873273580E+01 -0.34351875288E+02 -0.26964627527E+02  0.47688507491E+03  0.47481410552E+03 0.  0.
         13    1    3    3    0    0  0.21988614257E+03  0.53772106726E+02 -0.48885093603E+02  0.23158391035E+03  0.00000000000E+00 0.  1.
          1    1    3    3  501    0 -0.22787346993E+03 -0.88123982014E+02  0.21920466076E+02  0.24530116456E+03  0.00000000000E+00 0.  1.
         21    1    1    2  502  501  0.79873273580E+01  0.34351875288E+02 -0.95990847086E+01  0.36551212857E+02  0.00000000000E+00 0. -1.
<scales pt_clust_4="550.00000" pt_clust_5="550.00000" pt_clust_6="35.26826"></scales>
<mgrwt>
<rscale>  0 0.30000000E+03</rscale>
<asrwt>  1 0.35268257E+02</asrwt>
<pdfrwt beam="1">  1        1 0.86704105E+00 0.30000000E+03</pdfrwt>
<pdfrwt beam="2">0</pdfrwt>
<totfact> 0.27135948E-04</totfact>
</mgrwt>
<clustering>
<clus scale="   35.268">  1  6  2 -1</clus>
<clus scale="  474.814">  4  5 -1 -1</clus>
<clus scale="  300.000">  1  4  2 -1</clus>
</clustering>
</event>
<event>
 6    1  0.1000035E-011  0.3000000E+03  0.7818608E-02  0.1093470E+00
          1   -1    0    0  502    0  0.00000000000E+00  0.00000000000E+00  0.24467404744E+03  0.24467404744E+03  0.00000000000E+00 0.  1.
         13   -1    0    0    0    0 -0.00000000000E+00 -0.00000000000E+00 -0.27500000000E+03  0.27500000000E+03  0.00000000000E+00 0.  1.
    9000005    2    1    2  501    0 -0.24052617281E+01  0.39177201074E+02 -0.41839739689E+02  0.47876921078E+03  0.47531963457E+03 0.  0.
         13    1    3    3    0    0 -0.15430482818E+03 -0.11534956815E+03 -0.14271368792E+03  0.23975549961E+03  0.00000000000E+00 0.  1.
          3    1    3    3  501    0  0.15189956646E+03  0.15452676922E+03  0.10087394823E+03  0.23901371117E+03  0.00000000000E+00 0.  1.
         21    1    1    2  502  501  0.24052617281E+01 -0.39177201074E+02  0.11513787131E+02  0.40904836658E+02  0.00000000000E+00 0.  1.
<scales pt_clust_4="550.00000" pt_clust_5="550.00000" pt_clust_6="39.25097"></scales>
<mgrwt>
<rscale>  0 0.30000000E+03</rscale>
<asrwt>  1 0.39250966E+02</asrwt>
<pdfrwt beam="1">  1        1 0.88972381E+00 0.30000000E+03</pdfrwt>
<pdfrwt beam="2">0</pdfrwt>
<totfact> 0.14312261E-04</totfact>
</mgrwt>
<clustering>
<clus scale="   39.251">  1  6  2 -1</clus>
<clus scale="  475.320">  4  5 -1 -1</clus>
<clus scale="  300.000">  1  4  2 -1</clus>
</clustering>
</event>
<event>
 6    1  0.1000035E-011  0.3000000E+03  0.7818608E-02  0.1093470E+00
          1   -1    0    0  502    0  0.00000000000E+00  0.00000000000E+00  0.23617734647E+03  0.23617734647E+03  0.00000000000E+00 0.  1.
         13   -1    0    0    0    0 -0.00000000000E+00 -0.00000000000E+00 -0.27500000000E+03  0.27500000000E+03  0.00000000000E+00 0.  1.
    9000005    2    1    2  501    0 -0.18158153170E+02 -0.26750641045E+02 -0.22469652980E+02  0.47494564833E+03  0.47331085794E+03 0.  0.
         13    1    3    3    0    0 -0.30925354657E+02  0.17324122628E+03  0.13359596763E+03  0.22094520273E+03  0.00000000000E+00 0.  1.
          3    1    3    3  501    0  0.12767201487E+02 -0.19999186732E+03 -0.15606562061E+03  0.25400044560E+03  0.00000000000E+00 0.  1.
         21    1    1    2  502  501  0.18158153170E+02  0.26750641045E+02 -0.16353000553E+02  0.36231698138E+02  0.00000000000E+00 0. -1.
<scales pt_clust_4="550.00000" pt_clust_5="550.00000" pt_clust_6="32.33135"></scales>
<mgrwt>
<rscale>  0 0.30000000E+03</rscale>
<asrwt>  1 0.32331353E+02</asrwt>
<pdfrwt beam="1">  1        1 0.85882671E+00 0.30000000E+03</pdfrwt>
<pdfrwt beam="2">0</pdfrwt>
<totfact> 0.33787843E-04</totfact>
</mgrwt>
<clustering>
<clus scale="   32.331">  1  6  2 -1</clus>
<clus scale="  473.311">  4  5 -1 -1</clus>
<clus scale="  300.000">  1  4  2 -1</clus>
</clustering>
</event>
<event>
 6    1  0.1000035E-011  0.3000000E+03  0.7818608E-02  0.1093470E+00
          1   -1    0    0  502    0  0.00000000000E+00  0.00000000000E+00  0.23324623257E+03  0.23324623257E+03  0.00000000000E+00 0.  1.
         13   -1    0    0    0    0 -0.00000000000E+00 -0.00000000000E+00 -0.27500000000E+03  0.27500000000E+03  0.00000000000E+00 0.  1.
    9000005    2    1    2  501    0 -0.40247226781E+02 -0.11013367350E+02 -0.50901217066E+02  0.46552844519E+03  0.46085210844E+03 0.  0.
         13    1    3    3    0    0 -0.24499599343E+03 -0.59936020432E+02 -0.28708074343E+02  0.25384939802E+03  0.00000000000E+00 0.  1.
          1    1    3    3  501    0  0.20474876665E+03  0.48922653082E+02 -0.22193142723E+02  0.21167904717E+03  0.00000000000E+00 0.  1.
         21    1    1    2  502  501  0.40247226781E+02  0.11013367350E+02  0.91474496351E+01  0.42717787381E+02  0.00000000000E+00 0.  1.
<scales pt_clust_4="550.00000" pt_clust_5="550.00000" pt_clust_6="41.72689"></scales>
<mgrwt>
<rscale>  0 0.30000000E+03</rscale>
<asrwt>  1 0.41726892E+02</asrwt>
<pdfrwt beam="1">  1        1 0.84816812E+00 0.30000000E+03</pdfrwt>
<pdfrwt beam="2">0</pdfrwt>
<totfact> 0.40975998E-04</totfact>
</mgrwt>
<clustering>
<clus scale="   41.727">  1  6  2 -1</clus>
<clus scale="  460.852">  4  5 -1 -1</clus>
<clus scale="  300.000">  1  4  2 -1</clus>
</clustering>
</event>
<event>
 6    1  0.1000035E-011  0.3000000E+03  0.7818608E-02  0.1093470E+00
          1   -1    0    0  502    0  0.00000000000E+00  0.00000000000E+00  0.25297596134E+03  0.25297596134E+03  0.00000000000E+00 0.  1.
         13   -1    0    0    0    0 -0.00000000000E+00 -0.00000000000E+00 -0.27500000000E+03  0.27500000000E+03  0.00000000000E+00 0.  1.
    9000005    2    1    2  501    0 -0.31028557508E+02  0.80786879614E+01 -0.53653152752E+02  0.48293778377E+03  0.47887598146E+03 0.  0.
         13    1    3    3    0    0 -0.19070629825E+01  0.23776093518E+03 -0.77769864801E+02  0.25016404829E+03  0.00000000000E+00 0.  1.
          1    1    3    3  501    0 -0.29121494525E+02 -0.22968224722E+03  0.24116712049E+02  0.23277373548E+03  0.00000000000E+00 0.  1.
         21    1    1    2  502  501  0.31028557508E+02 -0.80786879614E+01  0.31629114092E+02  0.45038177566E+02  0.00000000000E+00 0.  1.
<scales pt_clust_4="550.00000" pt_clust_5="550.00000" pt_clust_6="32.06301"></scales>
<mgrwt>
<rscale>  0 0.30000000E+03</rscale>
<asrwt>  1 0.32063010E+02</asrwt>
<pdfrwt beam="1">  1        1 0.91991259E+00 0.30000000E+03</pdfrwt>
<pdfrwt beam="2">0</pdfrwt>
<totfact> 0.42682872E-05</totfact>
</mgrwt>
<clustering>
<clus scale="   32.063">  1  6  2 -1</clus>
<clus scale="  478.876">  4  5 -1 -1</clus>
<clus scale="  300.000">  1  4  2 -1</clus>
</clustering>
</event>
<event>
 6    1  0.1000035E-011  0.3000000E+03  0.7818608E-02  0.1093470E+00
          1   -1    0    0  502    0  0.00000000000E+00  0.00000000000E+00  0.24335632654E+03  0.24335632654E+03  0.00000000000E+00 0.  1.
         13   -1    0    0    0    0 -0.00000000000E+00 -0.00000000000E+00 -0.27500000000E+03  0.27500000000E+03  0.00000000000E+00 0.  1.
    9000005    2    1    2  501    0 -0.18343499356E+02 -0.38413332604E+02 -0.56139228346E+02  0.46924318879E+03  0.46392401229E+03 0.  0.
         13    1    3    3    0    0  0.19510797381E+03 -0.39552548617E+02 -0.13626430285E+03  0.24124569588E+03  0.00000000000E+00 0.  1.
          3    1    3    3  501    0 -0.21345147317E+03  0.11392160129E+01  0.80125074506E+02  0.22799749291E+03  0.00000000000E+00 0.  1.
         21    1    1    2  502  501  0.18343499356E+02  0.38413332604E+02  0.24495554884E+02  0.49113137748E+02  0.00000000000E+00 0.  1.
<scales pt_clust_4="550.00000" pt_clust_5="550.00000" pt_clust_6="42.56839"></scales>
<mgrwt>
<rscale>  0 0.30000000E+03</rscale>
<asrwt>  1 0.42568393E+02</asrwt>
<pdfrwt beam="1">  1        1 0.88493210E+00 0.30000000E+03</pdfrwt>
<pdfrwt beam="2">0</pdfrwt>
<totfact> 0.16406459E-04</totfact>
</mgrwt>
<clustering>
<clus scale="   42.568">  1  6  2 -1</clus>
<clus scale="  463.924">  4  5 -1 -1</clus>
<clus scale="  300.000">  1  4  2 -1</clus>
</clustering>
</event>
<event>
 6    1  0.1000035E-011  0.3000000E+03  0.7818608E-02  0.1093470E+00
          1   -1    0    0  502    0  0.00000000000E+00  0.00000000000E+00  0.24123376251E+03  0.24123376251E+03  0.00000000000E+00 0.  1.
         13   -1    0    0    0    0 -0.00000000000E+00 -0.00000000000E+00 -0.27500000000E+03  0.27500000000E+03  0.00000000000E+00 0.  1.
    9000005    2    1    2  501    0  0.42609267196E+02 -0.65536148893E+01 -0.35240714317E+02  0.47309823654E+03  0.46981010414E+03 0.  0.
         13    1    3    3    0    0  0.63211002641E+02 -0.45898920531E+02  0.20990092053E+03  0.22396593089E+03  0.00000000000E+00 0.  1.
          3    1    3    3  501    0 -0.20601735445E+02  0.39345305642E+02 -0.24514163485E+03  0.24913230564E+03  0.00000000000E+00 0.  1.
         21    1    1    2  502  501 -0.42609267196E+02  0.65536148893E+01  0.14744768265E+01  0.43135525974E+02  0.00000000000E+00 0.  1.
<scales pt_clust_4="550.00000" pt_clust_5="550.00000" pt_clust_6="43.11032"></scales>
<mgrwt>
<rscale>  0 0.30000000E+03</rscale>
<asrwt>  1 0.43110318E+02</asrwt>
<pdfrwt beam="1">  1        1 0.87721368E+00 0.30000000E+03</pdfrwt>
<pdfrwt beam="2">0</pdfrwt>
<totfact> 0.20483629E-04</totfact>
</mgrwt>
<clustering>
<clus scale="   43.110">  1  6  2 -1</clus>
<clus scale="  469.810">  4  5 -1 -1</clus>
<clus scale="  300.000">  1  4  2 -1</clus>
</clustering>
</event>
<event>
 6    1  0.1000035E-011  0.3000000E+03  0.7818608E-02  0.1093470E+00
          1   -1    0    0  502    0  0.00000000000E+00  0.00000000000E+00  0.25884839615E+03  0.25884839615E+03  0.00000000000E+00 0.  1.
         13   -1    0    0    0    0 -0.00000000000E+00 -0.00000000000E+00 -0.27500000000E+03  0.27500000000E+03  0.00000000000E+00 0.  1.
    9000005    2    1    2  501    0  0.31447760911E+02  0.22098336228E+02 -0.26893713409E+02  0.49393986263E+03  0.49170724821E+03 0.  0.
         13    1    3    3    0    0  0.16105582166E+03  0.41924272957E+02  0.18243412812E+03  0.24693892657E+03  0.00000000000E+00 0.  1.
          3    1    3    3  501    0 -0.12960806075E+03 -0.19825936730E+02 -0.20932784152E+03  0.24700093606E+03  0.00000000000E+00 0.  1.
         21    1    1    2  502  501 -0.31447760911E+02 -0.22098336228E+02  0.10742109561E+02  0.39908533526E+02  0.00000000000E+00 0. -1.
<scales pt_clust_4="550.00000" pt_clust_5="550.00000" pt_clust_6="38.43564"></scales>
<mgrwt>
<rscale>  0 0.30000000E+03</rscale>
<asrwt>  1 0.38435636E+02</asrwt>
<pdfrwt beam="1">  1        1 0.94126690E+00 0.30000000E+03</pdfrwt>
<pdfrwt beam="2">0</pdfrwt>
<totfact> 0.17906239E-05</totfact>
</mgrwt>
<clustering>
<clus scale="   38.436">  1  6  2 -1</clus>
<clus scale="  491.707">  4  5 -1 -1</clus>
<clus scale="  300.000">  1  4  2 -1</clus>
</clustering>
</event>
<event>
 6    1  0.1000035E-011  0.3000000E+03  0.7818608E-02  0.1093470E+00
          1   -1    0    0  502    0  0.00000000000E+00  0.00000000000E+00  0.24198277534E+03  0.24198277534E+03  0.00000000000E+00 0.  1.
         13   -1    0    0    0    0 -0.00000000000E+00 -0.00000000000E+00 -0.27500000000E+03  0.27500000000E+03  0.00000000000E+00 0.  1.
    9000005    2    1    2  501    0  0.21433486899E+02  0.23653468148E+02 -0.66554765488E+02  0.47068323365E+03  0.46485942898E+03 0.  0.
         13    1    3    3    0    0  0.75280602475E+02 -0.13036360164E+03 -0.20662477022E+03  0.25564747879E+03  0.00000000000E+00 0.  1.
          1    1    3    3  501    0 -0.53847115576E+02  0.15401706979E+03  0.14007000473E+03  0.21503575486E+03  0.00000000000E+00 0.  1.
         21    1    1    2  502  501 -0.21433486899E+02 -0.23653468148E+02  0.33537540833E+02  0.46299541695E+02  0.00000000000E+00 0. -1.
<scales pt_clust_4="550.00000" pt_clust_5="550.00000" pt_clust_6="31.91991"></scales>
<mgrwt>
<rscale>  0 0.30000000E+03</rscale>
<asrwt>  1 0.31919914E+02</asrwt>
<pdfrwt beam="1">  1        1 0.87993736E+00 0.30000000E+03</pdfrwt>
<pdfrwt beam="2">0</pdfrwt>
<totfact> 0.20119369E-04</totfact>
</mgrwt>
<clustering>
<clus scale="   31.920">  1  6  2 -1</clus>
<clus scale="  464.859">  4  5 -1 -1</clus>
<clus scale="  300.000">  1  4  2 -1</clus>
</clustering>
</event>
<event>
 6    1  0.1000035E-011  0.3000000E+03  0.7818608E-02  0.1093470E+00
          1   -1    0    0  502    0  0.00000000000E+00  0.00000000000E+00  0.22717820243E+03  0.22717820243E+03  0.00000000000E+00 0.  1.
         13   -1    0    0    0    0 -0.00000000000E+00 -0.00000000000E+00 -0.27500000000E+03  0.27500000000E+03  0.00000000000E+00 0.  1.
    9000005    2    1    2  501    0  0.16081438315E+02 -0.33750484166E+02 -0.27698957447E+02  0.45972073507E+03  0.45736004872E+03 0.  0.
         13    1    3    3    0    0  0.31255813402E+02  0.12822942085E+03 -0.18906581014E+03  0.23057664844E+03  0.00000000000E+00 0.  1.
          3    1    3    3  501    0 -0.15174375087E+02 -0.16197990501E+03  0.16136685269E+03  0.22914408663E+03  0.00000000000E+00 0.  1.
         21    1    1    2  502  501 -0.16081438315E+02  0.33750484166E+02 -0.20122840127E+02  0.42457467359E+02  0.00000000000E+00 0.  1.
<scales pt_clust_4="550.00000" pt_clust_5="550.00000" pt_clust_6="37.38595"></scales>
<mgrwt>
<rscale>  0 0.30000000E+03</rscale>
<asrwt>  1 0.37385950E+02</asrwt>
<pdfrwt beam="1">  1        1 0.82610255E+00 0.30000000E+03</pdfrwt>
<pdfrwt beam="2">0</pdfrwt>
<totfact> 0.63079288E-04</totfact>
</mgrwt>
<clustering>
<clus scale="   37.386">  1  6  2 -1</clus>
<clus scale="  457.360">  4  5 -1 -1</clus>
<clus scale="  300.000">  1  4  2 -1</clus>
</clustering>
</event>
<event>
 6    1  0.1000035E-011  0.3000000E+03  0.7818608E-02  0.1093470E+00
          1   -1    0    0  502    0  0.00000000000E+00  0.00000000000E+00  0.25873685093E+03  0.25873685093E+03  0.00000000000E+00 0.  1.
         13   -1    0    0    0    0 -0.00000000000E+00 -0.00000000000E+00 -0.27500000000E+03  0.27500000000E+03  0.00000000000E+00 0.  1.
    9000005    2    1    2  501    0 -0.32688739282E+02  0.20154880940E+02 -0.22963728037E+02  0.49475389747E+03  0.49272640822E+03 0.  0.
         13    1    3    3    0    0 -0.24306568627E+03  0.90289531388E+02  0.44227887800E+02  0.26303846369E+03  0.00000000000E+00 0.  1.
          3    1    3    3  501    0  0.21037694699E+03 -0.70134650448E+02 -0.67191615838E+02  0.23171543379E+03  0.00000000000E+00 0.  1.
         21    1    1    2  502  501  0.32688739282E+02 -0.20154880940E+02  0.67005789650E+01  0.38982953454E+02  0.00000000000E+00 0. -1.
<scales pt_clust_4="550.00000" pt_clust_5="550.00000" pt_clust_6="38.40277"></scales>
<mgrwt>
<rscale>  0 0.30000000E+03</rscale>
<asrwt>  1 0.38402772E+02</asrwt>
<pdfrwt beam="1">  1        1 0.94086128E+00 0.30000000E+03</pdfrwt>
<pdfrwt beam="2">0</pdfrwt>
<totfact> 0.18202985E-05</totfact>
</mgrwt>
<clustering>
<clus scale="   38.403">  1  6  2 -1</clus>
<clus scale="  492.726">  4  5 -1 -1</clus>
<clus scale="  300.000">  1  4  2 -1</clus>
</clustering>
</event>
<event>
 6    1  0.1000035E-011  0.3000000E+03  0.7818608E-02  0.1093470E+00
          1   -1    0    0  502    0  0.00000000000E+00  0.00000000000E+00  0.24104791462E+03  0.24104791462E+03  0.00000000000E+00 0.  1.
         13   -1    0    0    0    0 -0.00000000000E+00 -0.00000000000E+00 -0.27500000000E+03  0.27500000000E+03  0.00000000000E+00 0.  1.
    9000005    2    1    2  501    0 -0.29899129756E+02  0.15471471878E+02 -0.67336581171E+02  0.46863642908E+03  0.46255006550E+03 0.  0.
         13    1    3    3    0    0 -0.11375938474E+03  0.95191111462E+02 -0.22717538016E+03  0.27131383796E+03  0.00000000000E+00 0.  1.
          3    1    3    3  501    0  0.83860254985E+02 -0.79719639583E+02  0.15983879899E+03  0.19732259111E+03  0.00000000000E+00 0.  1.
         21    1    1    2  502  501  0.29899129756E+02 -0.15471471878E+02  0.33384495790E+02  0.47411485543E+02  0.00000000000E+00 0. -1.
<scales pt_clust_4="550.00000" pt_clust_5="550.00000" pt_clust_6="33.66488"></scales>
<mgrwt>
<rscale>  0 0.30000000E+03</rscale>
<asrwt>  1 0.33664884E+02</asrwt>
<pdfrwt beam="1">  1        1 0.87653787E+00 0.30000000E+03</pdfrwt>
<pdfrwt beam="2">0</pdfrwt>
<totfact> 0.21810527E-04</totfact>
</mgrwt>
<clustering>
<clus scale="   33.665">  1  6  2 -1</clus>
<clus scale="  462.550">  4  5 -1 -1</clus>
<clus scale="  300.000">  1  4  2 -1</clus>
</clustering>
</event>
<event>
 6    1  0.1000035E-011  0.3000000E+03  0.7818608E-02  0.1093470E+00
          1   -1    0    0  502    0  0.00000000000E+00  0.00000000000E+00  0.24562874218E+03  0.24562874218E+03  0.00000000000E+00 0.  1.
         13   -1    0    0    0    0 -0.00000000000E+00 -0.00000000000E+00 -0.27500000000E+03  0.27500000000E+03  0.00000000000E+00 0.  1.
    9000005    2    1    2  501    0  0.16475590845E+02 -0.27133163979E+02 -0.51394814571E+02  0.48199338618E+03  0.47819299835E+03 0.  0.
         13    1    3    3    0    0 -0.22778742920E+03 -0.13492978405E+02  0.14450050260E+02  0.22864377823E+03  0.00000000000E+00 0.  1.
          3    1    3    3  501    0  0.24426302005E+03 -0.13640185573E+02 -0.65844864831E+02  0.25334960795E+03  0.00000000000E+00 0.  1.
         21    1    1    2  502  501 -0.16475590845E+02  0.27133163979E+02  0.22023556748E+02  0.38635355997E+02  0.00000000000E+00 0.  1.
<scales pt_clust_4="550.00000" pt_clust_5="550.00000" pt_clust_6="31.74356"></scales>
<mgrwt>
<rscale>  0 0.30000000E+03</rscale>
<asrwt>  1 0.31743561E+02</asrwt>
<pdfrwt beam="1">  1        1 0.89319543E+00 0.30000000E+03</pdfrwt>
<pdfrwt beam="2">0</pdfrwt>
<totfact> 0.13468441E-04</totfact>
</mgrwt>
<clustering>
<clus scale="   31.744">  1  6  2 -1</clus>
<clus scale="  478.193">  4  5 -1 -1</clus>
<clus scale="  300.000">  1  4  2 -1</clus>
</clustering>
</event>
<event>
 6    1  0.1000035E-011  0.3000000E+03  0.7818608E-02  0.1093470E+00
          1   -1    0    0  502    0  0.00000000000E+00  0.00000000000E+00  0.23523876998E+03  0.23523876998E+03  0.00000000000E+00 0.  1.
         13   -1    0    0    0    0 -0.00000000000E+00 -0.00000000000E+00 -0.27500000000E+03  0.27500000000E+03  0.00000000000E+00 0.  1.
    9000005    2    1    2  501    0 -0.25808747044E+02 -0.22324915425E+02 -0.50731119285E+02  0.47439422028E+03  0.47043781364E+03 0.  0.
         13    1    3    3    0    0  0.63604558606E+02  0.13214198124E+03  0.14726285796E+03  0.20783020092E+03  0.00000000000E+00 0.  1.
          1    1    3    3  501    0 -0.89413305650E+02 -0.15446689667E+03 -0.19799397724E+03  0.26656401936E+03  0.00000000000E+00 0.  1.
         21    1    1    2  502  501  0.25808747044E+02  0.22324915425E+02  0.10969889268E+02  0.35844549701E+02  0.00000000000E+00 0.  1.
<scales pt_clust_4="550.00000" pt_clust_5="550.00000" pt_clust_6="34.12467"></scales>
<mgrwt>
<rscale>  0 0.30000000E+03</rscale>
<asrwt>  1 0.34124672E+02</asrwt>
<pdfrwt beam="1">  1        1 0.85541371E+00 0.30000000E+03</pdfrwt>
<pdfrwt beam="2">0</pdfrwt>
<totfact> 0.36261537E-04</totfact>
</mgrwt>
<clustering>
<clus scale="   34.125">  1  6  2 -1</clus>
<clus scale="  470.438">  4  5 -1 -1</clus>
<clus scale="  300.000">  1  4  2 -1</clus>
</clustering>
</event>
<event>
 6    1  0.1000035E-011  0.3000000E+03  0.7818608E-02  0.1093470E+00
          1   -1    0    0  502    0  0.00000000000E+00  0.00000000000E+00  0.23652019855E+03  0.23652019855E+03  0.00000000000E+00 0.  1.
         13   -1    0    0    0    0 -0.00000000000E+00 -0.00000000000E+00 -0.27500000000E+03  0.27500000000E+03  0.00000000000E+00 0.  1.
    9000005    2    1    2  501    0 -0.81288135034E+01 -0.31704952457E+02 -0.71134937682E+02  0.46528558444E+03  0.45864933676E+03 0.  0.
         13    1    3    3    0    0  0.19424868985E+03  0.95452988027E+02 -0.65801816330E+02  0.22621605925E+03  0.00000000000E+00 0.  1.
          1    1    3    3  501    0 -0.20237750335E+03 -0.12715794048E+03 -0.53331213521E+01  0.23906952519E+03  0.00000000000E+00 0.  1.
         21    1    1    2  502  501  0.81288135034E+01  0.31704952457E+02  0.32655136233E+02  0.46234614107E+02  0.00000000000E+00 0.  1.
<scales pt_clust_4="550.00000" pt_clust_5="550.00000" pt_clust_6="32.73044"></scales>
<mgrwt>
<rscale>  0 0.30000000E+03</rscale>
<asrwt>  1 0.32730439E+02</asrwt>
<pdfrwt beam="1">  1        1 0.86007345E+00 0.30000000E+03</pdfrwt>
<pdfrwt beam="2">0</pdfrwt>
<totfact> 0.32697973E-04</totfact>
</mgrwt>
<clustering>
<clus scale="   32.730">  1  6  2 -1</clus>
<clus scale="  458.649">  4  5 -1 -1</clus>
<clus scale="  300.000">  1  4  2 -1</clus>
</clustering>
</event>
<event>
 6    1  0.1000035E-011  0.3000000E+03  0.7818608E-02  0.1093470E+00
          1   -1    0    0  502    0  0.00000000000E+00  0.00000000000E+00  0.24604154923E+03  0.24604154923E+03  0.00000000000E+00 0.  1.
         13   -1    0    0    0    0 -0.00000000000E+00 -0.00000000000E+00 -0.27500000000E+03  0.27500000000E+03  0.00000000000E+00 0.  1.
    9000005    2    1    2  501    0 -0.24687905857E+01  0.46661175964E+02 -0.62486837034E+02  0.46353056806E+03  0.45691642831E+03 0.  0.
         13    1    3    3    0    0  0.10367419298E+02  0.17890369297E+03 -0.20257016575E+03  0.27046013901E+03  0.00000000000E+00 0.  1.
          3    1    3    3  501    0 -0.12836209884E+02 -0.13224251701E+03  0.14008332872E+03  0.19307042905E+03  0.00000000000E+00 0.  1.
         21    1    1    2  502  501  0.24687905857E+01 -0.46661175964E+02  0.33528386262E+02  0.57510981166E+02  0.00000000000E+00 0.  1.
<scales pt_clust_4="550.00000" pt_clust_5="550.00000" pt_clust_6="46.72644"></scales>
<mgrwt>
<rscale>  0 0.30000000E+03</rscale>
<asrwt>  1 0.46726441E+02</asrwt>
<pdfrwt beam="1">  1        1 0.89469654E+00 0.30000000E+03</pdfrwt>
<pdfrwt beam="2">0</pdfrwt>
<totfact> 0.12056995E-04</totfact>
</mgrwt>
<clustering>
<clus scale="   46.726">  1  6  2 -1</clus>
<clus scale="  456.916">  4  5 -1 -1</clus>
<clus scale="  300.000">  1  4  2 -1</clus>
</clustering>
</event>
<event>
 6    1  0.1000035E-011  0.3000000E+03  0.7818608E-02  0.1093470E+00
          1   -1    0    0  502    0  0.00000000000E+00  0.00000000000E+00  0.22752133928E+03  0.22752133928E+03  0.00000000000E+00 0.  1.
         13   -1    0    0    0    0 -0.00000000000E+00 -0.00000000000E+00 -0.27500000000E+03  0.27500000000E+03  0.00000000000E+00 0.  1.
    9000005    2    1    2  501    0  0.31468047225E+01 -0.38441036662E+02 -0.50813006362E+02  0.46380785919E+03  0.45939977465E+03 0.  0.
         13    1    3    3    0    0  0.13018732994E+03 -0.16440500572E+03 -0.15132267408E+03  0.25860452137E+03  0.00000000000E+00 0.  1.
          3    1    3    3  501    0 -0.12704052522E+03  0.12596396905E+03  0.10050966772E+03  0.20520333782E+03  0.00000000000E+00 0.  1.
         21    1    1    2  502  501 -0.31468047225E+01  0.38441036662E+02  0.33343456396E+01  0.38713480087E+02  0.00000000000E+00 0.  1.
<scales pt_clust_4="550.00000" pt_clust_5="550.00000" pt_clust_6="38.56962"></scales>
<mgrwt>
<rscale>  0 0.30000000E+03</rscale>
<asrwt>  1 0.38569621E+02</asrwt>
<pdfrwt beam="1">  1        1 0.82735032E+00 0.30000000E+03</pdfrwt>
<pdfrwt beam="2">0</pdfrwt>
<totfact> 0.61149351E-04</totfact>
</mgrwt>
<clustering>
<clus scale="   38.570">  1  6  2 -1</clus>
<clus scale="  459.400">  4  5 -1 -1</clus>
<clus scale="  300.000">  1  4  2 -1</clus>
</clustering>
</event>
<event>
 6    1  0.1000035E-011  0.3000000E+03  0.7818608E-02  0.1093470E+00
          1   -1    0    0  502    0  0.00000000000E+00  0.00000000000E+00  0.24648609955E+03  0.24648609955E+03  0.00000000000E+00 0.  1.
         13   -1    0    0    0    0 -0.00000000000E+00 -0.00000000000E+00 -0.27500000000E+03  0.27500000000E+03  0.00000000000E+00 0.  1.
    9000005    2    1    2  501    0 -0.21525095729E+02  0.25235575303E+02 -0.43483000157E+02  0.48509601913E+03  0.48200333242E+03 0.  0.
         13    1    3    3    0    0 -0.65055795728E+02  0.18932141311E+03  0.13290320463E+03  0.24028756901E+03  0.00000000000E+00 0.  1.
          3    1    3    3  501    0  0.43530699998E+02 -0.16408583780E+03 -0.17638620479E+03  0.24480845012E+03  0.00000000000E+00 0.  1.
         21    1    1    2  502  501  0.21525095729E+02 -0.25235575303E+02  0.14969099707E+02  0.36390080421E+02  0.00000000000E+00 0. -1.
<scales pt_clust_4="550.00000" pt_clust_5="550.00000" pt_clust_6="33.16872"></scales>
<mgrwt>
<rscale>  0 0.30000000E+03</rscale>
<asrwt>  1 0.33168720E+02</asrwt>
<pdfrwt beam="1">  1        1 0.89631309E+00 0.30000000E+03</pdfrwt>
<pdfrwt beam="2">0</pdfrwt>
<totfact> 0.12314575E-04</totfact>
</mgrwt>
<clustering>
<clus scale="   33.169">  1  6  2 -1</clus>
<clus scale="  482.003">  4  5 -1 -1</clus>
<clus scale="  300.000">  1  4  2 -1</clus>
</clustering>
</event>
<event>
 6    1  0.1000035E-011  0.3000000E+03  0.7818608E-02  0.1093470E+00
          1   -1    0    0  502    0  0.00000000000E+00  0.00000000000E+00  0.23212742333E+03  0.23212742333E+03  0.00000000000E+00 0.  1.
         13   -1    0    0    0    0 -0.00000000000E+00 -0.00000000000E+00 -0.27500000000E+03  0.27500000000E+03  0.00000000000E+00 0.  1.
    9000005    2    1    2  501    0 -0.25836052791E+02  0.17902692176E+02 -0.60198650553E+02  0.47123590836E+03  0.46631684055E+03 0.  0.
         13    1    3    3    0    0 -0.54050211592E+02  0.16724763437E+03 -0.19892907228E+03  0.26545427548E+03  0.00000000000E+00 0.  1.
          3    1    3    3  501    0  0.28214158801E+02 -0.14934494219E+03  0.13873042173E+03  0.20578163287E+03  0.00000000000E+00 0.  1.
         21    1    1    2  502  501  0.25836052791E+02 -0.17902692176E+02  0.17326073885E+02  0.35891514976E+02  0.00000000000E+00 0. -1.
<scales pt_clust_4="550.00000" pt_clust_5="550.00000" pt_clust_6="31.43259"></scales>
<mgrwt>
<rscale>  0 0.30000000E+03</rscale>
<asrwt>  1 0.31432595E+02</asrwt>
<pdfrwt beam="1">  1        1 0.84409972E+00 0.30000000E+03</pdfrwt>
<pdfrwt beam="2">0</pdfrwt>
<totfact> 0.46945615E-04</totfact>
</mgrwt>
<clustering>
<clus scale="   31.433">  1  6  2 -1</clus>
<clus scale="  466.317">  4  5 -1 -1</clus>
<clus scale="  300.000">  1  4  2 -1</clus>
</clustering>
</event>
<event>
 6    1  0.1000035E-011  0.3000000E+03  0.7818608E-02  0.1093470E+00
          1   -1    0    0  502    0  0.00000000000E+00  0.00000000000E+00  0.25184190053E+03  0.25184190053E+03  0.00000000000E+00 0.  1.
         13   -1    0    0    0    0 -0.00000000000E+00 -0.00000000000E+00 -0.27500000000E+03  0.27500000000E+03  0.00000000000E+00 0.  1.
    9000005    2    1    2  501    0  0.27256476395E+02 -0.19708312963E+02 -0.46100182111E+02  0.48612737903E+03  0.48276626720E+03 0.  0.
         13    1    3    3    0    0  0.64148841857E+02 -0.26159085566E+02 -0.25994989139E+03  0.26902289438E+03  0.00000000000E+00 0.  1.
          3    1    3    3  501    0 -0.36892365462E+02  0.64507726026E+01  0.21384970927E+03  0.21710448465E+03  0.00000000000E+00 0.  1.
         21    1    1    2  502  501 -0.27256476395E+02  0.19708312963E+02  0.22942082638E+02  0.40714521502E+02  0.00000000000E+00 0.  1.
<scales pt_clust_4="550.00000" pt_clust_5="550.00000" pt_clust_6="33.63530"></scales>
<mgrwt>
<rscale>  0 0.30000000E+03</rscale>
<asrwt>  1 0.33635296E+02</asrwt>
<pdfrwt beam="1">  1        1 0.91578873E+00 0.30000000E+03</pdfrwt>
<pdfrwt beam="2">0</pdfrwt>
<totfact> 0.52309070E-05</totfact>
</mgrwt>
<clustering>
<clus scale="   33.635">  1  6  2 -1</clus>
<clus scale="  482.766">  4  5 -1 -1</clus>
<clus scale="  300.000">  1  4  2 -1</clus>
</clustering>
</event>
<event>
 6    1  0.1000035E-011  0.3000000E+03  0.7818608E-02  0.1093470E+00
          1   -1    0    0  502    0  0.00000000000E+00  0.00000000000E+00  0.24239704043E+03  0.24239704043E+03  0.00000000000E+00 0.  1.
         13   -1    0    0    0    0 -0.00000000000E+00 -0.00000000000E+00 -0.27500000000E+03  0.27500000000E+03  0.00000000000E+00 0.  1.
    9000005    2    1    2  501    0 -0.38234864793E+02 -0.11479012575E+02 -0.35412719003E+02  0.47737745318E+03  0.47438539135E+03 0.  0.
         13    1    3    3    0    0  0.16036314508E+03 -0.44403192165E+02 -0.16789798784E+03  0.23638467822E+03  0.00000000000E+00 0.  1.
          1    1    3    3  501    0 -0.19859800987E+03  0.32924179590E+02  0.13248526884E+03  0.24099277497E+03  0.00000000000E+00 0.  1.
         21    1    1    2  502  501  0.38234864793E+02  0.11479012575E+02  0.28097594334E+01  0.40019587248E+02  0.00000000000E+00 0.  1.
<scales pt_clust_4="550.00000" pt_clust_5="550.00000" pt_clust_6="39.92083"></scales>
<mgrwt>
<rscale>  0 0.30000000E+03</rscale>
<asrwt>  1 0.39920829E+02</asrwt>
<pdfrwt beam="1">  1        1 0.88144378E+00 0.30000000E+03</pdfrwt>
<pdfrwt beam="2">0</pdfrwt>
<totfact> 0.18473914E-04</totfact>
</mgrwt>
<clustering>
<clus scale="   39.921">  1  6  2 -1</clus>
<clus scale="  474.385">  4  5 -1 -1</clus>
<clus scale="  300.000">  1  4  2 -1</clus>
</clustering>
</event>
<event>
 6    1  0.1000035E-011  0.3000000E+03  0.7818608E-02  0.1093470E+00
          1   -1    0    0  502    0  0.00000000000E+00  0.00000000000E+00  0.23815126989E+03  0.23815126989E+03  0.00000000000E+00 0.  1.
         13   -1    0    0    0    0 -0.00000000000E+00 -0.00000000000E+00 -0.27500000000E+03  0.27500000000E+03  0.00000000000E+00 0.  1.
    9000005    2    1    2  501    0  0.34479177173E+01  0.30521296328E+02 -0.49145455644E+02  0.48006581803E+03  0.47655479870E+03 0.  0.
         13    1    3    3    0    0  0.15540194827E+03  0.15315667777E+03 -0.14556553296E+03  0.26229002623E+03  0.00000000000E+00 0.  1.
          1    1    3    3  501    0 -0.15195403056E+03 -0.12263538145E+03  0.96420077312E+02  0.21777579180E+03  0.00000000000E+00 0.  1.
         21    1    1    2  502  501 -0.34479177173E+01 -0.30521296328E+02  0.12296725536E+02  0.33085451864E+02  0.00000000000E+00 0.  1.
<scales pt_clust_4="550.00000" pt_clust_5="550.00000" pt_clust_6="30.71543"></scales>
<mgrwt>
<rscale>  0 0.30000000E+03</rscale>
<asrwt>  1 0.30715430E+02</asrwt>
<pdfrwt beam="1">  1        1 0.86600462E+00 0.30000000E+03</pdfrwt>
<pdfrwt beam="2">0</pdfrwt>
<totfact> 0.28568173E-04</totfact>
</mgrwt>
<clustering>
<clus scale="   30.715">  1  6  2 -1</clus>
<clus scale="  476.555">  4  5 -1 -1</clus>
<clus scale="  300.000">  1  4  2 -1</clus>
</clustering>
</event>
<event>
 6    1  0.1000035E-011  0.3000000E+03  0.7818608E-02  0.1093470E+00
          1   -1    0    0  502    0  0.00000000000E+00  0.00000000000E+00  0.22849992897E+03  0.22849992897E+03  0.00000000000E+00 0.  1.
         13   -1    0    0    0    0 -0.00000000000E+00 -0.00000000000E+00 -0.27500000000E+03  0.27500000000E+03  0.00000000000E+00 0.  1.
    9000005    2    1    2  501    0  0.62978469989E+01  0.34377317773E+02 -0.65845928147E+02  0.46355340169E+03  0.45752006198E+03 0.  0.
         13    1    3    3    0    0 -0.36026836505E+02  0.24269935429E+03 -0.49872031262E+02  0.25037597533E+03  0.00000000000E+00 0.  1.
          3    1    3    3  501    0  0.42324683504E+02 -0.20832203651E+03 -0.15973896885E+02  0.21317742637E+03  0.00000000000E+00 0.  1.
         21    1    1    2  502  501 -0.62978469989E+01 -0.34377317773E+02  0.19345857121E+02  0.39946527282E+02  0.00000000000E+00 0. -1.
<scales pt_clust_4="550.00000" pt_clust_5="550.00000" pt_clust_6="34.94943"></scales>
<mgrwt>
<rscale>  0 0.30000000E+03</rscale>
<asrwt>  1 0.34949433E+02</asrwt>
<pdfrwt beam="1">  1        1 0.83090883E+00 0.30000000E+03</pdfrwt>
<pdfrwt beam="2">0</pdfrwt>
<totfact> 0.58120874E-04</totfact>
</mgrwt>
<clustering>
<clus scale="   34.949">  1  6  2 -1</clus>
<clus scale="  457.520">  4  5 -1 -1</clus>
<clus scale="  300.000">  1  4  2 -1</clus>
</clustering>
</event>
<event>
 6    1  0.1000035E-011  0.3000000E+03  0.7818608E-02  0.1093470E+00
          1   -1    0    0  502    0  0.00000000000E+00  0.00000000000E+00  0.24306226484E+03  0.24306226484E+03  0.00000000000E+00 0.  1.
         13   -1    0    0    0    0 -0.00000000000E+00 -0.00000000000E+00 -0.27500000000E+03  0.27500000000E+03  0.00000000000E+00 0.  1.
    9000005    2    1    2  501    0  0.19392997725E+01  0.32789550413E+02 -0.12294148155E+02  0.47978974192E+03  0.47850614925E+03 0.  0.
         13    1    3    3    0    0 -0.16808598293E+03  0.29159164954E+02  0.16272098284E+03  0.23575680863E+03  0.00000000000E+00 0.  1.
          3    1    3    3  501    0  0.17002528270E+03  0.36303854588E+01 -0.17501513099E+03  0.24403293330E+03  0.00000000000E+00 0.  1.
         21    1    1    2  502  501 -0.19392997725E+01 -0.32789550413E+02 -0.19643587007E+02  0.38272522916E+02  0.00000000000E+00 0.  1.
<scales pt_clust_4="550.00000" pt_clust_5="550.00000" pt_clust_6="32.84687"></scales>
<mgrwt>
<rscale>  0 0.30000000E+03</rscale>
<asrwt>  1 0.32846866E+02</asrwt>
<pdfrwt beam="1">  1        1 0.88386278E+00 0.30000000E+03</pdfrwt>
<pdfrwt beam="2">0</pdfrwt>
<totfact> 0.17797820E-04</totfact>
</mgrwt>
<clustering>
<clus scale="   32.847">  1  6  2 -1</clus>
<clus scale="  478.506">  4  5 -1 -1</clus>
<clus scale="  300.000">  1  4  2 -1</clus>
</clustering>
</event>
<event>
 6    1  0.1000035E-011  0.3000000E+03  0.7818608E-02  0.1093470E+00
          1   -1    0    0  502    0  0.00000000000E+00  0.00000000000E+00  0.23240578384E+03  0.23240578384E+03  0.00000000000E+00 0.  1.
         13   -1    0    0    0    0 -0.00000000000E+00 -0.00000000000E+00 -0.27500000000E+03  0.27500000000E+03  0.00000000000E+00 0.  1.
    9000005    2    1    2  501    0 -0.11973955995E+02  0.28654522124E+02 -0.48801414081E+02  0.47573582069E+03  0.47220603110E+03 0.  0.
         13    1    3    3    0    0 -0.20192789745E+03  0.61109577751E+02  0.98835400768E+02  0.23297573416E+03  0.00000000000E+00 0.  1.
          1    1    3    3  501    0  0.18995394146E+03 -0.32455055627E+02 -0.14763681485E+03  0.24276008653E+03  0.00000000000E+00 0.  1.
         21    1    1    2  502  501  0.11973955995E+02 -0.28654522124E+02  0.62071979245E+01  0.31669963158E+02  0.00000000000E+00 0. -1.
<scales pt_clust_4="550.00000" pt_clust_5="550.00000" pt_clust_6="31.05571"></scales>
<mgrwt>
<rscale>  0 0.30000000E+03</rscale>
<asrwt>  1 0.31055712E+02</asrwt>
<pdfrwt beam="1">  1        1 0.84511194E+00 0.30000000E+03</pdfrwt>
<pdfrwt beam="2">0</pdfrwt>
<totfact> 0.46111757E-04</totfact>
</mgrwt>
<clustering>
<clus scale="   31.056">  1  6  2 -1</clus>
<clus scale="  472.206">  4  5 -1 -1</clus>
<clus scale="  300.000">  1  4  2 -1</clus>
</clustering>
</event>
<event>
 6    1  0.1000035E-011  0.3000000E+03  0.7818608E-02  0.1093470E+00
          1   -1    0    0  502    0  0.00000000000E+00  0.00000000000E+00  0.24360239452E+03  0.24360239452E+03  0.00000000000E+00 0.  1.
         13   -1    0    0    0    0 -0.00000000000E+00 -0.00000000000E+00 -0.27500000000E+03  0.27500000000E+03  0.00000000000E+00 0.  1.
    9000005    2    1    2  501    0  0.23217583661E+02 -0.37721721594E+02  0.22169935277E+01  0.46299730718E+03  0.46086831842E+03 0.  0.
         13    1    3    3    0    0  0.49537758085E+02  0.42705951365E+02  0.21991227317E+03  0.22943233348E+03  0.00000000000E+00 0.  1.
          1    1    3    3  501    0 -0.26320174424E+02 -0.80427672960E+02 -0.21769527964E+03  0.23356497369E+03  0.00000000000E+00 0.  1.
         21    1    1    2  502  501 -0.23217583661E+02  0.37721721594E+02 -0.33614599012E+02  0.55605087338E+02  0.00000000000E+00 0.  1.
<scales pt_clust_4="550.00000" pt_clust_5="550.00000" pt_clust_6="44.29432"></scales>
<mgrwt>
<rscale>  0 0.30000000E+03</rscale>
<asrwt>  1 0.44294316E+02</asrwt>
<pdfrwt beam="1">  1        1 0.88582689E+00 0.30000000E+03</pdfrwt>
<pdfrwt beam="2">0</pdfrwt>
<totfact> 0.15834896E-04</totfact>
</mgrwt>
<clustering>
<clus scale="   44.294">  1  6  2 -1</clus>
<clus scale="  460.868">  4  5 -1 -1</clus>
<clus scale="  300.000">  1  4  2 -1</clus>
</clustering>
</event>
<event>
 6    1  0.1000035E-011  0.3000000E+03  0.7818608E-02  0.1093470E+00
          1   -1    0    0  502    0  0.00000000000E+00  0.00000000000E+00  0.24722915644E+03  0.24722915644E+03  0.00000000000E+00 0.  1.
         13   -1    0    0    0    0 -0.00000000000E+00 -0.00000000000E+00 -0.27500000000E+03  0.27500000000E+03  0.00000000000E+00 0.  1.
    9000005    2    1    2  501    0 -0.27168591080E+02  0.27503923019E+02 -0.61923929163E+02  0.47064397079E+03  0.46494792839E+03 0.  0.
         13    1    3    3    0    0 -0.12844236807E+03 -0.10479678614E+03 -0.19605884845E+03  0.25674672414E+03  0.00000000000E+00 0.  1.
          1    1    3    3  501    0  0.10127377699E+03  0.13230070915E+03  0.13413491929E+03  0.21389724664E+03  0.00000000000E+00 0.  1.
         21    1    1    2  502  501  0.27168591080E+02 -0.27503923019E+02  0.34153085601E+02  0.51585185652E+02  0.00000000000E+00 0. -1.
<scales pt_clust_4="550.00000" pt_clust_5="550.00000" pt_clust_6="38.66003"></scales>
<mgrwt>
<rscale>  0 0.30000000E+03</rscale>
<asrwt>  1 0.38660033E+02</asrwt>
<pdfrwt beam="1">  1        1 0.89901511E+00 0.30000000E+03</pdfrwt>
<pdfrwt beam="2">0</pdfrwt>
<totfact> 0.11147154E-04</totfact>
</mgrwt>
<clustering>
<clus scale="   38.660">  1  6  2 -1</clus>
<clus scale="  464.948">  4  5 -1 -1</clus>
<clus scale="  300.000">  1  4  2 -1</clus>
</clustering>
</event>
<event>
 6    1  0.1000035E-011  0.3000000E+03  0.7818608E-02  0.1093470E+00
          1   -1    0    0  502    0  0.00000000000E+00  0.00000000000E+00  0.23051698928E+03  0.23051698928E+03  0.00000000000E+00 0.  1.
         13   -1    0    0    0    0 -0.00000000000E+00 -0.00000000000E+00 -0.27500000000E+03  0.27500000000E+03  0.00000000000E+00 0.  1.
    9000005    2    1    2  501    0  0.11242394281E+02  0.33456567386E+02 -0.59417104207E+02  0.46719257828E+03  0.46205278875E+03 0.  0.
         13    1    3    3    0    0 -0.19473427959E+02 -0.20925143543E+03  0.17130484146E+02  0.21085262890E+03  0.00000000000E+00 0.  1.
          3    1    3    3  501    0  0.30715822239E+02  0.24270800281E+03 -0.76547588353E+02  0.25633994938E+03  0.00000000000E+00 0.  1.
         21    1    1    2  502  501 -0.11242394281E+02 -0.33456567386E+02  0.14934093485E+02  0.38324411002E+02  0.00000000000E+00 0.  1.
<scales pt_clust_4="550.00000" pt_clust_5="550.00000" pt_clust_6="35.29495"></scales>
<mgrwt>
<rscale>  0 0.30000000E+03</rscale>
<asrwt>  1 0.35294948E+02</asrwt>
<pdfrwt beam="1">  1        1 0.83824360E+00 0.30000000E+03</pdfrwt>
<pdfrwt beam="2">0</pdfrwt>
<totfact> 0.51155126E-04</totfact>
</mgrwt>
<clustering>
<clus scale="   35.295">  1  6  2 -1</clus>
<clus scale="  462.053">  4  5 -1 -1</clus>
<clus scale="  300.000">  1  4  2 -1</clus>
</clustering>
</event>
<event>
 6    1  0.1000035E-011  0.3000000E+03  0.7818608E-02  0.1093470E+00
          1   -1    0    0  502    0  0.00000000000E+00  0.00000000000E+00  0.22657791334E+03  0.22657791334E+03  0.00000000000E+00 0.  1.
         13   -1    0    0    0    0 -0.00000000000E+00 -0.00000000000E+00 -0.27500000000E+03  0.27500000000E+03  0.00000000000E+00 0.  1.
    9000005    2    1    2  501    0  0.14775393773E+02 -0.34442192505E+02 -0.35745383644E+02  0.46201434822E+03  0.45910232914E+03 0.  0.
         13    1    3    3    0    0 -0.89717975006E+02 -0.19301058526E+03  0.93321871168E+02  0.23240346964E+03  0.00000000000E+00 0.  1.
          3    1    3    3  501    0  0.10449336878E+03  0.15856839275E+03 -0.12906725481E+03  0.22961087858E+03  0.00000000000E+00 0.  1.
         21    1    1    2  502  501 -0.14775393773E+02  0.34442192505E+02 -0.12676703017E+02  0.39563565121E+02  0.00000000000E+00 0. -1.
<scales pt_clust_4="550.00000" pt_clust_5="550.00000" pt_clust_6="37.47770"></scales>
<mgrwt>
<rscale>  0 0.30000000E+03</rscale>
<asrwt>  1 0.37477704E+02</asrwt>
<pdfrwt beam="1">  1        1 0.82391968E+00 0.30000000E+03</pdfrwt>
<pdfrwt beam="2">0</pdfrwt>
<totfact> 0.65941333E-04</totfact>
</mgrwt>
<clustering>
<clus scale="   37.478">  1  6  2 -1</clus>
<clus scale="  459.102">  4  5 -1 -1</clus>
<clus scale="  300.000">  1  4  2 -1</clus>
</clustering>
</event>
<event>
 6    1  0.1000035E-011  0.3000000E+03  0.7818608E-02  0.1093470E+00
          1   -1    0    0  502    0  0.00000000000E+00  0.00000000000E+00  0.23771581881E+03  0.23771581881E+03  0.00000000000E+00 0.  1.
         13   -1    0    0    0    0 -0.00000000000E+00 -0.00000000000E+00 -0.27500000000E+03  0.27500000000E+03  0.00000000000E+00 0.  1.
    9000005    2    1    2  501    0  0.89668161767E+01 -0.29837801806E+02 -0.55358279100E+02  0.47669677906E+03  0.47244532159E+03 0.  0.
         13    1    3    3    0    0 -0.30597306482E+02  0.75648406391E+02  0.18996000600E+03  0.20674544840E+03  0.00000000000E+00 0.  1.
          3    1    3    3  501    0  0.39564122659E+02 -0.10548620820E+03 -0.24531828510E+03  0.26995133066E+03  0.00000000000E+00 0.  1.
         21    1    1    2  502  501 -0.89668161767E+01  0.29837801806E+02  0.18074097907E+02  0.36019039745E+02  0.00000000000E+00 0.  1.
<scales pt_clust_4="550.00000" pt_clust_5="550.00000" pt_clust_6="31.15603"></scales>
<mgrwt>
<rscale>  0 0.30000000E+03</rscale>
<asrwt>  1 0.31156030E+02</asrwt>
<pdfrwt beam="1">  1        1 0.86442116E+00 0.30000000E+03</pdfrwt>
<pdfrwt beam="2">0</pdfrwt>
<totfact> 0.29628151E-04</totfact>
</mgrwt>
<clustering>
<clus scale="   31.156">  1  6  2 -1</clus>
<clus scale="  472.445">  4  5 -1 -1</clus>
<clus scale="  300.000">  1  4  2 -1</clus>
</clustering>
</event>
<event>
 6    1  0.1000035E-011  0.3000000E+03  0.7818608E-02  0.1093470E+00
          1   -1    0    0  502    0  0.00000000000E+00  0.00000000000E+00  0.22735333059E+03  0.22735333059E+03  0.00000000000E+00 0.  1.
         13   -1    0    0    0    0 -0.00000000000E+00 -0.00000000000E+00 -0.27500000000E+03  0.27500000000E+03  0.00000000000E+00 0.  1.
    9000005    2    1    2  501    0 -0.55024793877E+00  0.36291692565E+02 -0.44227909827E+02  0.46589681348E+03  0.46237035273E+03 0.  0.
         13    1    3    3    0    0 -0.12429272122E+03  0.21121406901E+03 -0.55707369000E+02  0.25132324695E+03  0.00000000000E+00 0.  1.
          3    1    3    3  501    0  0.12374247328E+03 -0.17492237644E+03  0.11479459173E+02  0.21457356654E+03  0.00000000000E+00 0.  1.
         21    1    1    2  502  501  0.55024793877E+00 -0.36291692565E+02 -0.34187595881E+01  0.36456517101E+02  0.00000000000E+00 0. -1.
<scales pt_clust_4="550.00000" pt_clust_5="550.00000" pt_clust_6="36.29586"></scales>
<mgrwt>
<rscale>  0 0.30000000E+03</rscale>
<asrwt>  1 0.36295864E+02</asrwt>
<pdfrwt beam="1">  1        1 0.82673938E+00 0.30000000E+03</pdfrwt>
<pdfrwt beam="2">0</pdfrwt>
<totfact> 0.62608818E-04</totfact>
</mgrwt>
<clustering>
<clus scale="   36.296">  1  6  2 -1</clus>
<clus scale="  462.370">  4  5 -1 -1</clus>
<clus scale="  300.000">  1  4  2 -1</clus>
</clustering>
</event>
<event>
 6    1  0.1000035E-011  0.3000000E+03  0.7818608E-02  0.1093470E+00
          1   -1    0    0  502    0  0.00000000000E+00  0.00000000000E+00  0.22801495346E+03  0.22801495346E+03  0.00000000000E+00 0.  1.
         13   -1    0    0    0    0 -0.00000000000E+00 -0.00000000000E+00 -0.27500000000E+03  0.27500000000E+03  0.00000000000E+00 0.  1.
    9000005    2    1    2  501    0  0.22745393565E+02 -0.21586560360E+02 -0.67031162344E+02  0.46579695680E+03  0.45988074076E+03 0.  0.
         13    1    3    3    0    0  0.20819961650E+03  0.64214875790E+01 -0.15401207868E+03  0.25905218816E+03  0.00000000000E+00 0.  1.
          1    1    3    3  501    0 -0.18545422293E+03 -0.28008047939E+02  0.86980916331E+02  0.20674476864E+03  0.00000000000E+00 0.  1.
         21    1    1    2  502  501 -0.22745393565E+02  0.21586560360E+02  0.20046115803E+02  0.37217996660E+02  0.00000000000E+00 0.  1.
<scales pt_clust_4="550.00000" pt_clust_5="550.00000" pt_clust_6="31.35813"></scales>
<mgrwt>
<rscale>  0 0.30000000E+03</rscale>
<asrwt>  1 0.31358133E+02</asrwt>
<pdfrwt beam="1">  1        1 0.82914529E+00 0.30000000E+03</pdfrwt>
<pdfrwt beam="2">0</pdfrwt>
<totfact> 0.61342337E-04</totfact>
</mgrwt>
<clustering>
<clus scale="   31.358">  1  6  2 -1</clus>
<clus scale="  459.881">  4  5 -1 -1</clus>
<clus scale="  300.000">  1  4  2 -1</clus>
</clustering>
</event>
<event>
 6    1  0.1000035E-011  0.3000000E+03  0.7818608E-02  0.1093470E+00
          1   -1    0    0  502    0  0.00000000000E+00  0.00000000000E+00  0.24397860004E+03  0.24397860004E+03  0.00000000000E+00 0.  1.
         13   -1    0    0    0    0 -0.00000000000E+00 -0.00000000000E+00 -0.27500000000E+03  0.27500000000E+03  0.00000000000E+00 0.  1.
    9000005    2    1    2  501    0  0.23025555577E+02 -0.34144932496E+02 -0.46393477810E+02  0.47502005818E+03  0.47095185345E+03 0.  0.
         13    1    3    3    0    0  0.12827607948E+03  0.67495331562E+02 -0.21023171926E+03  0.25535807826E+03  0.00000000000E+00 0.  1.
          1    1    3    3  501    0 -0.10525052391E+03 -0.10164026406E+03  0.16383824145E+03  0.21966197992E+03  0.00000000000E+00 0.  1.
         21    1    1    2  502  501 -0.23025555577E+02  0.34144932496E+02  0.15372077846E+02  0.43958541856E+02  0.00000000000E+00 0. -1.
<scales pt_clust_4="550.00000" pt_clust_5="550.00000" pt_clust_6="41.18316"></scales>
<mgrwt>
<rscale>  0 0.30000000E+03</rscale>
<asrwt>  1 0.41183159E+02</asrwt>
<pdfrwt beam="1">  1        1 0.88719491E+00 0.30000000E+03</pdfrwt>
<pdfrwt beam="2">0</pdfrwt>
<totfact> 0.15361339E-04</totfact>
</mgrwt>
<clustering>
<clus scale="   41.183">  1  6  2 -1</clus>
<clus scale="  470.952">  4  5 -1 -1</clus>
<clus scale="  300.000">  1  4  2 -1</clus>
</clustering>
</event>
<event>
 6    1  0.1000035E-011  0.3000000E+03  0.7818608E-02  0.1093470E+00
          1   -1    0    0  502    0  0.00000000000E+00  0.00000000000E+00  0.24617910049E+03  0.24617910049E+03  0.00000000000E+00 0.  1.
         13   -1    0    0    0    0 -0.00000000000E+00 -0.00000000000E+00 -0.27500000000E+03  0.27500000000E+03  0.00000000000E+00 0.  1.
    9000005    2    1    2  501    0  0.28143597818E+01 -0.35394684089E+02 -0.34811964399E+02  0.48517080782E+03  0.48261592971E+03 0.  0.
         13    1    3    3    0    0 -0.13486335365E+02  0.15374347602E+03 -0.18656853934E+03  0.24212962960E+03  0.00000000000E+00 0.  1.
          1    1    3    3  501    0  0.16300695147E+02 -0.18913816011E+03  0.15175657494E+03  0.24304117822E+03  0.00000000000E+00 0.  1.
         21    1    1    2  502  501 -0.28143597818E+01  0.35394684089E+02  0.59910648890E+01  0.36008292674E+02  0.00000000000E+00 0.  1.
<scales pt_clust_4="550.00000" pt_clust_5="550.00000" pt_clust_6="35.50640"></scales>
<mgrwt>
<rscale>  0 0.30000000E+03</rscale>
<asrwt>  1 0.35506398E+02</asrwt>
<pdfrwt beam="1">  1        1 0.89519673E+00 0.30000000E+03</pdfrwt>
<pdfrwt beam="2">0</pdfrwt>
<totfact> 0.12511790E-04</totfact>
</mgrwt>
<clustering>
<clus scale="   35.506">  1  6  2 -1</clus>
<clus scale="  482.616">  4  5 -1 -1</clus>
<clus scale="  300.000">  1  4  2 -1</clus>
</clustering>
</event>
<event>
 6    1  0.1000035E-011  0.3000000E+03  0.7818608E-02  0.1093470E+00
          1   -1    0    0  502    0  0.00000000000E+00  0.00000000000E+00  0.23963390427E+03  0.23963390427E+03  0.00000000000E+00 0.  1.
         13   -1    0    0    0    0 -0.00000000000E+00 -0.00000000000E+00 -0.27500000000E+03  0.27500000000E+03  0.00000000000E+00 0.  1.
    9000005    2    1    2  501    0 -0.15727077069E+02  0.32595865850E+02 -0.57791308056E+02  0.47205783621E+03  0.46710698348E+03 0.  0.
         13    1    3    3    0    0  0.19531819061E+02 -0.63562208118E+01  0.20400753566E+03  0.20503894290E+03  0.00000000000E+00 0.  1.
          1    1    3    3  501    0 -0.35258896130E+02  0.38952086662E+02 -0.26179884372E+03  0.26701889331E+03  0.00000000000E+00 0.  1.
         21    1    1    2  502  501  0.15727077069E+02 -0.32595865850E+02  0.22425212331E+02  0.42576068064E+02  0.00000000000E+00 0.  1.
<scales pt_clust_4="550.00000" pt_clust_5="550.00000" pt_clust_6="36.19159"></scales>
<mgrwt>
<rscale>  0 0.30000000E+03</rscale>
<asrwt>  1 0.36191593E+02</asrwt>
<pdfrwt beam="1">  1        1 0.87139602E+00 0.30000000E+03</pdfrwt>
<pdfrwt beam="2">0</pdfrwt>
<totfact> 0.24354918E-04</totfact>
</mgrwt>
<clustering>
<clus scale="   36.192">  1  6  2 -1</clus>
<clus scale="  467.107">  4  5 -1 -1</clus>
<clus scale="  300.000">  1  4  2 -1</clus>
</clustering>
</event>
<event>
 6    1  0.1000035E-011  0.3000000E+03  0.7818608E-02  0.1093470E+00
          1   -1    0    0  502    0  0.00000000000E+00  0.00000000000E+00  0.23113077059E+03  0.23113077059E+03  0.00000000000E+00 0.  1.
         13   -1    0    0    0    0 -0.00000000000E+00 -0.00000000000E+00 -0.27500000000E+03  0.27500000000E+03  0.00000000000E+00 0.  1.
    9000005    2    1    2  501    0  0.32656788663E+02  0.15747655142E+02 -0.63760818241E+02  0.46477705498E+03  0.45895295446E+03 0.  0.
         13    1    3    3    0    0  0.21422218662E+03 -0.95323721090E+02 -0.88243874893E+02  0.25052891749E+03  0.00000000000E+00 0.  1.
          3    1    3    3  501    0 -0.18156539796E+03  0.11107137623E+03  0.24483056652E+02  0.21424813749E+03  0.00000000000E+00 0.  1.
         21    1    1    2  502  501 -0.32656788663E+02 -0.15747655142E+02  0.19891588828E+02  0.41353715605E+02  0.00000000000E+00 0. -1.
<scales pt_clust_4="550.00000" pt_clust_5="550.00000" pt_clust_6="36.25541"></scales>
<mgrwt>
<rscale>  0 0.30000000E+03</rscale>
<asrwt>  1 0.36255406E+02</asrwt>
<pdfrwt beam="1">  1        1 0.84047553E+00 0.30000000E+03</pdfrwt>
<pdfrwt beam="2">0</pdfrwt>
<totfact> 0.48962558E-04</totfact>
</mgrwt>
<clustering>
<clus scale="   36.255">  1  6  2 -1</clus>
<clus scale="  458.953">  4  5 -1 -1</clus>
<clus scale="  300.000">  1  4  2 -1</clus>
</clustering>
</event>
<event>
 6    1  0.1000035E-011  0.3000000E+03  0.7818608E-02  0.1093470E+00
          1   -1    0    0  502    0  0.00000000000E+00  0.00000000000E+00  0.23308450458E+03  0.23308450458E+03  0.00000000000E+00 0.  1.
         13   -1    0    0    0    0 -0.00000000000E+00 -0.00000000000E+00 -0.27500000000E+03  0.27500000000E+03  0.00000000000E+00 0.  1.
    9000005    2    1    2  501    0 -0.32227463691E+02  0.82729304400E+01 -0.46948122224E+02  0.47443367805E+03  0.47093113922E+03 0.  0.
         13    1    3    3    0    0 -0.81543546072E+02 -0.20777841348E+03 -0.10303156562E+03  0.24583881412E+03  0.00000000000E+00 0.  1.
          3    1    3    3  501    0  0.49316082381E+02  0.21605134392E+03  0.56083443391E+02  0.22859486393E+03  0.00000000000E+00 0.  1.
         21    1    1    2  502  501  0.32227463691E+02 -0.82729304400E+01  0.50326268068E+01  0.33650826536E+02  0.00000000000E+00 0.  1.
<scales pt_clust_4="550.00000" pt_clust_5="550.00000" pt_clust_6="33.27237"></scales>
<mgrwt>
<rscale>  0 0.30000000E+03</rscale>
<asrwt>  1 0.33272373E+02</asrwt>
<pdfrwt beam="1">  1        1 0.84758002E+00 0.30000000E+03</pdfrwt>
<pdfrwt beam="2">0</pdfrwt>
<totfact> 0.43259611E-04</totfact>
</mgrwt>
<clustering>
<clus scale="   33.272">  1  6  2 -1</clus>
<clus scale="  470.931">  4  5 -1 -1</clus>
<clus scale="  300.000">  1  4  2 -1</clus>
</clustering>
</event>
<event>
 6    1  0.1000035E-011  0.3000000E+03  0.7818608E-02  0.1093470E+00
          1   -1    0    0  502    0  0.00000000000E+00  0.00000000000E+00  0.25959612258E+03  0.25959612258E+03  0.00000000000E+00 0.  1.
         13   -1    0    0    0    0 -0.00000000000E+00 -0.00000000000E+00 -0.27500000000E+03  0.27500000000E+03  0.00000000000E+00 0.  1.
    9000005    2    1    2  501    0 -0.30645237421E+02  0.39201072995E+02 -0.56095030348E+02  0.47031840772E+03  0.46430259262E+03 0.  0.
         13    1    3    3    0    0 -0.15089143061E+03  0.20967722760E+03 -0.29048372253E+02  0.25995494136E+03  0.00000000000E+00 0.  1.
          1    1    3    3  501    0  0.12024619319E+03 -0.17047615461E+03 -0.27046658094E+02  0.21036346636E+03  0.00000000000E+00 0.  1.
         21    1    1    2  502  501  0.30645237421E+02 -0.39201072995E+02  0.40691152923E+02  0.64277714853E+02  0.00000000000E+00 0.  1.
<scales pt_clust_4="550.00000" pt_clust_5="550.00000" pt_clust_6="49.75796"></scales>
<mgrwt>
<rscale>  0 0.30000000E+03</rscale>
<asrwt>  1 0.49757961E+02</asrwt>
<pdfrwt beam="1">  1        1 0.94398590E+00 0.30000000E+03</pdfrwt>
<pdfrwt beam="2">0</pdfrwt>
<totfact> 0.15252612E-05</totfact>
</mgrwt>
<clustering>
<clus scale="   49.758">  1  6  2 -1</clus>
<clus scale="  464.303">  4  5 -1 -1</clus>
<clus scale="  300.000">  1  4  2 -1</clus>
</clustering>
</event>
<event>
 6    1  0.1000035E-011  0.3000000E+03  0.7818608E-02  0.1093470E+00
          1   -1    0    0  502    0  0.00000000000E+00  0.00000000000E+00  0.25597752992E+03  0.25597752992E+03  0.00000000000E+00 0.  1.
         13   -1    0    0    0    0 -0.00000000000E+00 -0.00000000000E+00 -0.27500000000E+03  0.27500000000E+03  0.00000000000E+00 0.  1.
    9000005    2    1    2  501    0  0.17876533756E+02  0.52954085532E+02  0.36515595496E+01  0.47066320945E+03  0.46731875333E+03 0.  0.
         13    1    3    3    0    0  0.24410986684E+02 -0.20753898314E+03 -0.14388661849E+02  0.20946445852E+03  0.00000000000E+00 0.  1.
          1    1    3    3  501    0 -0.65344529283E+01  0.26049306867E+03  0.18040221399E+02  0.26119875093E+03  0.00000000000E+00 0.  1.
         21    1    1    2  502  501 -0.17876533756E+02 -0.52954085532E+02 -0.22674029629E+02  0.60314320466E+02  0.00000000000E+00 0.  1.
<scales pt_clust_4="550.00000" pt_clust_5="550.00000" pt_clust_6="55.89015"></scales>
<mgrwt>
<rscale>  0 0.30000000E+03</rscale>
<asrwt>  1 0.55890149E+02</asrwt>
<pdfrwt beam="1">  1        1 0.93082738E+00 0.30000000E+03</pdfrwt>
<pdfrwt beam="2">0</pdfrwt>
<totfact> 0.23478178E-05</totfact>
</mgrwt>
<clustering>
<clus scale="   55.890">  1  6  2 -1</clus>
<clus scale="  467.319">  4  5 -1 -1</clus>
<clus scale="  300.000">  1  4  2 -1</clus>
</clustering>
</event>
<event>
 6    1  0.1000035E-011  0.3000000E+03  0.7818608E-02  0.1093470E+00
          1   -1    0    0  502    0  0.00000000000E+00  0.00000000000E+00  0.23204495266E+03  0.23204495266E+03  0.00000000000E+00 0.  1.
         13   -1    0    0    0    0 -0.00000000000E+00 -0.00000000000E+00 -0.27500000000E+03  0.27500000000E+03  0.00000000000E+00 0.  1.
    9000005    2    1    2  501    0  0.27314836350E+02  0.23191207961E+02 -0.62741562073E+02  0.46611283108E+03  0.46047881089E+03 0.  0.
         13    1    3    3    0    0 -0.31953090278E+02 -0.21441134929E+03 -0.36454578428E+02  0.21982302648E+03  0.00000000000E+00 0.  1.
          3    1    3    3  501    0  0.59267926628E+02  0.23760255725E+03 -0.26286983644E+02  0.24628980460E+03  0.00000000000E+00 0.  1.
         21    1    1    2  502  501 -0.27314836350E+02 -0.23191207961E+02  0.19786514731E+02  0.40932121576E+02  0.00000000000E+00 0.  1.
<scales pt_clust_4="550.00000" pt_clust_5="550.00000" pt_clust_6="35.83200"></scales>
<mgrwt>
<rscale>  0 0.30000000E+03</rscale>
<asrwt>  1 0.35832003E+02</asrwt>
<pdfrwt beam="1">  1        1 0.84379983E+00 0.30000000E+03</pdfrwt>
<pdfrwt beam="2">0</pdfrwt>
<totfact> 0.46072702E-04</totfact>
</mgrwt>
<clustering>
<clus scale="   35.832">  1  6  2 -1</clus>
<clus scale="  460.479">  4  5 -1 -1</clus>
<clus scale="  300.000">  1  4  2 -1</clus>
</clustering>
</event>
<event>
 6    1  0.1000035E-011  0.3000000E+03  0.7818608E-02  0.1093470E+00
          1   -1    0    0  502    0  0.00000000000E+00  0.00000000000E+00  0.24147008563E+03  0.24147008563E+03  0.00000000000E+00 0.  1.
         13   -1    0    0    0    0 -0.00000000000E+00 -0.00000000000E+00 -0.27500000000E+03  0.27500000000E+03  0.00000000000E+00 0.  1.
    9000005    2    1    2  501    0  0.21020124352E+02 -0.33428134367E+02 -0.22664731441E+02  0.47551476858E+03  0.47333003210E+03 0.  0.
         13    1    3    3    0    0 -0.62514258748E+02 -0.23473626142E+03 -0.69341219293E+02  0.25262096046E+03  0.00000000000E+00 0.  1.
          1    1    3    3  501    0  0.83534383100E+02  0.20130812705E+03  0.46676487852E+02  0.22289380812E+03  0.00000000000E+00 0.  1.
         21    1    1    2  502  501 -0.21020124352E+02  0.33428134367E+02 -0.10865182925E+02  0.40955317054E+02  0.00000000000E+00 0. -1.
<scales pt_clust_4="550.00000" pt_clust_5="550.00000" pt_clust_6="39.48781"></scales>
<mgrwt>
<rscale>  0 0.30000000E+03</rscale>
<asrwt>  1 0.39487813E+02</asrwt>
<pdfrwt beam="1">  1        1 0.87807304E+00 0.30000000E+03</pdfrwt>
<pdfrwt beam="2">0</pdfrwt>
<totfact> 0.20350588E-04</totfact>
</mgrwt>
<clustering>
<clus scale="   39.488">  1  6  2 -1</clus>
<clus scale="  473.330">  4  5 -1 -1</clus>
<clus scale="  300.000">  1  4  2 -1</clus>
</clustering>
</event>
<event>
 6    1  0.1000035E-011  0.3000000E+03  0.7818608E-02  0.1093470E+00
          1   -1    0    0  502    0  0.00000000000E+00  0.00000000000E+00  0.22663008601E+03  0.22663008601E+03  0.00000000000E+00 0.  1.
         13   -1    0    0    0    0 -0.00000000000E+00 -0.00000000000E+00 -0.27500000000E+03  0.27500000000E+03  0.00000000000E+00 0.  1.
    9000005    2    1    2  501    0 -0.27079089273E+02  0.18871525476E+02 -0.28476804439E+02  0.46309247636E+03  0.46103611759E+03 0.  0.
         13    1    3    3    0    0  0.17276132996E+03 -0.11420722209E+03  0.45146027146E+02  0.21196209679E+03  0.00000000000E+00 0.  1.
          3    1    3    3  501    0 -0.19984041923E+03  0.13307874757E+03 -0.73622831585E+02  0.25113037957E+03  0.00000000000E+00 0.  1.
         21    1    1    2  502  501  0.27079089273E+02 -0.18871525476E+02 -0.19893109553E+02  0.38537609647E+02  0.00000000000E+00 0.  1.
<scales pt_clust_4="550.00000" pt_clust_5="550.00000" pt_clust_6="33.00625"></scales>
<mgrwt>
<rscale>  0 0.30000000E+03</rscale>
<asrwt>  1 0.33006252E+02</asrwt>
<pdfrwt beam="1">  1        1 0.82410940E+00 0.30000000E+03</pdfrwt>
<pdfrwt beam="2">0</pdfrwt>
<totfact> 0.67262658E-04</totfact>
</mgrwt>
<clustering>
<clus scale="   33.006">  1  6  2 -1</clus>
<clus scale="  461.036">  4  5 -1 -1</clus>
<clus scale="  300.000">  1  4  2 -1</clus>
</clustering>
</event>
<event>
 6    1  0.1000035E-011  0.3000000E+03  0.7818608E-02  0.1093470E+00
          1   -1    0    0  502    0  0.00000000000E+00  0.00000000000E+00  0.24293807928E+03  0.24293807928E+03  0.00000000000E+00 0.  1.
         13   -1    0    0    0    0 -0.00000000000E+00 -0.00000000000E+00 -0.27500000000E+03  0.27500000000E+03  0.00000000000E+00 0.  1.
    9000005    2    1    2  501    0 -0.10991945233E+02  0.36073832139E+02 -0.61570381330E+02  0.47005391204E+03  0.46447564429E+03 0.  0.
         13    1    3    3    0    0 -0.68021817814E+02 -0.14433283601E+03 -0.18488049248E+03  0.24421247255E+03  0.00000000000E+00 0.  1.
          3    1    3    3  501    0  0.57029872582E+02  0.18040666815E+03  0.12331011115E+03  0.22584143949E+03  0.00000000000E+00 0.  1.
         21    1    1    2  502  501  0.10991945233E+02 -0.36073832139E+02  0.29508460611E+02  0.47884167245E+02  0.00000000000E+00 0.  1.
<scales pt_clust_4="550.00000" pt_clust_5="550.00000" pt_clust_6="37.71133"></scales>
<mgrwt>
<rscale>  0 0.30000000E+03</rscale>
<asrwt>  1 0.37711328E+02</asrwt>
<pdfrwt beam="1">  1        1 0.88341120E+00 0.30000000E+03</pdfrwt>
<pdfrwt beam="2">0</pdfrwt>
<totfact> 0.17588810E-04</totfact>
</mgrwt>
<clustering>
<clus scale="   37.711">  1  6  2 -1</clus>
<clus scale="  464.476">  4  5 -1 -1</clus>
<clus scale="  300.000">  1  4  2 -1</clus>
</clustering>
</event>
<event>
 6    1  0.1000035E-011  0.3000000E+03  0.7818608E-02  0.1093470E+00
          1   -1    0    0  502    0  0.00000000000E+00  0.00000000000E+00  0.22903675318E+03  0.22903675318E+03  0.00000000000E+00 0.  1.
         13   -1    0    0    0    0 -0.00000000000E+00 -0.00000000000E+00 -0.27500000000E+03  0.27500000000E+03  0.00000000000E+00 0.  1.
    9000005    2    1    2  501    0  0.15738686060E+02 -0.33106719576E+02 -0.60092584385E+02  0.46475063222E+03  0.45938901852E+03 0.  0.
         13    1    3    3    0    0  0.90047166021E+02 -0.14400826916E+03 -0.20599995365E+03  0.26698849151E+03  0.00000000000E+00 0.  1.
          1    1    3    3  501    0 -0.74308479961E+02  0.11090154958E+03  0.14590736926E+03  0.19776214071E+03  0.00000000000E+00 0.  1.
         21    1    1    2  502  501 -0.15738686060E+02  0.33106719576E+02  0.14129337567E+02  0.39286120960E+02  0.00000000000E+00 0.  1.
<scales pt_clust_4="550.00000" pt_clust_5="550.00000" pt_clust_6="36.65735"></scales>
<mgrwt>
<rscale>  0 0.30000000E+03</rscale>
<asrwt>  1 0.36657347E+02</asrwt>
<pdfrwt beam="1">  1        1 0.83286092E+00 0.30000000E+03</pdfrwt>
<pdfrwt beam="2">0</pdfrwt>
<totfact> 0.55629739E-04</totfact>
</mgrwt>
<clustering>
<clus scale="   36.657">  1  6  2 -1</clus>
<clus scale="  459.389">  4  5 -1 -1</clus>
<clus scale="  300.000">  1  4  2 -1</clus>
</clustering>
</event>
<event>
 6    1  0.1000035E-011  0.3000000E+03  0.7818608E-02  0.1093470E+00
          1   -1    0    0  502    0  0.00000000000E+00  0.00000000000E+00  0.23464659304E+03  0.23464659304E+03  0.00000000000E+00 0.  1.
         13   -1    0    0    0    0 -0.00000000000E+00 -0.00000000000E+00 -0.27500000000E+03  0.27500000000E+03  0.00000000000E+00 0.  1.
    9000005    2    1    2  501    0  0.17705940062E+02  0.40856352364E+02 -0.45219202251E+02  0.46485353771E+03  0.46050113293E+03 0.  0.
         13    1    3    3    0    0 -0.77529811409E+02  0.47466753472E+02  0.19020365769E+03  0.21081127992E+03  0.00000000000E+00 0.  1.
          3    1    3    3  501    0  0.95235751471E+02 -0.66104011073E+01 -0.23542285994E+03  0.25404225779E+03  0.00000000000E+00 0.  1.
         21    1    1    2  502  501 -0.17705940062E+02 -0.40856352364E+02  0.48657952941E+01  0.44793055331E+02  0.00000000000E+00 0.  1.
<scales pt_clust_4="550.00000" pt_clust_5="550.00000" pt_clust_6="44.52799"></scales>
<mgrwt>
<rscale>  0 0.30000000E+03</rscale>
<asrwt>  1 0.44527989E+02</asrwt>
<pdfrwt beam="1">  1        1 0.85326034E+00 0.30000000E+03</pdfrwt>
<pdfrwt beam="2">0</pdfrwt>
<totfact> 0.36254013E-04</totfact>
</mgrwt>
<clustering>
<clus scale="   44.528">  1  6  2 -1</clus>
<clus scale="  460.501">  4  5 -1 -1</clus>
<clus scale="  300.000">  1  4  2 -1</clus>
</clustering>
</event>
<event>
 6    1  0.1000035E-011  0.3000000E+03  0.7818608E-02  0.1093470E+00
          1   -1    0    0  502    0  0.00000000000E+00  0.00000000000E+00  0.23584014615E+03  0.23584014615E+03  0.00000000000E+00 0.  1.
         13   -1    0    0    0    0 -0.00000000000E+00 -0.00000000000E+00 -0.27500000000E+03  0.27500000000E+03  0.00000000000E+00 0.  1.
    9000005    2    1    2  501    0 -0.13251789136E+02  0.28673862610E+02 -0.41477244685E+02  0.47916727744E+03  0.47632249330E+03 0.  0.
         13    1    3    3    0    0  0.12041799226E+03 -0.29349636152E+02  0.17728551215E+03  0.21631469395E+03  0.00000000000E+00 0.  1.
          1    1    3    3  501    0 -0.13366978140E+03  0.58023498762E+02 -0.21876275683E+03  0.26285258348E+03  0.00000000000E+00 0.  1.
         21    1    1    2  502  501  0.13251789136E+02 -0.28673862610E+02  0.23173908353E+01  0.31672868714E+02  0.00000000000E+00 0. -1.
<scales pt_clust_4="550.00000" pt_clust_5="550.00000" pt_clust_6="31.58798"></scales>
<mgrwt>
<rscale>  0 0.30000000E+03</rscale>
<asrwt>  1 0.31587977E+02</asrwt>
<pdfrwt beam="1">  1        1 0.85760053E+00 0.30000000E+03</pdfrwt>
<pdfrwt beam="2">0</pdfrwt>
<totfact> 0.34954849E-04</totfact>
</mgrwt>
<clustering>
<clus scale="   31.588">  1  6  2 -1</clus>
<clus scale="  476.322">  4  5 -1 -1</clus>
<clus scale="  300.000">  1  4  2 -1</clus>
</clustering>
</event>
<event>
 6    1  0.1000035E-011  0.3000000E+03  0.7818608E-02  0.1093470E+00
          1   -1    0    0  502    0  0.00000000000E+00  0.00000000000E+00  0.22965469442E+03  0.22965469442E+03  0.00000000000E+00 0.  1.
         13   -1    0    0    0    0 -0.00000000000E+00 -0.00000000000E+00 -0.27500000000E+03  0.27500000000E+03  0.00000000000E+00 0.  1.
    9000005    2    1    2  501    0  0.77869417930E+01 -0.30491052741E+02 -0.71748760446E+02  0.46357570723E+03  0.45690722357E+03 0.  0.
         13    1    3    3    0    0 -0.17657208714E+03 -0.39879777654E+02  0.10393873064E+03  0.20873753460E+03  0.00000000000E+00 0.  1.
          1    1    3    3  501    0  0.18435902893E+03  0.93887249136E+01 -0.17568749109E+03  0.25483817263E+03  0.00000000000E+00 0.  1.
         21    1    1    2  502  501 -0.77869417930E+01  0.30491052741E+02  0.26403454869E+02  0.41078987192E+02  0.00000000000E+00 0.  1.
<scales pt_clust_4="550.00000" pt_clust_5="550.00000" pt_clust_6="31.46968"></scales>
<mgrwt>
<rscale>  0 0.30000000E+03</rscale>
<asrwt>  1 0.31469680E+02</asrwt>
<pdfrwt beam="1">  1        1 0.83510798E+00 0.30000000E+03</pdfrwt>
<pdfrwt beam="2">0</pdfrwt>
<totfact> 0.55096457E-04</totfact>
</mgrwt>
<clustering>
<clus scale="   31.470">  1  6  2 -1</clus>
<clus scale="  456.907">  4  5 -1 -1</clus>
<clus scale="  300.000">  1  4  2 -1</clus>
</clustering>
</event>
<event>
 6    1  0.1000035E-011  0.3000000E+03  0.7818608E-02  0.1093470E+00
          1   -1    0    0  502    0  0.00000000000E+00  0.00000000000E+00  0.22575734097E+03  0.22575734097E+03  0.00000000000E+00 0.  1.
         13   -1    0    0    0    0 -0.00000000000E+00 -0.00000000000E+00 -0.27500000000E+03  0.27500000000E+03  0.00000000000E+00 0.  1.
    9000005    2    1    2  501    0 -0.29631113333E+02  0.47714387334E+01 -0.63090041342E+02  0.46770405820E+03  0.46245644469E+03 0.  0.
         13    1    3    3    0    0  0.17402516582E+02 -0.17197058117E+03 -0.18085932069E+03  0.25017358424E+03  0.00000000000E+00 0.  1.
          1    1    3    3  501    0 -0.47033629916E+02  0.17674201991E+03  0.11776927935E+03  0.21753047396E+03  0.00000000000E+00 0.  1.
         21    1    1    2  502  501  0.29631113333E+02 -0.47714387334E+01  0.13847382314E+02  0.33053282771E+02  0.00000000000E+00 0.  1.
<scales pt_clust_4="550.00000" pt_clust_5="550.00000" pt_clust_6="30.01282"></scales>
<mgrwt>
<rscale>  0 0.30000000E+03</rscale>
<asrwt>  1 0.30012822E+02</asrwt>
<pdfrwt beam="1">  1        1 0.82093579E+00 0.30000000E+03</pdfrwt>
<pdfrwt beam="2">0</pdfrwt>
<totfact> 0.73084967E-04</totfact>
</mgrwt>
<clustering>
<clus scale="   30.013">  1  6  2 -1</clus>
<clus scale="  462.456">  4  5 -1 -1</clus>
<clus scale="  300.000">  1  4  2 -1</clus>
</clustering>
</event>
<event>
 6    1  0.1000035E-011  0.3000000E+03  0.7818608E-02  0.1093470E+00
          1   -1    0    0  502    0  0.00000000000E+00  0.00000000000E+00  0.22311163251E+03  0.22311163251E+03  0.00000000000E+00 0.  1.
         13   -1    0    0    0    0 -0.00000000000E+00 -0.00000000000E+00 -0.27500000000E+03  0.27500000000E+03  0.00000000000E+00 0.  1.
    9000005    2    1    2  501    0  0.17255143455E+02 -0.27926248974E+02 -0.60268203263E+02  0.46423188922E+03  0.45913110904E+03 0.  0.
         13    1    3    3    0    0  0.11990671062E+03 -0.17078759331E+03 -0.15914018393E+03  0.26243402871E+03  0.00000000000E+00 0.  1.
          3    1    3    3  501    0 -0.10265156716E+03  0.14286134434E+03  0.98871980671E+02  0.20179786052E+03  0.00000000000E+00 0.  1.
         21    1    1    2  502  501 -0.17255143455E+02  0.27926248974E+02  0.83798357690E+01  0.33879743283E+02  0.00000000000E+00 0.  1.
<scales pt_clust_4="550.00000" pt_clust_5="550.00000" pt_clust_6="32.82705"></scales>
<mgrwt>
<rscale>  0 0.30000000E+03</rscale>
<asrwt>  1 0.32827052E+02</asrwt>
<pdfrwt beam="1">  1        1 0.81131503E+00 0.30000000E+03</pdfrwt>
<pdfrwt beam="2">0</pdfrwt>
<totfact> 0.86204692E-04</totfact>
</mgrwt>
<clustering>
<clus scale="   32.827">  1  6  2 -1</clus>
<clus scale="  459.131">  4  5 -1 -1</clus>
<clus scale="  300.000">  1  4  2 -1</clus>
</clustering>
</event>
<event>
 6    1  0.1000035E-011  0.3000000E+03  0.7818608E-02  0.1093470E+00
          1   -1    0    0  502    0  0.00000000000E+00  0.00000000000E+00  0.23063021682E+03  0.23063021682E+03  0.00000000000E+00 0.  1.
         13   -1    0    0    0    0 -0.00000000000E+00 -0.00000000000E+00 -0.27500000000E+03  0.27500000000E+03  0.00000000000E+00 0.  1.
    9000005    2    1    2  501    0  0.19498662994E+02  0.30049070951E+02 -0.37554993995E+02  0.46916672994E+03  0.46628735602E+03 0.  0.
         13    1    3    3    0    0 -0.12267729294E+02  0.12160296068E+03  0.18768059394E+03  0.22396826242E+03  0.00000000000E+00 0.  1.
          1    1    3    3  501    0  0.31766392288E+02 -0.91553889726E+02 -0.22523558794E+03  0.24519846752E+03  0.00000000000E+00 0.  1.
         21    1    1    2  502  501 -0.19498662994E+02 -0.30049070951E+02 -0.68147891878E+01  0.36463486878E+02  0.00000000000E+00 0.  1.
<scales pt_clust_4="550.00000" pt_clust_5="550.00000" pt_clust_6="35.82102"></scales>
<mgrwt>
<rscale>  0 0.30000000E+03</rscale>
<asrwt>  1 0.35821025E+02</asrwt>
<pdfrwt beam="1">  1        1 0.83865533E+00 0.30000000E+03</pdfrwt>
<pdfrwt beam="2">0</pdfrwt>
<totfact> 0.50657920E-04</totfact>
</mgrwt>
<clustering>
<clus scale="   35.821">  1  6  2 -1</clus>
<clus scale="  466.287">  4  5 -1 -1</clus>
<clus scale="  300.000">  1  4  2 -1</clus>
</clustering>
</event>
<event>
 6    1  0.1000035E-011  0.3000000E+03  0.7818608E-02  0.1093470E+00
          1   -1    0    0  502    0  0.00000000000E+00  0.00000000000E+00  0.25129777638E+03  0.25129777638E+03  0.00000000000E+00 0.  1.
         13   -1    0    0    0    0 -0.00000000000E+00 -0.00000000000E+00 -0.27500000000E+03  0.27500000000E+03  0.00000000000E+00 0.  1.
    9000005    2    1    2  501    0  0.22005243653E+02  0.31540309363E+02 -0.53148848714E+02  0.47786095575E+03  0.47333631918E+03 0.  0.
         13    1    3    3    0    0 -0.17808676776E+03 -0.12677350773E+03 -0.79811518377E+01  0.21874669803E+03  0.00000000000E+00 0.  1.
          1    1    3    3  501    0  0.20009201141E+03  0.15831381709E+03 -0.45167696876E+02  0.25911425772E+03  0.00000000000E+00 0.  1.
         21    1    1    2  502  501 -0.22005243653E+02 -0.31540309363E+02  0.29446625095E+02  0.48436820627E+02  0.00000000000E+00 0. -1.
<scales pt_clust_4="550.00000" pt_clust_5="550.00000" pt_clust_6="38.45805"></scales>
<mgrwt>
<rscale>  0 0.30000000E+03</rscale>
<asrwt>  1 0.38458053E+02</asrwt>
<pdfrwt beam="1">  1        1 0.91381010E+00 0.30000000E+03</pdfrwt>
<pdfrwt beam="2">0</pdfrwt>
<totfact> 0.56797625E-05</totfact>
</mgrwt>
<clustering>
<clus scale="   38.458">  1  6  2 -1</clus>
<clus scale="  473.336">  4  5 -1 -1</clus>
<clus scale="  300.000">  1  4  2 -1</clus>
</clustering>
</event>
<event>
 6    1  0.1000035E-011  0.3000000E+03  0.7818608E-02  0.1093470E+00
          1   -1    0    0  502    0  0.00000000000E+00  0.00000000000E+00  0.22151051519E+03  0.22151051519E+03  0.00000000000E+00 0.  1.
         13   -1    0    0    0    0 -0.00000000000E+00 -0.00000000000E+00 -0.27500000000E+03  0.27500000000E+03  0.00000000000E+00 0.  1.
    9000005    2    1    2  501    0 -0.30765704034E+02  0.15407042526E+02 -0.50112835518E+02  0.46193729919E+03  0.45792015308E+03 0.  0.
         13    1    3    3    0    0  0.12618012671E+03  0.11891999500E+03  0.11799807965E+03  0.20973062816E+03  0.00000000000E+00 0.  1.
          3    1    3    3  501    0 -0.15694583074E+03 -0.10351295247E+03 -0.16811091517E+03  0.25220667103E+03  0.00000000000E+00 0.  1.
         21    1    1    2  502  501  0.30765704034E+02 -0.15407042526E+02 -0.33766492928E+01  0.34573215999E+02  0.00000000000E+00 0. -1.
<scales pt_clust_4="550.00000" pt_clust_5="550.00000" pt_clust_6="34.40793"></scales>
<mgrwt>
<rscale>  0 0.30000000E+03</rscale>
<asrwt>  1 0.34407928E+02</asrwt>
<pdfrwt beam="1">  1        1 0.80549278E+00 0.30000000E+03</pdfrwt>
<pdfrwt beam="2">0</pdfrwt>
<totfact> 0.94778884E-04</totfact>
</mgrwt>
<clustering>
<clus scale="   34.408">  1  6  2 -1</clus>
<clus scale="  457.920">  4  5 -1 -1</clus>
<clus scale="  300.000">  1  4  2 -1</clus>
</clustering>
</event>
<event>
 6    1  0.1000035E-011  0.3000000E+03  0.7818608E-02  0.1093470E+00
          1   -1    0    0  502    0  0.00000000000E+00  0.00000000000E+00  0.22648466043E+03  0.22648466043E+03  0.00000000000E+00 0.  1.
         13   -1    0    0    0    0 -0.00000000000E+00 -0.00000000000E+00 -0.27500000000E+03  0.27500000000E+03  0.00000000000E+00 0.  1.
    9000005    2    1    2  501    0  0.27824136769E+01  0.31758746071E+02 -0.59543335710E+02  0.46775075350E+03  0.46284878610E+03 0.  0.
         13    1    3    3    0    0 -0.14914655974E+03  0.13340261572E+03 -0.16266239680E+03  0.25787595758E+03  0.00000000000E+00 0.  1.
          1    1    3    3  501    0  0.15192897342E+03 -0.10164386965E+03  0.10311906109E+03  0.20987479592E+03  0.00000000000E+00 0.  1.
         21    1    1    2  502  501 -0.27824136769E+01 -0.31758746071E+02  0.11027996139E+02  0.33733906929E+02  0.00000000000E+00 0. -1.
<scales pt_clust_4="550.00000" pt_clust_5="550.00000" pt_clust_6="31.88040"></scales>
<mgrwt>
<rscale>  0 0.30000000E+03</rscale>
<asrwt>  1 0.31880398E+02</asrwt>
<pdfrwt beam="1">  1        1 0.82358058E+00 0.30000000E+03</pdfrwt>
<pdfrwt beam="2">0</pdfrwt>
<totfact> 0.68447595E-04</totfact>
</mgrwt>
<clustering>
<clus scale="   31.880">  1  6  2 -1</clus>
<clus scale="  462.849">  4  5 -1 -1</clus>
<clus scale="  300.000">  1  4  2 -1</clus>
</clustering>
</event>
<event>
 6    1  0.1000035E-011  0.3000000E+03  0.7818608E-02  0.1093470E+00
          1   -1    0    0  502    0  0.00000000000E+00  0.00000000000E+00  0.24028098423E+03  0.24028098423E+03  0.00000000000E+00 0.  1.
         13   -1    0    0    0    0 -0.00000000000E+00 -0.00000000000E+00 -0.27500000000E+03  0.27500000000E+03  0.00000000000E+00 0.  1.
    9000005    2    1    2  501    0  0.27783279710E+02  0.12427720164E+02 -0.35023152941E+02  0.48484332073E+03  0.48261792917E+03 0.  0.
         13    1    3    3    0    0  0.23163137203E+03  0.11121579279E+03 -0.23657822962E+02  0.25803437302E+03  0.00000000000E+00 0.  1.
          1    1    3    3  501    0 -0.20384809232E+03 -0.98788072623E+02 -0.11365329979E+02  0.22680894771E+03  0.00000000000E+00 0.  1.
         21    1    1    2  502  501 -0.27783279710E+02 -0.12427720164E+02  0.30413717331E+00  0.30437663500E+02  0.00000000000E+00 0.  1.
<scales pt_clust_4="550.00000" pt_clust_5="550.00000" pt_clust_6="30.43614"></scales>
<mgrwt>
<rscale>  0 0.30000000E+03</rscale>
<asrwt>  1 0.30436144E+02</asrwt>
<pdfrwt beam="1">  1        1 0.87374903E+00 0.30000000E+03</pdfrwt>
<pdfrwt beam="2">0</pdfrwt>
<totfact> 0.23803340E-04</totfact>
</mgrwt>
<clustering>
<clus scale="   30.436">  1  6  2 -1</clus>
<clus scale="  482.618">  4  5 -1 -1</clus>
<clus scale="  300.000">  1  4  2 -1</clus>
</clustering>
</event>
<event>
 6    1  0.1000035E-011  0.3000000E+03  0.7818608E-02  0.1093470E+00
          1   -1    0    0  502    0  0.00000000000E+00  0.00000000000E+00  0.25299263841E+03  0.25299263841E+03  0.00000000000E+00 0.  1.
         13   -1    0    0    0    0 -0.00000000000E+00 -0.00000000000E+00 -0.27500000000E+03  0.27500000000E+03  0.00000000000E+00 0.  1.
    9000005    2    1    2  501    0 -0.44566751228E+02  0.32416582793E+02 -0.17865207175E+02  0.47272793360E+03  0.46916468689E+03 0.  0.
         13    1    3    3    0    0  0.20420850280E+03  0.58025312296E+02  0.40007570233E+02  0.21602929237E+03  0.00000000000E+00 0.  1.
          3    1    3    3  501    0 -0.24877525403E+03 -0.25608729504E+02 -0.57872777408E+02  0.25669864123E+03  0.00000000000E+00 0.  1.
         21    1    1    2  502  501  0.44566751228E+02 -0.32416582793E+02 -0.41421544119E+01  0.55264704814E+02  0.00000000000E+00 0.  1.
<scales pt_clust_4="550.00000" pt_clust_5="550.00000" pt_clust_6="55.10928"></scales>
<mgrwt>
<rscale>  0 0.30000000E+03</rscale>
<asrwt>  1 0.55109284E+02</asrwt>
<pdfrwt beam="1">  1        1 0.91997323E+00 0.30000000E+03</pdfrwt>
<pdfrwt beam="2">0</pdfrwt>
<totfact> 0.38580257E-05</totfact>
</mgrwt>
<clustering>
<clus scale="   55.109">  1  6  2 -1</clus>
<clus scale="  469.165">  4  5 -1 -1</clus>
<clus scale="  300.000">  1  4  2 -1</clus>
</clustering>
</event>
<event>
 6    1  0.1000035E-011  0.3000000E+03  0.7818608E-02  0.1093470E+00
          1   -1    0    0  502    0  0.00000000000E+00  0.00000000000E+00  0.22940082418E+03  0.22940082418E+03  0.00000000000E+00 0.  1.
         13   -1    0    0    0    0 -0.00000000000E+00 -0.00000000000E+00 -0.27500000000E+03  0.27500000000E+03  0.00000000000E+00 0.  1.
    9000005    2    1    2  501    0 -0.30184661106E+02 -0.54311619133E+01 -0.51989613968E+02  0.47307273797E+03  0.46920601463E+03 0.  0.
         13    1    3    3    0    0 -0.22947650691E+03 -0.37780281103E+02 -0.11782517514E+03  0.26070977880E+03  0.00000000000E+00 0.  1.
          1    1    3    3  501    0  0.19929184580E+03  0.32349119190E+02  0.65835561171E+02  0.21236295918E+03  0.00000000000E+00 0.  1.
         21    1    1    2  502  501  0.30184661106E+02  0.54311619133E+01  0.63904381517E+01  0.31328086210E+02  0.00000000000E+00 0. -1.
<scales pt_clust_4="550.00000" pt_clust_5="550.00000" pt_clust_6="30.66939"></scales>
<mgrwt>
<rscale>  0 0.30000000E+03</rscale>
<asrwt>  1 0.30669387E+02</asrwt>
<pdfrwt beam="1">  1        1 0.83418482E+00 0.30000000E+03</pdfrwt>
<pdfrwt beam="2">0</pdfrwt>
<totfact> 0.56238124E-04</totfact>
</mgrwt>
<clustering>
<clus scale="   30.669">  1  6  2 -1</clus>
<clus scale="  469.206">  4  5 -1 -1</clus>
<clus scale="  300.000">  1  4  2 -1</clus>
</clustering>
</event>
<event>
 6    1  0.1000035E-011  0.3000000E+03  0.7818608E-02  0.1093470E+00
          1   -1    0    0  502    0  0.00000000000E+00  0.00000000000E+00  0.23355522157E+03  0.23355522157E+03  0.00000000000E+00 0.  1.
         13   -1    0    0    0    0 -0.00000000000E+00 -0.00000000000E+00 -0.27500000000E+03  0.27500000000E+03  0.00000000000E+00 0.  1.
    9000005    2    1    2  501    0  0.10526034650E+02 -0.37256678503E+02 -0.52169440116E+02  0.46838214766E+03  0.46385485690E+03 0.  0.
         13    1    3    3    0    0  0.19551940936E+02 -0.25083988621E+03 -0.32873363500E+02  0.25373920654E+03  0.00000000000E+00 0.  1.
          1    1    3    3  501    0 -0.90259062857E+01  0.21358320771E+03 -0.19296076617E+02  0.21464294112E+03  0.00000000000E+00 0.  1.
         21    1    1    2  502  501 -0.10526034650E+02  0.37256678503E+02  0.10724661683E+02  0.40173073902E+02  0.00000000000E+00 0.  1.
<scales pt_clust_4="550.00000" pt_clust_5="550.00000" pt_clust_6="38.71508"></scales>
<mgrwt>
<rscale>  0 0.30000000E+03</rscale>
<asrwt>  1 0.38715081E+02</asrwt>
<pdfrwt beam="1">  1        1 0.84929171E+00 0.30000000E+03</pdfrwt>
<pdfrwt beam="2">0</pdfrwt>
<totfact> 0.40558233E-04</totfact>
</mgrwt>
<clustering>
<clus scale="   38.715">  1  6  2 -1</clus>
<clus scale="  463.855">  4  5 -1 -1</clus>
<clus scale="  300.000">  1  4  2 -1</clus>
</clustering>
</event>
<event>
 6    1  0.1000035E-011  0.3000000E+03  0.7818608E-02  0.1093470E+00
          1   -1    0    0  502    0  0.00000000000E+00  0.00000000000E+00  0.23167665930E+03  0.23167665930E+03  0.00000000000E+00 0.  1.
         13   -1    0    0    0    0 -0.00000000000E+00 -0.00000000000E+00 -0.27500000000E+03  0.27500000000E+03  0.00000000000E+00 0.  1.
    9000005    2    1    2  501    0  0.23761626920E+02  0.19078407784E+02 -0.29782291403E+02  0.47333058646E+03  0.47140880204E+03 0.  0.
         13    1    3    3    0    0  0.22941692104E+03 -0.23333237279E+02 -0.10079239176E+03  0.25166579000E+03  0.00000000000E+00 0.  1.
          1    1    3    3  501    0 -0.20565529412E+03  0.42411645063E+02  0.71010100359E+02  0.22166479646E+03  0.00000000000E+00 0.  1.
         21    1    1    2  502  501 -0.23761626920E+02 -0.19078407784E+02 -0.13541049297E+02  0.33346072836E+02  0.00000000000E+00 0.  1.
<scales pt_clust_4="550.00000" pt_clust_5="550.00000" pt_clust_6="30.47296"></scales>
<mgrwt>
<rscale>  0 0.30000000E+03</rscale>
<asrwt>  1 0.30472963E+02</asrwt>
<pdfrwt beam="1">  1        1 0.84246058E+00 0.30000000E+03</pdfrwt>
<pdfrwt beam="2">0</pdfrwt>
<totfact> 0.48759616E-04</totfact>
</mgrwt>
<clustering>
<clus scale="   30.473">  1  6  2 -1</clus>
<clus scale="  471.409">  4  5 -1 -1</clus>
<clus scale="  300.000">  1  4  2 -1</clus>
</clustering>
</event>
<event>
 6    1  0.1000035E-011  0.3000000E+03  0.7818608E-02  0.1093470E+00
          1   -1    0    0  502    0  0.00000000000E+00  0.00000000000E+00  0.23858425211E+03  0.23858425211E+03  0.00000000000E+00 0.  1.
         13   -1    0    0    0    0 -0.00000000000E+00 -0.00000000000E+00 -0.27500000000E+03  0.27500000000E+03  0.00000000000E+00 0.  1.
    9000005    2    1    2  501    0  0.13657462259E+02  0.37036831192E+02 -0.42340519359E+02  0.47366738779E+03  0.47011681690E+03 0.  0.
         13    1    3    3    0    0 -0.14620403588E+02  0.12870399428E+03  0.18561831438E+03  0.22634626786E+03  0.00000000000E+00 0.  1.
          1    1    3    3  501    0  0.28277865848E+02 -0.91667163083E+02 -0.22795883373E+03  0.24732111993E+03  0.00000000000E+00 0.  1.
         21    1    1    2  502  501 -0.13657462259E+02 -0.37036831192E+02  0.59247714685E+01  0.39916864319E+02  0.00000000000E+00 0.  1.
<scales pt_clust_4="550.00000" pt_clust_5="550.00000" pt_clust_6="39.47472"></scales>
<mgrwt>
<rscale>  0 0.30000000E+03</rscale>
<asrwt>  1 0.39474715E+02</asrwt>
<pdfrwt beam="1">  1        1 0.86757910E+00 0.30000000E+03</pdfrwt>
<pdfrwt beam="2">0</pdfrwt>
<totfact> 0.26233812E-04</totfact>
</mgrwt>
<clustering>
<clus scale="   39.475">  1  6  2 -1</clus>
<clus scale="  470.117">  4  5 -1 -1</clus>
<clus scale="  300.000">  1  4  2 -1</clus>
</clustering>
</event>
<event>
 6    1  0.1000035E-011  0.3000000E+03  0.7818608E-02  0.1093470E+00
          1   -1    0    0  502    0  0.00000000000E+00  0.00000000000E+00  0.22951898615E+03  0.22951898615E+03  0.00000000000E+00 0.  1.
         13   -1    0    0    0    0 -0.00000000000E+00 -0.00000000000E+00 -0.27500000000E+03  0.27500000000E+03  0.00000000000E+00 0.  1.
    9000005    2    1    2  501    0 -0.29134342355E+02  0.12290359509E+02 -0.59845623069E+02  0.46978852633E+03  0.46488697339E+03 0.  0.
         13    1    3    3    0    0 -0.22221004813E+03 -0.97011690250E+02 -0.50852569151E+02  0.24773888940E+03  0.00000000000E+00 0.  1.
          1    1    3    3  501    0  0.19307570577E+03  0.10930204976E+03 -0.89930539180E+01  0.22204963693E+03  0.00000000000E+00 0.  1.
         21    1    1    2  502  501  0.29134342355E+02 -0.12290359509E+02  0.14364609222E+02  0.34730459822E+02  0.00000000000E+00 0. -1.
<scales pt_clust_4="550.00000" pt_clust_5="550.00000" pt_clust_6="31.62061"></scales>
<mgrwt>
<rscale>  0 0.30000000E+03</rscale>
<asrwt>  1 0.31620608E+02</asrwt>
<pdfrwt beam="1">  1        1 0.83461450E+00 0.30000000E+03</pdfrwt>
<pdfrwt beam="2">0</pdfrwt>
<totfact> 0.55505365E-04</totfact>
</mgrwt>
<clustering>
<clus scale="   31.621">  1  6  2 -1</clus>
<clus scale="  464.887">  4  5 -1 -1</clus>
<clus scale="  300.000">  1  4  2 -1</clus>
</clustering>
</event>
<event>
 6    1  0.1000035E-011  0.3000000E+03  0.7818608E-02  0.1093470E+00
          1   -1    0    0  502    0  0.00000000000E+00  0.00000000000E+00  0.22610527770E+03  0.22610527770E+03  0.00000000000E+00 0.  1.
         13   -1    0    0    0    0 -0.00000000000E+00 -0.00000000000E+00 -0.27500000000E+03  0.27500000000E+03  0.00000000000E+00 0.  1.
    9000005    2    1    2  501    0  0.18625590523E+02  0.33402271330E+02 -0.32572887550E+02  0.45952371157E+03  0.45676955255E+03 0.  0.
         13    1    3    3    0    0  0.11385290985E+03 -0.85009316804E+02 -0.19227734626E+03  0.23908083760E+03  0.00000000000E+00 0.  1.
          1    1    3    3  501    0 -0.95227319327E+02  0.11841158813E+03  0.15970445871E+03  0.22044287397E+03  0.00000000000E+00 0.  1.
         21    1    1    2  502  501 -0.18625590523E+02 -0.33402271330E+02 -0.16321834749E+02  0.41581566131E+02  0.00000000000E+00 0.  1.
<scales pt_clust_4="550.00000" pt_clust_5="550.00000" pt_clust_6="38.24429"></scales>
<mgrwt>
<rscale>  0 0.30000000E+03</rscale>
<asrwt>  1 0.38244291E+02</asrwt>
<pdfrwt beam="1">  1        1 0.82220101E+00 0.30000000E+03</pdfrwt>
<pdfrwt beam="2">0</pdfrwt>
<totfact> 0.68053886E-04</totfact>
</mgrwt>
<clustering>
<clus scale="   38.244">  1  6  2 -1</clus>
<clus scale="  456.770">  4  5 -1 -1</clus>
<clus scale="  300.000">  1  4  2 -1</clus>
</clustering>
</event>
<event>
 6    1  0.1000035E-011  0.3000000E+03  0.7818608E-02  0.1093470E+00
          1   -1    0    0  502    0  0.00000000000E+00  0.00000000000E+00  0.22436858893E+03  0.22436858893E+03  0.00000000000E+00 0.  1.
         13   -1    0    0    0    0 -0.00000000000E+00 -0.00000000000E+00 -0.27500000000E+03  0.27500000000E+03  0.00000000000E+00 0.  1.
    9000005    2    1    2  501    0 -0.24146189822E+02  0.22031679911E+02 -0.60875206687E+02  0.46511411840E+03  0.45995317038E+03 0.  0.
         13    1    3    3    0    0 -0.63085388485E+02  0.16195419656E+03  0.13583849318E+03  0.22059243925E+03  0.00000000000E+00 0.  1.
          1    1    3    3  501    0  0.38939198663E+02 -0.13992251665E+03 -0.19671369987E+03  0.24452167915E+03  0.00000000000E+00 0.  1.
         21    1    1    2  502  501  0.24146189822E+02 -0.22031679911E+02  0.10243795616E+02  0.34254470529E+02  0.00000000000E+00 0.  1.
<scales pt_clust_4="550.00000" pt_clust_5="550.00000" pt_clust_6="32.68690"></scales>
<mgrwt>
<rscale>  0 0.30000000E+03</rscale>
<asrwt>  1 0.32686900E+02</asrwt>
<pdfrwt beam="1">  1        1 0.81588578E+00 0.30000000E+03</pdfrwt>
<pdfrwt beam="2">0</pdfrwt>
<totfact> 0.79311767E-04</totfact>
</mgrwt>
<clustering>
<clus scale="   32.687">  1  6  2 -1</clus>
<clus scale="  459.953">  4  5 -1 -1</clus>
<clus scale="  300.000">  1  4  2 -1</clus>
</clustering>
</event>
<event>
 6    1  0.1000035E-011  0.3000000E+03  0.7818608E-02  0.1093470E+00
          1   -1    0    0  502    0  0.00000000000E+00  0.00000000000E+00  0.24660903670E+03  0.24660903670E+03  0.00000000000E+00 0.  1.
         13   -1    0    0    0    0 -0.00000000000E+00 -0.00000000000E+00 -0.27500000000E+03  0.27500000000E+03  0.00000000000E+00 0.  1.
    9000005    2    1    2  501    0 -0.28733600764E+01 -0.52739628379E+02 -0.27176311035E+02  0.46877722830E+03  0.46499872396E+03 0.  0.
         13    1    3    3    0    0  0.12306410740E+03 -0.14183367524E+03 -0.17385869759E+03  0.25590703915E+03  0.00000000000E+00 0.  1.
          1    1    3    3  501    0 -0.12593746748E+03  0.89094046859E+02  0.14668238655E+03  0.21287018914E+03  0.00000000000E+00 0.  1.
         21    1    1    2  502  501  0.28733600764E+01  0.52739628379E+02 -0.12146522605E+01  0.52831808409E+02  0.00000000000E+00 0.  1.
<scales pt_clust_4="550.00000" pt_clust_5="550.00000" pt_clust_6="52.81784"></scales>
<mgrwt>
<rscale>  0 0.30000000E+03</rscale>
<asrwt>  1 0.52817844E+02</asrwt>
<pdfrwt beam="1">  1        1 0.89676013E+00 0.30000000E+03</pdfrwt>
<pdfrwt beam="2">0</pdfrwt>
<totfact> 0.11190253E-04</totfact>
</mgrwt>
<clustering>
<clus scale="   52.818">  1  6  2 -1</clus>
<clus scale="  464.999">  4  5 -1 -1</clus>
<clus scale="  300.000">  1  4  2 -1</clus>
</clustering>
</event>
<event>
 6    1  0.1000035E-011  0.3000000E+03  0.7818608E-02  0.1093470E+00
          1   -1    0    0  502    0  0.00000000000E+00  0.00000000000E+00  0.24130601228E+03  0.24130601228E+03  0.00000000000E+00 0.  1.
         13   -1    0    0    0    0 -0.00000000000E+00 -0.00000000000E+00 -0.27500000000E+03  0.27500000000E+03  0.00000000000E+00 0.  1.
    9000005    2    1    2  501    0 -0.15814422016E+02  0.35811332773E+02 -0.59316577413E+02  0.46951857164E+03  0.46410848437E+03 0.  0.
         13    1    3    3    0    0  0.12709841853E+02 -0.17952521194E+03  0.94575919448E+02  0.20331120565E+03  0.00000000000E+00 0.  1.
          1    1    3    3  501    0 -0.28524263869E+02  0.21533654472E+03 -0.15389249686E+03  0.26620736599E+03  0.00000000000E+00 0.  1.
         21    1    1    2  502  501  0.15814422016E+02 -0.35811332773E+02  0.25622589691E+02  0.46787440635E+02  0.00000000000E+00 0.  1.
<scales pt_clust_4="550.00000" pt_clust_5="550.00000" pt_clust_6="39.14776"></scales>
<mgrwt>
<rscale>  0 0.30000000E+03</rscale>
<asrwt>  1 0.39147765E+02</asrwt>
<pdfrwt beam="1">  1        1 0.87747641E+00 0.30000000E+03</pdfrwt>
<pdfrwt beam="2">0</pdfrwt>
<totfact> 0.20704256E-04</totfact>
</mgrwt>
<clustering>
<clus scale="   39.148">  1  6  2 -1</clus>
<clus scale="  464.108">  4  5 -1 -1</clus>
<clus scale="  300.000">  1  4  2 -1</clus>
</clustering>
</event>
<event>
 6    1  0.1000035E-011  0.3000000E+03  0.7818608E-02  0.1093470E+00
          1   -1    0    0  502    0  0.00000000000E+00  0.00000000000E+00  0.25076680490E+03  0.25076680490E+03  0.00000000000E+00 0.  1.
         13   -1    0    0    0    0 -0.00000000000E+00 -0.00000000000E+00 -0.27500000000E+03  0.27500000000E+03  0.00000000000E+00 0.  1.
    9000005    2    1    2  501    0 -0.24571607461E+01 -0.40876253945E+02 -0.38312860633E+02  0.48246388633E+03  0.47919371923E+03 0.  0.
         13    1    3    3    0    0 -0.11393277023E+03  0.19122466546E+03 -0.32185780114E+02  0.22490769942E+03  0.00000000000E+00 0.  1.
          1    1    3    3  501    0  0.11147560949E+03 -0.23210091941E+03 -0.61270805185E+01  0.25755618691E+03  0.00000000000E+00 0.  1.
         21    1    1    2  502  501  0.24571607461E+01  0.40876253945E+02  0.14079665535E+02  0.43302918574E+02  0.00000000000E+00 0. -1.
<scales pt_clust_4="550.00000" pt_clust_5="550.00000" pt_clust_6="40.95004"></scales>
<mgrwt>
<rscale>  0 0.30000000E+03</rscale>
<asrwt>  1 0.40950040E+02</asrwt>
<pdfrwt beam="1">  1        1 0.91187929E+00 0.30000000E+03</pdfrwt>
<pdfrwt beam="2">0</pdfrwt>
<totfact> 0.62714463E-05</totfact>
</mgrwt>
<clustering>
<clus scale="   40.950">  1  6  2 -1</clus>
<clus scale="  479.194">  4  5 -1 -1</clus>
<clus scale="  300.000">  1  4  2 -1</clus>
</clustering>
</event>
<event>
 6    1  0.1000035E-011  0.3000000E+03  0.7818608E-02  0.1093470E+00
          1   -1    0    0  502    0  0.00000000000E+00  0.00000000000E+00  0.24370939420E+03  0.24370939420E+03  0.00000000000E+00 0.  1.
         13   -1    0    0    0    0 -0.00000000000E+00 -0.00000000000E+00 -0.27500000000E+03  0.27500000000E+03  0.00000000000E+00 0.  1.
    9000005    2    1    2  501    0 -0.35345558153E+02  0.65302848711E+01 -0.42323431847E+02  0.48111050655E+03  0.47789548390E+03 0.  0.
         13    1    3    3    0    0  0.37503033869E+02 -0.16450203110E+03 -0.18230567241E+03  0.24840039045E+03  0.00000000000E+00 0.  1.
          1    1    3    3  501    0 -0.72848592022E+02  0.17103231597E+03  0.13998224056E+03  0.23271011610E+03  0.00000000000E+00 0.  1.
         21    1    1    2  502  501  0.35345558153E+02 -0.65302848711E+01  0.11032826046E+02  0.37598887646E+02  0.00000000000E+00 0.  1.
<scales pt_clust_4="550.00000" pt_clust_5="550.00000" pt_clust_6="35.94375"></scales>
<mgrwt>
<rscale>  0 0.30000000E+03</rscale>
<asrwt>  1 0.35943749E+02</asrwt>
<pdfrwt beam="1">  1        1 0.88621598E+00 0.30000000E+03</pdfrwt>
<pdfrwt beam="2">0</pdfrwt>
<totfact> 0.16248478E-04</totfact>
</mgrwt>
<clustering>
<clus scale="   35.944">  1  6  2 -1</clus>
<clus scale="  477.895">  4  5 -1 -1</clus>
<clus scale="  300.000">  1  4  2 -1</clus>
</clustering>
</event>
<event>
 6    1  0.1000035E-011  0.3000000E+03  0.7818608E-02  0.1093470E+00
          1   -1    0    0  502    0  0.00000000000E+00  0.00000000000E+00  0.23574554807E+03  0.23574554807E+03  0.00000000000E+00 0.  1.
         13   -1    0    0    0    0 -0.00000000000E+00 -0.00000000000E+00 -0.27500000000E+03  0.27500000000E+03  0.00000000000E+00 0.  1.
    9000005    2    1    2  501    0  0.33998816675E+02 -0.22129610359E+02 -0.57516226261E+02  0.46625811623E+03  0.46091525846E+03 0.  0.
         13    1    3    3    0    0  0.58330299784E+02 -0.19651474393E+03 -0.16221395558E+03  0.26140741351E+03  0.00000000000E+00 0.  1.
          3    1    3    3  501    0 -0.24331483109E+02  0.17438513357E+03  0.10469772932E+03  0.20485070272E+03  0.00000000000E+00 0.  1.
         21    1    1    2  502  501 -0.33998816675E+02  0.22129610359E+02  0.18261774333E+02  0.44487431840E+02  0.00000000000E+00 0. -1.
<scales pt_clust_4="550.00000" pt_clust_5="550.00000" pt_clust_6="40.56648"></scales>
<mgrwt>
<rscale>  0 0.30000000E+03</rscale>
<asrwt>  1 0.40566479E+02</asrwt>
<pdfrwt beam="1">  1        1 0.85725654E+00 0.30000000E+03</pdfrwt>
<pdfrwt beam="2">0</pdfrwt>
<totfact> 0.33637831E-04</totfact>
</mgrwt>
<clustering>
<clus scale="   40.566">  1  6  2 -1</clus>
<clus scale="  460.915">  4  5 -1 -1</clus>
<clus scale="  300.000">  1  4  2 -1</clus>
</clustering>
</event>
<event>
 6    1  0.1000035E-011  0.3000000E+03  0.7818608E-02  0.1093470E+00
          1   -1    0    0  502    0  0.00000000000E+00  0.00000000000E+00  0.23766181703E+03  0.23766181703E+03  0.00000000000E+00 0.  1.
         13   -1    0    0    0    0 -0.00000000000E+00 -0.00000000000E+00 -0.27500000000E+03  0.27500000000E+03  0.00000000000E+00 0.  1.
    9000005    2    1    2  501    0  0.27704785039E+02  0.12423081339E+02 -0.53133897419E+02  0.47843620295E+03  0.47450616559E+03 0.  0.
         13    1    3    3    0    0  0.43749180571E+02  0.16127991578E+03  0.15103957563E+03  0.22525131619E+03  0.00000000000E+00 0.  1.
          3    1    3    3  501    0 -0.16044395532E+02 -0.14885683444E+03 -0.20417347305E+03  0.25318488677E+03  0.00000000000E+00 0.  1.
         21    1    1    2  502  501 -0.27704785039E+02 -0.12423081339E+02  0.15795714453E+02  0.34225614079E+02  0.00000000000E+00 0.  1.
<scales pt_clust_4="550.00000" pt_clust_5="550.00000" pt_clust_6="30.36261"></scales>
<mgrwt>
<rscale>  0 0.30000000E+03</rscale>
<asrwt>  1 0.30362610E+02</asrwt>
<pdfrwt beam="1">  1        1 0.86422479E+00 0.30000000E+03</pdfrwt>
<pdfrwt beam="2">0</pdfrwt>
<totfact> 0.29920780E-04</totfact>
</mgrwt>
<clustering>
<clus scale="   30.363">  1  6  2 -1</clus>
<clus scale="  474.506">  4  5 -1 -1</clus>
<clus scale="  300.000">  1  4  2 -1</clus>
</clustering>
</event>
<event>
 6    1  0.1000035E-011  0.3000000E+03  0.7818608E-02  0.1093470E+00
          1   -1    0    0  502    0  0.00000000000E+00  0.00000000000E+00  0.23271202009E+03  0.23271202009E+03  0.00000000000E+00 0.  1.
         13   -1    0    0    0    0 -0.00000000000E+00 -0.00000000000E+00 -0.27500000000E+03  0.27500000000E+03  0.00000000000E+00 0.  1.
    9000005    2    1    2  501    0 -0.32963776424E+02  0.12722081468E+02 -0.41274207029E+02  0.47236389923E+03  0.46922876214E+03 0.  0.
         13    1    3    3    0    0 -0.99011609067E+02  0.87633169780E+02  0.18363137510E+03  0.22628157922E+03  0.00000000000E+00 0.  1.
          1    1    3    3  501    0  0.66047832642E+02 -0.74911088313E+02 -0.22490558212E+03  0.24608232001E+03  0.00000000000E+00 0.  1.
         21    1    1    2  502  501  0.32963776424E+02 -0.12722081468E+02 -0.10137728800E+01  0.35348120862E+02  0.00000000000E+00 0.  1.
<scales pt_clust_4="550.00000" pt_clust_5="550.00000" pt_clust_6="35.33358"></scales>
<mgrwt>
<rscale>  0 0.30000000E+03</rscale>
<asrwt>  1 0.35333581E+02</asrwt>
<pdfrwt beam="1">  1        1 0.84622553E+00 0.30000000E+03</pdfrwt>
<pdfrwt beam="2">0</pdfrwt>
<totfact> 0.43992858E-04</totfact>
</mgrwt>
<clustering>
<clus scale="   35.334">  1  6  2 -1</clus>
<clus scale="  469.229">  4  5 -1 -1</clus>
<clus scale="  300.000">  1  4  2 -1</clus>
</clustering>
</event>
<event>
 6    1  0.1000035E-011  0.3000000E+03  0.7818608E-02  0.1093470E+00
          1   -1    0    0  502    0  0.00000000000E+00  0.00000000000E+00  0.24770508080E+03  0.24770508080E+03  0.00000000000E+00 0.  1.
         13   -1    0    0    0    0 -0.00000000000E+00 -0.00000000000E+00 -0.27500000000E+03  0.27500000000E+03  0.00000000000E+00 0.  1.
    9000005    2    1    2  501    0  0.27271804938E+02 -0.43491842744E+02 -0.28894978321E+02  0.47134505823E+03  0.46764939047E+03 0.  0.
         13    1    3    3    0    0 -0.17517256533E+02 -0.20693428234E+03  0.12503045156E+03  0.24240723030E+03  0.00000000000E+00 0.  1.
          1    1    3    3  501    0  0.44789061472E+02  0.16344243960E+03 -0.15392542988E+03  0.22893782792E+03  0.00000000000E+00 0.  1.
         21    1    1    2  502  501 -0.27271804938E+02  0.43491842744E+02  0.16000591231E+01  0.51360022577E+02  0.00000000000E+00 0.  1.
<scales pt_clust_4="550.00000" pt_clust_5="550.00000" pt_clust_6="51.33509"></scales>
<mgrwt>
<rscale>  0 0.30000000E+03</rscale>
<asrwt>  1 0.51335093E+02</asrwt>
<pdfrwt beam="1">  1        1 0.90074575E+00 0.30000000E+03</pdfrwt>
<pdfrwt beam="2">0</pdfrwt>
<totfact> 0.10080807E-04</totfact>
</mgrwt>
<clustering>
<clus scale="   51.335">  1  6  2 -1</clus>
<clus scale="  467.649">  4  5 -1 -1</clus>
<clus scale="  300.000">  1  4  2 -1</clus>
</clustering>
</event>
<event>
 6    1  0.1000035E-011  0.3000000E+03  0.7818608E-02  0.1093470E+00
          1   -1    0    0  502    0  0.00000000000E+00  0.00000000000E+00  0.24337771986E+03  0.24337771986E+03  0.00000000000E+00 0.  1.
         13   -1    0    0    0    0 -0.00000000000E+00 -0.00000000000E+00 -0.27500000000E+03  0.27500000000E+03  0.00000000000E+00 0.  1.
    9000005    2    1    2  501    0  0.31762993615E+01  0.34305450230E+02 -0.35427199326E+02  0.48371606666E+03  0.48118519709E+03 0.  0.
         13    1    3    3    0    0  0.13952280051E+03  0.11140824344E+03 -0.19203850291E+03  0.26221593233E+03  0.00000000000E+00 0.  1.
          1    1    3    3  501    0 -0.13634650115E+03 -0.77102793208E+02  0.15661130359E+03  0.22150013433E+03  0.00000000000E+00 0.  1.
         21    1    1    2  502  501 -0.31762993615E+01 -0.34305450230E+02  0.38049191903E+01  0.34661653208E+02  0.00000000000E+00 0. -1.
<scales pt_clust_4="550.00000" pt_clust_5="550.00000" pt_clust_6="34.45218"></scales>
<mgrwt>
<rscale>  0 0.30000000E+03</rscale>
<asrwt>  1 0.34452181E+02</asrwt>
<pdfrwt beam="1">  1        1 0.88500989E+00 0.30000000E+03</pdfrwt>
<pdfrwt beam="2">0</pdfrwt>
<totfact> 0.17015719E-04</totfact>
</mgrwt>
<clustering>
<clus scale="   34.452">  1  6  2 -1</clus>
<clus scale="  481.185">  4  5 -1 -1</clus>
<clus scale="  300.000">  1  4  2 -1</clus>
</clustering>
</event>
<event>
 6    1  0.1000035E-011  0.3000000E+03  0.7818608E-02  0.1093470E+00
          1   -1    0    0  502    0  0.00000000000E+00  0.00000000000E+00  0.22485940108E+03  0.22485940108E+03  0.00000000000E+00 0.  1.
         13   -1    0    0    0    0 -0.00000000000E+00 -0.00000000000E+00 -0.27500000000E+03  0.27500000000E+03  0.00000000000E+00 0.  1.
    9000005    2    1    2  501    0 -0.85306722927E+01 -0.32378374719E+02 -0.25300490212E+02  0.45816812478E+03  0.45624202375E+03 0.  0.
         13    1    3    3    0    0  0.21194569123E+03 -0.78146257710E+02 -0.50851976230E+02  0.23154640379E+03  0.00000000000E+00 0.  1.
          3    1    3    3  501    0 -0.22047636352E+03  0.45767882991E+02  0.25551486018E+02  0.22662172098E+03  0.00000000000E+00 0.  1.
         21    1    1    2  502  501  0.85306722927E+01  0.32378374719E+02 -0.24840108706E+02  0.41691276303E+02  0.00000000000E+00 0.  1.
<scales pt_clust_4="550.00000" pt_clust_5="550.00000" pt_clust_6="33.48332"></scales>
<mgrwt>
<rscale>  0 0.30000000E+03</rscale>
<asrwt>  1 0.33483319E+02</asrwt>
<pdfrwt beam="1">  1        1 0.81767055E+00 0.30000000E+03</pdfrwt>
<pdfrwt beam="2">0</pdfrwt>
<totfact> 0.76330815E-04</totfact>
</mgrwt>
<clustering>
<clus scale="   33.483">  1  6  2 -1</clus>
<clus scale="  456.242">  4  5 -1 -1</clus>
<clus scale="  300.000">  1  4  2 -1</clus>
</clustering>
</event>
<event>
 6    1  0.1000035E-011  0.3000000E+03  0.7818608E-02  0.1093470E+00
          1   -1    0    0  502    0  0.00000000000E+00  0.00000000000E+00  0.22892092805E+03  0.22892092805E+03  0.00000000000E+00 0.  1.
         13   -1    0    0    0    0 -0.00000000000E+00 -0.00000000000E+00 -0.27500000000E+03  0.27500000000E+03  0.00000000000E+00 0.  1.
    9000005    2    1    2  501    0  0.16249952615E+02 -0.29864964936E+02 -0.56831021189E+02  0.46826168657E+03  0.46355502915E+03 0.  0.
         13    1    3    3    0    0 -0.69948282122E+02  0.86057173733E+02 -0.22240947376E+03  0.24852479422E+03  0.00000000000E+00 0.  1.
          1    1    3    3  501    0  0.86198234736E+02 -0.11592213867E+03  0.16557845257E+03  0.21973689235E+03  0.00000000000E+00 0.  1.
         21    1    1    2  502  501 -0.16249952615E+02  0.29864964936E+02  0.10751949243E+02  0.35659241483E+02  0.00000000000E+00 0. -1.
<scales pt_clust_4="550.00000" pt_clust_5="550.00000" pt_clust_6="33.99966"></scales>
<mgrwt>
<rscale>  0 0.30000000E+03</rscale>
<asrwt>  1 0.33999663E+02</asrwt>
<pdfrwt beam="1">  1        1 0.83243974E+00 0.30000000E+03</pdfrwt>
<pdfrwt beam="2">0</pdfrwt>
<totfact> 0.56834871E-04</totfact>
</mgrwt>
<clustering>
<clus scale="   34.000">  1  6  2 -1</clus>
<clus scale="  463.555">  4  5 -1 -1</clus>
<clus scale="  300.000">  1  4  2 -1</clus>
</clustering>
</event>
<event>
 6    1  0.1000035E-011  0.3000000E+03  0.7818608E-02  0.1093470E+00
          1   -1    0    0  502    0  0.00000000000E+00  0.00000000000E+00  0.22632887005E+03  0.22632887005E+03  0.00000000000E+00 0.  1.
         13   -1    0    0    0    0 -0.00000000000E+00 -0.00000000000E+00 -0.27500000000E+03  0.27500000000E+03  0.00000000000E+00 0.  1.
    9000005    2    1    2  501    0  0.27419743249E+02  0.21741630000E+02 -0.36845282447E+02  0.46439120006E+03  0.46160271994E+03 0.  0.
         13    1    3    3    0    0  0.19080066978E+03  0.15988723258E+03 -0.22661181480E+02  0.24996470126E+03  0.00000000000E+00 0.  1.
          1    1    3    3  501    0 -0.16338092653E+03 -0.13814560258E+03 -0.14184100967E+02  0.21442649880E+03  0.00000000000E+00 0.  1.
         21    1    1    2  502  501 -0.27419743249E+02 -0.21741630000E+02 -0.11825847507E+02  0.36937669988E+02  0.00000000000E+00 0.  1.
<scales pt_clust_4="550.00000" pt_clust_5="550.00000" pt_clust_6="34.99346"></scales>
<mgrwt>
<rscale>  0 0.30000000E+03</rscale>
<asrwt>  1 0.34993457E+02</asrwt>
<pdfrwt beam="1">  1        1 0.82301407E+00 0.30000000E+03</pdfrwt>
<pdfrwt beam="2">0</pdfrwt>
<totfact> 0.68042461E-04</totfact>
</mgrwt>
<clustering>
<clus scale="   34.993">  1  6  2 -1</clus>
<clus scale="  461.603">  4  5 -1 -1</clus>
<clus scale="  300.000">  1  4  2 -1</clus>
</clustering>
</event>
<event>
 6    1  0.1000035E-011  0.3000000E+03  0.7818608E-02  0.1093470E+00
          1   -1    0    0  502    0  0.00000000000E+00  0.00000000000E+00  0.21980216709E+03  0.21980216709E+03  0.00000000000E+00 0.  1.
         13   -1    0    0    0    0 -0.00000000000E+00 -0.00000000000E+00 -0.27500000000E+03  0.27500000000E+03  0.00000000000E+00 0.  1.
    9000005    2    1    2  501    0  0.32211896739E+02  0.11662398119E+02 -0.51606218962E+02  0.46035630359E+03  0.45617004132E+03 0.  0.
         13    1    3    3    0    0  0.16256288642E+03 -0.75275390155E+02 -0.18283924223E+03  0.25597512555E+03  0.00000000000E+00 0.  1.
          3    1    3    3  501    0 -0.13035098968E+03  0.86937788274E+02  0.13123302327E+03  0.20438117804E+03  0.00000000000E+00 0.  1.
         21    1    1    2  502  501 -0.32211896739E+02 -0.11662398119E+02 -0.35916139479E+01  0.34445863499E+02  0.00000000000E+00 0.  1.
<scales pt_clust_4="550.00000" pt_clust_5="550.00000" pt_clust_6="34.25811"></scales>
<mgrwt>
<rscale>  0 0.30000000E+03</rscale>
<asrwt>  1 0.34258106E+02</asrwt>
<pdfrwt beam="1">  1        1 0.79928061E+00 0.30000000E+03</pdfrwt>
<pdfrwt beam="2">0</pdfrwt>
<totfact> 0.10537463E-03</totfact>
</mgrwt>
<clustering>
<clus scale="   34.258">  1  6  2 -1</clus>
<clus scale="  456.170">  4  5 -1 -1</clus>
<clus scale="  300.000">  1  4  2 -1</clus>
</clustering>
</event>
<event>
 6    1  0.1000035E-011  0.3000000E+03  0.7818608E-02  0.1093470E+00
          1   -1    0    0  502    0  0.00000000000E+00  0.00000000000E+00  0.21917793859E+03  0.21917793859E+03  0.00000000000E+00 0.  1.
         13   -1    0    0    0    0 -0.00000000000E+00 -0.00000000000E+00 -0.27500000000E+03  0.27500000000E+03  0.00000000000E+00 0.  1.
    9000005    2    1    2  501    0 -0.22972269830E+02  0.20188581926E+02 -0.66304922369E+02  0.46184847223E+03  0.45603987166E+03 0.  0.
         13    1    3    3    0    0  0.19658747556E+03  0.92412766062E+02 -0.76996970399E+02  0.23046754289E+03  0.00000000000E+00 0.  1.
          1    1    3    3  501    0 -0.21955974539E+03 -0.72224184136E+02  0.10692048031E+02  0.23138092933E+03  0.00000000000E+00 0.  1.
         21    1    1    2  502  501  0.22972269830E+02 -0.20188581926E+02  0.10482860955E+02  0.32329466360E+02  0.00000000000E+00 0.  1.
<scales pt_clust_4="550.00000" pt_clust_5="550.00000" pt_clust_6="30.58274"></scales>
<mgrwt>
<rscale>  0 0.30000000E+03</rscale>
<asrwt>  1 0.30582741E+02</asrwt>
<pdfrwt beam="1">  1        1 0.79701069E+00 0.30000000E+03</pdfrwt>
<pdfrwt beam="2">0</pdfrwt>
<totfact> 0.11183723E-03</totfact>
</mgrwt>
<clustering>
<clus scale="   30.583">  1  6  2 -1</clus>
<clus scale="  456.040">  4  5 -1 -1</clus>
<clus scale="  300.000">  1  4  2 -1</clus>
</clustering>
</event>
<event>
 6    1  0.1000035E-011  0.3000000E+03  0.7818608E-02  0.1093470E+00
          1   -1    0    0  502    0  0.00000000000E+00  0.00000000000E+00  0.22167448735E+03  0.22167448735E+03  0.00000000000E+00 0.  1.
         13   -1    0    0    0    0 -0.00000000000E+00 -0.00000000000E+00 -0.27500000000E+03  0.27500000000E+03  0.00000000000E+00 0.  1.
    9000005    2    1    2  501    0  0.26495750921E+02  0.17112060428E+02 -0.63364951496E+02  0.46357406800E+03  0.45813857294E+03 0.  0.
         13    1    3    3    0    0  0.17971862467E+03 -0.65031925622E+02  0.10794565339E+03  0.21949988494E+03  0.00000000000E+00 0.  1.
          1    1    3    3  501    0 -0.15322287375E+03  0.82143986050E+02 -0.17131060489E+03  0.24407418305E+03  0.00000000000E+00 0.  1.
         21    1    1    2  502  501 -0.26495750921E+02 -0.17112060428E+02  0.10039438844E+02  0.33100419352E+02  0.00000000000E+00 0.  1.
<scales pt_clust_4="550.00000" pt_clust_5="550.00000" pt_clust_6="31.54120"></scales>
<mgrwt>
<rscale>  0 0.30000000E+03</rscale>
<asrwt>  1 0.31541202E+02</asrwt>
<pdfrwt beam="1">  1        1 0.80608904E+00 0.30000000E+03</pdfrwt>
<pdfrwt beam="2">0</pdfrwt>
<totfact> 0.95346370E-04</totfact>
</mgrwt>
<clustering>
<clus scale="   31.541">  1  6  2 -1</clus>
<clus scale="  458.139">  4  5 -1 -1</clus>
<clus scale="  300.000">  1  4  2 -1</clus>
</clustering>
</event>
<event>
 6    1  0.1000035E-011  0.3000000E+03  0.7818608E-02  0.1093470E+00
          1   -1    0    0  502    0  0.00000000000E+00  0.00000000000E+00  0.25949347938E+03  0.25949347938E+03  0.00000000000E+00 0.  1.
         13   -1    0    0    0    0 -0.00000000000E+00 -0.00000000000E+00 -0.27500000000E+03  0.27500000000E+03  0.00000000000E+00 0.  1.
    9000005    2    1    2  501    0 -0.60520225411E+02  0.19429164917E+02 -0.30063695705E+02  0.46928533970E+03  0.46398783834E+03 0.  0.
         13    1    3    3    0    0  0.87277976173E+01 -0.13174490652E+03  0.16606470670E+03  0.21215650274E+03  0.00000000000E+00 0.  1.
          1    1    3    3  501    0 -0.69248023028E+02  0.15117407143E+03 -0.19612840241E+03  0.25712883696E+03  0.00000000000E+00 0.  1.
         21    1    1    2  502  501  0.60520225411E+02 -0.19429164917E+02  0.14557175082E+02  0.65208139672E+02  0.00000000000E+00 0. -1.
<scales pt_clust_4="550.00000" pt_clust_5="550.00000" pt_clust_6="63.56249"></scales>
<mgrwt>
<rscale>  0 0.30000000E+03</rscale>
<asrwt>  1 0.63562490E+02</asrwt>
<pdfrwt beam="1">  1        1 0.94361265E+00 0.30000000E+03</pdfrwt>
<pdfrwt beam="2">0</pdfrwt>
<totfact> 0.14862153E-05</totfact>
</mgrwt>
<clustering>
<clus scale="   63.562">  1  6  2 -1</clus>
<clus scale="  463.988">  4  5 -1 -1</clus>
<clus scale="  300.000">  1  4  2 -1</clus>
</clustering>
</event>
<event>
 6    1  0.1000035E-011  0.3000000E+03  0.7818608E-02  0.1093470E+00
          1   -1    0    0  502    0  0.00000000000E+00  0.00000000000E+00  0.24017055495E+03  0.24017055495E+03  0.00000000000E+00 0.  1.
         13   -1    0    0    0    0 -0.00000000000E+00 -0.00000000000E+00 -0.27500000000E+03  0.27500000000E+03  0.00000000000E+00 0.  1.
    9000005    2    1    2  501    0  0.33578010082E+02  0.10066741912E+02 -0.50624496061E+02  0.47672181387E+03  0.47272827943E+03 0.  0.
         13    1    3    3    0    0  0.51298622796E+02  0.99909350590E+02  0.18919222696E+03  0.22001619436E+03  0.00000000000E+00 0.  1.
          3    1    3    3  501    0 -0.17720612714E+02 -0.89842608678E+02 -0.23981672302E+03  0.25670561952E+03  0.00000000000E+00 0.  1.
         21    1    1    2  502  501 -0.33578010082E+02 -0.10066741912E+02  0.15795051009E+02  0.38448741074E+02  0.00000000000E+00 0. -1.
<scales pt_clust_4="550.00000" pt_clust_5="550.00000" pt_clust_6="35.05456"></scales>
<mgrwt>
<rscale>  0 0.30000000E+03</rscale>
<asrwt>  1 0.35054558E+02</asrwt>
<pdfrwt beam="1">  1        1 0.87334747E+00 0.30000000E+03</pdfrwt>
<pdfrwt beam="2">0</pdfrwt>
<totfact> 0.23397426E-04</totfact>
</mgrwt>
<clustering>
<clus scale="   35.055">  1  6  2 -1</clus>
<clus scale="  472.728">  4  5 -1 -1</clus>
<clus scale="  300.000">  1  4  2 -1</clus>
</clustering>
</event>
<event>
 6    1  0.1000035E-011  0.3000000E+03  0.7818608E-02  0.1093470E+00
          1   -1    0    0  502    0  0.00000000000E+00  0.00000000000E+00  0.23426025396E+03  0.23426025396E+03  0.00000000000E+00 0.  1.
         13   -1    0    0    0    0 -0.00000000000E+00 -0.00000000000E+00 -0.27500000000E+03  0.27500000000E+03  0.00000000000E+00 0.  1.
    9000005    2    1    2  501    0  0.37072169832E+02 -0.45605440375E+01 -0.41390386561E+02  0.47190295653E+03  0.46859800677E+03 0.  0.
         13    1    3    3    0    0  0.19518616789E+03  0.14585575929E+03  0.21992130995E+02  0.24465321678E+03  0.00000000000E+00 0.  1.
          3    1    3    3  501    0 -0.15811399805E+03 -0.15041630333E+03 -0.63382517556E+02  0.22724973976E+03  0.00000000000E+00 0.  1.
         21    1    1    2  502  501 -0.37072169832E+02  0.45605440375E+01  0.65064052182E+00  0.37357297427E+02  0.00000000000E+00 0.  1.
<scales pt_clust_4="550.00000" pt_clust_5="550.00000" pt_clust_6="37.35163"></scales>
<mgrwt>
<rscale>  0 0.30000000E+03</rscale>
<asrwt>  1 0.37351631E+02</asrwt>
<pdfrwt beam="1">  1        1 0.85185547E+00 0.30000000E+03</pdfrwt>
<pdfrwt beam="2">0</pdfrwt>
<totfact> 0.38614196E-04</totfact>
</mgrwt>
<clustering>
<clus scale="   37.352">  1  6  2 -1</clus>
<clus scale="  468.598">  4  5 -1 -1</clus>
<clus scale="  300.000">  1  4  2 -1</clus>
</clustering>
</event>
<event>
 6    1  0.1000035E-011  0.3000000E+03  0.7818608E-02  0.1093470E+00
          1   -1    0    0  502    0  0.00000000000E+00  0.00000000000E+00  0.23166824469E+03  0.23166824469E+03  0.00000000000E+00 0.  1.
         13   -1    0    0    0    0 -0.00000000000E+00 -0.00000000000E+00 -0.27500000000E+03  0.27500000000E+03  0.00000000000E+00 0.  1.
    9000005    2    1    2  501    0 -0.33595325738E+02  0.86685596042E+01 -0.50190506625E+02  0.47130113700E+03  0.46733487452E+03 0.  0.
         13    1    3    3    0    0 -0.54193662002E+02  0.48979279036E+02  0.20214438180E+03  0.21493783722E+03  0.00000000000E+00 0.  1.
          1    1    3    3  501    0  0.20598336264E+02 -0.40310719432E+02 -0.25233488842E+03  0.25636329978E+03  0.00000000000E+00 0.  1.
         21    1    1    2  502  501  0.33595325738E+02 -0.86685596042E+01  0.68587513163E+01  0.35367107694E+02  0.00000000000E+00 0. -1.
<scales pt_clust_4="550.00000" pt_clust_5="550.00000" pt_clust_6="34.69567"></scales>
<mgrwt>
<rscale>  0 0.30000000E+03</rscale>
<asrwt>  1 0.34695675E+02</asrwt>
<pdfrwt beam="1">  1        1 0.84242998E+00 0.30000000E+03</pdfrwt>
<pdfrwt beam="2">0</pdfrwt>
<totfact> 0.47602230E-04</totfact>
</mgrwt>
<clustering>
<clus scale="   34.696">  1  6  2 -1</clus>
<clus scale="  467.335">  4  5 -1 -1</clus>
<clus scale="  300.000">  1  4  2 -1</clus>
</clustering>
</event>
<event>
 6    1  0.1000035E-011  0.3000000E+03  0.7818608E-02  0.1093470E+00
          1   -1    0    0  502    0  0.00000000000E+00  0.00000000000E+00  0.27057860048E+03  0.27057860048E+03  0.00000000000E+00 0.  1.
         13   -1    0    0    0    0 -0.00000000000E+00 -0.00000000000E+00 -0.27500000000E+03  0.27500000000E+03  0.00000000000E+00 0.  1.
    9000005    2    1    2  501    0 -0.25760728633E+02  0.17867177097E+02 -0.44952849365E+02  0.49433750775E+03  0.49129009938E+03 0.  0.
         13    1    3    3    0    0  0.17067828030E+03  0.36394027956E+01 -0.18571111166E+03  0.25225569887E+03  0.00000000000E+00 0.  1.
          1    1    3    3  501    0 -0.19643900893E+03  0.14227774301E+02  0.14075826229E+03  0.24208180889E+03  0.00000000000E+00 0.  1.
         21    1    1    2  502  501  0.25760728633E+02 -0.17867177097E+02  0.40531449840E+02  0.51241092721E+02  0.00000000000E+00 0. -1.
<scales pt_clust_4="550.00000" pt_clust_5="550.00000" pt_clust_6="31.35046"></scales>
<mgrwt>
<rscale>  0 0.30000000E+03</rscale>
<asrwt>  1 0.31350457E+02</asrwt>
<pdfrwt beam="1">  1        1 0.98392218E+00 0.30000000E+03</pdfrwt>
<pdfrwt beam="2">0</pdfrwt>
<totfact> 0.18893756E-06</totfact>
</mgrwt>
<clustering>
<clus scale="   31.350">  1  6  2 -1</clus>
<clus scale="  491.290">  4  5 -1 -1</clus>
<clus scale="  300.000">  1  4  2 -1</clus>
</clustering>
</event>
<event>
 6    1  0.1000035E-011  0.3000000E+03  0.7818608E-02  0.1093470E+00
          1   -1    0    0  502    0  0.00000000000E+00  0.00000000000E+00  0.24300165652E+03  0.24300165652E+03  0.00000000000E+00 0.  1.
         13   -1    0    0    0    0 -0.00000000000E+00 -0.00000000000E+00 -0.27500000000E+03  0.27500000000E+03  0.00000000000E+00 0.  1.
    9000005    2    1    2  501    0 -0.14479267502E+01  0.51611799564E+02 -0.34986486973E+02  0.46628315550E+03  0.46209312102E+03 0.  0.
         13    1    3    3    0    0  0.82528644600E+02  0.32025883506E+02  0.19852012885E+03  0.21736346509E+03  0.00000000000E+00 0.  1.
          1    1    3    3  501    0 -0.83976571350E+02  0.19585916059E+02 -0.23350661583E+03  0.24891969042E+03  0.00000000000E+00 0.  1.
         21    1    1    2  502  501  0.14479267502E+01 -0.51611799564E+02  0.29881434954E+01  0.51718501019E+02  0.00000000000E+00 0. -1.
<scales pt_clust_4="550.00000" pt_clust_5="550.00000" pt_clust_6="51.63211"></scales>
<mgrwt>
<rscale>  0 0.30000000E+03</rscale>
<asrwt>  1 0.51632106E+02</asrwt>
<pdfrwt beam="1">  1        1 0.88364239E+00 0.30000000E+03</pdfrwt>
<pdfrwt beam="2">0</pdfrwt>
<totfact> 0.16506878E-04</totfact>
</mgrwt>
<clustering>
<clus scale="   51.632">  1  6  2 -1</clus>
<clus scale="  462.093">  4  5 -1 -1</clus>
<clus scale="  300.000">  1  4  2 -1</clus>
</clustering>
</event>
<event>
 6    1  0.1000035E-011  0.3000000E+03  0.7818608E-02  0.1093470E+00
          1   -1    0    0  502    0  0.00000000000E+00  0.00000000000E+00  0.22947650749E+03  0.22947650749E+03  0.00000000000E+00 0.  1.
         13   -1    0    0    0    0 -0.00000000000E+00 -0.00000000000E+00 -0.27500000000E+03  0.27500000000E+03  0.00000000000E+00 0.  1.
    9000005    2    1    2  501    0 -0.28650697799E+02 -0.24085490692E+02 -0.46094562461E+02  0.46704257279E+03  0.46325272019E+03 0.  0.
         13    1    3    3    0    0 -0.11524183381E+03  0.14251018845E+03  0.11775672362E+03  0.21784508264E+03  0.00000000000E+00 0.  1.
          3    1    3    3  501    0  0.86591136011E+02 -0.16659567915E+03 -0.16385128608E+03  0.24919749015E+03  0.00000000000E+00 0.  1.
         21    1    1    2  502  501  0.28650697799E+02  0.24085490692E+02  0.57106995212E+00  0.37433934700E+02  0.00000000000E+00 0.  1.
<scales pt_clust_4="550.00000" pt_clust_5="550.00000" pt_clust_6="37.42958"></scales>
<mgrwt>
<rscale>  0 0.30000000E+03</rscale>
<asrwt>  1 0.37429578E+02</asrwt>
<pdfrwt beam="1">  1        1 0.83446003E+00 0.30000000E+03</pdfrwt>
<pdfrwt beam="2">0</pdfrwt>
<totfact> 0.53916747E-04</totfact>
</mgrwt>
<clustering>
<clus scale="   37.430">  1  6  2 -1</clus>
<clus scale="  463.253">  4  5 -1 -1</clus>
<clus scale="  300.000">  1  4  2 -1</clus>
</clustering>
</event>
<event>
 6    1  0.1000035E-011  0.3000000E+03  0.7818608E-02  0.1093470E+00
          1   -1    0    0  502    0  0.00000000000E+00  0.00000000000E+00  0.24093693883E+03  0.24093693883E+03  0.00000000000E+00 0.  1.
         13   -1    0    0    0    0 -0.00000000000E+00 -0.00000000000E+00 -0.27500000000E+03  0.27500000000E+03  0.00000000000E+00 0.  1.
    9000005    2    1    2  501    0  0.33176038036E+02 -0.30402555725E+01 -0.56867215570E+02  0.47556464497E+03  0.47097553937E+03 0.  0.
         13    1    3    3    0    0  0.10757044245E+03 -0.17759848858E+03  0.98976595571E+02  0.23001954201E+03  0.00000000000E+00 0.  1.
          3    1    3    3  501    0 -0.74394404417E+02  0.17455823300E+03 -0.15584381114E+03  0.24554510296E+03  0.00000000000E+00 0.  1.
         21    1    1    2  502  501 -0.33176038036E+02  0.30402555725E+01  0.22804154401E+02  0.40372293862E+02  0.00000000000E+00 0.  1.
<scales pt_clust_4="550.00000" pt_clust_5="550.00000" pt_clust_6="33.31505"></scales>
<mgrwt>
<rscale>  0 0.30000000E+03</rscale>
<asrwt>  1 0.33315051E+02</asrwt>
<pdfrwt beam="1">  1        1 0.87613432E+00 0.30000000E+03</pdfrwt>
<pdfrwt beam="2">0</pdfrwt>
<totfact> 0.22076093E-04</totfact>
</mgrwt>
<clustering>
<clus scale="   33.315">  1  6  2 -1</clus>
<clus scale="  470.976">  4  5 -1 -1</clus>
<clus scale="  300.000">  1  4  2 -1</clus>
</clustering>
</event>
<event>
 6    1  0.1000035E-011  0.3000000E+03  0.7818608E-02  0.1093470E+00
          1   -1    0    0  502    0  0.00000000000E+00  0.00000000000E+00  0.23050432457E+03  0.23050432457E+03  0.00000000000E+00 0.  1.
         13   -1    0    0    0    0 -0.00000000000E+00 -0.00000000000E+00 -0.27500000000E+03  0.27500000000E+03  0.00000000000E+00 0.  1.
    9000005    2    1    2  501    0  0.40199097177E+02 -0.74390548579E+01 -0.57514978459E+02  0.46259967211E+03  0.45718615130E+03 0.  0.
         13    1    3    3    0    0  0.24911831886E+03 -0.13827668256E+02 -0.20630092879E+02  0.25035323432E+03  0.00000000000E+00 0.  1.
          3    1    3    3  501    0 -0.20891922169E+03  0.63886133982E+01 -0.36884885580E+02  0.21224643779E+03  0.00000000000E+00 0.  1.
         21    1    1    2  502  501 -0.40199097177E+02  0.74390548579E+01  0.13019303030E+02  0.42904652457E+02  0.00000000000E+00 0. -1.
<scales pt_clust_4="550.00000" pt_clust_5="550.00000" pt_clust_6="40.88162"></scales>
<mgrwt>
<rscale>  0 0.30000000E+03</rscale>
<asrwt>  1 0.40881621E+02</asrwt>
<pdfrwt beam="1">  1        1 0.83819754E+00 0.30000000E+03</pdfrwt>
<pdfrwt beam="2">0</pdfrwt>
<totfact> 0.49827697E-04</totfact>
</mgrwt>
<clustering>
<clus scale="   40.882">  1  6  2 -1</clus>
<clus scale="  457.186">  4  5 -1 -1</clus>
<clus scale="  300.000">  1  4  2 -1</clus>
</clustering>
</event>
<event>
 6    1  0.1000035E-011  0.3000000E+03  0.7818608E-02  0.1093470E+00
          1   -1    0    0  502    0  0.00000000000E+00  0.00000000000E+00  0.23626475075E+03  0.23626475075E+03  0.00000000000E+00 0.  1.
         13   -1    0    0    0    0 -0.00000000000E+00 -0.00000000000E+00 -0.27500000000E+03  0.27500000000E+03  0.00000000000E+00 0.  1.
    9000005    2    1    2  501    0  0.69851016084E+00 -0.31466150175E+02 -0.31792506188E+02  0.47903420306E+03  0.47694066479E+03 0.  0.
         13    1    3    3    0    0 -0.19191360206E+03  0.91216436674E+02 -0.10790892771E+03  0.23831828644E+03  0.00000000000E+00 0.  1.
          1    1    3    3  501    0  0.19261211222E+03 -0.12268258685E+03  0.76116421522E+02  0.24071591662E+03  0.00000000000E+00 0.  1.
         21    1    1    2  502  501 -0.69851016084E+00  0.31466150175E+02 -0.69427430582E+01  0.32230547691E+02  0.00000000000E+00 0. -1.
<scales pt_clust_4="550.00000" pt_clust_5="550.00000" pt_clust_6="31.47392"></scales>
<mgrwt>
<rscale>  0 0.30000000E+03</rscale>
<asrwt>  1 0.31473918E+02</asrwt>
<pdfrwt beam="1">  1        1 0.85914455E+00 0.30000000E+03</pdfrwt>
<pdfrwt beam="2">0</pdfrwt>
<totfact> 0.33699680E-04</totfact>
</mgrwt>
<clustering>
<clus scale="   31.474">  1  6  2 -1</clus>
<clus scale="  476.941">  4  5 -1 -1</clus>
<clus scale="  300.000">  1  4  2 -1</clus>
</clustering>
</event>
<event>
 6    1  0.1000035E-011  0.3000000E+03  0.7818608E-02  0.1093470E+00
          1   -1    0    0  502    0  0.00000000000E+00  0.00000000000E+00  0.24033467318E+03  0.24033467318E+03  0.00000000000E+00 0.  1.
         13   -1    0    0    0    0 -0.00000000000E+00 -0.00000000000E+00 -0.27500000000E+03  0.27500000000E+03  0.00000000000E+00 0.  1.
    9000005    2    1    2  501    0 -0.19241975893E+02  0.23311751760E+02 -0.20378057634E+02  0.48190089585E+03  0.48052004826E+03 0.  0.
         13    1    3    3    0    0  0.43192873211E+02  0.23473197741E+03  0.61952117745E+02  0.24658221836E+03  0.00000000000E+00 0.  1.
          1    1    3    3  501    0 -0.62434849103E+02 -0.21142022565E+03 -0.82330175379E+02  0.23531867749E+03  0.00000000000E+00 0.  1.
         21    1    1    2  502  501  0.19241975893E+02 -0.23311751760E+02 -0.14287269181E+02  0.33433777337E+02  0.00000000000E+00 0. -1.
<scales pt_clust_4="550.00000" pt_clust_5="550.00000" pt_clust_6="30.22734"></scales>
<mgrwt>
<rscale>  0 0.30000000E+03</rscale>
<asrwt>  1 0.30227344E+02</asrwt>
<pdfrwt beam="1">  1        1 0.87394427E+00 0.30000000E+03</pdfrwt>
<pdfrwt beam="2">0</pdfrwt>
<totfact> 0.23723842E-04</totfact>
</mgrwt>
<clustering>
<clus scale="   30.227">  1  6  2 -1</clus>
<clus scale="  480.520">  4  5 -1 -1</clus>
<clus scale="  300.000">  1  4  2 -1</clus>
</clustering>
</event>
<event>
 6    1  0.1000035E-011  0.3000000E+03  0.7818608E-02  0.1093470E+00
          1   -1    0    0  502    0  0.00000000000E+00  0.00000000000E+00  0.22904074931E+03  0.22904074931E+03  0.00000000000E+00 0.  1.
         13   -1    0    0    0    0 -0.00000000000E+00 -0.00000000000E+00 -0.27500000000E+03  0.27500000000E+03  0.00000000000E+00 0.  1.
    9000005    2    1    2  501    0 -0.37067915644E+02 -0.13846300878E+02 -0.30400100460E+02  0.46152207606E+03  0.45881664112E+03 0.  0.
         13    1    3    3    0    0  0.15577001906E+03 -0.20284698786E+02  0.13520032983E+03  0.20725563208E+03  0.00000000000E+00 0.  1.
          1    1    3    3  501    0 -0.19283793470E+03  0.64383979076E+01 -0.16560043029E+03  0.25426644399E+03  0.00000000000E+00 0.  1.
         21    1    1    2  502  501  0.37067915644E+02  0.13846300878E+02 -0.15559150235E+02  0.42518673242E+02  0.00000000000E+00 0.  1.
<scales pt_clust_4="550.00000" pt_clust_5="550.00000" pt_clust_6="39.56958"></scales>
<mgrwt>
<rscale>  0 0.30000000E+03</rscale>
<asrwt>  1 0.39569584E+02</asrwt>
<pdfrwt beam="1">  1        1 0.83287545E+00 0.30000000E+03</pdfrwt>
<pdfrwt beam="2">0</pdfrwt>
<totfact> 0.54838209E-04</totfact>
</mgrwt>
<clustering>
<clus scale="   39.570">  1  6  2 -1</clus>
<clus scale="  458.817">  4  5 -1 -1</clus>
<clus scale="  300.000">  1  4  2 -1</clus>
</clustering>
</event>
<event>
 6    1  0.1000035E-011  0.3000000E+03  0.7818608E-02  0.1093470E+00
          1   -1    0    0  502    0  0.00000000000E+00  0.00000000000E+00  0.23309402718E+03  0.23309402718E+03  0.00000000000E+00 0.  1.
         13   -1    0    0    0    0 -0.00000000000E+00 -0.00000000000E+00 -0.27500000000E+03  0.27500000000E+03  0.00000000000E+00 0.  1.
    9000005    2    1    2  501    0 -0.11412469717E+02 -0.29615641098E+02 -0.54524094253E+02  0.47393926688E+03  0.46972142933E+03 0.  0.
         13    1    3    3    0    0 -0.72404125615E+02 -0.54255406790E+02  0.19549224906E+03  0.21541408036E+03  0.00000000000E+00 0.  1.
          3    1    3    3  501    0  0.60991655898E+02  0.24639765692E+02 -0.25001634332E+03  0.25852518653E+03  0.00000000000E+00 0.  1.
         21    1    1    2  502  501  0.11412469717E+02  0.29615641098E+02  0.12618121438E+02  0.34154760302E+02  0.00000000000E+00 0.  1.
<scales pt_clust_4="550.00000" pt_clust_5="550.00000" pt_clust_6="31.73847"></scales>
<mgrwt>
<rscale>  0 0.30000000E+03</rscale>
<asrwt>  1 0.31738473E+02</asrwt>
<pdfrwt beam="1">  1        1 0.84761464E+00 0.30000000E+03</pdfrwt>
<pdfrwt beam="2">0</pdfrwt>
<totfact> 0.43616870E-04</totfact>
</mgrwt>
<clustering>
<clus scale="   31.738">  1  6  2 -1</clus>
<clus scale="  469.721">  4  5 -1 -1</clus>
<clus scale="  300.000">  1  4  2 -1</clus>
</clustering>
</event>
<event>
 6    1  0.1000035E-011  0.3000000E+03  0.7818608E-02  0.1093470E+00
          1   -1    0    0  502    0  0.00000000000E+00  0.00000000000E+00  0.23323692380E+03  0.23323692380E+03  0.00000000000E+00 0.  1.
         13   -1    0    0    0    0 -0.00000000000E+00 -0.00000000000E+00 -0.27500000000E+03  0.27500000000E+03  0.00000000000E+00 0.  1.
    9000005    2    1    2  501    0 -0.30066495634E+02  0.21760487369E+02 -0.36396156634E+02  0.47073603319E+03  0.46785705056E+03 0.  0.
         13    1    3    3    0    0 -0.36792930464E+02 -0.16255833582E+03 -0.17375284219E+03  0.24076748627E+03  0.00000000000E+00 0.  1.
          1    1    3    3  501    0  0.67264348292E+01  0.18431882319E+03  0.13735668555E+03  0.22996854692E+03  0.00000000000E+00 0.  1.
         21    1    1    2  502  501  0.30066495634E+02 -0.21760487369E+02 -0.53669195698E+01  0.37500890602E+02  0.00000000000E+00 0. -1.
<scales pt_clust_4="550.00000" pt_clust_5="550.00000" pt_clust_6="37.11488"></scales>
<mgrwt>
<rscale>  0 0.30000000E+03</rscale>
<asrwt>  1 0.37114880E+02</asrwt>
<pdfrwt beam="1">  1        1 0.84813427E+00 0.30000000E+03</pdfrwt>
<pdfrwt beam="2">0</pdfrwt>
<totfact> 0.41893752E-04</totfact>
</mgrwt>
<clustering>
<clus scale="   37.115">  1  6  2 -1</clus>
<clus scale="  467.857">  4  5 -1 -1</clus>
<clus scale="  300.000">  1  4  2 -1</clus>
</clustering>
</event>
<event>
 6    1  0.1000035E-011  0.3000000E+03  0.7818608E-02  0.1093470E+00
          1   -1    0    0  502    0  0.00000000000E+00  0.00000000000E+00  0.23436452653E+03  0.23436452653E+03  0.00000000000E+00 0.  1.
         13   -1    0    0    0    0 -0.00000000000E+00 -0.00000000000E+00 -0.27500000000E+03  0.27500000000E+03  0.00000000000E+00 0.  1.
    9000005    2    1    2  501    0  0.12070396602E+02  0.28225217980E+02 -0.58949013164E+02  0.47361899338E+03  0.46893241233E+03 0.  0.
         13    1    3    3    0    0  0.11042338608E+03 -0.18047341455E+03  0.51617365151E+02  0.21778046271E+03  0.00000000000E+00 0.  1.
          3    1    3    3  501    0 -0.98352989478E+02  0.20869863253E+03 -0.11056637831E+03  0.25583853067E+03  0.00000000000E+00 0.  1.
         21    1    1    2  502  501 -0.12070396602E+02 -0.28225217980E+02  0.18313539696E+02  0.35745533152E+02  0.00000000000E+00 0. -1.
<scales pt_clust_4="550.00000" pt_clust_5="550.00000" pt_clust_6="30.69784"></scales>
<mgrwt>
<rscale>  0 0.30000000E+03</rscale>
<asrwt>  1 0.30697840E+02</asrwt>
<pdfrwt beam="1">  1        1 0.85223464E+00 0.30000000E+03</pdfrwt>
<pdfrwt beam="2">0</pdfrwt>
<totfact> 0.39733094E-04</totfact>
</mgrwt>
<clustering>
<clus scale="   30.698">  1  6  2 -1</clus>
<clus scale="  468.932">  4  5 -1 -1</clus>
<clus scale="  300.000">  1  4  2 -1</clus>
</clustering>
</event>
<event>
 6    1  0.1000035E-011  0.3000000E+03  0.7818608E-02  0.1093470E+00
          1   -1    0    0  502    0  0.00000000000E+00  0.00000000000E+00  0.22045957826E+03  0.22045957826E+03  0.00000000000E+00 0.  1.
         13   -1    0    0    0    0 -0.00000000000E+00 -0.00000000000E+00 -0.27500000000E+03  0.27500000000E+03  0.00000000000E+00 0.  1.
    9000005    2    1    2  501    0  0.29881589150E+02 -0.55473202954E+01 -0.56496552846E+02  0.46500455270E+03  0.46055802177E+03 0.  0.
         13    1    3    3    0    0 -0.20557592590E+03 -0.65666353136E+02 -0.51842518225E+02  0.22194859301E+03  0.00000000000E+00 0.  1.
          1    1    3    3  501    0  0.23545751505E+03  0.60119032841E+02 -0.46540346204E+01  0.24305595969E+03  0.00000000000E+00 0.  1.
         21    1    1    2  502  501 -0.29881589150E+02  0.55473202954E+01  0.19561311038E+01  0.30455025554E+02  0.00000000000E+00 0.  1.
<scales pt_clust_4="550.00000" pt_clust_5="550.00000" pt_clust_6="30.39214"></scales>
<mgrwt>
<rscale>  0 0.30000000E+03</rscale>
<asrwt>  1 0.30392139E+02</asrwt>
<pdfrwt beam="1">  1        1 0.80167119E+00 0.30000000E+03</pdfrwt>
<pdfrwt beam="2">0</pdfrwt>
<totfact> 0.10358582E-03</totfact>
</mgrwt>
<clustering>
<clus scale="   30.392">  1  6  2 -1</clus>
<clus scale="  460.558">  4  5 -1 -1</clus>
<clus scale="  300.000">  1  4  2 -1</clus>
</clustering>
</event>
<event>
 6    1  0.1000035E-011  0.3000000E+03  0.7818608E-02  0.1093470E+00
          1   -1    0    0  502    0  0.00000000000E+00  0.00000000000E+00  0.24272029499E+03  0.24272029499E+03  0.00000000000E+00 0.  1.
         13   -1    0    0    0    0 -0.00000000000E+00 -0.00000000000E+00 -0.27500000000E+03  0.27500000000E+03  0.00000000000E+00 0.  1.
    9000005    2    1    2  501    0  0.23357917071E+02  0.28177367272E+02 -0.51678774237E+02  0.47629711062E+03  0.47206851787E+03 0.  0.
         13    1    3    3    0    0 -0.53794475777E+02 -0.30171618414E+02  0.19860970359E+03  0.20796631107E+03  0.00000000000E+00 0.  1.
          1    1    3    3  501    0  0.77152392848E+02  0.58348985687E+02 -0.25028847783E+03  0.26833079955E+03  0.00000000000E+00 0.  1.
         21    1    1    2  502  501 -0.23357917071E+02 -0.28177367272E+02  0.19399069230E+02  0.41423184369E+02  0.00000000000E+00 0.  1.
<scales pt_clust_4="550.00000" pt_clust_5="550.00000" pt_clust_6="36.59995"></scales>
<mgrwt>
<rscale>  0 0.30000000E+03</rscale>
<asrwt>  1 0.36599950E+02</asrwt>
<pdfrwt beam="1">  1        1 0.88261925E+00 0.30000000E+03</pdfrwt>
<pdfrwt beam="2">0</pdfrwt>
<totfact> 0.18120944E-04</totfact>
</mgrwt>
<clustering>
<clus scale="   36.600">  1  6  2 -1</clus>
<clus scale="  472.069">  4  5 -1 -1</clus>
<clus scale="  300.000">  1  4  2 -1</clus>
</clustering>
</event>
<event>
 6    1  0.1000035E-011  0.3000000E+03  0.7818608E-02  0.1093470E+00
          1   -1    0    0  502    0  0.00000000000E+00  0.00000000000E+00  0.24260032302E+03  0.24260032302E+03  0.00000000000E+00 0.  1.
         13   -1    0    0    0    0 -0.00000000000E+00 -0.00000000000E+00 -0.27500000000E+03  0.27500000000E+03  0.00000000000E+00 0.  1.
    9000005    2    1    2  501    0  0.34617670877E+02  0.12625054747E+02 -0.48803265791E+02  0.47726605880E+03  0.47333218461E+03 0.  0.
         13    1    3    3    0    0  0.41939429243E+02 -0.18042999999E+03 -0.16815390532E+03  0.25017920876E+03  0.00000000000E+00 0.  1.
          1    1    3    3  501    0 -0.73217583655E+01  0.19305505473E+03  0.11935063953E+03  0.22708685004E+03  0.00000000000E+00 0.  1.
         21    1    1    2  502  501 -0.34617670877E+02 -0.12625054747E+02  0.16403588809E+02  0.40334264219E+02  0.00000000000E+00 0. -1.
<scales pt_clust_4="550.00000" pt_clust_5="550.00000" pt_clust_6="36.84800"></scales>
<mgrwt>
<rscale>  0 0.30000000E+03</rscale>
<asrwt>  1 0.36848001E+02</asrwt>
<pdfrwt beam="1">  1        1 0.88218299E+00 0.30000000E+03</pdfrwt>
<pdfrwt beam="2">0</pdfrwt>
<totfact> 0.18338806E-04</totfact>
</mgrwt>
<clustering>
<clus scale="   36.848">  1  6  2 -1</clus>
<clus scale="  473.332">  4  5 -1 -1</clus>
<clus scale="  300.000">  1  4  2 -1</clus>
</clustering>
</event>
<event>
 6    1  0.1000035E-011  0.3000000E+03  0.7818608E-02  0.1093470E+00
          1   -1    0    0  502    0  0.00000000000E+00  0.00000000000E+00  0.23889098884E+03  0.23889098884E+03  0.00000000000E+00 0.  1.
         13   -1    0    0    0    0 -0.00000000000E+00 -0.00000000000E+00 -0.27500000000E+03  0.27500000000E+03  0.00000000000E+00 0.  1.
    9000005    2    1    2  501    0 -0.13090667182E+02  0.30515535900E+02 -0.37049517155E+02  0.48067280029E+03  0.47809111132E+03 0.  0.
         13    1    3    3    0    0  0.80497590016E+00 -0.79557319508E+02  0.20201536119E+03  0.21711798919E+03  0.00000000000E+00 0.  1.
          3    1    3    3  501    0 -0.13895643082E+02  0.11007285541E+03 -0.23906487835E+03  0.26355481110E+03  0.00000000000E+00 0.  1.
         21    1    1    2  502  501  0.13090667182E+02 -0.30515535900E+02  0.94050599245E+00  0.33218188543E+02  0.00000000000E+00 0.  1.
<scales pt_clust_4="550.00000" pt_clust_5="550.00000" pt_clust_6="33.20487"></scales>
<mgrwt>
<rscale>  0 0.30000000E+03</rscale>
<asrwt>  1 0.33204872E+02</asrwt>
<pdfrwt beam="1">  1        1 0.86869450E+00 0.30000000E+03</pdfrwt>
<pdfrwt beam="2">0</pdfrwt>
<totfact> 0.26378612E-04</totfact>
</mgrwt>
<clustering>
<clus scale="   33.205">  1  6  2 -1</clus>
<clus scale="  478.091">  4  5 -1 -1</clus>
<clus scale="  300.000">  1  4  2 -1</clus>
</clustering>
</event>
<event>
 6    1  0.1000035E-011  0.3000000E+03  0.7818608E-02  0.1093470E+00
          1   -1    0    0  502    0  0.00000000000E+00  0.00000000000E+00  0.23473527179E+03  0.23473527179E+03  0.00000000000E+00 0.  1.
         13   -1    0    0    0    0 -0.00000000000E+00 -0.00000000000E+00 -0.27500000000E+03  0.27500000000E+03  0.00000000000E+00 0.  1.
    9000005    2    1    2  501    0 -0.39761790683E+02 -0.19908093728E+02 -0.37444596317E+02  0.46517873087E+03  0.46153203753E+03 0.  0.
         13    1    3    3    0    0  0.10254894106E+03  0.73844407016E+02  0.16030788509E+03  0.20412716572E+03  0.00000000000E+00 0.  1.
          3    1    3    3  501    0 -0.14231073174E+03 -0.93752500744E+02 -0.19775248141E+03  0.26105156516E+03  0.00000000000E+00 0.  1.
         21    1    1    2  502  501  0.39761790683E+02  0.19908093728E+02 -0.28201318977E+01  0.44556540912E+02  0.00000000000E+00 0. -1.
<scales pt_clust_4="550.00000" pt_clust_5="550.00000" pt_clust_6="44.46720"></scales>
<mgrwt>
<rscale>  0 0.30000000E+03</rscale>
<asrwt>  1 0.44467204E+02</asrwt>
<pdfrwt beam="1">  1        1 0.85358281E+00 0.30000000E+03</pdfrwt>
<pdfrwt beam="2">0</pdfrwt>
<totfact> 0.36003155E-04</totfact>
</mgrwt>
<clustering>
<clus scale="   44.467">  1  6  2 -1</clus>
<clus scale="  461.532">  4  5 -1 -1</clus>
<clus scale="  300.000">  1  4  2 -1</clus>
</clustering>
</event>
<event>
 6    1  0.1000035E-011  0.3000000E+03  0.7818608E-02  0.1093470E+00
          1   -1    0    0  502    0  0.00000000000E+00  0.00000000000E+00  0.23299590078E+03  0.23299590078E+03  0.00000000000E+00 0.  1.
         13   -1    0    0    0    0 -0.00000000000E+00 -0.00000000000E+00 -0.27500000000E+03  0.27500000000E+03  0.00000000000E+00 0.  1.
    9000005    2    1    2  501    0 -0.15448821208E+01  0.34540707055E+02 -0.60974745162E+02  0.46855819658E+03  0.46328545945E+03 0.  0.
         13    1    3    3    0    0 -0.17314326395E+03 -0.35687426963E+02  0.11664377205E+03  0.21179695903E+03  0.00000000000E+00 0.  1.
          1    1    3    3  501    0  0.17159838183E+03  0.70228134018E+02 -0.17761851721E+03  0.25676123756E+03  0.00000000000E+00 0.  1.
         21    1    1    2  502  501  0.15448821208E+01 -0.34540707055E+02  0.18970645939E+02  0.39437704193E+02  0.00000000000E+00 0. -1.
<scales pt_clust_4="550.00000" pt_clust_5="550.00000" pt_clust_6="34.57524"></scales>
<mgrwt>
<rscale>  0 0.30000000E+03</rscale>
<asrwt>  1 0.34575238E+02</asrwt>
<pdfrwt beam="1">  1        1 0.84725782E+00 0.30000000E+03</pdfrwt>
<pdfrwt beam="2">0</pdfrwt>
<totfact> 0.43238355E-04</totfact>
</mgrwt>
<clustering>
<clus scale="   34.575">  1  6  2 -1</clus>
<clus scale="  463.285">  4  5 -1 -1</clus>
<clus scale="  300.000">  1  4  2 -1</clus>
</clustering>
</event>
<event>
 6    1  0.1000035E-011  0.3000000E+03  0.7818608E-02  0.1093470E+00
          1   -1    0    0  502    0  0.00000000000E+00  0.00000000000E+00  0.23592172803E+03  0.23592172803E+03  0.00000000000E+00 0.  1.
         13   -1    0    0    0    0 -0.00000000000E+00 -0.00000000000E+00 -0.27500000000E+03  0.27500000000E+03  0.00000000000E+00 0.  1.
    9000005    2    1    2  501    0  0.25489011653E+02  0.39845814105E+02 -0.40511556670E+02  0.46359908100E+03  0.45939693410E+03 0.  0.
         13    1    3    3    0    0  0.13588603424E+03 -0.70086858984E+00 -0.21430271515E+03  0.25375413147E+03  0.00000000000E+00 0.  1.
          3    1    3    3  501    0 -0.11039702259E+03  0.40546682695E+02  0.17379115848E+03  0.20984494952E+03  0.00000000000E+00 0.  1.
         21    1    1    2  502  501 -0.25489011653E+02 -0.39845814105E+02  0.14332846971E+01  0.47322647029E+02  0.00000000000E+00 0. -1.
<scales pt_clust_4="550.00000" pt_clust_5="550.00000" pt_clust_6="47.30094"></scales>
<mgrwt>
<rscale>  0 0.30000000E+03</rscale>
<asrwt>  1 0.47300937E+02</asrwt>
<pdfrwt beam="1">  1        1 0.85789719E+00 0.30000000E+03</pdfrwt>
<pdfrwt beam="2">0</pdfrwt>
<totfact> 0.32226288E-04</totfact>
</mgrwt>
<clustering>
<clus scale="   47.301">  1  6  2 -1</clus>
<clus scale="  459.397">  4  5 -1 -1</clus>
<clus scale="  300.000">  1  4  2 -1</clus>
</clustering>
</event>
<event>
 6    1  0.1000035E-011  0.3000000E+03  0.7818608E-02  0.1093470E+00
          1   -1    0    0  502    0  0.00000000000E+00  0.00000000000E+00  0.22833663893E+03  0.22833663893E+03  0.00000000000E+00 0.  1.
         13   -1    0    0    0    0 -0.00000000000E+00 -0.00000000000E+00 -0.27500000000E+03  0.27500000000E+03  0.00000000000E+00 0.  1.
    9000005    2    1    2  501    0  0.25922402788E+02  0.27590291172E+02 -0.58641163025E+02  0.46362942456E+03  0.45834513435E+03 0.  0.
         13    1    3    3    0    0  0.92845526968E+02  0.42087345435E+02  0.18463124842E+03  0.21090361404E+03  0.00000000000E+00 0.  1.
          1    1    3    3  501    0 -0.66923124181E+02 -0.14497054263E+02 -0.24327241144E+03  0.25272581052E+03  0.00000000000E+00 0.  1.
         21    1    1    2  502  501 -0.25922402788E+02 -0.27590291172E+02  0.11977801954E+02  0.39707214368E+02  0.00000000000E+00 0.  1.
<scales pt_clust_4="550.00000" pt_clust_5="550.00000" pt_clust_6="37.85756"></scales>
<mgrwt>
<rscale>  0 0.30000000E+03</rscale>
<asrwt>  1 0.37857564E+02</asrwt>
<pdfrwt beam="1">  1        1 0.83031505E+00 0.30000000E+03</pdfrwt>
<pdfrwt beam="2">0</pdfrwt>
<totfact> 0.57900199E-04</totfact>
</mgrwt>
<clustering>
<clus scale="   37.858">  1  6  2 -1</clus>
<clus scale="  458.345">  4  5 -1 -1</clus>
<clus scale="  300.000">  1  4  2 -1</clus>
</clustering>
</event>
<event>
 6    1  0.1000035E-011  0.3000000E+03  0.7818608E-02  0.1093470E+00
          1   -1    0    0  502    0  0.00000000000E+00  0.00000000000E+00  0.23946504437E+03  0.23946504437E+03  0.00000000000E+00 0.  1.
         13   -1    0    0    0    0 -0.00000000000E+00 -0.00000000000E+00 -0.27500000000E+03  0.27500000000E+03  0.00000000000E+00 0.  1.
    9000005    2    1    2  501    0 -0.23670618220E+02 -0.19739877929E+02 -0.57433218973E+02  0.47665638286E+03  0.47217874977E+03 0.  0.
         13    1    3    3    0    0  0.72802258173E+02  0.13475618076E+03  0.14037593670E+03  0.20776140318E+03  0.00000000000E+00 0.  1.
          3    1    3    3  501    0 -0.96472876394E+02 -0.15449605869E+03 -0.19780915567E+03  0.26889497968E+03  0.00000000000E+00 0.  1.
         21    1    1    2  502  501  0.23670618220E+02  0.19739877929E+02  0.21898263339E+02  0.37808661505E+02  0.00000000000E+00 0. -1.
<scales pt_clust_4="550.00000" pt_clust_5="550.00000" pt_clust_6="30.82144"></scales>
<mgrwt>
<rscale>  0 0.30000000E+03</rscale>
<asrwt>  1 0.30821436E+02</asrwt>
<pdfrwt beam="1">  1        1 0.87078198E+00 0.30000000E+03</pdfrwt>
<pdfrwt beam="2">0</pdfrwt>
<totfact> 0.25469161E-04</totfact>
</mgrwt>
<clustering>
<clus scale="   30.821">  1  6  2 -1</clus>
<clus scale="  472.179">  4  5 -1 -1</clus>
<clus scale="  300.000">  1  4  2 -1</clus>
</clustering>
</event>
<event>
 6    1  0.1000035E-011  0.3000000E+03  0.7818608E-02  0.1093470E+00
          1   -1    0    0  502    0  0.00000000000E+00  0.00000000000E+00  0.23120786514E+03  0.23120786514E+03  0.00000000000E+00 0.  1.
         13   -1    0    0    0    0 -0.00000000000E+00 -0.00000000000E+00 -0.27500000000E+03  0.27500000000E+03  0.00000000000E+00 0.  1.
    9000005    2    1    2  501    0 -0.23787756808E+02 -0.24144012208E+02 -0.70410111188E+02  0.46311137615E+03  0.45647099827E+03 0.  0.
         13    1    3    3    0    0  0.75750282777E+02 -0.19595652675E+03  0.68283266945E+02  0.22090647402E+03  0.00000000000E+00 0.  1.
          3    1    3    3  501    0 -0.99538039585E+02  0.17181251455E+03 -0.13869337813E+03  0.24220490213E+03  0.00000000000E+00 0.  1.
         21    1    1    2  502  501  0.23787756808E+02  0.24144012208E+02  0.26617976328E+02  0.43096488990E+02  0.00000000000E+00 0.  1.
<scales pt_clust_4="550.00000" pt_clust_5="550.00000" pt_clust_6="33.89382"></scales>
<mgrwt>
<rscale>  0 0.30000000E+03</rscale>
<asrwt>  1 0.33893815E+02</asrwt>
<pdfrwt beam="1">  1        1 0.84075587E+00 0.30000000E+03</pdfrwt>
<pdfrwt beam="2">0</pdfrwt>
<totfact> 0.49333136E-04</totfact>
</mgrwt>
<clustering>
<clus scale="   33.894">  1  6  2 -1</clus>
<clus scale="  456.471">  4  5 -1 -1</clus>
<clus scale="  300.000">  1  4  2 -1</clus>
</clustering>
</event>
<event>
 6    1  0.1000035E-011  0.3000000E+03  0.7818608E-02  0.1093470E+00
          1   -1    0    0  502    0  0.00000000000E+00  0.00000000000E+00  0.24213913574E+03  0.24213913574E+03  0.00000000000E+00 0.  1.
         13   -1    0    0    0    0 -0.00000000000E+00 -0.00000000000E+00 -0.27500000000E+03  0.27500000000E+03  0.00000000000E+00 0.  1.
    9000005    2    1    2  501    0  0.13863348525E+02  0.28064692093E+02 -0.51703334523E+02  0.48060342635E+03  0.47678779268E+03 0.  0.
         13    1    3    3    0    0 -0.17348690090E+03 -0.11803216733E+03  0.59759798049E+02  0.21817545868E+03  0.00000000000E+00 0.  1.
          3    1    3    3  501    0  0.18735024943E+03  0.14609685942E+03 -0.11146313257E+03  0.26242796767E+03  0.00000000000E+00 0.  1.
         21    1    1    2  502  501 -0.13863348525E+02 -0.28064692093E+02  0.18842470259E+02  0.36535709383E+02  0.00000000000E+00 0.  1.
<scales pt_clust_4="550.00000" pt_clust_5="550.00000" pt_clust_6="31.30207"></scales>
<mgrwt>
<rscale>  0 0.30000000E+03</rscale>
<asrwt>  1 0.31302067E+02</asrwt>
<pdfrwt beam="1">  1        1 0.88050595E+00 0.30000000E+03</pdfrwt>
<pdfrwt beam="2">0</pdfrwt>
<totfact> 0.19869084E-04</totfact>
</mgrwt>
<clustering>
<clus scale="   31.302">  1  6  2 -1</clus>
<clus scale="  476.788">  4  5 -1 -1</clus>
<clus scale="  300.000">  1  4  2 -1</clus>
</clustering>
</event>
<event>
 6    1  0.1000035E-011  0.3000000E+03  0.7818608E-02  0.1093470E+00
          1   -1    0    0  502    0  0.00000000000E+00  0.00000000000E+00  0.22370816108E+03  0.22370816108E+03  0.00000000000E+00 0.  1.
         13   -1    0    0    0    0 -0.00000000000E+00 -0.00000000000E+00 -0.27500000000E+03  0.27500000000E+03  0.00000000000E+00 0.  1.
    9000005    2    1    2  501    0  0.33893947025E+02 -0.10192480480E+02 -0.60182228733E+02  0.46221534899E+03  0.45691185351E+03 0.  0.
         13    1    3    3    0    0 -0.19268726862E+03 -0.57818365838E+02  0.47746052480E+02  0.20676322798E+03  0.00000000000E+00 0.  1.
          3    1    3    3  501    0  0.22658121565E+03  0.47625885358E+02 -0.10792828121E+03  0.25545212101E+03  0.00000000000E+00 0.  1.
         21    1    1    2  502  501 -0.33893947025E+02  0.10192480480E+02  0.88903898119E+01  0.36492812090E+02  0.00000000000E+00 0.  1.
<scales pt_clust_4="550.00000" pt_clust_5="550.00000" pt_clust_6="35.39331"></scales>
<mgrwt>
<rscale>  0 0.30000000E+03</rscale>
<asrwt>  1 0.35393309E+02</asrwt>
<pdfrwt beam="1">  1        1 0.81348422E+00 0.30000000E+03</pdfrwt>
<pdfrwt beam="2">0</pdfrwt>
<totfact> 0.81696812E-04</totfact>
</mgrwt>
<clustering>
<clus scale="   35.393">  1  6  2 -1</clus>
<clus scale="  456.912">  4  5 -1 -1</clus>
<clus scale="  300.000">  1  4  2 -1</clus>
</clustering>
</event>
<event>
 6    1  0.1000035E-011  0.3000000E+03  0.7818608E-02  0.1093470E+00
          1   -1    0    0  502    0  0.00000000000E+00  0.00000000000E+00  0.23617197569E+03  0.23617197569E+03  0.00000000000E+00 0.  1.
         13   -1    0    0    0    0 -0.00000000000E+00 -0.00000000000E+00 -0.27500000000E+03  0.27500000000E+03  0.00000000000E+00 0.  1.
    9000005    2    1    2  501    0  0.32107421176E+02 -0.45222321963E+01 -0.37875032375E+02  0.47873364539E+03  0.47613028477E+03 0.  0.
         13    1    3    3    0    0  0.22515577447E+03  0.44091953983E+02 -0.12517469007E+03  0.26135785088E+03  0.00000000000E+00 0.  1.
          1    1    3    3  501    0 -0.19304835329E+03 -0.48614186179E+02  0.87299657696E+02  0.21737579451E+03  0.00000000000E+00 0.  1.
         21    1    1    2  502  501 -0.32107421176E+02  0.45222321963E+01 -0.95299193706E+00  0.32438330294E+02  0.00000000000E+00 0. -1.
<scales pt_clust_4="550.00000" pt_clust_5="550.00000" pt_clust_6="32.42433"></scales>
<mgrwt>
<rscale>  0 0.30000000E+03</rscale>
<asrwt>  1 0.32424328E+02</asrwt>
<pdfrwt beam="1">  1        1 0.85880718E+00 0.30000000E+03</pdfrwt>
<pdfrwt beam="2">0</pdfrwt>
<totfact> 0.33785446E-04</totfact>
</mgrwt>
<clustering>
<clus scale="   32.424">  1  6  2 -1</clus>
<clus scale="  476.130">  4  5 -1 -1</clus>
<clus scale="  300.000">  1  4  2 -1</clus>
</clustering>
</event>
<event>
 6    1  0.1000035E-011  0.3000000E+03  0.7818608E-02  0.1093470E+00
          1   -1    0    0  502    0  0.00000000000E+00  0.00000000000E+00  0.23651820972E+03  0.23651820972E+03  0.00000000000E+00 0.  1.
         13   -1    0    0    0    0 -0.00000000000E+00 -0.00000000000E+00 -0.27500000000E+03  0.27500000000E+03  0.00000000000E+00 0.  1.
    9000005    2    1    2  501    0 -0.29321034745E+01  0.34499227304E+02 -0.55406557563E+02  0.47297937654E+03  0.46844509827E+03 0.  0.
         13    1    3    3    0    0 -0.10005586573E+03  0.18593722105E+03 -0.15995974981E+03  0.26489799546E+03  0.00000000000E+00 0.  1.
          3    1    3    3  501    0  0.97123762255E+02 -0.15143799375E+03  0.10455319225E+03  0.20808138108E+03  0.00000000000E+00 0.  1.
         21    1    1    2  502  501  0.29321034745E+01 -0.34499227304E+02  0.16924767284E+02  0.38538833181E+02  0.00000000000E+00 0.  1.
<scales pt_clust_4="550.00000" pt_clust_5="550.00000" pt_clust_6="34.62360"></scales>
<mgrwt>
<rscale>  0 0.30000000E+03</rscale>
<asrwt>  1 0.34623603E+02</asrwt>
<pdfrwt beam="1">  1        1 0.86006622E+00 0.30000000E+03</pdfrwt>
<pdfrwt beam="2">0</pdfrwt>
<totfact> 0.32359230E-04</totfact>
</mgrwt>
<clustering>
<clus scale="   34.624">  1  6  2 -1</clus>
<clus scale="  468.445">  4  5 -1 -1</clus>
<clus scale="  300.000">  1  4  2 -1</clus>
</clustering>
</event>
<event>
 6    1  0.1000035E-011  0.3000000E+03  0.7818608E-02  0.1093470E+00
          1   -1    0    0  502    0  0.00000000000E+00  0.00000000000E+00  0.24046973891E+03  0.24046973891E+03  0.00000000000E+00 0.  1.
         13   -1    0    0    0    0 -0.00000000000E+00 -0.00000000000E+00 -0.27500000000E+03  0.27500000000E+03  0.00000000000E+00 0.  1.
    9000005    2    1    2  501    0 -0.30678361672E+02  0.21789909869E+01 -0.44090456679E+02  0.48326248481E+03  0.48026321011E+03 0.  0.
         13    1    3    3    0    0  0.11225499254E+03  0.57708683624E+02  0.17504400817E+03  0.21580519066E+03  0.00000000000E+00 0.  1.
          1    1    3    3  501    0 -0.14293335421E+03 -0.55529692638E+02 -0.21913446485E+03  0.26745729416E+03  0.00000000000E+00 0.  1.
         21    1    1    2  502  501  0.30678361672E+02 -0.21789909869E+01  0.95601955842E+01  0.32207254093E+02  0.00000000000E+00 0.  1.
<scales pt_clust_4="550.00000" pt_clust_5="550.00000" pt_clust_6="30.75565"></scales>
<mgrwt>
<rscale>  0 0.30000000E+03</rscale>
<asrwt>  1 0.30755648E+02</asrwt>
<pdfrwt beam="1">  1        1 0.87443541E+00 0.30000000E+03</pdfrwt>
<pdfrwt beam="2">0</pdfrwt>
<totfact> 0.23367583E-04</totfact>
</mgrwt>
<clustering>
<clus scale="   30.756">  1  6  2 -1</clus>
<clus scale="  480.263">  4  5 -1 -1</clus>
<clus scale="  300.000">  1  4  2 -1</clus>
</clustering>
</event>
<event>
 6    1  0.1000035E-011  0.3000000E+03  0.7818608E-02  0.1093470E+00
          1   -1    0    0  502    0  0.00000000000E+00  0.00000000000E+00  0.24420546909E+03  0.24420546909E+03  0.00000000000E+00 0.  1.
         13   -1    0    0    0    0 -0.00000000000E+00 -0.00000000000E+00 -0.27500000000E+03  0.27500000000E+03  0.00000000000E+00 0.  1.
    9000005    2    1    2  501    0 -0.61106040458E+01  0.41409278023E+02 -0.52163875881E+02  0.47220848309E+03  0.46744808671E+03 0.  0.
         13    1    3    3    0    0  0.13857082398E+03  0.41640729168E+02  0.15980017951E+03  0.21557346997E+03  0.00000000000E+00 0.  1.
          1    1    3    3  501    0 -0.14468142802E+03 -0.23145114518E+00 -0.21196405539E+03  0.25663501313E+03  0.00000000000E+00 0.  1.
         21    1    1    2  502  501  0.61106040458E+01 -0.41409278023E+02  0.21369344970E+02  0.46996985995E+02  0.00000000000E+00 0. -1.
<scales pt_clust_4="550.00000" pt_clust_5="550.00000" pt_clust_6="41.85771"></scales>
<mgrwt>
<rscale>  0 0.30000000E+03</rscale>
<asrwt>  1 0.41857709E+02</asrwt>
<pdfrwt beam="1">  1        1 0.88801989E+00 0.30000000E+03</pdfrwt>
<pdfrwt beam="2">0</pdfrwt>
<totfact> 0.14920498E-04</totfact>
</mgrwt>
<clustering>
<clus scale="   41.858">  1  6  2 -1</clus>
<clus scale="  467.448">  4  5 -1 -1</clus>
<clus scale="  300.000">  1  4  2 -1</clus>
</clustering>
</event>
<event>
 6    1  0.1000035E-011  0.3000000E+03  0.7818608E-02  0.1093470E+00
          1   -1    0    0  502    0  0.00000000000E+00  0.00000000000E+00  0.23052573431E+03  0.23052573431E+03  0.00000000000E+00 0.  1.
         13   -1    0    0    0    0 -0.00000000000E+00 -0.00000000000E+00 -0.27500000000E+03  0.27500000000E+03  0.00000000000E+00 0.  1.
    9000005    2    1    2  501    0  0.21907804853E+02 -0.24040864080E+02 -0.55159939411E+02  0.47128980754E+03  0.46691921005E+03 0.  0.
         13    1    3    3    0    0  0.13761702402E+03  0.16165539017E+03 -0.11899257475E+03  0.24337243747E+03  0.00000000000E+00 0.  1.
          1    1    3    3  501    0 -0.11570921917E+03 -0.18569625425E+03  0.63832635339E+02  0.22791737007E+03  0.00000000000E+00 0.  1.
         21    1    1    2  502  501 -0.21907804853E+02  0.24040864080E+02  0.10685673721E+02  0.34235926774E+02  0.00000000000E+00 0. -1.
<scales pt_clust_4="550.00000" pt_clust_5="550.00000" pt_clust_6="32.52561"></scales>
<mgrwt>
<rscale>  0 0.30000000E+03</rscale>
<asrwt>  1 0.32525606E+02</asrwt>
<pdfrwt beam="1">  1        1 0.83827540E+00 0.30000000E+03</pdfrwt>
<pdfrwt beam="2">0</pdfrwt>
<totfact> 0.51919623E-04</totfact>
</mgrwt>
<clustering>
<clus scale="   32.526">  1  6  2 -1</clus>
<clus scale="  466.919">  4  5 -1 -1</clus>
<clus scale="  300.000">  1  4  2 -1</clus>
</clustering>
</event>
<event>
 6    1  0.1000035E-011  0.3000000E+03  0.7818608E-02  0.1093470E+00
          1   -1    0    0  502    0  0.00000000000E+00  0.00000000000E+00  0.24525260637E+03  0.24525260637E+03  0.00000000000E+00 0.  1.
         13   -1    0    0    0    0 -0.00000000000E+00 -0.00000000000E+00 -0.27500000000E+03  0.27500000000E+03  0.00000000000E+00 0.  1.
    9000005    2    1    2  501    0  0.29247454891E+02  0.24645343090E+02 -0.20942827021E+02  0.48100560717E+03  0.47902503647E+03 0.  0.
         13    1    3    3    0    0  0.14988486749E+03  0.15403946902E+03  0.12764715678E+03  0.24997485504E+03  0.00000000000E+00 0.  1.
          1    1    3    3  501    0 -0.12063741260E+03 -0.12939412593E+03 -0.14858998380E+03  0.23103075213E+03  0.00000000000E+00 0.  1.
         21    1    1    2  502  501 -0.29247454891E+02 -0.24645343090E+02 -0.88045666055E+01  0.39246999207E+02  0.00000000000E+00 0. -1.
<scales pt_clust_4="550.00000" pt_clust_5="550.00000" pt_clust_6="38.24667"></scales>
<mgrwt>
<rscale>  0 0.30000000E+03</rscale>
<asrwt>  1 0.38246673E+02</asrwt>
<pdfrwt beam="1">  1        1 0.89182766E+00 0.30000000E+03</pdfrwt>
<pdfrwt beam="2">0</pdfrwt>
<totfact> 0.13507957E-04</totfact>
</mgrwt>
<clustering>
<clus scale="   38.247">  1  6  2 -1</clus>
<clus scale="  479.025">  4  5 -1 -1</clus>
<clus scale="  300.000">  1  4  2 -1</clus>
</clustering>
</event>
<event>
 6    1  0.1000035E-011  0.3000000E+03  0.7818608E-02  0.1093470E+00
          1   -1    0    0  502    0  0.00000000000E+00  0.00000000000E+00  0.24439869893E+03  0.24439869893E+03  0.00000000000E+00 0.  1.
         13   -1    0    0    0    0 -0.00000000000E+00 -0.00000000000E+00 -0.27500000000E+03  0.27500000000E+03  0.00000000000E+00 0.  1.
    9000005    2    1    2  501    0 -0.87162897698E+01  0.34633716283E+02 -0.63213300711E+02  0.47103538089E+03  0.46540621037E+03 0.  0.
         13    1    3    3    0    0 -0.20160531804E+03  0.27683099653E+02 -0.15644580496E+03  0.25668336167E+03  0.00000000000E+00 0.  1.
          1    1    3    3  501    0  0.19288902827E+03  0.69506166292E+01  0.93232504246E+02  0.21435201923E+03  0.00000000000E+00 0.  1.
         21    1    1    2  502  501  0.87162897698E+01 -0.34633716283E+02  0.32611999637E+02  0.48363318034E+02  0.00000000000E+00 0.  1.
<scales pt_clust_4="550.00000" pt_clust_5="550.00000" pt_clust_6="35.71370"></scales>
<mgrwt>
<rscale>  0 0.30000000E+03</rscale>
<asrwt>  1 0.35713695E+02</asrwt>
<pdfrwt beam="1">  1        1 0.88872254E+00 0.30000000E+03</pdfrwt>
<pdfrwt beam="2">0</pdfrwt>
<totfact> 0.15025300E-04</totfact>
</mgrwt>
<clustering>
<clus scale="   35.714">  1  6  2 -1</clus>
<clus scale="  465.406">  4  5 -1 -1</clus>
<clus scale="  300.000">  1  4  2 -1</clus>
</clustering>
</event>
<event>
 6    1  0.1000035E-011  0.3000000E+03  0.7818608E-02  0.1093470E+00
          1   -1    0    0  502    0  0.00000000000E+00  0.00000000000E+00  0.26187988832E+03  0.26187988832E+03  0.00000000000E+00 0.  1.
         13   -1    0    0    0    0 -0.00000000000E+00 -0.00000000000E+00 -0.27500000000E+03  0.27500000000E+03  0.00000000000E+00 0.  1.
    9000005    2    1    2  501    0 -0.38879053198E+02  0.15257798489E+02 -0.65217119871E+01  0.49459608444E+03  0.49278633587E+03 0.  0.
         13    1    3    3    0    0 -0.13055443714E+03  0.15943650895E+03 -0.16313131932E+03  0.26282368384E+03  0.00000000000E+00 0.  1.
          1    1    3    3  501    0  0.91675383943E+02 -0.14417871046E+03  0.15660960733E+03  0.23177240060E+03  0.00000000000E+00 0.  1.
         21    1    1    2  502  501  0.38879053198E+02 -0.15257798489E+02 -0.65983996912E+01  0.42283803883E+02  0.00000000000E+00 0. -1.
<scales pt_clust_4="550.00000" pt_clust_5="550.00000" pt_clust_6="41.76581"></scales>
<mgrwt>
<rscale>  0 0.30000000E+03</rscale>
<asrwt>  1 0.41765811E+02</asrwt>
<pdfrwt beam="1">  1        1 0.95229050E+00 0.30000000E+03</pdfrwt>
<pdfrwt beam="2">0</pdfrwt>
<totfact> 0.10710612E-05</totfact>
</mgrwt>
<clustering>
<clus scale="   41.766">  1  6  2 -1</clus>
<clus scale="  492.786">  4  5 -1 -1</clus>
<clus scale="  300.000">  1  4  2 -1</clus>
</clustering>
</event>
<event>
 6    1  0.1000035E-011  0.3000000E+03  0.7818608E-02  0.1093470E+00
          1   -1    0    0  502    0  0.00000000000E+00  0.00000000000E+00  0.24456245534E+03  0.24456245534E+03  0.00000000000E+00 0.  1.
         13   -1    0    0    0    0 -0.00000000000E+00 -0.00000000000E+00 -0.27500000000E+03  0.27500000000E+03  0.00000000000E+00 0.  1.
    9000005    2    1    2  501    0  0.17839644130E+02  0.27870759055E+02 -0.12541192029E+02  0.48194182868E+03  0.48064083537E+03 0.  0.
         13    1    3    3    0    0 -0.73318230201E+02 -0.17404938274E+03 -0.13183298319E+03  0.23032300356E+03  0.00000000000E+00 0.  1.
          3    1    3    3  501    0  0.91157874330E+02  0.20192014180E+03  0.11929179116E+03  0.25161882512E+03  0.00000000000E+00 0.  1.
         21    1    1    2  502  501 -0.17839644130E+02 -0.27870759055E+02 -0.17896352629E+02  0.37620626662E+02  0.00000000000E+00 0.  1.
<scales pt_clust_4="550.00000" pt_clust_5="550.00000" pt_clust_6="33.09129"></scales>
<mgrwt>
<rscale>  0 0.30000000E+03</rscale>
<asrwt>  1 0.33091286E+02</asrwt>
<pdfrwt beam="1">  1        1 0.88931802E+00 0.30000000E+03</pdfrwt>
<pdfrwt beam="2">0</pdfrwt>
<totfact> 0.14960887E-04</totfact>
</mgrwt>
<clustering>
<clus scale="   33.091">  1  6  2 -1</clus>
<clus scale="  480.641">  4  5 -1 -1</clus>
<clus scale="  300.000">  1  4  2 -1</clus>
</clustering>
</event>
<event>
 6    1  0.1000035E-011  0.3000000E+03  0.7818608E-02  0.1093470E+00
          1   -1    0    0  502    0  0.00000000000E+00  0.00000000000E+00  0.24039921895E+03  0.24039921895E+03  0.00000000000E+00 0.  1.
         13   -1    0    0    0    0 -0.00000000000E+00 -0.00000000000E+00 -0.27500000000E+03  0.27500000000E+03  0.00000000000E+00 0.  1.
    9000005    2    1    2  501    0 -0.25685357297E+02  0.22557032124E+02 -0.21148173020E+02  0.47866327006E+03  0.47697245581E+03 0.  0.
         13    1    3    3    0    0  0.44213145874E+02 -0.33747873671E+01  0.22094495297E+03  0.22535053517E+03  0.00000000000E+00 0.  1.
          3    1    3    3  501    0 -0.69898503171E+02  0.25931819491E+02 -0.24209312599E+03  0.25331273489E+03  0.00000000000E+00 0.  1.
         21    1    1    2  502  501  0.25685357297E+02 -0.22557032124E+02 -0.13452608032E+02  0.36735948887E+02  0.00000000000E+00 0.  1.
<scales pt_clust_4="550.00000" pt_clust_5="550.00000" pt_clust_6="34.18418"></scales>
<mgrwt>
<rscale>  0 0.30000000E+03</rscale>
<asrwt>  1 0.34184184E+02</asrwt>
<pdfrwt beam="1">  1        1 0.87417898E+00 0.30000000E+03</pdfrwt>
<pdfrwt beam="2">0</pdfrwt>
<totfact> 0.23045498E-04</totfact>
</mgrwt>
<clustering>
<clus scale="   34.184">  1  6  2 -1</clus>
<clus scale="  476.972">  4  5 -1 -1</clus>
<clus scale="  300.000">  1  4  2 -1</clus>
</clustering>
</event>
<event>
 6    1  0.1000035E-011  0.3000000E+03  0.7818608E-02  0.1093470E+00
          1   -1    0    0  502    0  0.00000000000E+00  0.00000000000E+00  0.22334641635E+03  0.22334641635E+03  0.00000000000E+00 0.  1.
         13   -1    0    0    0    0 -0.00000000000E+00 -0.00000000000E+00 -0.27500000000E+03  0.27500000000E+03  0.00000000000E+00 0.  1.
    9000005    2    1    2  501    0  0.29835601167E+02  0.15222133101E+02 -0.45463515042E+02  0.46428480479E+03  0.46083790244E+03 0.  0.
         13    1    3    3    0    0  0.95598930916E+02  0.13857478048E+03  0.14898245707E+03  0.22480635643E+03  0.00000000000E+00 0.  1.
          3    1    3    3  501    0 -0.65763329749E+02 -0.12335264738E+03 -0.19444597211E+03  0.23947844835E+03  0.00000000000E+00 0.  1.
         21    1    1    2  502  501 -0.29835601167E+02 -0.15222133101E+02 -0.61900686053E+01  0.34061611566E+02  0.00000000000E+00 0.  1.
<scales pt_clust_4="550.00000" pt_clust_5="550.00000" pt_clust_6="33.49444"></scales>
<mgrwt>
<rscale>  0 0.30000000E+03</rscale>
<asrwt>  1 0.33494441E+02</asrwt>
<pdfrwt beam="1">  1        1 0.81216879E+00 0.30000000E+03</pdfrwt>
<pdfrwt beam="2">0</pdfrwt>
<totfact> 0.84556808E-04</totfact>
</mgrwt>
<clustering>
<clus scale="   33.494">  1  6  2 -1</clus>
<clus scale="  460.838">  4  5 -1 -1</clus>
<clus scale="  300.000">  1  4  2 -1</clus>
</clustering>
</event>
<event>
 6    1  0.1000035E-011  0.3000000E+03  0.7818608E-02  0.1093470E+00
          1   -1    0    0  502    0  0.00000000000E+00  0.00000000000E+00  0.22134578094E+03  0.22134578094E+03  0.00000000000E+00 0.  1.
         13   -1    0    0    0    0 -0.00000000000E+00 -0.00000000000E+00 -0.27500000000E+03  0.27500000000E+03  0.00000000000E+00 0.  1.
    9000005    2    1    2  501    0 -0.35335887936E+01 -0.31846241014E+02 -0.61312410810E+02  0.46340162793E+03  0.45820867269E+03 0.  0.
         13    1    3    3    0    0  0.20823094837E+03  0.75389319649E+02 -0.40411056992E+02  0.22511492821E+03  0.00000000000E+00 0.  1.
          3    1    3    3  501    0 -0.21176453716E+03 -0.10723556066E+03 -0.20901353818E+02  0.23828669972E+03  0.00000000000E+00 0.  1.
         21    1    1    2  502  501  0.35335887936E+01  0.31846241014E+02  0.76581917463E+01  0.32944153006E+02  0.00000000000E+00 0. -1.
<scales pt_clust_4="550.00000" pt_clust_5="550.00000" pt_clust_6="32.04168"></scales>
<mgrwt>
<rscale>  0 0.30000000E+03</rscale>
<asrwt>  1 0.32041681E+02</asrwt>
<pdfrwt beam="1">  1        1 0.80489375E+00 0.30000000E+03</pdfrwt>
<pdfrwt beam="2">0</pdfrwt>
<totfact> 0.97074241E-04</totfact>
</mgrwt>
<clustering>
<clus scale="   32.042">  1  6  2 -1</clus>
<clus scale="  458.209">  4  5 -1 -1</clus>
<clus scale="  300.000">  1  4  2 -1</clus>
</clustering>
</event>
<event>
 6    1  0.1000035E-011  0.3000000E+03  0.7818608E-02  0.1093470E+00
          1   -1    0    0  502    0  0.00000000000E+00  0.00000000000E+00  0.23150913312E+03  0.23150913312E+03  0.00000000000E+00 0.  1.
         13   -1    0    0    0    0 -0.00000000000E+00 -0.00000000000E+00 -0.27500000000E+03  0.27500000000E+03  0.00000000000E+00 0.  1.
    9000005    2    1    2  501    0  0.11004741067E+02 -0.30542686335E+02 -0.30179214203E+02  0.47142124188E+03  0.46933276288E+03 0.  0.
         13    1    3    3    0    0  0.11963196431E+03 -0.18214937449E+03 -0.13610568386E+03  0.25693376323E+03  0.00000000000E+00 0.  1.
          3    1    3    3  501    0 -0.10862722324E+03  0.15160668816E+03  0.10592646965E+03  0.21448747865E+03  0.00000000000E+00 0.  1.
         21    1    1    2  502  501 -0.11004741067E+02  0.30542686335E+02 -0.13311652680E+02  0.35087891238E+02  0.00000000000E+00 0.  1.
<scales pt_clust_4="550.00000" pt_clust_5="550.00000" pt_clust_6="32.46477"></scales>
<mgrwt>
<rscale>  0 0.30000000E+03</rscale>
<asrwt>  1 0.32464767E+02</asrwt>
<pdfrwt beam="1">  1        1 0.84185139E+00 0.30000000E+03</pdfrwt>
<pdfrwt beam="2">0</pdfrwt>
<totfact> 0.48737327E-04</totfact>
</mgrwt>
<clustering>
<clus scale="   32.465">  1  6  2 -1</clus>
<clus scale="  469.333">  4  5 -1 -1</clus>
<clus scale="  300.000">  1  4  2 -1</clus>
</clustering>
</event>
<event>
 6    1  0.1000035E-011  0.3000000E+03  0.7818608E-02  0.1093470E+00
          1   -1    0    0  502    0  0.00000000000E+00  0.00000000000E+00  0.22964641360E+03  0.22964641360E+03  0.00000000000E+00 0.  1.
         13   -1    0    0    0    0 -0.00000000000E+00 -0.00000000000E+00 -0.27500000000E+03  0.27500000000E+03  0.00000000000E+00 0.  1.
    9000005    2    1    2  501    0  0.27818419083E+02  0.14185357222E+02 -0.38645311409E+02  0.47270756964E+03  0.47008924419E+03 0.  0.
         13    1    3    3    0    0 -0.74555261610E+01 -0.73035648673E+02  0.20167765287E+03  0.21462447790E+03  0.00000000000E+00 0.  1.
          1    1    3    3  501    0  0.35273945244E+02  0.87221005895E+02 -0.24032296428E+03  0.25808309174E+03  0.00000000000E+00 0.  1.
         21    1    1    2  502  501 -0.27818419083E+02 -0.14185357222E+02 -0.67082749930E+01  0.31938843954E+02  0.00000000000E+00 0.  1.
<scales pt_clust_4="550.00000" pt_clust_5="550.00000" pt_clust_6="31.22643"></scales>
<mgrwt>
<rscale>  0 0.30000000E+03</rscale>
<asrwt>  1 0.31226428E+02</asrwt>
<pdfrwt beam="1">  1        1 0.83507787E+00 0.30000000E+03</pdfrwt>
<pdfrwt beam="2">0</pdfrwt>
<totfact> 0.55206080E-04</totfact>
</mgrwt>
<clustering>
<clus scale="   31.226">  1  6  2 -1</clus>
<clus scale="  470.089">  4  5 -1 -1</clus>
<clus scale="  300.000">  1  4  2 -1</clus>
</clustering>
</event>
<event>
 6    1  0.1000035E-011  0.3000000E+03  0.7818608E-02  0.1093470E+00
          1   -1    0    0  502    0  0.00000000000E+00  0.00000000000E+00  0.24344529480E+03  0.24344529480E+03  0.00000000000E+00 0.  1.
         13   -1    0    0    0    0 -0.00000000000E+00 -0.00000000000E+00 -0.27500000000E+03  0.27500000000E+03  0.00000000000E+00 0.  1.
    9000005    2    1    2  501    0 -0.35413562758E+02  0.21246030873E+01 -0.59579646329E+01  0.47469798068E+03  0.47333290732E+03 0.  0.
         13    1    3    3    0    0  0.28619222658E+02  0.75316275710E+02 -0.22286848034E+03  0.23698514894E+03  0.00000000000E+00 0.  1.
          1    1    3    3  501    0 -0.64032785416E+02 -0.73191672623E+02  0.21691051570E+03  0.23771283174E+03  0.00000000000E+00 0.  1.
         21    1    1    2  502  501  0.35413562758E+02 -0.21246030873E+01 -0.25596740564E+02  0.43747314123E+02  0.00000000000E+00 0. -1.
<scales pt_clust_4="550.00000" pt_clust_5="550.00000" pt_clust_6="35.47726"></scales>
<mgrwt>
<rscale>  0 0.30000000E+03</rscale>
<asrwt>  1 0.35477255E+02</asrwt>
<pdfrwt beam="1">  1        1 0.88525562E+00 0.30000000E+03</pdfrwt>
<pdfrwt beam="2">0</pdfrwt>
<totfact> 0.16791829E-04</totfact>
</mgrwt>
<clustering>
<clus scale="   35.477">  1  6  2 -1</clus>
<clus scale="  473.333">  4  5 -1 -1</clus>
<clus scale="  300.000">  1  4  2 -1</clus>
</clustering>
</event>
<event>
 6    1  0.1000035E-011  0.3000000E+03  0.7818608E-02  0.1093470E+00
          1   -1    0    0  502    0  0.00000000000E+00  0.00000000000E+00  0.23021856372E+03  0.23021856372E+03  0.00000000000E+00 0.  1.
         13   -1    0    0    0    0 -0.00000000000E+00 -0.00000000000E+00 -0.27500000000E+03  0.27500000000E+03  0.00000000000E+00 0.  1.
    9000005    2    1    2  501    0  0.38908882847E+02 -0.11117052349E+02 -0.59244836080E+02  0.46224554950E+03  0.45664374234E+03 0.  0.
         13    1    3    3    0    0 -0.69459519463E+02 -0.17076467264E+03 -0.16041902535E+03  0.24437565746E+03  0.00000000000E+00 0.  1.
          3    1    3    3  501    0  0.10836840231E+03  0.15964762029E+03  0.10117418927E+03  0.21786989204E+03  0.00000000000E+00 0.  1.
         21    1    1    2  502  501 -0.38908882847E+02  0.11117052349E+02  0.14463399803E+02  0.42973014220E+02  0.00000000000E+00 0.  1.
<scales pt_clust_4="550.00000" pt_clust_5="550.00000" pt_clust_6="40.46591"></scales>
<mgrwt>
<rscale>  0 0.30000000E+03</rscale>
<asrwt>  1 0.40465912E+02</asrwt>
<pdfrwt beam="1">  1        1 0.83715841E+00 0.30000000E+03</pdfrwt>
<pdfrwt beam="2">0</pdfrwt>
<totfact> 0.50801483E-04</totfact>
</mgrwt>
<clustering>
<clus scale="   40.466">  1  6  2 -1</clus>
<clus scale="  456.644">  4  5 -1 -1</clus>
<clus scale="  300.000">  1  4  2 -1</clus>
</clustering>
</event>
<event>
 6    1  0.1000035E-011  0.3000000E+03  0.7818608E-02  0.1093470E+00
          1   -1    0    0  502    0  0.00000000000E+00  0.00000000000E+00  0.22323523954E+03  0.22323523954E+03  0.00000000000E+00 0.  1.
         13   -1    0    0    0    0 -0.00000000000E+00 -0.00000000000E+00 -0.27500000000E+03  0.27500000000E+03  0.00000000000E+00 0.  1.
    9000005    2    1    2  501    0 -0.17311912065E+02 -0.29778795079E+02 -0.54036328402E+02  0.46371511560E+03  0.45926605004E+03 0.  0.
         13    1    3    3    0    0 -0.52564440224E+02 -0.21155137067E+03 -0.14052332101E+03  0.25935266830E+03  0.00000000000E+00 0.  1.
          3    1    3    3  501    0  0.35252528159E+02  0.18177257559E+03  0.86486992604E+02  0.20436244730E+03  0.00000000000E+00 0.  1.
         21    1    1    2  502  501  0.17311912065E+02  0.29778795079E+02  0.22715679414E+01  0.34520123937E+02  0.00000000000E+00 0. -1.
<scales pt_clust_4="550.00000" pt_clust_5="550.00000" pt_clust_6="34.44530"></scales>
<mgrwt>
<rscale>  0 0.30000000E+03</rscale>
<asrwt>  1 0.34445304E+02</asrwt>
<pdfrwt beam="1">  1        1 0.81176451E+00 0.30000000E+03</pdfrwt>
<pdfrwt beam="2">0</pdfrwt>
<totfact> 0.84733428E-04</totfact>
</mgrwt>
<clustering>
<clus scale="   34.445">  1  6  2 -1</clus>
<clus scale="  459.266">  4  5 -1 -1</clus>
<clus scale="  300.000">  1  4  2 -1</clus>
</clustering>
</event>
<event>
 6    1  0.1000035E-011  0.3000000E+03  0.7818608E-02  0.1093470E+00
          1   -1    0    0  502    0  0.00000000000E+00  0.00000000000E+00  0.22241575247E+03  0.22241575247E+03  0.00000000000E+00 0.  1.
         13   -1    0    0    0    0 -0.00000000000E+00 -0.00000000000E+00 -0.27500000000E+03  0.27500000000E+03  0.00000000000E+00 0.  1.
    9000005    2    1    2  501    0  0.30012302536E+02 -0.76986112468E+01 -0.63064451079E+02  0.46470731954E+03  0.45936451857E+03 0.  0.
         13    1    3    3    0    0  0.65466497682E+02 -0.18797702573E+03 -0.16144675487E+03  0.25629334596E+03  0.00000000000E+00 0.  1.
          1    1    3    3  501    0 -0.35454195146E+02  0.18027841449E+03  0.98382303794E+02  0.20841397358E+03  0.00000000000E+00 0.  1.
         21    1    1    2  502  501 -0.30012302536E+02  0.76986112468E+01  0.10480203552E+02  0.32708432936E+02  0.00000000000E+00 0.  1.
<scales pt_clust_4="550.00000" pt_clust_5="550.00000" pt_clust_6="30.98398"></scales>
<mgrwt>
<rscale>  0 0.30000000E+03</rscale>
<asrwt>  1 0.30983978E+02</asrwt>
<pdfrwt beam="1">  1        1 0.80878455E+00 0.30000000E+03</pdfrwt>
<pdfrwt beam="2">0</pdfrwt>
<totfact> 0.91210989E-04</totfact>
</mgrwt>
<clustering>
<clus scale="   30.984">  1  6  2 -1</clus>
<clus scale="  459.365">  4  5 -1 -1</clus>
<clus scale="  300.000">  1  4  2 -1</clus>
</clustering>
</event>
<event>
 6    1  0.1000035E-011  0.3000000E+03  0.7818608E-02  0.1093470E+00
          1   -1    0    0  502    0  0.00000000000E+00  0.00000000000E+00  0.22252288922E+03  0.22252288922E+03  0.00000000000E+00 0.  1.
         13   -1    0    0    0    0 -0.00000000000E+00 -0.00000000000E+00 -0.27500000000E+03  0.27500000000E+03  0.00000000000E+00 0.  1.
    9000005    2    1    2  501    0 -0.53224162488E+01  0.31000100707E+02 -0.57567225175E+02  0.46566000136E+03  0.46101617877E+03 0.  0.
         13    1    3    3    0    0 -0.15696432562E+03  0.16872870621E+03  0.47713405944E+02  0.23533751279E+03  0.00000000000E+00 0.  1.
          1    1    3    3  501    0  0.15164190937E+03 -0.13772860551E+03 -0.10528063112E+03  0.23032248857E+03  0.00000000000E+00 0.  1.
         21    1    1    2  502  501  0.53224162488E+01 -0.31000100707E+02  0.50901143963E+01  0.31862887865E+02  0.00000000000E+00 0.  1.
<scales pt_clust_4="550.00000" pt_clust_5="550.00000" pt_clust_6="31.45369"></scales>
<mgrwt>
<rscale>  0 0.30000000E+03</rscale>
<asrwt>  1 0.31453686E+02</asrwt>
<pdfrwt beam="1">  1        1 0.80917414E+00 0.30000000E+03</pdfrwt>
<pdfrwt beam="2">0</pdfrwt>
<totfact> 0.90318740E-04</totfact>
</mgrwt>
<clustering>
<clus scale="   31.454">  1  6  2 -1</clus>
<clus scale="  461.016">  4  5 -1 -1</clus>
<clus scale="  300.000">  1  4  2 -1</clus>
</clustering>
</event>
<event>
 6    1  0.1000035E-011  0.3000000E+03  0.7818608E-02  0.1093470E+00
          1   -1    0    0  502    0  0.00000000000E+00  0.00000000000E+00  0.24424778659E+03  0.24424778659E+03  0.00000000000E+00 0.  1.
         13   -1    0    0    0    0 -0.00000000000E+00 -0.00000000000E+00 -0.27500000000E+03  0.27500000000E+03  0.00000000000E+00 0.  1.
    9000005    2    1    2  501    0 -0.18896330110E+02  0.29607435781E+02 -0.61734646434E+02  0.47241208759E+03  0.46704212057E+03 0.  0.
         13    1    3    3    0    0 -0.13428361793E+03 -0.20893960965E+02  0.16456276528E+03  0.21342340866E+03  0.00000000000E+00 0.  1.
          1    1    3    3  501    0  0.11538728782E+03  0.50501396746E+02 -0.22629741171E+03  0.25898867892E+03  0.00000000000E+00 0.  1.
         21    1    1    2  502  501  0.18896330110E+02 -0.29607435781E+02  0.30982433026E+02  0.46835699006E+02  0.00000000000E+00 0. -1.
<scales pt_clust_4="550.00000" pt_clust_5="550.00000" pt_clust_6="35.12366"></scales>
<mgrwt>
<rscale>  0 0.30000000E+03</rscale>
<asrwt>  1 0.35123661E+02</asrwt>
<pdfrwt beam="1">  1        1 0.88817377E+00 0.30000000E+03</pdfrwt>
<pdfrwt beam="2">0</pdfrwt>
<totfact> 0.15334885E-04</totfact>
</mgrwt>
<clustering>
<clus scale="   35.124">  1  6  2 -1</clus>
<clus scale="  467.042">  4  5 -1 -1</clus>
<clus scale="  300.000">  1  4  2 -1</clus>
</clustering>
</event>
<event>
 6    1  0.1000035E-011  0.3000000E+03  0.7818608E-02  0.1093470E+00
          1   -1    0    0  502    0  0.00000000000E+00  0.00000000000E+00  0.24541623766E+03  0.24541623766E+03  0.00000000000E+00 0.  1.
         13   -1    0    0    0    0 -0.00000000000E+00 -0.00000000000E+00 -0.27500000000E+03  0.27500000000E+03  0.00000000000E+00 0.  1.
    9000005    2    1    2  501    0 -0.10500552809E+02  0.31252458976E+02 -0.16081643054E+02  0.48478921103E+03  0.48339940224E+03 0.  0.
         13    1    3    3    0    0  0.11093063891E+03 -0.16084969527E+03  0.11068133620E+03  0.22456310761E+03  0.00000000000E+00 0.  1.
          1    1    3    3  501    0 -0.12143119172E+03  0.19210215425E+03 -0.12676297926E+03  0.26022610342E+03  0.00000000000E+00 0.  1.
         21    1    1    2  502  501  0.10500552809E+02 -0.31252458976E+02 -0.13502119285E+02  0.35627026631E+02  0.00000000000E+00 0.  1.
<scales pt_clust_4="550.00000" pt_clust_5="550.00000" pt_clust_6="32.96936"></scales>
<mgrwt>
<rscale>  0 0.30000000E+03</rscale>
<asrwt>  1 0.32969363E+02</asrwt>
<pdfrwt beam="1">  1        1 0.89242268E+00 0.30000000E+03</pdfrwt>
<pdfrwt beam="2">0</pdfrwt>
<totfact> 0.13657365E-04</totfact>
</mgrwt>
<clustering>
<clus scale="   32.969">  1  6  2 -1</clus>
<clus scale="  483.399">  4  5 -1 -1</clus>
<clus scale="  300.000">  1  4  2 -1</clus>
</clustering>
</event>
<event>
 6    1  0.1000035E-011  0.3000000E+03  0.7818608E-02  0.1093470E+00
          1   -1    0    0  502    0  0.00000000000E+00  0.00000000000E+00  0.23501036374E+03  0.23501036374E+03  0.00000000000E+00 0.  1.
         13   -1    0    0    0    0 -0.00000000000E+00 -0.00000000000E+00 -0.27500000000E+03  0.27500000000E+03  0.00000000000E+00 0.  1.
    9000005    2    1    2  501    0  0.29650929864E+02 -0.26871500130E+02 -0.39679291939E+02  0.46999347388E+03  0.46660279052E+03 0.  0.
         13    1    3    3    0    0  0.15717084883E+01  0.20825062348E+03 -0.91703686192E+02  0.22755297957E+03  0.00000000000E+00 0.  1.
          3    1    3    3  501    0  0.28079221376E+02 -0.23512212361E+03  0.52024394253E+02  0.24244049431E+03  0.00000000000E+00 0.  1.
         21    1    1    2  502  501 -0.29650929864E+02  0.26871500130E+02 -0.31034431642E+00  0.40016889867E+02  0.00000000000E+00 0.  1.
<scales pt_clust_4="550.00000" pt_clust_5="550.00000" pt_clust_6="40.01569"></scales>
<mgrwt>
<rscale>  0 0.30000000E+03</rscale>
<asrwt>  1 0.40015686E+02</asrwt>
<pdfrwt beam="1">  1        1 0.85458314E+00 0.30000000E+03</pdfrwt>
<pdfrwt beam="2">0</pdfrwt>
<totfact> 0.35881715E-04</totfact>
</mgrwt>
<clustering>
<clus scale="   40.016">  1  6  2 -1</clus>
<clus scale="  466.603">  4  5 -1 -1</clus>
<clus scale="  300.000">  1  4  2 -1</clus>
</clustering>
</event>
<event>
 6    1  0.1000035E-011  0.3000000E+03  0.7818608E-02  0.1093470E+00
          1   -1    0    0  502    0  0.00000000000E+00  0.00000000000E+00  0.24316130706E+03  0.24316130706E+03  0.00000000000E+00 0.  1.
         13   -1    0    0    0    0 -0.00000000000E+00 -0.00000000000E+00 -0.27500000000E+03  0.27500000000E+03  0.00000000000E+00 0.  1.
    9000005    2    1    2  501    0 -0.41971804678E+02  0.95513116980E+01 -0.42509999587E+02  0.47381340149E+03  0.46993529280E+03 0.  0.
         13    1    3    3    0    0  0.19710885298E+02 -0.22000747137E+03  0.35319480072E+02  0.22369459566E+03  0.00000000000E+00 0.  1.
          3    1    3    3  501    0 -0.61682689976E+02  0.22955878306E+03 -0.77829479659E+02  0.25011880583E+03  0.00000000000E+00 0.  1.
         21    1    1    2  502  501  0.41971804678E+02 -0.95513116980E+01  0.10671306649E+02  0.44347905573E+02  0.00000000000E+00 0.  1.
<scales pt_clust_4="550.00000" pt_clust_5="550.00000" pt_clust_6="43.04486"></scales>
<mgrwt>
<rscale>  0 0.30000000E+03</rscale>
<asrwt>  1 0.43044860E+02</asrwt>
<pdfrwt beam="1">  1        1 0.88422293E+00 0.30000000E+03</pdfrwt>
<pdfrwt beam="2">0</pdfrwt>
<totfact> 0.16742243E-04</totfact>
</mgrwt>
<clustering>
<clus scale="   43.045">  1  6  2 -1</clus>
<clus scale="  469.935">  4  5 -1 -1</clus>
<clus scale="  300.000">  1  4  2 -1</clus>
</clustering>
</event>
<event>
 6    1  0.1000035E-011  0.3000000E+03  0.7818608E-02  0.1093470E+00
          1   -1    0    0  502    0  0.00000000000E+00  0.00000000000E+00  0.22879464674E+03  0.22879464674E+03  0.00000000000E+00 0.  1.
         13   -1    0    0    0    0 -0.00000000000E+00 -0.00000000000E+00 -0.27500000000E+03  0.27500000000E+03  0.00000000000E+00 0.  1.
    9000005    2    1    2  501    0  0.27998411565E+02 -0.14261410250E+02 -0.52541893952E+02  0.47174077614E+03  0.46775144081E+03 0.  0.
         13    1    3    3    0    0  0.24808439670E+03  0.14765822383E+01 -0.31844172356E+02  0.25012416815E+03  0.00000000000E+00 0.  1.
          1    1    3    3  501    0 -0.22008598513E+03 -0.15737992488E+02 -0.20697721595E+02  0.22161660799E+03  0.00000000000E+00 0.  1.
         21    1    1    2  502  501 -0.27998411565E+02  0.14261410250E+02  0.63365406959E+01  0.32053870600E+02  0.00000000000E+00 0.  1.
<scales pt_clust_4="550.00000" pt_clust_5="550.00000" pt_clust_6="31.42131"></scales>
<mgrwt>
<rscale>  0 0.30000000E+03</rscale>
<asrwt>  1 0.31421312E+02</asrwt>
<pdfrwt beam="1">  1        1 0.83198053E+00 0.30000000E+03</pdfrwt>
<pdfrwt beam="2">0</pdfrwt>
<totfact> 0.58161444E-04</totfact>
</mgrwt>
<clustering>
<clus scale="   31.421">  1  6  2 -1</clus>
<clus scale="  467.751">  4  5 -1 -1</clus>
<clus scale="  300.000">  1  4  2 -1</clus>
</clustering>
</event>
<event>
 6    1  0.1000035E-011  0.3000000E+03  0.7818608E-02  0.1093470E+00
          1   -1    0    0  502    0  0.00000000000E+00  0.00000000000E+00  0.22855292332E+03  0.22855292332E+03  0.00000000000E+00 0.  1.
         13   -1    0    0    0    0 -0.00000000000E+00 -0.00000000000E+00 -0.27500000000E+03  0.27500000000E+03  0.00000000000E+00 0.  1.
    9000005    2    1    2  501    0 -0.16738833730E+02 -0.29279902491E+02 -0.56207756302E+02  0.46844206872E+03  0.46383311506E+03 0.  0.
         13    1    3    3    0    0  0.11747420195E+02 -0.23718319088E+03  0.34247624972E+02  0.23993075612E+03  0.00000000000E+00 0.  1.
          3    1    3    3  501    0 -0.28486253925E+02  0.20790328838E+03 -0.90455381274E+02  0.22851131260E+03  0.00000000000E+00 0.  1.
         21    1    1    2  502  501  0.16738833730E+02  0.29279902491E+02  0.97606796245E+01  0.35110854607E+02  0.00000000000E+00 0.  1.
<scales pt_clust_4="550.00000" pt_clust_5="550.00000" pt_clust_6="33.72686"></scales>
<mgrwt>
<rscale>  0 0.30000000E+03</rscale>
<asrwt>  1 0.33726862E+02</asrwt>
<pdfrwt beam="1">  1        1 0.83110154E+00 0.30000000E+03</pdfrwt>
<pdfrwt beam="2">0</pdfrwt>
<totfact> 0.58303968E-04</totfact>
</mgrwt>
<clustering>
<clus scale="   33.727">  1  6  2 -1</clus>
<clus scale="  463.833">  4  5 -1 -1</clus>
<clus scale="  300.000">  1  4  2 -1</clus>
</clustering>
</event>
<event>
 6    1  0.1000035E-011  0.3000000E+03  0.7818608E-02  0.1093470E+00
          1   -1    0    0  502    0  0.00000000000E+00  0.00000000000E+00  0.25301333249E+03  0.25301333249E+03  0.00000000000E+00 0.  1.
         13   -1    0    0    0    0 -0.00000000000E+00 -0.00000000000E+00 -0.27500000000E+03  0.27500000000E+03  0.00000000000E+00 0.  1.
    9000005    2    1    2  501    0  0.44913665637E+02  0.31922098840E+02 -0.72049982992E+01  0.47096286798E+03  0.46767280578E+03 0.  0.
         13    1    3    3    0    0  0.95817180874E+01 -0.21496857176E+03 -0.41692109519E+02  0.21918377714E+03  0.00000000000E+00 0.  1.
          1    1    3    3  501    0  0.35331947549E+02  0.24689067060E+03  0.34487111219E+02  0.25177909084E+03  0.00000000000E+00 0.  1.
         21    1    1    2  502  501 -0.44913665637E+02 -0.31922098840E+02 -0.14781669214E+02  0.57050464503E+02  0.00000000000E+00 0.  1.
<scales pt_clust_4="550.00000" pt_clust_5="550.00000" pt_clust_6="55.10228"></scales>
<mgrwt>
<rscale>  0 0.30000000E+03</rscale>
<asrwt>  1 0.55102276E+02</asrwt>
<pdfrwt beam="1">  1        1 0.92004848E+00 0.30000000E+03</pdfrwt>
<pdfrwt beam="2">0</pdfrwt>
<totfact> 0.38436289E-05</totfact>
</mgrwt>
<clustering>
<clus scale="   55.102">  1  6  2 -1</clus>
<clus scale="  467.673">  4  5 -1 -1</clus>
<clus scale="  300.000">  1  4  2 -1</clus>
</clustering>
</event>
<event>
 6    1  0.1000035E-011  0.3000000E+03  0.7818608E-02  0.1093470E+00
          1   -1    0    0  502    0  0.00000000000E+00  0.00000000000E+00  0.24987067531E+03  0.24987067531E+03  0.00000000000E+00 0.  1.
         13   -1    0    0    0    0 -0.00000000000E+00 -0.00000000000E+00 -0.27500000000E+03  0.27500000000E+03  0.00000000000E+00 0.  1.
    9000005    2    1    2  501    0 -0.35180024902E+02 -0.33806730125E+02 -0.57623606459E+02  0.46624979591E+03  0.46009549336E+03 0.  0.
         13    1    3    3    0    0  0.82500224039E+02  0.16821263320E+03 -0.12221902114E+03  0.22369458210E+03  0.00000000000E+00 0.  1.
          1    1    3    3  501    0 -0.11768024894E+03 -0.20201936332E+03  0.64595414685E+02  0.24255521381E+03  0.00000000000E+00 0.  1.
         21    1    1    2  502  501  0.35180024902E+02  0.33806730125E+02  0.32494281774E+02  0.58620879402E+02  0.00000000000E+00 0. -1.
<scales pt_clust_4="550.00000" pt_clust_5="550.00000" pt_clust_6="48.79067"></scales>
<mgrwt>
<rscale>  0 0.30000000E+03</rscale>
<asrwt>  1 0.48790667E+02</asrwt>
<pdfrwt beam="1">  1        1 0.90862064E+00 0.30000000E+03</pdfrwt>
<pdfrwt beam="2">0</pdfrwt>
<totfact> 0.72963952E-05</totfact>
</mgrwt>
<clustering>
<clus scale="   48.791">  1  6  2 -1</clus>
<clus scale="  460.095">  4  5 -1 -1</clus>
<clus scale="  300.000">  1  4  2 -1</clus>
</clustering>
</event>
<event>
 6    1  0.1000035E-011  0.3000000E+03  0.7818608E-02  0.1093470E+00
          1   -1    0    0  502    0  0.00000000000E+00  0.00000000000E+00  0.23177483176E+03  0.23177483176E+03  0.00000000000E+00 0.  1.
         13   -1    0    0    0    0 -0.00000000000E+00 -0.00000000000E+00 -0.27500000000E+03  0.27500000000E+03  0.00000000000E+00 0.  1.
    9000005    2    1    2  501    0 -0.48510270114E+01  0.33506069146E+02 -0.58307490849E+02  0.46971183690E+03  0.46484756330E+03 0.  0.
         13    1    3    3    0    0 -0.20099732550E+03  0.29193884539E+02  0.91596001634E+02  0.22280492649E+03  0.00000000000E+00 0.  1.
          1    1    3    3  501    0  0.19614629849E+03  0.43121846063E+01 -0.14990349248E+03  0.24690691041E+03  0.00000000000E+00 0.  1.
         21    1    1    2  502  501  0.48510270114E+01 -0.33506069146E+02  0.15082322610E+02  0.37062994860E+02  0.00000000000E+00 0.  1.
<scales pt_clust_4="550.00000" pt_clust_5="550.00000" pt_clust_6="33.85542"></scales>
<mgrwt>
<rscale>  0 0.30000000E+03</rscale>
<asrwt>  1 0.33855415E+02</asrwt>
<pdfrwt beam="1">  1        1 0.84281757E+00 0.30000000E+03</pdfrwt>
<pdfrwt beam="2">0</pdfrwt>
<totfact> 0.47466076E-04</totfact>
</mgrwt>
<clustering>
<clus scale="   33.855">  1  6  2 -1</clus>
<clus scale="  464.848">  4  5 -1 -1</clus>
<clus scale="  300.000">  1  4  2 -1</clus>
</clustering>
</event>
<event>
 6    1  0.1000035E-011  0.3000000E+03  0.7818608E-02  0.1093470E+00
          1   -1    0    0  502    0  0.00000000000E+00  0.00000000000E+00  0.25309217413E+03  0.25309217413E+03  0.00000000000E+00 0.  1.
         13   -1    0    0    0    0 -0.00000000000E+00 -0.00000000000E+00 -0.27500000000E+03  0.27500000000E+03  0.00000000000E+00 0.  1.
    9000005    2    1    2  501    0 -0.22886560633E+02 -0.21179415570E+02 -0.23494328051E+02  0.49686911709E+03  0.49533279093E+03 0.  0.
         13    1    3    3    0    0  0.99122976616E+02  0.90109974968E+02 -0.20916378620E+03  0.24838410081E+03  0.00000000000E+00 0.  1.
          1    1    3    3  501    0 -0.12200953725E+03 -0.11128939054E+03  0.18566945814E+03  0.24848501628E+03  0.00000000000E+00 0.  1.
         21    1    1    2  502  501  0.22886560633E+02  0.21179415570E+02  0.15865021772E+01  0.31223057036E+02  0.00000000000E+00 0.  1.
<scales pt_clust_4="550.00000" pt_clust_5="550.00000" pt_clust_6="31.18272"></scales>
<mgrwt>
<rscale>  0 0.30000000E+03</rscale>
<asrwt>  1 0.31182724E+02</asrwt>
<pdfrwt beam="1">  1        1 0.92033518E+00 0.30000000E+03</pdfrwt>
<pdfrwt beam="2">0</pdfrwt>
<totfact> 0.42014704E-05</totfact>
</mgrwt>
<clustering>
<clus scale="   31.183">  1  6  2 -1</clus>
<clus scale="  495.333">  4  5 -1 -1</clus>
<clus scale="  300.000">  1  4  2 -1</clus>
</clustering>
</event>
<event>
 6    1  0.1000035E-011  0.3000000E+03  0.7818608E-02  0.1093470E+00
          1   -1    0    0  502    0  0.00000000000E+00  0.00000000000E+00  0.26798720881E+03  0.26798720881E+03  0.00000000000E+00 0.  1.
         13   -1    0    0    0    0 -0.00000000000E+00 -0.00000000000E+00 -0.27500000000E+03  0.27500000000E+03  0.00000000000E+00 0.  1.
    9000005    2    1    2  501    0 -0.38793856099E+01  0.32565964852E+02 -0.98331498527E+01  0.51006994704E+03  0.50891951067E+03 0.  0.
         13    1    3    3    0    0 -0.13654535722E+03 -0.17797850241E+03  0.90310471909E+02  0.24182010511E+03  0.00000000000E+00 0.  1.
          1    1    3    3  501    0  0.13266597161E+03  0.21054446726E+03 -0.10014362176E+03  0.26824984193E+03  0.00000000000E+00 0.  1.
         21    1    1    2  502  501  0.38793856099E+01 -0.32565964852E+02  0.28203586638E+01  0.32917261770E+02  0.00000000000E+00 0.  1.
<scales pt_clust_4="550.00000" pt_clust_5="550.00000" pt_clust_6="32.79621"></scales>
<mgrwt>
<rscale>  0 0.30000000E+03</rscale>
<asrwt>  1 0.32796215E+02</asrwt>
<pdfrwt beam="1">  1        1 0.97449894E+00 0.30000000E+03</pdfrwt>
<pdfrwt beam="2">0</pdfrwt>
<totfact> 0.42323746E-06</totfact>
</mgrwt>
<clustering>
<clus scale="   32.796">  1  6  2 -1</clus>
<clus scale="  508.920">  4  5 -1 -1</clus>
<clus scale="  300.000">  1  4  2 -1</clus>
</clustering>
</event>
<event>
 6    1  0.1000035E-011  0.3000000E+03  0.7818608E-02  0.1093470E+00
          1   -1    0    0  502    0  0.00000000000E+00  0.00000000000E+00  0.23179680845E+03  0.23179680845E+03  0.00000000000E+00 0.  1.
         13   -1    0    0    0    0 -0.00000000000E+00 -0.00000000000E+00 -0.27500000000E+03  0.27500000000E+03  0.00000000000E+00 0.  1.
    9000005    2    1    2  501    0  0.23987627774E+02 -0.25575789898E+02 -0.56130538489E+02  0.46942511309E+03  0.46473623932E+03 0.  0.
         13    1    3    3    0    0 -0.12521502477E+03 -0.17489815148E+03  0.66694310767E+02  0.22520279063E+03  0.00000000000E+00 0.  1.
          3    1    3    3  501    0  0.14920265255E+03  0.14932236158E+03 -0.12282484926E+03  0.24422232246E+03  0.00000000000E+00 0.  1.
         21    1    1    2  502  501 -0.23987627774E+02  0.25575789898E+02  0.12927346938E+02  0.37371695359E+02  0.00000000000E+00 0. -1.
<scales pt_clust_4="550.00000" pt_clust_5="550.00000" pt_clust_6="35.06462"></scales>
<mgrwt>
<rscale>  0 0.30000000E+03</rscale>
<asrwt>  1 0.35064616E+02</asrwt>
<pdfrwt beam="1">  1        1 0.84289749E+00 0.30000000E+03</pdfrwt>
<pdfrwt beam="2">0</pdfrwt>
<totfact> 0.47081809E-04</totfact>
</mgrwt>
<clustering>
<clus scale="   35.065">  1  6  2 -1</clus>
<clus scale="  464.736">  4  5 -1 -1</clus>
<clus scale="  300.000">  1  4  2 -1</clus>
</clustering>
</event>
<event>
 6    1  0.1000035E-011  0.3000000E+03  0.7818608E-02  0.1093470E+00
          1   -1    0    0  502    0  0.00000000000E+00  0.00000000000E+00  0.25150762298E+03  0.25150762298E+03  0.00000000000E+00 0.  1.
         13   -1    0    0    0    0 -0.00000000000E+00 -0.00000000000E+00 -0.27500000000E+03  0.27500000000E+03  0.00000000000E+00 0.  1.
    9000005    2    1    2  501    0  0.29938970008E+02  0.57614381373E+01 -0.53895622426E+02  0.48345076028E+03  0.47946883465E+03 0.  0.
         13    1    3    3    0    0  0.11644080285E+02 -0.17421868073E+03  0.13589061047E+03  0.22125548882E+03  0.00000000000E+00 0.  1.
          1    1    3    3  501    0  0.18294889723E+02  0.17998011886E+03 -0.18978623290E+03  0.26219527146E+03  0.00000000000E+00 0.  1.
         21    1    1    2  502  501 -0.29938970008E+02 -0.57614381373E+01  0.30403245404E+02  0.43056862701E+02  0.00000000000E+00 0.  1.
<scales pt_clust_4="550.00000" pt_clust_5="550.00000" pt_clust_6="30.48829"></scales>
<mgrwt>
<rscale>  0 0.30000000E+03</rscale>
<asrwt>  1 0.30488294E+02</asrwt>
<pdfrwt beam="1">  1        1 0.91457317E+00 0.30000000E+03</pdfrwt>
<pdfrwt beam="2">0</pdfrwt>
<totfact> 0.56873826E-05</totfact>
</mgrwt>
<clustering>
<clus scale="   30.488">  1  6  2 -1</clus>
<clus scale="  479.469">  4  5 -1 -1</clus>
<clus scale="  300.000">  1  4  2 -1</clus>
</clustering>
</event>
<event>
 6    1  0.1000035E-011  0.3000000E+03  0.7818608E-02  0.1093470E+00
          1   -1    0    0  502    0  0.00000000000E+00  0.00000000000E+00  0.24917896387E+03  0.24917896387E+03  0.00000000000E+00 0.  1.
         13   -1    0    0    0    0 -0.00000000000E+00 -0.00000000000E+00 -0.27500000000E+03  0.27500000000E+03  0.00000000000E+00 0.  1.
    9000005    2    1    2  501    0  0.48183537900E+02 -0.30540260050E+02 -0.22554236819E+02  0.46703849847E+03  0.46299233757E+03 0.  0.
         13    1    3    3    0    0  0.20662527084E+03 -0.86390526575E+02  0.11329799444E+03  0.25098557962E+03  0.00000000000E+00 0.  1.
          3    1    3    3  501    0 -0.15844173294E+03  0.55850266526E+02 -0.13585223126E+03  0.21605291885E+03  0.00000000000E+00 0.  1.
         21    1    1    2  502  501 -0.48183537900E+02  0.30540260050E+02 -0.32667993103E+01  0.57140465401E+02  0.00000000000E+00 0. -1.
<scales pt_clust_4="550.00000" pt_clust_5="550.00000" pt_clust_6="57.04703"></scales>
<mgrwt>
<rscale>  0 0.30000000E+03</rscale>
<asrwt>  1 0.57047034E+02</asrwt>
<pdfrwt beam="1">  1        1 0.90610532E+00 0.30000000E+03</pdfrwt>
<pdfrwt beam="2">0</pdfrwt>
<totfact> 0.80590933E-05</totfact>
</mgrwt>
<clustering>
<clus scale="   57.047">  1  6  2 -1</clus>
<clus scale="  462.992">  4  5 -1 -1</clus>
<clus scale="  300.000">  1  4  2 -1</clus>
</clustering>
</event>
<event>
 6    1  0.1000035E-011  0.3000000E+03  0.7818608E-02  0.1093470E+00
          1   -1    0    0  502    0  0.00000000000E+00  0.00000000000E+00  0.24152132207E+03  0.24152132207E+03  0.00000000000E+00 0.  1.
         13   -1    0    0    0    0 -0.00000000000E+00 -0.00000000000E+00 -0.27500000000E+03  0.27500000000E+03  0.00000000000E+00 0.  1.
    9000005    2    1    2  501    0  0.11207974310E+02  0.29358362888E+02 -0.46059548266E+02  0.48267149994E+03  0.47944005122E+03 0.  0.
         13    1    3    3    0    0  0.17989876859E+03  0.17536087064E+03 -0.62761385859E+02  0.25894785854E+03  0.00000000000E+00 0.  1.
          3    1    3    3  501    0 -0.16869079428E+03 -0.14600250775E+03  0.16701837593E+02  0.22372364140E+03  0.00000000000E+00 0.  1.
         21    1    1    2  502  501 -0.11207974310E+02 -0.29358362888E+02  0.12580870336E+02  0.33849822126E+02  0.00000000000E+00 0. -1.
<scales pt_clust_4="550.00000" pt_clust_5="550.00000" pt_clust_6="31.42502"></scales>
<mgrwt>
<rscale>  0 0.30000000E+03</rscale>
<asrwt>  1 0.31425024E+02</asrwt>
<pdfrwt beam="1">  1        1 0.87825935E+00 0.30000000E+03</pdfrwt>
<pdfrwt beam="2">0</pdfrwt>
<totfact> 0.21132833E-04</totfact>
</mgrwt>
<clustering>
<clus scale="   31.425">  1  6  2 -1</clus>
<clus scale="  479.440">  4  5 -1 -1</clus>
<clus scale="  300.000">  1  4  2 -1</clus>
</clustering>
</event>
<event>
 6    1  0.1000035E-011  0.3000000E+03  0.7818608E-02  0.1093470E+00
          1   -1    0    0  502    0  0.00000000000E+00  0.00000000000E+00  0.22608291445E+03  0.22608291445E+03  0.00000000000E+00 0.  1.
         13   -1    0    0    0    0 -0.00000000000E+00 -0.00000000000E+00 -0.27500000000E+03  0.27500000000E+03  0.00000000000E+00 0.  1.
    9000005    2    1    2  501    0 -0.33737542049E+02 -0.14405057737E+02 -0.56550229099E+02  0.46361302904E+03  0.45868658674E+03 0.  0.
         13    1    3    3    0    0  0.16352703735E+03  0.44711060828E+02 -0.16004177120E+03  0.23313845551E+03  0.00000000000E+00 0.  1.
          3    1    3    3  501    0 -0.19726457940E+03 -0.59116118564E+02  0.10349154210E+03  0.23047457354E+03  0.00000000000E+00 0.  1.
         21    1    1    2  502  501  0.33737542049E+02  0.14405057737E+02  0.76331435482E+01  0.37469885406E+02  0.00000000000E+00 0.  1.
<scales pt_clust_4="550.00000" pt_clust_5="550.00000" pt_clust_6="36.68416"></scales>
<mgrwt>
<rscale>  0 0.30000000E+03</rscale>
<asrwt>  1 0.36684158E+02</asrwt>
<pdfrwt beam="1">  1        1 0.82211969E+00 0.30000000E+03</pdfrwt>
<pdfrwt beam="2">0</pdfrwt>
<totfact> 0.68693530E-04</totfact>
</mgrwt>
<clustering>
<clus scale="   36.684">  1  6  2 -1</clus>
<clus scale="  458.687">  4  5 -1 -1</clus>
<clus scale="  300.000">  1  4  2 -1</clus>
</clustering>
</event>
<event>
 6    1  0.1000035E-011  0.3000000E+03  0.7818608E-02  0.1093470E+00
          1   -1    0    0  502    0  0.00000000000E+00  0.00000000000E+00  0.23461855508E+03  0.23461855508E+03  0.00000000000E+00 0.  1.
         13   -1    0    0    0    0 -0.00000000000E+00 -0.00000000000E+00 -0.27500000000E+03  0.27500000000E+03  0.00000000000E+00 0.  1.
    9000005    2    1    2  501    0  0.30355154420E+02  0.38649321376E+01 -0.51730844929E+02  0.47698142927E+03  0.47317949074E+03 0.  0.
         13    1    3    3    0    0 -0.16320991329E+03  0.64062012392E+02  0.11904225084E+03  0.21192563487E+03  0.00000000000E+00 0.  1.
          1    1    3    3  501    0  0.19356506771E+03 -0.60197080254E+02 -0.17077309577E+03  0.26505579441E+03  0.00000000000E+00 0.  1.
         21    1    1    2  502  501 -0.30355154420E+02 -0.38649321376E+01  0.11349400005E+02  0.32637125805E+02  0.00000000000E+00 0.  1.
<scales pt_clust_4="550.00000" pt_clust_5="550.00000" pt_clust_6="30.60021"></scales>
<mgrwt>
<rscale>  0 0.30000000E+03</rscale>
<asrwt>  1 0.30600214E+02</asrwt>
<pdfrwt beam="1">  1        1 0.85315838E+00 0.30000000E+03</pdfrwt>
<pdfrwt beam="2">0</pdfrwt>
<totfact> 0.38951382E-04</totfact>
</mgrwt>
<clustering>
<clus scale="   30.600">  1  6  2 -1</clus>
<clus scale="  473.179">  4  5 -1 -1</clus>
<clus scale="  300.000">  1  4  2 -1</clus>
</clustering>
</event>
<event>
 6    1  0.1000035E-011  0.3000000E+03  0.7818608E-02  0.1093470E+00
          1   -1    0    0  502    0  0.00000000000E+00  0.00000000000E+00  0.23780562864E+03  0.23780562864E+03  0.00000000000E+00 0.  1.
         13   -1    0    0    0    0 -0.00000000000E+00 -0.00000000000E+00 -0.27500000000E+03  0.27500000000E+03  0.00000000000E+00 0.  1.
    9000005    2    1    2  501    0  0.18543137442E+02 -0.25946637115E+02 -0.64675611908E+02  0.47070700033E+03  0.46515058794E+03 0.  0.
         13    1    3    3    0    0  0.11292711955E+02  0.17607745956E+03  0.10626409790E+03  0.20596809367E+03  0.00000000000E+00 0.  1.
          1    1    3    3  501    0  0.72504254870E+01 -0.20202409668E+03 -0.17093970980E+03  0.26473890665E+03  0.00000000000E+00 0.  1.
         21    1    1    2  502  501 -0.18543137442E+02  0.25946637115E+02  0.27481240547E+02  0.42098628312E+02  0.00000000000E+00 0.  1.
<scales pt_clust_4="550.00000" pt_clust_5="550.00000" pt_clust_6="31.89163"></scales>
<mgrwt>
<rscale>  0 0.30000000E+03</rscale>
<asrwt>  1 0.31891628E+02</asrwt>
<pdfrwt beam="1">  1        1 0.86474774E+00 0.30000000E+03</pdfrwt>
<pdfrwt beam="2">0</pdfrwt>
<totfact> 0.29258283E-04</totfact>
</mgrwt>
<clustering>
<clus scale="   31.892">  1  6  2 -1</clus>
<clus scale="  465.151">  4  5 -1 -1</clus>
<clus scale="  300.000">  1  4  2 -1</clus>
</clustering>
</event>
<event>
 6    1  0.1000035E-011  0.3000000E+03  0.7818608E-02  0.1093470E+00
          1   -1    0    0  502    0  0.00000000000E+00  0.00000000000E+00  0.22064691707E+03  0.22064691707E+03  0.00000000000E+00 0.  1.
         13   -1    0    0    0    0 -0.00000000000E+00 -0.00000000000E+00 -0.27500000000E+03  0.27500000000E+03  0.00000000000E+00 0.  1.
    9000005    2    1    2  501    0 -0.29641320771E+02 -0.12652792829E+02 -0.59656772657E+02  0.46298455053E+03  0.45799242618E+03 0.  0.
         13    1    3    3    0    0 -0.19156471441E+03 -0.30229789516E+02 -0.17674399978E+03  0.26239154224E+03  0.00000000000E+00 0.  1.
          1    1    3    3  501    0  0.16192339364E+03  0.17576996687E+02  0.11708722713E+03  0.20059300829E+03  0.00000000000E+00 0.  1.
         21    1    1    2  502  501  0.29641320771E+02  0.12652792829E+02  0.53036897291E+01  0.32662366542E+02  0.00000000000E+00 0.  1.
<scales pt_clust_4="550.00000" pt_clust_5="550.00000" pt_clust_6="32.22889"></scales>
<mgrwt>
<rscale>  0 0.30000000E+03</rscale>
<asrwt>  1 0.32228886E+02</asrwt>
<pdfrwt beam="1">  1        1 0.80235243E+00 0.30000000E+03</pdfrwt>
<pdfrwt beam="2">0</pdfrwt>
<totfact> 0.10126667E-03</totfact>
</mgrwt>
<clustering>
<clus scale="   32.229">  1  6  2 -1</clus>
<clus scale="  457.992">  4  5 -1 -1</clus>
<clus scale="  300.000">  1  4  2 -1</clus>
</clustering>
</event>
<event>
 6    1  0.1000035E-011  0.3000000E+03  0.7818608E-02  0.1093470E+00
          1   -1    0    0  502    0  0.00000000000E+00  0.00000000000E+00  0.22585264269E+03  0.22585264269E+03  0.00000000000E+00 0.  1.
         13   -1    0    0    0    0 -0.00000000000E+00 -0.00000000000E+00 -0.27500000000E+03  0.27500000000E+03  0.00000000000E+00 0.  1.
    9000005    2    1    2  501    0  0.21606218767E+02  0.26590464599E+02 -0.52092208376E+02  0.46646436497E+03  0.46227862174E+03 0.  0.
         13    1    3    3    0    0  0.15719269221E+03 -0.63166293898E+02  0.13642320851E+03  0.21751049398E+03  0.00000000000E+00 0.  1.
          3    1    3    3  501    0 -0.13558647344E+03  0.89756758497E+02 -0.18851541689E+03  0.24895387099E+03  0.00000000000E+00 0.  1.
         21    1    1    2  502  501 -0.21606218767E+02 -0.26590464599E+02  0.29448510697E+01  0.34388277724E+02  0.00000000000E+00 0. -1.
<scales pt_clust_4="550.00000" pt_clust_5="550.00000" pt_clust_6="34.26195"></scales>
<mgrwt>
<rscale>  0 0.30000000E+03</rscale>
<asrwt>  1 0.34261954E+02</asrwt>
<pdfrwt beam="1">  1        1 0.82128234E+00 0.30000000E+03</pdfrwt>
<pdfrwt beam="2">0</pdfrwt>
<totfact> 0.70770049E-04</totfact>
</mgrwt>
<clustering>
<clus scale="   34.262">  1  6  2 -1</clus>
<clus scale="  462.279">  4  5 -1 -1</clus>
<clus scale="  300.000">  1  4  2 -1</clus>
</clustering>
</event>
<event>
 6    1  0.1000035E-011  0.3000000E+03  0.7818608E-02  0.1093470E+00
          1   -1    0    0  502    0  0.00000000000E+00  0.00000000000E+00  0.22852141651E+03  0.22852141651E+03  0.00000000000E+00 0.  1.
         13   -1    0    0    0    0 -0.00000000000E+00 -0.00000000000E+00 -0.27500000000E+03  0.27500000000E+03  0.00000000000E+00 0.  1.
    9000005    2    1    2  501    0 -0.30749896524E+02 -0.14800132929E+02 -0.65960129283E+02  0.46422598806E+03  0.45824712685E+03 0.  0.
         13    1    3    3    0    0  0.36541045243E+02  0.21579573596E+03 -0.41535133549E+02  0.22277390998E+03  0.00000000000E+00 0.  1.
          1    1    3    3  501    0 -0.67290941767E+02 -0.23059586889E+03 -0.24424995734E+02  0.24145207808E+03  0.00000000000E+00 0.  1.
         21    1    1    2  502  501  0.30749896524E+02  0.14800132929E+02  0.19481545798E+02  0.39295428457E+02  0.00000000000E+00 0. -1.
<scales pt_clust_4="550.00000" pt_clust_5="550.00000" pt_clust_6="34.12624"></scales>
<mgrwt>
<rscale>  0 0.30000000E+03</rscale>
<asrwt>  1 0.34126237E+02</asrwt>
<pdfrwt beam="1">  1        1 0.83098697E+00 0.30000000E+03</pdfrwt>
<pdfrwt beam="2">0</pdfrwt>
<totfact> 0.58297343E-04</totfact>
</mgrwt>
<clustering>
<clus scale="   34.126">  1  6  2 -1</clus>
<clus scale="  458.247">  4  5 -1 -1</clus>
<clus scale="  300.000">  1  4  2 -1</clus>
</clustering>
</event>
<event>
 6    1  0.1000035E-011  0.3000000E+03  0.7818608E-02  0.1093470E+00
          1   -1    0    0  502    0  0.00000000000E+00  0.00000000000E+00  0.24116266153E+03  0.24116266153E+03  0.00000000000E+00 0.  1.
         13   -1    0    0    0    0 -0.00000000000E+00 -0.00000000000E+00 -0.27500000000E+03  0.27500000000E+03  0.00000000000E+00 0.  1.
    9000005    2    1    2  501    0  0.13680818315E+01 -0.35751400086E+02 -0.55658096904E+02  0.47425586310E+03  0.46961768033E+03 0.  0.
         13    1    3    3    0    0 -0.11729002847E+03  0.16913026554E+03 -0.10702834409E+03  0.23198505111E+03  0.00000000000E+00 0.  1.
          3    1    3    3  501    0  0.11865811030E+03 -0.20488166562E+03  0.51370247182E+02  0.24227081199E+03  0.00000000000E+00 0.  1.
         21    1    1    2  502  501 -0.13680818315E+01  0.35751400086E+02  0.21820758436E+02  0.41906798431E+02  0.00000000000E+00 0.  1.
<scales pt_clust_4="550.00000" pt_clust_5="550.00000" pt_clust_6="35.77757"></scales>
<mgrwt>
<rscale>  0 0.30000000E+03</rscale>
<asrwt>  1 0.35777566E+02</asrwt>
<pdfrwt beam="1">  1        1 0.87695513E+00 0.30000000E+03</pdfrwt>
<pdfrwt beam="2">0</pdfrwt>
<totfact> 0.21336003E-04</totfact>
</mgrwt>
<clustering>
<clus scale="   35.778">  1  6  2 -1</clus>
<clus scale="  469.618">  4  5 -1 -1</clus>
<clus scale="  300.000">  1  4  2 -1</clus>
</clustering>
</event>
<event>
 6    1  0.1000035E-011  0.3000000E+03  0.7818608E-02  0.1093470E+00
          1   -1    0    0  502    0  0.00000000000E+00  0.00000000000E+00  0.22579126761E+03  0.22579126761E+03  0.00000000000E+00 0.  1.
         13   -1    0    0    0    0 -0.00000000000E+00 -0.00000000000E+00 -0.27500000000E+03  0.27500000000E+03  0.00000000000E+00 0.  1.
    9000005    2    1    2  501    0 -0.49339282352E+01  0.31769372634E+02 -0.43034405920E+02  0.46805353719E+03  0.46496076921E+03 0.  0.
         13    1    3    3    0    0 -0.45185139148E+02  0.19239319917E+03  0.12363054199E+03  0.23311231371E+03  0.00000000000E+00 0.  1.
          1    1    3    3  501    0  0.40251210913E+02 -0.16062382654E+03 -0.16666494791E+03  0.23494122349E+03  0.00000000000E+00 0.  1.
         21    1    1    2  502  501  0.49339282352E+01 -0.31769372634E+02 -0.61743264705E+01  0.32737730416E+02  0.00000000000E+00 0. -1.
<scales pt_clust_4="550.00000" pt_clust_5="550.00000" pt_clust_6="32.15024"></scales>
<mgrwt>
<rscale>  0 0.30000000E+03</rscale>
<asrwt>  1 0.32150237E+02</asrwt>
<pdfrwt beam="1">  1        1 0.82105915E+00 0.30000000E+03</pdfrwt>
<pdfrwt beam="2">0</pdfrwt>
<totfact> 0.71949696E-04</totfact>
</mgrwt>
<clustering>
<clus scale="   32.150">  1  6  2 -1</clus>
<clus scale="  464.961">  4  5 -1 -1</clus>
<clus scale="  300.000">  1  4  2 -1</clus>
</clustering>
</event>
<event>
 6    1  0.1000035E-011  0.3000000E+03  0.7818608E-02  0.1093470E+00
          1   -1    0    0  502    0  0.00000000000E+00  0.00000000000E+00  0.24949313331E+03  0.24949313331E+03  0.00000000000E+00 0.  1.
         13   -1    0    0    0    0 -0.00000000000E+00 -0.00000000000E+00 -0.27500000000E+03  0.27500000000E+03  0.00000000000E+00 0.  1.
    9000005    2    1    2  501    0 -0.41568596375E+02 -0.44903201306E+00 -0.61017771424E+02  0.46981979256E+03  0.46398202467E+03 0.  0.
         13    1    3    3    0    0 -0.11673301387E+03  0.11542580074E+02  0.18123876844E+03  0.21588728278E+03  0.00000000000E+00 0.  1.
          3    1    3    3  501    0  0.75164417491E+02 -0.11991612087E+02 -0.24225653986E+03  0.25393250978E+03  0.00000000000E+00 0.  1.
         21    1    1    2  502  501  0.41568596375E+02  0.44903201306E+00  0.35510904736E+02  0.54673340757E+02  0.00000000000E+00 0.  1.
<scales pt_clust_4="550.00000" pt_clust_5="550.00000" pt_clust_6="41.57102"></scales>
<mgrwt>
<rscale>  0 0.30000000E+03</rscale>
<asrwt>  1 0.41571022E+02</asrwt>
<pdfrwt beam="1">  1        1 0.90724776E+00 0.30000000E+03</pdfrwt>
<pdfrwt beam="2">0</pdfrwt>
<totfact> 0.80616780E-05</totfact>
</mgrwt>
<clustering>
<clus scale="   41.571">  1  6  2 -1</clus>
<clus scale="  463.982">  4  5 -1 -1</clus>
<clus scale="  300.000">  1  4  2 -1</clus>
</clustering>
</event>
<event>
 6    1  0.1000035E-011  0.3000000E+03  0.7818608E-02  0.1093470E+00
          1   -1    0    0  502    0  0.00000000000E+00  0.00000000000E+00  0.23101928944E+03  0.23101928944E+03  0.00000000000E+00 0.  1.
         13   -1    0    0    0    0 -0.00000000000E+00 -0.00000000000E+00 -0.27500000000E+03  0.27500000000E+03  0.00000000000E+00 0.  1.
    9000005    2    1    2  501    0 -0.30609808240E+02  0.51563570050E+00 -0.59498643054E+02  0.47169681183E+03  0.46692672607E+03 0.  0.
         13    1    3    3    0    0 -0.52292444164E+02  0.82803216080E+02  0.18690767042E+03  0.21101030679E+03  0.00000000000E+00 0.  1.
          1    1    3    3  501    0  0.21682635925E+02 -0.82287580380E+02 -0.24640631348E+03  0.26068650503E+03  0.00000000000E+00 0.  1.
         21    1    1    2  502  501  0.30609808240E+02 -0.51563570050E+00  0.15517932493E+02  0.34322477613E+02  0.00000000000E+00 0.  1.
<scales pt_clust_4="550.00000" pt_clust_5="550.00000" pt_clust_6="30.61415"></scales>
<mgrwt>
<rscale>  0 0.30000000E+03</rscale>
<asrwt>  1 0.30614151E+02</asrwt>
<pdfrwt beam="1">  1        1 0.84007014E+00 0.30000000E+03</pdfrwt>
<pdfrwt beam="2">0</pdfrwt>
<totfact> 0.50917573E-04</totfact>
</mgrwt>
<clustering>
<clus scale="   30.614">  1  6  2 -1</clus>
<clus scale="  466.927">  4  5 -1 -1</clus>
<clus scale="  300.000">  1  4  2 -1</clus>
</clustering>
</event>
<event>
 6    1  0.1000035E-011  0.3000000E+03  0.7818608E-02  0.1093470E+00
          1   -1    0    0  502    0  0.00000000000E+00  0.00000000000E+00  0.23073480897E+03  0.23073480897E+03  0.00000000000E+00 0.  1.
         13   -1    0    0    0    0 -0.00000000000E+00 -0.00000000000E+00 -0.27500000000E+03  0.27500000000E+03  0.00000000000E+00 0.  1.
    9000005    2    1    2  501    0  0.35451815921E+02  0.27471015853E+01 -0.47471901867E+02  0.47003241670E+03  0.46627514781E+03 0.  0.
         13    1    3    3    0    0  0.24927142736E+03  0.44804346174E+01 -0.57917878678E+02  0.25595077547E+03  0.00000000000E+00 0.  1.
          3    1    3    3  501    0 -0.21381961144E+03 -0.17333330321E+01  0.10445976812E+02  0.21408164123E+03  0.00000000000E+00 0.  1.
         21    1    1    2  502  501 -0.35451815921E+02 -0.27471015853E+01  0.32067108381E+01  0.35702392267E+02  0.00000000000E+00 0. -1.
<scales pt_clust_4="550.00000" pt_clust_5="550.00000" pt_clust_6="35.55809"></scales>
<mgrwt>
<rscale>  0 0.30000000E+03</rscale>
<asrwt>  1 0.35558091E+02</asrwt>
<pdfrwt beam="1">  1        1 0.83903567E+00 0.30000000E+03</pdfrwt>
<pdfrwt beam="2">0</pdfrwt>
<totfact> 0.50397725E-04</totfact>
</mgrwt>
<clustering>
<clus scale="   35.558">  1  6  2 -1</clus>
<clus scale="  466.275">  4  5 -1 -1</clus>
<clus scale="  300.000">  1  4  2 -1</clus>
</clustering>
</event>
<event>
 6    1  0.1000035E-011  0.3000000E+03  0.7818608E-02  0.1093470E+00
          1   -1    0    0  502    0  0.00000000000E+00  0.00000000000E+00  0.22080608484E+03  0.22080608484E+03  0.00000000000E+00 0.  1.
         13   -1    0    0    0    0 -0.00000000000E+00 -0.00000000000E+00 -0.27500000000E+03  0.27500000000E+03  0.00000000000E+00 0.  1.
    9000005    2    1    2  501    0  0.23454908451E+02 -0.22873902796E+02 -0.48914267473E+02  0.46262140707E+03  0.45886012308E+03 0.  0.
         13    1    3    3    0    0  0.20195322683E+03  0.64346153649E+02 -0.12932725011E+03  0.24829633694E+03  0.00000000000E+00 0.  1.
          1    1    3    3  501    0 -0.17849831838E+03 -0.87220056445E+02  0.80412982634E+02  0.21432507013E+03  0.00000000000E+00 0.  1.
         21    1    1    2  502  501 -0.23454908451E+02  0.22873902796E+02 -0.52796476832E+01  0.33184677778E+02  0.00000000000E+00 0. -1.
<scales pt_clust_4="550.00000" pt_clust_5="550.00000" pt_clust_6="32.76201"></scales>
<mgrwt>
<rscale>  0 0.30000000E+03</rscale>
<asrwt>  1 0.32762009E+02</asrwt>
<pdfrwt beam="1">  1        1 0.80293122E+00 0.30000000E+03</pdfrwt>
<pdfrwt beam="2">0</pdfrwt>
<totfact> 0.99971187E-04</totfact>
</mgrwt>
<clustering>
<clus scale="   32.762">  1  6  2 -1</clus>
<clus scale="  458.860">  4  5 -1 -1</clus>
<clus scale="  300.000">  1  4  2 -1</clus>
</clustering>
</event>
<event>
 6    1  0.1000035E-011  0.3000000E+03  0.7818608E-02  0.1093470E+00
          1   -1    0    0  502    0  0.00000000000E+00  0.00000000000E+00  0.23060127655E+03  0.23060127655E+03  0.00000000000E+00 0.  1.
         13   -1    0    0    0    0 -0.00000000000E+00 -0.00000000000E+00 -0.27500000000E+03  0.27500000000E+03  0.00000000000E+00 0.  1.
    9000005    2    1    2  501    0  0.57928813782E+01  0.36876943169E+02 -0.62278702025E+02  0.46421093896E+03  0.45849721124E+03 0.  0.
         13    1    3    3    0    0  0.30204232933E+02 -0.19222294260E+03 -0.11747661606E+03  0.22729432608E+03  0.00000000000E+00 0.  1.
          1    1    3    3  501    0 -0.24411351555E+02  0.22909988577E+03  0.55197914037E+02  0.23691661288E+03  0.00000000000E+00 0.  1.
         21    1    1    2  502  501 -0.57928813782E+01 -0.36876943169E+02  0.17879978576E+02  0.41390337593E+02  0.00000000000E+00 0. -1.
<scales pt_clust_4="550.00000" pt_clust_5="550.00000" pt_clust_6="37.32916"></scales>
<mgrwt>
<rscale>  0 0.30000000E+03</rscale>
<asrwt>  1 0.37329163E+02</asrwt>
<pdfrwt beam="1">  1        1 0.83855010E+00 0.30000000E+03</pdfrwt>
<pdfrwt beam="2">0</pdfrwt>
<totfact> 0.50362028E-04</totfact>
</mgrwt>
<clustering>
<clus scale="   37.329">  1  6  2 -1</clus>
<clus scale="  458.497">  4  5 -1 -1</clus>
<clus scale="  300.000">  1  4  2 -1</clus>
</clustering>
</event>
<event>
 6    1  0.1000035E-011  0.3000000E+03  0.7818608E-02  0.1093470E+00
          1   -1    0    0  502    0  0.00000000000E+00  0.00000000000E+00  0.24665802676E+03  0.24665802676E+03  0.00000000000E+00 0.  1.
         13   -1    0    0    0    0 -0.00000000000E+00 -0.00000000000E+00 -0.27500000000E+03  0.27500000000E+03  0.00000000000E+00 0.  1.
    9000005    2    1    2  501    0 -0.38838648042E+02  0.41963378753E+02 -0.40174021132E+02  0.46326827513E+03  0.45796744101E+03 0.  0.
         13    1    3    3    0    0 -0.10594109807E+02 -0.18246021614E+03 -0.12529132059E+03  0.22158944165E+03  0.00000000000E+00 0.  1.
          1    1    3    3  501    0 -0.28244538235E+02  0.22442359489E+03  0.85117299461E+02  0.24167883348E+03  0.00000000000E+00 0.  1.
         21    1    1    2  502  501  0.38838648042E+02 -0.41963378753E+02  0.11832047890E+02  0.58389751630E+02  0.00000000000E+00 0.  1.
<scales pt_clust_4="550.00000" pt_clust_5="550.00000" pt_clust_6="57.17837"></scales>
<mgrwt>
<rscale>  0 0.30000000E+03</rscale>
<asrwt>  1 0.57178368E+02</asrwt>
<pdfrwt beam="1">  1        1 0.89693828E+00 0.30000000E+03</pdfrwt>
<pdfrwt beam="2">0</pdfrwt>
<totfact> 0.10987551E-04</totfact>
</mgrwt>
<clustering>
<clus scale="   57.178">  1  6  2 -1</clus>
<clus scale="  457.967">  4  5 -1 -1</clus>
<clus scale="  300.000">  1  4  2 -1</clus>
</clustering>
</event>
<event>
 6    1  0.1000035E-011  0.3000000E+03  0.7818608E-02  0.1093470E+00
          1   -1    0    0  502    0  0.00000000000E+00  0.00000000000E+00  0.24150973025E+03  0.24150973025E+03  0.00000000000E+00 0.  1.
         13   -1    0    0    0    0 -0.00000000000E+00 -0.00000000000E+00 -0.27500000000E+03  0.27500000000E+03  0.00000000000E+00 0.  1.
    9000005    2    1    2  501    0  0.23335023758E+02 -0.19801992401E+02 -0.43451853609E+02  0.48432471215E+03  0.48139975175E+03 0.  0.
         13    1    3    3    0    0 -0.67441189166E+02 -0.17463433332E+03  0.13532776730E+03  0.23099582024E+03  0.00000000000E+00 0.  1.
          3    1    3    3  501    0  0.90776212924E+02  0.15483234091E+03 -0.17877962090E+03  0.25332889191E+03  0.00000000000E+00 0.  1.
         21    1    1    2  502  501 -0.23335023758E+02  0.19801992401E+02  0.99615838595E+01  0.32185018096E+02  0.00000000000E+00 0.  1.
<scales pt_clust_4="550.00000" pt_clust_5="550.00000" pt_clust_6="30.60461"></scales>
<mgrwt>
<rscale>  0 0.30000000E+03</rscale>
<asrwt>  1 0.30604611E+02</asrwt>
<pdfrwt beam="1">  1        1 0.87821720E+00 0.30000000E+03</pdfrwt>
<pdfrwt beam="2">0</pdfrwt>
<totfact> 0.21263986E-04</totfact>
</mgrwt>
<clustering>
<clus scale="   30.605">  1  6  2 -1</clus>
<clus scale="  481.400">  4  5 -1 -1</clus>
<clus scale="  300.000">  1  4  2 -1</clus>
</clustering>
</event>
<event>
 6    1  0.1000035E-011  0.3000000E+03  0.7818608E-02  0.1093470E+00
          1   -1    0    0  502    0  0.00000000000E+00  0.00000000000E+00  0.23138848627E+03  0.23138848627E+03  0.00000000000E+00 0.  1.
         13   -1    0    0    0    0 -0.00000000000E+00 -0.00000000000E+00 -0.27500000000E+03  0.27500000000E+03  0.00000000000E+00 0.  1.
    9000005    2    1    2  501    0 -0.35999886857E+02  0.33377319999E+01 -0.62952472136E+02  0.46538598658E+03  0.45968899318E+03 0.  0.
         13    1    3    3    0    0 -0.23049612749E+03 -0.73005520934E+02  0.15313085994E+02  0.24226589004E+03  0.00000000000E+00 0.  1.
          3    1    3    3  501    0  0.19449624064E+03  0.76343252934E+02 -0.78265558130E+02  0.22312009654E+03  0.00000000000E+00 0.  1.
         21    1    1    2  502  501  0.35999886857E+02 -0.33377319999E+01  0.19340958405E+02  0.41002499688E+02  0.00000000000E+00 0.  1.
<scales pt_clust_4="550.00000" pt_clust_5="550.00000" pt_clust_6="36.15428"></scales>
<mgrwt>
<rscale>  0 0.30000000E+03</rscale>
<asrwt>  1 0.36154285E+02</asrwt>
<pdfrwt beam="1">  1        1 0.84141268E+00 0.30000000E+03</pdfrwt>
<pdfrwt beam="2">0</pdfrwt>
<totfact> 0.48157069E-04</totfact>
</mgrwt>
<clustering>
<clus scale="   36.154">  1  6  2 -1</clus>
<clus scale="  459.689">  4  5 -1 -1</clus>
<clus scale="  300.000">  1  4  2 -1</clus>
</clustering>
</event>
<event>
 6    1  0.1000035E-011  0.3000000E+03  0.7818608E-02  0.1093470E+00
          1   -1    0    0  502    0  0.00000000000E+00  0.00000000000E+00  0.22598270248E+03  0.22598270248E+03  0.00000000000E+00 0.  1.
         13   -1    0    0    0    0 -0.00000000000E+00 -0.00000000000E+00 -0.27500000000E+03  0.27500000000E+03  0.00000000000E+00 0.  1.
    9000005    2    1    2  501    0  0.13117464493E+02  0.27319012984E+02 -0.64677695791E+02  0.46687046979E+03  0.46137450610E+03 0.  0.
         13    1    3    3    0    0 -0.13709052005E+03  0.14960498151E+03  0.87075128638E+02  0.22081109394E+03  0.00000000000E+00 0.  1.
          1    1    3    3  501    0  0.15020798454E+03 -0.12228596853E+03 -0.15175282443E+03  0.24605937584E+03  0.00000000000E+00 0.  1.
         21    1    1    2  502  501 -0.13117464493E+02 -0.27319012984E+02  0.15660398266E+02  0.34112232688E+02  0.00000000000E+00 0. -1.
<scales pt_clust_4="550.00000" pt_clust_5="550.00000" pt_clust_6="30.30505"></scales>
<mgrwt>
<rscale>  0 0.30000000E+03</rscale>
<asrwt>  1 0.30305055E+02</asrwt>
<pdfrwt beam="1">  1        1 0.82175528E+00 0.30000000E+03</pdfrwt>
<pdfrwt beam="2">0</pdfrwt>
<totfact> 0.71746876E-04</totfact>
</mgrwt>
<clustering>
<clus scale="   30.305">  1  6  2 -1</clus>
<clus scale="  461.375">  4  5 -1 -1</clus>
<clus scale="  300.000">  1  4  2 -1</clus>
</clustering>
</event>
<event>
 6    1  0.1000035E-011  0.3000000E+03  0.7818608E-02  0.1093470E+00
          1   -1    0    0  502    0  0.00000000000E+00  0.00000000000E+00  0.24808396948E+03  0.24808396948E+03  0.00000000000E+00 0.  1.
         13   -1    0    0    0    0 -0.00000000000E+00 -0.00000000000E+00 -0.27500000000E+03  0.27500000000E+03  0.00000000000E+00 0.  1.
    9000005    2    1    2  501    0 -0.31734364297E+02 -0.19206937550E+02 -0.72258096753E+02  0.46450172560E+03  0.45734521339E+03 0.  0.
         13    1    3    3    0    0 -0.33636018268E+02  0.20684508209E+03  0.38011110442E+02  0.21298148799E+03  0.00000000000E+00 0.  1.
          3    1    3    3  501    0  0.19016539715E+01 -0.22605201964E+03 -0.11026920720E+03  0.25152023761E+03  0.00000000000E+00 0.  1.
         21    1    1    2  502  501  0.31734364297E+02  0.19206937550E+02  0.45342066237E+02  0.58582243880E+02  0.00000000000E+00 0. -1.
<scales pt_clust_4="550.00000" pt_clust_5="550.00000" pt_clust_6="37.09415"></scales>
<mgrwt>
<rscale>  0 0.30000000E+03</rscale>
<asrwt>  1 0.37094155E+02</asrwt>
<pdfrwt beam="1">  1        1 0.90212353E+00 0.30000000E+03</pdfrwt>
<pdfrwt beam="2">0</pdfrwt>
<totfact> 0.10225326E-04</totfact>
</mgrwt>
<clustering>
<clus scale="   37.094">  1  6  2 -1</clus>
<clus scale="  457.345">  4  5 -1 -1</clus>
<clus scale="  300.000">  1  4  2 -1</clus>
</clustering>
</event>
<event>
 6    1  0.1000035E-011  0.3000000E+03  0.7818608E-02  0.1093470E+00
          1   -1    0    0  502    0  0.00000000000E+00  0.00000000000E+00  0.24403283134E+03  0.24403283134E+03  0.00000000000E+00 0.  1.
         13   -1    0    0    0    0 -0.00000000000E+00 -0.00000000000E+00 -0.27500000000E+03  0.27500000000E+03  0.00000000000E+00 0.  1.
    9000005    2    1    2  501    0 -0.18271934121E+02  0.33494892377E+02 -0.35472853916E+02  0.48061314118E+03  0.47778122266E+03 0.  0.
         13    1    3    3    0    0 -0.64857944484E+02  0.24643425842E+03 -0.58407410706E+02  0.26143416439E+03  0.00000000000E+00 0.  1.
          3    1    3    3  501    0  0.46586010363E+02 -0.21293936604E+03  0.22934556790E+02  0.21917897679E+03  0.00000000000E+00 0.  1.
         21    1    1    2  502  501  0.18271934121E+02 -0.33494892377E+02  0.45056852538E+01  0.38419690153E+02  0.00000000000E+00 0.  1.
<scales pt_clust_4="550.00000" pt_clust_5="550.00000" pt_clust_6="38.15457"></scales>
<mgrwt>
<rscale>  0 0.30000000E+03</rscale>
<asrwt>  1 0.38154572E+02</asrwt>
<pdfrwt beam="1">  1        1 0.88739211E+00 0.30000000E+03</pdfrwt>
<pdfrwt beam="2">0</pdfrwt>
<totfact> 0.15479950E-04</totfact>
</mgrwt>
<clustering>
<clus scale="   38.155">  1  6  2 -1</clus>
<clus scale="  477.781">  4  5 -1 -1</clus>
<clus scale="  300.000">  1  4  2 -1</clus>
</clustering>
</event>
<event>
 6    1  0.1000035E-011  0.3000000E+03  0.7818608E-02  0.1093470E+00
          1   -1    0    0  502    0  0.00000000000E+00  0.00000000000E+00  0.22583781087E+03  0.22583781087E+03  0.00000000000E+00 0.  1.
         13   -1    0    0    0    0 -0.00000000000E+00 -0.00000000000E+00 -0.27500000000E+03  0.27500000000E+03  0.00000000000E+00 0.  1.
    9000005    2    1    2  501    0  0.40812270476E+01  0.30680005898E+02 -0.44493175762E+02  0.46953734982E+03  0.46639871464E+03 0.  0.
         13    1    3    3    0    0 -0.18204421075E+03 -0.77103574543E+02 -0.13159148665E+03  0.23748973711E+03  0.00000000000E+00 0.  1.
          1    1    3    3  501    0  0.18612543779E+03  0.10778358044E+03  0.87098310886E+02  0.23204761271E+03  0.00000000000E+00 0.  1.
         21    1    1    2  502  501 -0.40812270476E+01 -0.30680005898E+02 -0.46690133648E+01  0.31300461050E+02  0.00000000000E+00 0. -1.
<scales pt_clust_4="550.00000" pt_clust_5="550.00000" pt_clust_6="30.95028"></scales>
<mgrwt>
<rscale>  0 0.30000000E+03</rscale>
<asrwt>  1 0.30950285E+02</asrwt>
<pdfrwt beam="1">  1        1 0.82122840E+00 0.30000000E+03</pdfrwt>
<pdfrwt beam="2">0</pdfrwt>
<totfact> 0.72225898E-04</totfact>
</mgrwt>
<clustering>
<clus scale="   30.950">  1  6  2 -1</clus>
<clus scale="  466.399">  4  5 -1 -1</clus>
<clus scale="  300.000">  1  4  2 -1</clus>
</clustering>
</event>
<event>
 6    1  0.1000035E-011  0.3000000E+03  0.7818608E-02  0.1093470E+00
          1   -1    0    0  502    0  0.00000000000E+00  0.00000000000E+00  0.22452963296E+03  0.22452963296E+03  0.00000000000E+00 0.  1.
         13   -1    0    0    0    0 -0.00000000000E+00 -0.00000000000E+00 -0.27500000000E+03  0.27500000000E+03  0.00000000000E+00 0.  1.
    9000005    2    1    2  501    0 -0.25904718871E+02  0.20139412812E+02 -0.56917372083E+02  0.46608992180E+03  0.46143642851E+03 0.  0.
         13    1    3    3    0    0 -0.51047068400E+01  0.23779914085E+03  0.80525280933E+01  0.23799019440E+03  0.00000000000E+00 0.  1.
          1    1    3    3  501    0 -0.20800012031E+02 -0.21765972804E+03 -0.64969900177E+02  0.22809972740E+03  0.00000000000E+00 0.  1.
         21    1    1    2  502  501  0.25904718871E+02 -0.20139412812E+02  0.64470050450E+01  0.33439711157E+02  0.00000000000E+00 0.  1.
<scales pt_clust_4="550.00000" pt_clust_5="550.00000" pt_clust_6="32.81235"></scales>
<mgrwt>
<rscale>  0 0.30000000E+03</rscale>
<asrwt>  1 0.32812351E+02</asrwt>
<pdfrwt beam="1">  1        1 0.81647139E+00 0.30000000E+03</pdfrwt>
<pdfrwt beam="2">0</pdfrwt>
<totfact> 0.78386159E-04</totfact>
</mgrwt>
<clustering>
<clus scale="   32.812">  1  6  2 -1</clus>
<clus scale="  461.436">  4  5 -1 -1</clus>
<clus scale="  300.000">  1  4  2 -1</clus>
</clustering>
</event>
<event>
 6    1  0.1000035E-011  0.3000000E+03  0.7818608E-02  0.1093470E+00
          1   -1    0    0  502    0  0.00000000000E+00  0.00000000000E+00  0.22023955286E+03  0.22023955286E+03  0.00000000000E+00 0.  1.
         13   -1    0    0    0    0 -0.00000000000E+00 -0.00000000000E+00 -0.27500000000E+03  0.27500000000E+03  0.00000000000E+00 0.  1.
    9000005    2    1    2  501    0  0.31762894068E+02  0.68432005199E+01 -0.62637897660E+02  0.46180655928E+03  0.45638369946E+03 0.  0.
         13    1    3    3    0    0 -0.79601042604E+02 -0.18193045279E+03  0.64044746082E+02  0.20865460728E+03  0.00000000000E+00 0.  1.
          1    1    3    3  501    0  0.11136393667E+03  0.18877365331E+03 -0.12668264374E+03  0.25315195200E+03  0.00000000000E+00 0.  1.
         21    1    1    2  502  501 -0.31762894068E+02 -0.68432005199E+01  0.78774505152E+01  0.33432993578E+02  0.00000000000E+00 0.  1.
<scales pt_clust_4="550.00000" pt_clust_5="550.00000" pt_clust_6="32.49170"></scales>
<mgrwt>
<rscale>  0 0.30000000E+03</rscale>
<asrwt>  1 0.32491704E+02</asrwt>
<pdfrwt beam="1">  1        1 0.80087110E+00 0.30000000E+03</pdfrwt>
<pdfrwt beam="2">0</pdfrwt>
<totfact> 0.10364963E-03</totfact>
</mgrwt>
<clustering>
<clus scale="   32.492">  1  6  2 -1</clus>
<clus scale="  456.384">  4  5 -1 -1</clus>
<clus scale="  300.000">  1  4  2 -1</clus>
</clustering>
</event>
<event>
 6    1  0.1000035E-011  0.3000000E+03  0.7818608E-02  0.1093470E+00
          1   -1    0    0  502    0  0.00000000000E+00  0.00000000000E+00  0.24963696471E+03  0.24963696471E+03  0.00000000000E+00 0.  1.
         13   -1    0    0    0    0 -0.00000000000E+00 -0.00000000000E+00 -0.27500000000E+03  0.27500000000E+03  0.00000000000E+00 0.  1.
    9000005    2    1    2  501    0 -0.27734252866E+02 -0.20421696892E+02 -0.25633323865E+02  0.49019414918E+03  0.48831035429E+03 0.  0.
         13    1    3    3    0    0  0.22590673345E+03  0.38127883553E+02 -0.67956718864E+01  0.22920246264E+03  0.00000000000E+00 0.  1.
          3    1    3    3  501    0 -0.25364098632E+03 -0.58549580445E+02 -0.18837651978E+02  0.26099168654E+03  0.00000000000E+00 0.  1.
         21    1    1    2  502  501  0.27734252866E+02  0.20421696892E+02  0.27028857761E+00  0.34442815534E+02  0.00000000000E+00 0.  1.
<scales pt_clust_4="550.00000" pt_clust_5="550.00000" pt_clust_6="34.44175"></scales>
<mgrwt>
<rscale>  0 0.30000000E+03</rscale>
<asrwt>  1 0.34441755E+02</asrwt>
<pdfrwt beam="1">  1        1 0.90777078E+00 0.30000000E+03</pdfrwt>
<pdfrwt beam="2">0</pdfrwt>
<totfact> 0.81274704E-05</totfact>
</mgrwt>
<clustering>
<clus scale="   34.442">  1  6  2 -1</clus>
<clus scale="  488.310">  4  5 -1 -1</clus>
<clus scale="  300.000">  1  4  2 -1</clus>
</clustering>
</event>
<event>
 6    1  0.1000035E-011  0.3000000E+03  0.7818608E-02  0.1093470E+00
          1   -1    0    0  502    0  0.00000000000E+00  0.00000000000E+00  0.23269710271E+03  0.23269710271E+03  0.00000000000E+00 0.  1.
         13   -1    0    0    0    0 -0.00000000000E+00 -0.00000000000E+00 -0.27500000000E+03  0.27500000000E+03  0.00000000000E+00 0.  1.
    9000005    2    1    2  501    0 -0.92808165859E+01 -0.31517511168E+02 -0.44611341060E+02  0.47476055797E+03  0.47151662599E+03 0.  0.
         13    1    3    3    0    0 -0.31125333068E+02 -0.23310353507E+03  0.65368585861E+02  0.24408829640E+03  0.00000000000E+00 0.  1.
          1    1    3    3  501    0  0.21844516482E+02  0.20158602390E+03 -0.10997992692E+03  0.23067226157E+03  0.00000000000E+00 0.  1.
         21    1    1    2  502  501  0.92808165859E+01  0.31517511168E+02  0.23084437654E+01  0.32936544739E+02  0.00000000000E+00 0.  1.
<scales pt_clust_4="550.00000" pt_clust_5="550.00000" pt_clust_6="32.85555"></scales>
<mgrwt>
<rscale>  0 0.30000000E+03</rscale>
<asrwt>  1 0.32855548E+02</asrwt>
<pdfrwt beam="1">  1        1 0.84617128E+00 0.30000000E+03</pdfrwt>
<pdfrwt beam="2">0</pdfrwt>
<totfact> 0.44647865E-04</totfact>
</mgrwt>
<clustering>
<clus scale="   32.856">  1  6  2 -1</clus>
<clus scale="  471.517">  4  5 -1 -1</clus>
<clus scale="  300.000">  1  4  2 -1</clus>
</clustering>
</event>
<event>
 6    1  0.1000035E-011  0.3000000E+03  0.7818608E-02  0.1093470E+00
          1   -1    0    0  502    0  0.00000000000E+00  0.00000000000E+00  0.24412780811E+03  0.24412780811E+03  0.00000000000E+00 0.  1.
         13   -1    0    0    0    0 -0.00000000000E+00 -0.00000000000E+00 -0.27500000000E+03  0.27500000000E+03  0.00000000000E+00 0.  1.
    9000005    2    1    2  501    0 -0.35454866725E+02  0.30431263993E+02 -0.52257733172E+02  0.46774249135E+03  0.46245979083E+03 0.  0.
         13    1    3    3    0    0  0.17460071005E+03 -0.29661005317E+02 -0.14646038601E+03  0.22981694424E+03  0.00000000000E+00 0.  1.
          3    1    3    3  501    0 -0.21005557678E+03  0.60092269311E+02  0.94202652840E+02  0.23792554711E+03  0.00000000000E+00 0.  1.
         21    1    1    2  502  501  0.35454866725E+02 -0.30431263993E+02  0.21385541280E+02  0.51385316760E+02  0.00000000000E+00 0. -1.
<scales pt_clust_4="550.00000" pt_clust_5="550.00000" pt_clust_6="46.72376"></scales>
<mgrwt>
<rscale>  0 0.30000000E+03</rscale>
<asrwt>  1 0.46723756E+02</asrwt>
<pdfrwt beam="1">  1        1 0.88773748E+00 0.30000000E+03</pdfrwt>
<pdfrwt beam="2">0</pdfrwt>
<totfact> 0.14760711E-04</totfact>
</mgrwt>
<clustering>
<clus scale="   46.724">  1  6  2 -1</clus>
<clus scale="  462.460">  4  5 -1 -1</clus>
<clus scale="  300.000">  1  4  2 -1</clus>
</clustering>
</event>
<event>
 6    1  0.1000035E-011  0.3000000E+03  0.7818608E-02  0.1093470E+00
          1   -1    0    0  502    0  0.00000000000E+00  0.00000000000E+00  0.23581391504E+03  0.23581391504E+03  0.00000000000E+00 0.  1.
         13   -1    0    0    0    0 -0.00000000000E+00 -0.00000000000E+00 -0.27500000000E+03  0.27500000000E+03  0.00000000000E+00 0.  1.
    9000005    2    1    2  501    0  0.23829604854E+02 -0.25306050747E+02 -0.43296378119E+01  0.46158772100E+03  0.46025670245E+03 0.  0.
         13    1    3    3    0    0 -0.36417995225E+02 -0.23785971613E+03 -0.84079438350E+00  0.24063296090E+03  0.00000000000E+00 0.  1.
          1    1    3    3  501    0  0.60247600079E+02  0.21255366539E+03 -0.34888434284E+01  0.22095476011E+03  0.00000000000E+00 0.  1.
         21    1    1    2  502  501 -0.23829604854E+02  0.25306050747E+02 -0.34856447146E+02  0.49226194038E+02  0.00000000000E+00 0.  1.
<scales pt_clust_4="550.00000" pt_clust_5="550.00000" pt_clust_6="34.75985"></scales>
<mgrwt>
<rscale>  0 0.30000000E+03</rscale>
<asrwt>  1 0.34759854E+02</asrwt>
<pdfrwt beam="1">  1        1 0.85750515E+00 0.30000000E+03</pdfrwt>
<pdfrwt beam="2">0</pdfrwt>
<totfact> 0.34406835E-04</totfact>
</mgrwt>
<clustering>
<clus scale="   34.760">  1  6  2 -1</clus>
<clus scale="  460.257">  4  5 -1 -1</clus>
<clus scale="  300.000">  1  4  2 -1</clus>
</clustering>
</event>
<event>
 6    1  0.1000035E-011  0.3000000E+03  0.7818608E-02  0.1093470E+00
          1   -1    0    0  502    0  0.00000000000E+00  0.00000000000E+00  0.23466068581E+03  0.23466068581E+03  0.00000000000E+00 0.  1.
         13   -1    0    0    0    0 -0.00000000000E+00 -0.00000000000E+00 -0.27500000000E+03  0.27500000000E+03  0.00000000000E+00 0.  1.
    9000005    2    1    2  501    0  0.35705218134E+02  0.16547098098E+02 -0.28247733758E+02  0.46849182167E+03  0.46598066854E+03 0.  0.
         13    1    3    3    0    0  0.12592921353E+02  0.20891179238E+03 -0.13326024310E+03  0.24811491502E+03  0.00000000000E+00 0.  1.
          3    1    3    3  501    0  0.23112296781E+02 -0.19236469428E+03  0.10501250934E+03  0.22037690666E+03  0.00000000000E+00 0.  1.
         21    1    1    2  502  501 -0.35705218134E+02 -0.16547098098E+02 -0.12091580427E+02  0.41168864141E+02  0.00000000000E+00 0. -1.
<scales pt_clust_4="550.00000" pt_clust_5="550.00000" pt_clust_6="39.35315"></scales>
<mgrwt>
<rscale>  0 0.30000000E+03</rscale>
<asrwt>  1 0.39353152E+02</asrwt>
<pdfrwt beam="1">  1        1 0.85331158E+00 0.30000000E+03</pdfrwt>
<pdfrwt beam="2">0</pdfrwt>
<totfact> 0.37031393E-04</totfact>
</mgrwt>
<clustering>
<clus scale="   39.353">  1  6  2 -1</clus>
<clus scale="  465.981">  4  5 -1 -1</clus>
<clus scale="  300.000">  1  4  2 -1</clus>
</clustering>
</event>
<event>
 6    1  0.1000035E-011  0.3000000E+03  0.7818608E-02  0.1093470E+00
          1   -1    0    0  502    0  0.00000000000E+00  0.00000000000E+00  0.25364133417E+03  0.25364133417E+03  0.00000000000E+00 0.  1.
         13   -1    0    0    0    0 -0.00000000000E+00 -0.00000000000E+00 -0.27500000000E+03  0.27500000000E+03  0.00000000000E+00 0.  1.
    9000005    2    1    2  501    0 -0.36429190518E+02 -0.26100747423E+01 -0.25056584385E+02  0.49193202999E+03  0.48993406832E+03 0.  0.
         13    1    3    3    0    0  0.74423798987E+00 -0.67026415568E+02  0.22305723226E+03  0.23291119152E+03  0.00000000000E+00 0.  1.
          3    1    3    3  501    0 -0.37173428508E+02  0.64416340825E+02 -0.24811381664E+03  0.25902083847E+03  0.00000000000E+00 0.  1.
         21    1    1    2  502  501  0.36429190518E+02  0.26100747423E+01  0.36979185588E+01  0.36709304184E+02  0.00000000000E+00 0. -1.
<scales pt_clust_4="550.00000" pt_clust_5="550.00000" pt_clust_6="36.52257"></scales>
<mgrwt>
<rscale>  0 0.30000000E+03</rscale>
<asrwt>  1 0.36522574E+02</asrwt>
<pdfrwt beam="1">  1        1 0.92233212E+00 0.30000000E+03</pdfrwt>
<pdfrwt beam="2">0</pdfrwt>
<totfact> 0.36972835E-05</totfact>
</mgrwt>
<clustering>
<clus scale="   36.523">  1  6  2 -1</clus>
<clus scale="  489.934">  4  5 -1 -1</clus>
<clus scale="  300.000">  1  4  2 -1</clus>
</clustering>
</event>
<event>
 6    1  0.1000035E-011  0.3000000E+03  0.7818608E-02  0.1093470E+00
          1   -1    0    0  502    0  0.00000000000E+00  0.00000000000E+00  0.23057685380E+03  0.23057685380E+03  0.00000000000E+00 0.  1.
         13   -1    0    0    0    0 -0.00000000000E+00 -0.00000000000E+00 -0.27500000000E+03  0.27500000000E+03  0.00000000000E+00 0.  1.
    9000005    2    1    2  501    0  0.16906122088E+02 -0.29210445251E+02 -0.39792821573E+02  0.47151063913E+03  0.46861471070E+03 0.  0.
         13    1    3    3    0    0  0.10739331763E+03  0.94792503547E+02  0.16311079531E+03  0.21708080281E+03  0.00000000000E+00 0.  1.
          1    1    3    3  501    0 -0.90487195542E+02 -0.12400294880E+03 -0.20290361688E+03  0.25442983632E+03  0.00000000000E+00 0.  1.
         21    1    1    2  502  501 -0.16906122088E+02  0.29210445251E+02 -0.46303246282E+01  0.34066214670E+02  0.00000000000E+00 0. -1.
<scales pt_clust_4="550.00000" pt_clust_5="550.00000" pt_clust_6="33.75008"></scales>
<mgrwt>
<rscale>  0 0.30000000E+03</rscale>
<asrwt>  1 0.33750085E+02</asrwt>
<pdfrwt beam="1">  1        1 0.83846129E+00 0.30000000E+03</pdfrwt>
<pdfrwt beam="2">0</pdfrwt>
<totfact> 0.51395773E-04</totfact>
</mgrwt>
<clustering>
<clus scale="   33.750">  1  6  2 -1</clus>
<clus scale="  468.615">  4  5 -1 -1</clus>
<clus scale="  300.000">  1  4  2 -1</clus>
</clustering>
</event>
<event>
 6    1  0.1000035E-011  0.3000000E+03  0.7818608E-02  0.1093470E+00
          1   -1    0    0  502    0  0.00000000000E+00  0.00000000000E+00  0.23277426399E+03  0.23277426399E+03  0.00000000000E+00 0.  1.
         13   -1    0    0    0    0 -0.00000000000E+00 -0.00000000000E+00 -0.27500000000E+03  0.27500000000E+03  0.00000000000E+00 0.  1.
    9000005    2    1    2  501    0  0.11285796087E+02  0.28829798333E+02 -0.63524526675E+02  0.47019548076E+03  0.46485470652E+03 0.  0.
         13    1    3    3    0    0  0.19646276363E+03  0.13667251033E+03  0.20093683151E+02  0.24016816749E+03  0.00000000000E+00 0.  1.
          3    1    3    3  501    0 -0.18517696754E+03 -0.10784271199E+03 -0.83618209826E+02  0.23002731327E+03  0.00000000000E+00 0.  1.
         21    1    1    2  502  501 -0.11285796087E+02 -0.28829798333E+02  0.21298790667E+02  0.37578783231E+02  0.00000000000E+00 0. -1.
<scales pt_clust_4="550.00000" pt_clust_5="550.00000" pt_clust_6="30.96008"></scales>
<mgrwt>
<rscale>  0 0.30000000E+03</rscale>
<asrwt>  1 0.30960079E+02</asrwt>
<pdfrwt beam="1">  1        1 0.84645187E+00 0.30000000E+03</pdfrwt>
<pdfrwt beam="2">0</pdfrwt>
<totfact> 0.44896014E-04</totfact>
</mgrwt>
<clustering>
<clus scale="   30.960">  1  6  2 -1</clus>
<clus scale="  464.855">  4  5 -1 -1</clus>
<clus scale="  300.000">  1  4  2 -1</clus>
</clustering>
</event>
<event>
 6    1  0.1000035E-011  0.3000000E+03  0.7818608E-02  0.1093470E+00
          1   -1    0    0  502    0  0.00000000000E+00  0.00000000000E+00  0.24739367026E+03  0.24739367026E+03  0.00000000000E+00 0.  1.
         13   -1    0    0    0    0 -0.00000000000E+00 -0.00000000000E+00 -0.27500000000E+03  0.27500000000E+03  0.00000000000E+00 0.  1.
    9000005    2    1    2  501    0 -0.29340268053E+02 -0.17654611996E+02 -0.64719288101E+02  0.47189705322E+03  0.46618205235E+03 0.  0.
         13    1    3    3    0    0  0.15098234736E+03  0.11451832746E+03  0.79867684672E+02  0.20564280584E+03  0.00000000000E+00 0.  1.
          3    1    3    3  501    0 -0.18032261541E+03 -0.13217293946E+03 -0.14458697277E+03  0.26625424738E+03  0.00000000000E+00 0.  1.
         21    1    1    2  502  501  0.29340268053E+02  0.17654611996E+02  0.37112958361E+02  0.50496617039E+02  0.00000000000E+00 0. -1.
<scales pt_clust_4="550.00000" pt_clust_5="550.00000" pt_clust_6="34.24232"></scales>
<mgrwt>
<rscale>  0 0.30000000E+03</rscale>
<asrwt>  1 0.34242323E+02</asrwt>
<pdfrwt beam="1">  1        1 0.89961335E+00 0.30000000E+03</pdfrwt>
<pdfrwt beam="2">0</pdfrwt>
<totfact> 0.11212884E-04</totfact>
</mgrwt>
<clustering>
<clus scale="   34.242">  1  6  2 -1</clus>
<clus scale="  466.182">  4  5 -1 -1</clus>
<clus scale="  300.000">  1  4  2 -1</clus>
</clustering>
</event>
<event>
 6    1  0.1000035E-011  0.3000000E+03  0.7818608E-02  0.1093470E+00
          1   -1    0    0  502    0  0.00000000000E+00  0.00000000000E+00  0.23424385490E+03  0.23424385490E+03  0.00000000000E+00 0.  1.
         13   -1    0    0    0    0 -0.00000000000E+00 -0.00000000000E+00 -0.27500000000E+03  0.27500000000E+03  0.00000000000E+00 0.  1.
    9000005    2    1    2  501    0  0.23909881875E+02  0.40828959359E+02 -0.43728733383E+02  0.46183581071E+03  0.45731983070E+03 0.  0.
         13    1    3    3    0    0 -0.18137885005E+02 -0.63981664982E+02  0.19051624214E+03  0.20178967973E+03  0.00000000000E+00 0.  1.
          1    1    3    3  501    0  0.42047766880E+02  0.10481062434E+03 -0.23424497553E+03  0.26004613097E+03  0.00000000000E+00 0.  1.
         21    1    1    2  502  501 -0.23909881875E+02 -0.40828959359E+02  0.29725882868E+01  0.47408044198E+02  0.00000000000E+00 0. -1.
<scales pt_clust_4="550.00000" pt_clust_5="550.00000" pt_clust_6="47.31476"></scales>
<mgrwt>
<rscale>  0 0.30000000E+03</rscale>
<asrwt>  1 0.47314759E+02</asrwt>
<pdfrwt beam="1">  1        1 0.85179584E+00 0.30000000E+03</pdfrwt>
<pdfrwt beam="2">0</pdfrwt>
<totfact> 0.37046230E-04</totfact>
</mgrwt>
<clustering>
<clus scale="   47.315">  1  6  2 -1</clus>
<clus scale="  457.320">  4  5 -1 -1</clus>
<clus scale="  300.000">  1  4  2 -1</clus>
</clustering>
</event>
<event>
 6    1  0.1000035E-011  0.3000000E+03  0.7818608E-02  0.1093470E+00
          1   -1    0    0  502    0  0.00000000000E+00  0.00000000000E+00  0.22597843103E+03  0.22597843103E+03  0.00000000000E+00 0.  1.
         13   -1    0    0    0    0 -0.00000000000E+00 -0.00000000000E+00 -0.27500000000E+03  0.27500000000E+03  0.00000000000E+00 0.  1.
    9000005    2    1    2  501    0  0.26154343760E+01 -0.33038939430E+02 -0.57893802980E+02  0.46666912396E+03  0.46187657097E+03 0.  0.
         13    1    3    3    0    0 -0.99335583193E+02  0.19158307066E+03 -0.15335664308E+02  0.21634882401E+03  0.00000000000E+00 0.  1.
          1    1    3    3  501    0  0.10195101757E+03 -0.22462201009E+03 -0.42558138672E+02  0.25032029995E+03  0.00000000000E+00 0.  1.
         21    1    1    2  502  501 -0.26154343760E+01  0.33038939430E+02  0.88722340114E+01  0.34309307075E+02  0.00000000000E+00 0.  1.
<scales pt_clust_4="550.00000" pt_clust_5="550.00000" pt_clust_6="33.14230"></scales>
<mgrwt>
<rscale>  0 0.30000000E+03</rscale>
<asrwt>  1 0.33142299E+02</asrwt>
<pdfrwt beam="1">  1        1 0.82173975E+00 0.30000000E+03</pdfrwt>
<pdfrwt beam="2">0</pdfrwt>
<totfact> 0.70555825E-04</totfact>
</mgrwt>
<clustering>
<clus scale="   33.142">  1  6  2 -1</clus>
<clus scale="  461.877">  4  5 -1 -1</clus>
<clus scale="  300.000">  1  4  2 -1</clus>
</clustering>
</event>
<event>
 6    1  0.1000035E-011  0.3000000E+03  0.7818608E-02  0.1093470E+00
          1   -1    0    0  502    0  0.00000000000E+00  0.00000000000E+00  0.24348748102E+03  0.24348748102E+03  0.00000000000E+00 0.  1.
         13   -1    0    0    0    0 -0.00000000000E+00 -0.00000000000E+00 -0.27500000000E+03  0.27500000000E+03  0.00000000000E+00 0.  1.
    9000005    2    1    2  501    0 -0.29316978323E+02  0.11453663380E+02 -0.33031344233E+02  0.48697592040E+03  0.48483379185E+03 0.  0.
         13    1    3    3    0    0 -0.15248999246E+02  0.24372672842E+02 -0.25880440546E+03  0.26039638907E+03  0.00000000000E+00 0.  1.
          1    1    3    3  501    0 -0.14067979077E+02 -0.12919009462E+02  0.22577306122E+03  0.22657953132E+03  0.00000000000E+00 0.  1.
         21    1    1    2  502  501  0.29316978323E+02 -0.11453663380E+02  0.15188252537E+01  0.31511560624E+02  0.00000000000E+00 0.  1.
<scales pt_clust_4="550.00000" pt_clust_5="550.00000" pt_clust_6="31.47494"></scales>
<mgrwt>
<rscale>  0 0.30000000E+03</rscale>
<asrwt>  1 0.31474936E+02</asrwt>
<pdfrwt beam="1">  1        1 0.88540902E+00 0.30000000E+03</pdfrwt>
<pdfrwt beam="2">0</pdfrwt>
<totfact> 0.17092167E-04</totfact>
</mgrwt>
<clustering>
<clus scale="   31.475">  1  6  2 -1</clus>
<clus scale="  484.834">  4  5 -1 -1</clus>
<clus scale="  300.000">  1  4  2 -1</clus>
</clustering>
</event>
<event>
 6    1  0.1000035E-011  0.3000000E+03  0.7818608E-02  0.1093470E+00
          1   -1    0    0  502    0  0.00000000000E+00  0.00000000000E+00  0.23389519389E+03  0.23389519389E+03  0.00000000000E+00 0.  1.
         13   -1    0    0    0    0 -0.00000000000E+00 -0.00000000000E+00 -0.27500000000E+03  0.27500000000E+03  0.00000000000E+00 0.  1.
    9000005    2    1    2  501    0 -0.56203838759E+01  0.30182376506E+02 -0.60316479660E+02  0.47267844408E+03  0.46780794052E+03 0.  0.
         13    1    3    3    0    0  0.13536265273E+03 -0.14004416813E+03  0.80341733162E+02  0.21068984520E+03  0.00000000000E+00 0.  1.
          1    1    3    3  501    0 -0.14098303661E+03  0.17022654464E+03 -0.14065821282E+03  0.26198859888E+03  0.00000000000E+00 0.  1.
         21    1    1    2  502  501  0.56203838759E+01 -0.30182376506E+02  0.19211673551E+02  0.36216749814E+02  0.00000000000E+00 0. -1.
<scales pt_clust_4="550.00000" pt_clust_5="550.00000" pt_clust_6="30.70121"></scales>
<mgrwt>
<rscale>  0 0.30000000E+03</rscale>
<asrwt>  1 0.30701214E+02</asrwt>
<pdfrwt beam="1">  1        1 0.85052798E+00 0.30000000E+03</pdfrwt>
<pdfrwt beam="2">0</pdfrwt>
<totfact> 0.41246582E-04</totfact>
</mgrwt>
<clustering>
<clus scale="   30.701">  1  6  2 -1</clus>
<clus scale="  467.808">  4  5 -1 -1</clus>
<clus scale="  300.000">  1  4  2 -1</clus>
</clustering>
</event>
<event>
 6    1  0.1000035E-011  0.3000000E+03  0.7818608E-02  0.1093470E+00
          1   -1    0    0  502    0  0.00000000000E+00  0.00000000000E+00  0.26095492247E+03  0.26095492247E+03  0.00000000000E+00 0.  1.
         13   -1    0    0    0    0 -0.00000000000E+00 -0.00000000000E+00 -0.27500000000E+03  0.27500000000E+03  0.00000000000E+00 0.  1.
    9000005    2    1    2  501    0  0.87984202383E+01  0.32522932316E+02 -0.20657657677E+02  0.50162010718E+03  0.50006083608E+03 0.  0.
         13    1    3    3    0    0 -0.45258806650E+02 -0.15420003807E+02  0.23300875498E+03  0.23786386021E+03  0.00000000000E+00 0.  1.
          3    1    3    3  501    0  0.54057226888E+02  0.47942936123E+02 -0.25366641266E+03  0.26375624697E+03  0.00000000000E+00 0.  1.
         21    1    1    2  502  501 -0.87984202383E+01 -0.32522932316E+02  0.66125801514E+01  0.34334815296E+02  0.00000000000E+00 0.  1.
<scales pt_clust_4="550.00000" pt_clust_5="550.00000" pt_clust_6="33.69204"></scales>
<mgrwt>
<rscale>  0 0.30000000E+03</rscale>
<asrwt>  1 0.33692037E+02</asrwt>
<pdfrwt beam="1">  1        1 0.94892699E+00 0.30000000E+03</pdfrwt>
<pdfrwt beam="2">0</pdfrwt>
<totfact> 0.13071941E-05</totfact>
</mgrwt>
<clustering>
<clus scale="   33.692">  1  6  2 -1</clus>
<clus scale="  500.061">  4  5 -1 -1</clus>
<clus scale="  300.000">  1  4  2 -1</clus>
</clustering>
</event>
<event>
 6    1  0.1000035E-011  0.3000000E+03  0.7818608E-02  0.1093470E+00
          1   -1    0    0  502    0  0.00000000000E+00  0.00000000000E+00  0.22248001758E+03  0.22248001758E+03  0.00000000000E+00 0.  1.
         13   -1    0    0    0    0 -0.00000000000E+00 -0.00000000000E+00 -0.27500000000E+03  0.27500000000E+03  0.00000000000E+00 0.  1.
    9000005    2    1    2  501    0  0.76450813523E+01  0.30023879998E+02 -0.63249515492E+02  0.46469277130E+03  0.45932449297E+03 0.  0.
         13    1    3    3    0    0 -0.13607008436E+03  0.16030630494E+03  0.78496999644E+02  0.22444366379E+03  0.00000000000E+00 0.  1.
          1    1    3    3  501    0  0.14371516571E+03 -0.13028242495E+03 -0.14174651514E+03  0.24024910751E+03  0.00000000000E+00 0.  1.
         21    1    1    2  502  501 -0.76450813523E+01 -0.30023879998E+02  0.10729533073E+02  0.32787246285E+02  0.00000000000E+00 0. -1.
<scales pt_clust_4="550.00000" pt_clust_5="550.00000" pt_clust_6="30.98194"></scales>
<mgrwt>
<rscale>  0 0.30000000E+03</rscale>
<asrwt>  1 0.30981941E+02</asrwt>
<pdfrwt beam="1">  1        1 0.80901825E+00 0.30000000E+03</pdfrwt>
<pdfrwt beam="2">0</pdfrwt>
<totfact> 0.90832592E-04</totfact>
</mgrwt>
<clustering>
<clus scale="   30.982">  1  6  2 -1</clus>
<clus scale="  459.324">  4  5 -1 -1</clus>
<clus scale="  300.000">  1  4  2 -1</clus>
</clustering>
</event>
<event>
 6    1  0.1000035E-011  0.3000000E+03  0.7818608E-02  0.1093470E+00
          1   -1    0    0  502    0  0.00000000000E+00  0.00000000000E+00  0.24678281736E+03  0.24678281736E+03  0.00000000000E+00 0.  1.
         13   -1    0    0    0    0 -0.00000000000E+00 -0.00000000000E+00 -0.27500000000E+03  0.27500000000E+03  0.00000000000E+00 0.  1.
    9000005    2    1    2  501    0 -0.16747121900E+02 -0.30139736256E+02 -0.37436289645E+02  0.48609161778E+03  0.48341981269E+03 0.  0.
         13    1    3    3    0    0 -0.56540782070E+02  0.20677345486E+03  0.66351604661E+02  0.22439843385E+03  0.00000000000E+00 0.  1.
          3    1    3    3  501    0  0.39793660170E+02 -0.23691319111E+03 -0.10378789431E+03  0.26169318394E+03  0.00000000000E+00 0.  1.
         21    1    1    2  502  501  0.16747121900E+02  0.30139736256E+02  0.92191070060E+01  0.35691199580E+02  0.00000000000E+00 0.  1.
<scales pt_clust_4="550.00000" pt_clust_5="550.00000" pt_clust_6="34.47999"></scales>
<mgrwt>
<rscale>  0 0.30000000E+03</rscale>
<asrwt>  1 0.34479991E+02</asrwt>
<pdfrwt beam="1">  1        1 0.89739206E+00 0.30000000E+03</pdfrwt>
<pdfrwt beam="2">0</pdfrwt>
<totfact> 0.11889384E-04</totfact>
</mgrwt>
<clustering>
<clus scale="   34.480">  1  6  2 -1</clus>
<clus scale="  483.420">  4  5 -1 -1</clus>
<clus scale="  300.000">  1  4  2 -1</clus>
</clustering>
</event>
<event>
 6    1  0.1000035E-011  0.3000000E+03  0.7818608E-02  0.1093470E+00
          1   -1    0    0  502    0  0.00000000000E+00  0.00000000000E+00  0.22134470106E+03  0.22134470106E+03  0.00000000000E+00 0.  1.
         13   -1    0    0    0    0 -0.00000000000E+00 -0.00000000000E+00 -0.27500000000E+03  0.27500000000E+03  0.00000000000E+00 0.  1.
    9000005    2    1    2  501    0 -0.31473504710E+02 -0.11709757229E+02 -0.54590336648E+02  0.46275044249E+03  0.45829048349E+03 0.  0.
         13    1    3    3    0    0  0.20601004856E+03  0.54195638444E+02 -0.22232890954E+02  0.21417658316E+03  0.00000000000E+00 0.  1.
          1    1    3    3  501    0 -0.23748355327E+03 -0.65905395673E+02 -0.32357445694E+02  0.24857385933E+03  0.00000000000E+00 0.  1.
         21    1    1    2  502  501  0.31473504710E+02  0.11709757229E+02  0.93503770280E+00  0.33594258566E+02  0.00000000000E+00 0. -1.
<scales pt_clust_4="550.00000" pt_clust_5="550.00000" pt_clust_6="33.58124"></scales>
<mgrwt>
<rscale>  0 0.30000000E+03</rscale>
<asrwt>  1 0.33581243E+02</asrwt>
<pdfrwt beam="1">  1        1 0.80488982E+00 0.30000000E+03</pdfrwt>
<pdfrwt beam="2">0</pdfrwt>
<totfact> 0.96222300E-04</totfact>
</mgrwt>
<clustering>
<clus scale="   33.581">  1  6  2 -1</clus>
<clus scale="  458.290">  4  5 -1 -1</clus>
<clus scale="  300.000">  1  4  2 -1</clus>
</clustering>
</event>
<event>
 6    1  0.1000035E-011  0.3000000E+03  0.7818608E-02  0.1093470E+00
          1   -1    0    0  502    0  0.00000000000E+00  0.00000000000E+00  0.23474592111E+03  0.23474592111E+03  0.00000000000E+00 0.  1.
         13   -1    0    0    0    0 -0.00000000000E+00 -0.00000000000E+00 -0.27500000000E+03  0.27500000000E+03  0.00000000000E+00 0.  1.
    9000005    2    1    2  501    0  0.26140326367E+02 -0.15206823011E+02 -0.70233217872E+02  0.46716290921E+03  0.46086214285E+03 0.  0.
         13    1    3    3    0    0  0.85386876890E+01  0.21282679519E+03  0.34217227709E+02  0.21572893318E+03  0.00000000000E+00 0.  1.
          1    1    3    3  501    0  0.17601638678E+02 -0.22803361821E+03 -0.10445044558E+03  0.25143397602E+03  0.00000000000E+00 0.  1.
         21    1    1    2  502  501 -0.26140326367E+02  0.15206823011E+02  0.29979138979E+02  0.42583011901E+02  0.00000000000E+00 0.  1.
<scales pt_clust_4="550.00000" pt_clust_5="550.00000" pt_clust_6="30.24176"></scales>
<mgrwt>
<rscale>  0 0.30000000E+03</rscale>
<asrwt>  1 0.30241761E+02</asrwt>
<pdfrwt beam="1">  1        1 0.85362153E+00 0.30000000E+03</pdfrwt>
<pdfrwt beam="2">0</pdfrwt>
<totfact> 0.38638794E-04</totfact>
</mgrwt>
<clustering>
<clus scale="   30.242">  1  6  2 -1</clus>
<clus scale="  460.862">  4  5 -1 -1</clus>
<clus scale="  300.000">  1  4  2 -1</clus>
</clustering>
</event>
<event>
 6    1  0.1000035E-011  0.3000000E+03  0.7818608E-02  0.1093470E+00
          1   -1    0    0  502    0  0.00000000000E+00  0.00000000000E+00  0.22612490393E+03  0.22612490393E+03  0.00000000000E+00 0.  1.
         13   -1    0    0    0    0 -0.00000000000E+00 -0.00000000000E+00 -0.27500000000E+03  0.27500000000E+03  0.00000000000E+00 0.  1.
    9000005    2    1    2  501    0  0.78305408980E+01  0.31816660843E+02 -0.47592204292E+02  0.46833369948E+03  0.46475565503E+03 0.  0.
         13    1    3    3    0    0  0.14958231359E+03  0.38144795783E+02  0.15646107285E+03  0.21979527134E+03  0.00000000000E+00 0.  1.
          1    1    3    3  501    0 -0.14175177269E+03 -0.63281349398E+01 -0.20405327715E+03  0.24853842815E+03  0.00000000000E+00 0.  1.
         21    1    1    2  502  501 -0.78305408980E+01 -0.31816660843E+02 -0.12828917737E+01  0.32791204449E+02  0.00000000000E+00 0.  1.
<scales pt_clust_4="550.00000" pt_clust_5="550.00000" pt_clust_6="32.76610"></scales>
<mgrwt>
<rscale>  0 0.30000000E+03</rscale>
<asrwt>  1 0.32766100E+02</asrwt>
<pdfrwt beam="1">  1        1 0.82227238E+00 0.30000000E+03</pdfrwt>
<pdfrwt beam="2">0</pdfrwt>
<totfact> 0.69944342E-04</totfact>
</mgrwt>
<clustering>
<clus scale="   32.766">  1  6  2 -1</clus>
<clus scale="  464.756">  4  5 -1 -1</clus>
<clus scale="  300.000">  1  4  2 -1</clus>
</clustering>
</event>
<event>
 6    1  0.1000035E-011  0.3000000E+03  0.7818608E-02  0.1093470E+00
          1   -1    0    0  502    0  0.00000000000E+00  0.00000000000E+00  0.24056628888E+03  0.24056628888E+03  0.00000000000E+00 0.  1.
         13   -1    0    0    0    0 -0.00000000000E+00 -0.00000000000E+00 -0.27500000000E+03  0.27500000000E+03  0.00000000000E+00 0.  1.
    9000005    2    1    2  501    0 -0.35685592956E+02 -0.35293266458E+01 -0.51810115322E+02  0.47571836404E+03  0.47152704709E+03 0.  0.
         13    1    3    3    0    0  0.18963691871E+03  0.64979251998E+02  0.67750664034E+02  0.21160013375E+03  0.00000000000E+00 0.  1.
          1    1    3    3  501    0 -0.22532251166E+03 -0.68508578644E+02 -0.11956077936E+03  0.26411823029E+03  0.00000000000E+00 0.  1.
         21    1    1    2  502  501  0.35685592956E+02  0.35293266458E+01  0.17376404198E+02  0.39847924839E+02  0.00000000000E+00 0.  1.
<scales pt_clust_4="550.00000" pt_clust_5="550.00000" pt_clust_6="35.85969"></scales>
<mgrwt>
<rscale>  0 0.30000000E+03</rscale>
<asrwt>  1 0.35859695E+02</asrwt>
<pdfrwt beam="1">  1        1 0.87478651E+00 0.30000000E+03</pdfrwt>
<pdfrwt beam="2">0</pdfrwt>
<totfact> 0.22507636E-04</totfact>
</mgrwt>
<clustering>
<clus scale="   35.860">  1  6  2 -1</clus>
<clus scale="  471.527">  4  5 -1 -1</clus>
<clus scale="  300.000">  1  4  2 -1</clus>
</clustering>
</event>
<event>
 6    1  0.1000035E-011  0.3000000E+03  0.7818608E-02  0.1093470E+00
          1   -1    0    0  502    0  0.00000000000E+00  0.00000000000E+00  0.26908578607E+03  0.26908578607E+03  0.00000000000E+00 0.  1.
         13   -1    0    0    0    0 -0.00000000000E+00 -0.00000000000E+00 -0.27500000000E+03  0.27500000000E+03  0.00000000000E+00 0.  1.
    9000005    2    1    2  501    0  0.58631146467E+02  0.59140347045E+01 -0.53145106567E+02  0.46856529639E+03  0.46179697648E+03 0.  0.
         13    1    3    3    0    0 -0.95708182394E+02 -0.18903534263E+03  0.96766402751E+01  0.21210387622E+03  0.00000000000E+00 0.  1.
          1    1    3    3  501    0  0.15433932886E+03  0.19494937734E+03 -0.62821746843E+02  0.25646142017E+03  0.00000000000E+00 0.  1.
         21    1    1    2  502  501 -0.58631146467E+02 -0.59140347045E+01  0.47230892633E+02  0.75520489679E+02  0.00000000000E+00 0.  1.
<scales pt_clust_4="550.00000" pt_clust_5="550.00000" pt_clust_6="58.92866"></scales>
<mgrwt>
<rscale>  0 0.30000000E+03</rscale>
<asrwt>  1 0.58928661E+02</asrwt>
<pdfrwt beam="1">  1        1 0.97849377E+00 0.30000000E+03</pdfrwt>
<pdfrwt beam="2">0</pdfrwt>
<totfact> 0.29685079E-06</totfact>
</mgrwt>
<clustering>
<clus scale="   58.929">  1  6  2 -1</clus>
<clus scale="  461.797">  4  5 -1 -1</clus>
<clus scale="  300.000">  1  4  2 -1</clus>
</clustering>
</event>
<event>
 6    1  0.1000035E-011  0.3000000E+03  0.7818608E-02  0.1093470E+00
          1   -1    0    0  502    0  0.00000000000E+00  0.00000000000E+00  0.22200838491E+03  0.22200838491E+03  0.00000000000E+00 0.  1.
         13   -1    0    0    0    0 -0.00000000000E+00 -0.00000000000E+00 -0.27500000000E+03  0.27500000000E+03  0.00000000000E+00 0.  1.
    9000005    2    1    2  501    0 -0.27564792524E+02 -0.14460812861E+02 -0.48833436538E+02  0.46560419181E+03  0.46198877260E+03 0.  0.
         13    1    3    3    0    0 -0.58938692813E+02  0.21291633762E+03 -0.77865809610E+02  0.23424393406E+03  0.00000000000E+00 0.  1.
          1    1    3    3  501    0  0.31373900289E+02 -0.22737715048E+03  0.29032373072E+02  0.23136025775E+03  0.00000000000E+00 0.  1.
         21    1    1    2  502  501  0.27564792524E+02  0.14460812861E+02 -0.41581785516E+01  0.31404193102E+02  0.00000000000E+00 0.  1.
<scales pt_clust_4="550.00000" pt_clust_5="550.00000" pt_clust_6="31.12770"></scales>
<mgrwt>
<rscale>  0 0.30000000E+03</rscale>
<asrwt>  1 0.31127703E+02</asrwt>
<pdfrwt beam="1">  1        1 0.80730322E+00 0.30000000E+03</pdfrwt>
<pdfrwt beam="2">0</pdfrwt>
<totfact> 0.93560188E-04</totfact>
</mgrwt>
<clustering>
<clus scale="   31.128">  1  6  2 -1</clus>
<clus scale="  461.989">  4  5 -1 -1</clus>
<clus scale="  300.000">  1  4  2 -1</clus>
</clustering>
</event>
<event>
 6    1  0.1000035E-011  0.3000000E+03  0.7818608E-02  0.1093470E+00
          1   -1    0    0  502    0  0.00000000000E+00  0.00000000000E+00  0.25000984614E+03  0.25000984614E+03  0.00000000000E+00 0.  1.
         13   -1    0    0    0    0 -0.00000000000E+00 -0.00000000000E+00 -0.27500000000E+03  0.27500000000E+03  0.00000000000E+00 0.  1.
    9000005    2    1    2  501    0  0.39284736847E+02 -0.10171040639E+02 -0.37614591594E+02  0.48251141035E+03  0.47932834571E+03 0.  0.
         13    1    3    3    0    0 -0.15745144302E+03  0.10274404722E+03  0.10423867427E+03  0.21497208507E+03  0.00000000000E+00 0.  1.
          3    1    3    3  501    0  0.19673617987E+03 -0.11291508786E+03 -0.14185326586E+03  0.26753932528E+03  0.00000000000E+00 0.  1.
         21    1    1    2  502  501 -0.39284736847E+02  0.10171040639E+02  0.12624437737E+02  0.42498435794E+02  0.00000000000E+00 0. -1.
<scales pt_clust_4="550.00000" pt_clust_5="550.00000" pt_clust_6="40.58005"></scales>
<mgrwt>
<rscale>  0 0.30000000E+03</rscale>
<asrwt>  1 0.40580052E+02</asrwt>
<pdfrwt beam="1">  1        1 0.90912671E+00 0.30000000E+03</pdfrwt>
<pdfrwt beam="2">0</pdfrwt>
<totfact> 0.73379988E-05</totfact>
</mgrwt>
<clustering>
<clus scale="   40.580">  1  6  2 -1</clus>
<clus scale="  479.328">  4  5 -1 -1</clus>
<clus scale="  300.000">  1  4  2 -1</clus>
</clustering>
</event>
<event>
 6    1  0.1000035E-011  0.3000000E+03  0.7818608E-02  0.1093470E+00
          1   -1    0    0  502    0  0.00000000000E+00  0.00000000000E+00  0.23554741561E+03  0.23554741561E+03  0.00000000000E+00 0.  1.
         13   -1    0    0    0    0 -0.00000000000E+00 -0.00000000000E+00 -0.27500000000E+03  0.27500000000E+03  0.00000000000E+00 0.  1.
    9000005    2    1    2  501    0 -0.28259409961E+02 -0.12170170764E+02 -0.41635862084E+02  0.47970144328E+03  0.47689959359E+03 0.  0.
         13    1    3    3    0    0 -0.17481313988E+03 -0.83727654904E+02 -0.18098268868E+03  0.26518802325E+03  0.00000000000E+00 0.  1.
          3    1    3    3  501    0  0.14655372992E+03  0.71557484140E+02  0.13934682660E+03  0.21451342003E+03  0.00000000000E+00 0.  1.
         21    1    1    2  502  501  0.28259409961E+02  0.12170170764E+02  0.21832776984E+01  0.30845972335E+02  0.00000000000E+00 0.  1.
<scales pt_clust_4="550.00000" pt_clust_5="550.00000" pt_clust_6="30.76861"></scales>
<mgrwt>
<rscale>  0 0.30000000E+03</rscale>
<asrwt>  1 0.30768609E+02</asrwt>
<pdfrwt beam="1">  1        1 0.85653606E+00 0.30000000E+03</pdfrwt>
<pdfrwt beam="2">0</pdfrwt>
<totfact> 0.36028113E-04</totfact>
</mgrwt>
<clustering>
<clus scale="   30.769">  1  6  2 -1</clus>
<clus scale="  476.900">  4  5 -1 -1</clus>
<clus scale="  300.000">  1  4  2 -1</clus>
</clustering>
</event>
<event>
 6    1  0.1000035E-011  0.3000000E+03  0.7818608E-02  0.1093470E+00
          1   -1    0    0  502    0  0.00000000000E+00  0.00000000000E+00  0.23637443724E+03  0.23637443724E+03  0.00000000000E+00 0.  1.
         13   -1    0    0    0    0 -0.00000000000E+00 -0.00000000000E+00 -0.27500000000E+03  0.27500000000E+03  0.00000000000E+00 0.  1.
    9000005    2    1    2  501    0  0.31917262633E+02 -0.24291416356E+02 -0.57084499167E+02  0.46722110333E+03  0.46198282954E+03 0.  0.
         13    1    3    3    0    0 -0.21105611365E+03 -0.56127331397E+02 -0.18816215892E+02  0.21920084493E+03  0.00000000000E+00 0.  1.
          3    1    3    3  501    0  0.24297337628E+03  0.31835915040E+02 -0.38268283275E+02  0.24802025839E+03  0.00000000000E+00 0.  1.
         21    1    1    2  502  501 -0.31917262633E+02  0.24291416356E+02  0.18458936410E+02  0.44153333917E+02  0.00000000000E+00 0. -1.
<scales pt_clust_4="550.00000" pt_clust_5="550.00000" pt_clust_6="40.10966"></scales>
<mgrwt>
<rscale>  0 0.30000000E+03</rscale>
<asrwt>  1 0.40109657E+02</asrwt>
<pdfrwt beam="1">  1        1 0.85954341E+00 0.30000000E+03</pdfrwt>
<pdfrwt beam="2">0</pdfrwt>
<totfact> 0.31897390E-04</totfact>
</mgrwt>
<clustering>
<clus scale="   40.110">  1  6  2 -1</clus>
<clus scale="  461.983">  4  5 -1 -1</clus>
<clus scale="  300.000">  1  4  2 -1</clus>
</clustering>
</event>
<event>
 6    1  0.1000035E-011  0.3000000E+03  0.7818608E-02  0.1093470E+00
          1   -1    0    0  502    0  0.00000000000E+00  0.00000000000E+00  0.23751242891E+03  0.23751242891E+03  0.00000000000E+00 0.  1.
         13   -1    0    0    0    0 -0.00000000000E+00 -0.00000000000E+00 -0.27500000000E+03  0.27500000000E+03  0.00000000000E+00 0.  1.
    9000005    2    1    2  501    0 -0.95966525777E+01  0.33967120902E+02 -0.40822141646E+02  0.47705850947E+03  0.47399632189E+03 0.  0.
         13    1    3    3    0    0 -0.15908031547E+03  0.19745223761E+03 -0.29067854702E+02  0.25522318289E+03  0.00000000000E+00 0.  1.
          3    1    3    3  501    0  0.14948366289E+03 -0.16348511671E+03 -0.11754286944E+02  0.22183532658E+03  0.00000000000E+00 0.  1.
         21    1    1    2  502  501  0.95966525777E+01 -0.33967120902E+02  0.33345705603E+01  0.35453919444E+02  0.00000000000E+00 0.  1.
<scales pt_clust_4="550.00000" pt_clust_5="550.00000" pt_clust_6="35.29676"></scales>
<mgrwt>
<rscale>  0 0.30000000E+03</rscale>
<asrwt>  1 0.35296757E+02</asrwt>
<pdfrwt beam="1">  1        1 0.86368156E+00 0.30000000E+03</pdfrwt>
<pdfrwt beam="2">0</pdfrwt>
<totfact> 0.29475404E-04</totfact>
</mgrwt>
<clustering>
<clus scale="   35.297">  1  6  2 -1</clus>
<clus scale="  473.996">  4  5 -1 -1</clus>
<clus scale="  300.000">  1  4  2 -1</clus>
</clustering>
</event>
<event>
 6    1  0.1000035E-011  0.3000000E+03  0.7818608E-02  0.1093470E+00
          1   -1    0    0  502    0  0.00000000000E+00  0.00000000000E+00  0.23515489057E+03  0.23515489057E+03  0.00000000000E+00 0.  1.
         13   -1    0    0    0    0 -0.00000000000E+00 -0.00000000000E+00 -0.27500000000E+03  0.27500000000E+03  0.00000000000E+00 0.  1.
    9000005    2    1    2  501    0 -0.40916948895E+01  0.32861965213E+02 -0.51332829466E+02  0.47510323674E+03  0.47115960720E+03 0.  0.
         13    1    3    3    0    0  0.20258411022E+03 -0.10069340269E+03 -0.26778573761E+02  0.22780819799E+03  0.00000000000E+00 0.  1.
          1    1    3    3  501    0 -0.20667580511E+03  0.13355536790E+03 -0.24554255705E+02  0.24729503874E+03  0.00000000000E+00 0.  1.
         21    1    1    2  502  501  0.40916948895E+01 -0.32861965213E+02  0.11487720035E+02  0.35051653832E+02  0.00000000000E+00 0.  1.
<scales pt_clust_4="550.00000" pt_clust_5="550.00000" pt_clust_6="33.11572"></scales>
<mgrwt>
<rscale>  0 0.30000000E+03</rscale>
<asrwt>  1 0.33115717E+02</asrwt>
<pdfrwt beam="1">  1        1 0.85510869E+00 0.30000000E+03</pdfrwt>
<pdfrwt beam="2">0</pdfrwt>
<totfact> 0.36723321E-04</totfact>
</mgrwt>
<clustering>
<clus scale="   33.116">  1  6  2 -1</clus>
<clus scale="  471.160">  4  5 -1 -1</clus>
<clus scale="  300.000">  1  4  2 -1</clus>
</clustering>
</event>
<event>
 6    1  0.1000035E-011  0.3000000E+03  0.7818608E-02  0.1093470E+00
          1   -1    0    0  502    0  0.00000000000E+00  0.00000000000E+00  0.24445233692E+03  0.24445233692E+03  0.00000000000E+00 0.  1.
         13   -1    0    0    0    0 -0.00000000000E+00 -0.00000000000E+00 -0.27500000000E+03  0.27500000000E+03  0.00000000000E+00 0.  1.
    9000005    2    1    2  501    0 -0.53550751543E+01  0.34213556432E+02 -0.60534149522E+02  0.47364367352E+03  0.46848127170E+03 0.  0.
         13    1    3    3    0    0 -0.12528853374E+03 -0.16285544918E+03 -0.11657556355E+03  0.23623923474E+03  0.00000000000E+00 0.  1.
          1    1    3    3  501    0  0.11993345859E+03  0.19706900562E+03  0.56041414026E+02  0.23740443877E+03  0.00000000000E+00 0.  1.
         21    1    1    2  502  501  0.53550751543E+01 -0.34213556432E+02  0.29986486438E+02  0.45808663400E+02  0.00000000000E+00 0. -1.
<scales pt_clust_4="550.00000" pt_clust_5="550.00000" pt_clust_6="34.63011"></scales>
<mgrwt>
<rscale>  0 0.30000000E+03</rscale>
<asrwt>  1 0.34630106E+02</asrwt>
<pdfrwt beam="1">  1        1 0.88891759E+00 0.30000000E+03</pdfrwt>
<pdfrwt beam="2">0</pdfrwt>
<totfact> 0.15019946E-04</totfact>
</mgrwt>
<clustering>
<clus scale="   34.630">  1  6  2 -1</clus>
<clus scale="  468.481">  4  5 -1 -1</clus>
<clus scale="  300.000">  1  4  2 -1</clus>
</clustering>
</event>
<event>
 6    1  0.1000035E-011  0.3000000E+03  0.7818608E-02  0.1093470E+00
          1   -1    0    0  502    0  0.00000000000E+00  0.00000000000E+00  0.23146804959E+03  0.23146804959E+03  0.00000000000E+00 0.  1.
         13   -1    0    0    0    0 -0.00000000000E+00 -0.00000000000E+00 -0.27500000000E+03  0.27500000000E+03  0.00000000000E+00 0.  1.
    9000005    2    1    2  501    0 -0.14418425925E+02 -0.26931062279E+02 -0.63486558723E+02  0.46998025006E+03  0.46466947305E+03 0.  0.
         13    1    3    3    0    0 -0.12495252143E+03 -0.19841983848E+03  0.45213858395E+02  0.23880506256E+03  0.00000000000E+00 0.  1.
          3    1    3    3  501    0  0.11053409551E+03  0.17148877620E+03 -0.10870041712E+03  0.23117518750E+03  0.00000000000E+00 0.  1.
         21    1    1    2  502  501  0.14418425925E+02  0.26931062279E+02  0.19954608316E+02  0.36487799532E+02  0.00000000000E+00 0.  1.
<scales pt_clust_4="550.00000" pt_clust_5="550.00000" pt_clust_6="30.54788"></scales>
<mgrwt>
<rscale>  0 0.30000000E+03</rscale>
<asrwt>  1 0.30547882E+02</asrwt>
<pdfrwt beam="1">  1        1 0.84170200E+00 0.30000000E+03</pdfrwt>
<pdfrwt beam="2">0</pdfrwt>
<totfact> 0.49445940E-04</totfact>
</mgrwt>
<clustering>
<clus scale="   30.548">  1  6  2 -1</clus>
<clus scale="  464.669">  4  5 -1 -1</clus>
<clus scale="  300.000">  1  4  2 -1</clus>
</clustering>
</event>
<event>
 6    1  0.1000035E-011  0.3000000E+03  0.7818608E-02  0.1093470E+00
          1   -1    0    0  502    0  0.00000000000E+00  0.00000000000E+00  0.23544432139E+03  0.23544432139E+03  0.00000000000E+00 0.  1.
         13   -1    0    0    0    0 -0.00000000000E+00 -0.00000000000E+00 -0.27500000000E+03  0.27500000000E+03  0.00000000000E+00 0.  1.
    9000005    2    1    2  501    0  0.11574035289E+02  0.28608149958E+02 -0.93706907197E+01  0.46727583716E+03  0.46616146731E+03 0.  0.
         13    1    3    3    0    0 -0.21479985356E+03  0.69582618250E+02 -0.55807304489E+02  0.23258369050E+03  0.00000000000E+00 0.  1.
          1    1    3    3  501    0  0.22637388885E+03 -0.40974468292E+02  0.46436613770E+02  0.23469214666E+03  0.00000000000E+00 0.  1.
         21    1    1    2  502  501 -0.11574035289E+02 -0.28608149958E+02 -0.30184987892E+02  0.43168484232E+02  0.00000000000E+00 0. -1.
<scales pt_clust_4="550.00000" pt_clust_5="550.00000" pt_clust_6="30.86074"></scales>
<mgrwt>
<rscale>  0 0.30000000E+03</rscale>
<asrwt>  1 0.30860743E+02</asrwt>
<pdfrwt beam="1">  1        1 0.85616117E+00 0.30000000E+03</pdfrwt>
<pdfrwt beam="2">0</pdfrwt>
<totfact> 0.36324908E-04</totfact>
</mgrwt>
<clustering>
<clus scale="   30.861">  1  6  2 -1</clus>
<clus scale="  466.161">  4  5 -1 -1</clus>
<clus scale="  300.000">  1  4  2 -1</clus>
</clustering>
</event>
<event>
 6    1  0.1000035E-011  0.3000000E+03  0.7818608E-02  0.1093470E+00
          1   -1    0    0  502    0  0.00000000000E+00  0.00000000000E+00  0.24835604634E+03  0.24835604634E+03  0.00000000000E+00 0.  1.
         13   -1    0    0    0    0 -0.00000000000E+00 -0.00000000000E+00 -0.27500000000E+03  0.27500000000E+03  0.00000000000E+00 0.  1.
    9000005    2    1    2  501    0 -0.33312136320E+02 -0.84485966856E+01 -0.62050044250E+02  0.47401368662E+03  0.46867653013E+03 0.  0.
         13    1    3    3    0    0 -0.57147452279E+00 -0.10433795116E+02 -0.26662306326E+03  0.26682775067E+03  0.00000000000E+00 0.  1.
          1    1    3    3  501    0 -0.32740661798E+02  0.19851984302E+01  0.20457301901E+03  0.20718593595E+03  0.00000000000E+00 0.  1.
         21    1    1    2  502  501  0.33312136320E+02  0.84485966856E+01  0.35406090591E+02  0.49342359724E+02  0.00000000000E+00 0. -1.
<scales pt_clust_4="550.00000" pt_clust_5="550.00000" pt_clust_6="34.36680"></scales>
<mgrwt>
<rscale>  0 0.30000000E+03</rscale>
<asrwt>  1 0.34366804E+02</asrwt>
<pdfrwt beam="1">  1        1 0.90311290E+00 0.30000000E+03</pdfrwt>
<pdfrwt beam="2">0</pdfrwt>
<totfact> 0.10013706E-04</totfact>
</mgrwt>
<clustering>
<clus scale="   34.367">  1  6  2 -1</clus>
<clus scale="  468.677">  4  5 -1 -1</clus>
<clus scale="  300.000">  1  4  2 -1</clus>
</clustering>
</event>
<event>
 6    1  0.1000035E-011  0.3000000E+03  0.7818608E-02  0.1093470E+00
          1   -1    0    0  502    0  0.00000000000E+00  0.00000000000E+00  0.25579087469E+03  0.25579087469E+03  0.00000000000E+00 0.  1.
         13   -1    0    0    0    0 -0.00000000000E+00 -0.00000000000E+00 -0.27500000000E+03  0.27500000000E+03  0.00000000000E+00 0.  1.
    9000005    2    1    2  501    0  0.36777621872E+02 -0.13867638077E+01 -0.26550163236E+02  0.49326212008E+03  0.49117012466E+03 0.  0.
         13    1    3    3    0    0 -0.25656459027E+01 -0.20323604572E+03  0.12427456901E+03  0.23823442514E+03  0.00000000000E+00 0.  1.
          1    1    3    3  501    0  0.39343267774E+02  0.20184928192E+03 -0.15082473225E+03  0.25502769494E+03  0.00000000000E+00 0.  1.
         21    1    1    2  502  501 -0.36777621872E+02  0.13867638077E+01  0.73410379236E+01  0.37528754605E+02  0.00000000000E+00 0.  1.
<scales pt_clust_4="550.00000" pt_clust_5="550.00000" pt_clust_6="36.80376"></scales>
<mgrwt>
<rscale>  0 0.30000000E+03</rscale>
<asrwt>  1 0.36803758E+02</asrwt>
<pdfrwt beam="1">  1        1 0.93014864E+00 0.30000000E+03</pdfrwt>
<pdfrwt beam="2">0</pdfrwt>
<totfact> 0.25906823E-05</totfact>
</mgrwt>
<clustering>
<clus scale="   36.804">  1  6  2 -1</clus>
<clus scale="  491.170">  4  5 -1 -1</clus>
<clus scale="  300.000">  1  4  2 -1</clus>
</clustering>
</event>
<event>
 6    1  0.1000035E-011  0.3000000E+03  0.7818608E-02  0.1093470E+00
          1   -1    0    0  502    0  0.00000000000E+00  0.00000000000E+00  0.23886152360E+03  0.23886152360E+03  0.00000000000E+00 0.  1.
         13   -1    0    0    0    0 -0.00000000000E+00 -0.00000000000E+00 -0.27500000000E+03  0.27500000000E+03  0.00000000000E+00 0.  1.
    9000005    2    1    2  501    0 -0.35399656947E+02 -0.20397302490E+02 -0.59255851637E+02  0.46691901942E+03  0.46133819382E+03 0.  0.
         13    1    3    3    0    0 -0.16382371730E+03 -0.12189933940E+03  0.10959104413E+03  0.23174955502E+03  0.00000000000E+00 0.  1.
          3    1    3    3  501    0  0.12842406035E+03  0.10150203691E+03 -0.16884689577E+03  0.23516946440E+03  0.00000000000E+00 0.  1.
         21    1    1    2  502  501  0.35399656947E+02  0.20397302490E+02  0.23117375235E+02  0.46942504179E+02  0.00000000000E+00 0.  1.
<scales pt_clust_4="550.00000" pt_clust_5="550.00000" pt_clust_6="40.85567"></scales>
<mgrwt>
<rscale>  0 0.30000000E+03</rscale>
<asrwt>  1 0.40855669E+02</asrwt>
<pdfrwt beam="1">  1        1 0.86858736E+00 0.30000000E+03</pdfrwt>
<pdfrwt beam="2">0</pdfrwt>
<totfact> 0.25449097E-04</totfact>
</mgrwt>
<clustering>
<clus scale="   40.856">  1  6  2 -1</clus>
<clus scale="  461.338">  4  5 -1 -1</clus>
<clus scale="  300.000">  1  4  2 -1</clus>
</clustering>
</event>
<event>
 6    1  0.1000035E-011  0.3000000E+03  0.7818608E-02  0.1093470E+00
          1   -1    0    0  502    0  0.00000000000E+00  0.00000000000E+00  0.24312095852E+03  0.24312095852E+03  0.00000000000E+00 0.  1.
         13   -1    0    0    0    0 -0.00000000000E+00 -0.00000000000E+00 -0.27500000000E+03  0.27500000000E+03  0.00000000000E+00 0.  1.
    9000005    2    1    2  501    0  0.22976242760E+02 -0.23550410939E+02 -0.66267749192E+02  0.47052775727E+03  0.46467453792E+03 0.  0.
         13    1    3    3    0    0 -0.13653722931E+02  0.86274314522E+02  0.17907443933E+03  0.19924190402E+03  0.00000000000E+00 0.  1.
          3    1    3    3  501    0  0.36629965690E+02 -0.10982472546E+03 -0.24534218852E+03  0.27128585326E+03  0.00000000000E+00 0.  1.
         21    1    1    2  502  501 -0.22976242760E+02  0.23550410939E+02  0.34388707709E+02  0.47593201244E+02  0.00000000000E+00 0. -1.
<scales pt_clust_4="550.00000" pt_clust_5="550.00000" pt_clust_6="32.90182"></scales>
<mgrwt>
<rscale>  0 0.30000000E+03</rscale>
<asrwt>  1 0.32901817E+02</asrwt>
<pdfrwt beam="1">  1        1 0.88407621E+00 0.30000000E+03</pdfrwt>
<pdfrwt beam="2">0</pdfrwt>
<totfact> 0.17674300E-04</totfact>
</mgrwt>
<clustering>
<clus scale="   32.902">  1  6  2 -1</clus>
<clus scale="  464.675">  4  5 -1 -1</clus>
<clus scale="  300.000">  1  4  2 -1</clus>
</clustering>
</event>
<event>
 6    1  0.1000035E-011  0.3000000E+03  0.7818608E-02  0.1093470E+00
          1   -1    0    0  502    0  0.00000000000E+00  0.00000000000E+00  0.23144644667E+03  0.23144644667E+03  0.00000000000E+00 0.  1.
         13   -1    0    0    0    0 -0.00000000000E+00 -0.00000000000E+00 -0.27500000000E+03  0.27500000000E+03  0.00000000000E+00 0.  1.
    9000005    2    1    2  501    0  0.12026956114E+02  0.35505913183E+02 -0.49174606210E+02  0.46853980108E+03  0.46444169253E+03 0.  0.
         13    1    3    3    0    0 -0.48252727710E+02 -0.48179894734E+02 -0.24115497591E+03  0.25060995669E+03  0.00000000000E+00 0.  1.
          1    1    3    3  501    0  0.60279683824E+02  0.83685807917E+02  0.19198036970E+03  0.21792984439E+03  0.00000000000E+00 0.  1.
         21    1    1    2  502  501 -0.12026956114E+02 -0.35505913183E+02  0.56210528836E+01  0.37906645590E+02  0.00000000000E+00 0.  1.
<scales pt_clust_4="550.00000" pt_clust_5="550.00000" pt_clust_6="37.48757"></scales>
<mgrwt>
<rscale>  0 0.30000000E+03</rscale>
<asrwt>  1 0.37487565E+02</asrwt>
<pdfrwt beam="1">  1        1 0.84162344E+00 0.30000000E+03</pdfrwt>
<pdfrwt beam="2">0</pdfrwt>
<totfact> 0.47646950E-04</totfact>
</mgrwt>
<clustering>
<clus scale="   37.488">  1  6  2 -1</clus>
<clus scale="  464.442">  4  5 -1 -1</clus>
<clus scale="  300.000">  1  4  2 -1</clus>
</clustering>
</event>
<event>
 6    1  0.1000035E-011  0.3000000E+03  0.7818608E-02  0.1093470E+00
          1   -1    0    0  502    0  0.00000000000E+00  0.00000000000E+00  0.21968405012E+03  0.21968405012E+03  0.00000000000E+00 0.  1.
         13   -1    0    0    0    0 -0.00000000000E+00 -0.00000000000E+00 -0.27500000000E+03  0.27500000000E+03  0.00000000000E+00 0.  1.
    9000005    2    1    2  501    0 -0.18588001161E+02  0.25830501897E+02 -0.58179467857E+02  0.46273208068E+03  0.45795567405E+03 0.  0.
         13    1    3    3    0    0  0.21180883756E+03 -0.16498134385E+01  0.31164011369E+02  0.21409554213E+03  0.00000000000E+00 0.  1.
          3    1    3    3  501    0 -0.23039683872E+03  0.27480315335E+02 -0.89343479225E+02  0.24863653856E+03  0.00000000000E+00 0.  1.
         21    1    1    2  502  501  0.18588001161E+02 -0.25830501897E+02  0.28635179730E+01  0.31951969432E+02  0.00000000000E+00 0.  1.
<scales pt_clust_4="550.00000" pt_clust_5="550.00000" pt_clust_6="31.82340"></scales>
<mgrwt>
<rscale>  0 0.30000000E+03</rscale>
<asrwt>  1 0.31823397E+02</asrwt>
<pdfrwt beam="1">  1        1 0.79885109E+00 0.30000000E+03</pdfrwt>
<pdfrwt beam="2">0</pdfrwt>
<totfact> 0.10762120E-03</totfact>
</mgrwt>
<clustering>
<clus scale="   31.823">  1  6  2 -1</clus>
<clus scale="  457.956">  4  5 -1 -1</clus>
<clus scale="  300.000">  1  4  2 -1</clus>
</clustering>
</event>
<event>
 6    1  0.1000035E-011  0.3000000E+03  0.7818608E-02  0.1093470E+00
          1   -1    0    0  502    0  0.00000000000E+00  0.00000000000E+00  0.24189432690E+03  0.24189432690E+03  0.00000000000E+00 0.  1.
         13   -1    0    0    0    0 -0.00000000000E+00 -0.00000000000E+00 -0.27500000000E+03  0.27500000000E+03  0.00000000000E+00 0.  1.
    9000005    2    1    2  501    0 -0.41450314825E+02 -0.17030211849E+02 -0.32618713738E+02  0.47207921958E+03  0.46881409147E+03 0.  0.
         13    1    3    3    0    0  0.11275063773E+03  0.16353743056E+03 -0.10388686804E+03  0.22416440140E+03  0.00000000000E+00 0.  1.
          1    1    3    3  501    0 -0.15420095256E+03 -0.18056764241E+03  0.71268154306E+02  0.24791481818E+03  0.00000000000E+00 0.  1.
         21    1    1    2  502  501  0.41450314825E+02  0.17030211849E+02 -0.48695935704E+00  0.44815107320E+02  0.00000000000E+00 0. -1.
<scales pt_clust_4="550.00000" pt_clust_5="550.00000" pt_clust_6="44.81246"></scales>
<mgrwt>
<rscale>  0 0.30000000E+03</rscale>
<asrwt>  1 0.44812462E+02</asrwt>
<pdfrwt beam="1">  1        1 0.87961573E+00 0.30000000E+03</pdfrwt>
<pdfrwt beam="2">0</pdfrwt>
<totfact> 0.19071159E-04</totfact>
</mgrwt>
<clustering>
<clus scale="   44.812">  1  6  2 -1</clus>
<clus scale="  468.814">  4  5 -1 -1</clus>
<clus scale="  300.000">  1  4  2 -1</clus>
</clustering>
</event>
<event>
 6    1  0.1000035E-011  0.3000000E+03  0.7818608E-02  0.1093470E+00
          1   -1    0    0  502    0  0.00000000000E+00  0.00000000000E+00  0.22727344544E+03  0.22727344544E+03  0.00000000000E+00 0.  1.
         13   -1    0    0    0    0 -0.00000000000E+00 -0.00000000000E+00 -0.27500000000E+03  0.27500000000E+03  0.00000000000E+00 0.  1.
    9000005    2    1    2  501    0 -0.35205118703E+02  0.13031133930E+02 -0.54180410312E+02  0.46418324869E+03  0.45947944531E+03 0.  0.
         13    1    3    3    0    0  0.16450250293E+03  0.41324588089E+02  0.11165078932E+03  0.20306327538E+03  0.00000000000E+00 0.  1.
          1    1    3    3  501    0 -0.19970762163E+03 -0.28293454159E+02 -0.16583119963E+03  0.26111997331E+03  0.00000000000E+00 0.  1.
         21    1    1    2  502  501  0.35205118703E+02 -0.13031133930E+02  0.64538557470E+01  0.38090196749E+02  0.00000000000E+00 0. -1.
<scales pt_clust_4="550.00000" pt_clust_5="550.00000" pt_clust_6="37.53946"></scales>
<mgrwt>
<rscale>  0 0.30000000E+03</rscale>
<asrwt>  1 0.37539457E+02</asrwt>
<pdfrwt beam="1">  1        1 0.82644889E+00 0.30000000E+03</pdfrwt>
<pdfrwt beam="2">0</pdfrwt>
<totfact> 0.62587865E-04</totfact>
</mgrwt>
<clustering>
<clus scale="   37.539">  1  6  2 -1</clus>
<clus scale="  459.479">  4  5 -1 -1</clus>
<clus scale="  300.000">  1  4  2 -1</clus>
</clustering>
</event>
<event>
 6    1  0.1000035E-011  0.3000000E+03  0.7818608E-02  0.1093470E+00
          1   -1    0    0  502    0  0.00000000000E+00  0.00000000000E+00  0.23054156105E+03  0.23054156105E+03  0.00000000000E+00 0.  1.
         13   -1    0    0    0    0 -0.00000000000E+00 -0.00000000000E+00 -0.27500000000E+03  0.27500000000E+03  0.00000000000E+00 0.  1.
    9000005    2    1    2  501    0 -0.25517932503E+02  0.18878234579E+02 -0.65856718176E+02  0.46726050864E+03  0.46150592952E+03 0.  0.
         13    1    3    3    0    0 -0.16224973915E+03 -0.11885701415E+03 -0.15477129040E+03  0.25378360861E+03  0.00000000000E+00 0.  1.
          3    1    3    3  501    0  0.13673180665E+03  0.13773524873E+03  0.88914572223E+02  0.21347690003E+03  0.00000000000E+00 0.  1.
         21    1    1    2  502  501  0.25517932503E+02 -0.18878234579E+02  0.21398279224E+02  0.38281052412E+02  0.00000000000E+00 0. -1.
<scales pt_clust_4="550.00000" pt_clust_5="550.00000" pt_clust_6="31.74197"></scales>
<mgrwt>
<rscale>  0 0.30000000E+03</rscale>
<asrwt>  1 0.31741969E+02</asrwt>
<pdfrwt beam="1">  1        1 0.83833295E+00 0.30000000E+03</pdfrwt>
<pdfrwt beam="2">0</pdfrwt>
<totfact> 0.52109881E-04</totfact>
</mgrwt>
<clustering>
<clus scale="   31.742">  1  6  2 -1</clus>
<clus scale="  461.506">  4  5 -1 -1</clus>
<clus scale="  300.000">  1  4  2 -1</clus>
</clustering>
</event>
<event>
 6    1  0.1000035E-011  0.3000000E+03  0.7818608E-02  0.1093470E+00
          1   -1    0    0  502    0  0.00000000000E+00  0.00000000000E+00  0.23004750783E+03  0.23004750783E+03  0.00000000000E+00 0.  1.
         13   -1    0    0    0    0 -0.00000000000E+00 -0.00000000000E+00 -0.27500000000E+03  0.27500000000E+03  0.00000000000E+00 0.  1.
    9000005    2    1    2  501    0 -0.14138391240E+01 -0.31140382662E+02 -0.69586602721E+02  0.46531638934E+03  0.45902649656E+03 0.  0.
         13    1    3    3    0    0 -0.18575151119E+03  0.71889102294E+02 -0.13915870278E+03  0.24297491948E+03  0.00000000000E+00 0.  1.
          3    1    3    3  501    0  0.18433767206E+03 -0.10302948496E+03  0.69572100063E+02  0.22234146986E+03  0.00000000000E+00 0.  1.
         21    1    1    2  502  501  0.14138391240E+01  0.31140382662E+02  0.24634110547E+02  0.39731118482E+02  0.00000000000E+00 0. -1.
<scales pt_clust_4="550.00000" pt_clust_5="550.00000" pt_clust_6="31.17246"></scales>
<mgrwt>
<rscale>  0 0.30000000E+03</rscale>
<asrwt>  1 0.31172462E+02</asrwt>
<pdfrwt beam="1">  1        1 0.83653639E+00 0.30000000E+03</pdfrwt>
<pdfrwt beam="2">0</pdfrwt>
<totfact> 0.53893270E-04</totfact>
</mgrwt>
<clustering>
<clus scale="   31.172">  1  6  2 -1</clus>
<clus scale="  459.026">  4  5 -1 -1</clus>
<clus scale="  300.000">  1  4  2 -1</clus>
</clustering>
</event>
<event>
 6    1  0.1000035E-011  0.3000000E+03  0.7818608E-02  0.1093470E+00
          1   -1    0    0  502    0  0.00000000000E+00  0.00000000000E+00  0.23202149663E+03  0.23202149663E+03  0.00000000000E+00 0.  1.
         13   -1    0    0    0    0 -0.00000000000E+00 -0.00000000000E+00 -0.27500000000E+03  0.27500000000E+03  0.00000000000E+00 0.  1.
    9000005    2    1    2  501    0 -0.30120483053E+02 -0.29126254898E+01 -0.54695667935E+02  0.47457124498E+03  0.47043652450E+03 0.  0.
         13    1    3    3    0    0  0.15775678445E+03  0.14375168715E+03 -0.93637714017E+02  0.23306602516E+03  0.00000000000E+00 0.  1.
          1    1    3    3  501    0 -0.18787726751E+03 -0.14666431264E+03  0.38942046081E+02  0.24150521982E+03  0.00000000000E+00 0.  1.
         21    1    1    2  502  501  0.30120483053E+02  0.29126254898E+01  0.11717164566E+02  0.32450251649E+02  0.00000000000E+00 0.  1.
<scales pt_clust_4="550.00000" pt_clust_5="550.00000" pt_clust_6="30.26098"></scales>
<mgrwt>
<rscale>  0 0.30000000E+03</rscale>
<asrwt>  1 0.30260980E+02</asrwt>
<pdfrwt beam="1">  1        1 0.84371453E+00 0.30000000E+03</pdfrwt>
<pdfrwt beam="2">0</pdfrwt>
<totfact> 0.47649451E-04</totfact>
</mgrwt>
<clustering>
<clus scale="   30.261">  1  6  2 -1</clus>
<clus scale="  470.437">  4  5 -1 -1</clus>
<clus scale="  300.000">  1  4  2 -1</clus>
</clustering>
</event>
<event>
 6    1  0.1000035E-011  0.3000000E+03  0.7818608E-02  0.1093470E+00
          1   -1    0    0  502    0  0.00000000000E+00  0.00000000000E+00  0.21952424033E+03  0.21952424033E+03  0.00000000000E+00 0.  1.
         13   -1    0    0    0    0 -0.00000000000E+00 -0.00000000000E+00 -0.27500000000E+03  0.27500000000E+03  0.00000000000E+00 0.  1.
    9000005    2    1    2  501    0 -0.15121073969E+01  0.31689265164E+02 -0.39849737665E+02  0.45915944768E+03  0.45632543300E+03 0.  0.
         13    1    3    3    0    0  0.13026406565E+03  0.12786586617E+03  0.12965951147E+03  0.22389728772E+03  0.00000000000E+00 0.  1.
          1    1    3    3  501    0 -0.13177617305E+03 -0.96176601010E+02 -0.16950924914E+03  0.23526215996E+03  0.00000000000E+00 0.  1.
         21    1    1    2  502  501  0.15121073969E+01 -0.31689265164E+02 -0.15626022006E+02  0.35364792650E+02  0.00000000000E+00 0.  1.
<scales pt_clust_4="550.00000" pt_clust_5="550.00000" pt_clust_6="31.72534"></scales>
<mgrwt>
<rscale>  0 0.30000000E+03</rscale>
<asrwt>  1 0.31725337E+02</asrwt>
<pdfrwt beam="1">  1        1 0.79826996E+00 0.30000000E+03</pdfrwt>
<pdfrwt beam="2">0</pdfrwt>
<totfact> 0.10873416E-03</totfact>
</mgrwt>
<clustering>
<clus scale="   31.725">  1  6  2 -1</clus>
<clus scale="  456.325">  4  5 -1 -1</clus>
<clus scale="  300.000">  1  4  2 -1</clus>
</clustering>
</event>
<event>
 6    1  0.1000035E-011  0.3000000E+03  0.7818608E-02  0.1093470E+00
          1   -1    0    0  502    0  0.00000000000E+00  0.00000000000E+00  0.24287514546E+03  0.24287514546E+03  0.00000000000E+00 0.  1.
         13   -1    0    0    0    0 -0.00000000000E+00 -0.00000000000E+00 -0.27500000000E+03  0.27500000000E+03  0.00000000000E+00 0.  1.
    9000005    2    1    2  501    0 -0.28530208880E+02  0.13526094079E+02 -0.71511809759E+02  0.46739484949E+03  0.46081132620E+03 0.  0.
         13    1    3    3    0    0 -0.25373937900E+02 -0.20387600477E+03  0.59068096694E+02  0.21377161199E+03  0.00000000000E+00 0.  1.
          3    1    3    3  501    0 -0.31562709807E+01  0.21740209885E+03 -0.13057990645E+03  0.25362323750E+03  0.00000000000E+00 0.  1.
         21    1    1    2  502  501  0.28530208880E+02 -0.13526094079E+02  0.39386955223E+02  0.50480295973E+02  0.00000000000E+00 0. -1.
<scales pt_clust_4="550.00000" pt_clust_5="550.00000" pt_clust_6="31.57417"></scales>
<mgrwt>
<rscale>  0 0.30000000E+03</rscale>
<asrwt>  1 0.31574167E+02</asrwt>
<pdfrwt beam="1">  1        1 0.88318235E+00 0.30000000E+03</pdfrwt>
<pdfrwt beam="2">0</pdfrwt>
<totfact> 0.18313289E-04</totfact>
</mgrwt>
<clustering>
<clus scale="   31.574">  1  6  2 -1</clus>
<clus scale="  460.811">  4  5 -1 -1</clus>
<clus scale="  300.000">  1  4  2 -1</clus>
</clustering>
</event>
<event>
 6    1  0.1000035E-011  0.3000000E+03  0.7818608E-02  0.1093470E+00
          1   -1    0    0  502    0  0.00000000000E+00  0.00000000000E+00  0.24261292004E+03  0.24261292004E+03  0.00000000000E+00 0.  1.
         13   -1    0    0    0    0 -0.00000000000E+00 -0.00000000000E+00 -0.27500000000E+03  0.27500000000E+03  0.00000000000E+00 0.  1.
    9000005    2    1    2  501    0 -0.39003377718E+02  0.20492107153E+02 -0.57663689467E+02  0.46681826562E+03  0.46114314709E+03 0.  0.
         13    1    3    3    0    0 -0.11707777303E+03 -0.14732465461E+02 -0.23884882233E+03  0.26640760201E+03  0.00000000000E+00 0.  1.
          3    1    3    3  501    0  0.78074395315E+02  0.35224572614E+02  0.18118513287E+03  0.20041066362E+03  0.00000000000E+00 0.  1.
         21    1    1    2  502  501  0.39003377718E+02 -0.20492107153E+02  0.25276609505E+02  0.50794654414E+02  0.00000000000E+00 0. -1.
<scales pt_clust_4="550.00000" pt_clust_5="550.00000" pt_clust_6="44.05894"></scales>
<mgrwt>
<rscale>  0 0.30000000E+03</rscale>
<asrwt>  1 0.44058937E+02</asrwt>
<pdfrwt beam="1">  1        1 0.88222880E+00 0.30000000E+03</pdfrwt>
<pdfrwt beam="2">0</pdfrwt>
<totfact> 0.17726615E-04</totfact>
</mgrwt>
<clustering>
<clus scale="   44.059">  1  6  2 -1</clus>
<clus scale="  461.143">  4  5 -1 -1</clus>
<clus scale="  300.000">  1  4  2 -1</clus>
</clustering>
</event>
<event>
 6    1  0.1000035E-011  0.3000000E+03  0.7818608E-02  0.1093470E+00
          1   -1    0    0  502    0  0.00000000000E+00  0.00000000000E+00  0.22878504488E+03  0.22878504488E+03  0.00000000000E+00 0.  1.
         13   -1    0    0    0    0 -0.00000000000E+00 -0.00000000000E+00 -0.27500000000E+03  0.27500000000E+03  0.00000000000E+00 0.  1.
    9000005    2    1    2  501    0 -0.20344765174E+02  0.23813016521E+02 -0.66776740155E+02  0.46631830990E+03  0.46044832924E+03 0.  0.
         13    1    3    3    0    0  0.21564721804E+03 -0.31915246892E+02 -0.47194170522E+02  0.22304617316E+03  0.00000000000E+00 0.  1.
          3    1    3    3  501    0 -0.23599198321E+03  0.55728263412E+02 -0.19582569633E+02  0.24327213674E+03  0.00000000000E+00 0.  1.
         21    1    1    2  502  501  0.20344765174E+02 -0.23813016521E+02  0.20561785031E+02  0.37466734972E+02  0.00000000000E+00 0.  1.
<scales pt_clust_4="550.00000" pt_clust_5="550.00000" pt_clust_6="31.32043"></scales>
<mgrwt>
<rscale>  0 0.30000000E+03</rscale>
<asrwt>  1 0.31320428E+02</asrwt>
<pdfrwt beam="1">  1        1 0.83194562E+00 0.30000000E+03</pdfrwt>
<pdfrwt beam="2">0</pdfrwt>
<totfact> 0.58233417E-04</totfact>
</mgrwt>
<clustering>
<clus scale="   31.320">  1  6  2 -1</clus>
<clus scale="  460.448">  4  5 -1 -1</clus>
<clus scale="  300.000">  1  4  2 -1</clus>
</clustering>
</event>
<event>
 6    1  0.1000035E-011  0.3000000E+03  0.7818608E-02  0.1093470E+00
          1   -1    0    0  502    0  0.00000000000E+00  0.00000000000E+00  0.25379964080E+03  0.25379964080E+03  0.00000000000E+00 0.  1.
         13   -1    0    0    0    0 -0.00000000000E+00 -0.00000000000E+00 -0.27500000000E+03  0.27500000000E+03  0.00000000000E+00 0.  1.
    9000005    2    1    2  501    0  0.42881788678E+02 -0.13833160062E+02 -0.46693878208E+02  0.47702973034E+03  0.47259585403E+03 0.  0.
         13    1    3    3    0    0  0.57018365759E+02 -0.23580883569E+03 -0.72266843237E+02  0.25313908757E+03  0.00000000000E+00 0.  1.
          1    1    3    3  501    0 -0.14136577081E+02  0.22197567563E+03  0.25572965029E+02  0.22389064277E+03  0.00000000000E+00 0.  1.
         21    1    1    2  502  501 -0.42881788678E+02  0.13833160062E+02  0.25493519005E+02  0.51769910458E+02  0.00000000000E+00 0. -1.
<scales pt_clust_4="550.00000" pt_clust_5="550.00000" pt_clust_6="45.05779"></scales>
<mgrwt>
<rscale>  0 0.30000000E+03</rscale>
<asrwt>  1 0.45057786E+02</asrwt>
<pdfrwt beam="1">  1        1 0.92290778E+00 0.30000000E+03</pdfrwt>
<pdfrwt beam="2">0</pdfrwt>
<totfact> 0.34608936E-05</totfact>
</mgrwt>
<clustering>
<clus scale="   45.058">  1  6  2 -1</clus>
<clus scale="  472.596">  4  5 -1 -1</clus>
<clus scale="  300.000">  1  4  2 -1</clus>
</clustering>
</event>
<event>
 6    1  0.1000035E-011  0.3000000E+03  0.7818608E-02  0.1093470E+00
          1   -1    0    0  502    0  0.00000000000E+00  0.00000000000E+00  0.23781788107E+03  0.23781788107E+03  0.00000000000E+00 0.  1.
         13   -1    0    0    0    0 -0.00000000000E+00 -0.00000000000E+00 -0.27500000000E+03  0.27500000000E+03  0.00000000000E+00 0.  1.
    9000005    2    1    2  501    0 -0.26154154126E+02  0.17409415012E+02 -0.70305342348E+02  0.46716401553E+03  0.46077353302E+03 0.  0.
         13    1    3    3    0    0  0.17066781325E+03 -0.54920331564E+01 -0.17377171167E+03  0.24362732335E+03  0.00000000000E+00 0.  1.
          1    1    3    3  501    0 -0.19682196738E+03  0.22901448168E+02  0.10346636932E+03  0.22353669218E+03  0.00000000000E+00 0.  1.
         21    1    1    2  502  501  0.26154154126E+02 -0.17409415012E+02  0.33123223421E+02  0.45653865542E+02  0.00000000000E+00 0.  1.
<scales pt_clust_4="550.00000" pt_clust_5="550.00000" pt_clust_6="31.41859"></scales>
<mgrwt>
<rscale>  0 0.30000000E+03</rscale>
<asrwt>  1 0.31418585E+02</asrwt>
<pdfrwt beam="1">  1        1 0.86479229E+00 0.30000000E+03</pdfrwt>
<pdfrwt beam="2">0</pdfrwt>
<totfact> 0.29309326E-04</totfact>
</mgrwt>
<clustering>
<clus scale="   31.419">  1  6  2 -1</clus>
<clus scale="  460.774">  4  5 -1 -1</clus>
<clus scale="  300.000">  1  4  2 -1</clus>
</clustering>
</event>
<event>
 6    1  0.1000035E-011  0.3000000E+03  0.7818608E-02  0.1093470E+00
          1   -1    0    0  502    0  0.00000000000E+00  0.00000000000E+00  0.24970974350E+03  0.24970974350E+03  0.00000000000E+00 0.  1.
         13   -1    0    0    0    0 -0.00000000000E+00 -0.00000000000E+00 -0.27500000000E+03  0.27500000000E+03  0.00000000000E+00 0.  1.
    9000005    2    1    2  501    0 -0.44478014866E+02 -0.66645034593E+01 -0.49077641835E+02  0.47383195744E+03  0.46913260338E+03 0.  0.
         13    1    3    3    0    0 -0.14264801213E+03  0.72934164959E+02  0.16197944324E+03  0.22782710071E+03  0.00000000000E+00 0.  1.
          3    1    3    3  501    0  0.98169997263E+02 -0.79598668419E+02 -0.21105708508E+03  0.24600485674E+03  0.00000000000E+00 0.  1.
         21    1    1    2  502  501  0.44478014866E+02  0.66645034593E+01  0.23787385332E+02  0.50877786054E+02  0.00000000000E+00 0.  1.
<scales pt_clust_4="550.00000" pt_clust_5="550.00000" pt_clust_6="44.97454"></scales>
<mgrwt>
<rscale>  0 0.30000000E+03</rscale>
<asrwt>  1 0.44974542E+02</asrwt>
<pdfrwt beam="1">  1        1 0.90803543E+00 0.30000000E+03</pdfrwt>
<pdfrwt beam="2">0</pdfrwt>
<totfact> 0.76346972E-05</totfact>
</mgrwt>
<clustering>
<clus scale="   44.975">  1  6  2 -1</clus>
<clus scale="  469.133">  4  5 -1 -1</clus>
<clus scale="  300.000">  1  4  2 -1</clus>
</clustering>
</event>
<event>
 6    1  0.1000035E-011  0.3000000E+03  0.7818608E-02  0.1093470E+00
          1   -1    0    0  502    0  0.00000000000E+00  0.00000000000E+00  0.22261267944E+03  0.22261267944E+03  0.00000000000E+00 0.  1.
         13   -1    0    0    0    0 -0.00000000000E+00 -0.00000000000E+00 -0.27500000000E+03  0.27500000000E+03  0.00000000000E+00 0.  1.
    9000005    2    1    2  501    0 -0.29173666688E+02 -0.80346933039E+01 -0.64084806943E+02  0.46517057235E+03  0.45974029601E+03 0.  0.
         13    1    3    3    0    0  0.19565592822E+03  0.22351440546E+02 -0.12117604893E+03  0.23122383955E+03  0.00000000000E+00 0.  1.
          1    1    3    3  501    0 -0.22482959491E+03 -0.30386133850E+02  0.57091241992E+02  0.23394673280E+03  0.00000000000E+00 0.  1.
         21    1    1    2  502  501  0.29173666688E+02  0.80346933039E+01  0.11697486381E+02  0.32442107086E+02  0.00000000000E+00 0. -1.
<scales pt_clust_4="550.00000" pt_clust_5="550.00000" pt_clust_6="30.25986"></scales>
<mgrwt>
<rscale>  0 0.30000000E+03</rscale>
<asrwt>  1 0.30259860E+02</asrwt>
<pdfrwt beam="1">  1        1 0.80950065E+00 0.30000000E+03</pdfrwt>
<pdfrwt beam="2">0</pdfrwt>
<totfact> 0.90461029E-04</totfact>
</mgrwt>
<clustering>
<clus scale="   30.260">  1  6  2 -1</clus>
<clus scale="  459.740">  4  5 -1 -1</clus>
<clus scale="  300.000">  1  4  2 -1</clus>
</clustering>
</event>
<event>
 6    1  0.1000035E-011  0.3000000E+03  0.7818608E-02  0.1093470E+00
          1   -1    0    0  502    0  0.00000000000E+00  0.00000000000E+00  0.23092644109E+03  0.23092644109E+03  0.00000000000E+00 0.  1.
         13   -1    0    0    0    0 -0.00000000000E+00 -0.00000000000E+00 -0.27500000000E+03  0.27500000000E+03  0.00000000000E+00 0.  1.
    9000005    2    1    2  501    0  0.30131486759E+02 -0.26224641669E+02 -0.41383587162E+02  0.46589052879E+03  0.46232644874E+03 0.  0.
         13    1    3    3    0    0 -0.21009489206E+03 -0.12284415931E+02 -0.73946118343E+02  0.22306680382E+03  0.00000000000E+00 0.  1.
          1    1    3    3  501    0  0.24022637882E+03 -0.13940225738E+02  0.32562531181E+02  0.24282372498E+03  0.00000000000E+00 0.  1.
         21    1    1    2  502  501 -0.30131486759E+02  0.26224641669E+02 -0.26899717524E+01  0.40035912291E+02  0.00000000000E+00 0.  1.
<scales pt_clust_4="550.00000" pt_clust_5="550.00000" pt_clust_6="39.94544"></scales>
<mgrwt>
<rscale>  0 0.30000000E+03</rscale>
<asrwt>  1 0.39945442E+02</asrwt>
<pdfrwt beam="1">  1        1 0.83973251E+00 0.30000000E+03</pdfrwt>
<pdfrwt beam="2">0</pdfrwt>
<totfact> 0.48733928E-04</totfact>
</mgrwt>
<clustering>
<clus scale="   39.945">  1  6  2 -1</clus>
<clus scale="  462.326">  4  5 -1 -1</clus>
<clus scale="  300.000">  1  4  2 -1</clus>
</clustering>
</event>
<event>
 6    1  0.1000035E-011  0.3000000E+03  0.7818608E-02  0.1093470E+00
          1   -1    0    0  502    0  0.00000000000E+00  0.00000000000E+00  0.24086715708E+03  0.24086715708E+03  0.00000000000E+00 0.  1.
         13   -1    0    0    0    0 -0.00000000000E+00 -0.00000000000E+00 -0.27500000000E+03  0.27500000000E+03  0.00000000000E+00 0.  1.
    9000005    2    1    2  501    0 -0.19638109544E+02  0.35659954543E+02 -0.36720553030E+02  0.47507519772E+03  0.47190121506E+03 0.  0.
         13    1    3    3    0    0  0.37907273020E+02  0.17947436093E+03  0.14678439435E+03  0.23493332246E+03  0.00000000000E+00 0.  1.
          3    1    3    3  501    0 -0.57545382564E+02 -0.14381440639E+03 -0.18350494738E+03  0.24014187526E+03  0.00000000000E+00 0.  1.
         21    1    1    2  502  501  0.19638109544E+02 -0.35659954543E+02  0.25877101088E+01  0.40791959356E+02  0.00000000000E+00 0.  1.
<scales pt_clust_4="550.00000" pt_clust_5="550.00000" pt_clust_6="40.70980"></scales>
<mgrwt>
<rscale>  0 0.30000000E+03</rscale>
<asrwt>  1 0.40709799E+02</asrwt>
<pdfrwt beam="1">  1        1 0.87588057E+00 0.30000000E+03</pdfrwt>
<pdfrwt beam="2">0</pdfrwt>
<totfact> 0.21405966E-04</totfact>
</mgrwt>
<clustering>
<clus scale="   40.710">  1  6  2 -1</clus>
<clus scale="  471.901">  4  5 -1 -1</clus>
<clus scale="  300.000">  1  4  2 -1</clus>
</clustering>
</event>
<event>
 6    1  0.1000035E-011  0.3000000E+03  0.7818608E-02  0.1093470E+00
          1   -1    0    0  502    0  0.00000000000E+00  0.00000000000E+00  0.25122599381E+03  0.25122599381E+03  0.00000000000E+00 0.  1.
         13   -1    0    0    0    0 -0.00000000000E+00 -0.00000000000E+00 -0.27500000000E+03  0.27500000000E+03  0.00000000000E+00 0.  1.
    9000005    2    1    2  501    0 -0.59587411649E+01 -0.36827403815E+02 -0.49066308091E+02  0.48115421990E+03  0.47718981178E+03 0.  0.
         13    1    3    3    0    0  0.84430223473E+02  0.17113266636E+03  0.94324599567E+02  0.21286611335E+03  0.00000000000E+00 0.  1.
          3    1    3    3  501    0 -0.90388964638E+02 -0.20796007017E+03 -0.14339090766E+03  0.26828810655E+03  0.00000000000E+00 0.  1.
         21    1    1    2  502  501  0.59587411649E+01  0.36827403815E+02  0.25292301902E+02  0.45071773911E+02  0.00000000000E+00 0.  1.
<scales pt_clust_4="550.00000" pt_clust_5="550.00000" pt_clust_6="37.30636"></scales>
<mgrwt>
<rscale>  0 0.30000000E+03</rscale>
<asrwt>  1 0.37306357E+02</asrwt>
<pdfrwt beam="1">  1        1 0.91354907E+00 0.30000000E+03</pdfrwt>
<pdfrwt beam="2">0</pdfrwt>
<totfact> 0.57964649E-05</totfact>
</mgrwt>
<clustering>
<clus scale="   37.306">  1  6  2 -1</clus>
<clus scale="  477.190">  4  5 -1 -1</clus>
<clus scale="  300.000">  1  4  2 -1</clus>
</clustering>
</event>
<event>
 6    1  0.1000035E-011  0.3000000E+03  0.7818608E-02  0.1093470E+00
          1   -1    0    0  502    0  0.00000000000E+00  0.00000000000E+00  0.23875047679E+03  0.23875047679E+03  0.00000000000E+00 0.  1.
         13   -1    0    0    0    0 -0.00000000000E+00 -0.00000000000E+00 -0.27500000000E+03  0.27500000000E+03  0.00000000000E+00 0.  1.
    9000005    2    1    2  501    0  0.17725110542E+02 -0.25096463778E+02 -0.42068098297E+02  0.48247959810E+03  0.47965907231E+03 0.  0.
         13    1    3    3    0    0  0.86474747184E+02  0.20794088748E+03  0.34280973873E+02  0.22779920930E+03  0.00000000000E+00 0.  1.
          3    1    3    3  501    0 -0.68749636642E+02 -0.23303735126E+03 -0.76349072170E+02  0.25468038880E+03  0.00000000000E+00 0.  1.
         21    1    1    2  502  501 -0.17725110542E+02  0.25096463778E+02  0.58185750873E+01  0.31270878689E+02  0.00000000000E+00 0.  1.
<scales pt_clust_4="550.00000" pt_clust_5="550.00000" pt_clust_6="30.72478"></scales>
<mgrwt>
<rscale>  0 0.30000000E+03</rscale>
<asrwt>  1 0.30724779E+02</asrwt>
<pdfrwt beam="1">  1        1 0.86818355E+00 0.30000000E+03</pdfrwt>
<pdfrwt beam="2">0</pdfrwt>
<totfact> 0.27098863E-04</totfact>
</mgrwt>
<clustering>
<clus scale="   30.725">  1  6  2 -1</clus>
<clus scale="  479.659">  4  5 -1 -1</clus>
<clus scale="  300.000">  1  4  2 -1</clus>
</clustering>
</event>
<event>
 6    1  0.1000035E-011  0.3000000E+03  0.7818608E-02  0.1093470E+00
          1   -1    0    0  502    0  0.00000000000E+00  0.00000000000E+00  0.22796278431E+03  0.22796278431E+03  0.00000000000E+00 0.  1.
         13   -1    0    0    0    0 -0.00000000000E+00 -0.00000000000E+00 -0.27500000000E+03  0.27500000000E+03  0.00000000000E+00 0.  1.
    9000005    2    1    2  501    0  0.27533491505E+02  0.14657996282E+02 -0.48403152844E+02  0.47174074412E+03  0.46821310794E+03 0.  0.
         13    1    3    3    0    0  0.12498602214E+03  0.72731631471E+02 -0.22165313730E+03  0.26465356454E+03  0.00000000000E+00 0.  1.
          3    1    3    3  501    0 -0.97452530638E+02 -0.58073635189E+02  0.17324998446E+03  0.20708717958E+03  0.00000000000E+00 0.  1.
         21    1    1    2  502  501 -0.27533491505E+02 -0.14657996282E+02  0.13659371559E+01  0.31222040192E+02  0.00000000000E+00 0.  1.
<scales pt_clust_4="550.00000" pt_clust_5="550.00000" pt_clust_6="31.19215"></scales>
<mgrwt>
<rscale>  0 0.30000000E+03</rscale>
<asrwt>  1 0.31192147E+02</asrwt>
<pdfrwt beam="1">  1        1 0.82895558E+00 0.30000000E+03</pdfrwt>
<pdfrwt beam="2">0</pdfrwt>
<totfact> 0.61632408E-04</totfact>
</mgrwt>
<clustering>
<clus scale="   31.192">  1  6  2 -1</clus>
<clus scale="  468.213">  4  5 -1 -1</clus>
<clus scale="  300.000">  1  4  2 -1</clus>
</clustering>
</event>
<event>
 6    1  0.1000035E-011  0.3000000E+03  0.7818608E-02  0.1093470E+00
          1   -1    0    0  502    0  0.00000000000E+00  0.00000000000E+00  0.27125920712E+03  0.27125920712E+03  0.00000000000E+00 0.  1.
         13   -1    0    0    0    0 -0.00000000000E+00 -0.00000000000E+00 -0.27500000000E+03  0.27500000000E+03  0.00000000000E+00 0.  1.
    9000005    2    1    2  501    0  0.44655128915E+02 -0.24988751057E+02 -0.35642992672E+02  0.48595772646E+03  0.48193979994E+03 0.  0.
         13    1    3    3    0    0 -0.20328205997E+03  0.54285996063E+02  0.41511522612E+02  0.21446158580E+03  0.00000000000E+00 0.  1.
          3    1    3    3  501    0  0.24793718889E+03 -0.79274747120E+02 -0.77154515284E+02  0.27149614066E+03  0.00000000000E+00 0.  1.
         21    1    1    2  502  501 -0.44655128915E+02  0.24988751057E+02  0.31902199792E+02  0.60301480656E+02  0.00000000000E+00 0. -1.
<scales pt_clust_4="550.00000" pt_clust_5="550.00000" pt_clust_6="51.17146"></scales>
<mgrwt>
<rscale>  0 0.30000000E+03</rscale>
<asrwt>  1 0.51171459E+02</asrwt>
<pdfrwt beam="1">  1        1 0.98639712E+00 0.30000000E+03</pdfrwt>
<pdfrwt beam="2">0</pdfrwt>
<totfact> 0.12163729E-06</totfact>
</mgrwt>
<clustering>
<clus scale="   51.171">  1  6  2 -1</clus>
<clus scale="  481.940">  4  5 -1 -1</clus>
<clus scale="  300.000">  1  4  2 -1</clus>
</clustering>
</event>
<event>
 6    1  0.1000035E-011  0.3000000E+03  0.7818608E-02  0.1093470E+00
          1   -1    0    0  502    0  0.00000000000E+00  0.00000000000E+00  0.23554969753E+03  0.23554969753E+03  0.00000000000E+00 0.  1.
         13   -1    0    0    0    0 -0.00000000000E+00 -0.00000000000E+00 -0.27500000000E+03  0.27500000000E+03  0.00000000000E+00 0.  1.
    9000005    2    1    2  501    0 -0.19546131962E+02  0.36086319701E+02 -0.48105657358E+02  0.46860701149E+03  0.46432112078E+03 0.  0.
         13    1    3    3    0    0 -0.20750857858E+03 -0.80710709169E+02 -0.95541108251E+02  0.24228522886E+03  0.00000000000E+00 0.  1.
          1    1    3    3  501    0  0.18796244662E+03  0.11679702887E+03  0.47435450893E+02  0.22632178263E+03  0.00000000000E+00 0.  1.
         21    1    1    2  502  501  0.19546131962E+02 -0.36086319701E+02  0.86553548914E+01  0.41942686044E+02  0.00000000000E+00 0.  1.
<scales pt_clust_4="550.00000" pt_clust_5="550.00000" pt_clust_6="41.03990"></scales>
<mgrwt>
<rscale>  0 0.30000000E+03</rscale>
<asrwt>  1 0.41039904E+02</asrwt>
<pdfrwt beam="1">  1        1 0.85654435E+00 0.30000000E+03</pdfrwt>
<pdfrwt beam="2">0</pdfrwt>
<totfact> 0.34136594E-04</totfact>
</mgrwt>
<clustering>
<clus scale="   41.040">  1  6  2 -1</clus>
<clus scale="  464.321">  4  5 -1 -1</clus>
<clus scale="  300.000">  1  4  2 -1</clus>
</clustering>
</event>
<event>
 6    1  0.1000035E-011  0.3000000E+03  0.7818608E-02  0.1093470E+00
          1   -1    0    0  502    0  0.00000000000E+00  0.00000000000E+00  0.23663699725E+03  0.23663699725E+03  0.00000000000E+00 0.  1.
         13   -1    0    0    0    0 -0.00000000000E+00 -0.00000000000E+00 -0.27500000000E+03  0.27500000000E+03  0.00000000000E+00 0.  1.
    9000005    2    1    2  501    0 -0.32617061020E+02 -0.17687264577E+02 -0.55281303630E+02  0.47085782484E+03  0.46612697485E+03 0.  0.
         13    1    3    3    0    0 -0.21737686820E+03  0.17213049501E+02 -0.14566495510E+03  0.26223514457E+03  0.00000000000E+00 0.  1.
          1    1    3    3  501    0  0.18475980718E+03 -0.34900314078E+02  0.90383651474E+02  0.20862268027E+03  0.00000000000E+00 0.  1.
         21    1    1    2  502  501  0.32617061020E+02  0.17687264577E+02  0.16918300879E+02  0.40779172409E+02  0.00000000000E+00 0.  1.
<scales pt_clust_4="550.00000" pt_clust_5="550.00000" pt_clust_6="37.10407"></scales>
<mgrwt>
<rscale>  0 0.30000000E+03</rscale>
<asrwt>  1 0.37104070E+02</asrwt>
<pdfrwt beam="1">  1        1 0.86049817E+00 0.30000000E+03</pdfrwt>
<pdfrwt beam="2">0</pdfrwt>
<totfact> 0.31606902E-04</totfact>
</mgrwt>
<clustering>
<clus scale="   37.104">  1  6  2 -1</clus>
<clus scale="  466.127">  4  5 -1 -1</clus>
<clus scale="  300.000">  1  4  2 -1</clus>
</clustering>
</event>
<event>
 6    1  0.1000035E-011  0.3000000E+03  0.7818608E-02  0.1093470E+00
          1   -1    0    0  502    0  0.00000000000E+00  0.00000000000E+00  0.23591993682E+03  0.23591993682E+03  0.00000000000E+00 0.  1.
         13   -1    0    0    0    0 -0.00000000000E+00 -0.00000000000E+00 -0.27500000000E+03  0.27500000000E+03  0.00000000000E+00 0.  1.
    9000005    2    1    2  501    0 -0.37970730884E+02 -0.17851612860E+02 -0.39439001438E+02  0.46896060744E+03  0.46541181765E+03 0.  0.
         13    1    3    3    0    0 -0.82432662415E+02  0.17578925501E+03  0.10742314924E+03  0.22189353078E+03  0.00000000000E+00 0.  1.
          3    1    3    3  501    0  0.44461931531E+02 -0.19364086787E+03 -0.14686215068E+03  0.24706707666E+03  0.00000000000E+00 0.  1.
         21    1    1    2  502  501  0.37970730884E+02  0.17851612860E+02  0.35893826195E+00  0.41959329382E+02  0.00000000000E+00 0.  1.
<scales pt_clust_4="550.00000" pt_clust_5="550.00000" pt_clust_6="41.95779"></scales>
<mgrwt>
<rscale>  0 0.30000000E+03</rscale>
<asrwt>  1 0.41957794E+02</asrwt>
<pdfrwt beam="1">  1        1 0.85789068E+00 0.30000000E+03</pdfrwt>
<pdfrwt beam="2">0</pdfrwt>
<totfact> 0.32930357E-04</totfact>
</mgrwt>
<clustering>
<clus scale="   41.958">  1  6  2 -1</clus>
<clus scale="  465.412">  4  5 -1 -1</clus>
<clus scale="  300.000">  1  4  2 -1</clus>
</clustering>
</event>
<event>
 6    1  0.1000035E-011  0.3000000E+03  0.7818608E-02  0.1093470E+00
          1   -1    0    0  502    0  0.00000000000E+00  0.00000000000E+00  0.23149410280E+03  0.23149410280E+03  0.00000000000E+00 0.  1.
         13   -1    0    0    0    0 -0.00000000000E+00 -0.00000000000E+00 -0.27500000000E+03  0.27500000000E+03  0.00000000000E+00 0.  1.
    9000005    2    1    2  501    0  0.47934030623E+01  0.31261005805E+02 -0.46574648419E+02  0.47471920027E+03  0.47136916958E+03 0.  0.
         13    1    3    3    0    0  0.18073070568E+02 -0.14571534378E+03  0.14998527241E+03  0.20989325676E+03  0.00000000000E+00 0.  1.
          3    1    3    3  501    0 -0.13279667506E+02  0.17697634958E+03 -0.19655992083E+03  0.26482594351E+03  0.00000000000E+00 0.  1.
         21    1    1    2  502  501 -0.47934030623E+01 -0.31261005805E+02  0.30687512188E+01  0.31774902532E+02  0.00000000000E+00 0.  1.
<scales pt_clust_4="550.00000" pt_clust_5="550.00000" pt_clust_6="31.62637"></scales>
<mgrwt>
<rscale>  0 0.30000000E+03</rscale>
<asrwt>  1 0.31626369E+02</asrwt>
<pdfrwt beam="1">  1        1 0.84179674E+00 0.30000000E+03</pdfrwt>
<pdfrwt beam="2">0</pdfrwt>
<totfact> 0.49031102E-04</totfact>
</mgrwt>
<clustering>
<clus scale="   31.626">  1  6  2 -1</clus>
<clus scale="  471.369">  4  5 -1 -1</clus>
<clus scale="  300.000">  1  4  2 -1</clus>
</clustering>
</event>
<event>
 6    1  0.1000035E-011  0.3000000E+03  0.7818608E-02  0.1093470E+00
          1   -1    0    0  502    0  0.00000000000E+00  0.00000000000E+00  0.22178778307E+03  0.22178778307E+03  0.00000000000E+00 0.  1.
         13   -1    0    0    0    0 -0.00000000000E+00 -0.00000000000E+00 -0.27500000000E+03  0.27500000000E+03  0.00000000000E+00 0.  1.
    9000005    2    1    2  501    0  0.90858917608E+01  0.28933842815E+02 -0.64879198634E+02  0.46429410444E+03  0.45873738055E+03 0.  0.
         13    1    3    3    0    0  0.17318393715E+03  0.45095459457E+02  0.12084077140E+03  0.21593695511E+03  0.00000000000E+00 0.  1.
          1    1    3    3  501    0 -0.16409804539E+03 -0.16161616642E+02 -0.18571997003E+03  0.24835714933E+03  0.00000000000E+00 0.  1.
         21    1    1    2  502  501 -0.90858917608E+01 -0.28933842815E+02  0.11666981707E+02  0.32493678636E+02  0.00000000000E+00 0.  1.
<scales pt_clust_4="550.00000" pt_clust_5="550.00000" pt_clust_6="30.32690"></scales>
<mgrwt>
<rscale>  0 0.30000000E+03</rscale>
<asrwt>  1 0.30326897E+02</asrwt>
<pdfrwt beam="1">  1        1 0.80650103E+00 0.30000000E+03</pdfrwt>
<pdfrwt beam="2">0</pdfrwt>
<totfact> 0.95371110E-04</totfact>
</mgrwt>
<clustering>
<clus scale="   30.327">  1  6  2 -1</clus>
<clus scale="  458.737">  4  5 -1 -1</clus>
<clus scale="  300.000">  1  4  2 -1</clus>
</clustering>
</event>
<event>
 6    1  0.1000035E-011  0.3000000E+03  0.7818608E-02  0.1093470E+00
          1   -1    0    0  502    0  0.00000000000E+00  0.00000000000E+00  0.22316262825E+03  0.22316262825E+03  0.00000000000E+00 0.  1.
         13   -1    0    0    0    0 -0.00000000000E+00 -0.00000000000E+00 -0.27500000000E+03  0.27500000000E+03  0.00000000000E+00 0.  1.
    9000005    2    1    2  501    0  0.19013712292E+01  0.33754219737E+02 -0.37586654269E+02  0.46147413535E+03  0.45869669549E+03 0.  0.
         13    1    3    3    0    0  0.10827341141E+03  0.64611687431E+02  0.17856754794E+03  0.21859590789E+03  0.00000000000E+00 0.  1.
          1    1    3    3  501    0 -0.10637204018E+03 -0.30857467694E+02 -0.21615420221E+03  0.24287822746E+03  0.00000000000E+00 0.  1.
         21    1    1    2  502  501 -0.19013712292E+01 -0.33754219737E+02 -0.14250717478E+02  0.36688492900E+02  0.00000000000E+00 0. -1.
<scales pt_clust_4="550.00000" pt_clust_5="550.00000" pt_clust_6="33.80775"></scales>
<mgrwt>
<rscale>  0 0.30000000E+03</rscale>
<asrwt>  1 0.33807746E+02</asrwt>
<pdfrwt beam="1">  1        1 0.81150047E+00 0.30000000E+03</pdfrwt>
<pdfrwt beam="2">0</pdfrwt>
<totfact> 0.85439640E-04</totfact>
</mgrwt>
<clustering>
<clus scale="   33.808">  1  6  2 -1</clus>
<clus scale="  458.697">  4  5 -1 -1</clus>
<clus scale="  300.000">  1  4  2 -1</clus>
</clustering>
</event>
<event>
 6    1  0.1000035E-011  0.3000000E+03  0.7818608E-02  0.1093470E+00
          1   -1    0    0  502    0  0.00000000000E+00  0.00000000000E+00  0.24186987874E+03  0.24186987874E+03  0.00000000000E+00 0.  1.
         13   -1    0    0    0    0 -0.00000000000E+00 -0.00000000000E+00 -0.27500000000E+03  0.27500000000E+03  0.00000000000E+00 0.  1.
    9000005    2    1    2  501    0  0.33036641308E+02 -0.17710178189E+02 -0.35019366550E+02  0.47933803455E+03  0.47658527595E+03 0.  0.
         13    1    3    3    0    0 -0.95762735389E+02  0.12775477612E+03 -0.17724488911E+03  0.23855300255E+03  0.00000000000E+00 0.  1.
          1    1    3    3  501    0  0.12879937670E+03 -0.14546495431E+03  0.14222552256E+03  0.24078503200E+03  0.00000000000E+00 0.  1.
         21    1    1    2  502  501 -0.33036641308E+02  0.17710178189E+02  0.18892452899E+01  0.37531844188E+02  0.00000000000E+00 0.  1.
<scales pt_clust_4="550.00000" pt_clust_5="550.00000" pt_clust_6="37.48426"></scales>
<mgrwt>
<rscale>  0 0.30000000E+03</rscale>
<asrwt>  1 0.37484264E+02</asrwt>
<pdfrwt beam="1">  1        1 0.87952683E+00 0.30000000E+03</pdfrwt>
<pdfrwt beam="2">0</pdfrwt>
<totfact> 0.19749066E-04</totfact>
</mgrwt>
<clustering>
<clus scale="   37.484">  1  6  2 -1</clus>
<clus scale="  476.585">  4  5 -1 -1</clus>
<clus scale="  300.000">  1  4  2 -1</clus>
</clustering>
</event>
<event>
 6    1  0.1000035E-011  0.3000000E+03  0.7818608E-02  0.1093470E+00
          1   -1    0    0  502    0  0.00000000000E+00  0.00000000000E+00  0.23550058749E+03  0.23550058749E+03  0.00000000000E+00 0.  1.
         13   -1    0    0    0    0 -0.00000000000E+00 -0.00000000000E+00 -0.27500000000E+03  0.27500000000E+03  0.00000000000E+00 0.  1.
    9000005    2    1    2  501    0 -0.25176082274E+02 -0.23937766396E+02 -0.60809798698E+02  0.46974541189E+03  0.46449549900E+03 0.  0.
         13    1    3    3    0    0 -0.35040383771E+02 -0.24281851537E+03 -0.14231177423E+02  0.24574618270E+03  0.00000000000E+00 0.  1.
          3    1    3    3  501    0  0.98643014965E+01  0.21888074898E+03 -0.46578621275E+02  0.22399922919E+03  0.00000000000E+00 0.  1.
         21    1    1    2  502  501  0.25176082274E+02  0.23937766396E+02  0.21310386188E+02  0.40755175601E+02  0.00000000000E+00 0. -1.
<scales pt_clust_4="550.00000" pt_clust_5="550.00000" pt_clust_6="34.73977"></scales>
<mgrwt>
<rscale>  0 0.30000000E+03</rscale>
<asrwt>  1 0.34739772E+02</asrwt>
<pdfrwt beam="1">  1        1 0.85636577E+00 0.30000000E+03</pdfrwt>
<pdfrwt beam="2">0</pdfrwt>
<totfact> 0.35349990E-04</totfact>
</mgrwt>
<clustering>
<clus scale="   34.740">  1  6  2 -1</clus>
<clus scale="  464.495">  4  5 -1 -1</clus>
<clus scale="  300.000">  1  4  2 -1</clus>
</clustering>
</event>
<event>
 6    1  0.1000035E-011  0.3000000E+03  0.7818608E-02  0.1093470E+00
          1   -1    0    0  502    0  0.00000000000E+00  0.00000000000E+00  0.24023128014E+03  0.24023128014E+03  0.00000000000E+00 0.  1.
         13   -1    0    0    0    0 -0.00000000000E+00 -0.00000000000E+00 -0.27500000000E+03  0.27500000000E+03  0.00000000000E+00 0.  1.
    9000005    2    1    2  501    0 -0.10714754551E+02 -0.29299274563E+02 -0.61322076650E+02  0.47426380265E+03  0.46924674103E+03 0.  0.
         13    1    3    3    0    0  0.10475521130E+03  0.18529797816E+03  0.28054295984E+02  0.21469988013E+03  0.00000000000E+00 0.  1.
          3    1    3    3  501    0 -0.11546996585E+03 -0.21459725272E+03 -0.89376372634E+02  0.25956392252E+03  0.00000000000E+00 0.  1.
         21    1    1    2  502  501  0.10714754551E+02  0.29299274563E+02  0.26553356795E+02  0.40967477492E+02  0.00000000000E+00 0. -1.
<scales pt_clust_4="550.00000" pt_clust_5="550.00000" pt_clust_6="31.19701"></scales>
<mgrwt>
<rscale>  0 0.30000000E+03</rscale>
<asrwt>  1 0.31197010E+02</asrwt>
<pdfrwt beam="1">  1        1 0.87356829E+00 0.30000000E+03</pdfrwt>
<pdfrwt beam="2">0</pdfrwt>
<totfact> 0.23793346E-04</totfact>
</mgrwt>
<clustering>
<clus scale="   31.197">  1  6  2 -1</clus>
<clus scale="  469.247">  4  5 -1 -1</clus>
<clus scale="  300.000">  1  4  2 -1</clus>
</clustering>
</event>
<event>
 6    1  0.1000035E-011  0.3000000E+03  0.7818608E-02  0.1093470E+00
          1   -1    0    0  502    0  0.00000000000E+00  0.00000000000E+00  0.22635768891E+03  0.22635768891E+03  0.00000000000E+00 0.  1.
         13   -1    0    0    0    0 -0.00000000000E+00 -0.00000000000E+00 -0.27500000000E+03  0.27500000000E+03  0.00000000000E+00 0.  1.
    9000005    2    1    2  501    0  0.31520099739E+02  0.89335088042E+01 -0.63715894676E+02  0.46529472745E+03  0.45974573831E+03 0.  0.
         13    1    3    3    0    0  0.12118097587E+03 -0.66938944076E+02  0.16063383151E+03  0.21205866870E+03  0.00000000000E+00 0.  1.
          1    1    3    3  501    0 -0.89660876126E+02  0.75872452881E+02 -0.22434972618E+03  0.25323605875E+03  0.00000000000E+00 0.  1.
         21    1    1    2  502  501 -0.31520099739E+02 -0.89335088042E+01  0.15073583588E+02  0.36062961461E+02  0.00000000000E+00 0.  1.
<scales pt_clust_4="550.00000" pt_clust_5="550.00000" pt_clust_6="32.76163"></scales>
<mgrwt>
<rscale>  0 0.30000000E+03</rscale>
<asrwt>  1 0.32761628E+02</asrwt>
<pdfrwt beam="1">  1        1 0.82311887E+00 0.30000000E+03</pdfrwt>
<pdfrwt beam="2">0</pdfrwt>
<totfact> 0.68743415E-04</totfact>
</mgrwt>
<clustering>
<clus scale="   32.762">  1  6  2 -1</clus>
<clus scale="  459.746">  4  5 -1 -1</clus>
<clus scale="  300.000">  1  4  2 -1</clus>
</clustering>
</event>
<event>
 6    1  0.1000035E-011  0.3000000E+03  0.7818608E-02  0.1093470E+00
          1   -1    0    0  502    0  0.00000000000E+00  0.00000000000E+00  0.23546304671E+03  0.23546304671E+03  0.00000000000E+00 0.  1.
         13   -1    0    0    0    0 -0.00000000000E+00 -0.00000000000E+00 -0.27500000000E+03  0.27500000000E+03  0.00000000000E+00 0.  1.
    9000005    2    1    2  501    0  0.34375541243E+02  0.23745748346E+02 -0.41908354781E+02  0.46861615978E+03  0.46486477239E+03 0.  0.
         13    1    3    3    0    0  0.18865500213E+03  0.21799492489E+02  0.13565399439E+03  0.23338366244E+03  0.00000000000E+00 0.  1.
          1    1    3    3  501    0 -0.15427946088E+03  0.19462558567E+01 -0.17756234917E+03  0.23523249734E+03  0.00000000000E+00 0.  1.
         21    1    1    2  502  501 -0.34375541243E+02 -0.23745748346E+02  0.23714014883E+01  0.41846886925E+02  0.00000000000E+00 0.  1.
<scales pt_clust_4="550.00000" pt_clust_5="550.00000" pt_clust_6="41.77964"></scales>
<mgrwt>
<rscale>  0 0.30000000E+03</rscale>
<asrwt>  1 0.41779641E+02</asrwt>
<pdfrwt beam="1">  1        1 0.85622926E+00 0.30000000E+03</pdfrwt>
<pdfrwt beam="2">0</pdfrwt>
<totfact> 0.34278333E-04</totfact>
</mgrwt>
<clustering>
<clus scale="   41.780">  1  6  2 -1</clus>
<clus scale="  464.865">  4  5 -1 -1</clus>
<clus scale="  300.000">  1  4  2 -1</clus>
</clustering>
</event>
<event>
 6    1  0.1000035E-011  0.3000000E+03  0.7818608E-02  0.1093470E+00
          1   -1    0    0  502    0  0.00000000000E+00  0.00000000000E+00  0.23804276379E+03  0.23804276379E+03  0.00000000000E+00 0.  1.
         13   -1    0    0    0    0 -0.00000000000E+00 -0.00000000000E+00 -0.27500000000E+03  0.27500000000E+03  0.00000000000E+00 0.  1.
    9000005    2    1    2  501    0  0.27901507277E+02  0.13751437363E+02 -0.13420728584E+02  0.47403554229E+03  0.47282341657E+03 0.  0.
         13    1    3    3    0    0  0.36849168940E+02 -0.20687473563E+03 -0.10510332834E+03  0.23495047802E+03  0.00000000000E+00 0.  1.
          1    1    3    3  501    0 -0.89476616631E+01  0.22062617299E+03  0.91682599754E+02  0.23908506427E+03  0.00000000000E+00 0.  1.
         21    1    1    2  502  501 -0.27901507277E+02 -0.13751437363E+02 -0.23536507629E+02  0.39007221501E+02  0.00000000000E+00 0.  1.
<scales pt_clust_4="550.00000" pt_clust_5="550.00000" pt_clust_6="31.10622"></scales>
<mgrwt>
<rscale>  0 0.30000000E+03</rscale>
<asrwt>  1 0.31106223E+02</asrwt>
<pdfrwt beam="1">  1        1 0.86561005E+00 0.30000000E+03</pdfrwt>
<pdfrwt beam="2">0</pdfrwt>
<totfact> 0.28777225E-04</totfact>
</mgrwt>
<clustering>
<clus scale="   31.106">  1  6  2 -1</clus>
<clus scale="  472.823">  4  5 -1 -1</clus>
<clus scale="  300.000">  1  4  2 -1</clus>
</clustering>
</event>
<event>
 6    1  0.1000035E-011  0.3000000E+03  0.7818608E-02  0.1093470E+00
          1   -1    0    0  502    0  0.00000000000E+00  0.00000000000E+00  0.23906611857E+03  0.23906611857E+03  0.00000000000E+00 0.  1.
         13   -1    0    0    0    0 -0.00000000000E+00 -0.00000000000E+00 -0.27500000000E+03  0.27500000000E+03  0.00000000000E+00 0.  1.
    9000005    2    1    2  501    0  0.32652037677E+02 -0.27548741254E+01 -0.65897419847E+02  0.46966388292E+03  0.46386199250E+03 0.  0.
         13    1    3    3    0    0  0.49167462734E+02  0.22769165931E+01  0.19859756920E+03  0.20460600733E+03  0.00000000000E+00 0.  1.
          1    1    3    3  501    0 -0.16515425057E+02 -0.50317907185E+01 -0.26449498905E+03  0.26505787560E+03  0.00000000000E+00 0.  1.
         21    1    1    2  502  501 -0.32652037677E+02  0.27548741254E+01  0.29963538416E+02  0.44402235646E+02  0.00000000000E+00 0. -1.
<scales pt_clust_4="550.00000" pt_clust_5="550.00000" pt_clust_6="32.76805"></scales>
<mgrwt>
<rscale>  0 0.30000000E+03</rscale>
<asrwt>  1 0.32768047E+02</asrwt>
<pdfrwt beam="1">  1        1 0.86933134E+00 0.30000000E+03</pdfrwt>
<pdfrwt beam="2">0</pdfrwt>
<totfact> 0.26048726E-04</totfact>
</mgrwt>
<clustering>
<clus scale="   32.768">  1  6  2 -1</clus>
<clus scale="  463.862">  4  5 -1 -1</clus>
<clus scale="  300.000">  1  4  2 -1</clus>
</clustering>
</event>
<event>
 6    1  0.1000035E-011  0.3000000E+03  0.7818608E-02  0.1093470E+00
          1   -1    0    0  502    0  0.00000000000E+00  0.00000000000E+00  0.22576236610E+03  0.22576236610E+03  0.00000000000E+00 0.  1.
         13   -1    0    0    0    0 -0.00000000000E+00 -0.00000000000E+00 -0.27500000000E+03  0.27500000000E+03  0.00000000000E+00 0.  1.
    9000005    2    1    2  501    0 -0.30505868043E+02  0.15808812144E+02 -0.65917672373E+02  0.46256877750E+03  0.45655690539E+03 0.  0.
         13    1    3    3    0    0  0.10662463181E+03  0.16051336665E+03 -0.15198549221E+03  0.24542400621E+03  0.00000000000E+00 0.  1.
          3    1    3    3  501    0 -0.13713049986E+03 -0.14470455450E+03  0.86067819841E+02  0.21714477129E+03  0.00000000000E+00 0.  1.
         21    1    1    2  502  501  0.30505868043E+02 -0.15808812144E+02  0.16680038469E+02  0.38193588596E+02  0.00000000000E+00 0. -1.
<scales pt_clust_4="550.00000" pt_clust_5="550.00000" pt_clust_6="34.35879"></scales>
<mgrwt>
<rscale>  0 0.30000000E+03</rscale>
<asrwt>  1 0.34358791E+02</asrwt>
<pdfrwt beam="1">  1        1 0.82095406E+00 0.30000000E+03</pdfrwt>
<pdfrwt beam="2">0</pdfrwt>
<totfact> 0.71203754E-04</totfact>
</mgrwt>
<clustering>
<clus scale="   34.359">  1  6  2 -1</clus>
<clus scale="  456.557">  4  5 -1 -1</clus>
<clus scale="  300.000">  1  4  2 -1</clus>
</clustering>
</event>
<event>
 6    1  0.1000035E-011  0.3000000E+03  0.7818608E-02  0.1093470E+00
          1   -1    0    0  502    0  0.00000000000E+00  0.00000000000E+00  0.22361262938E+03  0.22361262938E+03  0.00000000000E+00 0.  1.
         13   -1    0    0    0    0 -0.00000000000E+00 -0.00000000000E+00 -0.27500000000E+03  0.27500000000E+03  0.00000000000E+00 0.  1.
    9000005    2    1    2  501    0  0.17392870206E+02  0.26271649527E+02 -0.61701181816E+02  0.46546016033E+03  0.46027536705E+03 0.  0.
         13    1    3    3    0    0 -0.49229888999E+02  0.15914720948E+03  0.13813173845E+03  0.21640654662E+03  0.00000000000E+00 0.  1.
          3    1    3    3  501    0  0.66622759205E+02 -0.13287555995E+03 -0.19983292027E+03  0.24905361370E+03  0.00000000000E+00 0.  1.
         21    1    1    2  502  501 -0.17392870206E+02 -0.26271649527E+02  0.10313811192E+02  0.33152469051E+02  0.00000000000E+00 0.  1.
<scales pt_clust_4="550.00000" pt_clust_5="550.00000" pt_clust_6="31.50732"></scales>
<mgrwt>
<rscale>  0 0.30000000E+03</rscale>
<asrwt>  1 0.31507325E+02</asrwt>
<pdfrwt beam="1">  1        1 0.81313683E+00 0.30000000E+03</pdfrwt>
<pdfrwt beam="2">0</pdfrwt>
<totfact> 0.84043574E-04</totfact>
</mgrwt>
<clustering>
<clus scale="   31.507">  1  6  2 -1</clus>
<clus scale="  460.275">  4  5 -1 -1</clus>
<clus scale="  300.000">  1  4  2 -1</clus>
</clustering>
</event>
<event>
 6    1  0.1000035E-011  0.3000000E+03  0.7818608E-02  0.1093470E+00
          1   -1    0    0  502    0  0.00000000000E+00  0.00000000000E+00  0.22928825086E+03  0.22928825086E+03  0.00000000000E+00 0.  1.
         13   -1    0    0    0    0 -0.00000000000E+00 -0.00000000000E+00 -0.27500000000E+03  0.27500000000E+03  0.00000000000E+00 0.  1.
    9000005    2    1    2  501    0  0.32034813680E+01 -0.32707293696E+02 -0.53905310143E+02  0.47041844431E+03  0.46616274082E+03 0.  0.
         13    1    3    3    0    0  0.12846617419E+03  0.17923442771E+03 -0.13479296640E+02  0.22093037235E+03  0.00000000000E+00 0.  1.
          1    1    3    3  501    0 -0.12526269282E+03 -0.21194172141E+03 -0.40426013502E+02  0.24948807196E+03  0.00000000000E+00 0.  1.
         21    1    1    2  502  501 -0.32034813680E+01  0.32707293696E+02  0.81935610033E+01  0.33869806549E+02  0.00000000000E+00 0.  1.
<scales pt_clust_4="550.00000" pt_clust_5="550.00000" pt_clust_6="32.86380"></scales>
<mgrwt>
<rscale>  0 0.30000000E+03</rscale>
<asrwt>  1 0.32863800E+02</asrwt>
<pdfrwt beam="1">  1        1 0.83377546E+00 0.30000000E+03</pdfrwt>
<pdfrwt beam="2">0</pdfrwt>
<totfact> 0.55891031E-04</totfact>
</mgrwt>
<clustering>
<clus scale="   32.864">  1  6  2 -1</clus>
<clus scale="  466.163">  4  5 -1 -1</clus>
<clus scale="  300.000">  1  4  2 -1</clus>
</clustering>
</event>
<event>
 6    1  0.1000035E-011  0.3000000E+03  0.7818608E-02  0.1093470E+00
          1   -1    0    0  502    0  0.00000000000E+00  0.00000000000E+00  0.22950184427E+03  0.22950184427E+03  0.00000000000E+00 0.  1.
         13   -1    0    0    0    0 -0.00000000000E+00 -0.00000000000E+00 -0.27500000000E+03  0.27500000000E+03  0.00000000000E+00 0.  1.
    9000005    2    1    2  501    0  0.37318283194E+02  0.93219924909E+00 -0.50994169041E+02  0.46676950511E+03  0.46247145033E+03 0.  0.
         13    1    3    3    0    0  0.20677823788E+03  0.27204686043E+02  0.10628568811E+03  0.23408114427E+03  0.00000000000E+00 0.  1.
          1    1    3    3  501    0 -0.16945995469E+03 -0.26272486794E+02 -0.15727985715E+03  0.23268836084E+03  0.00000000000E+00 0.  1.
         21    1    1    2  502  501 -0.37318283194E+02 -0.93219924909E+00  0.54960133107E+01  0.37732339157E+02  0.00000000000E+00 0.  1.
<scales pt_clust_4="550.00000" pt_clust_5="550.00000" pt_clust_6="37.32992"></scales>
<mgrwt>
<rscale>  0 0.30000000E+03</rscale>
<asrwt>  1 0.37329924E+02</asrwt>
<pdfrwt beam="1">  1        1 0.83455216E+00 0.30000000E+03</pdfrwt>
<pdfrwt beam="2">0</pdfrwt>
<totfact> 0.53859375E-04</totfact>
</mgrwt>
<clustering>
<clus scale="   37.330">  1  6  2 -1</clus>
<clus scale="  462.471">  4  5 -1 -1</clus>
<clus scale="  300.000">  1  4  2 -1</clus>
</clustering>
</event>
<event>
 6    1  0.1000035E-011  0.3000000E+03  0.7818608E-02  0.1093470E+00
          1   -1    0    0  502    0  0.00000000000E+00  0.00000000000E+00  0.23365027131E+03  0.23365027131E+03  0.00000000000E+00 0.  1.
         13   -1    0    0    0    0 -0.00000000000E+00 -0.00000000000E+00 -0.27500000000E+03  0.27500000000E+03  0.00000000000E+00 0.  1.
    9000005    2    1    2  501    0 -0.17863491021E+02  0.26387474002E+02 -0.68827648966E+02  0.46657368402E+03  0.46036762946E+03 0.  0.
         13    1    3    3    0    0  0.20285579151E+03 -0.75589864362E+02 -0.53260932588E+02  0.22293727073E+03  0.00000000000E+00 0.  1.
          1    1    3    3  501    0 -0.22071928253E+03  0.10197733836E+03 -0.15566716378E+02  0.24363641328E+03  0.00000000000E+00 0.  1.
         21    1    1    2  502  501  0.17863491021E+02 -0.26387474002E+02  0.27477920275E+02  0.42076587294E+02  0.00000000000E+00 0.  1.
<scales pt_clust_4="550.00000" pt_clust_5="550.00000" pt_clust_6="31.86539"></scales>
<mgrwt>
<rscale>  0 0.30000000E+03</rscale>
<asrwt>  1 0.31865390E+02</asrwt>
<pdfrwt beam="1">  1        1 0.84963735E+00 0.30000000E+03</pdfrwt>
<pdfrwt beam="2">0</pdfrwt>
<totfact> 0.41750693E-04</totfact>
</mgrwt>
<clustering>
<clus scale="   31.865">  1  6  2 -1</clus>
<clus scale="  460.368">  4  5 -1 -1</clus>
<clus scale="  300.000">  1  4  2 -1</clus>
</clustering>
</event>
<event>
 6    1  0.1000035E-011  0.3000000E+03  0.7818608E-02  0.1093470E+00
          1   -1    0    0  502    0  0.00000000000E+00  0.00000000000E+00  0.26172398068E+03  0.26172398068E+03  0.00000000000E+00 0.  1.
         13   -1    0    0    0    0 -0.00000000000E+00 -0.00000000000E+00 -0.27500000000E+03  0.27500000000E+03  0.00000000000E+00 0.  1.
    9000005    2    1    2  501    0 -0.26244065406E+02 -0.29562114121E+02 -0.26559132596E+02  0.49502133498E+03  0.49272514143E+03 0.  0.
         13    1    3    3    0    0  0.10931938548E+03  0.29881318284E+02 -0.22235401797E+03  0.24956949039E+03  0.00000000000E+00 0.  1.
          1    1    3    3  501    0 -0.13556345089E+03 -0.59443432405E+02  0.19579488538E+03  0.24545184459E+03  0.00000000000E+00 0.  1.
         21    1    1    2  502  501  0.26244065406E+02  0.29562114121E+02  0.13283113276E+02  0.41702645703E+02  0.00000000000E+00 0. -1.
<scales pt_clust_4="550.00000" pt_clust_5="550.00000" pt_clust_6="39.53062"></scales>
<mgrwt>
<rscale>  0 0.30000000E+03</rscale>
<asrwt>  1 0.39530615E+02</asrwt>
<pdfrwt beam="1">  1        1 0.95172357E+00 0.30000000E+03</pdfrwt>
<pdfrwt beam="2">0</pdfrwt>
<totfact> 0.11114528E-05</totfact>
</mgrwt>
<clustering>
<clus scale="   39.531">  1  6  2 -1</clus>
<clus scale="  492.725">  4  5 -1 -1</clus>
<clus scale="  300.000">  1  4  2 -1</clus>
</clustering>
</event>
<event>
 6    1  0.1000035E-011  0.3000000E+03  0.7818608E-02  0.1093470E+00
          1   -1    0    0  502    0  0.00000000000E+00  0.00000000000E+00  0.23344365403E+03  0.23344365403E+03  0.00000000000E+00 0.  1.
         13   -1    0    0    0    0 -0.00000000000E+00 -0.00000000000E+00 -0.27500000000E+03  0.27500000000E+03  0.00000000000E+00 0.  1.
    9000005    2    1    2  501    0 -0.33619061943E+02  0.10556902661E+02 -0.59376636389E+02  0.46895628554E+03  0.46384558129E+03 0.  0.
         13    1    3    3    0    0 -0.28379764262E+02 -0.64451719380E+02 -0.25227561426E+03  0.26192063817E+03  0.00000000000E+00 0.  1.
          3    1    3    3  501    0 -0.52392976811E+01  0.75008622041E+02  0.19289897787E+03  0.20703564737E+03  0.00000000000E+00 0.  1.
         21    1    1    2  502  501  0.33619061943E+02 -0.10556902661E+02  0.17820290424E+02  0.39487368493E+02  0.00000000000E+00 0. -1.
<scales pt_clust_4="550.00000" pt_clust_5="550.00000" pt_clust_6="35.23762"></scales>
<mgrwt>
<rscale>  0 0.30000000E+03</rscale>
<asrwt>  1 0.35237615E+02</asrwt>
<pdfrwt beam="1">  1        1 0.84888601E+00 0.30000000E+03</pdfrwt>
<pdfrwt beam="2">0</pdfrwt>
<totfact> 0.41630858E-04</totfact>
</mgrwt>
<clustering>
<clus scale="   35.238">  1  6  2 -1</clus>
<clus scale="  463.846">  4  5 -1 -1</clus>
<clus scale="  300.000">  1  4  2 -1</clus>
</clustering>
</event>
<event>
 6    1  0.1000035E-011  0.3000000E+03  0.7818608E-02  0.1093470E+00
          1   -1    0    0  502    0  0.00000000000E+00  0.00000000000E+00  0.22060929450E+03  0.22060929450E+03  0.00000000000E+00 0.  1.
         13   -1    0    0    0    0 -0.00000000000E+00 -0.00000000000E+00 -0.27500000000E+03  0.27500000000E+03  0.00000000000E+00 0.  1.
    9000005    2    1    2  501    0  0.25194749094E+02 -0.17973299660E+02 -0.57482539811E+02  0.46450665278E+03  0.45989604609E+03 0.  0.
         13    1    3    3    0    0 -0.10272829750E+03  0.19020801701E+03 -0.17135437110E+02  0.21685436598E+03  0.00000000000E+00 0.  1.
          3    1    3    3  501    0  0.12792304659E+03 -0.20818131667E+03 -0.40347102701E+02  0.24765228680E+03  0.00000000000E+00 0.  1.
         21    1    1    2  502  501 -0.25194749094E+02  0.17973299660E+02  0.30918343112E+01  0.31102641721E+02  0.00000000000E+00 0. -1.
<scales pt_clust_4="550.00000" pt_clust_5="550.00000" pt_clust_6="30.94858"></scales>
<mgrwt>
<rscale>  0 0.30000000E+03</rscale>
<asrwt>  1 0.30948585E+02</asrwt>
<pdfrwt beam="1">  1        1 0.80221562E+00 0.30000000E+03</pdfrwt>
<pdfrwt beam="2">0</pdfrwt>
<totfact> 0.10228757E-03</totfact>
</mgrwt>
<clustering>
<clus scale="   30.949">  1  6  2 -1</clus>
<clus scale="  459.896">  4  5 -1 -1</clus>
<clus scale="  300.000">  1  4  2 -1</clus>
</clustering>
</event>
<event>
 6    1  0.1000035E-011  0.3000000E+03  0.7818608E-02  0.1093470E+00
          1   -1    0    0  502    0  0.00000000000E+00  0.00000000000E+00  0.26162162568E+03  0.26162162568E+03  0.00000000000E+00 0.  1.
         13   -1    0    0    0    0 -0.00000000000E+00 -0.00000000000E+00 -0.27500000000E+03  0.27500000000E+03  0.00000000000E+00 0.  1.
    9000005    2    1    2  501    0  0.16144392246E+02 -0.47462200591E+02 -0.39842201813E+02  0.47993268451E+03  0.47564133412E+03 0.  0.
         13    1    3    3    0    0 -0.13123941915E+03  0.21632887793E+02  0.16905268161E+03  0.21510596489E+03  0.00000000000E+00 0.  1.
          1    1    3    3  501    0  0.14738381139E+03 -0.69095088385E+02 -0.20889488343E+03  0.26482671961E+03  0.00000000000E+00 0.  1.
         21    1    1    2  502  501 -0.16144392246E+02  0.47462200591E+02  0.26463827497E+02  0.56688941177E+02  0.00000000000E+00 0.  1.
<scales pt_clust_4="550.00000" pt_clust_5="550.00000" pt_clust_6="50.13284"></scales>
<mgrwt>
<rscale>  0 0.30000000E+03</rscale>
<asrwt>  1 0.50132842E+02</asrwt>
<pdfrwt beam="1">  1        1 0.95135137E+00 0.30000000E+03</pdfrwt>
<pdfrwt beam="2">0</pdfrwt>
<totfact> 0.10841481E-05</totfact>
</mgrwt>
<clustering>
<clus scale="   50.133">  1  6  2 -1</clus>
<clus scale="  475.641">  4  5 -1 -1</clus>
<clus scale="  300.000">  1  4  2 -1</clus>
</clustering>
</event>
<event>
 6    1  0.1000035E-011  0.3000000E+03  0.7818608E-02  0.1093470E+00
          1   -1    0    0  502    0  0.00000000000E+00  0.00000000000E+00  0.25068873933E+03  0.25068873933E+03  0.00000000000E+00 0.  1.
         13   -1    0    0    0    0 -0.00000000000E+00 -0.00000000000E+00 -0.27500000000E+03  0.27500000000E+03  0.00000000000E+00 0.  1.
    9000005    2    1    2  501    0 -0.34407835226E+02  0.39405577334E+01 -0.32603364925E+02  0.49007713851E+03  0.48776346231E+03 0.  0.
         13    1    3    3    0    0  0.14024578839E+03  0.38528130290E+01 -0.20254391674E+03  0.24638945500E+03  0.00000000000E+00 0.  1.
          3    1    3    3  501    0 -0.17465362362E+03  0.87744704470E-01  0.16994055181E+03  0.24368768350E+03  0.00000000000E+00 0.  1.
         21    1    1    2  502  501  0.34407835226E+02 -0.39405577334E+01  0.82921042557E+01  0.35611600823E+02  0.00000000000E+00 0. -1.
<scales pt_clust_4="550.00000" pt_clust_5="550.00000" pt_clust_6="34.63275"></scales>
<mgrwt>
<rscale>  0 0.30000000E+03</rscale>
<asrwt>  1 0.34632746E+02</asrwt>
<pdfrwt beam="1">  1        1 0.91159542E+00 0.30000000E+03</pdfrwt>
<pdfrwt beam="2">0</pdfrwt>
<totfact> 0.65750600E-05</totfact>
</mgrwt>
<clustering>
<clus scale="   34.633">  1  6  2 -1</clus>
<clus scale="  487.763">  4  5 -1 -1</clus>
<clus scale="  300.000">  1  4  2 -1</clus>
</clustering>
</event>
<event>
 6    1  0.1000035E-011  0.3000000E+03  0.7818608E-02  0.1093470E+00
          1   -1    0    0  502    0  0.00000000000E+00  0.00000000000E+00  0.24808672076E+03  0.24808672076E+03  0.00000000000E+00 0.  1.
         13   -1    0    0    0    0 -0.00000000000E+00 -0.00000000000E+00 -0.27500000000E+03  0.27500000000E+03  0.00000000000E+00 0.  1.
    9000005    2    1    2  501    0  0.63787188181E+01 -0.43410977538E+02 -0.38940282817E+02  0.47759111834E+03  0.47397439769E+03 0.  0.
         13    1    3    3    0    0  0.61218662578E+02  0.20446430777E+03 -0.63127318587E+02  0.22257231668E+03  0.00000000000E+00 0.  1.
          3    1    3    3  501    0 -0.54839943759E+02 -0.24787528531E+03  0.24187035770E+02  0.25501880166E+03  0.00000000000E+00 0.  1.
         21    1    1    2  502  501 -0.63787188181E+01  0.43410977538E+02  0.12027003577E+02  0.45495602420E+02  0.00000000000E+00 0.  1.
<scales pt_clust_4="550.00000" pt_clust_5="550.00000" pt_clust_6="43.87711"></scales>
<mgrwt>
<rscale>  0 0.30000000E+03</rscale>
<asrwt>  1 0.43877113E+02</asrwt>
<pdfrwt beam="1">  1        1 0.90213353E+00 0.30000000E+03</pdfrwt>
<pdfrwt beam="2">0</pdfrwt>
<totfact> 0.99138396E-05</totfact>
</mgrwt>
<clustering>
<clus scale="   43.877">  1  6  2 -1</clus>
<clus scale="  473.974">  4  5 -1 -1</clus>
<clus scale="  300.000">  1  4  2 -1</clus>
</clustering>
</event>
<event>
 6    1  0.1000035E-011  0.3000000E+03  0.7818608E-02  0.1093470E+00
          1   -1    0    0  502    0  0.00000000000E+00  0.00000000000E+00  0.24061630368E+03  0.24061630368E+03  0.00000000000E+00 0.  1.
         13   -1    0    0    0    0 -0.00000000000E+00 -0.00000000000E+00 -0.27500000000E+03  0.27500000000E+03  0.00000000000E+00 0.  1.
    9000005    2    1    2  501    0 -0.30017133440E+02 -0.12573174982E+02 -0.58185510964E+02  0.47529708482E+03  0.47059818542E+03 0.  0.
         13    1    3    3    0    0 -0.13469461213E+03 -0.11476171736E+03 -0.20310686516E+03  0.26937945167E+03  0.00000000000E+00 0.  1.
          3    1    3    3  501    0  0.10467747869E+03  0.10218854238E+03  0.14492135420E+03  0.20591763315E+03  0.00000000000E+00 0.  1.
         21    1    1    2  502  501  0.30017133440E+02  0.12573174982E+02  0.23801814647E+02  0.40319218861E+02  0.00000000000E+00 0.  1.
<scales pt_clust_4="550.00000" pt_clust_5="550.00000" pt_clust_6="32.54402"></scales>
<mgrwt>
<rscale>  0 0.30000000E+03</rscale>
<asrwt>  1 0.32544017E+02</asrwt>
<pdfrwt beam="1">  1        1 0.87496838E+00 0.30000000E+03</pdfrwt>
<pdfrwt beam="2">0</pdfrwt>
<totfact> 0.22820535E-04</totfact>
</mgrwt>
<clustering>
<clus scale="   32.544">  1  6  2 -1</clus>
<clus scale="  470.598">  4  5 -1 -1</clus>
<clus scale="  300.000">  1  4  2 -1</clus>
</clustering>
</event>
<event>
 6    1  0.1000035E-011  0.3000000E+03  0.7818608E-02  0.1093470E+00
          1   -1    0    0  502    0  0.00000000000E+00  0.00000000000E+00  0.25341309678E+03  0.25341309678E+03  0.00000000000E+00 0.  1.
         13   -1    0    0    0    0 -0.00000000000E+00 -0.00000000000E+00 -0.27500000000E+03  0.27500000000E+03  0.00000000000E+00 0.  1.
    9000005    2    1    2  501    0  0.26183859573E+02  0.24114955040E+02 -0.30040516051E+02  0.49182636245E+03  0.48961578063E+03 0.  0.
         13    1    3    3    0    0  0.12983868985E+03 -0.17717670153E+03  0.87833314488E+02  0.23656787626E+03  0.00000000000E+00 0.  1.
          3    1    3    3  501    0 -0.10365483027E+03  0.20129165657E+03 -0.11787383054E+03  0.25525848619E+03  0.00000000000E+00 0.  1.
         21    1    1    2  502  501 -0.26183859573E+02 -0.24114955040E+02  0.84536128270E+01  0.36586734324E+02  0.00000000000E+00 0. -1.
<scales pt_clust_4="550.00000" pt_clust_5="550.00000" pt_clust_6="35.59671"></scales>
<mgrwt>
<rscale>  0 0.30000000E+03</rscale>
<asrwt>  1 0.35596707E+02</asrwt>
<pdfrwt beam="1">  1        1 0.92150217E+00 0.30000000E+03</pdfrwt>
<pdfrwt beam="2">0</pdfrwt>
<totfact> 0.38683782E-05</totfact>
</mgrwt>
<clustering>
<clus scale="   35.597">  1  6  2 -1</clus>
<clus scale="  489.616">  4  5 -1 -1</clus>
<clus scale="  300.000">  1  4  2 -1</clus>
</clustering>
</event>
<event>
 6    1  0.1000035E-011  0.3000000E+03  0.7818608E-02  0.1093470E+00
          1   -1    0    0  502    0  0.00000000000E+00  0.00000000000E+00  0.23306497852E+03  0.23306497852E+03  0.00000000000E+00 0.  1.
         13   -1    0    0    0    0 -0.00000000000E+00 -0.00000000000E+00 -0.27500000000E+03  0.27500000000E+03  0.00000000000E+00 0.  1.
    9000005    2    1    2  501    0 -0.16161338125E+02 -0.25418480309E+02 -0.62613030124E+02  0.47152913266E+03  0.46638186437E+03 0.  0.
         13    1    3    3    0    0  0.11498980906E+03 -0.64163289058E+02 -0.22409561237E+03  0.25992004027E+03  0.00000000000E+00 0.  1.
          3    1    3    3  501    0 -0.13115114718E+03  0.38744808749E+02  0.16148258225E+03  0.21160909239E+03  0.00000000000E+00 0.  1.
         21    1    1    2  502  501  0.16161338125E+02  0.25418480309E+02  0.20678008647E+02  0.36535845862E+02  0.00000000000E+00 0.  1.
<scales pt_clust_4="550.00000" pt_clust_5="550.00000" pt_clust_6="30.12122"></scales>
<mgrwt>
<rscale>  0 0.30000000E+03</rscale>
<asrwt>  1 0.30121222E+02</asrwt>
<pdfrwt beam="1">  1        1 0.84750901E+00 0.30000000E+03</pdfrwt>
<pdfrwt beam="2">0</pdfrwt>
<totfact> 0.44153524E-04</totfact>
</mgrwt>
<clustering>
<clus scale="   30.121">  1  6  2 -1</clus>
<clus scale="  466.382">  4  5 -1 -1</clus>
<clus scale="  300.000">  1  4  2 -1</clus>
</clustering>
</event>
<event>
 6    1  0.1000035E-011  0.3000000E+03  0.7818608E-02  0.1093470E+00
          1   -1    0    0  502    0  0.00000000000E+00  0.00000000000E+00  0.24040721242E+03  0.24040721242E+03  0.00000000000E+00 0.  1.
         13   -1    0    0    0    0 -0.00000000000E+00 -0.00000000000E+00 -0.27500000000E+03  0.27500000000E+03  0.00000000000E+00 0.  1.
    9000005    2    1    2  501    0  0.40576417255E+02  0.83191672463E+01 -0.45745044722E+02  0.47251167629E+03  0.46846453540E+03 0.  0.
         13    1    3    3    0    0 -0.11163071938E+03 -0.11196105492E+03  0.13459855343E+03  0.20763782390E+03  0.00000000000E+00 0.  1.
          1    1    3    3  501    0  0.15220713663E+03  0.12028022216E+03 -0.18034359815E+03  0.26487385239E+03  0.00000000000E+00 0.  1.
         21    1    1    2  502  501 -0.40576417255E+02 -0.83191672463E+01  0.11152257146E+02  0.42895536135E+02  0.00000000000E+00 0.  1.
<scales pt_clust_4="550.00000" pt_clust_5="550.00000" pt_clust_6="41.42046"></scales>
<mgrwt>
<rscale>  0 0.30000000E+03</rscale>
<asrwt>  1 0.41420456E+02</asrwt>
<pdfrwt beam="1">  1        1 0.87420805E+00 0.30000000E+03</pdfrwt>
<pdfrwt beam="2">0</pdfrwt>
<totfact> 0.22227590E-04</totfact>
</mgrwt>
<clustering>
<clus scale="   41.420">  1  6  2 -1</clus>
<clus scale="  468.465">  4  5 -1 -1</clus>
<clus scale="  300.000">  1  4  2 -1</clus>
</clustering>
</event>
<event>
 6    1  0.1000035E-011  0.3000000E+03  0.7818608E-02  0.1093470E+00
          1   -1    0    0  502    0  0.00000000000E+00  0.00000000000E+00  0.22926748695E+03  0.22926748695E+03  0.00000000000E+00 0.  1.
         13   -1    0    0    0    0 -0.00000000000E+00 -0.00000000000E+00 -0.27500000000E+03  0.27500000000E+03  0.00000000000E+00 0.  1.
    9000005    2    1    2  501    0 -0.43174766210E+02  0.18548798451E+01 -0.40086210237E+02  0.46068558989E+03  0.45689912176E+03 0.  0.
         13    1    3    3    0    0 -0.21664842491E+03  0.49386180474E+02 -0.13224647677E+03  0.25858202849E+03  0.00000000000E+00 0.  1.
          3    1    3    3  501    0  0.17347365870E+03 -0.47531300629E+02  0.92160266532E+02  0.20210356140E+03  0.00000000000E+00 0.  1.
         21    1    1    2  502  501  0.43174766210E+02 -0.18548798451E+01 -0.56463028100E+01  0.43581897067E+02  0.00000000000E+00 0.  1.
<scales pt_clust_4="550.00000" pt_clust_5="550.00000" pt_clust_6="43.21461"></scales>
<mgrwt>
<rscale>  0 0.30000000E+03</rscale>
<asrwt>  1 0.43214614E+02</asrwt>
<pdfrwt beam="1">  1        1 0.83369995E+00 0.30000000E+03</pdfrwt>
<pdfrwt beam="2">0</pdfrwt>
<totfact> 0.53206145E-04</totfact>
</mgrwt>
<clustering>
<clus scale="   43.215">  1  6  2 -1</clus>
<clus scale="  456.899">  4  5 -1 -1</clus>
<clus scale="  300.000">  1  4  2 -1</clus>
</clustering>
</event>
<event>
 6    1  0.1000035E-011  0.3000000E+03  0.7818608E-02  0.1093470E+00
          1   -1    0    0  502    0  0.00000000000E+00  0.00000000000E+00  0.23480052516E+03  0.23480052516E+03  0.00000000000E+00 0.  1.
         13   -1    0    0    0    0 -0.00000000000E+00 -0.00000000000E+00 -0.27500000000E+03  0.27500000000E+03  0.00000000000E+00 0.  1.
    9000005    2    1    2  501    0  0.19745116388E+02 -0.31886510539E+02 -0.60683535255E+02  0.46706627769E+03  0.46158617519E+03 0.  0.
         13    1    3    3    0    0 -0.13631404661E+03 -0.12224725546E+02  0.15070654995E+03  0.20357658858E+03  0.00000000000E+00 0.  1.
          3    1    3    3  501    0  0.15605916300E+03 -0.19661784993E+02 -0.21139008521E+03  0.26348968911E+03  0.00000000000E+00 0.  1.
         21    1    1    2  502  501 -0.19745116388E+02  0.31886510539E+02  0.20484060415E+02  0.42734247467E+02  0.00000000000E+00 0.  1.
<scales pt_clust_4="550.00000" pt_clust_5="550.00000" pt_clust_6="37.50492"></scales>
<mgrwt>
<rscale>  0 0.30000000E+03</rscale>
<asrwt>  1 0.37504922E+02</asrwt>
<pdfrwt beam="1">  1        1 0.85382009E+00 0.30000000E+03</pdfrwt>
<pdfrwt beam="2">0</pdfrwt>
<totfact> 0.36938821E-04</totfact>
</mgrwt>
<clustering>
<clus scale="   37.505">  1  6  2 -1</clus>
<clus scale="  461.586">  4  5 -1 -1</clus>
<clus scale="  300.000">  1  4  2 -1</clus>
</clustering>
</event>
<event>
 6    1  0.1000035E-011  0.3000000E+03  0.7818608E-02  0.1093470E+00
          1   -1    0    0  502    0  0.00000000000E+00  0.00000000000E+00  0.24184435279E+03  0.24184435279E+03  0.00000000000E+00 0.  1.
         13   -1    0    0    0    0 -0.00000000000E+00 -0.00000000000E+00 -0.27500000000E+03  0.27500000000E+03  0.00000000000E+00 0.  1.
    9000005    2    1    2  501    0  0.47871571485E+02 -0.54278380536E+01 -0.56667319159E+02  0.46323514182E+03  0.45722473990E+03 0.  0.
         13    1    3    3    0    0 -0.12517777703E+03 -0.17328357838E+03  0.70114383679E+01  0.21388275916E+03  0.00000000000E+00 0.  1.
          1    1    3    3  501    0  0.17304934851E+03  0.16785574032E+03 -0.63678757527E+02  0.24935238267E+03  0.00000000000E+00 0.  1.
         21    1    1    2  502  501 -0.47871571485E+02  0.54278380536E+01  0.23511671945E+02  0.53609210963E+02  0.00000000000E+00 0.  1.
<scales pt_clust_4="550.00000" pt_clust_5="550.00000" pt_clust_6="48.17830"></scales>
<mgrwt>
<rscale>  0 0.30000000E+03</rscale>
<asrwt>  1 0.48178302E+02</asrwt>
<pdfrwt beam="1">  1        1 0.87943401E+00 0.30000000E+03</pdfrwt>
<pdfrwt beam="2">0</pdfrwt>
<totfact> 0.18923177E-04</totfact>
</mgrwt>
<clustering>
<clus scale="   48.178">  1  6  2 -1</clus>
<clus scale="  457.225">  4  5 -1 -1</clus>
<clus scale="  300.000">  1  4  2 -1</clus>
</clustering>
</event>
<event>
 6    1  0.1000035E-011  0.3000000E+03  0.7818608E-02  0.1093470E+00
          1   -1    0    0  502    0  0.00000000000E+00  0.00000000000E+00  0.23301244130E+03  0.23301244130E+03  0.00000000000E+00 0.  1.
         13   -1    0    0    0    0 -0.00000000000E+00 -0.00000000000E+00 -0.27500000000E+03  0.27500000000E+03  0.00000000000E+00 0.  1.
    9000005    2    1    2  501    0 -0.29199979333E+02  0.97987465992E+01 -0.56684793399E+02  0.47388528297E+03  0.46947357901E+03 0.  0.
         13    1    3    3    0    0 -0.48474419437E+01  0.19322019941E+03  0.11209951984E+03  0.22343644623E+03  0.00000000000E+00 0.  1.
          1    1    3    3  501    0 -0.24352537390E+02 -0.18342145281E+03 -0.16878431324E+03  0.25044883674E+03  0.00000000000E+00 0.  1.
         21    1    1    2  502  501  0.29199979333E+02 -0.97987465992E+01  0.14697234701E+02  0.34127158332E+02  0.00000000000E+00 0.  1.
<scales pt_clust_4="550.00000" pt_clust_5="550.00000" pt_clust_6="30.80023"></scales>
<mgrwt>
<rscale>  0 0.30000000E+03</rscale>
<asrwt>  1 0.30800231E+02</asrwt>
<pdfrwt beam="1">  1        1 0.84731797E+00 0.30000000E+03</pdfrwt>
<pdfrwt beam="2">0</pdfrwt>
<totfact> 0.44140700E-04</totfact>
</mgrwt>
<clustering>
<clus scale="   30.800">  1  6  2 -1</clus>
<clus scale="  469.474">  4  5 -1 -1</clus>
<clus scale="  300.000">  1  4  2 -1</clus>
</clustering>
</event>
<event>
 6    1  0.1000035E-011  0.3000000E+03  0.7818608E-02  0.1093470E+00
          1   -1    0    0  502    0  0.00000000000E+00  0.00000000000E+00  0.23163031074E+03  0.23163031074E+03  0.00000000000E+00 0.  1.
         13   -1    0    0    0    0 -0.00000000000E+00 -0.00000000000E+00 -0.27500000000E+03  0.27500000000E+03  0.00000000000E+00 0.  1.
    9000005    2    1    2  501    0  0.31855495170E+02  0.11408247989E+02 -0.30362161490E+02  0.47037956629E+03  0.46817748220E+03 0.  0.
         13    1    3    3    0    0 -0.29982233214E+02 -0.17627589169E+03  0.12570612223E+03  0.21857299346E+03  0.00000000000E+00 0.  1.
          1    1    3    3  501    0  0.61837728383E+02  0.18768413968E+03 -0.15606828372E+03  0.25180657284E+03  0.00000000000E+00 0.  1.
         21    1    1    2  502  501 -0.31855495170E+02 -0.11408247989E+02 -0.13007527765E+02  0.36250744451E+02  0.00000000000E+00 0. -1.
<scales pt_clust_4="550.00000" pt_clust_5="550.00000" pt_clust_6="33.83669"></scales>
<mgrwt>
<rscale>  0 0.30000000E+03</rscale>
<asrwt>  1 0.33836694E+02</asrwt>
<pdfrwt beam="1">  1        1 0.84229204E+00 0.30000000E+03</pdfrwt>
<pdfrwt beam="2">0</pdfrwt>
<totfact> 0.47953411E-04</totfact>
</mgrwt>
<clustering>
<clus scale="   33.837">  1  6  2 -1</clus>
<clus scale="  468.177">  4  5 -1 -1</clus>
<clus scale="  300.000">  1  4  2 -1</clus>
</clustering>
</event>
<event>
 6    1  0.1000035E-011  0.3000000E+03  0.7818608E-02  0.1093470E+00
          1   -1    0    0  502    0  0.00000000000E+00  0.00000000000E+00  0.24061041425E+03  0.24061041425E+03  0.00000000000E+00 0.  1.
         13   -1    0    0    0    0 -0.00000000000E+00 -0.00000000000E+00 -0.27500000000E+03  0.27500000000E+03  0.00000000000E+00 0.  1.
    9000005    2    1    2  501    0  0.48902197038E+02 -0.71783166130E+01 -0.45293749737E+02  0.46499565458E+03  0.46013745979E+03 0.  0.
         13    1    3    3    0    0 -0.77773378384E+02 -0.20535255051E+03  0.21112494078E+02  0.22059942382E+03  0.00000000000E+00 0.  1.
          3    1    3    3  501    0  0.12667557542E+03  0.19817423389E+03 -0.66406243815E+02  0.24439623075E+03  0.00000000000E+00 0.  1.
         21    1    1    2  502  501 -0.48902197038E+02  0.71783166130E+01  0.10904163986E+02  0.50614759673E+02  0.00000000000E+00 0. -1.
<scales pt_clust_4="550.00000" pt_clust_5="550.00000" pt_clust_6="49.42624"></scales>
<mgrwt>
<rscale>  0 0.30000000E+03</rscale>
<asrwt>  1 0.49426239E+02</asrwt>
<pdfrwt beam="1">  1        1 0.87494696E+00 0.30000000E+03</pdfrwt>
<pdfrwt beam="2">0</pdfrwt>
<totfact> 0.21156060E-04</totfact>
</mgrwt>
<clustering>
<clus scale="   49.426">  1  6  2 -1</clus>
<clus scale="  460.137">  4  5 -1 -1</clus>
<clus scale="  300.000">  1  4  2 -1</clus>
</clustering>
</event>
<event>
 6    1  0.1000035E-011  0.3000000E+03  0.7818608E-02  0.1093470E+00
          1   -1    0    0  502    0  0.00000000000E+00  0.00000000000E+00  0.24344207143E+03  0.24344207143E+03  0.00000000000E+00 0.  1.
         13   -1    0    0    0    0 -0.00000000000E+00 -0.00000000000E+00 -0.27500000000E+03  0.27500000000E+03  0.00000000000E+00 0.  1.
    9000005    2    1    2  501    0 -0.35439135161E+02 -0.13289364451E+02 -0.46977402486E+02  0.47757277141E+03  0.47374712256E+03 0.  0.
         13    1    3    3    0    0 -0.21746888844E+03 -0.23293933420E+02  0.10276625278E+03  0.24165311396E+03  0.00000000000E+00 0.  1.
          3    1    3    3  501    0  0.18202975328E+03  0.10004568969E+02 -0.14974365527E+03  0.23591965745E+03  0.00000000000E+00 0.  1.
         21    1    1    2  502  501  0.35439135161E+02  0.13289364451E+02  0.15419473915E+02  0.40869300022E+02  0.00000000000E+00 0.  1.
<scales pt_clust_4="550.00000" pt_clust_5="550.00000" pt_clust_6="37.84890"></scales>
<mgrwt>
<rscale>  0 0.30000000E+03</rscale>
<asrwt>  1 0.37848904E+02</asrwt>
<pdfrwt beam="1">  1        1 0.88524390E+00 0.30000000E+03</pdfrwt>
<pdfrwt beam="2">0</pdfrwt>
<totfact> 0.16597604E-04</totfact>
</mgrwt>
<clustering>
<clus scale="   37.849">  1  6  2 -1</clus>
<clus scale="  473.747">  4  5 -1 -1</clus>
<clus scale="  300.000">  1  4  2 -1</clus>
</clustering>
</event>
<event>
 6    1  0.1000035E-011  0.3000000E+03  0.7818608E-02  0.1093470E+00
          1   -1    0    0  502    0  0.00000000000E+00  0.00000000000E+00  0.26073770747E+03  0.26073770747E+03  0.00000000000E+00 0.  1.
         13   -1    0    0    0    0 -0.00000000000E+00 -0.00000000000E+00 -0.27500000000E+03  0.27500000000E+03  0.00000000000E+00 0.  1.
    9000005    2    1    2  501    0 -0.39343281177E+02 -0.47731093069E+02 -0.27271052144E+02  0.47252869825E+03  0.46766816159E+03 0.  0.
         13    1    3    3    0    0 -0.11235522882E+03  0.17368736216E+03 -0.97987739483E+02  0.22889428631E+03  0.00000000000E+00 0.  1.
          1    1    3    3  501    0  0.73011947640E+02 -0.22141845523E+03  0.70716687339E+02  0.24363441194E+03  0.00000000000E+00 0.  1.
         21    1    1    2  502  501  0.39343281177E+02  0.47731093069E+02  0.13008759610E+02  0.63209009215E+02  0.00000000000E+00 0. -1.
<scales pt_clust_4="550.00000" pt_clust_5="550.00000" pt_clust_6="61.85589"></scales>
<mgrwt>
<rscale>  0 0.30000000E+03</rscale>
<asrwt>  1 0.61855889E+02</asrwt>
<pdfrwt beam="1">  1        1 0.94813712E+00 0.30000000E+03</pdfrwt>
<pdfrwt beam="2">0</pdfrwt>
<totfact> 0.12173132E-05</totfact>
</mgrwt>
<clustering>
<clus scale="   61.856">  1  6  2 -1</clus>
<clus scale="  467.668">  4  5 -1 -1</clus>
<clus scale="  300.000">  1  4  2 -1</clus>
</clustering>
</event>
<event>
 6    1  0.1000035E-011  0.3000000E+03  0.7818608E-02  0.1093470E+00
          1   -1    0    0  502    0  0.00000000000E+00  0.00000000000E+00  0.24154051219E+03  0.24154051219E+03  0.00000000000E+00 0.  1.
         13   -1    0    0    0    0 -0.00000000000E+00 -0.00000000000E+00 -0.27500000000E+03  0.27500000000E+03  0.00000000000E+00 0.  1.
    9000005    2    1    2  501    0  0.16367505474E+02 -0.30718893630E+02 -0.35249430136E+02  0.48168725474E+03  0.47913311656E+03 0.  0.
         13    1    3    3    0    0  0.20424443734E+03 -0.94188160224E+02  0.95291696530E+02  0.24426974258E+03  0.00000000000E+00 0.  1.
          3    1    3    3  501    0 -0.18787693187E+03  0.63469266594E+02 -0.13054112667E+03  0.23741751216E+03  0.00000000000E+00 0.  1.
         21    1    1    2  502  501 -0.16367505474E+02  0.30718893630E+02  0.17899423212E+01  0.34853257449E+02  0.00000000000E+00 0. -1.
<scales pt_clust_4="550.00000" pt_clust_5="550.00000" pt_clust_6="34.80726"></scales>
<mgrwt>
<rscale>  0 0.30000000E+03</rscale>
<asrwt>  1 0.34807264E+02</asrwt>
<pdfrwt beam="1">  1        1 0.87832914E+00 0.30000000E+03</pdfrwt>
<pdfrwt beam="2">0</pdfrwt>
<totfact> 0.20689854E-04</totfact>
</mgrwt>
<clustering>
<clus scale="   34.807">  1  6  2 -1</clus>
<clus scale="  479.133">  4  5 -1 -1</clus>
<clus scale="  300.000">  1  4  2 -1</clus>
</clustering>
</event>
<event>
 6    1  0.1000035E-011  0.3000000E+03  0.7818608E-02  0.1093470E+00
          1   -1    0    0  502    0  0.00000000000E+00  0.00000000000E+00  0.23238453804E+03  0.23238453804E+03  0.00000000000E+00 0.  1.
         13   -1    0    0    0    0 -0.00000000000E+00 -0.00000000000E+00 -0.27500000000E+03  0.27500000000E+03  0.00000000000E+00 0.  1.
    9000005    2    1    2  501    0  0.27419513296E+02  0.21299461007E+02 -0.47088864504E+02  0.47237728052E+03  0.46874026629E+03 0.  0.
         13    1    3    3    0    0  0.70311157148E+02 -0.12515656056E+03  0.16011131536E+03  0.21504291845E+03  0.00000000000E+00 0.  1.
          3    1    3    3  501    0 -0.42891643851E+02  0.14645602156E+03 -0.20720017987E+03  0.25733436207E+03  0.00000000000E+00 0.  1.
         21    1    1    2  502  501 -0.27419513296E+02 -0.21299461007E+02  0.44734025455E+01  0.35007257518E+02  0.00000000000E+00 0. -1.
<scales pt_clust_4="550.00000" pt_clust_5="550.00000" pt_clust_6="34.72026"></scales>
<mgrwt>
<rscale>  0 0.30000000E+03</rscale>
<asrwt>  1 0.34720264E+02</asrwt>
<pdfrwt beam="1">  1        1 0.84503468E+00 0.30000000E+03</pdfrwt>
<pdfrwt beam="2">0</pdfrwt>
<totfact> 0.45218807E-04</totfact>
</mgrwt>
<clustering>
<clus scale="   34.720">  1  6  2 -1</clus>
<clus scale="  468.740">  4  5 -1 -1</clus>
<clus scale="  300.000">  1  4  2 -1</clus>
</clustering>
</event>
<event>
 6    1  0.1000035E-011  0.3000000E+03  0.7818608E-02  0.1093470E+00
          1   -1    0    0  502    0  0.00000000000E+00  0.00000000000E+00  0.23749905262E+03  0.23749905262E+03  0.00000000000E+00 0.  1.
         13   -1    0    0    0    0 -0.00000000000E+00 -0.00000000000E+00 -0.27500000000E+03  0.27500000000E+03  0.00000000000E+00 0.  1.
    9000005    2    1    2  501    0  0.12912648643E+02  0.27133431624E+02 -0.63901677606E+02  0.47249957559E+03  0.46719317731E+03 0.  0.
         13    1    3    3    0    0  0.15799419675E+02  0.20645743234E+03  0.99635732595E+02  0.22978592699E+03  0.00000000000E+00 0.  1.
          3    1    3    3  501    0 -0.28867710321E+01 -0.17932400072E+03 -0.16353741020E+03  0.24271364860E+03  0.00000000000E+00 0.  1.
         21    1    1    2  502  501 -0.12912648643E+02 -0.27133431624E+02  0.26400730230E+02  0.39999477038E+02  0.00000000000E+00 0.  1.
<scales pt_clust_4="550.00000" pt_clust_5="550.00000" pt_clust_6="30.04929"></scales>
<mgrwt>
<rscale>  0 0.30000000E+03</rscale>
<asrwt>  1 0.30049286E+02</asrwt>
<pdfrwt beam="1">  1        1 0.86363292E+00 0.30000000E+03</pdfrwt>
<pdfrwt beam="2">0</pdfrwt>
<totfact> 0.30425589E-04</totfact>
</mgrwt>
<clustering>
<clus scale="   30.049">  1  6  2 -1</clus>
<clus scale="  467.193">  4  5 -1 -1</clus>
<clus scale="  300.000">  1  4  2 -1</clus>
</clustering>
</event>
<event>
 6    1  0.1000035E-011  0.3000000E+03  0.7818608E-02  0.1093470E+00
          1   -1    0    0  502    0  0.00000000000E+00  0.00000000000E+00  0.23614578764E+03  0.23614578764E+03  0.00000000000E+00 0.  1.
         13   -1    0    0    0    0 -0.00000000000E+00 -0.00000000000E+00 -0.27500000000E+03  0.27500000000E+03  0.00000000000E+00 0.  1.
    9000005    2    1    2  501    0  0.41482645859E+02  0.10689458187E+02 -0.36736209263E+02  0.46825569133E+03  0.46484273574E+03 0.  0.
         13    1    3    3    0    0 -0.10220001070E+03  0.73748714096E+02 -0.20344363401E+03  0.23931783728E+03  0.00000000000E+00 0.  1.
          3    1    3    3  501    0  0.14368265656E+03 -0.63059255909E+02  0.16670742475E+03  0.22893785406E+03  0.00000000000E+00 0.  1.
         21    1    1    2  502  501 -0.41482645859E+02 -0.10689458187E+02 -0.21180031007E+01  0.42890096303E+02  0.00000000000E+00 0. -1.
<scales pt_clust_4="550.00000" pt_clust_5="550.00000" pt_clust_6="42.83777"></scales>
<mgrwt>
<rscale>  0 0.30000000E+03</rscale>
<asrwt>  1 0.42837769E+02</asrwt>
<pdfrwt beam="1">  1        1 0.85871196E+00 0.30000000E+03</pdfrwt>
<pdfrwt beam="2">0</pdfrwt>
<totfact> 0.32163891E-04</totfact>
</mgrwt>
<clustering>
<clus scale="   42.838">  1  6  2 -1</clus>
<clus scale="  464.843">  4  5 -1 -1</clus>
<clus scale="  300.000">  1  4  2 -1</clus>
</clustering>
</event>
<event>
 6    1  0.1000035E-011  0.3000000E+03  0.7818608E-02  0.1093470E+00
          1   -1    0    0  502    0  0.00000000000E+00  0.00000000000E+00  0.23227114473E+03  0.23227114473E+03  0.00000000000E+00 0.  1.
         13   -1    0    0    0    0 -0.00000000000E+00 -0.00000000000E+00 -0.27500000000E+03  0.27500000000E+03  0.00000000000E+00 0.  1.
    9000005    2    1    2  501    0 -0.35894173077E+02 -0.26282063763E+02 -0.52308741609E+02  0.46176386225E+03  0.45662952324E+03 0.  0.
         13    1    3    3    0    0  0.13867272475E+02  0.86916181891E+02 -0.22943953561E+03  0.24574219097E+03  0.00000000000E+00 0.  1.
          1    1    3    3  501    0 -0.49761445551E+02 -0.11319824565E+03  0.17713079400E+03  0.21602167129E+03  0.00000000000E+00 0.  1.
         21    1    1    2  502  501  0.35894173077E+02  0.26282063763E+02  0.95798863432E+01  0.45507282481E+02  0.00000000000E+00 0. -1.
<scales pt_clust_4="550.00000" pt_clust_5="550.00000" pt_clust_6="44.48751"></scales>
<mgrwt>
<rscale>  0 0.30000000E+03</rscale>
<asrwt>  1 0.44487510E+02</asrwt>
<pdfrwt beam="1">  1        1 0.84462234E+00 0.30000000E+03</pdfrwt>
<pdfrwt beam="2">0</pdfrwt>
<totfact> 0.43571172E-04</totfact>
</mgrwt>
<clustering>
<clus scale="   44.488">  1  6  2 -1</clus>
<clus scale="  456.630">  4  5 -1 -1</clus>
<clus scale="  300.000">  1  4  2 -1</clus>
</clustering>
</event>
<event>
 6    1  0.1000035E-011  0.3000000E+03  0.7818608E-02  0.1093470E+00
          1   -1    0    0  502    0  0.00000000000E+00  0.00000000000E+00  0.23047983001E+03  0.23047983001E+03  0.00000000000E+00 0.  1.
         13   -1    0    0    0    0 -0.00000000000E+00 -0.00000000000E+00 -0.27500000000E+03  0.27500000000E+03  0.00000000000E+00 0.  1.
    9000005    2    1    2  501    0  0.25362544905E+02  0.21433217105E+02 -0.36008530009E+02  0.47120025161E+03  0.46864743828E+03 0.  0.
         13    1    3    3    0    0  0.15223712792E+03 -0.14866887366E+03 -0.11845850426E+03  0.24353848637E+03  0.00000000000E+00 0.  1.
          3    1    3    3  501    0 -0.12687458301E+03  0.17010209077E+03  0.82449974249E+02  0.22766176524E+03  0.00000000000E+00 0.  1.
         21    1    1    2  502  501 -0.25362544905E+02 -0.21433217105E+02 -0.85116399853E+01  0.34279578393E+02  0.00000000000E+00 0. -1.
<scales pt_clust_4="550.00000" pt_clust_5="550.00000" pt_clust_6="33.20606"></scales>
<mgrwt>
<rscale>  0 0.30000000E+03</rscale>
<asrwt>  1 0.33206062E+02</asrwt>
<pdfrwt beam="1">  1        1 0.83810847E+00 0.30000000E+03</pdfrwt>
<pdfrwt beam="2">0</pdfrwt>
<totfact> 0.51863121E-04</totfact>
</mgrwt>
<clustering>
<clus scale="   33.206">  1  6  2 -1</clus>
<clus scale="  468.647">  4  5 -1 -1</clus>
<clus scale="  300.000">  1  4  2 -1</clus>
</clustering>
</event>
<event>
 6    1  0.1000035E-011  0.3000000E+03  0.7818608E-02  0.1093470E+00
          1   -1    0    0  502    0  0.00000000000E+00  0.00000000000E+00  0.23334227391E+03  0.23334227391E+03  0.00000000000E+00 0.  1.
         13   -1    0    0    0    0 -0.00000000000E+00 -0.00000000000E+00 -0.27500000000E+03  0.27500000000E+03  0.00000000000E+00 0.  1.
    9000005    2    1    2  501    0 -0.27676877418E+02 -0.18372230932E+02 -0.29537124631E+02  0.47298046693E+03  0.47088696303E+03 0.  0.
         13    1    3    3    0    0 -0.84334287176E+02 -0.21088025431E+03 -0.11534771455E+03  0.25473093432E+03  0.00000000000E+00 0.  1.
          3    1    3    3  501    0  0.56657409758E+02  0.19250802337E+03  0.85810589915E+02  0.21824953261E+03  0.00000000000E+00 0.  1.
         21    1    1    2  502  501  0.27676877418E+02  0.18372230932E+02 -0.12120601458E+02  0.35361806978E+02  0.00000000000E+00 0. -1.
<scales pt_clust_4="550.00000" pt_clust_5="550.00000" pt_clust_6="33.21972"></scales>
<mgrwt>
<rscale>  0 0.30000000E+03</rscale>
<asrwt>  1 0.33219716E+02</asrwt>
<pdfrwt beam="1">  1        1 0.84851736E+00 0.30000000E+03</pdfrwt>
<pdfrwt beam="2">0</pdfrwt>
<totfact> 0.42425796E-04</totfact>
</mgrwt>
<clustering>
<clus scale="   33.220">  1  6  2 -1</clus>
<clus scale="  470.887">  4  5 -1 -1</clus>
<clus scale="  300.000">  1  4  2 -1</clus>
</clustering>
</event>
<event>
 6    1  0.1000035E-011  0.3000000E+03  0.7818608E-02  0.1093470E+00
          1   -1    0    0  502    0  0.00000000000E+00  0.00000000000E+00  0.25381221982E+03  0.25381221982E+03  0.00000000000E+00 0.  1.
         13   -1    0    0    0    0 -0.00000000000E+00 -0.00000000000E+00 -0.27500000000E+03  0.27500000000E+03  0.00000000000E+00 0.  1.
    9000005    2    1    2  501    0  0.31376151304E+02  0.23760884737E+02 -0.63778118018E+02  0.47082101884E+03  0.46481796537E+03 0.  0.
         13    1    3    3    0    0  0.14136390921E+03  0.87625619401E+02 -0.21590103450E+03  0.27253487978E+03  0.00000000000E+00 0.  1.
          1    1    3    3  501    0 -0.10998775791E+03 -0.63864734665E+02  0.15212291648E+03  0.19828613905E+03  0.00000000000E+00 0.  1.
         21    1    1    2  502  501 -0.31376151304E+02 -0.23760884737E+02  0.42590337840E+02  0.57991200983E+02  0.00000000000E+00 0.  1.
<scales pt_clust_4="550.00000" pt_clust_5="550.00000" pt_clust_6="39.35788"></scales>
<mgrwt>
<rscale>  0 0.30000000E+03</rscale>
<asrwt>  1 0.39357877E+02</asrwt>
<pdfrwt beam="1">  1        1 0.92295353E+00 0.30000000E+03</pdfrwt>
<pdfrwt beam="2">0</pdfrwt>
<totfact> 0.35387477E-05</totfact>
</mgrwt>
<clustering>
<clus scale="   39.358">  1  6  2 -1</clus>
<clus scale="  464.818">  4  5 -1 -1</clus>
<clus scale="  300.000">  1  4  2 -1</clus>
</clustering>
</event>
<event>
 6    1  0.1000035E-011  0.3000000E+03  0.7818608E-02  0.1093470E+00
          1   -1    0    0  502    0  0.00000000000E+00  0.00000000000E+00  0.23524551329E+03  0.23524551329E+03  0.00000000000E+00 0.  1.
         13   -1    0    0    0    0 -0.00000000000E+00 -0.00000000000E+00 -0.27500000000E+03  0.27500000000E+03  0.00000000000E+00 0.  1.
    9000005    2    1    2  501    0  0.25601402913E+02 -0.16316028303E+02 -0.61049152256E+02  0.47316307282E+03  0.46822499920E+03 0.  0.
         13    1    3    3    0    0 -0.20895139317E+03  0.22858081013E+02 -0.99012362477E+02  0.23235021950E+03  0.00000000000E+00 0.  1.
          1    1    3    3  501    0  0.23455279609E+03 -0.39174109316E+02  0.37963210221E+02  0.24081285332E+03  0.00000000000E+00 0.  1.
         21    1    1    2  502  501 -0.25601402913E+02  0.16316028303E+02  0.21294665544E+02  0.37082440471E+02  0.00000000000E+00 0. -1.
<scales pt_clust_4="550.00000" pt_clust_5="550.00000" pt_clust_6="30.35860"></scales>
<mgrwt>
<rscale>  0 0.30000000E+03</rscale>
<asrwt>  1 0.30358600E+02</asrwt>
<pdfrwt beam="1">  1        1 0.85543823E+00 0.30000000E+03</pdfrwt>
<pdfrwt beam="2">0</pdfrwt>
<totfact> 0.37055351E-04</totfact>
</mgrwt>
<clustering>
<clus scale="   30.359">  1  6  2 -1</clus>
<clus scale="  468.225">  4  5 -1 -1</clus>
<clus scale="  300.000">  1  4  2 -1</clus>
</clustering>
</event>
<event>
 6    1  0.1000035E-011  0.3000000E+03  0.7818608E-02  0.1093470E+00
          1   -1    0    0  502    0  0.00000000000E+00  0.00000000000E+00  0.23677711360E+03  0.23677711360E+03  0.00000000000E+00 0.  1.
         13   -1    0    0    0    0 -0.00000000000E+00 -0.00000000000E+00 -0.27500000000E+03  0.27500000000E+03  0.00000000000E+00 0.  1.
    9000005    2    1    2  501    0  0.31145000800E+02  0.66032643514E+00 -0.71104304937E+02  0.46648213826E+03  0.45997751688E+03 0.  0.
         13    1    3    3    0    0 -0.19159486861E+02 -0.17762430490E+03  0.10804077440E+03  0.20878287420E+03  0.00000000000E+00 0.  1.
          1    1    3    3  501    0  0.50304487661E+02  0.17828463133E+03 -0.17914507933E+03  0.25769926406E+03  0.00000000000E+00 0.  1.
         21    1    1    2  502  501 -0.31145000800E+02 -0.66032643514E+00  0.32881418540E+02  0.45294975340E+02  0.00000000000E+00 0.  1.
<scales pt_clust_4="550.00000" pt_clust_5="550.00000" pt_clust_6="31.15200"></scales>
<mgrwt>
<rscale>  0 0.30000000E+03</rscale>
<asrwt>  1 0.31152000E+02</asrwt>
<pdfrwt beam="1">  1        1 0.86100769E+00 0.30000000E+03</pdfrwt>
<pdfrwt beam="2">0</pdfrwt>
<totfact> 0.32254867E-04</totfact>
</mgrwt>
<clustering>
<clus scale="   31.152">  1  6  2 -1</clus>
<clus scale="  459.978">  4  5 -1 -1</clus>
<clus scale="  300.000">  1  4  2 -1</clus>
</clustering>
</event>
<event>
 6    1  0.1000035E-011  0.3000000E+03  0.7818608E-02  0.1093470E+00
          1   -1    0    0  502    0  0.00000000000E+00  0.00000000000E+00  0.23941398115E+03  0.23941398115E+03  0.00000000000E+00 0.  1.
         13   -1    0    0    0    0 -0.00000000000E+00 -0.00000000000E+00 -0.27500000000E+03  0.27500000000E+03  0.00000000000E+00 0.  1.
    9000005    2    1    2  501    0  0.29032527881E+02 -0.77659736760E+01 -0.60936855866E+02  0.47509651735E+03  0.47021293301E+03 0.  0.
         13    1    3    3    0    0 -0.15732262222E+03 -0.47457659604E+02 -0.18522278200E+03  0.24760879607E+03  0.00000000000E+00 0.  1.
          3    1    3    3  501    0  0.18635515010E+03  0.39691685928E+02  0.12428592614E+03  0.22748772128E+03  0.00000000000E+00 0.  1.
         21    1    1    2  502  501 -0.29032527881E+02  0.77659736760E+01  0.25350837015E+02  0.39317463800E+02  0.00000000000E+00 0.  1.
<scales pt_clust_4="550.00000" pt_clust_5="550.00000" pt_clust_6="30.05325"></scales>
<mgrwt>
<rscale>  0 0.30000000E+03</rscale>
<asrwt>  1 0.30053253E+02</asrwt>
<pdfrwt beam="1">  1        1 0.87059630E+00 0.30000000E+03</pdfrwt>
<pdfrwt beam="2">0</pdfrwt>
<totfact> 0.25704910E-04</totfact>
</mgrwt>
<clustering>
<clus scale="   30.053">  1  6  2 -1</clus>
<clus scale="  470.213">  4  5 -1 -1</clus>
<clus scale="  300.000">  1  4  2 -1</clus>
</clustering>
</event>
<event>
 6    1  0.1000035E-011  0.3000000E+03  0.7818608E-02  0.1093470E+00
          1   -1    0    0  502    0  0.00000000000E+00  0.00000000000E+00  0.23571626794E+03  0.23571626794E+03  0.00000000000E+00 0.  1.
         13   -1    0    0    0    0 -0.00000000000E+00 -0.00000000000E+00 -0.27500000000E+03  0.27500000000E+03  0.00000000000E+00 0.  1.
    9000005    2    1    2  501    0 -0.20164650848E+02  0.24451472401E+02 -0.65301612759E+02  0.46971117359E+03  0.46406874310E+03 0.  0.
         13    1    3    3    0    0  0.20734334796E+03  0.92952500994E+02 -0.40730598249E+02  0.23084716376E+03  0.00000000000E+00 0.  1.
          1    1    3    3  501    0 -0.22750799880E+03 -0.68501028594E+02 -0.24571014510E+02  0.23886400983E+03  0.00000000000E+00 0.  1.
         21    1    1    2  502  501  0.20164650848E+02 -0.24451472401E+02  0.26017880697E+02  0.41005094347E+02  0.00000000000E+00 0. -1.
<scales pt_clust_4="550.00000" pt_clust_5="550.00000" pt_clust_6="31.69365"></scales>
<mgrwt>
<rscale>  0 0.30000000E+03</rscale>
<asrwt>  1 0.31693653E+02</asrwt>
<pdfrwt beam="1">  1        1 0.85715007E+00 0.30000000E+03</pdfrwt>
<pdfrwt beam="2">0</pdfrwt>
<totfact> 0.35309190E-04</totfact>
</mgrwt>
<clustering>
<clus scale="   31.694">  1  6  2 -1</clus>
<clus scale="  464.069">  4  5 -1 -1</clus>
<clus scale="  300.000">  1  4  2 -1</clus>
</clustering>
</event>
<event>
 6    1  0.1000035E-011  0.3000000E+03  0.7818608E-02  0.1093470E+00
          1   -1    0    0  502    0  0.00000000000E+00  0.00000000000E+00  0.22720189420E+03  0.22720189420E+03  0.00000000000E+00 0.  1.
         13   -1    0    0    0    0 -0.00000000000E+00 -0.00000000000E+00 -0.27500000000E+03  0.27500000000E+03  0.00000000000E+00 0.  1.
    9000005    2    1    2  501    0  0.31222442311E+02 -0.15962918547E+02 -0.50385428299E+02  0.46704012646E+03  0.46298826407E+03 0.  0.
         13    1    3    3    0    0 -0.80356522917E-01 -0.16754518051E+03 -0.19369410985E+03  0.25610310846E+03  0.00000000000E+00 0.  1.
          3    1    3    3  501    0  0.31302798833E+02  0.15158226196E+03  0.14330868156E+03  0.21093701801E+03  0.00000000000E+00 0.  1.
         21    1    1    2  502  501 -0.31222442311E+02  0.15962918547E+02  0.25873224965E+01  0.35161767733E+02  0.00000000000E+00 0. -1.
<scales pt_clust_4="550.00000" pt_clust_5="550.00000" pt_clust_6="35.06645"></scales>
<mgrwt>
<rscale>  0 0.30000000E+03</rscale>
<asrwt>  1 0.35066447E+02</asrwt>
<pdfrwt beam="1">  1        1 0.82618871E+00 0.30000000E+03</pdfrwt>
<pdfrwt beam="2">0</pdfrwt>
<totfact> 0.63722743E-04</totfact>
</mgrwt>
<clustering>
<clus scale="   35.066">  1  6  2 -1</clus>
<clus scale="  462.988">  4  5 -1 -1</clus>
<clus scale="  300.000">  1  4  2 -1</clus>
</clustering>
</event>
<event>
 6    1  0.1000035E-011  0.3000000E+03  0.7818608E-02  0.1093470E+00
          1   -1    0    0  502    0  0.00000000000E+00  0.00000000000E+00  0.23577482591E+03  0.23577482591E+03  0.00000000000E+00 0.  1.
         13   -1    0    0    0    0 -0.00000000000E+00 -0.00000000000E+00 -0.27500000000E+03  0.27500000000E+03  0.00000000000E+00 0.  1.
    9000005    2    1    2  501    0  0.25531393311E+02  0.29505952469E+02 -0.53322843950E+02  0.46928750771E+03  0.46461272683E+03 0.  0.
         13    1    3    3    0    0  0.23127556295E+03 -0.79183500009E+00 -0.10652020637E+03  0.25462829259E+03  0.00000000000E+00 0.  1.
          3    1    3    3  501    0 -0.20574416964E+03  0.30297787469E+02  0.53197362424E+02  0.21465921512E+03  0.00000000000E+00 0.  1.
         21    1    1    2  502  501 -0.25531393311E+02 -0.29505952469E+02  0.14097669856E+02  0.41487318193E+02  0.00000000000E+00 0.  1.
<scales pt_clust_4="550.00000" pt_clust_5="550.00000" pt_clust_6="39.01863"></scales>
<mgrwt>
<rscale>  0 0.30000000E+03</rscale>
<asrwt>  1 0.39018627E+02</asrwt>
<pdfrwt beam="1">  1        1 0.85736300E+00 0.30000000E+03</pdfrwt>
<pdfrwt beam="2">0</pdfrwt>
<totfact> 0.33791989E-04</totfact>
</mgrwt>
<clustering>
<clus scale="   39.019">  1  6  2 -1</clus>
<clus scale="  464.613">  4  5 -1 -1</clus>
<clus scale="  300.000">  1  4  2 -1</clus>
</clustering>
</event>
<event>
 6    1  0.1000035E-011  0.3000000E+03  0.7818608E-02  0.1093470E+00
          1   -1    0    0  502    0  0.00000000000E+00  0.00000000000E+00  0.25035319161E+03  0.25035319161E+03  0.00000000000E+00 0.  1.
         13   -1    0    0    0    0 -0.00000000000E+00 -0.00000000000E+00 -0.27500000000E+03  0.27500000000E+03  0.00000000000E+00 0.  1.
    9000005    2    1    2  501    0  0.36472512648E+02  0.99539802464E+01 -0.58131911492E+02  0.47484994388E+03  0.46975932579E+03 0.  0.
         13    1    3    3    0    0  0.16657615934E+03 -0.15576087639E+03 -0.11669415623E+03  0.25617687946E+03  0.00000000000E+00 0.  1.
          1    1    3    3  501    0 -0.13010364669E+03  0.16571485664E+03  0.58562244735E+02  0.21867306442E+03  0.00000000000E+00 0.  1.
         21    1    1    2  502  501 -0.36472512648E+02 -0.99539802464E+01  0.33485103104E+02  0.50503247732E+02  0.00000000000E+00 0.  1.
<scales pt_clust_4="550.00000" pt_clust_5="550.00000" pt_clust_6="37.80643"></scales>
<mgrwt>
<rscale>  0 0.30000000E+03</rscale>
<asrwt>  1 0.37806427E+02</asrwt>
<pdfrwt beam="1">  1        1 0.91037524E+00 0.30000000E+03</pdfrwt>
<pdfrwt beam="2">0</pdfrwt>
<totfact> 0.69356884E-05</totfact>
</mgrwt>
<clustering>
<clus scale="   37.806">  1  6  2 -1</clus>
<clus scale="  469.759">  4  5 -1 -1</clus>
<clus scale="  300.000">  1  4  2 -1</clus>
</clustering>
</event>
<event>
 6    1  0.1000035E-011  0.3000000E+03  0.7818608E-02  0.1093470E+00
          1   -1    0    0  502    0  0.00000000000E+00  0.00000000000E+00  0.24284748029E+03  0.24284748029E+03  0.00000000000E+00 0.  1.
         13   -1    0    0    0    0 -0.00000000000E+00 -0.00000000000E+00 -0.27500000000E+03  0.27500000000E+03  0.00000000000E+00 0.  1.
    9000005    2    1    2  501    0 -0.30200473866E+02 -0.12997866026E+01 -0.23533312218E+02  0.48641423667E+03  0.48490332519E+03 0.  0.
         13    1    3    3    0    0  0.10375738395E+03 -0.11334911710E+03 -0.19053193737E+03  0.24477752394E+03  0.00000000000E+00 0.  1.
          3    1    3    3  501    0 -0.13395785781E+03  0.11204933049E+03  0.16699862515E+03  0.24163671272E+03  0.00000000000E+00 0.  1.
         21    1    1    2  502  501  0.30200473866E+02  0.12997866026E+01 -0.86192074895E+01  0.31433243624E+02  0.00000000000E+00 0.  1.
<scales pt_clust_4="550.00000" pt_clust_5="550.00000" pt_clust_6="30.22845"></scales>
<mgrwt>
<rscale>  0 0.30000000E+03</rscale>
<asrwt>  1 0.30228447E+02</asrwt>
<pdfrwt beam="1">  1        1 0.88308175E+00 0.30000000E+03</pdfrwt>
<pdfrwt beam="2">0</pdfrwt>
<totfact> 0.18523876E-04</totfact>
</mgrwt>
<clustering>
<clus scale="   30.228">  1  6  2 -1</clus>
<clus scale="  484.903">  4  5 -1 -1</clus>
<clus scale="  300.000">  1  4  2 -1</clus>
</clustering>
</event>
<event>
 6    1  0.1000035E-011  0.3000000E+03  0.7818608E-02  0.1093470E+00
          1   -1    0    0  502    0  0.00000000000E+00  0.00000000000E+00  0.24413392107E+03  0.24413392107E+03  0.00000000000E+00 0.  1.
         13   -1    0    0    0    0 -0.00000000000E+00 -0.00000000000E+00 -0.27500000000E+03  0.27500000000E+03  0.00000000000E+00 0.  1.
    9000005    2    1    2  501    0 -0.23062142532E+02  0.21575013908E+02 -0.35731074238E+02  0.48718064545E+03  0.48484113686E+03 0.  0.
         13    1    3    3    0    0  0.22466418482E+03  0.18060079699E+02 -0.72397130859E+02  0.23673087457E+03  0.00000000000E+00 0.  1.
          1    1    3    3  501    0 -0.24772632735E+03  0.35149342088E+01  0.36666056622E+02  0.25044977088E+03  0.00000000000E+00 0.  1.
         21    1    1    2  502  501  0.23062142532E+02 -0.21575013908E+02  0.48649953086E+01  0.31953275617E+02  0.00000000000E+00 0.  1.
<scales pt_clust_4="550.00000" pt_clust_5="550.00000" pt_clust_6="31.58075"></scales>
<mgrwt>
<rscale>  0 0.30000000E+03</rscale>
<asrwt>  1 0.31580748E+02</asrwt>
<pdfrwt beam="1">  1        1 0.88775971E+00 0.30000000E+03</pdfrwt>
<pdfrwt beam="2">0</pdfrwt>
<totfact> 0.15852164E-04</totfact>
</mgrwt>
<clustering>
<clus scale="   31.581">  1  6  2 -1</clus>
<clus scale="  484.841">  4  5 -1 -1</clus>
<clus scale="  300.000">  1  4  2 -1</clus>
</clustering>
</event>
<event>
 6    1  0.1000035E-011  0.3000000E+03  0.7818608E-02  0.1093470E+00
          1   -1    0    0  502    0  0.00000000000E+00  0.00000000000E+00  0.23216901582E+03  0.23216901582E+03  0.00000000000E+00 0.  1.
         13   -1    0    0    0    0 -0.00000000000E+00 -0.00000000000E+00 -0.27500000000E+03  0.27500000000E+03  0.00000000000E+00 0.  1.
    9000005    2    1    2  501    0 -0.33452486979E+02 -0.54511812165E+01 -0.38228642128E+02  0.47296425279E+03  0.47019673657E+03 0.  0.
         13    1    3    3    0    0 -0.14903242297E+03 -0.27477117442E+02  0.17373020289E+03  0.23053814972E+03  0.00000000000E+00 0.  1.
          3    1    3    3  501    0  0.11557993599E+03  0.22025936226E+02 -0.21195884502E+03  0.24242610307E+03  0.00000000000E+00 0.  1.
         21    1    1    2  502  501  0.33452486979E+02  0.54511812165E+01 -0.46023420483E+01  0.34204763031E+02  0.00000000000E+00 0.  1.
<scales pt_clust_4="550.00000" pt_clust_5="550.00000" pt_clust_6="33.89374"></scales>
<mgrwt>
<rscale>  0 0.30000000E+03</rscale>
<asrwt>  1 0.33893737E+02</asrwt>
<pdfrwt beam="1">  1        1 0.84425097E+00 0.30000000E+03</pdfrwt>
<pdfrwt beam="2">0</pdfrwt>
<totfact> 0.46141223E-04</totfact>
</mgrwt>
<clustering>
<clus scale="   33.894">  1  6  2 -1</clus>
<clus scale="  470.197">  4  5 -1 -1</clus>
<clus scale="  300.000">  1  4  2 -1</clus>
</clustering>
</event>
<event>
 6    1  0.1000035E-011  0.3000000E+03  0.7818608E-02  0.1093470E+00
          1   -1    0    0  502    0  0.00000000000E+00  0.00000000000E+00  0.24621234022E+03  0.24621234022E+03  0.00000000000E+00 0.  1.
         13   -1    0    0    0    0 -0.00000000000E+00 -0.00000000000E+00 -0.27500000000E+03  0.27500000000E+03  0.00000000000E+00 0.  1.
    9000005    2    1    2  501    0 -0.17561643994E+02 -0.30740214008E+02 -0.64512062584E+02  0.47091716100E+03  0.46513201804E+03 0.  0.
         13    1    3    3    0    0 -0.12101509148E+03 -0.69454349067E+02  0.16507222159E+03  0.21614207668E+03  0.00000000000E+00 0.  1.
          3    1    3    3  501    0  0.10345344749E+03  0.38714135059E+02 -0.22958428417E+03  0.25477508432E+03  0.00000000000E+00 0.  1.
         21    1    1    2  502  501  0.17561643994E+02  0.30740214008E+02  0.35724402806E+02  0.50295179221E+02  0.00000000000E+00 0. -1.
<scales pt_clust_4="550.00000" pt_clust_5="550.00000" pt_clust_6="35.40300"></scales>
<mgrwt>
<rscale>  0 0.30000000E+03</rscale>
<asrwt>  1 0.35402996E+02</asrwt>
<pdfrwt beam="1">  1        1 0.89531760E+00 0.30000000E+03</pdfrwt>
<pdfrwt beam="2">0</pdfrwt>
<totfact> 0.12479694E-04</totfact>
</mgrwt>
<clustering>
<clus scale="   35.403">  1  6  2 -1</clus>
<clus scale="  465.132">  4  5 -1 -1</clus>
<clus scale="  300.000">  1  4  2 -1</clus>
</clustering>
</event>
<event>
 6    1  0.1000035E-011  0.3000000E+03  0.7818608E-02  0.1093470E+00
          1   -1    0    0  502    0  0.00000000000E+00  0.00000000000E+00  0.24219329960E+03  0.24219329960E+03  0.00000000000E+00 0.  1.
         13   -1    0    0    0    0 -0.00000000000E+00 -0.00000000000E+00 -0.27500000000E+03  0.27500000000E+03  0.00000000000E+00 0.  1.
    9000005    2    1    2  501    0 -0.26779573769E+02 -0.14283332713E+02 -0.56089600396E+02  0.47894081475E+03  0.47467578577E+03 0.  0.
         13    1    3    3    0    0  0.55258102691E+02  0.11313470746E+03 -0.22138881677E+03  0.25468790339E+03  0.00000000000E+00 0.  1.
          1    1    3    3  501    0 -0.82037676461E+02 -0.12741804017E+03  0.16529921637E+03  0.22425291136E+03  0.00000000000E+00 0.  1.
         21    1    1    2  502  501  0.26779573769E+02  0.14283332713E+02  0.23282899994E+02  0.38252484845E+02  0.00000000000E+00 0.  1.
<scales pt_clust_4="550.00000" pt_clust_5="550.00000" pt_clust_6="30.35060"></scales>
<mgrwt>
<rscale>  0 0.30000000E+03</rscale>
<asrwt>  1 0.30350604E+02</asrwt>
<pdfrwt beam="1">  1        1 0.88070291E+00 0.30000000E+03</pdfrwt>
<pdfrwt beam="2">0</pdfrwt>
<totfact> 0.19873511E-04</totfact>
</mgrwt>
<clustering>
<clus scale="   30.351">  1  6  2 -1</clus>
<clus scale="  474.676">  4  5 -1 -1</clus>
<clus scale="  300.000">  1  4  2 -1</clus>
</clustering>
</event>
<event>
 6    1  0.1000035E-011  0.3000000E+03  0.7818608E-02  0.1093470E+00
          1   -1    0    0  502    0  0.00000000000E+00  0.00000000000E+00  0.25588265915E+03  0.25588265915E+03  0.00000000000E+00 0.  1.
         13   -1    0    0    0    0 -0.00000000000E+00 -0.00000000000E+00 -0.27500000000E+03  0.27500000000E+03  0.00000000000E+00 0.  1.
    9000005    2    1    2  501    0  0.34564354670E+02 -0.14504107060E+02 -0.54475614360E+02  0.47935333506E+03  0.47477043246E+03 0.  0.
         13    1    3    3    0    0  0.46891957990E+02  0.21431544366E+03  0.53835019945E+02  0.22589416656E+03  0.00000000000E+00 0.  1.
          3    1    3    3  501    0 -0.12327603320E+02 -0.22881955072E+03 -0.10831063431E+03  0.25345916850E+03  0.00000000000E+00 0.  1.
         21    1    1    2  502  501 -0.34564354670E+02  0.14504107060E+02  0.35358273515E+02  0.51529324091E+02  0.00000000000E+00 0. -1.
<scales pt_clust_4="550.00000" pt_clust_5="550.00000" pt_clust_6="37.48418"></scales>
<mgrwt>
<rscale>  0 0.30000000E+03</rscale>
<asrwt>  1 0.37484180E+02</asrwt>
<pdfrwt beam="1">  1        1 0.93048240E+00 0.30000000E+03</pdfrwt>
<pdfrwt beam="2">0</pdfrwt>
<totfact> 0.25513456E-05</totfact>
</mgrwt>
<clustering>
<clus scale="   37.484">  1  6  2 -1</clus>
<clus scale="  474.770">  4  5 -1 -1</clus>
<clus scale="  300.000">  1  4  2 -1</clus>
</clustering>
</event>
<event>
 6    1  0.1000035E-011  0.3000000E+03  0.7818608E-02  0.1093470E+00
          1   -1    0    0  502    0  0.00000000000E+00  0.00000000000E+00  0.22079453144E+03  0.22079453144E+03  0.00000000000E+00 0.  1.
         13   -1    0    0    0    0 -0.00000000000E+00 -0.00000000000E+00 -0.27500000000E+03  0.27500000000E+03  0.00000000000E+00 0.  1.
    9000005    2    1    2  501    0 -0.13737830742E+01  0.31117921247E+02 -0.61312223836E+02  0.46384584957E+03  0.45871949061E+03 0.  0.
         13    1    3    3    0    0  0.15970806546E+03  0.17372746498E+03 -0.76759113235E+02  0.24815289586E+03  0.00000000000E+00 0.  1.
          1    1    3    3  501    0 -0.16108184853E+03 -0.14260954373E+03  0.15446889399E+02  0.21569295371E+03  0.00000000000E+00 0.  1.
         21    1    1    2  502  501  0.13737830742E+01 -0.31117921247E+02  0.71067552747E+01  0.31948681870E+02  0.00000000000E+00 0. -1.
<scales pt_clust_4="550.00000" pt_clust_5="550.00000" pt_clust_6="31.14823"></scales>
<mgrwt>
<rscale>  0 0.30000000E+03</rscale>
<asrwt>  1 0.31148231E+02</asrwt>
<pdfrwt beam="1">  1        1 0.80288921E+00 0.30000000E+03</pdfrwt>
<pdfrwt beam="2">0</pdfrwt>
<totfact> 0.10100838E-03</totfact>
</mgrwt>
<clustering>
<clus scale="   31.148">  1  6  2 -1</clus>
<clus scale="  458.719">  4  5 -1 -1</clus>
<clus scale="  300.000">  1  4  2 -1</clus>
</clustering>
</event>
<event>
 6    1  0.1000035E-011  0.3000000E+03  0.7818608E-02  0.1093470E+00
          1   -1    0    0  502    0  0.00000000000E+00  0.00000000000E+00  0.22423888608E+03  0.22423888608E+03  0.00000000000E+00 0.  1.
         13   -1    0    0    0    0 -0.00000000000E+00 -0.00000000000E+00 -0.27500000000E+03  0.27500000000E+03  0.00000000000E+00 0.  1.
    9000005    2    1    2  501    0  0.10803478364E+02  0.33046446531E+02 -0.56027163029E+02  0.46407478441E+03  0.45936649830E+03 0.  0.
         13    1    3    3    0    0 -0.11407536171E+03 -0.15521366673E+03 -0.12287515536E+03  0.22847926447E+03  0.00000000000E+00 0.  1.
          1    1    3    3  501    0  0.12487884007E+03  0.18826011326E+03  0.66847992327E+02  0.23559551995E+03  0.00000000000E+00 0.  1.
         21    1    1    2  502  501 -0.10803478364E+02 -0.33046446531E+02  0.52660491136E+01  0.35164101671E+02  0.00000000000E+00 0. -1.
<scales pt_clust_4="550.00000" pt_clust_5="550.00000" pt_clust_6="34.76755"></scales>
<mgrwt>
<rscale>  0 0.30000000E+03</rscale>
<asrwt>  1 0.34767553E+02</asrwt>
<pdfrwt beam="1">  1        1 0.81541413E+00 0.30000000E+03</pdfrwt>
<pdfrwt beam="2">0</pdfrwt>
<totfact> 0.79090567E-04</totfact>
</mgrwt>
<clustering>
<clus scale="   34.768">  1  6  2 -1</clus>
<clus scale="  459.366">  4  5 -1 -1</clus>
<clus scale="  300.000">  1  4  2 -1</clus>
</clustering>
</event>
<event>
 6    1  0.1000035E-011  0.3000000E+03  0.7818608E-02  0.1093470E+00
          1   -1    0    0  502    0  0.00000000000E+00  0.00000000000E+00  0.24575791897E+03  0.24575791897E+03  0.00000000000E+00 0.  1.
         13   -1    0    0    0    0 -0.00000000000E+00 -0.00000000000E+00 -0.27500000000E+03  0.27500000000E+03  0.00000000000E+00 0.  1.
    9000005    2    1    2  501    0  0.27519099345E+01  0.36554176807E+02 -0.40908508874E+02  0.48228862746E+03  0.47915032425E+03 0.  0.
         13    1    3    3    0    0  0.15307178652E+03  0.16575673987E+03  0.91976480834E+02  0.24365127060E+03  0.00000000000E+00 0.  1.
          3    1    3    3  501    0 -0.15031987658E+03 -0.12920256306E+03 -0.13288498971E+03  0.23863735686E+03  0.00000000000E+00 0.  1.
         21    1    1    2  502  501 -0.27519099345E+01 -0.36554176807E+02  0.11666427842E+02  0.38469291505E+02  0.00000000000E+00 0.  1.
<scales pt_clust_4="550.00000" pt_clust_5="550.00000" pt_clust_6="36.65762"></scales>
<mgrwt>
<rscale>  0 0.30000000E+03</rscale>
<asrwt>  1 0.36657617E+02</asrwt>
<pdfrwt beam="1">  1        1 0.89366516E+00 0.30000000E+03</pdfrwt>
<pdfrwt beam="2">0</pdfrwt>
<totfact> 0.12945225E-04</totfact>
</mgrwt>
<clustering>
<clus scale="   36.658">  1  6  2 -1</clus>
<clus scale="  479.150">  4  5 -1 -1</clus>
<clus scale="  300.000">  1  4  2 -1</clus>
</clustering>
</event>
<event>
 6    1  0.1000035E-011  0.3000000E+03  0.7818608E-02  0.1093470E+00
          1   -1    0    0  502    0  0.00000000000E+00  0.00000000000E+00  0.22906870393E+03  0.22906870393E+03  0.00000000000E+00 0.  1.
         13   -1    0    0    0    0 -0.00000000000E+00 -0.00000000000E+00 -0.27500000000E+03  0.27500000000E+03  0.00000000000E+00 0.  1.
    9000005    2    1    2  501    0  0.16352070308E+01  0.36135952524E+02 -0.55124878959E+02  0.46674574943E+03  0.46206532153E+03 0.  0.
         13    1    3    3    0    0  0.15996981248E+03 -0.13869319170E+03 -0.86670337603E+02  0.22877475768E+03  0.00000000000E+00 0.  1.
          3    1    3    3  501    0 -0.15833460545E+03  0.17482914423E+03  0.31545458644E+02  0.23797099175E+03  0.00000000000E+00 0.  1.
         21    1    1    2  502  501 -0.16352070308E+01 -0.36135952524E+02  0.91935828930E+01  0.37322954509E+02  0.00000000000E+00 0.  1.
<scales pt_clust_4="550.00000" pt_clust_5="550.00000" pt_clust_6="36.17293"></scales>
<mgrwt>
<rscale>  0 0.30000000E+03</rscale>
<asrwt>  1 0.36172931E+02</asrwt>
<pdfrwt beam="1">  1        1 0.83297711E+00 0.30000000E+03</pdfrwt>
<pdfrwt beam="2">0</pdfrwt>
<totfact> 0.55654745E-04</totfact>
</mgrwt>
<clustering>
<clus scale="   36.173">  1  6  2 -1</clus>
<clus scale="  462.065">  4  5 -1 -1</clus>
<clus scale="  300.000">  1  4  2 -1</clus>
</clustering>
</event>
<event>
 6    1  0.1000035E-011  0.3000000E+03  0.7818608E-02  0.1093470E+00
          1   -1    0    0  502    0  0.00000000000E+00  0.00000000000E+00  0.24671177604E+03  0.24671177604E+03  0.00000000000E+00 0.  1.
         13   -1    0    0    0    0 -0.00000000000E+00 -0.00000000000E+00 -0.27500000000E+03  0.27500000000E+03  0.00000000000E+00 0.  1.
    9000005    2    1    2  501    0 -0.11986907892E+02  0.27644848234E+02 -0.27266029104E+02  0.49156267195E+03  0.48988008790E+03 0.  0.
         13    1    3    3    0    0  0.96442724388E+02 -0.19026715203E+03  0.76981392336E+02  0.22677945894E+03  0.00000000000E+00 0.  1.
          3    1    3    3  501    0 -0.10842963228E+03  0.21791200027E+03 -0.10424742144E+03  0.26478321301E+03  0.00000000000E+00 0.  1.
         21    1    1    2  502  501  0.11986907892E+02 -0.27644848234E+02 -0.10221948603E+01  0.30149104083E+02  0.00000000000E+00 0.  1.
<scales pt_clust_4="550.00000" pt_clust_5="550.00000" pt_clust_6="30.13177"></scales>
<mgrwt>
<rscale>  0 0.30000000E+03</rscale>
<asrwt>  1 0.30131771E+02</asrwt>
<pdfrwt beam="1">  1        1 0.89713373E+00 0.30000000E+03</pdfrwt>
<pdfrwt beam="2">0</pdfrwt>
<totfact> 0.12279806E-04</totfact>
</mgrwt>
<clustering>
<clus scale="   30.132">  1  6  2 -1</clus>
<clus scale="  489.880">  4  5 -1 -1</clus>
<clus scale="  300.000">  1  4  2 -1</clus>
</clustering>
</event>
<event>
 6    1  0.1000035E-011  0.3000000E+03  0.7818608E-02  0.1093470E+00
          1   -1    0    0  502    0  0.00000000000E+00  0.00000000000E+00  0.22629845939E+03  0.22629845939E+03  0.00000000000E+00 0.  1.
         13   -1    0    0    0    0 -0.00000000000E+00 -0.00000000000E+00 -0.27500000000E+03  0.27500000000E+03  0.00000000000E+00 0.  1.
    9000005    2    1    2  501    0  0.40061959420E+02  0.18478784598E+01 -0.50469043260E+02  0.46115497532E+03  0.45662721304E+03 0.  0.
         13    1    3    3    0    0  0.86631910383E+02 -0.20964883497E+03 -0.84229879695E+02  0.24197602058E+03  0.00000000000E+00 0.  1.
          3    1    3    3  501    0 -0.46569950963E+02  0.21149671343E+03  0.33760836435E+02  0.21917895474E+03  0.00000000000E+00 0.  1.
         21    1    1    2  502  501 -0.40061959420E+02 -0.18478784598E+01  0.17675026485E+01  0.40143484066E+02  0.00000000000E+00 0.  1.
<scales pt_clust_4="550.00000" pt_clust_5="550.00000" pt_clust_6="40.10455"></scales>
<mgrwt>
<rscale>  0 0.30000000E+03</rscale>
<asrwt>  1 0.40104554E+02</asrwt>
<pdfrwt beam="1">  1        1 0.82290349E+00 0.30000000E+03</pdfrwt>
<pdfrwt beam="2">0</pdfrwt>
<totfact> 0.66501094E-04</totfact>
</mgrwt>
<clustering>
<clus scale="   40.105">  1  6  2 -1</clus>
<clus scale="  456.627">  4  5 -1 -1</clus>
<clus scale="  300.000">  1  4  2 -1</clus>
</clustering>
</event>
<event>
 6    1  0.1000035E-011  0.3000000E+03  0.7818608E-02  0.1093470E+00
          1   -1    0    0  502    0  0.00000000000E+00  0.00000000000E+00  0.23709078636E+03  0.23709078636E+03  0.00000000000E+00 0.  1.
         13   -1    0    0    0    0 -0.00000000000E+00 -0.00000000000E+00 -0.27500000000E+03  0.27500000000E+03  0.00000000000E+00 0.  1.
    9000005    2    1    2  501    0 -0.30734971965E+01 -0.32528188040E+02 -0.29225790726E+02  0.47828352034E+03  0.47627035346E+03 0.  0.
         13    1    3    3    0    0  0.46207173354E+02  0.20146306689E+03  0.71638534592E+02  0.21875682808E+03  0.00000000000E+00 0.  1.
          1    1    3    3  501    0 -0.49280670551E+02 -0.23399125493E+03 -0.10086432532E+03  0.25952669226E+03  0.00000000000E+00 0.  1.
         21    1    1    2  502  501  0.30734971965E+01  0.32528188040E+02 -0.86834229152E+01  0.33807266020E+02  0.00000000000E+00 0.  1.
<scales pt_clust_4="550.00000" pt_clust_5="550.00000" pt_clust_6="32.67308"></scales>
<mgrwt>
<rscale>  0 0.30000000E+03</rscale>
<asrwt>  1 0.32673085E+02</asrwt>
<pdfrwt beam="1">  1        1 0.86214831E+00 0.30000000E+03</pdfrwt>
<pdfrwt beam="2">0</pdfrwt>
<totfact> 0.31071111E-04</totfact>
</mgrwt>
<clustering>
<clus scale="   32.673">  1  6  2 -1</clus>
<clus scale="  476.270">  4  5 -1 -1</clus>
<clus scale="  300.000">  1  4  2 -1</clus>
</clustering>
</event>
<event>
 6    1  0.1000035E-011  0.3000000E+03  0.7818608E-02  0.1093470E+00
          1   -1    0    0  502    0  0.00000000000E+00  0.00000000000E+00  0.22558900242E+03  0.22558900242E+03  0.00000000000E+00 0.  1.
         13   -1    0    0    0    0 -0.00000000000E+00 -0.00000000000E+00 -0.27500000000E+03  0.27500000000E+03  0.00000000000E+00 0.  1.
    9000005    2    1    2  501    0 -0.82279461956E+01 -0.34257931624E+02 -0.41866391993E+02  0.46455809831E+03  0.46132431862E+03 0.  0.
         13    1    3    3    0    0  0.68905665584E+02  0.12556056005E+03  0.14711356418E+03  0.20531888796E+03  0.00000000000E+00 0.  1.
          1    1    3    3  501    0 -0.77133611780E+02 -0.15981849167E+03 -0.18897995617E+03  0.25923921035E+03  0.00000000000E+00 0.  1.
         21    1    1    2  502  501  0.82279461956E+01  0.34257931624E+02 -0.75446055865E+01  0.36030904113E+02  0.00000000000E+00 0.  1.
<scales pt_clust_4="550.00000" pt_clust_5="550.00000" pt_clust_6="35.23218"></scales>
<mgrwt>
<rscale>  0 0.30000000E+03</rscale>
<asrwt>  1 0.35232176E+02</asrwt>
<pdfrwt beam="1">  1        1 0.82032365E+00 0.30000000E+03</pdfrwt>
<pdfrwt beam="2">0</pdfrwt>
<totfact> 0.71774099E-04</totfact>
</mgrwt>
<clustering>
<clus scale="   35.232">  1  6  2 -1</clus>
<clus scale="  461.324">  4  5 -1 -1</clus>
<clus scale="  300.000">  1  4  2 -1</clus>
</clustering>
</event>
<event>
 6    1  0.1000035E-011  0.3000000E+03  0.7818608E-02  0.1093470E+00
          1   -1    0    0  502    0  0.00000000000E+00  0.00000000000E+00  0.22119840891E+03  0.22119840891E+03  0.00000000000E+00 0.  1.
         13   -1    0    0    0    0 -0.00000000000E+00 -0.00000000000E+00 -0.27500000000E+03  0.27500000000E+03  0.00000000000E+00 0.  1.
    9000005    2    1    2  501    0 -0.31883073008E+02  0.75189120768E+01 -0.50629975637E+02  0.46328756681E+03  0.45934617746E+03 0.  0.
         13    1    3    3    0    0  0.10326347143E+03 -0.18476637635E+03  0.32181010051E+02  0.21409711761E+03  0.00000000000E+00 0.  1.
          1    1    3    3  501    0 -0.13514654444E+03  0.19228528843E+03 -0.82810985688E+02  0.24919044920E+03  0.00000000000E+00 0.  1.
         21    1    1    2  502  501  0.31883073008E+02 -0.75189120768E+01 -0.31716154508E+01  0.32910842101E+02  0.00000000000E+00 0.  1.
<scales pt_clust_4="550.00000" pt_clust_5="550.00000" pt_clust_6="32.75766"></scales>
<mgrwt>
<rscale>  0 0.30000000E+03</rscale>
<asrwt>  1 0.32757661E+02</asrwt>
<pdfrwt beam="1">  1        1 0.80435785E+00 0.30000000E+03</pdfrwt>
<pdfrwt beam="2">0</pdfrwt>
<totfact> 0.97569037E-04</totfact>
</mgrwt>
<clustering>
<clus scale="   32.758">  1  6  2 -1</clus>
<clus scale="  459.346">  4  5 -1 -1</clus>
<clus scale="  300.000">  1  4  2 -1</clus>
</clustering>
</event>
<event>
 6    1  0.1000035E-011  0.3000000E+03  0.7818608E-02  0.1093470E+00
          1   -1    0    0  502    0  0.00000000000E+00  0.00000000000E+00  0.24427119841E+03  0.24427119841E+03  0.00000000000E+00 0.  1.
         13   -1    0    0    0    0 -0.00000000000E+00 -0.00000000000E+00 -0.27500000000E+03  0.27500000000E+03  0.00000000000E+00 0.  1.
    9000005    2    1    2  501    0  0.28102950417E+02 -0.12926518066E+02 -0.22059230397E+02  0.48714594112E+03  0.48566211260E+03 0.  0.
         13    1    3    3    0    0  0.85269775380E+02  0.14278705923E+03  0.16696425069E+03  0.23566106994E+03  0.00000000000E+00 0.  1.
          1    1    3    3  501    0 -0.57166824963E+02 -0.15571357729E+03 -0.18902348109E+03  0.25148487118E+03  0.00000000000E+00 0.  1.
         21    1    1    2  502  501 -0.28102950417E+02  0.12926518066E+02 -0.86695711895E+01  0.32125257292E+02  0.00000000000E+00 0.  1.
<scales pt_clust_4="550.00000" pt_clust_5="550.00000" pt_clust_6="30.93334"></scales>
<mgrwt>
<rscale>  0 0.30000000E+03</rscale>
<asrwt>  1 0.30933342E+02</asrwt>
<pdfrwt beam="1">  1        1 0.88825890E+00 0.30000000E+03</pdfrwt>
<pdfrwt beam="2">0</pdfrwt>
<totfact> 0.15665643E-04</totfact>
</mgrwt>
<clustering>
<clus scale="   30.933">  1  6  2 -1</clus>
<clus scale="  485.662">  4  5 -1 -1</clus>
<clus scale="  300.000">  1  4  2 -1</clus>
</clustering>
</event>
<event>
 6    1  0.1000035E-011  0.3000000E+03  0.7818608E-02  0.1093470E+00
          1   -1    0    0  502    0  0.00000000000E+00  0.00000000000E+00  0.22138853178E+03  0.22138853178E+03  0.00000000000E+00 0.  1.
         13   -1    0    0    0    0 -0.00000000000E+00 -0.00000000000E+00 -0.27500000000E+03  0.27500000000E+03  0.00000000000E+00 0.  1.
    9000005    2    1    2  501    0  0.15952427536E+02 -0.26794798390E+02 -0.34656110295E+02  0.45989542615E+03  0.45752630071E+03 0.  0.
         13    1    3    3    0    0  0.17528736568E+03  0.55700304179E+02  0.12282263401E+03  0.22116415595E+03  0.00000000000E+00 0.  1.
          1    1    3    3  501    0 -0.15933493814E+03 -0.82495102569E+02 -0.15747874431E+03  0.23873127020E+03  0.00000000000E+00 0.  1.
         21    1    1    2  502  501 -0.15952427536E+02  0.26794798390E+02 -0.18955357922E+02  0.36493105636E+02  0.00000000000E+00 0.  1.
<scales pt_clust_4="550.00000" pt_clust_5="550.00000" pt_clust_6="31.18400"></scales>
<mgrwt>
<rscale>  0 0.30000000E+03</rscale>
<asrwt>  1 0.31184005E+02</asrwt>
<pdfrwt beam="1">  1        1 0.80504921E+00 0.30000000E+03</pdfrwt>
<pdfrwt beam="2">0</pdfrwt>
<totfact> 0.97313920E-04</totfact>
</mgrwt>
<clustering>
<clus scale="   31.184">  1  6  2 -1</clus>
<clus scale="  457.526">  4  5 -1 -1</clus>
<clus scale="  300.000">  1  4  2 -1</clus>
</clustering>
</event>
<event>
 6    1  0.1000035E-011  0.3000000E+03  0.7818608E-02  0.1093470E+00
          1   -1    0    0  502    0  0.00000000000E+00  0.00000000000E+00  0.22896646191E+03  0.22896646191E+03  0.00000000000E+00 0.  1.
         13   -1    0    0    0    0 -0.00000000000E+00 -0.00000000000E+00 -0.27500000000E+03  0.27500000000E+03  0.00000000000E+00 0.  1.
    9000005    2    1    2  501    0  0.37306361103E+02 -0.78497094545E+01 -0.52616377319E+02  0.46527904420E+03  0.46071978826E+03 0.  0.
         13    1    3    3    0    0  0.12723876710E+03  0.81763509515E+02 -0.21268239390E+03  0.26097658135E+03  0.00000000000E+00 0.  1.
          1    1    3    3  501    0 -0.89932405995E+02 -0.89613218970E+02  0.16006601658E+03  0.20430246285E+03  0.00000000000E+00 0.  1.
         21    1    1    2  502  501 -0.37306361103E+02  0.78497094545E+01  0.65828392340E+01  0.38687417717E+02  0.00000000000E+00 0.  1.
<scales pt_clust_4="550.00000" pt_clust_5="550.00000" pt_clust_6="38.12325"></scales>
<mgrwt>
<rscale>  0 0.30000000E+03</rscale>
<asrwt>  1 0.38123254E+02</asrwt>
<pdfrwt beam="1">  1        1 0.83260532E+00 0.30000000E+03</pdfrwt>
<pdfrwt beam="2">0</pdfrwt>
<totfact> 0.55475333E-04</totfact>
</mgrwt>
<clustering>
<clus scale="   38.123">  1  6  2 -1</clus>
<clus scale="  460.720">  4  5 -1 -1</clus>
<clus scale="  300.000">  1  4  2 -1</clus>
</clustering>
</event>
<event>
 6    1  0.1000035E-011  0.3000000E+03  0.7818608E-02  0.1093470E+00
          1   -1    0    0  502    0  0.00000000000E+00  0.00000000000E+00  0.24718748778E+03  0.24718748778E+03  0.00000000000E+00 0.  1.
         13   -1    0    0    0    0 -0.00000000000E+00 -0.00000000000E+00 -0.27500000000E+03  0.27500000000E+03  0.00000000000E+00 0.  1.
    9000005    2    1    2  501    0  0.30306240809E+02 -0.25322970926E+02 -0.24833682216E+02  0.48258200184E+03  0.48032172097E+03 0.  0.
         13    1    3    3    0    0  0.15041901331E+03 -0.16642716303E+03 -0.13997616157E+03  0.26441861880E+03  0.00000000000E+00 0.  1.
          3    1    3    3  501    0 -0.12011277250E+03  0.14110419210E+03  0.11514247936E+03  0.21816338304E+03  0.00000000000E+00 0.  1.
         21    1    1    2  502  501 -0.30306240809E+02  0.25322970926E+02 -0.29788300051E+01  0.39605485942E+02  0.00000000000E+00 0. -1.
<scales pt_clust_4="550.00000" pt_clust_5="550.00000" pt_clust_6="39.49332"></scales>
<mgrwt>
<rscale>  0 0.30000000E+03</rscale>
<asrwt>  1 0.39493324E+02</asrwt>
<pdfrwt beam="1">  1        1 0.89886359E+00 0.30000000E+03</pdfrwt>
<pdfrwt beam="2">0</pdfrwt>
<totfact> 0.11149792E-04</totfact>
</mgrwt>
<clustering>
<clus scale="   39.493">  1  6  2 -1</clus>
<clus scale="  480.322">  4  5 -1 -1</clus>
<clus scale="  300.000">  1  4  2 -1</clus>
</clustering>
</event>
<event>
 6    1  0.1000035E-011  0.3000000E+03  0.7818608E-02  0.1093470E+00
          1   -1    0    0  502    0  0.00000000000E+00  0.00000000000E+00  0.21950411159E+03  0.21950411159E+03  0.00000000000E+00 0.  1.
         13   -1    0    0    0    0 -0.00000000000E+00 -0.00000000000E+00 -0.27500000000E+03  0.27500000000E+03  0.00000000000E+00 0.  1.
    9000005    2    1    2  501    0  0.12917984622E+02 -0.28145142621E+02 -0.55083357819E+02  0.46353326140E+03  0.45920571070E+03 0.  0.
         13    1    3    3    0    0 -0.12016292039E+03 -0.47359408042E+02  0.16260918112E+03  0.20766267539E+03  0.00000000000E+00 0.  1.
          3    1    3    3  501    0  0.13308090501E+03  0.19214265421E+02 -0.21769253894E+03  0.25587058601E+03  0.00000000000E+00 0.  1.
         21    1    1    2  502  501 -0.12917984622E+02  0.28145142621E+02 -0.41253059428E+00  0.30970850188E+02  0.00000000000E+00 0. -1.
<scales pt_clust_4="550.00000" pt_clust_5="550.00000" pt_clust_6="30.96810"></scales>
<mgrwt>
<rscale>  0 0.30000000E+03</rscale>
<asrwt>  1 0.30968103E+02</asrwt>
<pdfrwt beam="1">  1        1 0.79819677E+00 0.30000000E+03</pdfrwt>
<pdfrwt beam="2">0</pdfrwt>
<totfact> 0.10937074E-03</totfact>
</mgrwt>
<clustering>
<clus scale="   30.968">  1  6  2 -1</clus>
<clus scale="  459.206">  4  5 -1 -1</clus>
<clus scale="  300.000">  1  4  2 -1</clus>
</clustering>
</event>
<event>
 6    1  0.1000035E-011  0.3000000E+03  0.7818608E-02  0.1093470E+00
          1   -1    0    0  502    0  0.00000000000E+00  0.00000000000E+00  0.26074473430E+03  0.26074473430E+03  0.00000000000E+00 0.  1.
         13   -1    0    0    0    0 -0.00000000000E+00 -0.00000000000E+00 -0.27500000000E+03  0.27500000000E+03  0.00000000000E+00 0.  1.
    9000005    2    1    2  501    0  0.19906833468E+02  0.23215923727E+02 -0.60729755175E+02  0.48011075812E+03  0.47527147586E+03 0.  0.
         13    1    3    3    0    0 -0.26259432165E+02 -0.18449228496E+03  0.10181513443E+03  0.21235178969E+03  0.00000000000E+00 0.  1.
          1    1    3    3  501    0  0.46166265633E+02  0.20770820869E+03 -0.16254488960E+03  0.26775896843E+03  0.00000000000E+00 0.  1.
         21    1    1    2  502  501 -0.19906833468E+02 -0.23215923727E+02  0.46474489474E+02  0.55633976176E+02  0.00000000000E+00 0.  1.
<scales pt_clust_4="550.00000" pt_clust_5="550.00000" pt_clust_6="30.58204"></scales>
<mgrwt>
<rscale>  0 0.30000000E+03</rscale>
<asrwt>  1 0.30582039E+02</asrwt>
<pdfrwt beam="1">  1        1 0.94816267E+00 0.30000000E+03</pdfrwt>
<pdfrwt beam="2">0</pdfrwt>
<totfact> 0.13801914E-05</totfact>
</mgrwt>
<clustering>
<clus scale="   30.582">  1  6  2 -1</clus>
<clus scale="  475.271">  4  5 -1 -1</clus>
<clus scale="  300.000">  1  4  2 -1</clus>
</clustering>
</event>
<event>
 6    1  0.1000035E-011  0.3000000E+03  0.7818608E-02  0.1093470E+00
          1   -1    0    0  502    0  0.00000000000E+00  0.00000000000E+00  0.23002908221E+03  0.23002908221E+03  0.00000000000E+00 0.  1.
         13   -1    0    0    0    0 -0.00000000000E+00 -0.00000000000E+00 -0.27500000000E+03  0.27500000000E+03  0.00000000000E+00 0.  1.
    9000005    2    1    2  501    0  0.34208951749E+02 -0.22898894933E+02 -0.38289038077E+02  0.46332465456E+03  0.45990115603E+03 0.  0.
         13    1    3    3    0    0 -0.95513353612E+02 -0.90455624715E+02 -0.20372538828E+03  0.24250578259E+03  0.00000000000E+00 0.  1.
          1    1    3    3  501    0  0.12972230536E+03  0.67556729782E+02  0.16543635021E+03  0.22081887197E+03  0.00000000000E+00 0.  1.
         21    1    1    2  502  501 -0.34208951749E+02  0.22898894933E+02 -0.66818797141E+01  0.41704427648E+02  0.00000000000E+00 0.  1.
<scales pt_clust_4="550.00000" pt_clust_5="550.00000" pt_clust_6="41.16568"></scales>
<mgrwt>
<rscale>  0 0.30000000E+03</rscale>
<asrwt>  1 0.41165683E+02</asrwt>
<pdfrwt beam="1">  1        1 0.83646939E+00 0.30000000E+03</pdfrwt>
<pdfrwt beam="2">0</pdfrwt>
<totfact> 0.51230305E-04</totfact>
</mgrwt>
<clustering>
<clus scale="   41.166">  1  6  2 -1</clus>
<clus scale="  459.901">  4  5 -1 -1</clus>
<clus scale="  300.000">  1  4  2 -1</clus>
</clustering>
</event>
<event>
 6    1  0.1000035E-011  0.3000000E+03  0.7818608E-02  0.1093470E+00
          1   -1    0    0  502    0  0.00000000000E+00  0.00000000000E+00  0.22633399743E+03  0.22633399743E+03  0.00000000000E+00 0.  1.
         13   -1    0    0    0    0 -0.00000000000E+00 -0.00000000000E+00 -0.27500000000E+03  0.27500000000E+03  0.00000000000E+00 0.  1.
    9000005    2    1    2  501    0 -0.32940393361E+02  0.11741123549E+02 -0.66073229478E+02  0.46227077885E+03  0.45618601231E+03 0.  0.
         13    1    3    3    0    0  0.17613542652E+03 -0.10080394970E+03  0.31855653116E+02  0.20542616042E+03  0.00000000000E+00 0.  1.
          1    1    3    3  501    0 -0.20907581988E+03  0.11254507324E+03 -0.97928882594E+02  0.25684461843E+03  0.00000000000E+00 0.  1.
         21    1    1    2  502  501  0.32940393361E+02 -0.11741123549E+02  0.17407226910E+02  0.39063218578E+02  0.00000000000E+00 0.  1.
<scales pt_clust_4="550.00000" pt_clust_5="550.00000" pt_clust_6="34.97032"></scales>
<mgrwt>
<rscale>  0 0.30000000E+03</rscale>
<asrwt>  1 0.34970323E+02</asrwt>
<pdfrwt beam="1">  1        1 0.82303272E+00 0.30000000E+03</pdfrwt>
<pdfrwt beam="2">0</pdfrwt>
<totfact> 0.68024840E-04</totfact>
</mgrwt>
<clustering>
<clus scale="   34.970">  1  6  2 -1</clus>
<clus scale="  456.186">  4  5 -1 -1</clus>
<clus scale="  300.000">  1  4  2 -1</clus>
</clustering>
</event>
<event>
 6    1  0.1000035E-011  0.3000000E+03  0.7818608E-02  0.1093470E+00
          1   -1    0    0  502    0  0.00000000000E+00  0.00000000000E+00  0.23762558868E+03  0.23762558868E+03  0.00000000000E+00 0.  1.
         13   -1    0    0    0    0 -0.00000000000E+00 -0.00000000000E+00 -0.27500000000E+03  0.27500000000E+03  0.00000000000E+00 0.  1.
    9000005    2    1    2  501    0 -0.19547713439E+02  0.26899846094E+02 -0.35045391145E+02  0.47929183468E+03  0.47685088711E+03 0.  0.
         13    1    3    3    0    0  0.12438622150E+03  0.42767250723E+02 -0.21270816907E+03  0.25009145332E+03  0.00000000000E+00 0.  1.
          1    1    3    3  501    0 -0.14393393494E+03 -0.15867404629E+02  0.17766277792E+03  0.22920038137E+03  0.00000000000E+00 0.  1.
         21    1    1    2  502  501  0.19547713439E+02 -0.26899846094E+02 -0.23290201731E+01  0.33333753997E+02  0.00000000000E+00 0.  1.
<scales pt_clust_4="550.00000" pt_clust_5="550.00000" pt_clust_6="33.25229"></scales>
<mgrwt>
<rscale>  0 0.30000000E+03</rscale>
<asrwt>  1 0.33252290E+02</asrwt>
<pdfrwt beam="1">  1        1 0.86409305E+00 0.30000000E+03</pdfrwt>
<pdfrwt beam="2">0</pdfrwt>
<totfact> 0.29503641E-04</totfact>
</mgrwt>
<clustering>
<clus scale="   33.252">  1  6  2 -1</clus>
<clus scale="  476.851">  4  5 -1 -1</clus>
<clus scale="  300.000">  1  4  2 -1</clus>
</clustering>
</event>
<event>
 6    1  0.1000035E-011  0.3000000E+03  0.7818608E-02  0.1093470E+00
          1   -1    0    0  502    0  0.00000000000E+00  0.00000000000E+00  0.24437401205E+03  0.24437401205E+03  0.00000000000E+00 0.  1.
         13   -1    0    0    0    0 -0.00000000000E+00 -0.00000000000E+00 -0.27500000000E+03  0.27500000000E+03  0.00000000000E+00 0.  1.
    9000005    2    1    2  501    0  0.38384930035E+01 -0.39692531696E+02 -0.61572524052E+02  0.46889709458E+03  0.46312317852E+03 0.  0.
         13    1    3    3    0    0 -0.20058447413E+03 -0.74923434215E+02 -0.12996498002E+03  0.25047664220E+03  0.00000000000E+00 0.  1.
          3    1    3    3  501    0  0.20442296713E+03  0.35230902519E+02  0.68392455969E+02  0.21842045238E+03  0.00000000000E+00 0.  1.
         21    1    1    2  502  501 -0.38384930035E+01  0.39692531696E+02  0.30946536105E+02  0.50476917476E+02  0.00000000000E+00 0. -1.
<scales pt_clust_4="550.00000" pt_clust_5="550.00000" pt_clust_6="39.87770"></scales>
<mgrwt>
<rscale>  0 0.30000000E+03</rscale>
<asrwt>  1 0.39877702E+02</asrwt>
<pdfrwt beam="1">  1        1 0.88863277E+00 0.30000000E+03</pdfrwt>
<pdfrwt beam="2">0</pdfrwt>
<totfact> 0.14764283E-04</totfact>
</mgrwt>
<clustering>
<clus scale="   39.878">  1  6  2 -1</clus>
<clus scale="  463.123">  4  5 -1 -1</clus>
<clus scale="  300.000">  1  4  2 -1</clus>
</clustering>
</event>
<event>
 6    1  0.1000035E-011  0.3000000E+03  0.7818608E-02  0.1093470E+00
          1   -1    0    0  502    0  0.00000000000E+00  0.00000000000E+00  0.23328136168E+03  0.23328136168E+03  0.00000000000E+00 0.  1.
         13   -1    0    0    0    0 -0.00000000000E+00 -0.00000000000E+00 -0.27500000000E+03  0.27500000000E+03  0.00000000000E+00 0.  1.
    9000005    2    1    2  501    0  0.31923416109E+02 -0.12784657743E+02 -0.25313170923E+02  0.47018029436E+03  0.46823733364E+03 0.  0.
         13    1    3    3    0    0  0.83803241794E+02  0.90441559093E+02 -0.21513625613E+03  0.24796424671E+03  0.00000000000E+00 0.  1.
          1    1    3    3  501    0 -0.51879825685E+02 -0.10322621684E+03  0.18982308521E+03  0.22221604765E+03  0.00000000000E+00 0.  1.
         21    1    1    2  502  501 -0.31923416109E+02  0.12784657743E+02 -0.16405467402E+02  0.38101067313E+02  0.00000000000E+00 0. -1.
<scales pt_clust_4="550.00000" pt_clust_5="550.00000" pt_clust_6="34.38827"></scales>
<mgrwt>
<rscale>  0 0.30000000E+03</rscale>
<asrwt>  1 0.34388271E+02</asrwt>
<pdfrwt beam="1">  1        1 0.84829586E+00 0.30000000E+03</pdfrwt>
<pdfrwt beam="2">0</pdfrwt>
<totfact> 0.42348884E-04</totfact>
</mgrwt>
<clustering>
<clus scale="   34.388">  1  6  2 -1</clus>
<clus scale="  468.237">  4  5 -1 -1</clus>
<clus scale="  300.000">  1  4  2 -1</clus>
</clustering>
</event>
<event>
 6    1  0.1000035E-011  0.3000000E+03  0.7818608E-02  0.1093470E+00
          1   -1    0    0  502    0  0.00000000000E+00  0.00000000000E+00  0.23446159404E+03  0.23446159404E+03  0.00000000000E+00 0.  1.
         13   -1    0    0    0    0 -0.00000000000E+00 -0.00000000000E+00 -0.27500000000E+03  0.27500000000E+03  0.00000000000E+00 0.  1.
    9000005    2    1    2  501    0  0.37523919368E+02  0.11241210558E+02 -0.66200036193E+02  0.46263287843E+03  0.45619329902E+03 0.  0.
         13    1    3    3    0    0  0.22701565511E+02 -0.26841103888E+02  0.19505681909E+03  0.19819931536E+03  0.00000000000E+00 0.  1.
          1    1    3    3  501    0  0.14822353857E+02  0.38082314447E+02 -0.26125685528E+03  0.26443356307E+03  0.00000000000E+00 0.  1.
         21    1    1    2  502  501 -0.37523919368E+02 -0.11241210558E+02  0.25661630231E+02  0.46828715610E+02  0.00000000000E+00 0.  1.
<scales pt_clust_4="550.00000" pt_clust_5="550.00000" pt_clust_6="39.17154"></scales>
<mgrwt>
<rscale>  0 0.30000000E+03</rscale>
<asrwt>  1 0.39171537E+02</asrwt>
<pdfrwt beam="1">  1        1 0.85258761E+00 0.30000000E+03</pdfrwt>
<pdfrwt beam="2">0</pdfrwt>
<totfact> 0.37663679E-04</totfact>
</mgrwt>
<clustering>
<clus scale="   39.172">  1  6  2 -1</clus>
<clus scale="  456.193">  4  5 -1 -1</clus>
<clus scale="  300.000">  1  4  2 -1</clus>
</clustering>
</event>
<event>
 6    1  0.1000035E-011  0.3000000E+03  0.7818608E-02  0.1093470E+00
          1   -1    0    0  502    0  0.00000000000E+00  0.00000000000E+00  0.22257704673E+03  0.22257704673E+03  0.00000000000E+00 0.  1.
         13   -1    0    0    0    0 -0.00000000000E+00 -0.00000000000E+00 -0.27500000000E+03  0.27500000000E+03  0.00000000000E+00 0.  1.
    9000005    2    1    2  501    0  0.29385647200E+02 -0.16836948386E+02 -0.58947327180E+02  0.46308695326E+03  0.45806957966E+03 0.  0.
         13    1    3    3    0    0  0.67802502056E+02 -0.49209874670E+02  0.19077574169E+03  0.20836068407E+03  0.00000000000E+00 0.  1.
          1    1    3    3  501    0 -0.38416854856E+02  0.32372926284E+02 -0.24972306887E+03  0.25472626919E+03  0.00000000000E+00 0.  1.
         21    1    1    2  502  501 -0.29385647200E+02  0.16836948386E+02  0.65243739083E+01  0.34490093465E+02  0.00000000000E+00 0. -1.
<scales pt_clust_4="550.00000" pt_clust_5="550.00000" pt_clust_6="33.86738"></scales>
<mgrwt>
<rscale>  0 0.30000000E+03</rscale>
<asrwt>  1 0.33867375E+02</asrwt>
<pdfrwt beam="1">  1        1 0.80937108E+00 0.30000000E+03</pdfrwt>
<pdfrwt beam="2">0</pdfrwt>
<totfact> 0.88749228E-04</totfact>
</mgrwt>
<clustering>
<clus scale="   33.867">  1  6  2 -1</clus>
<clus scale="  458.070">  4  5 -1 -1</clus>
<clus scale="  300.000">  1  4  2 -1</clus>
</clustering>
</event>
<event>
 6    1  0.1000035E-011  0.3000000E+03  0.7818608E-02  0.1093470E+00
          1   -1    0    0  502    0  0.00000000000E+00  0.00000000000E+00  0.22685197042E+03  0.22685197042E+03  0.00000000000E+00 0.  1.
         13   -1    0    0    0    0 -0.00000000000E+00 -0.00000000000E+00 -0.27500000000E+03  0.27500000000E+03  0.00000000000E+00 0.  1.
    9000005    2    1    2  501    0  0.25329739340E+02  0.16078184174E+02 -0.44475210018E+02  0.47162626439E+03  0.46856502778E+03 0.  0.
         13    1    3    3    0    0  0.13264941453E+03 -0.19135074568E+03 -0.49451482567E+02  0.23802609977E+03  0.00000000000E+00 0.  1.
          1    1    3    3  501    0 -0.10731967519E+03  0.20742892985E+03  0.49762725499E+01  0.23360016462E+03  0.00000000000E+00 0.  1.
         21    1    1    2  502  501 -0.25329739340E+02 -0.16078184174E+02 -0.36728195628E+01  0.30225706028E+02  0.00000000000E+00 0. -1.
<scales pt_clust_4="550.00000" pt_clust_5="550.00000" pt_clust_6="30.00174"></scales>
<mgrwt>
<rscale>  0 0.30000000E+03</rscale>
<asrwt>  1 0.30001743E+02</asrwt>
<pdfrwt beam="1">  1        1 0.82491626E+00 0.30000000E+03</pdfrwt>
<pdfrwt beam="2">0</pdfrwt>
<totfact> 0.67371430E-04</totfact>
</mgrwt>
<clustering>
<clus scale="   30.002">  1  6  2 -1</clus>
<clus scale="  468.565">  4  5 -1 -1</clus>
<clus scale="  300.000">  1  4  2 -1</clus>
</clustering>
</event>
<event>
 6    1  0.1000035E-011  0.3000000E+03  0.7818608E-02  0.1093470E+00
          1   -1    0    0  502    0  0.00000000000E+00  0.00000000000E+00  0.23902117296E+03  0.23902117296E+03  0.00000000000E+00 0.  1.
         13   -1    0    0    0    0 -0.00000000000E+00 -0.00000000000E+00 -0.27500000000E+03  0.27500000000E+03  0.00000000000E+00 0.  1.
    9000005    2    1    2  501    0  0.40695771911E+02  0.15533328803E+02 -0.47101133054E+02  0.46906412850E+03  0.46465601229E+03 0.  0.
         13    1    3    3    0    0 -0.20842425110E+03 -0.23258945811E+02  0.12162137750E+02  0.21007038012E+03  0.00000000000E+00 0.  1.
          1    1    3    3  501    0  0.24912002301E+03  0.38792274614E+02 -0.59263270804E+02  0.25899374838E+03  0.00000000000E+00 0.  1.
         21    1    1    2  502  501 -0.40695771911E+02 -0.15533328803E+02  0.11122306011E+02  0.44957044455E+02  0.00000000000E+00 0.  1.
<scales pt_clust_4="550.00000" pt_clust_5="550.00000" pt_clust_6="43.55950"></scales>
<mgrwt>
<rscale>  0 0.30000000E+03</rscale>
<asrwt>  1 0.43559501E+02</asrwt>
<pdfrwt beam="1">  1        1 0.86916790E+00 0.30000000E+03</pdfrwt>
<pdfrwt beam="2">0</pdfrwt>
<totfact> 0.24812079E-04</totfact>
</mgrwt>
<clustering>
<clus scale="   43.560">  1  6  2 -1</clus>
<clus scale="  464.656">  4  5 -1 -1</clus>
<clus scale="  300.000">  1  4  2 -1</clus>
</clustering>
</event>
<event>
 6    1  0.1000035E-011  0.3000000E+03  0.7818608E-02  0.1093470E+00
          1   -1    0    0  502    0  0.00000000000E+00  0.00000000000E+00  0.23919019909E+03  0.23919019909E+03  0.00000000000E+00 0.  1.
         13   -1    0    0    0    0 -0.00000000000E+00 -0.00000000000E+00 -0.27500000000E+03  0.27500000000E+03  0.00000000000E+00 0.  1.
    9000005    2    1    2  501    0  0.19463894030E+02 -0.23701142370E+02 -0.29525501414E+02  0.48288397382E+03  0.48100373140E+03 0.  0.
         13    1    3    3    0    0 -0.16015475618E+03 -0.28472444376E+02 -0.18423877465E+03  0.24577256173E+03  0.00000000000E+00 0.  1.
          1    1    3    3  501    0  0.17961865021E+03  0.47713020061E+01  0.15471327324E+03  0.23711141209E+03  0.00000000000E+00 0.  1.
         21    1    1    2  502  501 -0.19463894030E+02  0.23701142370E+02 -0.62842994965E+01  0.31306225270E+02  0.00000000000E+00 0. -1.
<scales pt_clust_4="550.00000" pt_clust_5="550.00000" pt_clust_6="30.66901"></scales>
<mgrwt>
<rscale>  0 0.30000000E+03</rscale>
<asrwt>  1 0.30669011E+02</asrwt>
<pdfrwt beam="1">  1        1 0.86978254E+00 0.30000000E+03</pdfrwt>
<pdfrwt beam="2">0</pdfrwt>
<totfact> 0.26099975E-04</totfact>
</mgrwt>
<clustering>
<clus scale="   30.669">  1  6  2 -1</clus>
<clus scale="  481.004">  4  5 -1 -1</clus>
<clus scale="  300.000">  1  4  2 -1</clus>
</clustering>
</event>
<event>
 6    1  0.1000035E-011  0.3000000E+03  0.7818608E-02  0.1093470E+00
          1   -1    0    0  502    0  0.00000000000E+00  0.00000000000E+00  0.22032560907E+03  0.22032560907E+03  0.00000000000E+00 0.  1.
         13   -1    0    0    0    0 -0.00000000000E+00 -0.00000000000E+00 -0.27500000000E+03  0.27500000000E+03  0.00000000000E+00 0.  1.
    9000005    2    1    2  501    0  0.14221890932E+02  0.30661976135E+02 -0.47791309702E+02  0.46083219275E+03  0.45709942204E+03 0.  0.
         13    1    3    3    0    0 -0.10284267070E+03 -0.18492343063E+03 -0.40292341245E+02  0.21539907817E+03  0.00000000000E+00 0.  1.
          1    1    3    3  501    0  0.11706456164E+03  0.21558540677E+03 -0.74989684574E+01  0.24543311458E+03  0.00000000000E+00 0.  1.
         21    1    1    2  502  501 -0.14221890932E+02 -0.30661976135E+02 -0.68830812302E+01  0.34493416320E+02  0.00000000000E+00 0.  1.
<scales pt_clust_4="550.00000" pt_clust_5="550.00000" pt_clust_6="33.79971"></scales>
<mgrwt>
<rscale>  0 0.30000000E+03</rscale>
<asrwt>  1 0.33799706E+02</asrwt>
<pdfrwt beam="1">  1        1 0.80118403E+00 0.30000000E+03</pdfrwt>
<pdfrwt beam="2">0</pdfrwt>
<totfact> 0.10234379E-03</totfact>
</mgrwt>
<clustering>
<clus scale="   33.800">  1  6  2 -1</clus>
<clus scale="  457.099">  4  5 -1 -1</clus>
<clus scale="  300.000">  1  4  2 -1</clus>
</clustering>
</event>
<event>
 6    1  0.1000035E-011  0.3000000E+03  0.7818608E-02  0.1093470E+00
          1   -1    0    0  502    0  0.00000000000E+00  0.00000000000E+00  0.23688721205E+03  0.23688721205E+03  0.00000000000E+00 0.  1.
         13   -1    0    0    0    0 -0.00000000000E+00 -0.00000000000E+00 -0.27500000000E+03  0.27500000000E+03  0.00000000000E+00 0.  1.
    9000005    2    1    2  501    0 -0.33973950234E+02  0.24547080875E+01 -0.62038842276E+02  0.47026136717E+03  0.46490502322E+03 0.  0.
         13    1    3    3    0    0 -0.23781885078E+03  0.74901680367E+02 -0.43852234897E+02  0.25316217335E+03  0.00000000000E+00 0.  1.
          3    1    3    3  501    0  0.20384490055E+03 -0.72446972280E+02 -0.18186607379E+02  0.21709919382E+03  0.00000000000E+00 0.  1.
         21    1    1    2  502  501  0.33973950234E+02 -0.24547080875E+01  0.23926054330E+02  0.41625844882E+02  0.00000000000E+00 0.  1.
<scales pt_clust_4="550.00000" pt_clust_5="550.00000" pt_clust_6="34.06251"></scales>
<mgrwt>
<rscale>  0 0.30000000E+03</rscale>
<asrwt>  1 0.34062514E+02</asrwt>
<pdfrwt beam="1">  1        1 0.86140804E+00 0.30000000E+03</pdfrwt>
<pdfrwt beam="2">0</pdfrwt>
<totfact> 0.31400273E-04</totfact>
</mgrwt>
<clustering>
<clus scale="   34.063">  1  6  2 -1</clus>
<clus scale="  464.905">  4  5 -1 -1</clus>
<clus scale="  300.000">  1  4  2 -1</clus>
</clustering>
</event>
<event>
 6    1  0.1000035E-011  0.3000000E+03  0.7818608E-02  0.1093470E+00
          1   -1    0    0  502    0  0.00000000000E+00  0.00000000000E+00  0.22631064572E+03  0.22631064572E+03  0.00000000000E+00 0.  1.
         13   -1    0    0    0    0 -0.00000000000E+00 -0.00000000000E+00 -0.27500000000E+03  0.27500000000E+03  0.00000000000E+00 0.  1.
    9000005    2    1    2  501    0  0.25232698935E+02  0.19566604296E+02 -0.53037841156E+02  0.46908564863E+03  0.46498257178E+03 0.  0.
         13    1    3    3    0    0 -0.18704270903E+03  0.39787805289E+02  0.90983592986E+02  0.21176888025E+03  0.00000000000E+00 0.  1.
          1    1    3    3  501    0  0.21227540796E+03 -0.20221200993E+02 -0.14402143414E+03  0.25731676838E+03  0.00000000000E+00 0.  1.
         21    1    1    2  502  501 -0.25232698935E+02 -0.19566604296E+02  0.43484868739E+01  0.32224997088E+02  0.00000000000E+00 0.  1.
<scales pt_clust_4="550.00000" pt_clust_5="550.00000" pt_clust_6="31.93025"></scales>
<mgrwt>
<rscale>  0 0.30000000E+03</rscale>
<asrwt>  1 0.31930254E+02</asrwt>
<pdfrwt beam="1">  1        1 0.82294780E+00 0.30000000E+03</pdfrwt>
<pdfrwt beam="2">0</pdfrwt>
<totfact> 0.69322602E-04</totfact>
</mgrwt>
<clustering>
<clus scale="   31.930">  1  6  2 -1</clus>
<clus scale="  464.983">  4  5 -1 -1</clus>
<clus scale="  300.000">  1  4  2 -1</clus>
</clustering>
</event>
<event>
 6    1  0.1000035E-011  0.3000000E+03  0.7818608E-02  0.1093470E+00
          1   -1    0    0  502    0  0.00000000000E+00  0.00000000000E+00  0.23678147758E+03  0.23678147758E+03  0.00000000000E+00 0.  1.
         13   -1    0    0    0    0 -0.00000000000E+00 -0.00000000000E+00 -0.27500000000E+03  0.27500000000E+03  0.00000000000E+00 0.  1.
    9000005    2    1    2  501    0 -0.29744330368E+02  0.97866791110E+01 -0.40693093275E+02  0.48037084597E+03  0.47761879940E+03 0.  0.
         13    1    3    3    0    0 -0.79099269645E+02  0.21662753723E+03 -0.11161620082E+03  0.25620765139E+03  0.00000000000E+00 0.  1.
          3    1    3    3  501    0  0.49354939277E+02 -0.20684085812E+03  0.70923107541E+02  0.22416319458E+03  0.00000000000E+00 0.  1.
         21    1    1    2  502  501  0.29744330368E+02 -0.97866791110E+01  0.24745708511E+01  0.31410631607E+02  0.00000000000E+00 0. -1.
<scales pt_clust_4="550.00000" pt_clust_5="550.00000" pt_clust_6="31.31300"></scales>
<mgrwt>
<rscale>  0 0.30000000E+03</rscale>
<asrwt>  1 0.31313005E+02</asrwt>
<pdfrwt beam="1">  1        1 0.86102355E+00 0.30000000E+03</pdfrwt>
<pdfrwt beam="2">0</pdfrwt>
<totfact> 0.32210448E-04</totfact>
</mgrwt>
<clustering>
<clus scale="   31.313">  1  6  2 -1</clus>
<clus scale="  477.619">  4  5 -1 -1</clus>
<clus scale="  300.000">  1  4  2 -1</clus>
</clustering>
</event>
<event>
 6    1  0.1000035E-011  0.3000000E+03  0.7818608E-02  0.1093470E+00
          1   -1    0    0  502    0  0.00000000000E+00  0.00000000000E+00  0.22887871375E+03  0.22887871375E+03  0.00000000000E+00 0.  1.
         13   -1    0    0    0    0 -0.00000000000E+00 -0.00000000000E+00 -0.27500000000E+03  0.27500000000E+03  0.00000000000E+00 0.  1.
    9000005    2    1    2  501    0  0.10613954990E+02  0.35563935326E+02 -0.57837897965E+02  0.46495920031E+03  0.45985256983E+03 0.  0.
         13    1    3    3    0    0 -0.18856094550E+03  0.20629558310E+01 -0.15191400292E+03  0.24215150265E+03  0.00000000000E+00 0.  1.
          3    1    3    3  501    0  0.19917490049E+03  0.33500979495E+02  0.94076104952E+02  0.22280769766E+03  0.00000000000E+00 0.  1.
         21    1    1    2  502  501 -0.10613954990E+02 -0.35563935326E+02  0.11716611716E+02  0.38919513441E+02  0.00000000000E+00 0.  1.
<scales pt_clust_4="550.00000" pt_clust_5="550.00000" pt_clust_6="37.11401"></scales>
<mgrwt>
<rscale>  0 0.30000000E+03</rscale>
<asrwt>  1 0.37114007E+02</asrwt>
<pdfrwt beam="1">  1        1 0.83228623E+00 0.30000000E+03</pdfrwt>
<pdfrwt beam="2">0</pdfrwt>
<totfact> 0.56064782E-04</totfact>
</mgrwt>
<clustering>
<clus scale="   37.114">  1  6  2 -1</clus>
<clus scale="  459.853">  4  5 -1 -1</clus>
<clus scale="  300.000">  1  4  2 -1</clus>
</clustering>
</event>
<event>
 6    1  0.1000035E-011  0.3000000E+03  0.7818608E-02  0.1093470E+00
          1   -1    0    0  502    0  0.00000000000E+00  0.00000000000E+00  0.23420613073E+03  0.23420613073E+03  0.00000000000E+00 0.  1.
         13   -1    0    0    0    0 -0.00000000000E+00 -0.00000000000E+00 -0.27500000000E+03  0.27500000000E+03  0.00000000000E+00 0.  1.
    9000005    2    1    2  501    0 -0.14022765778E+02 -0.27041997731E+02 -0.39796823431E+02  0.47872824200E+03  0.47609771574E+03 0.  0.
         13    1    3    3    0    0  0.10902539030E+03 -0.17748033035E+03  0.10794041265E+03  0.23459952275E+03  0.00000000000E+00 0.  1.
          3    1    3    3  501    0 -0.12304815608E+03  0.15043833262E+03 -0.14773723608E+03  0.24412871925E+03  0.00000000000E+00 0.  1.
         21    1    1    2  502  501  0.14022765778E+02  0.27041997731E+02 -0.99704583595E+00  0.30477888735E+02  0.00000000000E+00 0.  1.
<scales pt_clust_4="550.00000" pt_clust_5="550.00000" pt_clust_6="30.46158"></scales>
<mgrwt>
<rscale>  0 0.30000000E+03</rscale>
<asrwt>  1 0.30461576E+02</asrwt>
<pdfrwt beam="1">  1        1 0.85165866E+00 0.30000000E+03</pdfrwt>
<pdfrwt beam="2">0</pdfrwt>
<totfact> 0.40300307E-04</totfact>
</mgrwt>
<clustering>
<clus scale="   30.462">  1  6  2 -1</clus>
<clus scale="  476.098">  4  5 -1 -1</clus>
<clus scale="  300.000">  1  4  2 -1</clus>
</clustering>
</event>
<event>
 6    1  0.1000035E-011  0.3000000E+03  0.7818608E-02  0.1093470E+00
          1   -1    0    0  502    0  0.00000000000E+00  0.00000000000E+00  0.22100124172E+03  0.22100124172E+03  0.00000000000E+00 0.  1.
         13   -1    0    0    0    0 -0.00000000000E+00 -0.00000000000E+00 -0.27500000000E+03  0.27500000000E+03  0.00000000000E+00 0.  1.
    9000005    2    1    2  501    0 -0.20771571125E+02  0.22682646388E+02 -0.55305794240E+02  0.46521700944E+03  0.46089280140E+03 0.  0.
         13    1    3    3    0    0 -0.22242065290E+02  0.15689693635E+03 -0.20827764825E+03  0.26170773176E+03  0.00000000000E+00 0.  1.
          3    1    3    3  501    0  0.14704941642E+01 -0.13421428996E+03  0.15297185401E+03  0.20350927768E+03  0.00000000000E+00 0.  1.
         21    1    1    2  502  501  0.20771571125E+02 -0.22682646388E+02  0.13070359623E+01  0.30784232282E+02  0.00000000000E+00 0. -1.
<scales pt_clust_4="550.00000" pt_clust_5="550.00000" pt_clust_6="30.75647"></scales>
<mgrwt>
<rscale>  0 0.30000000E+03</rscale>
<asrwt>  1 0.30756473E+02</asrwt>
<pdfrwt beam="1">  1        1 0.80364088E+00 0.30000000E+03</pdfrwt>
<pdfrwt beam="2">0</pdfrwt>
<totfact> 0.99969185E-04</totfact>
</mgrwt>
<clustering>
<clus scale="   30.756">  1  6  2 -1</clus>
<clus scale="  460.893">  4  5 -1 -1</clus>
<clus scale="  300.000">  1  4  2 -1</clus>
</clustering>
</event>
<event>
 6    1  0.1000035E-011  0.3000000E+03  0.7818608E-02  0.1093470E+00
          1   -1    0    0  502    0  0.00000000000E+00  0.00000000000E+00  0.25692241184E+03  0.25692241184E+03  0.00000000000E+00 0.  1.
         13   -1    0    0    0    0 -0.00000000000E+00 -0.00000000000E+00 -0.27500000000E+03  0.27500000000E+03  0.00000000000E+00 0.  1.
    9000005    2    1    2  501    0  0.92513018927E+01 -0.31970342526E+02 -0.59010149487E+02  0.47916671106E+03  0.47435308564E+03 0.  0.
         13    1    3    3    0    0 -0.30065881568E+02  0.40894734095E+02  0.20047070017E+03  0.20679661056E+03  0.00000000000E+00 0.  1.
          1    1    3    3  501    0  0.39317183461E+02 -0.72865076620E+02 -0.25948084966E+03  0.27237010050E+03  0.00000000000E+00 0.  1.
         21    1    1    2  502  501 -0.92513018927E+01  0.31970342526E+02  0.40932561324E+02  0.52755700777E+02  0.00000000000E+00 0. -1.
<scales pt_clust_4="550.00000" pt_clust_5="550.00000" pt_clust_6="33.28197"></scales>
<mgrwt>
<rscale>  0 0.30000000E+03</rscale>
<asrwt>  1 0.33281968E+02</asrwt>
<pdfrwt beam="1">  1        1 0.93426332E+00 0.30000000E+03</pdfrwt>
<pdfrwt beam="2">0</pdfrwt>
<totfact> 0.23213530E-05</totfact>
</mgrwt>
<clustering>
<clus scale="   33.282">  1  6  2 -1</clus>
<clus scale="  474.353">  4  5 -1 -1</clus>
<clus scale="  300.000">  1  4  2 -1</clus>
</clustering>
</event>
<event>
 6    1  0.1000035E-011  0.3000000E+03  0.7818608E-02  0.1093470E+00
          1   -1    0    0  502    0  0.00000000000E+00  0.00000000000E+00  0.23643526188E+03  0.23643526188E+03  0.00000000000E+00 0.  1.
         13   -1    0    0    0    0 -0.00000000000E+00 -0.00000000000E+00 -0.27500000000E+03  0.27500000000E+03  0.00000000000E+00 0.  1.
    9000005    2    1    2  501    0  0.68148294654E+01 -0.47900621093E+02 -0.30564315793E+02  0.46239529696E+03  0.45884019206E+03 0.  0.
         13    1    3    3    0    0  0.15798752384E+03 -0.81349659856E+02  0.14424611413E+03  0.22887718604E+03  0.00000000000E+00 0.  1.
          1    1    3    3  501    0 -0.15117269438E+03  0.33449038763E+02 -0.17481042992E+03  0.23351811092E+03  0.00000000000E+00 0.  1.
         21    1    1    2  502  501 -0.68148294654E+01  0.47900621093E+02 -0.80004223284E+01  0.49039964918E+02  0.00000000000E+00 0.  1.
<scales pt_clust_4="550.00000" pt_clust_5="550.00000" pt_clust_6="48.38299"></scales>
<mgrwt>
<rscale>  0 0.30000000E+03</rscale>
<asrwt>  1 0.48382990E+02</asrwt>
<pdfrwt beam="1">  1        1 0.85976459E+00 0.30000000E+03</pdfrwt>
<pdfrwt beam="2">0</pdfrwt>
<totfact> 0.30675845E-04</totfact>
</mgrwt>
<clustering>
<clus scale="   48.383">  1  6  2 -1</clus>
<clus scale="  458.840">  4  5 -1 -1</clus>
<clus scale="  300.000">  1  4  2 -1</clus>
</clustering>
</event>
<event>
 6    1  0.1000035E-011  0.3000000E+03  0.7818608E-02  0.1093470E+00
          1   -1    0    0  502    0  0.00000000000E+00  0.00000000000E+00  0.25946430564E+03  0.25946430564E+03  0.00000000000E+00 0.  1.
         13   -1    0    0    0    0 -0.00000000000E+00 -0.00000000000E+00 -0.27500000000E+03  0.27500000000E+03  0.00000000000E+00 0.  1.
    9000005    2    1    2  501    0  0.82596908754E+01 -0.44877566513E+02 -0.68268530987E+02  0.46472930347E+03  0.45741722170E+03 0.  0.
         13    1    3    3    0    0 -0.19530351081E+03  0.68615300725E+02  0.34768058565E+02  0.20990554715E+03  0.00000000000E+00 0.  1.
          3    1    3    3  501    0  0.20356320169E+03 -0.11349286724E+03 -0.10303658955E+03  0.25482375631E+03  0.00000000000E+00 0.  1.
         21    1    1    2  502  501 -0.82596908754E+01  0.44877566513E+02  0.52732836629E+02  0.69735002176E+02  0.00000000000E+00 0.  1.
<scales pt_clust_4="550.00000" pt_clust_5="550.00000" pt_clust_6="45.63133"></scales>
<mgrwt>
<rscale>  0 0.30000000E+03</rscale>
<asrwt>  1 0.45631332E+02</asrwt>
<pdfrwt beam="1">  1        1 0.94350657E+00 0.30000000E+03</pdfrwt>
<pdfrwt beam="2">0</pdfrwt>
<totfact> 0.15811798E-05</totfact>
</mgrwt>
<clustering>
<clus scale="   45.631">  1  6  2 -1</clus>
<clus scale="  457.417">  4  5 -1 -1</clus>
<clus scale="  300.000">  1  4  2 -1</clus>
</clustering>
</event>
<event>
 6    1  0.1000035E-011  0.3000000E+03  0.7818608E-02  0.1093470E+00
          1   -1    0    0  502    0  0.00000000000E+00  0.00000000000E+00  0.24927310195E+03  0.24927310195E+03  0.00000000000E+00 0.  1.
         13   -1    0    0    0    0 -0.00000000000E+00 -0.00000000000E+00 -0.27500000000E+03  0.27500000000E+03  0.00000000000E+00 0.  1.
    9000005    2    1    2  501    0 -0.30681796656E+02 -0.51190904168E+01 -0.12209992179E+02  0.49035725791E+03  0.48921731239E+03 0.  0.
         13    1    3    3    0    0 -0.84319997287E+02 -0.12515812194E+03 -0.20649692415E+03  0.25576433902E+03  0.00000000000E+00 0.  1.
          1    1    3    3  501    0  0.53638200632E+02  0.12003903152E+03  0.19428693198E+03  0.23459291889E+03  0.00000000000E+00 0.  1.
         21    1    1    2  502  501  0.30681796656E+02  0.51190904168E+01 -0.13516905871E+02  0.33915844041E+02  0.00000000000E+00 0. -1.
<scales pt_clust_4="550.00000" pt_clust_5="550.00000" pt_clust_6="31.10593"></scales>
<mgrwt>
<rscale>  0 0.30000000E+03</rscale>
<asrwt>  1 0.31105927E+02</asrwt>
<pdfrwt beam="1">  1        1 0.90644764E+00 0.30000000E+03</pdfrwt>
<pdfrwt beam="2">0</pdfrwt>
<totfact> 0.88491218E-05</totfact>
</mgrwt>
<clustering>
<clus scale="   31.106">  1  6  2 -1</clus>
<clus scale="  489.217">  4  5 -1 -1</clus>
<clus scale="  300.000">  1  4  2 -1</clus>
</clustering>
</event>
<event>
 6    1  0.1000035E-011  0.3000000E+03  0.7818608E-02  0.1093470E+00
          1   -1    0    0  502    0  0.00000000000E+00  0.00000000000E+00  0.24555672583E+03  0.24555672583E+03  0.00000000000E+00 0.  1.
         13   -1    0    0    0    0 -0.00000000000E+00 -0.00000000000E+00 -0.27500000000E+03  0.27500000000E+03  0.00000000000E+00 0.  1.
    9000005    2    1    2  501    0 -0.34522768759E+02 -0.13971211357E+01 -0.58170553128E+02  0.47562310739E+03  0.47078631407E+03 0.  0.
         13    1    3    3    0    0  0.19115132170E+03 -0.10930657955E+03 -0.47423121884E+02  0.22524588478E+03  0.00000000000E+00 0.  1.
          1    1    3    3  501    0 -0.22567409046E+03  0.10790945841E+03 -0.10747431244E+02  0.25037722260E+03  0.00000000000E+00 0.  1.
         21    1    1    2  502  501  0.34522768759E+02  0.13971211357E+01  0.28727278960E+02  0.44933618447E+02  0.00000000000E+00 0.  1.
<scales pt_clust_4="550.00000" pt_clust_5="550.00000" pt_clust_6="34.55103"></scales>
<mgrwt>
<rscale>  0 0.30000000E+03</rscale>
<asrwt>  1 0.34551028E+02</asrwt>
<pdfrwt beam="1">  1        1 0.89293355E+00 0.30000000E+03</pdfrwt>
<pdfrwt beam="2">0</pdfrwt>
<totfact> 0.13348825E-04</totfact>
</mgrwt>
<clustering>
<clus scale="   34.551">  1  6  2 -1</clus>
<clus scale="  470.786">  4  5 -1 -1</clus>
<clus scale="  300.000">  1  4  2 -1</clus>
</clustering>
</event>
<event>
 6    1  0.1000035E-011  0.3000000E+03  0.7818608E-02  0.1093470E+00
          1   -1    0    0  502    0  0.00000000000E+00  0.00000000000E+00  0.22461308254E+03  0.22461308254E+03  0.00000000000E+00 0.  1.
         13   -1    0    0    0    0 -0.00000000000E+00 -0.00000000000E+00 -0.27500000000E+03  0.27500000000E+03  0.00000000000E+00 0.  1.
    9000005    2    1    2  501    0 -0.31390268273E+02 -0.16512505612E+02 -0.60799691083E+02  0.46264772526E+03  0.45726174503E+03 0.  0.
         13    1    3    3    0    0  0.15812234863E+03 -0.25876073075E+01 -0.17900732706E+03  0.23885768983E+03  0.00000000000E+00 0.  1.
          3    1    3    3  501    0 -0.18951261691E+03 -0.13924898304E+02  0.11820763597E+03  0.22379003544E+03  0.00000000000E+00 0.  1.
         21    1    1    2  502  501  0.31390268273E+02  0.16512505612E+02  0.10412773619E+02  0.36965357272E+02  0.00000000000E+00 0. -1.
<scales pt_clust_4="550.00000" pt_clust_5="550.00000" pt_clust_6="35.46846"></scales>
<mgrwt>
<rscale>  0 0.30000000E+03</rscale>
<asrwt>  1 0.35468462E+02</asrwt>
<pdfrwt beam="1">  1        1 0.81677485E+00 0.30000000E+03</pdfrwt>
<pdfrwt beam="2">0</pdfrwt>
<totfact> 0.76806569E-04</totfact>
</mgrwt>
<clustering>
<clus scale="   35.468">  1  6  2 -1</clus>
<clus scale="  457.262">  4  5 -1 -1</clus>
<clus scale="  300.000">  1  4  2 -1</clus>
</clustering>
</event>
<event>
 6    1  0.1000035E-011  0.3000000E+03  0.7818608E-02  0.1093470E+00
          1   -1    0    0  502    0  0.00000000000E+00  0.00000000000E+00  0.23063630671E+03  0.23063630671E+03  0.00000000000E+00 0.  1.
         13   -1    0    0    0    0 -0.00000000000E+00 -0.00000000000E+00 -0.27500000000E+03  0.27500000000E+03  0.00000000000E+00 0.  1.
    9000005    2    1    2  501    0 -0.34083240457E+02  0.34744589777E+01 -0.44300243599E+02  0.47137637135E+03  0.46803785396E+03 0.  0.
         13    1    3    3    0    0  0.36264244704E+02 -0.20579479760E+03  0.73029298202E+02  0.22135914835E+03  0.00000000000E+00 0.  1.
          3    1    3    3  501    0 -0.70347485160E+02  0.20926925658E+03 -0.11732954180E+03  0.25001722300E+03  0.00000000000E+00 0.  1.
         21    1    1    2  502  501  0.34083240457E+02 -0.34744589777E+01 -0.63449690449E-01  0.34259935363E+02  0.00000000000E+00 0.  1.
<scales pt_clust_4="550.00000" pt_clust_5="550.00000" pt_clust_6="34.25988"></scales>
<mgrwt>
<rscale>  0 0.30000000E+03</rscale>
<asrwt>  1 0.34259877E+02</asrwt>
<pdfrwt beam="1">  1        1 0.83867748E+00 0.30000000E+03</pdfrwt>
<pdfrwt beam="2">0</pdfrwt>
<totfact> 0.51062481E-04</totfact>
</mgrwt>
<clustering>
<clus scale="   34.260">  1  6  2 -1</clus>
<clus scale="  468.038">  4  5 -1 -1</clus>
<clus scale="  300.000">  1  4  2 -1</clus>
</clustering>
</event>
<event>
 6    1  0.1000035E-011  0.3000000E+03  0.7818608E-02  0.1093470E+00
          1   -1    0    0  502    0  0.00000000000E+00  0.00000000000E+00  0.23244174169E+03  0.23244174169E+03  0.00000000000E+00 0.  1.
         13   -1    0    0    0    0 -0.00000000000E+00 -0.00000000000E+00 -0.27500000000E+03  0.27500000000E+03  0.00000000000E+00 0.  1.
    9000005    2    1    2  501    0 -0.31774097305E+02  0.10984595511E+02 -0.58684809607E+02  0.47015474322E+03  0.46526478600E+03 0.  0.
         13    1    3    3    0    0 -0.14067898995E+03  0.51239142198E+02  0.16212373198E+03  0.22068106483E+03  0.00000000000E+00 0.  1.
          3    1    3    3  501    0  0.10890489265E+03 -0.40254546687E+02 -0.22080854158E+03  0.24947367839E+03  0.00000000000E+00 0.  1.
         21    1    1    2  502  501  0.31774097305E+02 -0.10984595511E+02  0.16126551293E+02  0.37286998467E+02  0.00000000000E+00 0.  1.
<scales pt_clust_4="550.00000" pt_clust_5="550.00000" pt_clust_6="33.61926"></scales>
<mgrwt>
<rscale>  0 0.30000000E+03</rscale>
<asrwt>  1 0.33619259E+02</asrwt>
<pdfrwt beam="1">  1        1 0.84524270E+00 0.30000000E+03</pdfrwt>
<pdfrwt beam="2">0</pdfrwt>
<totfact> 0.45302907E-04</totfact>
</mgrwt>
<clustering>
<clus scale="   33.619">  1  6  2 -1</clus>
<clus scale="  465.265">  4  5 -1 -1</clus>
<clus scale="  300.000">  1  4  2 -1</clus>
</clustering>
</event>
<event>
 6    1  0.1000035E-011  0.3000000E+03  0.7818608E-02  0.1093470E+00
          1   -1    0    0  502    0  0.00000000000E+00  0.00000000000E+00  0.22955803072E+03  0.22955803072E+03  0.00000000000E+00 0.  1.
         13   -1    0    0    0    0 -0.00000000000E+00 -0.00000000000E+00 -0.27500000000E+03  0.27500000000E+03  0.00000000000E+00 0.  1.
    9000005    2    1    2  501    0  0.28080016846E+02  0.16849733942E+02 -0.67927328932E+02  0.46483407978E+03  0.45867657323E+03 0.  0.
         13    1    3    3    0    0  0.39404251470E+02  0.23301255166E+03 -0.75951815062E+02  0.24822615187E+03  0.00000000000E+00 0.  1.
          3    1    3    3  501    0 -0.11324234624E+02 -0.21616281771E+03  0.80244861304E+01  0.21660792790E+03  0.00000000000E+00 0.  1.
         21    1    1    2  502  501 -0.28080016846E+02 -0.16849733942E+02  0.22485359655E+02  0.39723950946E+02  0.00000000000E+00 0. -1.
<scales pt_clust_4="550.00000" pt_clust_5="550.00000" pt_clust_6="32.74753"></scales>
<mgrwt>
<rscale>  0 0.30000000E+03</rscale>
<asrwt>  1 0.32747532E+02</asrwt>
<pdfrwt beam="1">  1        1 0.83475648E+00 0.30000000E+03</pdfrwt>
<pdfrwt beam="2">0</pdfrwt>
<totfact> 0.55005429E-04</totfact>
</mgrwt>
<clustering>
<clus scale="   32.748">  1  6  2 -1</clus>
<clus scale="  458.677">  4  5 -1 -1</clus>
<clus scale="  300.000">  1  4  2 -1</clus>
</clustering>
</event>
<event>
 6    1  0.1000035E-011  0.3000000E+03  0.7818608E-02  0.1093470E+00
          1   -1    0    0  502    0  0.00000000000E+00  0.00000000000E+00  0.23821406898E+03  0.23821406898E+03  0.00000000000E+00 0.  1.
         13   -1    0    0    0    0 -0.00000000000E+00 -0.00000000000E+00 -0.27500000000E+03  0.27500000000E+03  0.00000000000E+00 0.  1.
    9000005    2    1    2  501    0 -0.19642720766E+02 -0.24653143903E+02 -0.56973381931E+02  0.47578216871E+03  0.47130573074E+03 0.  0.
         13    1    3    3    0    0 -0.15802347457E+03  0.15031831329E+03  0.56788215668E+02  0.22537061757E+03  0.00000000000E+00 0.  1.
          3    1    3    3  501    0  0.13838075381E+03 -0.17497145719E+03 -0.11376159760E+03  0.25041155114E+03  0.00000000000E+00 0.  1.
         21    1    1    2  502  501  0.19642720766E+02  0.24653143903E+02  0.20187450909E+02  0.37431900266E+02  0.00000000000E+00 0. -1.
<scales pt_clust_4="550.00000" pt_clust_5="550.00000" pt_clust_6="31.52164"></scales>
<mgrwt>
<rscale>  0 0.30000000E+03</rscale>
<asrwt>  1 0.31521643E+02</asrwt>
<pdfrwt beam="1">  1        1 0.86623298E+00 0.30000000E+03</pdfrwt>
<pdfrwt beam="2">0</pdfrwt>
<totfact> 0.28268107E-04</totfact>
</mgrwt>
<clustering>
<clus scale="   31.522">  1  6  2 -1</clus>
<clus scale="  471.306">  4  5 -1 -1</clus>
<clus scale="  300.000">  1  4  2 -1</clus>
</clustering>
</event>
<event>
 6    1  0.1000035E-011  0.3000000E+03  0.7818608E-02  0.1093470E+00
          1   -1    0    0  502    0  0.00000000000E+00  0.00000000000E+00  0.24794298029E+03  0.24794298029E+03  0.00000000000E+00 0.  1.
         13   -1    0    0    0    0 -0.00000000000E+00 -0.00000000000E+00 -0.27500000000E+03  0.27500000000E+03  0.00000000000E+00 0.  1.
    9000005    2    1    2  501    0 -0.11646734487E+01  0.32029040358E+02 -0.48636844171E+02  0.48430485515E+03  0.48078938655E+03 0.  0.
         13    1    3    3    0    0  0.17643667695E+03  0.17040960587E+03 -0.77659901433E+02  0.25729437428E+03  0.00000000000E+00 0.  1.
          1    1    3    3  501    0 -0.17760135040E+03 -0.13838056551E+03  0.29023057262E+02  0.22701048087E+03  0.00000000000E+00 0.  1.
         21    1    1    2  502  501  0.11646734487E+01 -0.32029040358E+02  0.21579824465E+02  0.38638125141E+02  0.00000000000E+00 0.  1.
<scales pt_clust_4="550.00000" pt_clust_5="550.00000" pt_clust_6="32.05021"></scales>
<mgrwt>
<rscale>  0 0.30000000E+03</rscale>
<asrwt>  1 0.32050209E+02</asrwt>
<pdfrwt beam="1">  1        1 0.90161084E+00 0.30000000E+03</pdfrwt>
<pdfrwt beam="2">0</pdfrwt>
<totfact> 0.10689770E-04</totfact>
</mgrwt>
<clustering>
<clus scale="   32.050">  1  6  2 -1</clus>
<clus scale="  480.789">  4  5 -1 -1</clus>
<clus scale="  300.000">  1  4  2 -1</clus>
</clustering>
</event>
<event>
 6    1  0.1000035E-011  0.3000000E+03  0.7818608E-02  0.1093470E+00
          1   -1    0    0  502    0  0.00000000000E+00  0.00000000000E+00  0.22429301876E+03  0.22429301876E+03  0.00000000000E+00 0.  1.
         13   -1    0    0    0    0 -0.00000000000E+00 -0.00000000000E+00 -0.27500000000E+03  0.27500000000E+03  0.00000000000E+00 0.  1.
    9000005    2    1    2  501    0  0.57805742275E+01 -0.29846751156E+02 -0.59349364809E+02  0.46768709547E+03  0.46290887718E+03 0.  0.
         13    1    3    3    0    0  0.15901396598E+03 -0.16660763984E+03  0.49008723716E+02  0.23546847354E+03  0.00000000000E+00 0.  1.
          3    1    3    3  501    0 -0.15323339176E+03  0.13676088869E+03 -0.10835808852E+03  0.23221862193E+03  0.00000000000E+00 0.  1.
         21    1    1    2  502  501 -0.57805742275E+01  0.29846751156E+02  0.86423835654E+01  0.31605923285E+02  0.00000000000E+00 0.  1.
<scales pt_clust_4="550.00000" pt_clust_5="550.00000" pt_clust_6="30.40137"></scales>
<mgrwt>
<rscale>  0 0.30000000E+03</rscale>
<asrwt>  1 0.30401375E+02</asrwt>
<pdfrwt beam="1">  1        1 0.81561098E+00 0.30000000E+03</pdfrwt>
<pdfrwt beam="2">0</pdfrwt>
<totfact> 0.80831233E-04</totfact>
</mgrwt>
<clustering>
<clus scale="   30.401">  1  6  2 -1</clus>
<clus scale="  462.909">  4  5 -1 -1</clus>
<clus scale="  300.000">  1  4  2 -1</clus>
</clustering>
</event>
<event>
 6    1  0.1000035E-011  0.3000000E+03  0.7818608E-02  0.1093470E+00
          1   -1    0    0  502    0  0.00000000000E+00  0.00000000000E+00  0.21926260973E+03  0.21926260973E+03  0.00000000000E+00 0.  1.
         13   -1    0    0    0    0 -0.00000000000E+00 -0.00000000000E+00 -0.27500000000E+03  0.27500000000E+03  0.00000000000E+00 0.  1.
    9000005    2    1    2  501    0  0.29410243913E+02  0.84149238660E+01 -0.60653061874E+02  0.46327975611E+03  0.45827237002E+03 0.  0.
         13    1    3    3    0    0  0.15149369330E+03 -0.16596958075E+03 -0.10141847395E+03  0.24653995154E+03  0.00000000000E+00 0.  1.
          1    1    3    3  501    0 -0.12208344939E+03  0.17438450462E+03  0.40765412078E+02  0.21673980458E+03  0.00000000000E+00 0.  1.
         21    1    1    2  502  501 -0.29410243913E+02 -0.84149238660E+01  0.49156716006E+01  0.30982853612E+02  0.00000000000E+00 0. -1.
<scales pt_clust_4="550.00000" pt_clust_5="550.00000" pt_clust_6="30.59041"></scales>
<mgrwt>
<rscale>  0 0.30000000E+03</rscale>
<asrwt>  1 0.30590413E+02</asrwt>
<pdfrwt beam="1">  1        1 0.79731858E+00 0.30000000E+03</pdfrwt>
<pdfrwt beam="2">0</pdfrwt>
<totfact> 0.11125389E-03</totfact>
</mgrwt>
<clustering>
<clus scale="   30.590">  1  6  2 -1</clus>
<clus scale="  458.272">  4  5 -1 -1</clus>
<clus scale="  300.000">  1  4  2 -1</clus>
</clustering>
</event>
<event>
 6    1  0.1000035E-011  0.3000000E+03  0.7818608E-02  0.1093470E+00
          1   -1    0    0  502    0  0.00000000000E+00  0.00000000000E+00  0.22733619449E+03  0.22733619449E+03  0.00000000000E+00 0.  1.
         13   -1    0    0    0    0 -0.00000000000E+00 -0.00000000000E+00 -0.27500000000E+03  0.27500000000E+03  0.00000000000E+00 0.  1.
    9000005    2    1    2  501    0 -0.18010359397E+02  0.30800114897E+02 -0.53506966529E+02  0.46618149004E+03  0.46172412333E+03 0.  0.
         13    1    3    3    0    0 -0.33333983404E+02 -0.15286101408E+03  0.13199164244E+03  0.20469352152E+03  0.00000000000E+00 0.  1.
          1    1    3    3  501    0  0.15323624007E+02  0.18366112898E+03 -0.18549860897E+03  0.26148796852E+03  0.00000000000E+00 0.  1.
         21    1    1    2  502  501  0.18010359397E+02 -0.30800114897E+02  0.58431610194E+01  0.36154704452E+02  0.00000000000E+00 0.  1.
<scales pt_clust_4="550.00000" pt_clust_5="550.00000" pt_clust_6="35.67941"></scales>
<mgrwt>
<rscale>  0 0.30000000E+03</rscale>
<asrwt>  1 0.35679408E+02</asrwt>
<pdfrwt beam="1">  1        1 0.82667707E+00 0.30000000E+03</pdfrwt>
<pdfrwt beam="2">0</pdfrwt>
<totfact> 0.62888302E-04</totfact>
</mgrwt>
<clustering>
<clus scale="   35.679">  1  6  2 -1</clus>
<clus scale="  461.724">  4  5 -1 -1</clus>
<clus scale="  300.000">  1  4  2 -1</clus>
</clustering>
</event>
<event>
 6    1  0.1000035E-011  0.3000000E+03  0.7818608E-02  0.1093470E+00
          1   -1    0    0  502    0  0.00000000000E+00  0.00000000000E+00  0.23361604089E+03  0.23361604089E+03  0.00000000000E+00 0.  1.
         13   -1    0    0    0    0 -0.00000000000E+00 -0.00000000000E+00 -0.27500000000E+03  0.27500000000E+03  0.00000000000E+00 0.  1.
    9000005    2    1    2  501    0 -0.21468161614E+02  0.30519505776E+02 -0.38191511459E+02  0.47116588845E+03  0.46813073034E+03 0.  0.
         13    1    3    3    0    0  0.56460900832E+02  0.91086235396E+02 -0.23095333304E+03  0.25460553341E+03  0.00000000000E+00 0.  1.
          1    1    3    3  501    0 -0.77929062446E+02 -0.60566729620E+02  0.19276182158E+03  0.21656035503E+03  0.00000000000E+00 0.  1.
         21    1    1    2  502  501  0.21468161614E+02 -0.30519505776E+02 -0.31924476532E+01  0.37450152442E+02  0.00000000000E+00 0.  1.
<scales pt_clust_4="550.00000" pt_clust_5="550.00000" pt_clust_6="37.31385"></scales>
<mgrwt>
<rscale>  0 0.30000000E+03</rscale>
<asrwt>  1 0.37313852E+02</asrwt>
<pdfrwt beam="1">  1        1 0.84951288E+00 0.30000000E+03</pdfrwt>
<pdfrwt beam="2">0</pdfrwt>
<totfact> 0.40641306E-04</totfact>
</mgrwt>
<clustering>
<clus scale="   37.314">  1  6  2 -1</clus>
<clus scale="  468.131">  4  5 -1 -1</clus>
<clus scale="  300.000">  1  4  2 -1</clus>
</clustering>
</event>
<event>
 6    1  0.1000035E-011  0.3000000E+03  0.7818608E-02  0.1093470E+00
          1   -1    0    0  502    0  0.00000000000E+00  0.00000000000E+00  0.22866473554E+03  0.22866473554E+03  0.00000000000E+00 0.  1.
         13   -1    0    0    0    0 -0.00000000000E+00 -0.00000000000E+00 -0.27500000000E+03  0.27500000000E+03  0.00000000000E+00 0.  1.
    9000005    2    1    2  501    0 -0.29776608956E+02  0.15540944570E+02 -0.66072005506E+02  0.46470698476E+03  0.45875800197E+03 0.  0.
         13    1    3    3    0    0  0.21301062252E+03 -0.22290276805E+02 -0.26054285296E+02  0.21575265358E+03  0.00000000000E+00 0.  1.
          1    1    3    3  501    0 -0.24278723148E+03  0.37831221375E+02 -0.40017720211E+02  0.24895433117E+03  0.00000000000E+00 0.  1.
         21    1    1    2  502  501  0.29776608956E+02 -0.15540944570E+02  0.19736741046E+02  0.38957750784E+02  0.00000000000E+00 0.  1.
<scales pt_clust_4="550.00000" pt_clust_5="550.00000" pt_clust_6="33.58820"></scales>
<mgrwt>
<rscale>  0 0.30000000E+03</rscale>
<asrwt>  1 0.33588203E+02</asrwt>
<pdfrwt beam="1">  1        1 0.83150813E+00 0.30000000E+03</pdfrwt>
<pdfrwt beam="2">0</pdfrwt>
<totfact> 0.57919426E-04</totfact>
</mgrwt>
<clustering>
<clus scale="   33.588">  1  6  2 -1</clus>
<clus scale="  458.758">  4  5 -1 -1</clus>
<clus scale="  300.000">  1  4  2 -1</clus>
</clustering>
</event>
<event>
 6    1  0.1000035E-011  0.3000000E+03  0.7818608E-02  0.1093470E+00
          1   -1    0    0  502    0  0.00000000000E+00  0.00000000000E+00  0.22263273788E+03  0.22263273788E+03  0.00000000000E+00 0.  1.
         13   -1    0    0    0    0 -0.00000000000E+00 -0.00000000000E+00 -0.27500000000E+03  0.27500000000E+03  0.00000000000E+00 0.  1.
    9000005    2    1    2  501    0  0.19186988430E+02  0.23756734552E+02 -0.60144451687E+02  0.46612071416E+03  0.46121431259E+03 0.  0.
         13    1    3    3    0    0  0.38599346248E+02 -0.88814326982E+02 -0.23675062151E+03  0.25579044351E+03  0.00000000000E+00 0.  1.
          3    1    3    3  501    0 -0.19412357818E+02  0.11257106153E+03  0.17660616982E+03  0.21033027064E+03  0.00000000000E+00 0.  1.
         21    1    1    2  502  501 -0.19186988430E+02 -0.23756734552E+02  0.77771895649E+01  0.31512023723E+02  0.00000000000E+00 0.  1.
<scales pt_clust_4="550.00000" pt_clust_5="550.00000" pt_clust_6="30.53724"></scales>
<mgrwt>
<rscale>  0 0.30000000E+03</rscale>
<asrwt>  1 0.30537239E+02</asrwt>
<pdfrwt beam="1">  1        1 0.80957359E+00 0.30000000E+03</pdfrwt>
<pdfrwt beam="2">0</pdfrwt>
<totfact> 0.90184658E-04</totfact>
</mgrwt>
<clustering>
<clus scale="   30.537">  1  6  2 -1</clus>
<clus scale="  461.214">  4  5 -1 -1</clus>
<clus scale="  300.000">  1  4  2 -1</clus>
</clustering>
</event>
<event>
 6    1  0.1000035E-011  0.3000000E+03  0.7818608E-02  0.1093470E+00
          1   -1    0    0  502    0  0.00000000000E+00  0.00000000000E+00  0.22598596644E+03  0.22598596644E+03  0.00000000000E+00 0.  1.
         13   -1    0    0    0    0 -0.00000000000E+00 -0.00000000000E+00 -0.27500000000E+03  0.27500000000E+03  0.00000000000E+00 0.  1.
    9000005    2    1    2  501    0  0.38232205322E+02 -0.14006349527E+02 -0.46003771030E+02  0.46015777726E+03  0.45603832479E+03 0.  0.
         13    1    3    3    0    0  0.24128095762E+03  0.43189859138E+02 -0.44676890915E+01  0.24515673494E+03  0.00000000000E+00 0.  1.
          3    1    3    3  501    0 -0.20304875230E+03 -0.57196208665E+02 -0.41536081938E+02  0.21500104232E+03  0.00000000000E+00 0.  1.
         21    1    1    2  502  501 -0.38232205322E+02  0.14006349527E+02 -0.30102625335E+01  0.40828189175E+02  0.00000000000E+00 0. -1.
<scales pt_clust_4="550.00000" pt_clust_5="550.00000" pt_clust_6="40.71706"></scales>
<mgrwt>
<rscale>  0 0.30000000E+03</rscale>
<asrwt>  1 0.40717065E+02</asrwt>
<pdfrwt beam="1">  1        1 0.82176715E+00 0.30000000E+03</pdfrwt>
<pdfrwt beam="2">0</pdfrwt>
<totfact> 0.67876386E-04</totfact>
</mgrwt>
<clustering>
<clus scale="   40.717">  1  6  2 -1</clus>
<clus scale="  456.038">  4  5 -1 -1</clus>
<clus scale="  300.000">  1  4  2 -1</clus>
</clustering>
</event>
<event>
 6    1  0.1000035E-011  0.3000000E+03  0.7818608E-02  0.1093470E+00
          1   -1    0    0  502    0  0.00000000000E+00  0.00000000000E+00  0.23873858734E+03  0.23873858734E+03  0.00000000000E+00 0.  1.
         13   -1    0    0    0    0 -0.00000000000E+00 -0.00000000000E+00 -0.27500000000E+03  0.27500000000E+03  0.00000000000E+00 0.  1.
    9000005    2    1    2  501    0 -0.30829065259E+02 -0.35085458567E+02 -0.45404541987E+02  0.46614638754E+03  0.46157281280E+03 0.  0.
         13    1    3    3    0    0  0.50696161932E+02  0.14832060426E+03  0.12685901149E+03  0.20164898036E+03  0.00000000000E+00 0.  1.
          3    1    3    3  501    0 -0.81525227191E+02 -0.18340606283E+03 -0.17226355348E+03  0.26449740718E+03  0.00000000000E+00 0.  1.
         21    1    1    2  502  501  0.30829065259E+02  0.35085458567E+02  0.91431293248E+01  0.47592199796E+02  0.00000000000E+00 0.  1.
<scales pt_clust_4="550.00000" pt_clust_5="550.00000" pt_clust_6="46.70568"></scales>
<mgrwt>
<rscale>  0 0.30000000E+03</rscale>
<asrwt>  1 0.46705681E+02</asrwt>
<pdfrwt beam="1">  1        1 0.86814032E+00 0.30000000E+03</pdfrwt>
<pdfrwt beam="2">0</pdfrwt>
<totfact> 0.25110758E-04</totfact>
</mgrwt>
<clustering>
<clus scale="   46.706">  1  6  2 -1</clus>
<clus scale="  461.573">  4  5 -1 -1</clus>
<clus scale="  300.000">  1  4  2 -1</clus>
</clustering>
</event>
<event>
 6    1  0.1000035E-011  0.3000000E+03  0.7818608E-02  0.1093470E+00
          1   -1    0    0  502    0  0.00000000000E+00  0.00000000000E+00  0.23333366599E+03  0.23333366599E+03  0.00000000000E+00 0.  1.
         13   -1    0    0    0    0 -0.00000000000E+00 -0.00000000000E+00 -0.27500000000E+03  0.27500000000E+03  0.00000000000E+00 0.  1.
    9000005    2    1    2  501    0 -0.82871249547E+01 -0.34697200078E+02 -0.43144436603E+02  0.47262992780E+03  0.46930271053E+03 0.  0.
         13    1    3    3    0    0 -0.76255757316E+02 -0.23786789681E+03 -0.62579969863E+02  0.25751180455E+03  0.00000000000E+00 0.  1.
          3    1    3    3  501    0  0.67968632362E+02  0.20317069673E+03  0.19435533260E+02  0.21511812325E+03  0.00000000000E+00 0.  1.
         21    1    1    2  502  501  0.82871249547E+01  0.34697200078E+02  0.14781025905E+01  0.35703738187E+02  0.00000000000E+00 0. -1.
<scales pt_clust_4="550.00000" pt_clust_5="550.00000" pt_clust_6="35.67313"></scales>
<mgrwt>
<rscale>  0 0.30000000E+03</rscale>
<asrwt>  1 0.35673129E+02</asrwt>
<pdfrwt beam="1">  1        1 0.84848606E+00 0.30000000E+03</pdfrwt>
<pdfrwt beam="2">0</pdfrwt>
<totfact> 0.41890274E-04</totfact>
</mgrwt>
<clustering>
<clus scale="   35.673">  1  6  2 -1</clus>
<clus scale="  469.303">  4  5 -1 -1</clus>
<clus scale="  300.000">  1  4  2 -1</clus>
</clustering>
</event>
<event>
 6    1  0.1000035E-011  0.3000000E+03  0.7818608E-02  0.1093470E+00
          1   -1    0    0  502    0  0.00000000000E+00  0.00000000000E+00  0.23529865787E+03  0.23529865787E+03  0.00000000000E+00 0.  1.
         13   -1    0    0    0    0 -0.00000000000E+00 -0.00000000000E+00 -0.27500000000E+03  0.27500000000E+03  0.00000000000E+00 0.  1.
    9000005    2    1    2  501    0 -0.33591567349E+02  0.63694089779E+01 -0.36300357122E+02  0.47593982398E+03  0.47332022707E+03 0.  0.
         13    1    3    3    0    0 -0.23860985714E+03 -0.58978820494E+02 -0.75694458945E+02  0.25718245723E+03  0.00000000000E+00 0.  1.
          1    1    3    3  501    0  0.20501828980E+03  0.65348229472E+02  0.39394101823E+02  0.21875736674E+03  0.00000000000E+00 0.  1.
         21    1    1    2  502  501  0.33591567349E+02 -0.63694089779E+01 -0.34009850063E+01  0.34358833896E+02  0.00000000000E+00 0.  1.
<scales pt_clust_4="550.00000" pt_clust_5="550.00000" pt_clust_6="34.19011"></scales>
<mgrwt>
<rscale>  0 0.30000000E+03</rscale>
<asrwt>  1 0.34190115E+02</asrwt>
<pdfrwt beam="1">  1        1 0.85563148E+00 0.30000000E+03</pdfrwt>
<pdfrwt beam="2">0</pdfrwt>
<totfact> 0.36066871E-04</totfact>
</mgrwt>
<clustering>
<clus scale="   34.190">  1  6  2 -1</clus>
<clus scale="  473.320">  4  5 -1 -1</clus>
<clus scale="  300.000">  1  4  2 -1</clus>
</clustering>
</event>
<event>
 6    1  0.1000035E-011  0.3000000E+03  0.7818608E-02  0.1093470E+00
          1   -1    0    0  502    0  0.00000000000E+00  0.00000000000E+00  0.23310550859E+03  0.23310550859E+03  0.00000000000E+00 0.  1.
         13   -1    0    0    0    0 -0.00000000000E+00 -0.00000000000E+00 -0.27500000000E+03  0.27500000000E+03  0.00000000000E+00 0.  1.
    9000005    2    1    2  501    0  0.77146815796E+01 -0.40115538557E+02 -0.40173757347E+02  0.46721866876E+03  0.46369233433E+03 0.  0.
         13    1    3    3    0    0  0.13962652025E+03 -0.80480499574E+02 -0.19950513509E+03  0.25646632312E+03  0.00000000000E+00 0.  1.
          1    1    3    3  501    0 -0.13191183867E+03  0.40364961017E+02  0.15933137774E+03  0.21075234564E+03  0.00000000000E+00 0.  1.
         21    1    1    2  502  501 -0.77146815796E+01  0.40115538557E+02 -0.17207340606E+01  0.40886839830E+02  0.00000000000E+00 0.  1.
<scales pt_clust_4="550.00000" pt_clust_5="550.00000" pt_clust_6="40.85061"></scales>
<mgrwt>
<rscale>  0 0.30000000E+03</rscale>
<asrwt>  1 0.40850615E+02</asrwt>
<pdfrwt beam="1">  1        1 0.84765639E+00 0.30000000E+03</pdfrwt>
<pdfrwt beam="2">0</pdfrwt>
<totfact> 0.41579398E-04</totfact>
</mgrwt>
<clustering>
<clus scale="   40.851">  1  6  2 -1</clus>
<clus scale="  463.692">  4  5 -1 -1</clus>
<clus scale="  300.000">  1  4  2 -1</clus>
</clustering>
</event>
<event>
 6    1  0.1000035E-011  0.3000000E+03  0.7818608E-02  0.1093470E+00
          1   -1    0    0  502    0  0.00000000000E+00  0.00000000000E+00  0.23009741495E+03  0.23009741495E+03  0.00000000000E+00 0.  1.
         13   -1    0    0    0    0 -0.00000000000E+00 -0.00000000000E+00 -0.27500000000E+03  0.27500000000E+03  0.00000000000E+00 0.  1.
    9000005    2    1    2  501    0 -0.14435819015E+01  0.32647548725E+02 -0.64479794613E+02  0.46700261871E+03  0.46137387832E+03 0.  0.
         13    1    3    3    0    0  0.22575082444E+03  0.34565235046E+02  0.79927514723E+01  0.22852149633E+03  0.00000000000E+00 0.  1.
          1    1    3    3  501    0 -0.22719440634E+03 -0.19176863213E+01 -0.72472546085E+02  0.23848112238E+03  0.00000000000E+00 0.  1.
         21    1    1    2  502  501  0.14435819015E+01 -0.32647548725E+02  0.19577209559E+02  0.38094796240E+02  0.00000000000E+00 0.  1.
<scales pt_clust_4="550.00000" pt_clust_5="550.00000" pt_clust_6="32.67945"></scales>
<mgrwt>
<rscale>  0 0.30000000E+03</rscale>
<asrwt>  1 0.32679449E+02</asrwt>
<pdfrwt beam="1">  1        1 0.83671787E+00 0.30000000E+03</pdfrwt>
<pdfrwt beam="2">0</pdfrwt>
<totfact> 0.53249526E-04</totfact>
</mgrwt>
<clustering>
<clus scale="   32.679">  1  6  2 -1</clus>
<clus scale="  461.374">  4  5 -1 -1</clus>
<clus scale="  300.000">  1  4  2 -1</clus>
</clustering>
</event>
<event>
 6    1  0.1000035E-011  0.3000000E+03  0.7818608E-02  0.1093470E+00
          1   -1    0    0  502    0  0.00000000000E+00  0.00000000000E+00  0.22739301836E+03  0.22739301836E+03  0.00000000000E+00 0.  1.
         13   -1    0    0    0    0 -0.00000000000E+00 -0.00000000000E+00 -0.27500000000E+03  0.27500000000E+03  0.00000000000E+00 0.  1.
    9000005    2    1    2  501    0  0.17453819599E+02 -0.27952226322E+02 -0.47909142362E+02  0.46943768380E+03  0.46582238061E+03 0.  0.
         13    1    3    3    0    0  0.92697230977E+02  0.15888224535E+03 -0.15569660949E+03  0.24099331676E+03  0.00000000000E+00 0.  1.
          1    1    3    3  501    0 -0.75243411377E+02 -0.18683447167E+03  0.10778746713E+03  0.22844436703E+03  0.00000000000E+00 0.  1.
         21    1    1    2  502  501 -0.17453819599E+02  0.27952226322E+02  0.30216072227E+00  0.32955334562E+02  0.00000000000E+00 0. -1.
<scales pt_clust_4="550.00000" pt_clust_5="550.00000" pt_clust_6="32.95395"></scales>
<mgrwt>
<rscale>  0 0.30000000E+03</rscale>
<asrwt>  1 0.32953949E+02</asrwt>
<pdfrwt beam="1">  1        1 0.82688370E+00 0.30000000E+03</pdfrwt>
<pdfrwt beam="2">0</pdfrwt>
<totfact> 0.63566349E-04</totfact>
</mgrwt>
<clustering>
<clus scale="   32.954">  1  6  2 -1</clus>
<clus scale="  465.822">  4  5 -1 -1</clus>
<clus scale="  300.000">  1  4  2 -1</clus>
</clustering>
</event>
<event>
 6    1  0.1000035E-011  0.3000000E+03  0.7818608E-02  0.1093470E+00
          1   -1    0    0  502    0  0.00000000000E+00  0.00000000000E+00  0.23609511487E+03  0.23609511487E+03  0.00000000000E+00 0.  1.
         13   -1    0    0    0    0 -0.00000000000E+00 -0.00000000000E+00 -0.27500000000E+03  0.27500000000E+03  0.00000000000E+00 0.  1.
    9000005    2    1    2  501    0 -0.62889929174E+01  0.30516107616E+02 -0.41788340331E+02  0.47980456407E+03  0.47696474718E+03 0.  0.
         13    1    3    3    0    0  0.10970517165E+03  0.22324794147E+03  0.10104119527E+02  0.24895172482E+03  0.00000000000E+00 0.  1.
          1    1    3    3  501    0 -0.11599416457E+03 -0.19273183386E+03 -0.51892459858E+02  0.23085283924E+03  0.00000000000E+00 0.  1.
         21    1    1    2  502  501  0.62889929174E+01 -0.30516107616E+02  0.28834552042E+01  0.31290550808E+02  0.00000000000E+00 0. -1.
<scales pt_clust_4="550.00000" pt_clust_5="550.00000" pt_clust_6="31.15741"></scales>
<mgrwt>
<rscale>  0 0.30000000E+03</rscale>
<asrwt>  1 0.31157411E+02</asrwt>
<pdfrwt beam="1">  1        1 0.85852769E+00 0.30000000E+03</pdfrwt>
<pdfrwt beam="2">0</pdfrwt>
<totfact> 0.34274162E-04</totfact>
</mgrwt>
<clustering>
<clus scale="   31.157">  1  6  2 -1</clus>
<clus scale="  476.965">  4  5 -1 -1</clus>
<clus scale="  300.000">  1  4  2 -1</clus>
</clustering>
</event>
<event>
 6    1  0.1000035E-011  0.3000000E+03  0.7818608E-02  0.1093470E+00
          1   -1    0    0  502    0  0.00000000000E+00  0.00000000000E+00  0.23201708114E+03  0.23201708114E+03  0.00000000000E+00 0.  1.
         13   -1    0    0    0    0 -0.00000000000E+00 -0.00000000000E+00 -0.27500000000E+03  0.27500000000E+03  0.00000000000E+00 0.  1.
    9000005    2    1    2  501    0 -0.58570674865E+01  0.35331723550E+02 -0.42691482224E+02  0.47120198846E+03  0.46789541069E+03 0.  0.
         13    1    3    3    0    0 -0.21729540726E+03 -0.16831778490E+02 -0.10882339955E+03  0.24360446440E+03  0.00000000000E+00 0.  1.
          3    1    3    3  501    0  0.21143833978E+03  0.52163502040E+02  0.66131917322E+02  0.22759752407E+03  0.00000000000E+00 0.  1.
         21    1    1    2  502  501  0.58570674865E+01 -0.35331723550E+02 -0.29143663241E+00  0.35815092682E+02  0.00000000000E+00 0.  1.
<scales pt_clust_4="550.00000" pt_clust_5="550.00000" pt_clust_6="35.81391"></scales>
<mgrwt>
<rscale>  0 0.30000000E+03</rscale>
<asrwt>  1 0.35813907E+02</asrwt>
<pdfrwt beam="1">  1        1 0.84369848E+00 0.30000000E+03</pdfrwt>
<pdfrwt beam="2">0</pdfrwt>
<totfact> 0.46169033E-04</totfact>
</mgrwt>
<clustering>
<clus scale="   35.814">  1  6  2 -1</clus>
<clus scale="  467.895">  4  5 -1 -1</clus>
<clus scale="  300.000">  1  4  2 -1</clus>
</clustering>
</event>
<event>
 6    1  0.1000035E-011  0.3000000E+03  0.7818608E-02  0.1093470E+00
          1   -1    0    0  502    0  0.00000000000E+00  0.00000000000E+00  0.21956570890E+03  0.21956570890E+03  0.00000000000E+00 0.  1.
         13   -1    0    0    0    0 -0.00000000000E+00 -0.00000000000E+00 -0.27500000000E+03  0.27500000000E+03  0.00000000000E+00 0.  1.
    9000005    2    1    2  501    0  0.32076885865E+02  0.46447727643E+01 -0.51832913046E+02  0.46195481433E+03  0.45789201684E+03 0.  0.
         13    1    3    3    0    0  0.11660905064E+02 -0.17578627377E+03  0.11903688559E+03  0.21261836911E+03  0.00000000000E+00 0.  1.
          1    1    3    3  501    0  0.20415980801E+02  0.18043104654E+03 -0.17086979864E+03  0.24933644522E+03  0.00000000000E+00 0.  1.
         21    1    1    2  502  501 -0.32076885865E+02 -0.46447727643E+01 -0.36013780534E+01  0.32610894571E+02  0.00000000000E+00 0.  1.
<scales pt_clust_4="550.00000" pt_clust_5="550.00000" pt_clust_6="32.41143"></scales>
<mgrwt>
<rscale>  0 0.30000000E+03</rscale>
<asrwt>  1 0.32411426E+02</asrwt>
<pdfrwt beam="1">  1        1 0.79842076E+00 0.30000000E+03</pdfrwt>
<pdfrwt beam="2">0</pdfrwt>
<totfact> 0.10802027E-03</totfact>
</mgrwt>
<clustering>
<clus scale="   32.411">  1  6  2 -1</clus>
<clus scale="  457.892">  4  5 -1 -1</clus>
<clus scale="  300.000">  1  4  2 -1</clus>
</clustering>
</event>
<event>
 6    1  0.1000035E-011  0.3000000E+03  0.7818608E-02  0.1093470E+00
          1   -1    0    0  502    0  0.00000000000E+00  0.00000000000E+00  0.24519880991E+03  0.24519880991E+03  0.00000000000E+00 0.  1.
         13   -1    0    0    0    0 -0.00000000000E+00 -0.00000000000E+00 -0.27500000000E+03  0.27500000000E+03  0.00000000000E+00 0.  1.
    9000005    2    1    2  501    0 -0.39402933873E+02 -0.26775364875E+02  0.97931243755E+00  0.46348064088E+03  0.46102476512E+03 0.  0.
         13    1    3    3    0    0  0.10038871223E+03  0.15206223505E+03 -0.10786389907E+03  0.21174380178E+03  0.00000000000E+00 0.  1.
          3    1    3    3  501    0 -0.13979164610E+03 -0.17883759993E+03  0.10884321151E+03  0.25173683910E+03  0.00000000000E+00 0.  1.
         21    1    1    2  502  501  0.39402933873E+02  0.26775364875E+02 -0.30780502528E+02  0.56718169028E+02  0.00000000000E+00 0.  1.
<scales pt_clust_4="550.00000" pt_clust_5="550.00000" pt_clust_6="47.63941"></scales>
<mgrwt>
<rscale>  0 0.30000000E+03</rscale>
<asrwt>  1 0.47639413E+02</asrwt>
<pdfrwt beam="1">  1        1 0.89163204E+00 0.30000000E+03</pdfrwt>
<pdfrwt beam="2">0</pdfrwt>
<totfact> 0.13056066E-04</totfact>
</mgrwt>
<clustering>
<clus scale="   47.639">  1  6  2 -1</clus>
<clus scale="  461.025">  4  5 -1 -1</clus>
<clus scale="  300.000">  1  4  2 -1</clus>
</clustering>
</event>
<event>
 6    1  0.1000035E-011  0.3000000E+03  0.7818608E-02  0.1093470E+00
          1   -1    0    0  502    0  0.00000000000E+00  0.00000000000E+00  0.23168788242E+03  0.23168788242E+03  0.00000000000E+00 0.  1.
         13   -1    0    0    0    0 -0.00000000000E+00 -0.00000000000E+00 -0.27500000000E+03  0.27500000000E+03  0.00000000000E+00 0.  1.
    9000005    2    1    2  501    0  0.67387862140E+01  0.31653373197E+02 -0.60567008052E+02  0.47001257030E+03  0.46496893068E+03 0.  0.
         13    1    3    3    0    0 -0.73114681173E+02 -0.16285176391E+03 -0.15789309880E+03  0.23832054938E+03  0.00000000000E+00 0.  1.
          1    1    3    3  501    0  0.79853467387E+02  0.19450513710E+03  0.97326090749E+02  0.23169202091E+03  0.00000000000E+00 0.  1.
         21    1    1    2  502  501 -0.67387862140E+01 -0.31653373197E+02  0.17254890476E+02  0.36675312129E+02  0.00000000000E+00 0. -1.
<scales pt_clust_4="550.00000" pt_clust_5="550.00000" pt_clust_6="32.36275"></scales>
<mgrwt>
<rscale>  0 0.30000000E+03</rscale>
<asrwt>  1 0.32362745E+02</asrwt>
<pdfrwt beam="1">  1        1 0.84250139E+00 0.30000000E+03</pdfrwt>
<pdfrwt beam="2">0</pdfrwt>
<totfact> 0.48164921E-04</totfact>
</mgrwt>
<clustering>
<clus scale="   32.363">  1  6  2 -1</clus>
<clus scale="  464.969">  4  5 -1 -1</clus>
<clus scale="  300.000">  1  4  2 -1</clus>
</clustering>
</event>
<event>
 6    1  0.1000035E-011  0.3000000E+03  0.7818608E-02  0.1093470E+00
          1   -1    0    0  502    0  0.00000000000E+00  0.00000000000E+00  0.24323557321E+03  0.24323557321E+03  0.00000000000E+00 0.  1.
         13   -1    0    0    0    0 -0.00000000000E+00 -0.00000000000E+00 -0.27500000000E+03  0.27500000000E+03  0.00000000000E+00 0.  1.
    9000005    2    1    2  501    0 -0.11302832380E+02  0.35426716638E+02 -0.37336650218E+02  0.48063429736E+03  0.47773684815E+03 0.  0.
         13    1    3    3    0    0 -0.16129141677E+03  0.17845158625E+03 -0.10522340043E+03  0.26254876453E+03  0.00000000000E+00 0.  1.
          1    1    3    3  501    0  0.14998858439E+03 -0.14302486961E+03  0.67886750212E+02  0.21808553283E+03  0.00000000000E+00 0.  1.
         21    1    1    2  502  501  0.11302832380E+02 -0.35426716638E+02  0.55722234264E+01  0.37601275849E+02  0.00000000000E+00 0. -1.
<scales pt_clust_4="550.00000" pt_clust_5="550.00000" pt_clust_6="37.18610"></scales>
<mgrwt>
<rscale>  0 0.30000000E+03</rscale>
<asrwt>  1 0.37186103E+02</asrwt>
<pdfrwt beam="1">  1        1 0.88449299E+00 0.30000000E+03</pdfrwt>
<pdfrwt beam="2">0</pdfrwt>
<totfact> 0.17050395E-04</totfact>
</mgrwt>
<clustering>
<clus scale="   37.186">  1  6  2 -1</clus>
<clus scale="  477.737">  4  5 -1 -1</clus>
<clus scale="  300.000">  1  4  2 -1</clus>
</clustering>
</event>
<event>
 6    1  0.1000035E-011  0.3000000E+03  0.7818608E-02  0.1093470E+00
          1   -1    0    0  502    0  0.00000000000E+00  0.00000000000E+00  0.22368458338E+03  0.22368458338E+03  0.00000000000E+00 0.  1.
         13   -1    0    0    0    0 -0.00000000000E+00 -0.00000000000E+00 -0.27500000000E+03  0.27500000000E+03  0.00000000000E+00 0.  1.
    9000005    2    1    2  501    0  0.24039926773E+02  0.24507741283E+02 -0.30529857149E+02  0.45855246476E+03  0.45624526660E+03 0.  0.
         13    1    3    3    0    0 -0.14679526350E+03 -0.11526555312E+03  0.89837836884E+02  0.20713723484E+03  0.00000000000E+00 0.  1.
          3    1    3    3  501    0  0.17083519027E+03  0.13977329441E+03 -0.12036769403E+03  0.25141522991E+03  0.00000000000E+00 0.  1.
         21    1    1    2  502  501 -0.24039926773E+02 -0.24507741283E+02 -0.20785559475E+02  0.40132118618E+02  0.00000000000E+00 0.  1.
<scales pt_clust_4="550.00000" pt_clust_5="550.00000" pt_clust_6="34.33000"></scales>
<mgrwt>
<rscale>  0 0.30000000E+03</rscale>
<asrwt>  1 0.34329996E+02</asrwt>
<pdfrwt beam="1">  1        1 0.81339849E+00 0.30000000E+03</pdfrwt>
<pdfrwt beam="2">0</pdfrwt>
<totfact> 0.82294130E-04</totfact>
</mgrwt>
<clustering>
<clus scale="   34.330">  1  6  2 -1</clus>
<clus scale="  456.245">  4  5 -1 -1</clus>
<clus scale="  300.000">  1  4  2 -1</clus>
</clustering>
</event>
<event>
 6    1  0.1000035E-011  0.3000000E+03  0.7818608E-02  0.1093470E+00
          1   -1    0    0  502    0  0.00000000000E+00  0.00000000000E+00  0.23562230715E+03  0.23562230715E+03  0.00000000000E+00 0.  1.
         13   -1    0    0    0    0 -0.00000000000E+00 -0.00000000000E+00 -0.27500000000E+03  0.27500000000E+03  0.00000000000E+00 0.  1.
    9000005    2    1    2  501    0 -0.11167286092E+02  0.34126639375E+02 -0.57323153968E+02  0.47048036688E+03  0.46559262865E+03 0.  0.
         13    1    3    3    0    0 -0.10837306816E+03  0.17271152004E+03 -0.17138689527E+03  0.26635964208E+03  0.00000000000E+00 0.  1.
          1    1    3    3  501    0  0.97205782067E+02 -0.13858488067E+03  0.11406374130E+03  0.20412072481E+03  0.00000000000E+00 0.  1.
         21    1    1    2  502  501  0.11167286092E+02 -0.34126639375E+02  0.17945461121E+02  0.40141940269E+02  0.00000000000E+00 0. -1.
<scales pt_clust_4="550.00000" pt_clust_5="550.00000" pt_clust_6="35.90732"></scales>
<mgrwt>
<rscale>  0 0.30000000E+03</rscale>
<asrwt>  1 0.35907322E+02</asrwt>
<pdfrwt beam="1">  1        1 0.85680839E+00 0.30000000E+03</pdfrwt>
<pdfrwt beam="2">0</pdfrwt>
<totfact> 0.34768806E-04</totfact>
</mgrwt>
<clustering>
<clus scale="   35.907">  1  6  2 -1</clus>
<clus scale="  465.593">  4  5 -1 -1</clus>
<clus scale="  300.000">  1  4  2 -1</clus>
</clustering>
</event>
<event>
 6    1  0.1000035E-011  0.3000000E+03  0.7818608E-02  0.1093470E+00
          1   -1    0    0  502    0  0.00000000000E+00  0.00000000000E+00  0.23578433301E+03  0.23578433301E+03  0.00000000000E+00 0.  1.
         13   -1    0    0    0    0 -0.00000000000E+00 -0.00000000000E+00 -0.27500000000E+03  0.27500000000E+03  0.00000000000E+00 0.  1.
    9000005    2    1    2  501    0  0.77182802829E+01  0.35824082976E+02 -0.45895440886E+02  0.47353441823E+03  0.46987819378E+03 0.  0.
         13    1    3    3    0    0 -0.15200070863E+03 -0.15821846750E+03 -0.96689475885E+01  0.21961508925E+03  0.00000000000E+00 0.  1.
          1    1    3    3  501    0  0.15971898891E+03  0.19404255047E+03 -0.36226493297E+02  0.25391932898E+03  0.00000000000E+00 0.  1.
         21    1    1    2  502  501 -0.77182802829E+01 -0.35824082976E+02  0.66797738960E+01  0.37249914777E+02  0.00000000000E+00 0.  1.
<scales pt_clust_4="550.00000" pt_clust_5="550.00000" pt_clust_6="36.64610"></scales>
<mgrwt>
<rscale>  0 0.30000000E+03</rscale>
<asrwt>  1 0.36646102E+02</asrwt>
<pdfrwt beam="1">  1        1 0.85739757E+00 0.30000000E+03</pdfrwt>
<pdfrwt beam="2">0</pdfrwt>
<totfact> 0.34157043E-04</totfact>
</mgrwt>
<clustering>
<clus scale="   36.646">  1  6  2 -1</clus>
<clus scale="  469.878">  4  5 -1 -1</clus>
<clus scale="  300.000">  1  4  2 -1</clus>
</clustering>
</event>
<event>
 6    1  0.1000035E-011  0.3000000E+03  0.7818608E-02  0.1093470E+00
          1   -1    0    0  502    0  0.00000000000E+00  0.00000000000E+00  0.23632673762E+03  0.23632673762E+03  0.00000000000E+00 0.  1.
         13   -1    0    0    0    0 -0.00000000000E+00 -0.00000000000E+00 -0.27500000000E+03  0.27500000000E+03  0.00000000000E+00 0.  1.
    9000005    2    1    2  501    0 -0.27366779743E+02  0.31098956964E+02 -0.55649768488E+02  0.46655746783E+03  0.46137066259E+03 0.  0.
         13    1    3    3    0    0  0.14020998642E+03  0.22328409223E+02 -0.19995725765E+03  0.24523519942E+03  0.00000000000E+00 0.  1.
          1    1    3    3  501    0 -0.16757676617E+03  0.87705477415E+01  0.14430748916E+03  0.22132226841E+03  0.00000000000E+00 0.  1.
         21    1    1    2  502  501  0.27366779743E+02 -0.31098956964E+02  0.16976506109E+02  0.44769269789E+02  0.00000000000E+00 0.  1.
<scales pt_clust_4="550.00000" pt_clust_5="550.00000" pt_clust_6="41.42567"></scales>
<mgrwt>
<rscale>  0 0.30000000E+03</rscale>
<asrwt>  1 0.41425665E+02</asrwt>
<pdfrwt beam="1">  1        1 0.85936995E+00 0.30000000E+03</pdfrwt>
<pdfrwt beam="2">0</pdfrwt>
<totfact> 0.31845435E-04</totfact>
</mgrwt>
<clustering>
<clus scale="   41.426">  1  6  2 -1</clus>
<clus scale="  461.371">  4  5 -1 -1</clus>
<clus scale="  300.000">  1  4  2 -1</clus>
</clustering>
</event>
<event>
 6    1  0.1000035E-011  0.3000000E+03  0.7818608E-02  0.1093470E+00
          1   -1    0    0  502    0  0.00000000000E+00  0.00000000000E+00  0.24980568574E+03  0.24980568574E+03  0.00000000000E+00 0.  1.
         13   -1    0    0    0    0 -0.00000000000E+00 -0.00000000000E+00 -0.27500000000E+03  0.27500000000E+03  0.00000000000E+00 0.  1.
    9000005    2    1    2  501    0 -0.21716596109E+02 -0.22275409919E+02 -0.41753260288E+02  0.48956362100E+03  0.48678681148E+03 0.  0.
         13    1    3    3    0    0  0.80148058919E+02  0.31871467176E+01 -0.24663121838E+03  0.25934692428E+03  0.00000000000E+00 0.  1.
          3    1    3    3  501    0 -0.10186465503E+03 -0.25462556637E+02  0.20487795809E+03  0.23021669672E+03  0.00000000000E+00 0.  1.
         21    1    1    2  502  501  0.21716596109E+02  0.22275409919E+02  0.16558946027E+02  0.35242064740E+02  0.00000000000E+00 0. -1.
<scales pt_clust_4="550.00000" pt_clust_5="550.00000" pt_clust_6="31.10956"></scales>
<mgrwt>
<rscale>  0 0.30000000E+03</rscale>
<asrwt>  1 0.31109555E+02</asrwt>
<pdfrwt beam="1">  1        1 0.90838431E+00 0.30000000E+03</pdfrwt>
<pdfrwt beam="2">0</pdfrwt>
<totfact> 0.80245580E-05</totfact>
</mgrwt>
<clustering>
<clus scale="   31.110">  1  6  2 -1</clus>
<clus scale="  486.787">  4  5 -1 -1</clus>
<clus scale="  300.000">  1  4  2 -1</clus>
</clustering>
</event>
<event>
 6    1  0.1000035E-011  0.3000000E+03  0.7818608E-02  0.1093470E+00
          1   -1    0    0  502    0  0.00000000000E+00  0.00000000000E+00  0.24037580781E+03  0.24037580781E+03  0.00000000000E+00 0.  1.
         13   -1    0    0    0    0 -0.00000000000E+00 -0.00000000000E+00 -0.27500000000E+03  0.27500000000E+03  0.00000000000E+00 0.  1.
    9000005    2    1    2  501    0 -0.44356403968E+01 -0.47817188992E+02 -0.22011484126E+02  0.46572463588E+03  0.46271889151E+03 0.  0.
         13    1    3    3    0    0  0.15483329027E+03  0.10804120796E+03 -0.11847978785E+03  0.22289843095E+03  0.00000000000E+00 0.  1.
          1    1    3    3  501    0 -0.15926893067E+03 -0.15585839695E+03  0.96468303720E+02  0.24282620493E+03  0.00000000000E+00 0.  1.
         21    1    1    2  502  501  0.44356403968E+01  0.47817188992E+02 -0.12612708068E+02  0.49651171926E+02  0.00000000000E+00 0.  1.
<scales pt_clust_4="550.00000" pt_clust_5="550.00000" pt_clust_6="48.02250"></scales>
<mgrwt>
<rscale>  0 0.30000000E+03</rscale>
<asrwt>  1 0.48022503E+02</asrwt>
<pdfrwt beam="1">  1        1 0.87409385E+00 0.30000000E+03</pdfrwt>
<pdfrwt beam="2">0</pdfrwt>
<totfact> 0.21706464E-04</totfact>
</mgrwt>
<clustering>
<clus scale="   48.023">  1  6  2 -1</clus>
<clus scale="  462.719">  4  5 -1 -1</clus>
<clus scale="  300.000">  1  4  2 -1</clus>
</clustering>
</event>
<event>
 6    1  0.1000035E-011  0.3000000E+03  0.7818608E-02  0.1093470E+00
          1   -1    0    0  502    0  0.00000000000E+00  0.00000000000E+00  0.24814970440E+03  0.24814970440E+03  0.00000000000E+00 0.  1.
         13   -1    0    0    0    0 -0.00000000000E+00 -0.00000000000E+00 -0.27500000000E+03  0.27500000000E+03  0.00000000000E+00 0.  1.
    9000005    2    1    2  501    0 -0.36858605843E+02  0.16610523053E+02 -0.41084571873E+02  0.48028852240E+03  0.47681721488E+03 0.  0.
         13    1    3    3    0    0 -0.10581778156E+03  0.18549968986E+03 -0.15619363422E+03  0.26458266988E+03  0.00000000000E+00 0.  1.
          1    1    3    3  501    0  0.68959175721E+02 -0.16888916680E+03  0.11510906234E+03  0.21570585252E+03  0.00000000000E+00 0.  1.
         21    1    1    2  502  501  0.36858605843E+02 -0.16610523053E+02  0.14234276268E+02  0.42861181991E+02  0.00000000000E+00 0. -1.
<scales pt_clust_4="550.00000" pt_clust_5="550.00000" pt_clust_6="40.42853"></scales>
<mgrwt>
<rscale>  0 0.30000000E+03</rscale>
<asrwt>  1 0.40428533E+02</asrwt>
<pdfrwt beam="1">  1        1 0.90236256E+00 0.30000000E+03</pdfrwt>
<pdfrwt beam="2">0</pdfrwt>
<totfact> 0.99828944E-05</totfact>
</mgrwt>
<clustering>
<clus scale="   40.429">  1  6  2 -1</clus>
<clus scale="  476.817">  4  5 -1 -1</clus>
<clus scale="  300.000">  1  4  2 -1</clus>
</clustering>
</event>
<event>
 6    1  0.1000035E-011  0.3000000E+03  0.7818608E-02  0.1093470E+00
          1   -1    0    0  502    0  0.00000000000E+00  0.00000000000E+00  0.23013133884E+03  0.23013133884E+03  0.00000000000E+00 0.  1.
         13   -1    0    0    0    0 -0.00000000000E+00 -0.00000000000E+00 -0.27500000000E+03  0.27500000000E+03  0.00000000000E+00 0.  1.
    9000005    2    1    2  501    0  0.21072465339E+02  0.21585248347E+02 -0.64154719081E+02  0.46932737577E+03  0.46394222261E+03 0.  0.
         13    1    3    3    0    0  0.16062253763E+03 -0.14182656711E+03  0.58207715543E+02  0.22204169176E+03  0.00000000000E+00 0.  1.
          1    1    3    3  501    0 -0.13955007229E+03  0.16341181546E+03 -0.12236243462E+03  0.24728568400E+03  0.00000000000E+00 0.  1.
         21    1    1    2  502  501 -0.21072465339E+02 -0.21585248347E+02  0.19286057925E+02  0.35803963076E+02  0.00000000000E+00 0.  1.
<scales pt_clust_4="550.00000" pt_clust_5="550.00000" pt_clust_6="30.16574"></scales>
<mgrwt>
<rscale>  0 0.30000000E+03</rscale>
<asrwt>  1 0.30165738E+02</asrwt>
<pdfrwt beam="1">  1        1 0.83684123E+00 0.30000000E+03</pdfrwt>
<pdfrwt beam="2">0</pdfrwt>
<totfact> 0.53958166E-04</totfact>
</mgrwt>
<clustering>
<clus scale="   30.166">  1  6  2 -1</clus>
<clus scale="  463.942">  4  5 -1 -1</clus>
<clus scale="  300.000">  1  4  2 -1</clus>
</clustering>
</event>
<event>
 6    1  0.1000035E-011  0.3000000E+03  0.7818608E-02  0.1093470E+00
          1   -1    0    0  502    0  0.00000000000E+00  0.00000000000E+00  0.24443458348E+03  0.24443458348E+03  0.00000000000E+00 0.  1.
         13   -1    0    0    0    0 -0.00000000000E+00 -0.00000000000E+00 -0.27500000000E+03  0.27500000000E+03  0.00000000000E+00 0.  1.
    9000005    2    1    2  501    0  0.29985746854E+02  0.97859797764E+00 -0.31598567594E+02  0.48941508866E+03  0.48747159595E+03 0.  0.
         13    1    3    3    0    0  0.14984891520E+03 -0.73810067059E+02  0.17319093779E+03  0.24061945956E+03  0.00000000000E+00 0.  1.
          3    1    3    3  501    0 -0.11986316835E+03  0.74788665036E+02 -0.20478950538E+03  0.24879562910E+03  0.00000000000E+00 0.  1.
         21    1    1    2  502  501 -0.29985746854E+02 -0.97859797764E+00  0.10331510744E+01  0.30019494825E+02  0.00000000000E+00 0.  1.
<scales pt_clust_4="550.00000" pt_clust_5="550.00000" pt_clust_6="30.00171"></scales>
<mgrwt>
<rscale>  0 0.30000000E+03</rscale>
<asrwt>  1 0.30001711E+02</asrwt>
<pdfrwt beam="1">  1        1 0.88885303E+00 0.30000000E+03</pdfrwt>
<pdfrwt beam="2">0</pdfrwt>
<totfact> 0.15466173E-04</totfact>
</mgrwt>
<clustering>
<clus scale="   30.002">  1  6  2 -1</clus>
<clus scale="  487.472">  4  5 -1 -1</clus>
<clus scale="  300.000">  1  4  2 -1</clus>
</clustering>
</event>
<event>
 6    1  0.1000035E-011  0.3000000E+03  0.7818608E-02  0.1093470E+00
          1   -1    0    0  502    0  0.00000000000E+00  0.00000000000E+00  0.23835330381E+03  0.23835330381E+03  0.00000000000E+00 0.  1.
         13   -1    0    0    0    0 -0.00000000000E+00 -0.00000000000E+00 -0.27500000000E+03  0.27500000000E+03  0.00000000000E+00 0.  1.
    9000005    2    1    2  501    0 -0.24454846376E+02  0.21590800247E+02 -0.46200973659E+02  0.47936085781E+03  0.47601270978E+03 0.  0.
         13    1    3    3    0    0  0.10234791435E+03  0.53479605989E+02 -0.22791200990E+03  0.25549764791E+03  0.00000000000E+00 0.  1.
          1    1    3    3  501    0 -0.12680276072E+03 -0.31888805741E+02  0.18171103624E+03  0.22386320991E+03  0.00000000000E+00 0.  1.
         21    1    1    2  502  501  0.24454846376E+02 -0.21590800247E+02  0.95542774644E+01  0.33992445991E+02  0.00000000000E+00 0. -1.
<scales pt_clust_4="550.00000" pt_clust_5="550.00000" pt_clust_6="32.62211"></scales>
<mgrwt>
<rscale>  0 0.30000000E+03</rscale>
<asrwt>  1 0.32622112E+02</asrwt>
<pdfrwt beam="1">  1        1 0.86673929E+00 0.30000000E+03</pdfrwt>
<pdfrwt beam="2">0</pdfrwt>
<totfact> 0.27739342E-04</totfact>
</mgrwt>
<clustering>
<clus scale="   32.622">  1  6  2 -1</clus>
<clus scale="  476.013">  4  5 -1 -1</clus>
<clus scale="  300.000">  1  4  2 -1</clus>
</clustering>
</event>
<event>
 6    1  0.1000035E-011  0.3000000E+03  0.7818608E-02  0.1093470E+00
          1   -1    0    0  502    0  0.00000000000E+00  0.00000000000E+00  0.24921942541E+03  0.24921942541E+03  0.00000000000E+00 0.  1.
         13   -1    0    0    0    0 -0.00000000000E+00 -0.00000000000E+00 -0.27500000000E+03  0.27500000000E+03  0.00000000000E+00 0.  1.
    9000005    2    1    2  501    0  0.32864132521E+02  0.60326806828E+01 -0.47990462288E+02  0.48409806509E+03  0.48055323088E+03 0.  0.
         13    1    3    3    0    0  0.19721096609E+03 -0.84086109075E+02 -0.15840440207E+03  0.26656067504E+03  0.00000000000E+00 0.  1.
          3    1    3    3  501    0 -0.16434683357E+03  0.90118789758E+02  0.11041393978E+03  0.21753739005E+03  0.00000000000E+00 0.  1.
         21    1    1    2  502  501 -0.32864132521E+02 -0.60326806828E+01  0.22209887702E+02  0.40121360324E+02  0.00000000000E+00 0. -1.
<scales pt_clust_4="550.00000" pt_clust_5="550.00000" pt_clust_6="33.41324"></scales>
<mgrwt>
<rscale>  0 0.30000000E+03</rscale>
<asrwt>  1 0.33413238E+02</asrwt>
<pdfrwt beam="1">  1        1 0.90625246E+00 0.30000000E+03</pdfrwt>
<pdfrwt beam="2">0</pdfrwt>
<totfact> 0.88111916E-05</totfact>
</mgrwt>
<clustering>
<clus scale="   33.413">  1  6  2 -1</clus>
<clus scale="  480.553">  4  5 -1 -1</clus>
<clus scale="  300.000">  1  4  2 -1</clus>
</clustering>
</event>
<event>
 6    1  0.1000035E-011  0.3000000E+03  0.7818608E-02  0.1093470E+00
          1   -1    0    0  502    0  0.00000000000E+00  0.00000000000E+00  0.24740087085E+03  0.24740087085E+03  0.00000000000E+00 0.  1.
         13   -1    0    0    0    0 -0.00000000000E+00 -0.00000000000E+00 -0.27500000000E+03  0.27500000000E+03  0.00000000000E+00 0.  1.
    9000005    2    1    2  501    0 -0.19525419290E+02  0.26291128388E+02 -0.24072731070E+01  0.48108386417E+03  0.47996189845E+03 0.  0.
         13    1    3    3    0    0  0.12444969524E+03  0.15560111325E+03  0.13767401657E+03  0.24218498701E+03  0.00000000000E+00 0.  1.
          3    1    3    3  501    0 -0.14397511453E+03 -0.12930998487E+03 -0.14008128968E+03  0.23889887716E+03  0.00000000000E+00 0.  1.
         21    1    1    2  502  501  0.19525419290E+02 -0.26291128388E+02 -0.25191856044E+02  0.41317006684E+02  0.00000000000E+00 0. -1.
<scales pt_clust_4="550.00000" pt_clust_5="550.00000" pt_clust_6="32.74853"></scales>
<mgrwt>
<rscale>  0 0.30000000E+03</rscale>
<asrwt>  1 0.32748534E+02</asrwt>
<pdfrwt beam="1">  1        1 0.89963953E+00 0.30000000E+03</pdfrwt>
<pdfrwt beam="2">0</pdfrwt>
<totfact> 0.11299205E-04</totfact>
</mgrwt>
<clustering>
<clus scale="   32.749">  1  6  2 -1</clus>
<clus scale="  479.962">  4  5 -1 -1</clus>
<clus scale="  300.000">  1  4  2 -1</clus>
</clustering>
</event>
<event>
 6    1  0.1000035E-011  0.3000000E+03  0.7818608E-02  0.1093470E+00
          1   -1    0    0  502    0  0.00000000000E+00  0.00000000000E+00  0.25663171065E+03  0.25663171065E+03  0.00000000000E+00 0.  1.
         13   -1    0    0    0    0 -0.00000000000E+00 -0.00000000000E+00 -0.27500000000E+03  0.27500000000E+03  0.00000000000E+00 0.  1.
    9000005    2    1    2  501    0 -0.15135586653E+02  0.31113087213E+02 -0.48453645838E+02  0.48578153231E+03  0.48211910474E+03 0.  0.
         13    1    3    3    0    0  0.10516992688E+03  0.21951138722E+03  0.37529398509E+02  0.24628117751E+03  0.00000000000E+00 0.  1.
          3    1    3    3  501    0 -0.12030551353E+03 -0.18839830001E+03 -0.85983044347E+02  0.23950035480E+03  0.00000000000E+00 0.  1.
         21    1    1    2  502  501  0.15135586653E+02 -0.31113087213E+02  0.30085356489E+02  0.45850178345E+02  0.00000000000E+00 0.  1.
<scales pt_clust_4="550.00000" pt_clust_5="550.00000" pt_clust_6="34.59928"></scales>
<mgrwt>
<rscale>  0 0.30000000E+03</rscale>
<asrwt>  1 0.34599280E+02</asrwt>
<pdfrwt beam="1">  1        1 0.93320622E+00 0.30000000E+03</pdfrwt>
<pdfrwt beam="2">0</pdfrwt>
<totfact> 0.23750490E-05</totfact>
</mgrwt>
<clustering>
<clus scale="   34.599">  1  6  2 -1</clus>
<clus scale="  482.119">  4  5 -1 -1</clus>
<clus scale="  300.000">  1  4  2 -1</clus>
</clustering>
</event>
<event>
 6    1  0.1000035E-011  0.3000000E+03  0.7818608E-02  0.1093470E+00
          1   -1    0    0  502    0  0.00000000000E+00  0.00000000000E+00  0.23529946662E+03  0.23529946662E+03  0.00000000000E+00 0.  1.
         13   -1    0    0    0    0 -0.00000000000E+00 -0.00000000000E+00 -0.27500000000E+03  0.27500000000E+03  0.00000000000E+00 0.  1.
    9000005    2    1    2  501    0  0.28440908956E+02 -0.21616278893E+02 -0.32562093275E+02  0.47386999856E+03  0.47139827832E+03 0.  0.
         13    1    3    3    0    0 -0.20294594068E+03 -0.87453430975E+02 -0.66829197240E+02  0.23087074096E+03  0.00000000000E+00 0.  1.
          1    1    3    3  501    0  0.23138684964E+03  0.65837152081E+02  0.34267103965E+02  0.24299925760E+03  0.00000000000E+00 0.  1.
         21    1    1    2  502  501 -0.28440908956E+02  0.21616278893E+02 -0.71384401088E+01  0.36429468053E+02  0.00000000000E+00 0. -1.
<scales pt_clust_4="550.00000" pt_clust_5="550.00000" pt_clust_6="35.72324"></scales>
<mgrwt>
<rscale>  0 0.30000000E+03</rscale>
<asrwt>  1 0.35723243E+02</asrwt>
<pdfrwt beam="1">  1        1 0.85563442E+00 0.30000000E+03</pdfrwt>
<pdfrwt beam="2">0</pdfrwt>
<totfact> 0.35769675E-04</totfact>
</mgrwt>
<clustering>
<clus scale="   35.723">  1  6  2 -1</clus>
<clus scale="  471.398">  4  5 -1 -1</clus>
<clus scale="  300.000">  1  4  2 -1</clus>
</clustering>
</event>
<event>
 6    1  0.1000035E-011  0.3000000E+03  0.7818608E-02  0.1093470E+00
          1   -1    0    0  502    0  0.00000000000E+00  0.00000000000E+00  0.23172915980E+03  0.23172915980E+03  0.00000000000E+00 0.  1.
         13   -1    0    0    0    0 -0.00000000000E+00 -0.00000000000E+00 -0.27500000000E+03  0.27500000000E+03  0.00000000000E+00 0.  1.
    9000005    2    1    2  501    0  0.19992637685E+02 -0.23120386283E+02 -0.52947213248E+02  0.47466843587E+03  0.47071483809E+03 0.  0.
         13    1    3    3    0    0  0.98309670412E+02  0.54345006370E+02 -0.23580504202E+03  0.26119377645E+03  0.00000000000E+00 0.  1.
          3    1    3    3  501    0 -0.78317032726E+02 -0.77465392653E+02  0.18285782877E+03  0.21347465942E+03  0.00000000000E+00 0.  1.
         21    1    1    2  502  501 -0.19992637685E+02  0.23120386283E+02  0.96763730520E+01  0.32060723931E+02  0.00000000000E+00 0. -1.
<scales pt_clust_4="550.00000" pt_clust_5="550.00000" pt_clust_6="30.56563"></scales>
<mgrwt>
<rscale>  0 0.30000000E+03</rscale>
<asrwt>  1 0.30565631E+02</asrwt>
<pdfrwt beam="1">  1        1 0.84265149E+00 0.30000000E+03</pdfrwt>
<pdfrwt beam="2">0</pdfrwt>
<totfact> 0.48552531E-04</totfact>
</mgrwt>
<clustering>
<clus scale="   30.566">  1  6  2 -1</clus>
<clus scale="  470.715">  4  5 -1 -1</clus>
<clus scale="  300.000">  1  4  2 -1</clus>
</clustering>
</event>
<event>
 6    1  0.1000035E-011  0.3000000E+03  0.7818608E-02  0.1093470E+00
          1   -1    0    0  502    0  0.00000000000E+00  0.00000000000E+00  0.23239356239E+03  0.23239356239E+03  0.00000000000E+00 0.  1.
         13   -1    0    0    0    0 -0.00000000000E+00 -0.00000000000E+00 -0.27500000000E+03  0.27500000000E+03  0.00000000000E+00 0.  1.
    9000005    2    1    2  501    0 -0.18263302670E+02  0.31164926743E+02 -0.40984466503E+02  0.47123513773E+03  0.46805771830E+03 0.  0.
         13    1    3    3    0    0  0.19274073864E+03  0.13391370140E+03 -0.16635501174E+02  0.23528410838E+03  0.00000000000E+00 0.  1.
          3    1    3    3  501    0 -0.21100404131E+03 -0.10274877466E+03 -0.24348965329E+02  0.23595102936E+03  0.00000000000E+00 0.  1.
         21    1    1    2  502  501  0.18263302670E+02 -0.31164926743E+02 -0.16219711061E+01  0.36158424656E+02  0.00000000000E+00 0.  1.
<scales pt_clust_4="550.00000" pt_clust_5="550.00000" pt_clust_6="36.12203"></scales>
<mgrwt>
<rscale>  0 0.30000000E+03</rscale>
<asrwt>  1 0.36122028E+02</asrwt>
<pdfrwt beam="1">  1        1 0.84506750E+00 0.30000000E+03</pdfrwt>
<pdfrwt beam="2">0</pdfrwt>
<totfact> 0.44856341E-04</totfact>
</mgrwt>
<clustering>
<clus scale="   36.122">  1  6  2 -1</clus>
<clus scale="  468.058">  4  5 -1 -1</clus>
<clus scale="  300.000">  1  4  2 -1</clus>
</clustering>
</event>
<event>
 6    1  0.1000035E-011  0.3000000E+03  0.7818608E-02  0.1093470E+00
          1   -1    0    0  502    0  0.00000000000E+00  0.00000000000E+00  0.23128892083E+03  0.23128892083E+03  0.00000000000E+00 0.  1.
         13   -1    0    0    0    0 -0.00000000000E+00 -0.00000000000E+00 -0.27500000000E+03  0.27500000000E+03  0.00000000000E+00 0.  1.
    9000005    2    1    2  501    0 -0.97186381921E+01 -0.31375381369E+02 -0.39443391613E+02  0.47316672825E+03  0.47037443074E+03 0.  0.
         13    1    3    3    0    0  0.10806133625E+03  0.17023758548E+03  0.72432356282E+02  0.21425343437E+03  0.00000000000E+00 0.  1.
          3    1    3    3  501    0 -0.11777997444E+03 -0.20161296685E+03 -0.11187574790E+03  0.25891329388E+03  0.00000000000E+00 0.  1.
         21    1    1    2  502  501  0.97186381921E+01  0.31375381369E+02 -0.42676875547E+01  0.33122192582E+02  0.00000000000E+00 0.  1.
<scales pt_clust_4="550.00000" pt_clust_5="550.00000" pt_clust_6="32.84612"></scales>
<mgrwt>
<rscale>  0 0.30000000E+03</rscale>
<asrwt>  1 0.32846119E+02</asrwt>
<pdfrwt beam="1">  1        1 0.84105062E+00 0.30000000E+03</pdfrwt>
<pdfrwt beam="2">0</pdfrwt>
<totfact> 0.49360452E-04</totfact>
</mgrwt>
<clustering>
<clus scale="   32.846">  1  6  2 -1</clus>
<clus scale="  470.374">  4  5 -1 -1</clus>
<clus scale="  300.000">  1  4  2 -1</clus>
</clustering>
</event>
<event>
 6    1  0.1000035E-011  0.3000000E+03  0.7818608E-02  0.1093470E+00
          1   -1    0    0  502    0  0.00000000000E+00  0.00000000000E+00  0.22936553796E+03  0.22936553796E+03  0.00000000000E+00 0.  1.
         13   -1    0    0    0    0 -0.00000000000E+00 -0.00000000000E+00 -0.27500000000E+03  0.27500000000E+03  0.00000000000E+00 0.  1.
    9000005    2    1    2  501    0 -0.24356636047E+01 -0.30228103133E+02 -0.52921422864E+02  0.47317626939E+03  0.46922855224E+03 0.  0.
         13    1    3    3    0    0 -0.23551668542E+03 -0.17325283408E+02 -0.38724845319E+02  0.23930710019E+03  0.00000000000E+00 0.  1.
          1    1    3    3  501    0  0.23308102181E+03 -0.12902819725E+02 -0.14196577545E+02  0.23386916920E+03  0.00000000000E+00 0.  1.
         21    1    1    2  502  501  0.24356636047E+01  0.30228103133E+02  0.72869608258E+01  0.31189268576E+02  0.00000000000E+00 0. -1.
<scales pt_clust_4="550.00000" pt_clust_5="550.00000" pt_clust_6="30.32607"></scales>
<mgrwt>
<rscale>  0 0.30000000E+03</rscale>
<asrwt>  1 0.30326073E+02</asrwt>
<pdfrwt beam="1">  1        1 0.83405650E+00 0.30000000E+03</pdfrwt>
<pdfrwt beam="2">0</pdfrwt>
<totfact> 0.56482906E-04</totfact>
</mgrwt>
<clustering>
<clus scale="   30.326">  1  6  2 -1</clus>
<clus scale="  469.229">  4  5 -1 -1</clus>
<clus scale="  300.000">  1  4  2 -1</clus>
</clustering>
</event>
<event>
 6    1  0.1000035E-011  0.3000000E+03  0.7818608E-02  0.1093470E+00
          1   -1    0    0  502    0  0.00000000000E+00  0.00000000000E+00  0.23845354824E+03  0.23845354824E+03  0.00000000000E+00 0.  1.
         13   -1    0    0    0    0 -0.00000000000E+00 -0.00000000000E+00 -0.27500000000E+03  0.27500000000E+03  0.00000000000E+00 0.  1.
    9000005    2    1    2  501    0 -0.99116297731E+01  0.32139048685E+02 -0.71569009484E+02  0.46489699972E+03  0.45812218716E+03 0.  0.
         13    1    3    3    0    0 -0.11222209554E+03 -0.11232214581E+03 -0.19323295860E+03  0.25009805969E+03  0.00000000000E+00 0.  1.
          1    1    3    3  501    0  0.10231046577E+03  0.14446119450E+03  0.12166394912E+03  0.21479894003E+03  0.00000000000E+00 0.  1.
         21    1    1    2  502  501  0.99116297731E+01 -0.32139048685E+02  0.35022557724E+02  0.48556548525E+02  0.00000000000E+00 0.  1.
<scales pt_clust_4="550.00000" pt_clust_5="550.00000" pt_clust_6="33.63271"></scales>
<mgrwt>
<rscale>  0 0.30000000E+03</rscale>
<asrwt>  1 0.33632705E+02</asrwt>
<pdfrwt beam="1">  1        1 0.86710381E+00 0.30000000E+03</pdfrwt>
<pdfrwt beam="2">0</pdfrwt>
<totfact> 0.27337165E-04</totfact>
</mgrwt>
<clustering>
<clus scale="   33.633">  1  6  2 -1</clus>
<clus scale="  458.122">  4  5 -1 -1</clus>
<clus scale="  300.000">  1  4  2 -1</clus>
</clustering>
</event>
<event>
 6    1  0.1000035E-011  0.3000000E+03  0.7818608E-02  0.1093470E+00
          1   -1    0    0  502    0  0.00000000000E+00  0.00000000000E+00  0.22877966231E+03  0.22877966231E+03  0.00000000000E+00 0.  1.
         13   -1    0    0    0    0 -0.00000000000E+00 -0.00000000000E+00 -0.27500000000E+03  0.27500000000E+03  0.00000000000E+00 0.  1.
    9000005    2    1    2  501    0 -0.26642399424E+02 -0.22073564058E+02 -0.63534442839E+02  0.46509067273E+03  0.45942969947E+03 0.  0.
         13    1    3    3    0    0 -0.17918928878E+03 -0.10273503519E+03  0.98091236523E+02  0.22865952714E+03  0.00000000000E+00 0.  1.
          1    1    3    3  501    0  0.15254688936E+03  0.80661471131E+02 -0.16162567936E+03  0.23643114559E+03  0.00000000000E+00 0.  1.
         21    1    1    2  502  501  0.26642399424E+02  0.22073564058E+02  0.17314105147E+02  0.38688989575E+02  0.00000000000E+00 0. -1.
<scales pt_clust_4="550.00000" pt_clust_5="550.00000" pt_clust_6="34.59855"></scales>
<mgrwt>
<rscale>  0 0.30000000E+03</rscale>
<asrwt>  1 0.34598550E+02</asrwt>
<pdfrwt beam="1">  1        1 0.83192604E+00 0.30000000E+03</pdfrwt>
<pdfrwt beam="2">0</pdfrwt>
<totfact> 0.57167075E-04</totfact>
</mgrwt>
<clustering>
<clus scale="   34.599">  1  6  2 -1</clus>
<clus scale="  459.430">  4  5 -1 -1</clus>
<clus scale="  300.000">  1  4  2 -1</clus>
</clustering>
</event>
<event>
 6    1  0.1000035E-011  0.3000000E+03  0.7818608E-02  0.1093470E+00
          1   -1    0    0  502    0  0.00000000000E+00  0.00000000000E+00  0.22177186186E+03  0.22177186186E+03  0.00000000000E+00 0.  1.
         13   -1    0    0    0    0 -0.00000000000E+00 -0.00000000000E+00 -0.27500000000E+03  0.27500000000E+03  0.00000000000E+00 0.  1.
    9000005    2    1    2  501    0  0.25127858384E+02 -0.16473631761E+02 -0.65053021969E+02  0.46448227084E+03  0.45892166483E+03 0.  0.
         13    1    3    3    0    0 -0.15818595223E+03 -0.11076555014E+03 -0.14695242297E+03  0.24266606107E+03  0.00000000000E+00 0.  1.
          1    1    3    3  501    0  0.18331381061E+03  0.94291918379E+02  0.81899401005E+02  0.22181620977E+03  0.00000000000E+00 0.  1.
         21    1    1    2  502  501 -0.25127858384E+02  0.16473631761E+02  0.11824883830E+02  0.32289591016E+02  0.00000000000E+00 0.  1.
<scales pt_clust_4="550.00000" pt_clust_5="550.00000" pt_clust_6="30.04646"></scales>
<mgrwt>
<rscale>  0 0.30000000E+03</rscale>
<asrwt>  1 0.30046461E+02</asrwt>
<pdfrwt beam="1">  1        1 0.80644313E+00 0.30000000E+03</pdfrwt>
<pdfrwt beam="2">0</pdfrwt>
<totfact> 0.95639382E-04</totfact>
</mgrwt>
<clustering>
<clus scale="   30.046">  1  6  2 -1</clus>
<clus scale="  458.922">  4  5 -1 -1</clus>
<clus scale="  300.000">  1  4  2 -1</clus>
</clustering>
</event>
<event>
 6    1  0.1000035E-011  0.3000000E+03  0.7818608E-02  0.1093470E+00
          1   -1    0    0  502    0  0.00000000000E+00  0.00000000000E+00  0.23384836653E+03  0.23384836653E+03  0.00000000000E+00 0.  1.
         13   -1    0    0    0    0 -0.00000000000E+00 -0.00000000000E+00 -0.27500000000E+03  0.27500000000E+03  0.00000000000E+00 0.  1.
    9000005    2    1    2  501    0  0.58664669035E+01  0.30604949699E+02 -0.54354123828E+02  0.47500484231E+03  0.47085470271E+03 0.  0.
         13    1    3    3    0    0  0.18841372045E+03 -0.82066916921E+02 -0.13493565466E+03  0.24585023857E+03  0.00000000000E+00 0.  1.
          3    1    3    3  501    0 -0.18254725354E+03  0.11267186662E+03  0.80581530835E+02  0.22915460374E+03  0.00000000000E+00 0.  1.
         21    1    1    2  502  501 -0.58664669035E+01 -0.30604949699E+02  0.13202490358E+02  0.33843524220E+02  0.00000000000E+00 0.  1.
<scales pt_clust_4="550.00000" pt_clust_5="550.00000" pt_clust_6="31.16213"></scales>
<mgrwt>
<rscale>  0 0.30000000E+03</rscale>
<asrwt>  1 0.31162131E+02</asrwt>
<pdfrwt beam="1">  1        1 0.85035770E+00 0.30000000E+03</pdfrwt>
<pdfrwt beam="2">0</pdfrwt>
<totfact> 0.41281380E-04</totfact>
</mgrwt>
<clustering>
<clus scale="   31.162">  1  6  2 -1</clus>
<clus scale="  470.855">  4  5 -1 -1</clus>
<clus scale="  300.000">  1  4  2 -1</clus>
</clustering>
</event>
<event>
 6    1  0.1000035E-011  0.3000000E+03  0.7818608E-02  0.1093470E+00
          1   -1    0    0  502    0  0.00000000000E+00  0.00000000000E+00  0.24537853892E+03  0.24537853892E+03  0.00000000000E+00 0.  1.
         13   -1    0    0    0    0 -0.00000000000E+00 -0.00000000000E+00 -0.27500000000E+03  0.27500000000E+03  0.00000000000E+00 0.  1.
    9000005    2    1    2  501    0 -0.87675995432E+01  0.35139083875E+02 -0.30887322008E+02  0.48414004528E+03  0.48179449018E+03 0.  0.
         13    1    3    3    0    0 -0.23156629587E+03 -0.29562662522E+02  0.49441066703E+02  0.23862380324E+03  0.00000000000E+00 0.  1.
          1    1    3    3  501    0  0.22279869632E+03  0.64701746397E+02 -0.80328388712E+02  0.24551624204E+03  0.00000000000E+00 0.  1.
         21    1    1    2  502  501  0.87675995432E+01 -0.35139083875E+02  0.12658609270E+01  0.36238493639E+02  0.00000000000E+00 0. -1.
<scales pt_clust_4="550.00000" pt_clust_5="550.00000" pt_clust_6="36.21638"></scales>
<mgrwt>
<rscale>  0 0.30000000E+03</rscale>
<asrwt>  1 0.36216378E+02</asrwt>
<pdfrwt beam="1">  1        1 0.89228560E+00 0.30000000E+03</pdfrwt>
<pdfrwt beam="2">0</pdfrwt>
<totfact> 0.13470207E-04</totfact>
</mgrwt>
<clustering>
<clus scale="   36.216">  1  6  2 -1</clus>
<clus scale="  481.794">  4  5 -1 -1</clus>
<clus scale="  300.000">  1  4  2 -1</clus>
</clustering>
</event>
<event>
 6    1  0.1000035E-011  0.3000000E+03  0.7818608E-02  0.1093470E+00
          1   -1    0    0  502    0  0.00000000000E+00  0.00000000000E+00  0.23677700081E+03  0.23677700081E+03  0.00000000000E+00 0.  1.
         13   -1    0    0    0    0 -0.00000000000E+00 -0.00000000000E+00 -0.27500000000E+03  0.27500000000E+03  0.00000000000E+00 0.  1.
    9000005    2    1    2  501    0 -0.36696490748E+02 -0.18428926454E+01 -0.65789516995E+02  0.46584290029E+03  0.45970786215E+03 0.  0.
         13    1    3    3    0    0  0.19280652383E+03 -0.21883541989E+01  0.62778214170E+02  0.20278128291E+03  0.00000000000E+00 0.  1.
          1    1    3    3  501    0 -0.22950301457E+03  0.34546155351E+00 -0.12856773116E+03  0.26306161738E+03  0.00000000000E+00 0.  1.
         21    1    1    2  502  501  0.36696490748E+02  0.18428926454E+01  0.27566517803E+02  0.45934100517E+02  0.00000000000E+00 0.  1.
<scales pt_clust_4="550.00000" pt_clust_5="550.00000" pt_clust_6="36.74274"></scales>
<mgrwt>
<rscale>  0 0.30000000E+03</rscale>
<asrwt>  1 0.36742737E+02</asrwt>
<pdfrwt beam="1">  1        1 0.86100728E+00 0.30000000E+03</pdfrwt>
<pdfrwt beam="2">0</pdfrwt>
<totfact> 0.31268404E-04</totfact>
</mgrwt>
<clustering>
<clus scale="   36.743">  1  6  2 -1</clus>
<clus scale="  459.708">  4  5 -1 -1</clus>
<clus scale="  300.000">  1  4  2 -1</clus>
</clustering>
</event>
<event>
 6    1  0.1000035E-011  0.3000000E+03  0.7818608E-02  0.1093470E+00
          1   -1    0    0  502    0  0.00000000000E+00  0.00000000000E+00  0.24263145634E+03  0.24263145634E+03  0.00000000000E+00 0.  1.
         13   -1    0    0    0    0 -0.00000000000E+00 -0.00000000000E+00 -0.27500000000E+03  0.27500000000E+03  0.00000000000E+00 0.  1.
    9000005    2    1    2  501    0 -0.31288159224E+01 -0.38267592875E+02 -0.21456355965E+02  0.47771561997E+03  0.47568649360E+03 0.  0.
         13    1    3    3    0    0 -0.79265776997E+02  0.18150978407E+03 -0.11268267705E+03  0.22787332187E+03  0.00000000000E+00 0.  1.
          1    1    3    3  501    0  0.76136961074E+02 -0.21977737694E+03  0.91226321087E+02  0.24984229809E+03  0.00000000000E+00 0.  1.
         21    1    1    2  502  501  0.31288159224E+01  0.38267592875E+02 -0.10912187692E+02  0.39915836378E+02  0.00000000000E+00 0. -1.
<scales pt_clust_4="550.00000" pt_clust_5="550.00000" pt_clust_6="38.39531"></scales>
<mgrwt>
<rscale>  0 0.30000000E+03</rscale>
<asrwt>  1 0.38395307E+02</asrwt>
<pdfrwt beam="1">  1        1 0.88229620E+00 0.30000000E+03</pdfrwt>
<pdfrwt beam="2">0</pdfrwt>
<totfact> 0.18138052E-04</totfact>
</mgrwt>
<clustering>
<clus scale="   38.395">  1  6  2 -1</clus>
<clus scale="  475.686">  4  5 -1 -1</clus>
<clus scale="  300.000">  1  4  2 -1</clus>
</clustering>
</event>
<event>
 6    1  0.1000035E-011  0.3000000E+03  0.7818608E-02  0.1093470E+00
          1   -1    0    0  502    0  0.00000000000E+00  0.00000000000E+00  0.23575314750E+03  0.23575314750E+03  0.00000000000E+00 0.  1.
         13   -1    0    0    0    0 -0.00000000000E+00 -0.00000000000E+00 -0.27500000000E+03  0.27500000000E+03  0.00000000000E+00 0.  1.
    9000005    2    1    2  501    0  0.35146252782E+02 -0.56349447412E+01 -0.58678710161E+02  0.47019937111E+03  0.46516367644E+03 0.  0.
         13    1    3    3    0    0 -0.52406776724E+02 -0.76179481990E+02  0.18222852898E+03  0.20434534616E+03  0.00000000000E+00 0.  1.
          1    1    3    3  501    0  0.87553029506E+02  0.70544537249E+02 -0.24090723914E+03  0.26585402495E+03  0.00000000000E+00 0.  1.
         21    1    1    2  502  501 -0.35146252782E+02  0.56349447412E+01  0.19431857659E+02  0.40553776383E+02  0.00000000000E+00 0. -1.
<scales pt_clust_4="550.00000" pt_clust_5="550.00000" pt_clust_6="35.59511"></scales>
<mgrwt>
<rscale>  0 0.30000000E+03</rscale>
<asrwt>  1 0.35595108E+02</asrwt>
<pdfrwt beam="1">  1        1 0.85728417E+00 0.30000000E+03</pdfrwt>
<pdfrwt beam="2">0</pdfrwt>
<totfact> 0.34435213E-04</totfact>
</mgrwt>
<clustering>
<clus scale="   35.595">  1  6  2 -1</clus>
<clus scale="  465.164">  4  5 -1 -1</clus>
<clus scale="  300.000">  1  4  2 -1</clus>
</clustering>
</event>
<event>
 6    1  0.1000035E-011  0.3000000E+03  0.7818608E-02  0.1093470E+00
          1   -1    0    0  502    0  0.00000000000E+00  0.00000000000E+00  0.24682708937E+03  0.24682708937E+03  0.00000000000E+00 0.  1.
         13   -1    0    0    0    0 -0.00000000000E+00 -0.00000000000E+00 -0.27500000000E+03  0.27500000000E+03  0.00000000000E+00 0.  1.
    9000005    2    1    2  501    0  0.25204780697E+02  0.27270918884E+02 -0.54637465230E+02  0.47622712625E+03  0.47162277212E+03 0.  0.
         13    1    3    3    0    0 -0.22362543390E+02  0.16450319412E+03  0.15103586387E+03  0.22443978346E+03  0.00000000000E+00 0.  1.
          1    1    3    3  501    0  0.47567324087E+02 -0.13723227523E+03 -0.20567332910E+03  0.25178734279E+03  0.00000000000E+00 0.  1.
         21    1    1    2  502  501 -0.25204780697E+02 -0.27270918884E+02  0.26464554604E+02  0.45599963127E+02  0.00000000000E+00 0.  1.
<scales pt_clust_4="550.00000" pt_clust_5="550.00000" pt_clust_6="37.13467"></scales>
<mgrwt>
<rscale>  0 0.30000000E+03</rscale>
<asrwt>  1 0.37134674E+02</asrwt>
<pdfrwt beam="1">  1        1 0.89755305E+00 0.30000000E+03</pdfrwt>
<pdfrwt beam="2">0</pdfrwt>
<totfact> 0.11677127E-04</totfact>
</mgrwt>
<clustering>
<clus scale="   37.135">  1  6  2 -1</clus>
<clus scale="  471.623">  4  5 -1 -1</clus>
<clus scale="  300.000">  1  4  2 -1</clus>
</clustering>
</event>
<event>
 6    1  0.1000035E-011  0.3000000E+03  0.7818608E-02  0.1093470E+00
          1   -1    0    0  502    0  0.00000000000E+00  0.00000000000E+00  0.23221859447E+03  0.23221859447E+03  0.00000000000E+00 0.  1.
         13   -1    0    0    0    0 -0.00000000000E+00 -0.00000000000E+00 -0.27500000000E+03  0.27500000000E+03  0.00000000000E+00 0.  1.
    9000005    2    1    2  501    0  0.35850419945E+02  0.21385883354E+02 -0.50494807802E+02  0.46476738493E+03  0.46012649115E+03 0.  0.
         13    1    3    3    0    0  0.64117023740E+02  0.47932842020E+02  0.19784028158E+03  0.21342288325E+03  0.00000000000E+00 0.  1.
          1    1    3    3  501    0 -0.28266603795E+02 -0.26546958666E+02 -0.24833508938E+03  0.25134450168E+03  0.00000000000E+00 0.  1.
         21    1    1    2  502  501 -0.35850419945E+02 -0.21385883354E+02  0.77134022714E+01  0.42451209543E+02  0.00000000000E+00 0. -1.
<scales pt_clust_4="550.00000" pt_clust_5="550.00000" pt_clust_6="41.74456"></scales>
<mgrwt>
<rscale>  0 0.30000000E+03</rscale>
<asrwt>  1 0.41744564E+02</asrwt>
<pdfrwt beam="1">  1        1 0.84443125E+00 0.30000000E+03</pdfrwt>
<pdfrwt beam="2">0</pdfrwt>
<totfact> 0.44241674E-04</totfact>
</mgrwt>
<clustering>
<clus scale="   41.745">  1  6  2 -1</clus>
<clus scale="  460.126">  4  5 -1 -1</clus>
<clus scale="  300.000">  1  4  2 -1</clus>
</clustering>
</event>
<event>
 6    1  0.1000035E-011  0.3000000E+03  0.7818608E-02  0.1093470E+00
          1   -1    0    0  502    0  0.00000000000E+00  0.00000000000E+00  0.22037120832E+03  0.22037120832E+03  0.00000000000E+00 0.  1.
         13   -1    0    0    0    0 -0.00000000000E+00 -0.00000000000E+00 -0.27500000000E+03  0.27500000000E+03  0.00000000000E+00 0.  1.
    9000005    2    1    2  501    0 -0.30269237474E+02 -0.50668344231E+01 -0.64038745699E+02  0.46327063538E+03  0.45779561062E+03 0.  0.
         13    1    3    3    0    0  0.55866852010E+02  0.13585991161E+03  0.13852084586E+03  0.20190850769E+03  0.00000000000E+00 0.  1.
          1    1    3    3  501    0 -0.86136089483E+02 -0.14092674604E+03 -0.20255959156E+03  0.26136212770E+03  0.00000000000E+00 0.  1.
         21    1    1    2  502  501  0.30269237474E+02  0.50668344231E+01  0.94099540181E+01  0.32100572938E+02  0.00000000000E+00 0.  1.
<scales pt_clust_4="550.00000" pt_clust_5="550.00000" pt_clust_6="30.69038"></scales>
<mgrwt>
<rscale>  0 0.30000000E+03</rscale>
<asrwt>  1 0.30690382E+02</asrwt>
<pdfrwt beam="1">  1        1 0.80134985E+00 0.30000000E+03</pdfrwt>
<pdfrwt beam="2">0</pdfrwt>
<totfact> 0.10394903E-03</totfact>
</mgrwt>
<clustering>
<clus scale="   30.690">  1  6  2 -1</clus>
<clus scale="  457.796">  4  5 -1 -1</clus>
<clus scale="  300.000">  1  4  2 -1</clus>
</clustering>
</event>
<event>
 6    1  0.1000035E-011  0.3000000E+03  0.7818608E-02  0.1093470E+00
          1   -1    0    0  502    0  0.00000000000E+00  0.00000000000E+00  0.24362577510E+03  0.24362577510E+03  0.00000000000E+00 0.  1.
         13   -1    0    0    0    0 -0.00000000000E+00 -0.00000000000E+00 -0.27500000000E+03  0.27500000000E+03  0.00000000000E+00 0.  1.
    9000005    2    1    2  501    0  0.29009096549E+00 -0.41826179362E+02 -0.59050879217E+02  0.46847090867E+03  0.46284821756E+03 0.  0.
         13    1    3    3    0    0  0.16202936577E+03 -0.18560435986E+03 -0.52807200881E+02  0.25197439202E+03  0.00000000000E+00 0.  1.
          3    1    3    3  501    0 -0.16173927480E+03  0.14377818050E+03 -0.62436783363E+01  0.21649651665E+03  0.00000000000E+00 0.  1.
         21    1    1    2  502  501 -0.29009096549E+00  0.41826179362E+02  0.27676654319E+02  0.50154866435E+02  0.00000000000E+00 0.  1.
<scales pt_clust_4="550.00000" pt_clust_5="550.00000" pt_clust_6="41.82719"></scales>
<mgrwt>
<rscale>  0 0.30000000E+03</rscale>
<asrwt>  1 0.41827185E+02</asrwt>
<pdfrwt beam="1">  1        1 0.88591191E+00 0.30000000E+03</pdfrwt>
<pdfrwt beam="2">0</pdfrwt>
<totfact> 0.15956042E-04</totfact>
</mgrwt>
<clustering>
<clus scale="   41.827">  1  6  2 -1</clus>
<clus scale="  462.848">  4  5 -1 -1</clus>
<clus scale="  300.000">  1  4  2 -1</clus>
</clustering>
</event>
<event>
 6    1  0.1000035E-011  0.3000000E+03  0.7818608E-02  0.1093470E+00
          1   -1    0    0  502    0  0.00000000000E+00  0.00000000000E+00  0.22804961301E+03  0.22804961301E+03  0.00000000000E+00 0.  1.
         13   -1    0    0    0    0 -0.00000000000E+00 -0.00000000000E+00 -0.27500000000E+03  0.27500000000E+03  0.00000000000E+00 0.  1.
    9000005    2    1    2  501    0  0.34085809332E+02  0.16760531199E+02 -0.45021637071E+02  0.46501702330E+03  0.46127120694E+03 0.  0.
         13    1    3    3    0    0 -0.10390140753E+03  0.26115000032E+02  0.17496958964E+03  0.20516299133E+03  0.00000000000E+00 0.  1.
          1    1    3    3  501    0  0.13798721686E+03 -0.93544688337E+01 -0.21999122671E+03  0.25985403197E+03  0.00000000000E+00 0.  1.
         21    1    1    2  502  501 -0.34085809332E+02 -0.16760531199E+02 -0.19287499142E+01  0.38032589711E+02  0.00000000000E+00 0.  1.
<scales pt_clust_4="550.00000" pt_clust_5="550.00000" pt_clust_6="37.98365"></scales>
<mgrwt>
<rscale>  0 0.30000000E+03</rscale>
<asrwt>  1 0.37983652E+02</asrwt>
<pdfrwt beam="1">  1        1 0.82927132E+00 0.30000000E+03</pdfrwt>
<pdfrwt beam="2">0</pdfrwt>
<totfact> 0.59031364E-04</totfact>
</mgrwt>
<clustering>
<clus scale="   37.984">  1  6  2 -1</clus>
<clus scale="  461.271">  4  5 -1 -1</clus>
<clus scale="  300.000">  1  4  2 -1</clus>
</clustering>
</event>
<event>
 6    1  0.1000035E-011  0.3000000E+03  0.7818608E-02  0.1093470E+00
          1   -1    0    0  502    0  0.00000000000E+00  0.00000000000E+00  0.22389177859E+03  0.22389177859E+03  0.00000000000E+00 0.  1.
         13   -1    0    0    0    0 -0.00000000000E+00 -0.00000000000E+00 -0.27500000000E+03  0.27500000000E+03  0.00000000000E+00 0.  1.
    9000005    2    1    2  501    0 -0.34379689071E+02 -0.74735347215E+01 -0.56134781477E+02  0.46335189890E+03  0.45859137779E+03 0.  0.
         13    1    3    3    0    0 -0.11070158393E+02  0.21470174272E+03 -0.97662784395E+02  0.23613006202E+03  0.00000000000E+00 0.  1.
          3    1    3    3  501    0 -0.23309530678E+02 -0.22217527745E+03  0.41528002918E+02  0.22722183688E+03  0.00000000000E+00 0.  1.
         21    1    1    2  502  501  0.34379689071E+02  0.74735347215E+01  0.50265600651E+01  0.35539879684E+02  0.00000000000E+00 0.  1.
<scales pt_clust_4="550.00000" pt_clust_5="550.00000" pt_clust_6="35.18262"></scales>
<mgrwt>
<rscale>  0 0.30000000E+03</rscale>
<asrwt>  1 0.35182620E+02</asrwt>
<pdfrwt beam="1">  1        1 0.81415192E+00 0.30000000E+03</pdfrwt>
<pdfrwt beam="2">0</pdfrwt>
<totfact> 0.80787560E-04</totfact>
</mgrwt>
<clustering>
<clus scale="   35.183">  1  6  2 -1</clus>
<clus scale="  458.591">  4  5 -1 -1</clus>
<clus scale="  300.000">  1  4  2 -1</clus>
</clustering>
</event>
<event>
 6    1  0.1000035E-011  0.3000000E+03  0.7818608E-02  0.1093470E+00
          1   -1    0    0  502    0  0.00000000000E+00  0.00000000000E+00  0.22511414512E+03  0.22511414512E+03  0.00000000000E+00 0.  1.
         13   -1    0    0    0    0 -0.00000000000E+00 -0.00000000000E+00 -0.27500000000E+03  0.27500000000E+03  0.00000000000E+00 0.  1.
    9000005    2    1    2  501    0 -0.18921195134E+02 -0.24722988011E+02 -0.69983252042E+02  0.46305819912E+03  0.45667932123E+03 0.  0.
         13    1    3    3    0    0 -0.22374803663E+03 -0.18904949843E+02 -0.11645176150E+03  0.25294583171E+03  0.00000000000E+00 0.  1.
          3    1    3    3  501    0  0.20482684150E+03 -0.58180381679E+01  0.46468509459E+02  0.21011236741E+03  0.00000000000E+00 0.  1.
         21    1    1    2  502  501  0.18921195134E+02  0.24722988011E+02  0.20097397164E+02  0.37055946004E+02  0.00000000000E+00 0. -1.
<scales pt_clust_4="550.00000" pt_clust_5="550.00000" pt_clust_6="31.13258"></scales>
<mgrwt>
<rscale>  0 0.30000000E+03</rscale>
<asrwt>  1 0.31132584E+02</asrwt>
<pdfrwt beam="1">  1        1 0.81859689E+00 0.30000000E+03</pdfrwt>
<pdfrwt beam="2">0</pdfrwt>
<totfact> 0.76022372E-04</totfact>
</mgrwt>
<clustering>
<clus scale="   31.133">  1  6  2 -1</clus>
<clus scale="  456.679">  4  5 -1 -1</clus>
<clus scale="  300.000">  1  4  2 -1</clus>
</clustering>
</event>
<event>
 6    1  0.1000035E-011  0.3000000E+03  0.7818608E-02  0.1093470E+00
          1   -1    0    0  502    0  0.00000000000E+00  0.00000000000E+00  0.22822927172E+03  0.22822927172E+03  0.00000000000E+00 0.  1.
         13   -1    0    0    0    0 -0.00000000000E+00 -0.00000000000E+00 -0.27500000000E+03  0.27500000000E+03  0.00000000000E+00 0.  1.
    9000005    2    1    2  501    0  0.34328900475E+01 -0.35552364504E+02 -0.47990899220E+02  0.46749071869E+03  0.46364716142E+03 0.  0.
         13    1    3    3    0    0 -0.42407275786E+02 -0.21168568687E+03 -0.14614841999E+03  0.26070782062E+03  0.00000000000E+00 0.  1.
          1    1    3    3  501    0  0.45840165833E+02  0.17613332237E+03  0.98157520766E+02  0.20678289807E+03  0.00000000000E+00 0.  1.
         21    1    1    2  502  501 -0.34328900475E+01  0.35552364504E+02  0.12201709418E+01  0.35738553035E+02  0.00000000000E+00 0.  1.
<scales pt_clust_4="550.00000" pt_clust_5="550.00000" pt_clust_6="35.71772"></scales>
<mgrwt>
<rscale>  0 0.30000000E+03</rscale>
<asrwt>  1 0.35717718E+02</asrwt>
<pdfrwt beam="1">  1        1 0.82992462E+00 0.30000000E+03</pdfrwt>
<pdfrwt beam="2">0</pdfrwt>
<totfact> 0.58962037E-04</totfact>
</mgrwt>
<clustering>
<clus scale="   35.718">  1  6  2 -1</clus>
<clus scale="  463.647">  4  5 -1 -1</clus>
<clus scale="  300.000">  1  4  2 -1</clus>
</clustering>
</event>
<event>
 6    1  0.1000035E-011  0.3000000E+03  0.7818608E-02  0.1093470E+00
          1   -1    0    0  502    0  0.00000000000E+00  0.00000000000E+00  0.24506996194E+03  0.24506996194E+03  0.00000000000E+00 0.  1.
         13   -1    0    0    0    0 -0.00000000000E+00 -0.00000000000E+00 -0.27500000000E+03  0.27500000000E+03  0.00000000000E+00 0.  1.
    9000005    2    1    2  501    0 -0.16883371219E+02  0.50083736064E+02 -0.51933563922E+02  0.46281977423E+03  0.45684966840E+03 0.  0.
         13    1    3    3    0    0 -0.19152339886E+03  0.16107044954E+03 -0.53435845388E+02  0.25589117140E+03  0.00000000000E+00 0.  1.
          3    1    3    3  501    0  0.17464002764E+03 -0.11098671347E+03  0.15022814659E+01  0.20692860284E+03  0.00000000000E+00 0.  1.
         21    1    1    2  502  501  0.16883371219E+02 -0.50083736064E+02  0.22003525861E+02  0.57250187704E+02  0.00000000000E+00 0.  1.
<scales pt_clust_4="550.00000" pt_clust_5="550.00000" pt_clust_6="52.85290"></scales>
<mgrwt>
<rscale>  0 0.30000000E+03</rscale>
<asrwt>  1 0.52852898E+02</asrwt>
<pdfrwt beam="1">  1        1 0.89116350E+00 0.30000000E+03</pdfrwt>
<pdfrwt beam="2">0</pdfrwt>
<totfact> 0.12995861E-04</totfact>
</mgrwt>
<clustering>
<clus scale="   52.853">  1  6  2 -1</clus>
<clus scale="  456.850">  4  5 -1 -1</clus>
<clus scale="  300.000">  1  4  2 -1</clus>
</clustering>
</event>
<event>
 6    1  0.1000035E-011  0.3000000E+03  0.7818608E-02  0.1093470E+00
          1   -1    0    0  502    0  0.00000000000E+00  0.00000000000E+00  0.22194453402E+03  0.22194453402E+03  0.00000000000E+00 0.  1.
         13   -1    0    0    0    0 -0.00000000000E+00 -0.00000000000E+00 -0.27500000000E+03  0.27500000000E+03  0.00000000000E+00 0.  1.
    9000005    2    1    2  501    0  0.30723512564E+02  0.50603108917E+00 -0.55007781276E+02  0.46615489572E+03  0.46187697552E+03 0.  0.
         13    1    3    3    0    0  0.16268002840E+01 -0.34957548026E+02  0.20203880081E+03  0.20504719865E+03  0.00000000000E+00 0.  1.
          3    1    3    3  501    0  0.29096712280E+02  0.35463579115E+02 -0.25704658208E+03  0.26110769707E+03  0.00000000000E+00 0.  1.
         21    1    1    2  502  501 -0.30723512564E+02 -0.50603108917E+00  0.19523152999E+01  0.30789638302E+02  0.00000000000E+00 0.  1.
<scales pt_clust_4="550.00000" pt_clust_5="550.00000" pt_clust_6="30.72768"></scales>
<mgrwt>
<rscale>  0 0.30000000E+03</rscale>
<asrwt>  1 0.30727680E+02</asrwt>
<pdfrwt beam="1">  1        1 0.80707103E+00 0.30000000E+03</pdfrwt>
<pdfrwt beam="2">0</pdfrwt>
<totfact> 0.94178267E-04</totfact>
</mgrwt>
<clustering>
<clus scale="   30.728">  1  6  2 -1</clus>
<clus scale="  461.877">  4  5 -1 -1</clus>
<clus scale="  300.000">  1  4  2 -1</clus>
</clustering>
</event>
<event>
 6    1  0.1000035E-011  0.3000000E+03  0.7818608E-02  0.1093470E+00
          1   -1    0    0  502    0  0.00000000000E+00  0.00000000000E+00  0.23825554636E+03  0.23825554636E+03  0.00000000000E+00 0.  1.
         13   -1    0    0    0    0 -0.00000000000E+00 -0.00000000000E+00 -0.27500000000E+03  0.27500000000E+03  0.00000000000E+00 0.  1.
    9000005    2    1    2  501    0 -0.29095924548E+02 -0.77392177898E+01 -0.50165816017E+02  0.48029191056E+03  0.47671505319E+03 0.  0.
         13    1    3    3    0    0 -0.42325838301E+02 -0.81484540069E+02  0.19950533206E+03  0.21962145701E+03  0.00000000000E+00 0.  1.
          1    1    3    3  501    0  0.13229913753E+02  0.73745322279E+02 -0.24967114807E+03  0.26067045355E+03  0.00000000000E+00 0.  1.
         21    1    1    2  502  501  0.29095924548E+02  0.77392177898E+01  0.13421362381E+02  0.32963635804E+02  0.00000000000E+00 0. -1.
<scales pt_clust_4="550.00000" pt_clust_5="550.00000" pt_clust_6="30.10761"></scales>
<mgrwt>
<rscale>  0 0.30000000E+03</rscale>
<asrwt>  1 0.30107612E+02</asrwt>
<pdfrwt beam="1">  1        1 0.86638380E+00 0.30000000E+03</pdfrwt>
<pdfrwt beam="2">0</pdfrwt>
<totfact> 0.28412794E-04</totfact>
</mgrwt>
<clustering>
<clus scale="   30.108">  1  6  2 -1</clus>
<clus scale="  476.715">  4  5 -1 -1</clus>
<clus scale="  300.000">  1  4  2 -1</clus>
</clustering>
</event>
<event>
 6    1  0.1000035E-011  0.3000000E+03  0.7818608E-02  0.1093470E+00
          1   -1    0    0  502    0  0.00000000000E+00  0.00000000000E+00  0.23777097332E+03  0.23777097332E+03  0.00000000000E+00 0.  1.
         13   -1    0    0    0    0 -0.00000000000E+00 -0.00000000000E+00 -0.27500000000E+03  0.27500000000E+03  0.00000000000E+00 0.  1.
    9000005    2    1    2  501    0 -0.31571200717E+02 -0.24470631607E+02 -0.53595786189E+02  0.46960358583E+03  0.46482197345E+03 0.  0.
         13    1    3    3    0    0 -0.21836815086E+03 -0.10719176277E+03 -0.95010160453E+02  0.26115446369E+03  0.00000000000E+00 0.  1.
          1    1    3    3  501    0  0.18679695015E+03  0.82721131161E+02  0.41414374263E+02  0.20844912214E+03  0.00000000000E+00 0.  1.
         21    1    1    2  502  501  0.31571200717E+02  0.24470631607E+02  0.16366759512E+02  0.43167387492E+02  0.00000000000E+00 0.  1.
<scales pt_clust_4="550.00000" pt_clust_5="550.00000" pt_clust_6="39.94437"></scales>
<mgrwt>
<rscale>  0 0.30000000E+03</rscale>
<asrwt>  1 0.39944368E+02</asrwt>
<pdfrwt beam="1">  1        1 0.86462172E+00 0.30000000E+03</pdfrwt>
<pdfrwt beam="2">0</pdfrwt>
<totfact> 0.28143845E-04</totfact>
</mgrwt>
<clustering>
<clus scale="   39.944">  1  6  2 -1</clus>
<clus scale="  464.822">  4  5 -1 -1</clus>
<clus scale="  300.000">  1  4  2 -1</clus>
</clustering>
</event>
<event>
 6    1  0.1000035E-011  0.3000000E+03  0.7818608E-02  0.1093470E+00
          1   -1    0    0  502    0  0.00000000000E+00  0.00000000000E+00  0.26067646140E+03  0.26067646140E+03  0.00000000000E+00 0.  1.
         13   -1    0    0    0    0 -0.00000000000E+00 -0.00000000000E+00 -0.27500000000E+03  0.27500000000E+03  0.00000000000E+00 0.  1.
    9000005    2    1    2  501    0  0.43270404034E+02  0.36985511468E+02 -0.32936295715E+02  0.47578747534E+03  0.47122040087E+03 0.  0.
         13    1    3    3    0    0  0.34636173702E+02  0.25208653958E+03 -0.51850317092E+02  0.25968392971E+03  0.00000000000E+00 0.  1.
          3    1    3    3  501    0  0.86342303321E+01 -0.21510102812E+03  0.18914021377E+02  0.21610354563E+03  0.00000000000E+00 0.  1.
         21    1    1    2  502  501 -0.43270404034E+02 -0.36985511468E+02  0.18612757120E+02  0.59888986061E+02  0.00000000000E+00 0.  1.
<scales pt_clust_4="550.00000" pt_clust_5="550.00000" pt_clust_6="56.92325"></scales>
<mgrwt>
<rscale>  0 0.30000000E+03</rscale>
<asrwt>  1 0.56923246E+02</asrwt>
<pdfrwt beam="1">  1        1 0.94791441E+00 0.30000000E+03</pdfrwt>
<pdfrwt beam="2">0</pdfrwt>
<totfact> 0.12475775E-05</totfact>
</mgrwt>
<clustering>
<clus scale="   56.923">  1  6  2 -1</clus>
<clus scale="  471.220">  4  5 -1 -1</clus>
<clus scale="  300.000">  1  4  2 -1</clus>
</clustering>
</event>
<event>
 6    1  0.1000035E-011  0.3000000E+03  0.7818608E-02  0.1093470E+00
          1   -1    0    0  502    0  0.00000000000E+00  0.00000000000E+00  0.23910792296E+03  0.23910792296E+03  0.00000000000E+00 0.  1.
         13   -1    0    0    0    0 -0.00000000000E+00 -0.00000000000E+00 -0.27500000000E+03  0.27500000000E+03  0.00000000000E+00 0.  1.
    9000005    2    1    2  501    0 -0.58126834907E+01 -0.30243941633E+02 -0.49329639890E+02  0.48050656301E+03  0.47697448614E+03 0.  0.
         13    1    3    3    0    0 -0.33748036412E+02  0.19252203986E+03 -0.13784644247E+03  0.23917631047E+03  0.00000000000E+00 0.  1.
          3    1    3    3  501    0  0.27935352922E+02 -0.22276598149E+03  0.88516802575E+02  0.24133025254E+03  0.00000000000E+00 0.  1.
         21    1    1    2  502  501  0.58126834907E+01  0.30243941633E+02  0.13437562846E+02  0.33601359945E+02  0.00000000000E+00 0.  1.
<scales pt_clust_4="550.00000" pt_clust_5="550.00000" pt_clust_6="30.79746"></scales>
<mgrwt>
<rscale>  0 0.30000000E+03</rscale>
<asrwt>  1 0.30797456E+02</asrwt>
<pdfrwt beam="1">  1        1 0.86948336E+00 0.30000000E+03</pdfrwt>
<pdfrwt beam="2">0</pdfrwt>
<totfact> 0.26263800E-04</totfact>
</mgrwt>
<clustering>
<clus scale="   30.797">  1  6  2 -1</clus>
<clus scale="  476.974">  4  5 -1 -1</clus>
<clus scale="  300.000">  1  4  2 -1</clus>
</clustering>
</event>
<event>
 6    1  0.1000035E-011  0.3000000E+03  0.7818608E-02  0.1093470E+00
          1   -1    0    0  502    0  0.00000000000E+00  0.00000000000E+00  0.24461645999E+03  0.24461645999E+03  0.00000000000E+00 0.  1.
         13   -1    0    0    0    0 -0.00000000000E+00 -0.00000000000E+00 -0.27500000000E+03  0.27500000000E+03  0.00000000000E+00 0.  1.
    9000005    2    1    2  501    0  0.18610325282E+02 -0.42841521487E+02 -0.52179984172E+02  0.46807206021E+03  0.46280337362E+03 0.  0.
         13    1    3    3    0    0 -0.64620784387E+02 -0.10980564199E+03  0.17532801844E+03  0.21673264368E+03  0.00000000000E+00 0.  1.
          3    1    3    3  501    0  0.83231109669E+02  0.66964120503E+02 -0.22750800261E+03  0.25133941653E+03  0.00000000000E+00 0.  1.
         21    1    1    2  502  501 -0.18610325282E+02  0.42841521487E+02  0.21796444161E+02  0.51544399778E+02  0.00000000000E+00 0. -1.
<scales pt_clust_4="550.00000" pt_clust_5="550.00000" pt_clust_6="46.70910"></scales>
<mgrwt>
<rscale>  0 0.30000000E+03</rscale>
<asrwt>  1 0.46709102E+02</asrwt>
<pdfrwt beam="1">  1        1 0.88951440E+00 0.30000000E+03</pdfrwt>
<pdfrwt beam="2">0</pdfrwt>
<totfact> 0.13960455E-04</totfact>
</mgrwt>
<clustering>
<clus scale="   46.709">  1  6  2 -1</clus>
<clus scale="  462.803">  4  5 -1 -1</clus>
<clus scale="  300.000">  1  4  2 -1</clus>
</clustering>
</event>
<event>
 6    1  0.1000035E-011  0.3000000E+03  0.7818608E-02  0.1093470E+00
          1   -1    0    0  502    0  0.00000000000E+00  0.00000000000E+00  0.22569723039E+03  0.22569723039E+03  0.00000000000E+00 0.  1.
         13   -1    0    0    0    0 -0.00000000000E+00 -0.00000000000E+00 -0.27500000000E+03  0.27500000000E+03  0.00000000000E+00 0.  1.
    9000005    2    1    2  501    0  0.30780773063E+02  0.78595679749E+01 -0.40394051899E+02  0.46770338171E+03  0.46487153606E+03 0.  0.
         13    1    3    3    0    0 -0.69838210257E+02  0.17636375770E+03  0.11105203238E+03  0.21980469635E+03  0.00000000000E+00 0.  1.
          3    1    3    3  501    0  0.10061898332E+03 -0.16850418973E+03 -0.15144608428E+03  0.24789868536E+03  0.00000000000E+00 0.  1.
         21    1    1    2  502  501 -0.30780773063E+02 -0.78595679749E+01 -0.89087177138E+01  0.32993848676E+02  0.00000000000E+00 0.  1.
<scales pt_clust_4="550.00000" pt_clust_5="550.00000" pt_clust_6="31.76838"></scales>
<mgrwt>
<rscale>  0 0.30000000E+03</rscale>
<asrwt>  1 0.31768377E+02</asrwt>
<pdfrwt beam="1">  1        1 0.82071720E+00 0.30000000E+03</pdfrwt>
<pdfrwt beam="2">0</pdfrwt>
<totfact> 0.72612588E-04</totfact>
</mgrwt>
<clustering>
<clus scale="   31.768">  1  6  2 -1</clus>
<clus scale="  464.872">  4  5 -1 -1</clus>
<clus scale="  300.000">  1  4  2 -1</clus>
</clustering>
</event>
<event>
 6    1  0.1000035E-011  0.3000000E+03  0.7818608E-02  0.1093470E+00
          1   -1    0    0  502    0  0.00000000000E+00  0.00000000000E+00  0.26104065713E+03  0.26104065713E+03  0.00000000000E+00 0.  1.
         13   -1    0    0    0    0 -0.00000000000E+00 -0.00000000000E+00 -0.27500000000E+03  0.27500000000E+03  0.00000000000E+00 0.  1.
    9000005    2    1    2  501    0  0.16146606443E+02  0.29156206080E+02 -0.65866177583E+02  0.47435502880E+03  0.46857608000E+03 0.  0.
         13    1    3    3    0    0 -0.13103413343E+03  0.19359771775E+03 -0.93832978559E+02  0.25190206094E+03  0.00000000000E+00 0.  1.
          1    1    3    3  501    0  0.14718073987E+03 -0.16444151167E+03  0.27966800977E+02  0.22245296785E+03  0.00000000000E+00 0.  1.
         21    1    1    2  502  501 -0.16146606443E+02 -0.29156206080E+02  0.51906834709E+02  0.61685628327E+02  0.00000000000E+00 0.  1.
<scales pt_clust_4="550.00000" pt_clust_5="550.00000" pt_clust_6="33.32863"></scales>
<mgrwt>
<rscale>  0 0.30000000E+03</rscale>
<asrwt>  1 0.33328625E+02</asrwt>
<pdfrwt beam="1">  1        1 0.94923875E+00 0.30000000E+03</pdfrwt>
<pdfrwt beam="2">0</pdfrwt>
<totfact> 0.12907265E-05</totfact>
</mgrwt>
<clustering>
<clus scale="   33.329">  1  6  2 -1</clus>
<clus scale="  468.576">  4  5 -1 -1</clus>
<clus scale="  300.000">  1  4  2 -1</clus>
</clustering>
</event>
<event>
 6    1  0.1000035E-011  0.3000000E+03  0.7818608E-02  0.1093470E+00
          1   -1    0    0  502    0  0.00000000000E+00  0.00000000000E+00  0.23349673514E+03  0.23349673514E+03  0.00000000000E+00 0.  1.
         13   -1    0    0    0    0 -0.00000000000E+00 -0.00000000000E+00 -0.27500000000E+03  0.27500000000E+03  0.00000000000E+00 0.  1.
    9000005    2    1    2  501    0 -0.18246907697E+02 -0.36768916186E+02 -0.58131010935E+02  0.46420921119E+03  0.45872221931E+03 0.  0.
         13    1    3    3    0    0  0.35509638434E+02 -0.23825387097E+03  0.19550220476E+02  0.24167757980E+03  0.00000000000E+00 0.  1.
          3    1    3    3  501    0 -0.53756546131E+02  0.20148495479E+03 -0.77681231411E+02  0.22253163140E+03  0.00000000000E+00 0.  1.
         21    1    1    2  502  501  0.18246907697E+02  0.36768916186E+02  0.16627746076E+02  0.44287523949E+02  0.00000000000E+00 0.  1.
<scales pt_clust_4="550.00000" pt_clust_5="550.00000" pt_clust_6="41.04757"></scales>
<mgrwt>
<rscale>  0 0.30000000E+03</rscale>
<asrwt>  1 0.41047568E+02</asrwt>
<pdfrwt beam="1">  1        1 0.84907904E+00 0.30000000E+03</pdfrwt>
<pdfrwt beam="2">0</pdfrwt>
<totfact> 0.40310419E-04</totfact>
</mgrwt>
<clustering>
<clus scale="   41.048">  1  6  2 -1</clus>
<clus scale="  458.722">  4  5 -1 -1</clus>
<clus scale="  300.000">  1  4  2 -1</clus>
</clustering>
</event>
<event>
 6    1  0.1000035E-011  0.3000000E+03  0.7818608E-02  0.1093470E+00
          1   -1    0    0  502    0  0.00000000000E+00  0.00000000000E+00  0.23105425341E+03  0.23105425341E+03  0.00000000000E+00 0.  1.
         13   -1    0    0    0    0 -0.00000000000E+00 -0.00000000000E+00 -0.27500000000E+03  0.27500000000E+03  0.00000000000E+00 0.  1.
    9000005    2    1    2  501    0 -0.85498179204E+01 -0.37356408262E+02 -0.41449091505E+02  0.46765068702E+03  0.46423112483E+03 0.  0.
         13    1    3    3    0    0  0.20381756549E+03  0.83940670615E+02 -0.33480155931E+02  0.22295415902E+03  0.00000000000E+00 0.  1.
          3    1    3    3  501    0 -0.21236738341E+03 -0.12129707888E+03 -0.79689355744E+01  0.24469652800E+03  0.00000000000E+00 0.  1.
         21    1    1    2  502  501  0.85498179204E+01  0.37356408262E+02 -0.24966550845E+01  0.38403566388E+02  0.00000000000E+00 0. -1.
<scales pt_clust_4="550.00000" pt_clust_5="550.00000" pt_clust_6="38.32233"></scales>
<mgrwt>
<rscale>  0 0.30000000E+03</rscale>
<asrwt>  1 0.38322325E+02</asrwt>
<pdfrwt beam="1">  1        1 0.84019729E+00 0.30000000E+03</pdfrwt>
<pdfrwt beam="2">0</pdfrwt>
<totfact> 0.48704516E-04</totfact>
</mgrwt>
<clustering>
<clus scale="   38.322">  1  6  2 -1</clus>
<clus scale="  464.231">  4  5 -1 -1</clus>
<clus scale="  300.000">  1  4  2 -1</clus>
</clustering>
</event>
<event>
 6    1  0.1000035E-011  0.3000000E+03  0.7818608E-02  0.1093470E+00
          1   -1    0    0  502    0  0.00000000000E+00  0.00000000000E+00  0.23012544796E+03  0.23012544796E+03  0.00000000000E+00 0.  1.
         13   -1    0    0    0    0 -0.00000000000E+00 -0.00000000000E+00 -0.27500000000E+03  0.27500000000E+03  0.00000000000E+00 0.  1.
    9000005    2    1    2  501    0 -0.21522162043E+02 -0.25069862117E+02 -0.64460512804E+02  0.46671566659E+03  0.46106035861E+03 0.  0.
         13    1    3    3    0    0  0.11674819469E+03  0.54082398772E+02  0.15123236498E+03  0.19856050725E+03  0.00000000000E+00 0.  1.
          3    1    3    3  501    0 -0.13827035674E+03 -0.79152260889E+02 -0.21569287778E+03  0.26815515934E+03  0.00000000000E+00 0.  1.
         21    1    1    2  502  501  0.21522162043E+02  0.25069862117E+02  0.19585960760E+02  0.38409781365E+02  0.00000000000E+00 0. -1.
<scales pt_clust_4="550.00000" pt_clust_5="550.00000" pt_clust_6="33.04091"></scales>
<mgrwt>
<rscale>  0 0.30000000E+03</rscale>
<asrwt>  1 0.33040906E+02</asrwt>
<pdfrwt beam="1">  1        1 0.83681981E+00 0.30000000E+03</pdfrwt>
<pdfrwt beam="2">0</pdfrwt>
<totfact> 0.53048334E-04</totfact>
</mgrwt>
<clustering>
<clus scale="   33.041">  1  6  2 -1</clus>
<clus scale="  461.060">  4  5 -1 -1</clus>
<clus scale="  300.000">  1  4  2 -1</clus>
</clustering>
</event>
<event>
 6    1  0.1000035E-011  0.3000000E+03  0.7818608E-02  0.1093470E+00
          1   -1    0    0  502    0  0.00000000000E+00  0.00000000000E+00  0.23981207930E+03  0.23981207930E+03  0.00000000000E+00 0.  1.
         13   -1    0    0    0    0 -0.00000000000E+00 -0.00000000000E+00 -0.27500000000E+03  0.27500000000E+03  0.00000000000E+00 0.  1.
    9000005    2    1    2  501    0 -0.12225866082E+02  0.31299301835E+02 -0.58217386738E+02  0.47407543237E+03  0.46928576940E+03 0.  0.
         13    1    3    3    0    0  0.29755448110E+01 -0.50230501305E+02  0.19824781256E+03  0.20453398817E+03  0.00000000000E+00 0.  1.
          3    1    3    3  501    0 -0.15201410893E+02  0.81529803140E+02 -0.25646519930E+03  0.26954144421E+03  0.00000000000E+00 0.  1.
         21    1    1    2  502  501  0.12225866082E+02 -0.31299301835E+02  0.23029466037E+02  0.40736646926E+02  0.00000000000E+00 0. -1.
<scales pt_clust_4="550.00000" pt_clust_5="550.00000" pt_clust_6="33.60235"></scales>
<mgrwt>
<rscale>  0 0.30000000E+03</rscale>
<asrwt>  1 0.33602353E+02</asrwt>
<pdfrwt beam="1">  1        1 0.87204392E+00 0.30000000E+03</pdfrwt>
<pdfrwt beam="2">0</pdfrwt>
<totfact> 0.24322165E-04</totfact>
</mgrwt>
<clustering>
<clus scale="   33.602">  1  6  2 -1</clus>
<clus scale="  469.286">  4  5 -1 -1</clus>
<clus scale="  300.000">  1  4  2 -1</clus>
</clustering>
</event>
<event>
 6    1  0.1000035E-011  0.3000000E+03  0.7818608E-02  0.1093470E+00
          1   -1    0    0  502    0  0.00000000000E+00  0.00000000000E+00  0.22408811612E+03  0.22408811612E+03  0.00000000000E+00 0.  1.
         13   -1    0    0    0    0 -0.00000000000E+00 -0.00000000000E+00 -0.27500000000E+03  0.27500000000E+03  0.00000000000E+00 0.  1.
    9000005    2    1    2  501    0 -0.96687599070E+01  0.35180618378E+02 -0.42136038149E+02  0.46156244097E+03  0.45818476663E+03 0.  0.
         13    1    3    3    0    0 -0.22445595662E+03 -0.44685859270E+02 -0.40406688535E+02  0.23240052272E+03  0.00000000000E+00 0.  1.
          3    1    3    3  501    0  0.21478719672E+03  0.79866477649E+02 -0.17293496138E+01  0.22916191825E+03  0.00000000000E+00 0.  1.
         21    1    1    2  502  501  0.96687599070E+01 -0.35180618378E+02 -0.87758457276E+01  0.37525675155E+02  0.00000000000E+00 0.  1.
<scales pt_clust_4="550.00000" pt_clust_5="550.00000" pt_clust_6="36.48510"></scales>
<mgrwt>
<rscale>  0 0.30000000E+03</rscale>
<asrwt>  1 0.36485095E+02</asrwt>
<pdfrwt beam="1">  1        1 0.81486588E+00 0.30000000E+03</pdfrwt>
<pdfrwt beam="2">0</pdfrwt>
<totfact> 0.79187509E-04</totfact>
</mgrwt>
<clustering>
<clus scale="   36.485">  1  6  2 -1</clus>
<clus scale="  458.185">  4  5 -1 -1</clus>
<clus scale="  300.000">  1  4  2 -1</clus>
</clustering>
</event>
<event>
 6    1  0.1000035E-011  0.3000000E+03  0.7818608E-02  0.1093470E+00
          1   -1    0    0  502    0  0.00000000000E+00  0.00000000000E+00  0.22591619044E+03  0.22591619044E+03  0.00000000000E+00 0.  1.
         13   -1    0    0    0    0 -0.00000000000E+00 -0.00000000000E+00 -0.27500000000E+03  0.27500000000E+03  0.00000000000E+00 0.  1.
    9000005    2    1    2  501    0 -0.31496165798E+02  0.15752798232E+02 -0.59438685099E+02  0.46420948043E+03  0.45903956836E+03 0.  0.
         13    1    3    3    0    0 -0.15935297188E+03 -0.16213420069E+03 -0.87001551875E+02  0.24341351382E+03  0.00000000000E+00 0.  1.
          3    1    3    3  501    0  0.12785680608E+03  0.17788699892E+03  0.27562866776E+02  0.22079596661E+03  0.00000000000E+00 0.  1.
         21    1    1    2  502  501  0.31496165798E+02 -0.15752798232E+02  0.10354875537E+02  0.36706710006E+02  0.00000000000E+00 0. -1.
<scales pt_clust_4="550.00000" pt_clust_5="550.00000" pt_clust_6="35.21589"></scales>
<mgrwt>
<rscale>  0 0.30000000E+03</rscale>
<asrwt>  1 0.35215893E+02</asrwt>
<pdfrwt beam="1">  1        1 0.82151342E+00 0.30000000E+03</pdfrwt>
<pdfrwt beam="2">0</pdfrwt>
<totfact> 0.70077748E-04</totfact>
</mgrwt>
<clustering>
<clus scale="   35.216">  1  6  2 -1</clus>
<clus scale="  459.040">  4  5 -1 -1</clus>
<clus scale="  300.000">  1  4  2 -1</clus>
</clustering>
</event>
<event>
 6    1  0.1000035E-011  0.3000000E+03  0.7818608E-02  0.1093470E+00
          1   -1    0    0  502    0  0.00000000000E+00  0.00000000000E+00  0.23602129511E+03  0.23602129511E+03  0.00000000000E+00 0.  1.
         13   -1    0    0    0    0 -0.00000000000E+00 -0.00000000000E+00 -0.27500000000E+03  0.27500000000E+03  0.00000000000E+00 0.  1.
    9000005    2    1    2  501    0 -0.21847533249E+02 -0.20608772251E+02 -0.64524092946E+02  0.47159284024E+03  0.46619139008E+03 0.  0.
         13    1    3    3    0    0 -0.91075652815E+02 -0.22917509182E+03 -0.20399181551E+02  0.24745125551E+03  0.00000000000E+00 0.  1.
          1    1    3    3  501    0  0.69228119565E+02  0.20856631957E+03 -0.44124911395E+02  0.22414158472E+03  0.00000000000E+00 0.  1.
         21    1    1    2  502  501  0.21847533249E+02  0.20608772251E+02  0.25545388056E+02  0.39428454874E+02  0.00000000000E+00 0. -1.
<scales pt_clust_4="550.00000" pt_clust_5="550.00000" pt_clust_6="30.03392"></scales>
<mgrwt>
<rscale>  0 0.30000000E+03</rscale>
<asrwt>  1 0.30033918E+02</asrwt>
<pdfrwt beam="1">  1        1 0.85825925E+00 0.30000000E+03</pdfrwt>
<pdfrwt beam="2">0</pdfrwt>
<totfact> 0.34741036E-04</totfact>
</mgrwt>
<clustering>
<clus scale="   30.034">  1  6  2 -1</clus>
<clus scale="  466.191">  4  5 -1 -1</clus>
<clus scale="  300.000">  1  4  2 -1</clus>
</clustering>
</event>
<event>
 6    1  0.1000035E-011  0.3000000E+03  0.7818608E-02  0.1093470E+00
          1   -1    0    0  502    0  0.00000000000E+00  0.00000000000E+00  0.24011403849E+03  0.24011403849E+03  0.00000000000E+00 0.  1.
         13   -1    0    0    0    0 -0.00000000000E+00 -0.00000000000E+00 -0.27500000000E+03  0.27500000000E+03  0.00000000000E+00 0.  1.
    9000005    2    1    2  501    0  0.34480641738E+02  0.85001208813E+01 -0.55701411867E+02  0.47395034474E+03  0.46932410473E+03 0.  0.
         13    1    3    3    0    0 -0.13034059235E+03  0.10922892272E+03 -0.17732144627E+03  0.24568785660E+03  0.00000000000E+00 0.  1.
          1    1    3    3  501    0  0.16482123409E+03 -0.10072880184E+03  0.12162003440E+03  0.22826248814E+03  0.00000000000E+00 0.  1.
         21    1    1    2  502  501 -0.34480641738E+02 -0.85001208813E+01  0.20815450359E+02  0.41163693752E+02  0.00000000000E+00 0. -1.
<scales pt_clust_4="550.00000" pt_clust_5="550.00000" pt_clust_6="35.51291"></scales>
<mgrwt>
<rscale>  0 0.30000000E+03</rscale>
<asrwt>  1 0.35512909E+02</asrwt>
<pdfrwt beam="1">  1        1 0.87314196E+00 0.30000000E+03</pdfrwt>
<pdfrwt beam="2">0</pdfrwt>
<totfact> 0.23454931E-04</totfact>
</mgrwt>
<clustering>
<clus scale="   35.513">  1  6  2 -1</clus>
<clus scale="  469.324">  4  5 -1 -1</clus>
<clus scale="  300.000">  1  4  2 -1</clus>
</clustering>
</event>
<event>
 6    1  0.1000035E-011  0.3000000E+03  0.7818608E-02  0.1093470E+00
          1   -1    0    0  502    0  0.00000000000E+00  0.00000000000E+00  0.23498664187E+03  0.23498664187E+03  0.00000000000E+00 0.  1.
         13   -1    0    0    0    0 -0.00000000000E+00 -0.00000000000E+00 -0.27500000000E+03  0.27500000000E+03  0.00000000000E+00 0.  1.
    9000005    2    1    2  501    0  0.14165224840E+02  0.31668788504E+02 -0.46061301557E+02  0.47477097235E+03  0.47125605240E+03 0.  0.
         13    1    3    3    0    0 -0.11492014318E+03 -0.68073167582E+02 -0.20652117617E+03  0.24595038455E+03  0.00000000000E+00 0.  1.
          3    1    3    3  501    0  0.12908536802E+03  0.99741956087E+02  0.16045987461E+03  0.22882058780E+03  0.00000000000E+00 0.  1.
         21    1    1    2  502  501 -0.14165224840E+02 -0.31668788504E+02  0.60479434270E+01  0.35215669521E+02  0.00000000000E+00 0.  1.
<scales pt_clust_4="550.00000" pt_clust_5="550.00000" pt_clust_6="34.69245"></scales>
<mgrwt>
<rscale>  0 0.30000000E+03</rscale>
<asrwt>  1 0.34692445E+02</asrwt>
<pdfrwt beam="1">  1        1 0.85449688E+00 0.30000000E+03</pdfrwt>
<pdfrwt beam="2">0</pdfrwt>
<totfact> 0.36913373E-04</totfact>
</mgrwt>
<clustering>
<clus scale="   34.692">  1  6  2 -1</clus>
<clus scale="  471.256">  4  5 -1 -1</clus>
<clus scale="  300.000">  1  4  2 -1</clus>
</clustering>
</event>
<event>
 6    1  0.1000035E-011  0.3000000E+03  0.7818608E-02  0.1093470E+00
          1   -1    0    0  502    0  0.00000000000E+00  0.00000000000E+00  0.23561772142E+03  0.23561772142E+03  0.00000000000E+00 0.  1.
         13   -1    0    0    0    0 -0.00000000000E+00 -0.00000000000E+00 -0.27500000000E+03  0.27500000000E+03  0.00000000000E+00 0.  1.
    9000005    2    1    2  501    0  0.31695488013E+02 -0.52484164888E+01 -0.28669543412E+02  0.47675162435E+03  0.47480313685E+03 0.  0.
         13    1    3    3    0    0 -0.70421813586E+01 -0.85187597545E+02  0.20750647303E+03  0.22442249317E+03  0.00000000000E+00 0.  1.
          3    1    3    3  501    0  0.38737669372E+02  0.79939181056E+02 -0.23617601644E+03  0.25232913117E+03  0.00000000000E+00 0.  1.
         21    1    1    2  502  501 -0.31695488013E+02  0.52484164888E+01 -0.10712735170E+02  0.33866097072E+02  0.00000000000E+00 0.  1.
<scales pt_clust_4="550.00000" pt_clust_5="550.00000" pt_clust_6="32.12710"></scales>
<mgrwt>
<rscale>  0 0.30000000E+03</rscale>
<asrwt>  1 0.32127105E+02</asrwt>
<pdfrwt beam="1">  1        1 0.85679171E+00 0.30000000E+03</pdfrwt>
<pdfrwt beam="2">0</pdfrwt>
<totfact> 0.35517843E-04</totfact>
</mgrwt>
<clustering>
<clus scale="   32.127">  1  6  2 -1</clus>
<clus scale="  474.803">  4  5 -1 -1</clus>
<clus scale="  300.000">  1  4  2 -1</clus>
</clustering>
</event>
<event>
 6    1  0.1000035E-011  0.3000000E+03  0.7818608E-02  0.1093470E+00
          1   -1    0    0  502    0  0.00000000000E+00  0.00000000000E+00  0.23475177233E+03  0.23475177233E+03  0.00000000000E+00 0.  1.
         13   -1    0    0    0    0 -0.00000000000E+00 -0.00000000000E+00 -0.27500000000E+03  0.27500000000E+03  0.00000000000E+00 0.  1.
    9000005    2    1    2  501    0  0.25002359640E+01  0.33934454639E+02 -0.26334702255E+02  0.47299058926E+03  0.47102949227E+03 0.  0.
         13    1    3    3    0    0 -0.14272422420E+03  0.17965582873E+02 -0.19979990743E+03  0.24619701329E+03  0.00000000000E+00 0.  1.
          3    1    3    3  501    0  0.14522446017E+03  0.15968871766E+02  0.17346520517E+03  0.22679357597E+03  0.00000000000E+00 0.  1.
         21    1    1    2  502  501 -0.25002359640E+01 -0.33934454639E+02 -0.13913525414E+02  0.36761183073E+02  0.00000000000E+00 0.  1.
<scales pt_clust_4="550.00000" pt_clust_5="550.00000" pt_clust_6="34.02645"></scales>
<mgrwt>
<rscale>  0 0.30000000E+03</rscale>
<asrwt>  1 0.34026454E+02</asrwt>
<pdfrwt beam="1">  1        1 0.85364281E+00 0.30000000E+03</pdfrwt>
<pdfrwt beam="2">0</pdfrwt>
<totfact> 0.37764224E-04</totfact>
</mgrwt>
<clustering>
<clus scale="   34.026">  1  6  2 -1</clus>
<clus scale="  471.029">  4  5 -1 -1</clus>
<clus scale="  300.000">  1  4  2 -1</clus>
</clustering>
</event>
<event>
 6    1  0.1000035E-011  0.3000000E+03  0.7818608E-02  0.1093470E+00
          1   -1    0    0  502    0  0.00000000000E+00  0.00000000000E+00  0.26132691288E+03  0.26132691288E+03  0.00000000000E+00 0.  1.
         13   -1    0    0    0    0 -0.00000000000E+00 -0.00000000000E+00 -0.27500000000E+03  0.27500000000E+03  0.00000000000E+00 0.  1.
    9000005    2    1    2  501    0  0.34001540345E+02  0.25886098465E+02 -0.16648762329E+02  0.49348943534E+03  0.49135368795E+03 0.  0.
         13    1    3    3    0    0  0.27242462135E+02 -0.18218577039E+03  0.14130676454E+03  0.23216676847E+03  0.00000000000E+00 0.  1.
          1    1    3    3  501    0  0.67590782107E+01  0.20807186886E+03 -0.15795552687E+03  0.26132266687E+03  0.00000000000E+00 0.  1.
         21    1    1    2  502  501 -0.34001540345E+02 -0.25886098465E+02  0.29756752126E+01  0.42837477546E+02  0.00000000000E+00 0. -1.
<scales pt_clust_4="550.00000" pt_clust_5="550.00000" pt_clust_6="42.73400"></scales>
<mgrwt>
<rscale>  0 0.30000000E+03</rscale>
<asrwt>  1 0.42734001E+02</asrwt>
<pdfrwt beam="1">  1        1 0.95027968E+00 0.30000000E+03</pdfrwt>
<pdfrwt beam="2">0</pdfrwt>
<totfact> 0.11735365E-05</totfact>
</mgrwt>
<clustering>
<clus scale="   42.734">  1  6  2 -1</clus>
<clus scale="  491.354">  4  5 -1 -1</clus>
<clus scale="  300.000">  1  4  2 -1</clus>
</clustering>
</event>
<event>
 6    1  0.1000035E-011  0.3000000E+03  0.7818608E-02  0.1093470E+00
          1   -1    0    0  502    0  0.00000000000E+00  0.00000000000E+00  0.24302225787E+03  0.24302225787E+03  0.00000000000E+00 0.  1.
         13   -1    0    0    0    0 -0.00000000000E+00 -0.00000000000E+00 -0.27500000000E+03  0.27500000000E+03  0.00000000000E+00 0.  1.
    9000005    2    1    2  501    0 -0.34717969285E+01 -0.40437014652E+02 -0.15953575225E+02  0.47438764486E+03  0.47237899562E+03 0.  0.
         13    1    3    3    0    0  0.44776325138E+02  0.20561085862E+03  0.47553574062E+02  0.21573615108E+03  0.00000000000E+00 0.  1.
          3    1    3    3  501    0 -0.48248122066E+02 -0.24604787327E+03 -0.63507149287E+02  0.25865149378E+03  0.00000000000E+00 0.  1.
         21    1    1    2  502  501  0.34717969285E+01  0.40437014652E+02 -0.16024166905E+02  0.43634613014E+02  0.00000000000E+00 0. -1.
<scales pt_clust_4="550.00000" pt_clust_5="550.00000" pt_clust_6="40.58580"></scales>
<mgrwt>
<rscale>  0 0.30000000E+03</rscale>
<asrwt>  1 0.40585800E+02</asrwt>
<pdfrwt beam="1">  1        1 0.88371730E+00 0.30000000E+03</pdfrwt>
<pdfrwt beam="2">0</pdfrwt>
<totfact> 0.17190059E-04</totfact>
</mgrwt>
<clustering>
<clus scale="   40.586">  1  6  2 -1</clus>
<clus scale="  472.379">  4  5 -1 -1</clus>
<clus scale="  300.000">  1  4  2 -1</clus>
</clustering>
</event>
<event>
 6    1  0.1000035E-011  0.3000000E+03  0.7818608E-02  0.1093470E+00
          1   -1    0    0  502    0  0.00000000000E+00  0.00000000000E+00  0.22142181047E+03  0.22142181047E+03  0.00000000000E+00 0.  1.
         13   -1    0    0    0    0 -0.00000000000E+00 -0.00000000000E+00 -0.27500000000E+03  0.27500000000E+03  0.00000000000E+00 0.  1.
    9000005    2    1    2  501    0  0.25551496191E+02 -0.22006766867E+02 -0.46507957362E+02  0.46196655066E+03  0.45838076649E+03 0.  0.
         13    1    3    3    0    0 -0.16905061371E+03 -0.94522429978E+02 -0.13514172826E+03  0.23616919037E+03  0.00000000000E+00 0.  1.
          1    1    3    3  501    0  0.19460210990E+03  0.72515663111E+02  0.88633770894E+02  0.22579736029E+03  0.00000000000E+00 0.  1.
         21    1    1    2  502  501 -0.25551496191E+02  0.22006766867E+02 -0.70702321674E+01  0.34455259808E+02  0.00000000000E+00 0. -1.
<scales pt_clust_4="550.00000" pt_clust_5="550.00000" pt_clust_6="33.72207"></scales>
<mgrwt>
<rscale>  0 0.30000000E+03</rscale>
<asrwt>  1 0.33722068E+02</asrwt>
<pdfrwt beam="1">  1        1 0.80517022E+00 0.30000000E+03</pdfrwt>
<pdfrwt beam="2">0</pdfrwt>
<totfact> 0.95677650E-04</totfact>
</mgrwt>
<clustering>
<clus scale="   33.722">  1  6  2 -1</clus>
<clus scale="  458.381">  4  5 -1 -1</clus>
<clus scale="  300.000">  1  4  2 -1</clus>
</clustering>
</event>
<event>
 6    1  0.1000035E-011  0.3000000E+03  0.7818608E-02  0.1093470E+00
          1   -1    0    0  502    0  0.00000000000E+00  0.00000000000E+00  0.23263727535E+03  0.23263727535E+03  0.00000000000E+00 0.  1.
         13   -1    0    0    0    0 -0.00000000000E+00 -0.00000000000E+00 -0.27500000000E+03  0.27500000000E+03  0.00000000000E+00 0.  1.
    9000005    2    1    2  501    0  0.10850941854E+02  0.35857574598E+02 -0.11095843903E+02  0.45884048830E+03  0.45717389181E+03 0.  0.
         13    1    3    3    0    0 -0.12494386654E+02  0.21038698377E+03  0.11703464546E+03  0.24107239758E+03  0.00000000000E+00 0.  1.
          3    1    3    3  501    0  0.23345328508E+02 -0.17452940917E+03 -0.12813048936E+03  0.21776809071E+03  0.00000000000E+00 0.  1.
         21    1    1    2  502  501 -0.10850941854E+02 -0.35857574598E+02 -0.31266880747E+02  0.48796787055E+02  0.00000000000E+00 0. -1.
<scales pt_clust_4="550.00000" pt_clust_5="550.00000" pt_clust_6="37.46345"></scales>
<mgrwt>
<rscale>  0 0.30000000E+03</rscale>
<asrwt>  1 0.37463449E+02</asrwt>
<pdfrwt beam="1">  1        1 0.84595373E+00 0.30000000E+03</pdfrwt>
<pdfrwt beam="2">0</pdfrwt>
<totfact> 0.43760064E-04</totfact>
</mgrwt>
<clustering>
<clus scale="   37.463">  1  6  2 -1</clus>
<clus scale="  457.174">  4  5 -1 -1</clus>
<clus scale="  300.000">  1  4  2 -1</clus>
</clustering>
</event>
<event>
 6    1  0.1000035E-011  0.3000000E+03  0.7818608E-02  0.1093470E+00
          1   -1    0    0  502    0  0.00000000000E+00  0.00000000000E+00  0.23494089669E+03  0.23494089669E+03  0.00000000000E+00 0.  1.
         13   -1    0    0    0    0 -0.00000000000E+00 -0.00000000000E+00 -0.27500000000E+03  0.27500000000E+03  0.00000000000E+00 0.  1.
    9000005    2    1    2  501    0  0.15245263675E+02 -0.26595637099E+02 -0.52461665106E+02  0.47687173407E+03  0.47298486072E+03 0.  0.
         13    1    3    3    0    0 -0.19791850773E+03  0.35560583191E+02 -0.13253285275E+03  0.24083448224E+03  0.00000000000E+00 0.  1.
          3    1    3    3  501    0  0.21316377141E+03 -0.62156220290E+02  0.80071187640E+02  0.23603725183E+03  0.00000000000E+00 0.  1.
         21    1    1    2  502  501 -0.15245263675E+02  0.26595637099E+02  0.12402561798E+02  0.33069162619E+02  0.00000000000E+00 0.  1.
<scales pt_clust_4="550.00000" pt_clust_5="550.00000" pt_clust_6="30.65528"></scales>
<mgrwt>
<rscale>  0 0.30000000E+03</rscale>
<asrwt>  1 0.30655276E+02</asrwt>
<pdfrwt beam="1">  1        1 0.85433053E+00 0.30000000E+03</pdfrwt>
<pdfrwt beam="2">0</pdfrwt>
<totfact> 0.37931185E-04</totfact>
</mgrwt>
<clustering>
<clus scale="   30.655">  1  6  2 -1</clus>
<clus scale="  472.985">  4  5 -1 -1</clus>
<clus scale="  300.000">  1  4  2 -1</clus>
</clustering>
</event>
<event>
 6    1  0.1000035E-011  0.3000000E+03  0.7818608E-02  0.1093470E+00
          1   -1    0    0  502    0  0.00000000000E+00  0.00000000000E+00  0.25346019615E+03  0.25346019615E+03  0.00000000000E+00 0.  1.
         13   -1    0    0    0    0 -0.00000000000E+00 -0.00000000000E+00 -0.27500000000E+03  0.27500000000E+03  0.00000000000E+00 0.  1.
    9000005    2    1    2  501    0  0.20249372709E+02 -0.23853241039E+02 -0.23879168999E+02  0.49708366300E+03  0.49552289464E+03 0.  0.
         13    1    3    3    0    0  0.34418511410E+02  0.44585951904E+02 -0.25214417482E+03  0.25835871561E+03  0.00000000000E+00 0.  1.
          1    1    3    3  501    0 -0.14169138701E+02 -0.68439192943E+02  0.22826500582E+03  0.23872494739E+03  0.00000000000E+00 0.  1.
         21    1    1    2  502  501 -0.20249372709E+02  0.23853241039E+02  0.23393651503E+01  0.31376533150E+02  0.00000000000E+00 0. -1.
<scales pt_clust_4="550.00000" pt_clust_5="550.00000" pt_clust_6="31.28920"></scales>
<mgrwt>
<rscale>  0 0.30000000E+03</rscale>
<asrwt>  1 0.31289203E+02</asrwt>
<pdfrwt beam="1">  1        1 0.92167344E+00 0.30000000E+03</pdfrwt>
<pdfrwt beam="2">0</pdfrwt>
<totfact> 0.39305957E-05</totfact>
</mgrwt>
<clustering>
<clus scale="   31.289">  1  6  2 -1</clus>
<clus scale="  495.523">  4  5 -1 -1</clus>
<clus scale="  300.000">  1  4  2 -1</clus>
</clustering>
</event>
<event>
 6    1  0.1000035E-011  0.3000000E+03  0.7818608E-02  0.1093470E+00
          1   -1    0    0  502    0  0.00000000000E+00  0.00000000000E+00  0.23619072648E+03  0.23619072648E+03  0.00000000000E+00 0.  1.
         13   -1    0    0    0    0 -0.00000000000E+00 -0.00000000000E+00 -0.27500000000E+03  0.27500000000E+03  0.00000000000E+00 0.  1.
    9000005    2    1    2  501    0  0.26335064748E+00  0.35701676453E+02 -0.89799499296E+01  0.46466688742E+03  0.46320621511E+03 0.  0.
         13    1    3    3    0    0 -0.58797667161E+02 -0.18794650858E+03  0.85643794758E+02  0.21474616489E+03  0.00000000000E+00 0.  1.
          3    1    3    3  501    0  0.59061017808E+02  0.22364818504E+03 -0.94623744688E+02  0.24992072254E+03  0.00000000000E+00 0.  1.
         21    1    1    2  502  501 -0.26335064748E+00 -0.35701676453E+02 -0.29829323587E+02  0.46523839059E+02  0.00000000000E+00 0.  1.
<scales pt_clust_4="550.00000" pt_clust_5="550.00000" pt_clust_6="35.70267"></scales>
<mgrwt>
<rscale>  0 0.30000000E+03</rscale>
<asrwt>  1 0.35702666E+02</asrwt>
<pdfrwt beam="1">  1        1 0.85887537E+00 0.30000000E+03</pdfrwt>
<pdfrwt beam="2">0</pdfrwt>
<totfact> 0.33124299E-04</totfact>
</mgrwt>
<clustering>
<clus scale="   35.703">  1  6  2 -1</clus>
<clus scale="  463.206">  4  5 -1 -1</clus>
<clus scale="  300.000">  1  4  2 -1</clus>
</clustering>
</event>
<event>
 6    1  0.1000035E-011  0.3000000E+03  0.7818608E-02  0.1093470E+00
          1   -1    0    0  502    0  0.00000000000E+00  0.00000000000E+00  0.22695056896E+03  0.22695056896E+03  0.00000000000E+00 0.  1.
         13   -1    0    0    0    0 -0.00000000000E+00 -0.00000000000E+00 -0.27500000000E+03  0.27500000000E+03  0.00000000000E+00 0.  1.
    9000005    2    1    2  501    0 -0.19137269587E+02  0.26772553313E+02 -0.65837884745E+02  0.46454156224E+03  0.45867333832E+03 0.  0.
         13    1    3    3    0    0 -0.17118944944E+03 -0.80255588705E+02  0.10132259177E+03  0.21450653771E+03  0.00000000000E+00 0.  1.
          3    1    3    3  501    0  0.15205217985E+03  0.10702814202E+03 -0.16716047652E+03  0.25003502453E+03  0.00000000000E+00 0.  1.
         21    1    1    2  502  501  0.19137269587E+02 -0.26772553313E+02  0.17788453701E+02  0.37409006712E+02  0.00000000000E+00 0.  1.
<scales pt_clust_4="550.00000" pt_clust_5="550.00000" pt_clust_6="32.90904"></scales>
<mgrwt>
<rscale>  0 0.30000000E+03</rscale>
<asrwt>  1 0.32909037E+02</asrwt>
<pdfrwt beam="1">  1        1 0.82527480E+00 0.30000000E+03</pdfrwt>
<pdfrwt beam="2">0</pdfrwt>
<totfact> 0.65706450E-04</totfact>
</mgrwt>
<clustering>
<clus scale="   32.909">  1  6  2 -1</clus>
<clus scale="  458.673">  4  5 -1 -1</clus>
<clus scale="  300.000">  1  4  2 -1</clus>
</clustering>
</event>
<event>
 6    1  0.1000035E-011  0.3000000E+03  0.7818608E-02  0.1093470E+00
          1   -1    0    0  502    0  0.00000000000E+00  0.00000000000E+00  0.24702052114E+03  0.24702052114E+03  0.00000000000E+00 0.  1.
         13   -1    0    0    0    0 -0.00000000000E+00 -0.00000000000E+00 -0.27500000000E+03  0.27500000000E+03  0.00000000000E+00 0.  1.
    9000005    2    1    2  501    0  0.31343380683E+02 -0.34128237330E+01 -0.40044167552E+02  0.48826238743E+03  0.48559506664E+03 0.  0.
         13    1    3    3    0    0  0.14037190541E+03 -0.17616565805E+03 -0.13540706520E+03  0.26281872880E+03  0.00000000000E+00 0.  1.
          1    1    3    3  501    0 -0.10902852473E+03  0.17275283431E+03  0.95362897646E+02  0.22544365863E+03  0.00000000000E+00 0.  1.
         21    1    1    2  502  501 -0.31343380683E+02  0.34128237330E+01  0.12064688692E+02  0.33758133712E+02  0.00000000000E+00 0. -1.
<scales pt_clust_4="550.00000" pt_clust_5="550.00000" pt_clust_6="31.52864"></scales>
<mgrwt>
<rscale>  0 0.30000000E+03</rscale>
<asrwt>  1 0.31528636E+02</asrwt>
<pdfrwt beam="1">  1        1 0.89825644E+00 0.30000000E+03</pdfrwt>
<pdfrwt beam="2">0</pdfrwt>
<totfact> 0.11820558E-04</totfact>
</mgrwt>
<clustering>
<clus scale="   31.529">  1  6  2 -1</clus>
<clus scale="  485.595">  4  5 -1 -1</clus>
<clus scale="  300.000">  1  4  2 -1</clus>
</clustering>
</event>
<event>
 6    1  0.1000035E-011  0.3000000E+03  0.7818608E-02  0.1093470E+00
          1   -1    0    0  502    0  0.00000000000E+00  0.00000000000E+00  0.24098617709E+03  0.24098617709E+03  0.00000000000E+00 0.  1.
         13   -1    0    0    0    0 -0.00000000000E+00 -0.00000000000E+00 -0.27500000000E+03  0.27500000000E+03  0.00000000000E+00 0.  1.
    9000005    2    1    2  501    0  0.23508765207E+02  0.19898466478E+02 -0.53319251862E+02  0.47963634082E+03  0.47566738989E+03 0.  0.
         13    1    3    3    0    0 -0.90124655716E+02 -0.47109299401E+01 -0.24184845078E+03  0.25813817923E+03  0.00000000000E+00 0.  1.
          3    1    3    3  501    0  0.11363342092E+03  0.24609396418E+02  0.18852919892E+03  0.22149816159E+03  0.00000000000E+00 0.  1.
         21    1    1    2  502  501 -0.23508765207E+02 -0.19898466478E+02  0.19305428956E+02  0.36349836271E+02  0.00000000000E+00 0.  1.
<scales pt_clust_4="550.00000" pt_clust_5="550.00000" pt_clust_6="30.79953"></scales>
<mgrwt>
<rscale>  0 0.30000000E+03</rscale>
<asrwt>  1 0.30799529E+02</asrwt>
<pdfrwt beam="1">  1        1 0.87631337E+00 0.30000000E+03</pdfrwt>
<pdfrwt beam="2">0</pdfrwt>
<totfact> 0.22307948E-04</totfact>
</mgrwt>
<clustering>
<clus scale="   30.800">  1  6  2 -1</clus>
<clus scale="  475.667">  4  5 -1 -1</clus>
<clus scale="  300.000">  1  4  2 -1</clus>
</clustering>
</event>
<event>
 6    1  0.1000035E-011  0.3000000E+03  0.7818608E-02  0.1093470E+00
          1   -1    0    0  502    0  0.00000000000E+00  0.00000000000E+00  0.23237853546E+03  0.23237853546E+03  0.00000000000E+00 0.  1.
         13   -1    0    0    0    0 -0.00000000000E+00 -0.00000000000E+00 -0.27500000000E+03  0.27500000000E+03  0.00000000000E+00 0.  1.
    9000005    2    1    2  501    0  0.34681487333E+02 -0.16290944229E+02 -0.63712853318E+02  0.46364014148E+03  0.45764030929E+03 0.  0.
         13    1    3    3    0    0 -0.17624396071E+02  0.20092952457E+02 -0.25789273319E+03  0.25927400161E+03  0.00000000000E+00 0.  1.
          3    1    3    3  501    0  0.52305883403E+02 -0.36383896685E+02  0.19417987988E+03  0.20436613987E+03  0.00000000000E+00 0.  1.
         21    1    1    2  502  501 -0.34681487333E+02  0.16290944229E+02  0.21091388776E+02  0.43738393980E+02  0.00000000000E+00 0. -1.
<scales pt_clust_4="550.00000" pt_clust_5="550.00000" pt_clust_6="38.31710"></scales>
<mgrwt>
<rscale>  0 0.30000000E+03</rscale>
<asrwt>  1 0.38317104E+02</asrwt>
<pdfrwt beam="1">  1        1 0.84501286E+00 0.30000000E+03</pdfrwt>
<pdfrwt beam="2">0</pdfrwt>
<totfact> 0.44418320E-04</totfact>
</mgrwt>
<clustering>
<clus scale="   38.317">  1  6  2 -1</clus>
<clus scale="  457.640">  4  5 -1 -1</clus>
<clus scale="  300.000">  1  4  2 -1</clus>
</clustering>
</event>
<event>
 6    1  0.1000035E-011  0.3000000E+03  0.7818608E-02  0.1093470E+00
          1   -1    0    0  502    0  0.00000000000E+00  0.00000000000E+00  0.25028509453E+03  0.25028509453E+03  0.00000000000E+00 0.  1.
         13   -1    0    0    0    0 -0.00000000000E+00 -0.00000000000E+00 -0.27500000000E+03  0.27500000000E+03  0.00000000000E+00 0.  1.
    9000005    2    1    2  501    0 -0.25134056953E+02 -0.19589513139E+02 -0.42573880332E+02  0.48875547878E+03  0.48585379787E+03 0.  0.
         13    1    3    3    0    0 -0.17897270389E+03 -0.17660096722E+03  0.38701968686E+02  0.25439530802E+03  0.00000000000E+00 0.  1.
          3    1    3    3  501    0  0.15383864694E+03  0.15701145408E+03 -0.81275849018E+02  0.23436017076E+03  0.00000000000E+00 0.  1.
         21    1    1    2  502  501  0.25134056953E+02  0.19589513139E+02  0.17858974865E+02  0.36529615754E+02  0.00000000000E+00 0.  1.
<scales pt_clust_4="550.00000" pt_clust_5="550.00000" pt_clust_6="31.86644"></scales>
<mgrwt>
<rscale>  0 0.30000000E+03</rscale>
<asrwt>  1 0.31866438E+02</asrwt>
<pdfrwt beam="1">  1        1 0.91012762E+00 0.30000000E+03</pdfrwt>
<pdfrwt beam="2">0</pdfrwt>
<totfact> 0.72619782E-05</totfact>
</mgrwt>
<clustering>
<clus scale="   31.866">  1  6  2 -1</clus>
<clus scale="  485.854">  4  5 -1 -1</clus>
<clus scale="  300.000">  1  4  2 -1</clus>
</clustering>
</event>
<event>
 6    1  0.1000035E-011  0.3000000E+03  0.7818608E-02  0.1093470E+00
          1   -1    0    0  502    0  0.00000000000E+00  0.00000000000E+00  0.23886183964E+03  0.23886183964E+03  0.00000000000E+00 0.  1.
         13   -1    0    0    0    0 -0.00000000000E+00 -0.00000000000E+00 -0.27500000000E+03  0.27500000000E+03  0.00000000000E+00 0.  1.
    9000005    2    1    2  501    0 -0.16262219243E+01 -0.49339982760E+02 -0.23927335432E+02  0.46300731435E+03  0.45974577460E+03 0.  0.
         13    1    3    3    0    0  0.19936053583E+03  0.82683753098E+02  0.26066284491E+02  0.21739521030E+03  0.00000000000E+00 0.  1.
          1    1    3    3  501    0 -0.20098675776E+03 -0.13202373586E+03 -0.49993619923E+02  0.24561210405E+03  0.00000000000E+00 0.  1.
         21    1    1    2  502  501  0.16262219243E+01  0.49339982760E+02 -0.12210824933E+02  0.50854525286E+02  0.00000000000E+00 0.  1.
<scales pt_clust_4="550.00000" pt_clust_5="550.00000" pt_clust_6="49.36680"></scales>
<mgrwt>
<rscale>  0 0.30000000E+03</rscale>
<asrwt>  1 0.49366800E+02</asrwt>
<pdfrwt beam="1">  1        1 0.86858851E+00 0.30000000E+03</pdfrwt>
<pdfrwt beam="2">0</pdfrwt>
<totfact> 0.24602104E-04</totfact>
</mgrwt>
<clustering>
<clus scale="   49.367">  1  6  2 -1</clus>
<clus scale="  459.746">  4  5 -1 -1</clus>
<clus scale="  300.000">  1  4  2 -1</clus>
</clustering>
</event>
<event>
 6    1  0.1000035E-011  0.3000000E+03  0.7818608E-02  0.1093470E+00
          1   -1    0    0  502    0  0.00000000000E+00  0.00000000000E+00  0.24407873605E+03  0.24407873605E+03  0.00000000000E+00 0.  1.
         13   -1    0    0    0    0 -0.00000000000E+00 -0.00000000000E+00 -0.27500000000E+03  0.27500000000E+03  0.00000000000E+00 0.  1.
    9000005    2    1    2  501    0 -0.33491254581E+02 -0.37933313285E+01 -0.59996823300E+01  0.47716049746E+03  0.47593076246E+03 0.  0.
         13    1    3    3    0    0  0.19607136903E+03  0.46239980441E+02  0.93398407737E+02  0.22204814818E+03  0.00000000000E+00 0.  1.
          3    1    3    3  501    0 -0.22956262361E+03 -0.50033311770E+02 -0.99398090067E+02  0.25511234928E+03  0.00000000000E+00 0.  1.
         21    1    1    2  502  501  0.33491254581E+02  0.37933313285E+01 -0.24921581619E+02  0.41918238589E+02  0.00000000000E+00 0.  1.
<scales pt_clust_4="550.00000" pt_clust_5="550.00000" pt_clust_6="33.70541"></scales>
<mgrwt>
<rscale>  0 0.30000000E+03</rscale>
<asrwt>  1 0.33705410E+02</asrwt>
<pdfrwt beam="1">  1        1 0.88755904E+00 0.30000000E+03</pdfrwt>
<pdfrwt beam="2">0</pdfrwt>
<totfact> 0.15757781E-04</totfact>
</mgrwt>
<clustering>
<clus scale="   33.705">  1  6  2 -1</clus>
<clus scale="  475.931">  4  5 -1 -1</clus>
<clus scale="  300.000">  1  4  2 -1</clus>
</clustering>
</event>
<event>
 6    1  0.1000035E-011  0.3000000E+03  0.7818608E-02  0.1093470E+00
          1   -1    0    0  502    0  0.00000000000E+00  0.00000000000E+00  0.25127180621E+03  0.25127180621E+03  0.00000000000E+00 0.  1.
         13   -1    0    0    0    0 -0.00000000000E+00 -0.00000000000E+00 -0.27500000000E+03  0.27500000000E+03  0.00000000000E+00 0.  1.
    9000005    2    1    2  501    0  0.39502473815E+02 -0.75992769561E+01 -0.33779473249E+02  0.48480829615E+03  0.48195418533E+03 0.  0.
         13    1    3    3    0    0  0.53381909777E+02  0.26541646434E+02  0.22022117570E+03  0.22814787642E+03  0.00000000000E+00 0.  1.
          1    1    3    3  501    0 -0.13879435962E+02 -0.34140923390E+02 -0.25400064895E+03  0.25666041974E+03  0.00000000000E+00 0.  1.
         21    1    1    2  502  501 -0.39502473815E+02  0.75992769561E+01  0.10051279462E+02  0.41463510062E+02  0.00000000000E+00 0.  1.
<scales pt_clust_4="550.00000" pt_clust_5="550.00000" pt_clust_6="40.22679"></scales>
<mgrwt>
<rscale>  0 0.30000000E+03</rscale>
<asrwt>  1 0.40226788E+02</asrwt>
<pdfrwt beam="1">  1        1 0.91371566E+00 0.30000000E+03</pdfrwt>
<pdfrwt beam="2">0</pdfrwt>
<totfact> 0.56632509E-05</totfact>
</mgrwt>
<clustering>
<clus scale="   40.227">  1  6  2 -1</clus>
<clus scale="  481.954">  4  5 -1 -1</clus>
<clus scale="  300.000">  1  4  2 -1</clus>
</clustering>
</event>
<event>
 6    1  0.1000035E-011  0.3000000E+03  0.7818608E-02  0.1093470E+00
          1   -1    0    0  502    0  0.00000000000E+00  0.00000000000E+00  0.24416348534E+03  0.24416348534E+03  0.00000000000E+00 0.  1.
         13   -1    0    0    0    0 -0.00000000000E+00 -0.00000000000E+00 -0.27500000000E+03  0.27500000000E+03  0.00000000000E+00 0.  1.
    9000005    2    1    2  501    0 -0.22996213964E+02  0.48202327767E+02 -0.30006858741E+02  0.46575020433E+03  0.46170396469E+03 0.  0.
         13    1    3    3    0    0  0.14916820035E+03 -0.76196281350E+01 -0.17770961916E+03  0.23214202435E+03  0.00000000000E+00 0.  1.
          3    1    3    3  501    0 -0.17216441432E+03  0.55821955902E+02  0.14770276042E+03  0.23360817998E+03  0.00000000000E+00 0.  1.
         21    1    1    2  502  501  0.22996213964E+02 -0.48202327767E+02 -0.82965591962E+00  0.53413281005E+02  0.00000000000E+00 0.  1.
<scales pt_clust_4="550.00000" pt_clust_5="550.00000" pt_clust_6="53.40684"></scales>
<mgrwt>
<rscale>  0 0.30000000E+03</rscale>
<asrwt>  1 0.53406837E+02</asrwt>
<pdfrwt beam="1">  1        1 0.88786722E+00 0.30000000E+03</pdfrwt>
<pdfrwt beam="2">0</pdfrwt>
<totfact> 0.14359562E-04</totfact>
</mgrwt>
<clustering>
<clus scale="   53.407">  1  6  2 -1</clus>
<clus scale="  461.704">  4  5 -1 -1</clus>
<clus scale="  300.000">  1  4  2 -1</clus>
</clustering>
</event>
<event>
 6    1  0.1000035E-011  0.3000000E+03  0.7818608E-02  0.1093470E+00
          1   -1    0    0  502    0  0.00000000000E+00  0.00000000000E+00  0.23926144735E+03  0.23926144735E+03  0.00000000000E+00 0.  1.
         13   -1    0    0    0    0 -0.00000000000E+00 -0.00000000000E+00 -0.27500000000E+03  0.27500000000E+03  0.00000000000E+00 0.  1.
    9000005    2    1    2  501    0 -0.27241123078E+02 -0.22928314215E+02 -0.53176949160E+02  0.47461445438E+03  0.47028002934E+03 0.  0.
         13    1    3    3    0    0 -0.16530156923E+03 -0.25036952848E+02  0.15289691392E+03  0.22655887554E+03  0.00000000000E+00 0.  1.
          1    1    3    3  501    0  0.13806044615E+03  0.21086386336E+01 -0.20607386308E+03  0.24805557884E+03  0.00000000000E+00 0.  1.
         21    1    1    2  502  501  0.27241123078E+02  0.22928314215E+02  0.17438396514E+02  0.39646992979E+02  0.00000000000E+00 0.  1.
<scales pt_clust_4="550.00000" pt_clust_5="550.00000" pt_clust_6="35.60599"></scales>
<mgrwt>
<rscale>  0 0.30000000E+03</rscale>
<asrwt>  1 0.35605988E+02</asrwt>
<pdfrwt beam="1">  1        1 0.87004163E+00 0.30000000E+03</pdfrwt>
<pdfrwt beam="2">0</pdfrwt>
<totfact> 0.25219341E-04</totfact>
</mgrwt>
<clustering>
<clus scale="   35.606">  1  6  2 -1</clus>
<clus scale="  470.280">  4  5 -1 -1</clus>
<clus scale="  300.000">  1  4  2 -1</clus>
</clustering>
</event>
<event>
 6    1  0.1000035E-011  0.3000000E+03  0.7818608E-02  0.1093470E+00
          1   -1    0    0  502    0  0.00000000000E+00  0.00000000000E+00  0.24314853412E+03  0.24314853412E+03  0.00000000000E+00 0.  1.
         13   -1    0    0    0    0 -0.00000000000E+00 -0.00000000000E+00 -0.27500000000E+03  0.27500000000E+03  0.00000000000E+00 0.  1.
    9000005    2    1    2  501    0  0.18379412754E+02 -0.26852438793E+02 -0.40528495846E+02  0.48447143312E+03  0.48167536189E+03 0.  0.
         13    1    3    3    0    0  0.21544152454E+03  0.58113335835E+02  0.81553069879E+02  0.23757759470E+03  0.00000000000E+00 0.  1.
          3    1    3    3  501    0 -0.19706211179E+03 -0.84965774629E+02 -0.12208156572E+03  0.24689383842E+03  0.00000000000E+00 0.  1.
         21    1    1    2  502  501 -0.18379412754E+02  0.26852438793E+02  0.86770299616E+01  0.33677100993E+02  0.00000000000E+00 0.  1.
<scales pt_clust_4="550.00000" pt_clust_5="550.00000" pt_clust_6="32.54007"></scales>
<mgrwt>
<rscale>  0 0.30000000E+03</rscale>
<asrwt>  1 0.32540072E+02</asrwt>
<pdfrwt beam="1">  1        1 0.88417649E+00 0.30000000E+03</pdfrwt>
<pdfrwt beam="2">0</pdfrwt>
<totfact> 0.17655984E-04</totfact>
</mgrwt>
<clustering>
<clus scale="   32.540">  1  6  2 -1</clus>
<clus scale="  481.675">  4  5 -1 -1</clus>
<clus scale="  300.000">  1  4  2 -1</clus>
</clustering>
</event>
<event>
 6    1  0.1000035E-011  0.3000000E+03  0.7818608E-02  0.1093470E+00
          1   -1    0    0  502    0  0.00000000000E+00  0.00000000000E+00  0.22646412887E+03  0.22646412887E+03  0.00000000000E+00 0.  1.
         13   -1    0    0    0    0 -0.00000000000E+00 -0.00000000000E+00 -0.27500000000E+03  0.27500000000E+03  0.00000000000E+00 0.  1.
    9000005    2    1    2  501    0  0.27905270997E+02 -0.18740010238E+02 -0.48652512219E+02  0.46785005833E+03  0.46409774617E+03 0.  0.
         13    1    3    3    0    0 -0.15434389328E+03  0.13746039256E+03  0.42662962543E+02  0.21103915582E+03  0.00000000000E+00 0.  1.
          1    1    3    3  501    0  0.18224916428E+03 -0.15620040280E+03 -0.91315474762E+02  0.25681090251E+03  0.00000000000E+00 0.  1.
         21    1    1    2  502  501 -0.27905270997E+02  0.18740010238E+02  0.11664108534E+00  0.33614070540E+02  0.00000000000E+00 0.  1.
<scales pt_clust_4="550.00000" pt_clust_5="550.00000" pt_clust_6="33.61387"></scales>
<mgrwt>
<rscale>  0 0.30000000E+03</rscale>
<asrwt>  1 0.33613868E+02</asrwt>
<pdfrwt beam="1">  1        1 0.82350592E+00 0.30000000E+03</pdfrwt>
<pdfrwt beam="2">0</pdfrwt>
<totfact> 0.67868869E-04</totfact>
</mgrwt>
<clustering>
<clus scale="   33.614">  1  6  2 -1</clus>
<clus scale="  464.098">  4  5 -1 -1</clus>
<clus scale="  300.000">  1  4  2 -1</clus>
</clustering>
</event>
<event>
 6    1  0.1000035E-011  0.3000000E+03  0.7818608E-02  0.1093470E+00
          1   -1    0    0  502    0  0.00000000000E+00  0.00000000000E+00  0.23337736466E+03  0.23337736466E+03  0.00000000000E+00 0.  1.
         13   -1    0    0    0    0 -0.00000000000E+00 -0.00000000000E+00 -0.27500000000E+03  0.27500000000E+03  0.00000000000E+00 0.  1.
    9000005    2    1    2  501    0 -0.17014107749E+02 -0.35869057894E+02 -0.29989359476E+02  0.46700826649E+03  0.46435039583E+03 0.  0.
         13    1    3    3    0    0  0.14129979373E+03  0.14684110133E+03  0.54444112733E+02  0.21093151059E+03  0.00000000000E+00 0.  1.
          1    1    3    3  501    0 -0.15831390148E+03 -0.18271015922E+03 -0.84433472209E+02  0.25607675590E+03  0.00000000000E+00 0.  1.
         21    1    1    2  502  501  0.17014107749E+02  0.35869057894E+02 -0.11633275859E+02  0.41369098176E+02  0.00000000000E+00 0. -1.
<scales pt_clust_4="550.00000" pt_clust_5="550.00000" pt_clust_6="39.69976"></scales>
<mgrwt>
<rscale>  0 0.30000000E+03</rscale>
<asrwt>  1 0.39699758E+02</asrwt>
<pdfrwt beam="1">  1        1 0.84864496E+00 0.30000000E+03</pdfrwt>
<pdfrwt beam="2">0</pdfrwt>
<totfact> 0.40933175E-04</totfact>
</mgrwt>
<clustering>
<clus scale="   39.700">  1  6  2 -1</clus>
<clus scale="  464.350">  4  5 -1 -1</clus>
<clus scale="  300.000">  1  4  2 -1</clus>
</clustering>
</event>
<event>
 6    1  0.1000035E-011  0.3000000E+03  0.7818608E-02  0.1093470E+00
          1   -1    0    0  502    0  0.00000000000E+00  0.00000000000E+00  0.23523011297E+03  0.23523011297E+03  0.00000000000E+00 0.  1.
         13   -1    0    0    0    0 -0.00000000000E+00 -0.00000000000E+00 -0.27500000000E+03  0.27500000000E+03  0.00000000000E+00 0.  1.
    9000005    2    1    2  501    0 -0.20799977928E+02 -0.23350374669E+02 -0.43151925686E+02  0.47877669878E+03  0.47580159680E+03 0.  0.
         13    1    3    3    0    0  0.13189556907E+02 -0.89803477328E+02  0.20256599945E+03  0.22197209979E+03  0.00000000000E+00 0.  1.
          1    1    3    3  501    0 -0.33989534835E+02  0.66453102659E+02 -0.24571792513E+03  0.25680459899E+03  0.00000000000E+00 0.  1.
         21    1    1    2  502  501  0.20799977928E+02  0.23350374669E+02  0.33820386565E+01  0.31453414194E+02  0.00000000000E+00 0.  1.
<scales pt_clust_4="550.00000" pt_clust_5="550.00000" pt_clust_6="31.27106"></scales>
<mgrwt>
<rscale>  0 0.30000000E+03</rscale>
<asrwt>  1 0.31271058E+02</asrwt>
<pdfrwt beam="1">  1        1 0.85538223E+00 0.30000000E+03</pdfrwt>
<pdfrwt beam="2">0</pdfrwt>
<totfact> 0.36893156E-04</totfact>
</mgrwt>
<clustering>
<clus scale="   31.271">  1  6  2 -1</clus>
<clus scale="  475.802">  4  5 -1 -1</clus>
<clus scale="  300.000">  1  4  2 -1</clus>
</clustering>
</event>
<event>
 6    1  0.1000035E-011  0.3000000E+03  0.7818608E-02  0.1093470E+00
          1   -1    0    0  502    0  0.00000000000E+00  0.00000000000E+00  0.22954498231E+03  0.22954498231E+03  0.00000000000E+00 0.  1.
         13   -1    0    0    0    0 -0.00000000000E+00 -0.00000000000E+00 -0.27500000000E+03  0.27500000000E+03  0.00000000000E+00 0.  1.
    9000005    2    1    2  501    0 -0.27680174798E+02 -0.14921174386E+02 -0.53410946116E+02  0.47210842394E+03  0.46802222305E+03 0.  0.
         13    1    3    3    0    0 -0.11421477051E+03 -0.21788706197E+03 -0.52086591922E+02  0.25146132631E+03  0.00000000000E+00 0.  1.
          1    1    3    3  501    0  0.86534595708E+02  0.20296588758E+03 -0.13243541943E+01  0.22064709762E+03  0.00000000000E+00 0.  1.
         21    1    1    2  502  501  0.27680174798E+02  0.14921174386E+02  0.79559284250E+01  0.32436558372E+02  0.00000000000E+00 0. -1.
<scales pt_clust_4="550.00000" pt_clust_5="550.00000" pt_clust_6="31.44572"></scales>
<mgrwt>
<rscale>  0 0.30000000E+03</rscale>
<asrwt>  1 0.31445723E+02</asrwt>
<pdfrwt beam="1">  1        1 0.83470903E+00 0.30000000E+03</pdfrwt>
<pdfrwt beam="2">0</pdfrwt>
<totfact> 0.55475577E-04</totfact>
</mgrwt>
<clustering>
<clus scale="   31.446">  1  6  2 -1</clus>
<clus scale="  468.022">  4  5 -1 -1</clus>
<clus scale="  300.000">  1  4  2 -1</clus>
</clustering>
</event>
<event>
 6    1  0.1000035E-011  0.3000000E+03  0.7818608E-02  0.1093470E+00
          1   -1    0    0  502    0  0.00000000000E+00  0.00000000000E+00  0.23534550857E+03  0.23534550857E+03  0.00000000000E+00 0.  1.
         13   -1    0    0    0    0 -0.00000000000E+00 -0.00000000000E+00 -0.27500000000E+03  0.27500000000E+03  0.00000000000E+00 0.  1.
    9000005    2    1    2  501    0 -0.22258552556E+02 -0.21594814535E+02 -0.28317890803E+02  0.47732585245E+03  0.47547480196E+03 0.  0.
         13    1    3    3    0    0 -0.77078174594E+02 -0.22564650304E+03  0.63792594171E+02  0.24683371813E+03  0.00000000000E+00 0.  1.
          1    1    3    3  501    0  0.54819622039E+02  0.20405168851E+03 -0.92110484974E+02  0.23049213432E+03  0.00000000000E+00 0.  1.
         21    1    1    2  502  501  0.22258552556E+02  0.21594814535E+02 -0.11336600625E+02  0.33019656122E+02  0.00000000000E+00 0.  1.
<scales pt_clust_4="550.00000" pt_clust_5="550.00000" pt_clust_6="31.01258"></scales>
<mgrwt>
<rscale>  0 0.30000000E+03</rscale>
<asrwt>  1 0.31012580E+02</asrwt>
<pdfrwt beam="1">  1        1 0.85580185E+00 0.30000000E+03</pdfrwt>
<pdfrwt beam="2">0</pdfrwt>
<totfact> 0.36595386E-04</totfact>
</mgrwt>
<clustering>
<clus scale="   31.013">  1  6  2 -1</clus>
<clus scale="  475.475">  4  5 -1 -1</clus>
<clus scale="  300.000">  1  4  2 -1</clus>
</clustering>
</event>
<event>
 6    1  0.1000035E-011  0.3000000E+03  0.7818608E-02  0.1093470E+00
          1   -1    0    0  502    0  0.00000000000E+00  0.00000000000E+00  0.21928260825E+03  0.21928260825E+03  0.00000000000E+00 0.  1.
         13   -1    0    0    0    0 -0.00000000000E+00 -0.00000000000E+00 -0.27500000000E+03  0.27500000000E+03  0.00000000000E+00 0.  1.
    9000005    2    1    2  501    0  0.30195269763E+02  0.57895278850E+01 -0.64718501242E+02  0.46224680139E+03  0.45665999173E+03 0.  0.
         13    1    3    3    0    0 -0.20780415318E+03  0.54268155624E+02 -0.33176783041E+02  0.21732072549E+03  0.00000000000E+00 0.  1.
          3    1    3    3  501    0  0.23799942294E+03 -0.48478627739E+02 -0.31541718201E+02  0.24492607590E+03  0.00000000000E+00 0.  1.
         21    1    1    2  502  501 -0.30195269763E+02 -0.57895278850E+01  0.90011094948E+01  0.32035806862E+02  0.00000000000E+00 0. -1.
<scales pt_clust_4="550.00000" pt_clust_5="550.00000" pt_clust_6="30.74529"></scales>
<mgrwt>
<rscale>  0 0.30000000E+03</rscale>
<asrwt>  1 0.30745291E+02</asrwt>
<pdfrwt beam="1">  1        1 0.79739130E+00 0.30000000E+03</pdfrwt>
<pdfrwt beam="2">0</pdfrwt>
<totfact> 0.11101041E-03</totfact>
</mgrwt>
<clustering>
<clus scale="   30.745">  1  6  2 -1</clus>
<clus scale="  456.660">  4  5 -1 -1</clus>
<clus scale="  300.000">  1  4  2 -1</clus>
</clustering>
</event>
<event>
 6    1  0.1000035E-011  0.3000000E+03  0.7818608E-02  0.1093470E+00
          1   -1    0    0  502    0  0.00000000000E+00  0.00000000000E+00  0.21971425258E+03  0.21971425258E+03  0.00000000000E+00 0.  1.
         13   -1    0    0    0    0 -0.00000000000E+00 -0.00000000000E+00 -0.27500000000E+03  0.27500000000E+03  0.00000000000E+00 0.  1.
    9000005    2    1    2  501    0  0.30407965204E+02 -0.43525924865E+01 -0.59323740315E+02  0.46373208358E+03  0.45889492236E+03 0.  0.
         13    1    3    3    0    0  0.32899259146E+02 -0.30202964929E+02  0.19907928413E+03  0.20402730629E+03  0.00000000000E+00 0.  1.
          1    1    3    3  501    0 -0.24912939424E+01  0.25850372443E+02 -0.25840302445E+03  0.25970477728E+03  0.00000000000E+00 0.  1.
         21    1    1    2  502  501 -0.30407965204E+02  0.43525924865E+01  0.40379928913E+01  0.30982168997E+02  0.00000000000E+00 0.  1.
<scales pt_clust_4="550.00000" pt_clust_5="550.00000" pt_clust_6="30.71790"></scales>
<mgrwt>
<rscale>  0 0.30000000E+03</rscale>
<asrwt>  1 0.30717900E+02</asrwt>
<pdfrwt beam="1">  1        1 0.79896092E+00 0.30000000E+03</pdfrwt>
<pdfrwt beam="2">0</pdfrwt>
<totfact> 0.10815254E-03</totfact>
</mgrwt>
<clustering>
<clus scale="   30.718">  1  6  2 -1</clus>
<clus scale="  458.895">  4  5 -1 -1</clus>
<clus scale="  300.000">  1  4  2 -1</clus>
</clustering>
</event>
<event>
 6    1  0.1000035E-011  0.3000000E+03  0.7818608E-02  0.1093470E+00
          1   -1    0    0  502    0  0.00000000000E+00  0.00000000000E+00  0.23263453735E+03  0.23263453735E+03  0.00000000000E+00 0.  1.
         13   -1    0    0    0    0 -0.00000000000E+00 -0.00000000000E+00 -0.27500000000E+03  0.27500000000E+03  0.00000000000E+00 0.  1.
    9000005    2    1    2  501    0 -0.24193727413E+02  0.22004077516E+02 -0.58174866371E+02  0.47131026008E+03  0.46656138964E+03 0.  0.
         13    1    3    3    0    0 -0.53935835735E+02  0.23464286165E+03  0.22800994329E+02  0.24183926944E+03  0.00000000000E+00 0.  1.
          1    1    3    3  501    0  0.29742108322E+02 -0.21263878414E+03 -0.80975860700E+02  0.22947099064E+03  0.00000000000E+00 0.  1.
         21    1    1    2  502  501  0.24193727413E+02 -0.22004077516E+02  0.15809403725E+02  0.36324277276E+02  0.00000000000E+00 0.  1.
<scales pt_clust_4="550.00000" pt_clust_5="550.00000" pt_clust_6="32.70345"></scales>
<mgrwt>
<rscale>  0 0.30000000E+03</rscale>
<asrwt>  1 0.32703454E+02</asrwt>
<pdfrwt beam="1">  1        1 0.84594377E+00 0.30000000E+03</pdfrwt>
<pdfrwt beam="2">0</pdfrwt>
<totfact> 0.44895725E-04</totfact>
</mgrwt>
<clustering>
<clus scale="   32.703">  1  6  2 -1</clus>
<clus scale="  466.561">  4  5 -1 -1</clus>
<clus scale="  300.000">  1  4  2 -1</clus>
</clustering>
</event>
<event>
 6    1  0.1000035E-011  0.3000000E+03  0.7818608E-02  0.1093470E+00
          1   -1    0    0  502    0  0.00000000000E+00  0.00000000000E+00  0.22423343106E+03  0.22423343106E+03  0.00000000000E+00 0.  1.
         13   -1    0    0    0    0 -0.00000000000E+00 -0.00000000000E+00 -0.27500000000E+03  0.27500000000E+03  0.00000000000E+00 0.  1.
    9000005    2    1    2  501    0 -0.33763014736E+02  0.38994963413E+01 -0.43093194152E+02  0.46439052767E+03  0.46113597948E+03 0.  0.
         13    1    3    3    0    0 -0.27428870700E+02  0.22213639601E+03  0.46141111484E+02  0.22852991828E+03  0.00000000000E+00 0.  1.
          1    1    3    3  501    0 -0.63341440362E+01 -0.21823689967E+03 -0.89234305636E+02  0.23586060939E+03  0.00000000000E+00 0.  1.
         21    1    1    2  502  501  0.33763014736E+02 -0.38994963413E+01 -0.76733747897E+01  0.34842903387E+02  0.00000000000E+00 0. -1.
<scales pt_clust_4="550.00000" pt_clust_5="550.00000" pt_clust_6="33.98747"></scales>
<mgrwt>
<rscale>  0 0.30000000E+03</rscale>
<asrwt>  1 0.33987474E+02</asrwt>
<pdfrwt beam="1">  1        1 0.81539429E+00 0.30000000E+03</pdfrwt>
<pdfrwt beam="2">0</pdfrwt>
<totfact> 0.79457473E-04</totfact>
</mgrwt>
<clustering>
<clus scale="   33.987">  1  6  2 -1</clus>
<clus scale="  461.136">  4  5 -1 -1</clus>
<clus scale="  300.000">  1  4  2 -1</clus>
</clustering>
</event>
<event>
 6    1  0.1000035E-011  0.3000000E+03  0.7818608E-02  0.1093470E+00
          1   -1    0    0  502    0  0.00000000000E+00  0.00000000000E+00  0.23188352173E+03  0.23188352173E+03  0.00000000000E+00 0.  1.
         13   -1    0    0    0    0 -0.00000000000E+00 -0.00000000000E+00 -0.27500000000E+03  0.27500000000E+03  0.00000000000E+00 0.  1.
    9000005    2    1    2  501    0 -0.33073098640E+02  0.24414292090E+01 -0.66457023207E+02  0.46633020537E+03  0.46037759945E+03 0.  0.
         13    1    3    3    0    0 -0.75921806853E+02  0.15662748868E+03 -0.19476992273E+03  0.26121181781E+03  0.00000000000E+00 0.  1.
          3    1    3    3  501    0  0.42848708213E+02 -0.15418605947E+03  0.12831289952E+03  0.20511838755E+03  0.00000000000E+00 0.  1.
         21    1    1    2  502  501  0.33073098640E+02 -0.24414292090E+01  0.23340544937E+02  0.40553316365E+02  0.00000000000E+00 0.  1.
<scales pt_clust_4="550.00000" pt_clust_5="550.00000" pt_clust_6="33.16309"></scales>
<mgrwt>
<rscale>  0 0.30000000E+03</rscale>
<asrwt>  1 0.33163088E+02</asrwt>
<pdfrwt beam="1">  1        1 0.84321281E+00 0.30000000E+03</pdfrwt>
<pdfrwt beam="2">0</pdfrwt>
<totfact> 0.47287140E-04</totfact>
</mgrwt>
<clustering>
<clus scale="   33.163">  1  6  2 -1</clus>
<clus scale="  460.378">  4  5 -1 -1</clus>
<clus scale="  300.000">  1  4  2 -1</clus>
</clustering>
</event>
<event>
 6    1  0.1000035E-011  0.3000000E+03  0.7818608E-02  0.1093470E+00
          1   -1    0    0  502    0  0.00000000000E+00  0.00000000000E+00  0.24016490073E+03  0.24016490073E+03  0.00000000000E+00 0.  1.
         13   -1    0    0    0    0 -0.00000000000E+00 -0.00000000000E+00 -0.27500000000E+03  0.27500000000E+03  0.00000000000E+00 0.  1.
    9000005    2    1    2  501    0  0.29396974028E+01  0.34471478426E+02 -0.35053010052E+02  0.48056761571E+03  0.47803723193E+03 0.  0.
         13    1    3    3    0    0 -0.41796876212E+02  0.93868404744E+02 -0.24079389948E+03  0.26180137184E+03  0.00000000000E+00 0.  1.
          1    1    3    3  501    0  0.44736573615E+02 -0.59396926317E+02  0.20574088943E+03  0.21876624387E+03  0.00000000000E+00 0.  1.
         21    1    1    2  502  501 -0.29396974028E+01 -0.34471478426E+02  0.21791078498E+00  0.34597285021E+02  0.00000000000E+00 0.  1.
<scales pt_clust_4="550.00000" pt_clust_5="550.00000" pt_clust_6="34.59660"></scales>
<mgrwt>
<rscale>  0 0.30000000E+03</rscale>
<asrwt>  1 0.34596599E+02</asrwt>
<pdfrwt beam="1">  1        1 0.87332691E+00 0.30000000E+03</pdfrwt>
<pdfrwt beam="2">0</pdfrwt>
<totfact> 0.23466561E-04</totfact>
</mgrwt>
<clustering>
<clus scale="   34.597">  1  6  2 -1</clus>
<clus scale="  478.037">  4  5 -1 -1</clus>
<clus scale="  300.000">  1  4  2 -1</clus>
</clustering>
</event>
<event>
 6    1  0.1000035E-011  0.3000000E+03  0.7818608E-02  0.1093470E+00
          1   -1    0    0  502    0  0.00000000000E+00  0.00000000000E+00  0.24128142688E+03  0.24128142688E+03  0.00000000000E+00 0.  1.
         13   -1    0    0    0    0 -0.00000000000E+00 -0.00000000000E+00 -0.27500000000E+03  0.27500000000E+03  0.00000000000E+00 0.  1.
    9000005    2    1    2  501    0 -0.29356596067E+02  0.13659677148E+02 -0.67107601757E+02  0.46977095767E+03  0.46382424036E+03 0.  0.
         13    1    3    3    0    0 -0.14208972667E+03  0.53030165238E+02 -0.22528696209E+03  0.27158038246E+03  0.00000000000E+00 0.  1.
          3    1    3    3  501    0  0.11273313061E+03 -0.39370488091E+02  0.15817936033E+03  0.19819057521E+03  0.00000000000E+00 0.  1.
         21    1    1    2  502  501  0.29356596067E+02 -0.13659677148E+02  0.33389028637E+02  0.46510469206E+02  0.00000000000E+00 0.  1.
<scales pt_clust_4="550.00000" pt_clust_5="550.00000" pt_clust_6="32.37895"></scales>
<mgrwt>
<rscale>  0 0.30000000E+03</rscale>
<asrwt>  1 0.32378952E+02</asrwt>
<pdfrwt beam="1">  1        1 0.87738701E+00 0.30000000E+03</pdfrwt>
<pdfrwt beam="2">0</pdfrwt>
<totfact> 0.21500032E-04</totfact>
</mgrwt>
<clustering>
<clus scale="   32.379">  1  6  2 -1</clus>
<clus scale="  463.824">  4  5 -1 -1</clus>
<clus scale="  300.000">  1  4  2 -1</clus>
</clustering>
</event>
<event>
 6    1  0.1000035E-011  0.3000000E+03  0.7818608E-02  0.1093470E+00
          1   -1    0    0  502    0  0.00000000000E+00  0.00000000000E+00  0.23245552287E+03  0.23245552287E+03  0.00000000000E+00 0.  1.
         13   -1    0    0    0    0 -0.00000000000E+00 -0.00000000000E+00 -0.27500000000E+03  0.27500000000E+03  0.00000000000E+00 0.  1.
    9000005    2    1    2  501    0  0.20618180696E+02 -0.28985342849E+02 -0.59214842209E+02  0.46817244067E+03  0.46304835297E+03 0.  0.
         13    1    3    3    0    0 -0.94203021313E+02  0.12909934573E+03 -0.17823496650E+03  0.23939204995E+03  0.00000000000E+00 0.  1.
          1    1    3    3  501    0  0.11482120201E+03 -0.15808468858E+03  0.11902012429E+03  0.22878039073E+03  0.00000000000E+00 0.  1.
         21    1    1    2  502  501 -0.20618180696E+02  0.28985342849E+02  0.16670365082E+02  0.39283082201E+02  0.00000000000E+00 0.  1.
<scales pt_clust_4="550.00000" pt_clust_5="550.00000" pt_clust_6="35.57049"></scales>
<mgrwt>
<rscale>  0 0.30000000E+03</rscale>
<asrwt>  1 0.35570486E+02</asrwt>
<pdfrwt beam="1">  1        1 0.84529281E+00 0.30000000E+03</pdfrwt>
<pdfrwt beam="2">0</pdfrwt>
<totfact> 0.44780991E-04</totfact>
</mgrwt>
<clustering>
<clus scale="   35.570">  1  6  2 -1</clus>
<clus scale="  463.048">  4  5 -1 -1</clus>
<clus scale="  300.000">  1  4  2 -1</clus>
</clustering>
</event>
<event>
 6    1  0.1000035E-011  0.3000000E+03  0.7818608E-02  0.1093470E+00
          1   -1    0    0  502    0  0.00000000000E+00  0.00000000000E+00  0.24994244420E+03  0.24994244420E+03  0.00000000000E+00 0.  1.
         13   -1    0    0    0    0 -0.00000000000E+00 -0.00000000000E+00 -0.27500000000E+03  0.27500000000E+03  0.00000000000E+00 0.  1.
    9000005    2    1    2  501    0  0.25501509440E+02 -0.24599144110E+02 -0.64457446404E+02  0.47195380151E+03  0.46618685469E+03 0.  0.
         13    1    3    3    0    0  0.33418010315E+02  0.31884486570E+00  0.20173299829E+03  0.20448243855E+03  0.00000000000E+00 0.  1.
          3    1    3    3  501    0 -0.79165008752E+01 -0.24917988976E+02 -0.26619044469E+03  0.26747136296E+03  0.00000000000E+00 0.  1.
         21    1    1    2  502  501 -0.25501509440E+02  0.24599144110E+02  0.39399890605E+02  0.52988642692E+02  0.00000000000E+00 0. -1.
<scales pt_clust_4="550.00000" pt_clust_5="550.00000" pt_clust_6="35.43226"></scales>
<mgrwt>
<rscale>  0 0.30000000E+03</rscale>
<asrwt>  1 0.35432258E+02</asrwt>
<pdfrwt beam="1">  1        1 0.90888162E+00 0.30000000E+03</pdfrwt>
<pdfrwt beam="2">0</pdfrwt>
<totfact> 0.76244167E-05</totfact>
</mgrwt>
<clustering>
<clus scale="   35.432">  1  6  2 -1</clus>
<clus scale="  466.187">  4  5 -1 -1</clus>
<clus scale="  300.000">  1  4  2 -1</clus>
</clustering>
</event>
<event>
 6    1  0.1000035E-011  0.3000000E+03  0.7818608E-02  0.1093470E+00
          1   -1    0    0  502    0  0.00000000000E+00  0.00000000000E+00  0.22591268447E+03  0.22591268447E+03  0.00000000000E+00 0.  1.
         13   -1    0    0    0    0 -0.00000000000E+00 -0.00000000000E+00 -0.27500000000E+03  0.27500000000E+03  0.00000000000E+00 0.  1.
    9000005    2    1    2  501    0  0.41819045735E+00 -0.34622061519E+02 -0.60165851347E+02  0.46455892286E+03  0.45934322801E+03 0.  0.
         13    1    3    3    0    0  0.70589097076E+01 -0.20661708340E+03 -0.16369618681E+03  0.26369848110E+03  0.00000000000E+00 0.  1.
          3    1    3    3  501    0 -0.66407192502E+01  0.17199502188E+03  0.10353033546E+03  0.20086044176E+03  0.00000000000E+00 0.  1.
         21    1    1    2  502  501 -0.41819045735E+00  0.34622061519E+02  0.11078535814E+02  0.36353761606E+02  0.00000000000E+00 0. -1.
<scales pt_clust_4="550.00000" pt_clust_5="550.00000" pt_clust_6="34.62459"></scales>
<mgrwt>
<rscale>  0 0.30000000E+03</rscale>
<asrwt>  1 0.34624587E+02</asrwt>
<pdfrwt beam="1">  1        1 0.82150067E+00 0.30000000E+03</pdfrwt>
<pdfrwt beam="2">0</pdfrwt>
<totfact> 0.70318332E-04</totfact>
</mgrwt>
<clustering>
<clus scale="   34.625">  1  6  2 -1</clus>
<clus scale="  459.343">  4  5 -1 -1</clus>
<clus scale="  300.000">  1  4  2 -1</clus>
</clustering>
</event>
<event>
 6    1  0.1000035E-011  0.3000000E+03  0.7818608E-02  0.1093470E+00
          1   -1    0    0  502    0  0.00000000000E+00  0.00000000000E+00  0.22262833881E+03  0.22262833881E+03  0.00000000000E+00 0.  1.
         13   -1    0    0    0    0 -0.00000000000E+00 -0.00000000000E+00 -0.27500000000E+03  0.27500000000E+03  0.00000000000E+00 0.  1.
    9000005    2    1    2  501    0  0.27504398534E+02 -0.13535048518E+02 -0.62625271869E+02  0.46530457033E+03  0.46005078960E+03 0.  0.
         13    1    3    3    0    0 -0.17437674621E+03  0.40109283527E+02  0.95961572027E+02  0.20303848785E+03  0.00000000000E+00 0.  1.
          1    1    3    3  501    0  0.20188114474E+03 -0.53644332045E+02 -0.15858684390E+03  0.26226608248E+03  0.00000000000E+00 0.  1.
         21    1    1    2  502  501 -0.27504398534E+02  0.13535048518E+02  0.10253610684E+02  0.32323768486E+02  0.00000000000E+00 0. -1.
<scales pt_clust_4="550.00000" pt_clust_5="550.00000" pt_clust_6="30.65435"></scales>
<mgrwt>
<rscale>  0 0.30000000E+03</rscale>
<asrwt>  1 0.30654355E+02</asrwt>
<pdfrwt beam="1">  1        1 0.80955760E+00 0.30000000E+03</pdfrwt>
<pdfrwt beam="2">0</pdfrwt>
<totfact> 0.90144245E-04</totfact>
</mgrwt>
<clustering>
<clus scale="   30.654">  1  6  2 -1</clus>
<clus scale="  460.051">  4  5 -1 -1</clus>
<clus scale="  300.000">  1  4  2 -1</clus>
</clustering>
</event>
<event>
 6    1  0.1000035E-011  0.3000000E+03  0.7818608E-02  0.1093470E+00
          1   -1    0    0  502    0  0.00000000000E+00  0.00000000000E+00  0.24130330831E+03  0.24130330831E+03  0.00000000000E+00 0.  1.
         13   -1    0    0    0    0 -0.00000000000E+00 -0.00000000000E+00 -0.27500000000E+03  0.27500000000E+03  0.00000000000E+00 0.  1.
    9000005    2    1    2  501    0  0.24985276660E+02 -0.29478914861E+02 -0.66204503999E+02  0.46580550309E+03  0.45945452428E+03 0.  0.
         13    1    3    3    0    0  0.59935291986E+02 -0.57855441473E+02  0.18906129766E+03  0.20660025559E+03  0.00000000000E+00 0.  1.
          1    1    3    3  501    0 -0.34950015326E+02  0.28376526612E+02 -0.25526580166E+03  0.25920524750E+03  0.00000000000E+00 0.  1.
         21    1    1    2  502  501 -0.24985276660E+02  0.29478914861E+02  0.32507812308E+02  0.50497805222E+02  0.00000000000E+00 0.  1.
<scales pt_clust_4="550.00000" pt_clust_5="550.00000" pt_clust_6="38.64286"></scales>
<mgrwt>
<rscale>  0 0.30000000E+03</rscale>
<asrwt>  1 0.38642858E+02</asrwt>
<pdfrwt beam="1">  1        1 0.87746658E+00 0.30000000E+03</pdfrwt>
<pdfrwt beam="2">0</pdfrwt>
<totfact> 0.20758903E-04</totfact>
</mgrwt>
<clustering>
<clus scale="   38.643">  1  6  2 -1</clus>
<clus scale="  459.455">  4  5 -1 -1</clus>
<clus scale="  300.000">  1  4  2 -1</clus>
</clustering>
</event>
<event>
 6    1  0.1000035E-011  0.3000000E+03  0.7818608E-02  0.1093470E+00
          1   -1    0    0  502    0  0.00000000000E+00  0.00000000000E+00  0.22772810736E+03  0.22772810736E+03  0.00000000000E+00 0.  1.
         13   -1    0    0    0    0 -0.00000000000E+00 -0.00000000000E+00 -0.27500000000E+03  0.27500000000E+03  0.00000000000E+00 0.  1.
    9000005    2    1    2  501    0 -0.38672275021E+02 -0.51426507462E+01 -0.50000778879E+02  0.46362007069E+03  0.45926190822E+03 0.  0.
         13    1    3    3    0    0  0.19454927271E+03  0.52700877067E+02  0.42764595651E+02  0.20604759789E+03  0.00000000000E+00 0.  1.
          1    1    3    3  501    0 -0.23322154773E+03 -0.57843527813E+02 -0.92765374529E+02  0.25757247280E+03  0.00000000000E+00 0.  1.
         21    1    1    2  502  501  0.38672275021E+02  0.51426507462E+01  0.27288862369E+01  0.39108036668E+02  0.00000000000E+00 0. -1.
<scales pt_clust_4="550.00000" pt_clust_5="550.00000" pt_clust_6="39.01271"></scales>
<mgrwt>
<rscale>  0 0.30000000E+03</rscale>
<asrwt>  1 0.39012712E+02</asrwt>
<pdfrwt beam="1">  1        1 0.82810221E+00 0.30000000E+03</pdfrwt>
<pdfrwt beam="2">0</pdfrwt>
<totfact> 0.60109029E-04</totfact>
</mgrwt>
<clustering>
<clus scale="   39.013">  1  6  2 -1</clus>
<clus scale="  459.262">  4  5 -1 -1</clus>
<clus scale="  300.000">  1  4  2 -1</clus>
</clustering>
</event>
<event>
 6    1  0.1000035E-011  0.3000000E+03  0.7818608E-02  0.1093470E+00
          1   -1    0    0  502    0  0.00000000000E+00  0.00000000000E+00  0.23232740010E+03  0.23232740010E+03  0.00000000000E+00 0.  1.
         13   -1    0    0    0    0 -0.00000000000E+00 -0.00000000000E+00 -0.27500000000E+03  0.27500000000E+03  0.00000000000E+00 0.  1.
    9000005    2    1    2  501    0  0.40719347200E+02 -0.12620468963E+02 -0.55853013396E+02  0.46270605125E+03  0.45734012429E+03 0.  0.
         13    1    3    3    0    0 -0.19428640557E+03  0.74909144833E+02 -0.16765961682E+02  0.20890113652E+03  0.00000000000E+00 0.  1.
          3    1    3    3  501    0  0.23500575277E+03 -0.87529613796E+02 -0.39087051714E+02  0.25380491473E+03  0.00000000000E+00 0.  1.
         21    1    1    2  502  501 -0.40719347200E+02  0.12620468963E+02  0.13180413496E+02  0.44621348850E+02  0.00000000000E+00 0.  1.
<scales pt_clust_4="550.00000" pt_clust_5="550.00000" pt_clust_6="42.63029"></scales>
<mgrwt>
<rscale>  0 0.30000000E+03</rscale>
<asrwt>  1 0.42630288E+02</asrwt>
<pdfrwt beam="1">  1        1 0.84482691E+00 0.30000000E+03</pdfrwt>
<pdfrwt beam="2">0</pdfrwt>
<totfact> 0.43726902E-04</totfact>
</mgrwt>
<clustering>
<clus scale="   42.630">  1  6  2 -1</clus>
<clus scale="  457.340">  4  5 -1 -1</clus>
<clus scale="  300.000">  1  4  2 -1</clus>
</clustering>
</event>
<event>
 6    1  0.1000035E-011  0.3000000E+03  0.7818608E-02  0.1093470E+00
          1   -1    0    0  502    0  0.00000000000E+00  0.00000000000E+00  0.24338530386E+03  0.24338530386E+03  0.00000000000E+00 0.  1.
         13   -1    0    0    0    0 -0.00000000000E+00 -0.00000000000E+00 -0.27500000000E+03  0.27500000000E+03  0.00000000000E+00 0.  1.
    9000005    2    1    2  501    0 -0.20205724008E+02  0.26863471246E+02 -0.23224337725E+02  0.48373973438E+03  0.48201124819E+03 0.  0.
         13    1    3    3    0    0  0.14150962994E+03  0.81347557531E+02 -0.18630832029E+03  0.24769576236E+03  0.00000000000E+00 0.  1.
          3    1    3    3  501    0 -0.16171535395E+03 -0.54484086284E+02  0.16308398256E+03  0.23604397202E+03  0.00000000000E+00 0.  1.
         21    1    1    2  502  501  0.20205724008E+02 -0.26863471246E+02 -0.83903584172E+01  0.34645569478E+02  0.00000000000E+00 0.  1.
<scales pt_clust_4="550.00000" pt_clust_5="550.00000" pt_clust_6="33.61426"></scales>
<mgrwt>
<rscale>  0 0.30000000E+03</rscale>
<asrwt>  1 0.33614260E+02</asrwt>
<pdfrwt beam="1">  1        1 0.88503747E+00 0.30000000E+03</pdfrwt>
<pdfrwt beam="2">0</pdfrwt>
<totfact> 0.17079789E-04</totfact>
</mgrwt>
<clustering>
<clus scale="   33.614">  1  6  2 -1</clus>
<clus scale="  482.011">  4  5 -1 -1</clus>
<clus scale="  300.000">  1  4  2 -1</clus>
</clustering>
</event>
<event>
 6    1  0.1000035E-011  0.3000000E+03  0.7818608E-02  0.1093470E+00
          1   -1    0    0  502    0  0.00000000000E+00  0.00000000000E+00  0.24168384600E+03  0.24168384600E+03  0.00000000000E+00 0.  1.
         13   -1    0    0    0    0 -0.00000000000E+00 -0.00000000000E+00 -0.27500000000E+03  0.27500000000E+03  0.00000000000E+00 0.  1.
    9000005    2    1    2  501    0 -0.31014531398E+02 -0.67953217499E+01 -0.41712961384E+02  0.48384204444E+03  0.48099384119E+03 0.  0.
         13    1    3    3    0    0 -0.98850363578E+01 -0.12225417572E+03  0.18881332034E+03  0.22515387485E+03  0.00000000000E+00 0.  1.
          1    1    3    3  501    0 -0.21129495040E+02  0.11545885397E+03 -0.23052628172E+03  0.25868816959E+03  0.00000000000E+00 0.  1.
         21    1    1    2  502  501  0.31014531398E+02  0.67953217499E+01  0.83968073847E+01  0.32841801561E+02  0.00000000000E+00 0.  1.
<scales pt_clust_4="550.00000" pt_clust_5="550.00000" pt_clust_6="31.75024"></scales>
<mgrwt>
<rscale>  0 0.30000000E+03</rscale>
<asrwt>  1 0.31750237E+02</asrwt>
<pdfrwt beam="1">  1        1 0.87885035E+00 0.30000000E+03</pdfrwt>
<pdfrwt beam="2">0</pdfrwt>
<totfact> 0.20757792E-04</totfact>
</mgrwt>
<clustering>
<clus scale="   31.750">  1  6  2 -1</clus>
<clus scale="  480.994">  4  5 -1 -1</clus>
<clus scale="  300.000">  1  4  2 -1</clus>
</clustering>
</event>
<event>
 6    1  0.1000035E-011  0.3000000E+03  0.7818608E-02  0.1093470E+00
          1   -1    0    0  502    0  0.00000000000E+00  0.00000000000E+00  0.22602726864E+03  0.22602726864E+03  0.00000000000E+00 0.  1.
         13   -1    0    0    0    0 -0.00000000000E+00 -0.00000000000E+00 -0.27500000000E+03  0.27500000000E+03  0.00000000000E+00 0.  1.
    9000005    2    1    2  501    0  0.23091115461E+02  0.25067335653E+02 -0.59568864860E+02  0.46533624771E+03  0.46024754518E+03 0.  0.
         13    1    3    3    0    0 -0.12129145632E+03 -0.17062619634E+02  0.15857296038E+03  0.20036999309E+03  0.00000000000E+00 0.  1.
          1    1    3    3  501    0  0.14438257178E+03  0.42129955287E+02 -0.21814182524E+03  0.26496625462E+03  0.00000000000E+00 0.  1.
         21    1    1    2  502  501 -0.23091115461E+02 -0.25067335653E+02  0.10596133499E+02  0.35691020931E+02  0.00000000000E+00 0.  1.
<scales pt_clust_4="550.00000" pt_clust_5="550.00000" pt_clust_6="34.08183"></scales>
<mgrwt>
<rscale>  0 0.30000000E+03</rscale>
<asrwt>  1 0.34081827E+02</asrwt>
<pdfrwt beam="1">  1        1 0.82191734E+00 0.30000000E+03</pdfrwt>
<pdfrwt beam="2">0</pdfrwt>
<totfact> 0.69931797E-04</totfact>
</mgrwt>
<clustering>
<clus scale="   34.082">  1  6  2 -1</clus>
<clus scale="  460.248">  4  5 -1 -1</clus>
<clus scale="  300.000">  1  4  2 -1</clus>
</clustering>
</event>
<event>
 6    1  0.1000035E-011  0.3000000E+03  0.7818608E-02  0.1093470E+00
          1   -1    0    0  502    0  0.00000000000E+00  0.00000000000E+00  0.24598643947E+03  0.24598643947E+03  0.00000000000E+00 0.  1.
         13   -1    0    0    0    0 -0.00000000000E+00 -0.00000000000E+00 -0.27500000000E+03  0.27500000000E+03  0.00000000000E+00 0.  1.
    9000005    2    1    2  501    0  0.31756576645E+02  0.16543466326E+02 -0.26215085874E+02  0.48506989873E+03  0.48303561927E+03 0.  0.
         13    1    3    3    0    0  0.26369717418E+02  0.23978165657E+03 -0.82213653601E+02  0.25485228989E+03  0.00000000000E+00 0.  1.
          3    1    3    3  501    0  0.53868592275E+01 -0.22323819024E+03  0.55998567726E+02  0.23021760884E+03  0.00000000000E+00 0.  1.
         21    1    1    2  502  501 -0.31756576645E+02 -0.16543466326E+02 -0.27984746564E+01  0.35916540739E+02  0.00000000000E+00 0. -1.
<scales pt_clust_4="550.00000" pt_clust_5="550.00000" pt_clust_6="35.80737"></scales>
<mgrwt>
<rscale>  0 0.30000000E+03</rscale>
<asrwt>  1 0.35807370E+02</asrwt>
<pdfrwt beam="1">  1        1 0.89449614E+00 0.30000000E+03</pdfrwt>
<pdfrwt beam="2">0</pdfrwt>
<totfact> 0.12720816E-04</totfact>
</mgrwt>
<clustering>
<clus scale="   35.807">  1  6  2 -1</clus>
<clus scale="  483.036">  4  5 -1 -1</clus>
<clus scale="  300.000">  1  4  2 -1</clus>
</clustering>
</event>
<event>
 6    1  0.1000035E-011  0.3000000E+03  0.7818608E-02  0.1093470E+00
          1   -1    0    0  502    0  0.00000000000E+00  0.00000000000E+00  0.23114434904E+03  0.23114434904E+03  0.00000000000E+00 0.  1.
         13   -1    0    0    0    0 -0.00000000000E+00 -0.00000000000E+00 -0.27500000000E+03  0.27500000000E+03  0.00000000000E+00 0.  1.
    9000005    2    1    2  501    0 -0.13844483628E+02 -0.30962703485E+02 -0.51122650742E+02  0.47145763660E+03  0.46744884101E+03 0.  0.
         13    1    3    3    0    0 -0.16227664653E+03  0.14420669427E+03  0.46413352466E+02  0.22199882875E+03  0.00000000000E+00 0.  1.
          1    1    3    3  501    0  0.14843216290E+03 -0.17516939775E+03 -0.97536003208E+02  0.24945880785E+03  0.00000000000E+00 0.  1.
         21    1    1    2  502  501  0.13844483628E+02  0.30962703485E+02  0.72669997853E+01  0.34686712440E+02  0.00000000000E+00 0.  1.
<scales pt_clust_4="550.00000" pt_clust_5="550.00000" pt_clust_6="33.91694"></scales>
<mgrwt>
<rscale>  0 0.30000000E+03</rscale>
<asrwt>  1 0.33916939E+02</asrwt>
<pdfrwt beam="1">  1        1 0.84052491E+00 0.30000000E+03</pdfrwt>
<pdfrwt beam="2">0</pdfrwt>
<totfact> 0.49532825E-04</totfact>
</mgrwt>
<clustering>
<clus scale="   33.917">  1  6  2 -1</clus>
<clus scale="  467.449">  4  5 -1 -1</clus>
<clus scale="  300.000">  1  4  2 -1</clus>
</clustering>
</event>
<event>
 6    1  0.1000035E-011  0.3000000E+03  0.7818608E-02  0.1093470E+00
          1   -1    0    0  502    0  0.00000000000E+00  0.00000000000E+00  0.23887843859E+03  0.23887843859E+03  0.00000000000E+00 0.  1.
         13   -1    0    0    0    0 -0.00000000000E+00 -0.00000000000E+00 -0.27500000000E+03  0.27500000000E+03  0.00000000000E+00 0.  1.
    9000005    2    1    2  501    0  0.62532744023E+01  0.37952126508E+02 -0.55344719345E+02  0.47087847175E+03  0.46603007398E+03 0.  0.
         13    1    3    3    0    0 -0.19627621306E+03 -0.56070112707E+02  0.68784539925E+02  0.21540548342E+03  0.00000000000E+00 0.  1.
          1    1    3    3  501    0  0.20252948747E+03  0.94022239216E+02 -0.12412925927E+03  0.25547298833E+03  0.00000000000E+00 0.  1.
         21    1    1    2  502  501 -0.62532744023E+01 -0.37952126508E+02  0.19223157935E+02  0.42999966840E+02  0.00000000000E+00 0.  1.
<scales pt_clust_4="550.00000" pt_clust_5="550.00000" pt_clust_6="38.46384"></scales>
<mgrwt>
<rscale>  0 0.30000000E+03</rscale>
<asrwt>  1 0.38463845E+02</asrwt>
<pdfrwt beam="1">  1        1 0.86864887E+00 0.30000000E+03</pdfrwt>
<pdfrwt beam="2">0</pdfrwt>
<totfact> 0.25693608E-04</totfact>
</mgrwt>
<clustering>
<clus scale="   38.464">  1  6  2 -1</clus>
<clus scale="  466.030">  4  5 -1 -1</clus>
<clus scale="  300.000">  1  4  2 -1</clus>
</clustering>
</event>
<event>
 6    1  0.1000035E-011  0.3000000E+03  0.7818608E-02  0.1093470E+00
          1   -1    0    0  502    0  0.00000000000E+00  0.00000000000E+00  0.24753432695E+03  0.24753432695E+03  0.00000000000E+00 0.  1.
         13   -1    0    0    0    0 -0.00000000000E+00 -0.00000000000E+00 -0.27500000000E+03  0.27500000000E+03  0.00000000000E+00 0.  1.
    9000005    2    1    2  501    0 -0.43181889629E+01  0.32416464822E+02 -0.56442149184E+02  0.47884096228E+03  0.47437693557E+03 0.  0.
         13    1    3    3    0    0  0.15461345314E+03  0.66972990653E+01  0.15102133585E+03  0.21623509796E+03  0.00000000000E+00 0.  1.
          1    1    3    3  501    0 -0.15893164211E+03  0.25719165756E+02 -0.20746348504E+03  0.26260586432E+03  0.00000000000E+00 0.  1.
         21    1    1    2  502  501  0.43181889629E+01 -0.32416464822E+02  0.28976476138E+02  0.43693364677E+02  0.00000000000E+00 0.  1.
<scales pt_clust_4="550.00000" pt_clust_5="550.00000" pt_clust_6="32.70281"></scales>
<mgrwt>
<rscale>  0 0.30000000E+03</rscale>
<asrwt>  1 0.32702813E+02</asrwt>
<pdfrwt beam="1">  1        1 0.90012483E+00 0.30000000E+03</pdfrwt>
<pdfrwt beam="2">0</pdfrwt>
<totfact> 0.11145785E-04</totfact>
</mgrwt>
<clustering>
<clus scale="   32.703">  1  6  2 -1</clus>
<clus scale="  474.377">  4  5 -1 -1</clus>
<clus scale="  300.000">  1  4  2 -1</clus>
</clustering>
</event>
<event>
 6    1  0.1000035E-011  0.3000000E+03  0.7818608E-02  0.1093470E+00
          1   -1    0    0  502    0  0.00000000000E+00  0.00000000000E+00  0.23057774806E+03  0.23057774806E+03  0.00000000000E+00 0.  1.
         13   -1    0    0    0    0 -0.00000000000E+00 -0.00000000000E+00 -0.27500000000E+03  0.27500000000E+03  0.00000000000E+00 0.  1.
    9000005    2    1    2  501    0 -0.77131827928E+01  0.29885276699E+02 -0.62751556560E+02  0.46968086296E+03  0.46444561816E+03 0.  0.
         13    1    3    3    0    0 -0.72740999979E+02  0.21887314675E+03  0.55806596053E+02  0.23729956512E+03  0.00000000000E+00 0.  1.
          1    1    3    3  501    0  0.65027817186E+02 -0.18898787005E+03 -0.11855815261E+03  0.23238129784E+03  0.00000000000E+00 0.  1.
         21    1    1    2  502  501  0.77131827928E+01 -0.29885276699E+02  0.18329304622E+02  0.35896885103E+02  0.00000000000E+00 0. -1.
<scales pt_clust_4="550.00000" pt_clust_5="550.00000" pt_clust_6="30.86459"></scales>
<mgrwt>
<rscale>  0 0.30000000E+03</rscale>
<asrwt>  1 0.30864591E+02</asrwt>
<pdfrwt beam="1">  1        1 0.83846454E+00 0.30000000E+03</pdfrwt>
<pdfrwt beam="2">0</pdfrwt>
<totfact> 0.52272586E-04</totfact>
</mgrwt>
<clustering>
<clus scale="   30.865">  1  6  2 -1</clus>
<clus scale="  464.446">  4  5 -1 -1</clus>
<clus scale="  300.000">  1  4  2 -1</clus>
</clustering>
</event>
<event>
 6    1  0.1000035E-011  0.3000000E+03  0.7818608E-02  0.1093470E+00
          1   -1    0    0  502    0  0.00000000000E+00  0.00000000000E+00  0.26608706765E+03  0.26608706765E+03  0.00000000000E+00 0.  1.
         13   -1    0    0    0    0 -0.00000000000E+00 -0.00000000000E+00 -0.27500000000E+03  0.27500000000E+03  0.00000000000E+00 0.  1.
    9000005    2    1    2  501    0 -0.37438128591E+02 -0.26527959721E+02 -0.29437334779E+02  0.49082179918E+03  0.48778492776E+03 0.  0.
         13    1    3    3    0    0 -0.55809948508E+02  0.22703448854E+03 -0.35779852284E+02  0.23651555375E+03  0.00000000000E+00 0.  1.
          3    1    3    3  501    0  0.18371819916E+02 -0.25356244826E+03  0.63425175048E+01  0.25430624543E+03  0.00000000000E+00 0.  1.
         21    1    1    2  502  501  0.37438128591E+02  0.26527959721E+02  0.20524402431E+02  0.50265268472E+02  0.00000000000E+00 0.  1.
<scales pt_clust_4="550.00000" pt_clust_5="550.00000" pt_clust_6="45.88405"></scales>
<mgrwt>
<rscale>  0 0.30000000E+03</rscale>
<asrwt>  1 0.45884051E+02</asrwt>
<pdfrwt beam="1">  1        1 0.96758934E+00 0.30000000E+03</pdfrwt>
<pdfrwt beam="2">0</pdfrwt>
<totfact> 0.51194308E-06</totfact>
</mgrwt>
<clustering>
<clus scale="   45.884">  1  6  2 -1</clus>
<clus scale="  487.785">  4  5 -1 -1</clus>
<clus scale="  300.000">  1  4  2 -1</clus>
</clustering>
</event>
<event>
 6    1  0.1000035E-011  0.3000000E+03  0.7818608E-02  0.1093470E+00
          1   -1    0    0  502    0  0.00000000000E+00  0.00000000000E+00  0.23123299971E+03  0.23123299971E+03  0.00000000000E+00 0.  1.
         13   -1    0    0    0    0 -0.00000000000E+00 -0.00000000000E+00 -0.27500000000E+03  0.27500000000E+03  0.00000000000E+00 0.  1.
    9000005    2    1    2  501    0 -0.29028430398E+02 -0.16784504435E+02 -0.43163865099E+02  0.47269595850E+03  0.46952527150E+03 0.  0.
         13    1    3    3    0    0 -0.11225929588E+03 -0.16073948500E+03  0.12793306971E+03  0.23410724439E+03  0.00000000000E+00 0.  1.
          1    1    3    3  501    0  0.83230865483E+02  0.14395498057E+03 -0.17109693481E+03  0.23858871411E+03  0.00000000000E+00 0.  1.
         21    1    1    2  502  501  0.29028430398E+02  0.16784504435E+02 -0.60313519459E+00  0.33537041202E+02  0.00000000000E+00 0. -1.
<scales pt_clust_4="550.00000" pt_clust_5="550.00000" pt_clust_6="33.53162"></scales>
<mgrwt>
<rscale>  0 0.30000000E+03</rscale>
<asrwt>  1 0.33531617E+02</asrwt>
<pdfrwt beam="1">  1        1 0.84084727E+00 0.30000000E+03</pdfrwt>
<pdfrwt beam="2">0</pdfrwt>
<totfact> 0.49351103E-04</totfact>
</mgrwt>
<clustering>
<clus scale="   33.532">  1  6  2 -1</clus>
<clus scale="  469.525">  4  5 -1 -1</clus>
<clus scale="  300.000">  1  4  2 -1</clus>
</clustering>
</event>
<event>
 6    1  0.1000035E-011  0.3000000E+03  0.7818608E-02  0.1093470E+00
          1   -1    0    0  502    0  0.00000000000E+00  0.00000000000E+00  0.23215697208E+03  0.23215697208E+03  0.00000000000E+00 0.  1.
         13   -1    0    0    0    0 -0.00000000000E+00 -0.00000000000E+00 -0.27500000000E+03  0.27500000000E+03  0.00000000000E+00 0.  1.
    9000005    2    1    2  501    0 -0.46960888721E+01 -0.32281874713E+02 -0.40530272484E+02  0.47445343215E+03  0.47159217933E+03 0.  0.
         13    1    3    3    0    0  0.58094117708E+02 -0.71109288338E+02  0.20148857908E+03  0.22142516772E+03  0.00000000000E+00 0.  1.
          1    1    3    3  501    0 -0.62790206580E+02  0.38827413625E+02 -0.24201885156E+03  0.25302826443E+03  0.00000000000E+00 0.  1.
         21    1    1    2  502  501  0.46960888721E+01  0.32281874713E+02 -0.23127554404E+01  0.32703539922E+02  0.00000000000E+00 0.  1.
<scales pt_clust_4="550.00000" pt_clust_5="550.00000" pt_clust_6="32.62166"></scales>
<mgrwt>
<rscale>  0 0.30000000E+03</rscale>
<asrwt>  1 0.32621660E+02</asrwt>
<pdfrwt beam="1">  1        1 0.84420717E+00 0.30000000E+03</pdfrwt>
<pdfrwt beam="2">0</pdfrwt>
<totfact> 0.46516088E-04</totfact>
</mgrwt>
<clustering>
<clus scale="   32.622">  1  6  2 -1</clus>
<clus scale="  471.592">  4  5 -1 -1</clus>
<clus scale="  300.000">  1  4  2 -1</clus>
</clustering>
</event>
<event>
 6    1  0.1000035E-011  0.3000000E+03  0.7818608E-02  0.1093470E+00
          1   -1    0    0  502    0  0.00000000000E+00  0.00000000000E+00  0.24746810236E+03  0.24746810236E+03  0.00000000000E+00 0.  1.
         13   -1    0    0    0    0 -0.00000000000E+00 -0.00000000000E+00 -0.27500000000E+03  0.27500000000E+03  0.00000000000E+00 0.  1.
    9000005    2    1    2  501    0  0.29435190252E+02 -0.15732900549E+02 -0.57200813383E+02  0.47781164542E+03  0.47319983185E+03 0.  0.
         13    1    3    3    0    0  0.18637173281E+03  0.11326691534E+03  0.80408151910E+02  0.23244200953E+03  0.00000000000E+00 0.  1.
          3    1    3    3  501    0 -0.15693654256E+03 -0.12899981589E+03 -0.13760896529E+03  0.24536963589E+03  0.00000000000E+00 0.  1.
         21    1    1    2  502  501 -0.29435190252E+02  0.15732900549E+02  0.29668915742E+02  0.44656456936E+02  0.00000000000E+00 0. -1.
<scales pt_clust_4="550.00000" pt_clust_5="550.00000" pt_clust_6="33.37596"></scales>
<mgrwt>
<rscale>  0 0.30000000E+03</rscale>
<asrwt>  1 0.33375958E+02</asrwt>
<pdfrwt beam="1">  1        1 0.89988401E+00 0.30000000E+03</pdfrwt>
<pdfrwt beam="2">0</pdfrwt>
<totfact> 0.11180541E-04</totfact>
</mgrwt>
<clustering>
<clus scale="   33.376">  1  6  2 -1</clus>
<clus scale="  473.200">  4  5 -1 -1</clus>
<clus scale="  300.000">  1  4  2 -1</clus>
</clustering>
</event>
<event>
 6    1  0.1000035E-011  0.3000000E+03  0.7818608E-02  0.1093470E+00
          1   -1    0    0  502    0  0.00000000000E+00  0.00000000000E+00  0.22862128737E+03  0.22862128737E+03  0.00000000000E+00 0.  1.
         13   -1    0    0    0    0 -0.00000000000E+00 -0.00000000000E+00 -0.27500000000E+03  0.27500000000E+03  0.00000000000E+00 0.  1.
    9000005    2    1    2  501    0 -0.11932010293E+02  0.27683191064E+02 -0.57534904456E+02  0.47147797464E+03  0.46698231594E+03 0.  0.
         13    1    3    3    0    0  0.20888078029E+03  0.98415506339E+02 -0.63704715150E+02  0.23953096459E+03  0.00000000000E+00 0.  1.
          1    1    3    3  501    0 -0.22081279058E+03 -0.70732315275E+02  0.61698106932E+01  0.23194701006E+03  0.00000000000E+00 0.  1.
         21    1    1    2  502  501  0.11932010293E+02 -0.27683191064E+02  0.11156191828E+02  0.32143312729E+02  0.00000000000E+00 0.  1.
<scales pt_clust_4="550.00000" pt_clust_5="550.00000" pt_clust_6="30.14518"></scales>
<mgrwt>
<rscale>  0 0.30000000E+03</rscale>
<asrwt>  1 0.30145181E+02</asrwt>
<pdfrwt beam="1">  1        1 0.83135014E+00 0.30000000E+03</pdfrwt>
<pdfrwt beam="2">0</pdfrwt>
<totfact> 0.59294122E-04</totfact>
</mgrwt>
<clustering>
<clus scale="   30.145">  1  6  2 -1</clus>
<clus scale="  466.982">  4  5 -1 -1</clus>
<clus scale="  300.000">  1  4  2 -1</clus>
</clustering>
</event>
<event>
 6    1  0.1000035E-011  0.3000000E+03  0.7818608E-02  0.1093470E+00
          1   -1    0    0  502    0  0.00000000000E+00  0.00000000000E+00  0.24586274986E+03  0.24586274986E+03  0.00000000000E+00 0.  1.
         13   -1    0    0    0    0 -0.00000000000E+00 -0.00000000000E+00 -0.27500000000E+03  0.27500000000E+03  0.00000000000E+00 0.  1.
    9000005    2    1    2  501    0 -0.12363117348E+02 -0.33469405213E+02 -0.15743789551E+02  0.48275195688E+03  0.48117412358E+03 0.  0.
         13    1    3    3    0    0  0.39671537744E+02  0.18321246453E+03  0.11928457991E+03  0.22219236952E+03  0.00000000000E+00 0.  1.
          3    1    3    3  501    0 -0.52034655092E+02 -0.21668186975E+03 -0.13502836946E+03  0.26055958736E+03  0.00000000000E+00 0.  1.
         21    1    1    2  502  501  0.12363117348E+02  0.33469405213E+02 -0.13393460584E+02  0.38110792989E+02  0.00000000000E+00 0. -1.
<scales pt_clust_4="550.00000" pt_clust_5="550.00000" pt_clust_6="35.67981"></scales>
<mgrwt>
<rscale>  0 0.30000000E+03</rscale>
<asrwt>  1 0.35679813E+02</asrwt>
<pdfrwt beam="1">  1        1 0.89404636E+00 0.30000000E+03</pdfrwt>
<pdfrwt beam="2">0</pdfrwt>
<totfact> 0.12880012E-04</totfact>
</mgrwt>
<clustering>
<clus scale="   35.680">  1  6  2 -1</clus>
<clus scale="  481.174">  4  5 -1 -1</clus>
<clus scale="  300.000">  1  4  2 -1</clus>
</clustering>
</event>
<event>
 6    1  0.1000035E-011  0.3000000E+03  0.7818608E-02  0.1093470E+00
          1   -1    0    0  502    0  0.00000000000E+00  0.00000000000E+00  0.24247639296E+03  0.24247639296E+03  0.00000000000E+00 0.  1.
         13   -1    0    0    0    0 -0.00000000000E+00 -0.00000000000E+00 -0.27500000000E+03  0.27500000000E+03  0.00000000000E+00 0.  1.
    9000005    2    1    2  501    0  0.39403104904E+02  0.28178752454E+01 -0.49234618983E+02  0.47458346794E+03  0.47036674546E+03 0.  0.
         13    1    3    3    0    0 -0.63433976679E+02  0.18010130239E+03 -0.15316656172E+03  0.24478632346E+03  0.00000000000E+00 0.  1.
          3    1    3    3  501    0  0.10283708158E+03 -0.17728342715E+03  0.10393194274E+03  0.22979714448E+03  0.00000000000E+00 0.  1.
         21    1    1    2  502  501 -0.39403104904E+02 -0.28178752454E+01  0.16711011947E+02  0.42892925026E+02  0.00000000000E+00 0. -1.
<scales pt_clust_4="550.00000" pt_clust_5="550.00000" pt_clust_6="39.50374"></scales>
<mgrwt>
<rscale>  0 0.30000000E+03</rscale>
<asrwt>  1 0.39503735E+02</asrwt>
<pdfrwt beam="1">  1        1 0.88173234E+00 0.30000000E+03</pdfrwt>
<pdfrwt beam="2">0</pdfrwt>
<totfact> 0.18351486E-04</totfact>
</mgrwt>
<clustering>
<clus scale="   39.504">  1  6  2 -1</clus>
<clus scale="  470.367">  4  5 -1 -1</clus>
<clus scale="  300.000">  1  4  2 -1</clus>
</clustering>
</event>
<event>
 6    1  0.1000035E-011  0.3000000E+03  0.7818608E-02  0.1093470E+00
          1   -1    0    0  502    0  0.00000000000E+00  0.00000000000E+00  0.23511994462E+03  0.23511994462E+03  0.00000000000E+00 0.  1.
         13   -1    0    0    0    0 -0.00000000000E+00 -0.00000000000E+00 -0.27500000000E+03  0.27500000000E+03  0.00000000000E+00 0.  1.
    9000005    2    1    2  501    0  0.32283851769E+02 -0.21668843072E+02 -0.59309916563E+02  0.46665380434E+03  0.46123347781E+03 0.  0.
         13    1    3    3    0    0  0.19034598772E+03 -0.15193943582E+03 -0.89781820056E+02  0.25957265344E+03  0.00000000000E+00 0.  1.
          3    1    3    3  501    0 -0.15806213595E+03  0.13027059275E+03  0.30471903493E+02  0.20708115090E+03  0.00000000000E+00 0.  1.
         21    1    1    2  502  501 -0.32283851769E+02  0.21668843072E+02  0.19429861179E+02  0.43466140276E+02  0.00000000000E+00 0.  1.
<scales pt_clust_4="550.00000" pt_clust_5="550.00000" pt_clust_6="38.88169"></scales>
<mgrwt>
<rscale>  0 0.30000000E+03</rscale>
<asrwt>  1 0.38881690E+02</asrwt>
<pdfrwt beam="1">  1        1 0.85498162E+00 0.30000000E+03</pdfrwt>
<pdfrwt beam="2">0</pdfrwt>
<totfact> 0.35745654E-04</totfact>
</mgrwt>
<clustering>
<clus scale="   38.882">  1  6  2 -1</clus>
<clus scale="  461.233">  4  5 -1 -1</clus>
<clus scale="  300.000">  1  4  2 -1</clus>
</clustering>
</event>
<event>
 6    1  0.1000035E-011  0.3000000E+03  0.7818608E-02  0.1093470E+00
          1   -1    0    0  502    0  0.00000000000E+00  0.00000000000E+00  0.24193940828E+03  0.24193940828E+03  0.00000000000E+00 0.  1.
         13   -1    0    0    0    0 -0.00000000000E+00 -0.00000000000E+00 -0.27500000000E+03  0.27500000000E+03  0.00000000000E+00 0.  1.
    9000005    2    1    2  501    0 -0.26841442783E+02 -0.30397591802E+02 -0.42720197293E+02  0.47525266437E+03  0.47158838312E+03 0.  0.
         13    1    3    3    0    0  0.15211980810E+03 -0.48946836717E+02  0.14460718023E+03  0.21551674045E+03  0.00000000000E+00 0.  1.
          3    1    3    3  501    0 -0.17896125088E+03  0.18549244915E+02 -0.18732737752E+03  0.25973592392E+03  0.00000000000E+00 0.  1.
         21    1    1    2  502  501  0.26841442783E+02  0.30397591802E+02  0.96596055757E+01  0.41686743911E+02  0.00000000000E+00 0. -1.
<scales pt_clust_4="550.00000" pt_clust_5="550.00000" pt_clust_6="40.55215"></scales>
<mgrwt>
<rscale>  0 0.30000000E+03</rscale>
<asrwt>  1 0.40552147E+02</asrwt>
<pdfrwt beam="1">  1        1 0.87977967E+00 0.30000000E+03</pdfrwt>
<pdfrwt beam="2">0</pdfrwt>
<totfact> 0.19328717E-04</totfact>
</mgrwt>
<clustering>
<clus scale="   40.552">  1  6  2 -1</clus>
<clus scale="  471.588">  4  5 -1 -1</clus>
<clus scale="  300.000">  1  4  2 -1</clus>
</clustering>
</event>
<event>
 6    1  0.1000035E-011  0.3000000E+03  0.7818608E-02  0.1093470E+00
          1   -1    0    0  502    0  0.00000000000E+00  0.00000000000E+00  0.24573096875E+03  0.24573096875E+03  0.00000000000E+00 0.  1.
         13   -1    0    0    0    0 -0.00000000000E+00 -0.00000000000E+00 -0.27500000000E+03  0.27500000000E+03  0.00000000000E+00 0.  1.
    9000005    2    1    2  501    0 -0.22240042502E+01 -0.44400581289E+02 -0.34168114505E+02  0.47600559754E+03  0.47269177169E+03 0.  0.
         13    1    3    3    0    0 -0.20181627553E+03 -0.89508549062E+02 -0.12322950784E+03  0.25283809252E+03  0.00000000000E+00 0.  1.
          3    1    3    3  501    0  0.19959227128E+03  0.45107967773E+02  0.89061393335E+02  0.22316750502E+03  0.00000000000E+00 0.  1.
         21    1    1    2  502  501  0.22240042502E+01  0.44400581289E+02  0.48990832588E+01  0.44725371217E+02  0.00000000000E+00 0. -1.
<scales pt_clust_4="550.00000" pt_clust_5="550.00000" pt_clust_6="44.45625"></scales>
<mgrwt>
<rscale>  0 0.30000000E+03</rscale>
<asrwt>  1 0.44456246E+02</asrwt>
<pdfrwt beam="1">  1        1 0.89356716E+00 0.30000000E+03</pdfrwt>
<pdfrwt beam="2">0</pdfrwt>
<totfact> 0.12530850E-04</totfact>
</mgrwt>
<clustering>
<clus scale="   44.456">  1  6  2 -1</clus>
<clus scale="  472.692">  4  5 -1 -1</clus>
<clus scale="  300.000">  1  4  2 -1</clus>
</clustering>
</event>
<event>
 6    1  0.1000035E-011  0.3000000E+03  0.7818608E-02  0.1093470E+00
          1   -1    0    0  502    0  0.00000000000E+00  0.00000000000E+00  0.22612333526E+03  0.22612333526E+03  0.00000000000E+00 0.  1.
         13   -1    0    0    0    0 -0.00000000000E+00 -0.00000000000E+00 -0.27500000000E+03  0.27500000000E+03  0.00000000000E+00 0.  1.
    9000005    2    1    2  501    0  0.23700629142E+02 -0.29779701228E+02 -0.58073793748E+02  0.46196803410E+03  0.45672020821E+03 0.  0.
         13    1    3    3    0    0  0.17104348062E+03 -0.14985183500E+03  0.63797070235E+02  0.23618109764E+03  0.00000000000E+00 0.  1.
          3    1    3    3  501    0 -0.14734285147E+03  0.12007213377E+03 -0.12187086398E+03  0.22578693646E+03  0.00000000000E+00 0.  1.
         21    1    1    2  502  501 -0.23700629142E+02  0.29779701228E+02  0.91971290129E+01  0.39155301162E+02  0.00000000000E+00 0. -1.
<scales pt_clust_4="550.00000" pt_clust_5="550.00000" pt_clust_6="38.05983"></scales>
<mgrwt>
<rscale>  0 0.30000000E+03</rscale>
<asrwt>  1 0.38059827E+02</asrwt>
<pdfrwt beam="1">  1        1 0.82226667E+00 0.30000000E+03</pdfrwt>
<pdfrwt beam="2">0</pdfrwt>
<totfact> 0.68023158E-04</totfact>
</mgrwt>
<clustering>
<clus scale="   38.060">  1  6  2 -1</clus>
<clus scale="  456.720">  4  5 -1 -1</clus>
<clus scale="  300.000">  1  4  2 -1</clus>
</clustering>
</event>
<event>
 6    1  0.1000035E-011  0.3000000E+03  0.7818608E-02  0.1093470E+00
          1   -1    0    0  502    0  0.00000000000E+00  0.00000000000E+00  0.23678023178E+03  0.23678023178E+03  0.00000000000E+00 0.  1.
         13   -1    0    0    0    0 -0.00000000000E+00 -0.00000000000E+00 -0.27500000000E+03  0.27500000000E+03  0.00000000000E+00 0.  1.
    9000005    2    1    2  501    0 -0.31364788943E+02 -0.16528735183E+02 -0.50433978374E+02  0.47428175179E+03  0.47025806195E+03 0.  0.
         13    1    3    3    0    0 -0.22849925498E+03 -0.50459289160E+02  0.65606372994E+02  0.24302725272E+03  0.00000000000E+00 0.  1.
          3    1    3    3  501    0  0.19713446604E+03  0.33930553977E+02 -0.11604035137E+03  0.23125449907E+03  0.00000000000E+00 0.  1.
         21    1    1    2  502  501  0.31364788943E+02  0.16528735183E+02  0.12214210159E+02  0.37498479996E+02  0.00000000000E+00 0.  1.
<scales pt_clust_4="550.00000" pt_clust_5="550.00000" pt_clust_6="35.45348"></scales>
<mgrwt>
<rscale>  0 0.30000000E+03</rscale>
<asrwt>  1 0.35453478E+02</asrwt>
<pdfrwt beam="1">  1        1 0.86101902E+00 0.30000000E+03</pdfrwt>
<pdfrwt beam="2">0</pdfrwt>
<totfact> 0.31467725E-04</totfact>
</mgrwt>
<clustering>
<clus scale="   35.453">  1  6  2 -1</clus>
<clus scale="  470.258">  4  5 -1 -1</clus>
<clus scale="  300.000">  1  4  2 -1</clus>
</clustering>
</event>
<event>
 6    1  0.1000035E-011  0.3000000E+03  0.7818608E-02  0.1093470E+00
          1   -1    0    0  502    0  0.00000000000E+00  0.00000000000E+00  0.24872017230E+03  0.24872017230E+03  0.00000000000E+00 0.  1.
         13   -1    0    0    0    0 -0.00000000000E+00 -0.00000000000E+00 -0.27500000000E+03  0.27500000000E+03  0.00000000000E+00 0.  1.
    9000005    2    1    2  501    0 -0.73464293914E+01  0.30660535160E+02 -0.42636828733E+02  0.48820130515E+03  0.48531286480E+03 0.  0.
         13    1    3    3    0    0 -0.14866777903E+03  0.19582993350E+03  0.51685692348E+02  0.25124267585E+03  0.00000000000E+00 0.  1.
          1    1    3    3  501    0  0.14132134964E+03 -0.16516939834E+03 -0.94322521082E+02  0.23695862929E+03  0.00000000000E+00 0.  1.
         21    1    1    2  502  501  0.73464293914E+01 -0.30660535160E+02  0.16357001032E+02  0.35518867154E+02  0.00000000000E+00 0.  1.
<scales pt_clust_4="550.00000" pt_clust_5="550.00000" pt_clust_6="31.52838"></scales>
<mgrwt>
<rscale>  0 0.30000000E+03</rscale>
<asrwt>  1 0.31528375E+02</asrwt>
<pdfrwt beam="1">  1        1 0.90443699E+00 0.30000000E+03</pdfrwt>
<pdfrwt beam="2">0</pdfrwt>
<totfact> 0.96597623E-05</totfact>
</mgrwt>
<clustering>
<clus scale="   31.528">  1  6  2 -1</clus>
<clus scale="  485.313">  4  5 -1 -1</clus>
<clus scale="  300.000">  1  4  2 -1</clus>
</clustering>
</event>
<event>
 6    1  0.1000035E-011  0.3000000E+03  0.7818608E-02  0.1093470E+00
          1   -1    0    0  502    0  0.00000000000E+00  0.00000000000E+00  0.22474265251E+03  0.22474265251E+03  0.00000000000E+00 0.  1.
         13   -1    0    0    0    0 -0.00000000000E+00 -0.00000000000E+00 -0.27500000000E+03  0.27500000000E+03  0.00000000000E+00 0.  1.
    9000005    2    1    2  501    0 -0.30374963439E+02 -0.10715629876E+02 -0.63029749574E+02  0.46509301496E+03  0.45967521154E+03 0.  0.
         13    1    3    3    0    0  0.19276672011E+02  0.70182005241E+02 -0.24731349371E+03  0.25780044243E+03  0.00000000000E+00 0.  1.
          1    1    3    3  501    0 -0.49651635450E+02 -0.80897635117E+02  0.18428374414E+03  0.20729257253E+03  0.00000000000E+00 0.  1.
         21    1    1    2  502  501  0.30374963439E+02  0.10715629876E+02  0.12772402083E+02  0.34649637553E+02  0.00000000000E+00 0. -1.
<scales pt_clust_4="550.00000" pt_clust_5="550.00000" pt_clust_6="32.20967"></scales>
<mgrwt>
<rscale>  0 0.30000000E+03</rscale>
<asrwt>  1 0.32209674E+02</asrwt>
<pdfrwt beam="1">  1        1 0.81724601E+00 0.30000000E+03</pdfrwt>
<pdfrwt beam="2">0</pdfrwt>
<totfact> 0.77517220E-04</totfact>
</mgrwt>
<clustering>
<clus scale="   32.210">  1  6  2 -1</clus>
<clus scale="  459.675">  4  5 -1 -1</clus>
<clus scale="  300.000">  1  4  2 -1</clus>
</clustering>
</event>
<event>
 6    1  0.1000035E-011  0.3000000E+03  0.7818608E-02  0.1093470E+00
          1   -1    0    0  502    0  0.00000000000E+00  0.00000000000E+00  0.23162735068E+03  0.23162735068E+03  0.00000000000E+00 0.  1.
         13   -1    0    0    0    0 -0.00000000000E+00 -0.00000000000E+00 -0.27500000000E+03  0.27500000000E+03  0.00000000000E+00 0.  1.
    9000005    2    1    2  501    0 -0.40262431710E+02  0.69334127320E+01 -0.53430809609E+02  0.46455239129E+03  0.45965741288E+03 0.  0.
         13    1    3    3    0    0  0.59461929845E+02  0.82958909067E+02 -0.22788903515E+03  0.24970245100E+03  0.00000000000E+00 0.  1.
          3    1    3    3  501    0 -0.99724361555E+02 -0.76025496335E+02  0.17445822554E+03  0.21484994028E+03  0.00000000000E+00 0.  1.
         21    1    1    2  502  501  0.40262431710E+02 -0.69334127320E+01  0.10058160286E+02  0.42074959390E+02  0.00000000000E+00 0.  1.
<scales pt_clust_4="550.00000" pt_clust_5="550.00000" pt_clust_6="40.85506"></scales>
<mgrwt>
<rscale>  0 0.30000000E+03</rscale>
<asrwt>  1 0.40855056E+02</asrwt>
<pdfrwt beam="1">  1        1 0.84228128E+00 0.30000000E+03</pdfrwt>
<pdfrwt beam="2">0</pdfrwt>
<totfact> 0.46319917E-04</totfact>
</mgrwt>
<clustering>
<clus scale="   40.855">  1  6  2 -1</clus>
<clus scale="  459.657">  4  5 -1 -1</clus>
<clus scale="  300.000">  1  4  2 -1</clus>
</clustering>
</event>
<event>
 6    1  0.1000035E-011  0.3000000E+03  0.7818608E-02  0.1093470E+00
          1   -1    0    0  502    0  0.00000000000E+00  0.00000000000E+00  0.23786786766E+03  0.23786786766E+03  0.00000000000E+00 0.  1.
         13   -1    0    0    0    0 -0.00000000000E+00 -0.00000000000E+00 -0.27500000000E+03  0.27500000000E+03  0.00000000000E+00 0.  1.
    9000005    2    1    2  501    0  0.21395709918E+02  0.23587039461E+02 -0.28695479815E+02  0.47992394653E+03  0.47800568936E+03 0.  0.
         13    1    3    3    0    0  0.24994093961E+02 -0.16872146534E+03 -0.17033976244E+03  0.24105450062E+03  0.00000000000E+00 0.  1.
          1    1    3    3  501    0 -0.35983840436E+01  0.19230850480E+03  0.14164428263E+03  0.23886944591E+03  0.00000000000E+00 0.  1.
         21    1    1    2  502  501 -0.21395709918E+02 -0.23587039461E+02 -0.84366525274E+01  0.32943921128E+02  0.00000000000E+00 0.  1.
<scales pt_clust_4="550.00000" pt_clust_5="550.00000" pt_clust_6="31.84534"></scales>
<mgrwt>
<rscale>  0 0.30000000E+03</rscale>
<asrwt>  1 0.31845343E+02</asrwt>
<pdfrwt beam="1">  1        1 0.86497406E+00 0.30000000E+03</pdfrwt>
<pdfrwt beam="2">0</pdfrwt>
<totfact> 0.29102584E-04</totfact>
</mgrwt>
<clustering>
<clus scale="   31.845">  1  6  2 -1</clus>
<clus scale="  478.006">  4  5 -1 -1</clus>
<clus scale="  300.000">  1  4  2 -1</clus>
</clustering>
</event>
<event>
 6    1  0.1000035E-011  0.3000000E+03  0.7818608E-02  0.1093470E+00
          1   -1    0    0  502    0  0.00000000000E+00  0.00000000000E+00  0.23436314951E+03  0.23436314951E+03  0.00000000000E+00 0.  1.
         13   -1    0    0    0    0 -0.00000000000E+00 -0.00000000000E+00 -0.27500000000E+03  0.27500000000E+03  0.00000000000E+00 0.  1.
    9000005    2    1    2  501    0 -0.62528873398E+01 -0.30065398794E+02 -0.49432671881E+02  0.47741955424E+03  0.47385948858E+03 0.  0.
         13    1    3    3    0    0 -0.20496155424E+03  0.35330121345E+02 -0.13868539040E+03  0.24998218677E+03  0.00000000000E+00 0.  1.
          1    1    3    3  501    0  0.19870866690E+03 -0.65395520139E+02  0.89252718519E+02  0.22743736747E+03  0.00000000000E+00 0.  1.
         21    1    1    2  502  501  0.62528873398E+01  0.30065398794E+02  0.87958213863E+01  0.31943595267E+02  0.00000000000E+00 0.  1.
<scales pt_clust_4="550.00000" pt_clust_5="550.00000" pt_clust_6="30.70874"></scales>
<mgrwt>
<rscale>  0 0.30000000E+03</rscale>
<asrwt>  1 0.30708742E+02</asrwt>
<pdfrwt beam="1">  1        1 0.85222963E+00 0.30000000E+03</pdfrwt>
<pdfrwt beam="2">0</pdfrwt>
<totfact> 0.39734784E-04</totfact>
</mgrwt>
<clustering>
<clus scale="   30.709">  1  6  2 -1</clus>
<clus scale="  473.859">  4  5 -1 -1</clus>
<clus scale="  300.000">  1  4  2 -1</clus>
</clustering>
</event>
<event>
 6    1  0.1000035E-011  0.3000000E+03  0.7818608E-02  0.1093470E+00
          1   -1    0    0  502    0  0.00000000000E+00  0.00000000000E+00  0.23585432761E+03  0.23585432761E+03  0.00000000000E+00 0.  1.
         13   -1    0    0    0    0 -0.00000000000E+00 -0.00000000000E+00 -0.27500000000E+03  0.27500000000E+03  0.00000000000E+00 0.  1.
    9000005    2    1    2  501    0 -0.42758701617E+02  0.17713173396E+01 -0.57689604196E+02  0.46421398525E+03  0.45862303642E+03 0.  0.
         13    1    3    3    0    0 -0.14262928060E+03  0.14440559108E+03  0.10270638598E+03  0.22747458790E+03  0.00000000000E+00 0.  1.
          1    1    3    3  501    0  0.99870578988E+02 -0.14263427374E+03 -0.16039599017E+03  0.23673939735E+03  0.00000000000E+00 0.  1.
         21    1    1    2  502  501  0.42758701617E+02 -0.17713173396E+01  0.18543931810E+02  0.46640342366E+02  0.00000000000E+00 0. -1.
<scales pt_clust_4="550.00000" pt_clust_5="550.00000" pt_clust_6="42.79538"></scales>
<mgrwt>
<rscale>  0 0.30000000E+03</rscale>
<asrwt>  1 0.42795375E+02</asrwt>
<pdfrwt beam="1">  1        1 0.85765210E+00 0.30000000E+03</pdfrwt>
<pdfrwt beam="2">0</pdfrwt>
<totfact> 0.33001008E-04</totfact>
</mgrwt>
<clustering>
<clus scale="   42.795">  1  6  2 -1</clus>
<clus scale="  458.623">  4  5 -1 -1</clus>
<clus scale="  300.000">  1  4  2 -1</clus>
</clustering>
</event>
<event>
 6    1  0.1000035E-011  0.3000000E+03  0.7818608E-02  0.1093470E+00
          1   -1    0    0  502    0  0.00000000000E+00  0.00000000000E+00  0.23350647147E+03  0.23350647147E+03  0.00000000000E+00 0.  1.
         13   -1    0    0    0    0 -0.00000000000E+00 -0.00000000000E+00 -0.27500000000E+03  0.27500000000E+03  0.00000000000E+00 0.  1.
    9000005    2    1    2  501    0  0.12373676321E+02 -0.46157334262E+02 -0.36580297458E+02  0.46046745388E+03  0.45651785348E+03 0.  0.
         13    1    3    3    0    0  0.23772752193E+02  0.90839038397E+02  0.18053322299E+03  0.20349230758E+03  0.00000000000E+00 0.  1.
          1    1    3    3  501    0 -0.11399075872E+02 -0.13699637266E+03 -0.21711352044E+03  0.25697514629E+03  0.00000000000E+00 0.  1.
         21    1    1    2  502  501 -0.12373676321E+02  0.46157334262E+02 -0.49132310713E+01  0.48039017594E+02  0.00000000000E+00 0.  1.
<scales pt_clust_4="550.00000" pt_clust_5="550.00000" pt_clust_6="47.78713"></scales>
<mgrwt>
<rscale>  0 0.30000000E+03</rscale>
<asrwt>  1 0.47787129E+02</asrwt>
<pdfrwt beam="1">  1        1 0.84911444E+00 0.30000000E+03</pdfrwt>
<pdfrwt beam="2">0</pdfrwt>
<totfact> 0.39197526E-04</totfact>
</mgrwt>
<clustering>
<clus scale="   47.787">  1  6  2 -1</clus>
<clus scale="  456.518">  4  5 -1 -1</clus>
<clus scale="  300.000">  1  4  2 -1</clus>
</clustering>
</event>
<event>
 6    1  0.1000035E-011  0.3000000E+03  0.7818608E-02  0.1093470E+00
          1   -1    0    0  502    0  0.00000000000E+00  0.00000000000E+00  0.23655541164E+03  0.23655541164E+03  0.00000000000E+00 0.  1.
         13   -1    0    0    0    0 -0.00000000000E+00 -0.00000000000E+00 -0.27500000000E+03  0.27500000000E+03  0.00000000000E+00 0.  1.
    9000005    2    1    2  501    0 -0.90056355419E+01  0.32083789660E+02 -0.61418993189E+02  0.47107956319E+03  0.46586821216E+03 0.  0.
         13    1    3    3    0    0  0.10021987459E+03  0.97413898089E+02 -0.22435548449E+03  0.26432721053E+03  0.00000000000E+00 0.  1.
          3    1    3    3  501    0 -0.10922551013E+03 -0.65330108429E+02  0.16293649131E+03  0.20675235266E+03  0.00000000000E+00 0.  1.
         21    1    1    2  502  501  0.90056355419E+01 -0.32083789660E+02  0.22974404826E+02  0.40475848448E+02  0.00000000000E+00 0.  1.
<scales pt_clust_4="550.00000" pt_clust_5="550.00000" pt_clust_6="33.32373"></scales>
<mgrwt>
<rscale>  0 0.30000000E+03</rscale>
<asrwt>  1 0.33323731E+02</asrwt>
<pdfrwt beam="1">  1        1 0.86020150E+00 0.30000000E+03</pdfrwt>
<pdfrwt beam="2">0</pdfrwt>
<totfact> 0.32484657E-04</totfact>
</mgrwt>
<clustering>
<clus scale="   33.324">  1  6  2 -1</clus>
<clus scale="  465.868">  4  5 -1 -1</clus>
<clus scale="  300.000">  1  4  2 -1</clus>
</clustering>
</event>
<event>
 6    1  0.1000035E-011  0.3000000E+03  0.7818608E-02  0.1093470E+00
          1   -1    0    0  502    0  0.00000000000E+00  0.00000000000E+00  0.24609067160E+03  0.24609067160E+03  0.00000000000E+00 0.  1.
         13   -1    0    0    0    0 -0.00000000000E+00 -0.00000000000E+00 -0.27500000000E+03  0.27500000000E+03  0.00000000000E+00 0.  1.
    9000005    2    1    2  501    0 -0.60343093290E+01  0.34854347075E+02 -0.64654619296E+02  0.47080186350E+03  0.46499778115E+03 0.  0.
         13    1    3    3    0    0 -0.20967741728E+03  0.12267240838E+03 -0.53515357441E+02  0.24875094488E+03  0.00000000000E+00 0.  1.
          1    1    3    3  501    0  0.20364310795E+03 -0.87818061304E+02 -0.11139261855E+02  0.22205091862E+03  0.00000000000E+00 0.  1.
         21    1    1    2  502  501  0.60343093290E+01 -0.34854347075E+02  0.35745290897E+02  0.50288808103E+02  0.00000000000E+00 0.  1.
<scales pt_clust_4="550.00000" pt_clust_5="550.00000" pt_clust_6="35.37285"></scales>
<mgrwt>
<rscale>  0 0.30000000E+03</rscale>
<asrwt>  1 0.35372848E+02</asrwt>
<pdfrwt beam="1">  1        1 0.89487517E+00 0.30000000E+03</pdfrwt>
<pdfrwt beam="2">0</pdfrwt>
<totfact> 0.12624981E-04</totfact>
</mgrwt>
<clustering>
<clus scale="   35.373">  1  6  2 -1</clus>
<clus scale="  464.998">  4  5 -1 -1</clus>
<clus scale="  300.000">  1  4  2 -1</clus>
</clustering>
</event>
<event>
 6    1  0.1000035E-011  0.3000000E+03  0.7818608E-02  0.1093470E+00
          1   -1    0    0  502    0  0.00000000000E+00  0.00000000000E+00  0.23766810309E+03  0.23766810309E+03  0.00000000000E+00 0.  1.
         13   -1    0    0    0    0 -0.00000000000E+00 -0.00000000000E+00 -0.27500000000E+03  0.27500000000E+03  0.00000000000E+00 0.  1.
    9000005    2    1    2  501    0  0.11463704252E+01  0.45028460884E+02 -0.36758240518E+02  0.46762139915E+03  0.46399324159E+03 0.  0.
         13    1    3    3    0    0  0.16454003094E+03  0.11292010482E+03 -0.15681195350E+03  0.25379984361E+03  0.00000000000E+00 0.  1.
          3    1    3    3  501    0 -0.16339366051E+03 -0.67891643939E+02  0.12005371299E+03  0.21382155554E+03  0.00000000000E+00 0.  1.
         21    1    1    2  502  501 -0.11463704252E+01 -0.45028460884E+02 -0.57365638711E+00  0.45046703945E+02  0.00000000000E+00 0. -1.
<scales pt_clust_4="550.00000" pt_clust_5="550.00000" pt_clust_6="45.04305"></scales>
<mgrwt>
<rscale>  0 0.30000000E+03</rscale>
<asrwt>  1 0.45043051E+02</asrwt>
<pdfrwt beam="1">  1        1 0.86424765E+00 0.30000000E+03</pdfrwt>
<pdfrwt beam="2">0</pdfrwt>
<totfact> 0.27797195E-04</totfact>
</mgrwt>
<clustering>
<clus scale="   45.043">  1  6  2 -1</clus>
<clus scale="  463.993">  4  5 -1 -1</clus>
<clus scale="  300.000">  1  4  2 -1</clus>
</clustering>
</event>
<event>
 6    1  0.1000035E-011  0.3000000E+03  0.7818608E-02  0.1093470E+00
          1   -1    0    0  502    0  0.00000000000E+00  0.00000000000E+00  0.26049494193E+03  0.26049494193E+03  0.00000000000E+00 0.  1.
         13   -1    0    0    0    0 -0.00000000000E+00 -0.00000000000E+00 -0.27500000000E+03  0.27500000000E+03  0.00000000000E+00 0.  1.
    9000005    2    1    2  501    0 -0.32081943351E+02  0.35979197905E+01 -0.21849547827E+02  0.50238697241E+03  0.50087231026E+03 0.  0.
         13    1    3    3    0    0  0.29322474294E+02  0.60327006316E+02  0.22866078987E+03  0.23829584977E+03  0.00000000000E+00 0.  1.
          1    1    3    3  501    0 -0.61404417645E+02 -0.56729086526E+02 -0.25051033770E+03  0.26409112264E+03  0.00000000000E+00 0.  1.
         21    1    1    2  502  501  0.32081943351E+02 -0.35979197905E+01  0.73444897556E+01  0.33107969520E+02  0.00000000000E+00 0. -1.
<scales pt_clust_4="550.00000" pt_clust_5="550.00000" pt_clust_6="32.28306"></scales>
<mgrwt>
<rscale>  0 0.30000000E+03</rscale>
<asrwt>  1 0.32283062E+02</asrwt>
<pdfrwt beam="1">  1        1 0.94725433E+00 0.30000000E+03</pdfrwt>
<pdfrwt beam="2">0</pdfrwt>
<totfact> 0.14250218E-05</totfact>
</mgrwt>
<clustering>
<clus scale="   32.283">  1  6  2 -1</clus>
<clus scale="  500.872">  4  5 -1 -1</clus>
<clus scale="  300.000">  1  4  2 -1</clus>
</clustering>
</event>
<event>
 6    1  0.1000035E-011  0.3000000E+03  0.7818608E-02  0.1093470E+00
          1   -1    0    0  502    0  0.00000000000E+00  0.00000000000E+00  0.24350000713E+03  0.24350000713E+03  0.00000000000E+00 0.  1.
         13   -1    0    0    0    0 -0.00000000000E+00 -0.00000000000E+00 -0.27500000000E+03  0.27500000000E+03  0.00000000000E+00 0.  1.
    9000005    2    1    2  501    0  0.35458419402E+02 -0.83047958866E+01 -0.33667141790E+02  0.48201760486E+03  0.47945930569E+03 0.  0.
         13    1    3    3    0    0  0.12223371444E+03 -0.21763207553E+03 -0.50959585999E+02  0.25475808260E+03  0.00000000000E+00 0.  1.
          1    1    3    3  501    0 -0.86775295034E+02  0.20932727964E+03  0.17292444209E+02  0.22725952226E+03  0.00000000000E+00 0.  1.
         21    1    1    2  502  501 -0.35458419402E+02  0.83047958866E+01  0.21671489225E+01  0.36482402274E+02  0.00000000000E+00 0. -1.
<scales pt_clust_4="550.00000" pt_clust_5="550.00000" pt_clust_6="36.41798"></scales>
<mgrwt>
<rscale>  0 0.30000000E+03</rscale>
<asrwt>  1 0.36417978E+02</asrwt>
<pdfrwt beam="1">  1        1 0.88545457E+00 0.30000000E+03</pdfrwt>
<pdfrwt beam="2">0</pdfrwt>
<totfact> 0.16605354E-04</totfact>
</mgrwt>
<clustering>
<clus scale="   36.418">  1  6  2 -1</clus>
<clus scale="  479.459">  4  5 -1 -1</clus>
<clus scale="  300.000">  1  4  2 -1</clus>
</clustering>
</event>
<event>
 6    1  0.1000035E-011  0.3000000E+03  0.7818608E-02  0.1093470E+00
          1   -1    0    0  502    0  0.00000000000E+00  0.00000000000E+00  0.22269307235E+03  0.22269307235E+03  0.00000000000E+00 0.  1.
         13   -1    0    0    0    0 -0.00000000000E+00 -0.00000000000E+00 -0.27500000000E+03  0.27500000000E+03  0.00000000000E+00 0.  1.
    9000005    2    1    2  501    0 -0.32239713035E+02 -0.14320374063E+02 -0.42280087425E+02  0.46101869798E+03  0.45771843079E+03 0.  0.
         13    1    3    3    0    0  0.49436110855E+02  0.14195242749E+03 -0.18199721995E+03  0.23604535326E+03  0.00000000000E+00 0.  1.
          1    1    3    3  501    0 -0.81675823890E+02 -0.15627280156E+03  0.13971713252E+03  0.22497334472E+03  0.00000000000E+00 0.  1.
         21    1    1    2  502  501  0.32239713035E+02  0.14320374063E+02 -0.10026840230E+02  0.36674374363E+02  0.00000000000E+00 0. -1.
<scales pt_clust_4="550.00000" pt_clust_5="550.00000" pt_clust_6="35.27710"></scales>
<mgrwt>
<rscale>  0 0.30000000E+03</rscale>
<asrwt>  1 0.35277095E+02</asrwt>
<pdfrwt beam="1">  1        1 0.80979299E+00 0.30000000E+03</pdfrwt>
<pdfrwt beam="2">0</pdfrwt>
<totfact> 0.87410328E-04</totfact>
</mgrwt>
<clustering>
<clus scale="   35.277">  1  6  2 -1</clus>
<clus scale="  457.718">  4  5 -1 -1</clus>
<clus scale="  300.000">  1  4  2 -1</clus>
</clustering>
</event>
<event>
 6    1  0.1000035E-011  0.3000000E+03  0.7818608E-02  0.1093470E+00
          1   -1    0    0  502    0  0.00000000000E+00  0.00000000000E+00  0.22196561601E+03  0.22196561601E+03  0.00000000000E+00 0.  1.
         13   -1    0    0    0    0 -0.00000000000E+00 -0.00000000000E+00 -0.27500000000E+03  0.27500000000E+03  0.00000000000E+00 0.  1.
    9000005    2    1    2  501    0  0.31636603245E+01 -0.33336353694E+02 -0.62033606243E+02  0.46229131392E+03  0.45688485355E+03 0.  0.
         13    1    3    3    0    0  0.20853049307E+03 -0.94754398667E+02 -0.90048919415E+02  0.24611414119E+03  0.00000000000E+00 0.  1.
          1    1    3    3  501    0 -0.20536683274E+03  0.61418044973E+02  0.28015313172E+02  0.21617717273E+03  0.00000000000E+00 0.  1.
         21    1    1    2  502  501 -0.31636603245E+01  0.33336353694E+02  0.89992222571E+01  0.34674302091E+02  0.00000000000E+00 0.  1.
<scales pt_clust_4="550.00000" pt_clust_5="550.00000" pt_clust_6="33.48613"></scales>
<mgrwt>
<rscale>  0 0.30000000E+03</rscale>
<asrwt>  1 0.33486135E+02</asrwt>
<pdfrwt beam="1">  1        1 0.80714769E+00 0.30000000E+03</pdfrwt>
<pdfrwt beam="2">0</pdfrwt>
<totfact> 0.92525970E-04</totfact>
</mgrwt>
<clustering>
<clus scale="   33.486">  1  6  2 -1</clus>
<clus scale="  456.885">  4  5 -1 -1</clus>
<clus scale="  300.000">  1  4  2 -1</clus>
</clustering>
</event>
<event>
 6    1  0.1000035E-011  0.3000000E+03  0.7818608E-02  0.1093470E+00
          1   -1    0    0  502    0  0.00000000000E+00  0.00000000000E+00  0.22555094020E+03  0.22555094020E+03  0.00000000000E+00 0.  1.
         13   -1    0    0    0    0 -0.00000000000E+00 -0.00000000000E+00 -0.27500000000E+03  0.27500000000E+03  0.00000000000E+00 0.  1.
    9000005    2    1    2  501    0  0.18863226086E+02 -0.25861303690E+02 -0.61517076100E+02  0.46634179896E+03  0.46115690874E+03 0.  0.
         13    1    3    3    0    0  0.77553945744E+02 -0.11787192493E+03  0.16367552598E+03  0.21609739238E+03  0.00000000000E+00 0.  1.
          3    1    3    3  501    0 -0.58690719658E+02  0.92010621245E+02 -0.22519260208E+03  0.25024440658E+03  0.00000000000E+00 0.  1.
         21    1    1    2  502  501 -0.18863226086E+02  0.25861303690E+02  0.12068016303E+02  0.34209141240E+02  0.00000000000E+00 0.  1.
<scales pt_clust_4="550.00000" pt_clust_5="550.00000" pt_clust_6="32.00982"></scales>
<mgrwt>
<rscale>  0 0.30000000E+03</rscale>
<asrwt>  1 0.32009816E+02</asrwt>
<pdfrwt beam="1">  1        1 0.82018524E+00 0.30000000E+03</pdfrwt>
<pdfrwt beam="2">0</pdfrwt>
<totfact> 0.73286002E-04</totfact>
</mgrwt>
<clustering>
<clus scale="   32.010">  1  6  2 -1</clus>
<clus scale="  461.157">  4  5 -1 -1</clus>
<clus scale="  300.000">  1  4  2 -1</clus>
</clustering>
</event>
<event>
 6    1  0.1000035E-011  0.3000000E+03  0.7818608E-02  0.1093470E+00
          1   -1    0    0  502    0  0.00000000000E+00  0.00000000000E+00  0.22656597688E+03  0.22656597688E+03  0.00000000000E+00 0.  1.
         13   -1    0    0    0    0 -0.00000000000E+00 -0.00000000000E+00 -0.27500000000E+03  0.27500000000E+03  0.00000000000E+00 0.  1.
    9000005    2    1    2  501    0 -0.21280179917E+02  0.26900392537E+02 -0.52157994865E+02  0.46706459805E+03  0.46287407050E+03 0.  0.
         13    1    3    3    0    0 -0.17602916440E+03  0.10237995842E+03  0.10922461232E+03  0.23107993972E+03  0.00000000000E+00 0.  1.
          3    1    3    3  501    0  0.15474898448E+03 -0.75479565887E+02 -0.16138260718E+03  0.23598465833E+03  0.00000000000E+00 0.  1.
         21    1    1    2  502  501  0.21280179917E+02 -0.26900392537E+02  0.37239717485E+01  0.34501378835E+02  0.00000000000E+00 0.  1.
<scales pt_clust_4="550.00000" pt_clust_5="550.00000" pt_clust_6="34.29981"></scales>
<mgrwt>
<rscale>  0 0.30000000E+03</rscale>
<asrwt>  1 0.34299813E+02</asrwt>
<pdfrwt beam="1">  1        1 0.82387628E+00 0.30000000E+03</pdfrwt>
<pdfrwt beam="2">0</pdfrwt>
<totfact> 0.67098432E-04</totfact>
</mgrwt>
<clustering>
<clus scale="   34.300">  1  6  2 -1</clus>
<clus scale="  462.874">  4  5 -1 -1</clus>
<clus scale="  300.000">  1  4  2 -1</clus>
</clustering>
</event>
<event>
 6    1  0.1000035E-011  0.3000000E+03  0.7818608E-02  0.1093470E+00
          1   -1    0    0  502    0  0.00000000000E+00  0.00000000000E+00  0.23380299479E+03  0.23380299479E+03  0.00000000000E+00 0.  1.
         13   -1    0    0    0    0 -0.00000000000E+00 -0.00000000000E+00 -0.27500000000E+03  0.27500000000E+03  0.00000000000E+00 0.  1.
    9000005    2    1    2  501    0 -0.31648403097E+02 -0.22524385481E+02 -0.31665944259E+02  0.46880536383E+03  0.46611883439E+03 0.  0.
         13    1    3    3    0    0  0.92004267312E+02 -0.16886178911E+03  0.11806501141E+03  0.22565113770E+03  0.00000000000E+00 0.  1.
          3    1    3    3  501    0 -0.12365267041E+03  0.14633740363E+03 -0.14973095566E+03  0.24315422613E+03  0.00000000000E+00 0.  1.
         21    1    1    2  502  501  0.31648403097E+02  0.22524385481E+02 -0.95310609483E+01  0.39997630964E+02  0.00000000000E+00 0. -1.
<scales pt_clust_4="550.00000" pt_clust_5="550.00000" pt_clust_6="38.84547"></scales>
<mgrwt>
<rscale>  0 0.30000000E+03</rscale>
<asrwt>  1 0.38845474E+02</asrwt>
<pdfrwt beam="1">  1        1 0.85019271E+00 0.30000000E+03</pdfrwt>
<pdfrwt beam="2">0</pdfrwt>
<totfact> 0.39754152E-04</totfact>
</mgrwt>
<clustering>
<clus scale="   38.845">  1  6  2 -1</clus>
<clus scale="  466.119">  4  5 -1 -1</clus>
<clus scale="  300.000">  1  4  2 -1</clus>
</clustering>
</event>
<event>
 6    1  0.1000035E-011  0.3000000E+03  0.7818608E-02  0.1093470E+00
          1   -1    0    0  502    0  0.00000000000E+00  0.00000000000E+00  0.22814255791E+03  0.22814255791E+03  0.00000000000E+00 0.  1.
         13   -1    0    0    0    0 -0.00000000000E+00 -0.00000000000E+00 -0.27500000000E+03  0.27500000000E+03  0.00000000000E+00 0.  1.
    9000005    2    1    2  501    0 -0.36297157240E+02  0.13033201882E+02 -0.55591823967E+02  0.46359970265E+03  0.45863589636E+03 0.  0.
         13    1    3    3    0    0 -0.19127788180E+03  0.69649974725E+02 -0.16801129437E+03  0.26394344485E+03  0.00000000000E+00 0.  1.
          3    1    3    3  501    0  0.15498072456E+03 -0.56616772843E+02  0.11241947041E+03  0.19965625780E+03  0.00000000000E+00 0.  1.
         21    1    1    2  502  501  0.36297157240E+02 -0.13033201882E+02  0.87343818743E+01  0.39542855255E+02  0.00000000000E+00 0.  1.
<scales pt_clust_4="550.00000" pt_clust_5="550.00000" pt_clust_6="38.56615"></scales>
<mgrwt>
<rscale>  0 0.30000000E+03</rscale>
<asrwt>  1 0.38566151E+02</asrwt>
<pdfrwt beam="1">  1        1 0.82960930E+00 0.30000000E+03</pdfrwt>
<pdfrwt beam="2">0</pdfrwt>
<totfact> 0.58482897E-04</totfact>
</mgrwt>
<clustering>
<clus scale="   38.566">  1  6  2 -1</clus>
<clus scale="  458.636">  4  5 -1 -1</clus>
<clus scale="  300.000">  1  4  2 -1</clus>
</clustering>
</event>
<event>
 6    1  0.1000035E-011  0.3000000E+03  0.7818608E-02  0.1093470E+00
          1   -1    0    0  502    0  0.00000000000E+00  0.00000000000E+00  0.22933713558E+03  0.22933713558E+03  0.00000000000E+00 0.  1.
         13   -1    0    0    0    0 -0.00000000000E+00 -0.00000000000E+00 -0.27500000000E+03  0.27500000000E+03  0.00000000000E+00 0.  1.
    9000005    2    1    2  501    0 -0.13937171973E+02  0.27555701064E+02 -0.56396922908E+02  0.47164491272E+03  0.46724163916E+03 0.  0.
         13    1    3    3    0    0  0.13008370154E+02  0.10854191703E+03 -0.24299513363E+03  0.26645299851E+03  0.00000000000E+00 0.  1.
          3    1    3    3  501    0 -0.26945542126E+02 -0.80986215963E+02  0.18659821072E+03  0.20519191422E+03  0.00000000000E+00 0.  1.
         21    1    1    2  502  501  0.13937171973E+02 -0.27555701064E+02  0.10734058489E+02  0.32692222858E+02  0.00000000000E+00 0. -1.
<scales pt_clust_4="550.00000" pt_clust_5="550.00000" pt_clust_6="30.87979"></scales>
<mgrwt>
<rscale>  0 0.30000000E+03</rscale>
<asrwt>  1 0.30879790E+02</asrwt>
<pdfrwt beam="1">  1        1 0.83395322E+00 0.30000000E+03</pdfrwt>
<pdfrwt beam="2">0</pdfrwt>
<totfact> 0.56386182E-04</totfact>
</mgrwt>
<clustering>
<clus scale="   30.880">  1  6  2 -1</clus>
<clus scale="  467.242">  4  5 -1 -1</clus>
<clus scale="  300.000">  1  4  2 -1</clus>
</clustering>
</event>
<event>
 6    1  0.1000035E-011  0.3000000E+03  0.7818608E-02  0.1093470E+00
          1   -1    0    0  502    0  0.00000000000E+00  0.00000000000E+00  0.23624684786E+03  0.23624684786E+03  0.00000000000E+00 0.  1.
         13   -1    0    0    0    0 -0.00000000000E+00 -0.00000000000E+00 -0.27500000000E+03  0.27500000000E+03  0.00000000000E+00 0.  1.
    9000005    2    1    2  501    0  0.22456703458E+02  0.26165534350E+02 -0.55994273333E+02  0.47269564842E+03  0.46809921883E+03 0.  0.
         13    1    3    3    0    0 -0.81640811313E+02  0.52327536043E+02 -0.24045908778E+03  0.25927584924E+03  0.00000000000E+00 0.  1.
          3    1    3    3  501    0  0.10409751477E+03 -0.26162001693E+02  0.18446481445E+03  0.21341979919E+03  0.00000000000E+00 0.  1.
         21    1    1    2  502  501 -0.22456703458E+02 -0.26165534350E+02  0.17241121191E+02  0.38551199436E+02  0.00000000000E+00 0.  1.
<scales pt_clust_4="550.00000" pt_clust_5="550.00000" pt_clust_6="34.48099"></scales>
<mgrwt>
<rscale>  0 0.30000000E+03</rscale>
<asrwt>  1 0.34480991E+02</asrwt>
<pdfrwt beam="1">  1        1 0.85907945E+00 0.30000000E+03</pdfrwt>
<pdfrwt beam="2">0</pdfrwt>
<totfact> 0.33175591E-04</totfact>
</mgrwt>
<clustering>
<clus scale="   34.481">  1  6  2 -1</clus>
<clus scale="  468.099">  4  5 -1 -1</clus>
<clus scale="  300.000">  1  4  2 -1</clus>
</clustering>
</event>
<event>
 6    1  0.1000035E-011  0.3000000E+03  0.7818608E-02  0.1093470E+00
          1   -1    0    0  502    0  0.00000000000E+00  0.00000000000E+00  0.24050140922E+03  0.24050140922E+03  0.00000000000E+00 0.  1.
         13   -1    0    0    0    0 -0.00000000000E+00 -0.00000000000E+00 -0.27500000000E+03  0.27500000000E+03  0.00000000000E+00 0.  1.
    9000005    2    1    2  501    0 -0.22928386761E+02 -0.45117335036E+02 -0.39279850870E+02  0.46466692006E+03  0.46022945915E+03 0.  0.
         13    1    3    3    0    0 -0.14623044276E+02  0.66360961513E+02 -0.23206866570E+03  0.24181289510E+03  0.00000000000E+00 0.  1.
          1    1    3    3  501    0 -0.83053424848E+01 -0.11147829655E+03  0.19278881483E+03  0.22285402496E+03  0.00000000000E+00 0.  1.
         21    1    1    2  502  501  0.22928386761E+02  0.45117335036E+02  0.47812600890E+01  0.50834489161E+02  0.00000000000E+00 0.  1.
<scales pt_clust_4="550.00000" pt_clust_5="550.00000" pt_clust_6="50.60914"></scales>
<mgrwt>
<rscale>  0 0.30000000E+03</rscale>
<asrwt>  1 0.50609138E+02</asrwt>
<pdfrwt beam="1">  1        1 0.87455058E+00 0.30000000E+03</pdfrwt>
<pdfrwt beam="2">0</pdfrwt>
<totfact> 0.21272034E-04</totfact>
</mgrwt>
<clustering>
<clus scale="   50.609">  1  6  2 -1</clus>
<clus scale="  460.229">  4  5 -1 -1</clus>
<clus scale="  300.000">  1  4  2 -1</clus>
</clustering>
</event>
<event>
 6    1  0.1000035E-011  0.3000000E+03  0.7818608E-02  0.1093470E+00
          1   -1    0    0  502    0  0.00000000000E+00  0.00000000000E+00  0.25547028720E+03  0.25547028720E+03  0.00000000000E+00 0.  1.
         13   -1    0    0    0    0 -0.00000000000E+00 -0.00000000000E+00 -0.27500000000E+03  0.27500000000E+03  0.00000000000E+00 0.  1.
    9000005    2    1    2  501    0  0.60862123185E+01  0.40193801956E+02 -0.36980092945E+02  0.48623117031E+03  0.48311555555E+03 0.  0.
         13    1    3    3    0    0  0.21687520625E+03  0.81714599921E+02  0.75476122921E+02  0.24373915578E+03  0.00000000000E+00 0.  1.
          1    1    3    3  501    0 -0.21078899393E+03 -0.41520797966E+02 -0.11245621587E+03  0.24249201454E+03  0.00000000000E+00 0.  1.
         21    1    1    2  502  501 -0.60862123185E+01 -0.40193801956E+02  0.17450380149E+02  0.44239116892E+02  0.00000000000E+00 0.  1.
<scales pt_clust_4="550.00000" pt_clust_5="550.00000" pt_clust_6="40.65198"></scales>
<mgrwt>
<rscale>  0 0.30000000E+03</rscale>
<asrwt>  1 0.40651983E+02</asrwt>
<pdfrwt beam="1">  1        1 0.92898286E+00 0.30000000E+03</pdfrwt>
<pdfrwt beam="2">0</pdfrwt>
<totfact> 0.26594477E-05</totfact>
</mgrwt>
<clustering>
<clus scale="   40.652">  1  6  2 -1</clus>
<clus scale="  483.116">  4  5 -1 -1</clus>
<clus scale="  300.000">  1  4  2 -1</clus>
</clustering>
</event>
<event>
 6    1  0.1000035E-011  0.3000000E+03  0.7818608E-02  0.1093470E+00
          1   -1    0    0  502    0  0.00000000000E+00  0.00000000000E+00  0.23265812427E+03  0.23265812427E+03  0.00000000000E+00 0.  1.
         13   -1    0    0    0    0 -0.00000000000E+00 -0.00000000000E+00 -0.27500000000E+03  0.27500000000E+03  0.00000000000E+00 0.  1.
    9000005    2    1    2  501    0 -0.18512734609E+02 -0.25975566221E+02 -0.48153782153E+02  0.47523545258E+03  0.47171230350E+03 0.  0.
         13    1    3    3    0    0 -0.46756615353E+01  0.11858191915E+03  0.17352595575E+03  0.21022557094E+03  0.00000000000E+00 0.  1.
          3    1    3    3  501    0 -0.13837073074E+02 -0.14455748537E+03 -0.22167973790E+03  0.26500988164E+03  0.00000000000E+00 0.  1.
         21    1    1    2  502  501  0.18512734609E+02  0.25975566221E+02  0.58119064223E+01  0.32422671690E+02  0.00000000000E+00 0. -1.
<scales pt_clust_4="550.00000" pt_clust_5="550.00000" pt_clust_6="31.89751"></scales>
<mgrwt>
<rscale>  0 0.30000000E+03</rscale>
<asrwt>  1 0.31897514E+02</asrwt>
<pdfrwt beam="1">  1        1 0.84602954E+00 0.30000000E+03</pdfrwt>
<pdfrwt beam="2">0</pdfrwt>
<totfact> 0.45029865E-04</totfact>
</mgrwt>
<clustering>
<clus scale="   31.898">  1  6  2 -1</clus>
<clus scale="  471.712">  4  5 -1 -1</clus>
<clus scale="  300.000">  1  4  2 -1</clus>
</clustering>
</event>
<event>
 6    1  0.1000035E-011  0.3000000E+03  0.7818608E-02  0.1093470E+00
          1   -1    0    0  502    0  0.00000000000E+00  0.00000000000E+00  0.22293887998E+03  0.22293887998E+03  0.00000000000E+00 0.  1.
         13   -1    0    0    0    0 -0.00000000000E+00 -0.00000000000E+00 -0.27500000000E+03  0.27500000000E+03  0.00000000000E+00 0.  1.
    9000005    2    1    2  501    0 -0.22804216218E+02  0.26459638900E+02 -0.46525557810E+02  0.46257240974E+03  0.45889918496E+03 0.  0.
         13    1    3    3    0    0  0.21320749710E+03 -0.34887199264E+02 -0.13125483467E+02  0.21644128952E+03  0.00000000000E+00 0.  1.
          1    1    3    3  501    0 -0.23601171332E+03  0.61346838164E+02 -0.33400074343E+02  0.24613112022E+03  0.00000000000E+00 0.  1.
         21    1    1    2  502  501  0.22804216218E+02 -0.26459638900E+02 -0.55355622148E+01  0.35366470238E+02  0.00000000000E+00 0.  1.
<scales pt_clust_4="550.00000" pt_clust_5="550.00000" pt_clust_6="34.93059"></scales>
<mgrwt>
<rscale>  0 0.30000000E+03</rscale>
<asrwt>  1 0.34930588E+02</asrwt>
<pdfrwt beam="1">  1        1 0.81068684E+00 0.30000000E+03</pdfrwt>
<pdfrwt beam="2">0</pdfrwt>
<totfact> 0.86175579E-04</totfact>
</mgrwt>
<clustering>
<clus scale="   34.931">  1  6  2 -1</clus>
<clus scale="  458.899">  4  5 -1 -1</clus>
<clus scale="  300.000">  1  4  2 -1</clus>
</clustering>
</event>
<event>
 6    1  0.1000035E-011  0.3000000E+03  0.7818608E-02  0.1093470E+00
          1   -1    0    0  502    0  0.00000000000E+00  0.00000000000E+00  0.25083787192E+03  0.25083787192E+03  0.00000000000E+00 0.  1.
         13   -1    0    0    0    0 -0.00000000000E+00 -0.00000000000E+00 -0.27500000000E+03  0.27500000000E+03  0.00000000000E+00 0.  1.
    9000005    2    1    2  501    0  0.27224888748E+02  0.17505786673E+02 -0.45930575419E+02  0.48683130281E+03  0.48357776262E+03 0.  0.
         13    1    3    3    0    0  0.23781413536E+03 -0.58870752855E+02 -0.85238199299E+02  0.25939714558E+03  0.00000000000E+00 0.  1.
          3    1    3    3  501    0 -0.21058924661E+03  0.76376539528E+02  0.39307623880E+02  0.22743415723E+03  0.00000000000E+00 0.  1.
         21    1    1    2  502  501 -0.27224888748E+02 -0.17505786673E+02  0.21768447343E+02  0.39006569115E+02  0.00000000000E+00 0. -1.
<scales pt_clust_4="550.00000" pt_clust_5="550.00000" pt_clust_6="32.36738"></scales>
<mgrwt>
<rscale>  0 0.30000000E+03</rscale>
<asrwt>  1 0.32367378E+02</asrwt>
<pdfrwt beam="1">  1        1 0.91213772E+00 0.30000000E+03</pdfrwt>
<pdfrwt beam="2">0</pdfrwt>
<totfact> 0.64544942E-05</totfact>
</mgrwt>
<clustering>
<clus scale="   32.367">  1  6  2 -1</clus>
<clus scale="  483.578">  4  5 -1 -1</clus>
<clus scale="  300.000">  1  4  2 -1</clus>
</clustering>
</event>
<event>
 6    1  0.1000035E-011  0.3000000E+03  0.7818608E-02  0.1093470E+00
          1   -1    0    0  502    0  0.00000000000E+00  0.00000000000E+00  0.25367367509E+03  0.25367367509E+03  0.00000000000E+00 0.  1.
         13   -1    0    0    0    0 -0.00000000000E+00 -0.00000000000E+00 -0.27500000000E+03  0.27500000000E+03  0.00000000000E+00 0.  1.
    9000005    2    1    2  501    0  0.11494123464E+02 -0.47480755146E+02 -0.44264886512E+02  0.47470410411E+03  0.47010431746E+03 0.  0.
         13    1    3    3    0    0  0.10578595393E+02 -0.14078443676E+03 -0.22826509489E+03  0.26839731344E+03  0.00000000000E+00 0.  1.
          1    1    3    3  501    0  0.91552807091E+00  0.93303681612E+02  0.18400020838E+03  0.20630679067E+03  0.00000000000E+00 0.  1.
         21    1    1    2  502  501 -0.11494123464E+02  0.47480755146E+02  0.22938561603E+02  0.53969570981E+02  0.00000000000E+00 0.  1.
<scales pt_clust_4="550.00000" pt_clust_5="550.00000" pt_clust_6="48.85220"></scales>
<mgrwt>
<rscale>  0 0.30000000E+03</rscale>
<asrwt>  1 0.48852195E+02</asrwt>
<pdfrwt beam="1">  1        1 0.92244973E+00 0.30000000E+03</pdfrwt>
<pdfrwt beam="2">0</pdfrwt>
<totfact> 0.34879976E-05</totfact>
</mgrwt>
<clustering>
<clus scale="   48.852">  1  6  2 -1</clus>
<clus scale="  470.104">  4  5 -1 -1</clus>
<clus scale="  300.000">  1  4  2 -1</clus>
</clustering>
</event>
<event>
 6    1  0.1000035E-011  0.3000000E+03  0.7818608E-02  0.1093470E+00
          1   -1    0    0  502    0  0.00000000000E+00  0.00000000000E+00  0.23899515584E+03  0.23899515584E+03  0.00000000000E+00 0.  1.
         13   -1    0    0    0    0 -0.00000000000E+00 -0.00000000000E+00 -0.27500000000E+03  0.27500000000E+03  0.00000000000E+00 0.  1.
    9000005    2    1    2  501    0  0.54269608730E+01 -0.30816459485E+02 -0.57050137863E+02  0.47628560179E+03  0.47182004002E+03 0.  0.
         13    1    3    3    0    0 -0.22299753898E+03 -0.17371914224E+02 -0.97357165474E+02  0.24394282827E+03  0.00000000000E+00 0.  1.
          1    1    3    3  501    0  0.22842449986E+03 -0.13444545262E+02  0.40307027610E+02  0.23234277352E+03  0.00000000000E+00 0.  1.
         21    1    1    2  502  501 -0.54269608730E+01  0.30816459485E+02  0.21045293700E+02  0.37709554047E+02  0.00000000000E+00 0.  1.
<scales pt_clust_4="550.00000" pt_clust_5="550.00000" pt_clust_6="31.29067"></scales>
<mgrwt>
<rscale>  0 0.30000000E+03</rscale>
<asrwt>  1 0.31290671E+02</asrwt>
<pdfrwt beam="1">  1        1 0.86907329E+00 0.30000000E+03</pdfrwt>
<pdfrwt beam="2">0</pdfrwt>
<totfact> 0.26439191E-04</totfact>
</mgrwt>
<clustering>
<clus scale="   31.291">  1  6  2 -1</clus>
<clus scale="  471.820">  4  5 -1 -1</clus>
<clus scale="  300.000">  1  4  2 -1</clus>
</clustering>
</event>
<event>
 6    1  0.1000035E-011  0.3000000E+03  0.7818608E-02  0.1093470E+00
          1   -1    0    0  502    0  0.00000000000E+00  0.00000000000E+00  0.23591242029E+03  0.23591242029E+03  0.00000000000E+00 0.  1.
         13   -1    0    0    0    0 -0.00000000000E+00 -0.00000000000E+00 -0.27500000000E+03  0.27500000000E+03  0.00000000000E+00 0.  1.
    9000005    2    1    2  501    0 -0.75109641082E+01 -0.29432290703E+02 -0.30018774898E+02  0.47921198594E+03  0.47730527579E+03 0.  0.
         13    1    3    3    0    0  0.20697583426E+03  0.96873924313E+02 -0.28491377608E+02  0.23029396817E+03  0.00000000000E+00 0.  1.
          1    1    3    3  501    0 -0.21448679837E+03 -0.12630621502E+03 -0.15273972893E+01  0.24891801776E+03  0.00000000000E+00 0.  1.
         21    1    1    2  502  501  0.75109641082E+01  0.29432290703E+02 -0.90688048085E+01  0.31700434358E+02  0.00000000000E+00 0. -1.
<scales pt_clust_4="550.00000" pt_clust_5="550.00000" pt_clust_6="30.37557"></scales>
<mgrwt>
<rscale>  0 0.30000000E+03</rscale>
<asrwt>  1 0.30375570E+02</asrwt>
<pdfrwt beam="1">  1        1 0.85786335E+00 0.30000000E+03</pdfrwt>
<pdfrwt beam="2">0</pdfrwt>
<totfact> 0.34996968E-04</totfact>
</mgrwt>
<clustering>
<clus scale="   30.376">  1  6  2 -1</clus>
<clus scale="  477.305">  4  5 -1 -1</clus>
<clus scale="  300.000">  1  4  2 -1</clus>
</clustering>
</event>
<event>
 6    1  0.1000035E-011  0.3000000E+03  0.7818608E-02  0.1093470E+00
          1   -1    0    0  502    0  0.00000000000E+00  0.00000000000E+00  0.23872039734E+03  0.23872039734E+03  0.00000000000E+00 0.  1.
         13   -1    0    0    0    0 -0.00000000000E+00 -0.00000000000E+00 -0.27500000000E+03  0.27500000000E+03  0.00000000000E+00 0.  1.
    9000005    2    1    2  501    0  0.32664547646E+02 -0.22060046148E+01 -0.70877133948E+02  0.46608817820E+03  0.45950275582E+03 0.  0.
         13    1    3    3    0    0  0.16601156437E+03  0.17165749989E+03 -0.11521263836E+02  0.23907922598E+03  0.00000000000E+00 0.  1.
          1    1    3    3  501    0 -0.13334701673E+03 -0.17386350451E+03 -0.59355870112E+02  0.22700895222E+03  0.00000000000E+00 0.  1.
         21    1    1    2  502  501 -0.32664547646E+02  0.22060046148E+01  0.34597531284E+02  0.47632219140E+02  0.00000000000E+00 0.  1.
<scales pt_clust_4="550.00000" pt_clust_5="550.00000" pt_clust_6="32.73895"></scales>
<mgrwt>
<rscale>  0 0.30000000E+03</rscale>
<asrwt>  1 0.32738954E+02</asrwt>
<pdfrwt beam="1">  1        1 0.86807417E+00 0.30000000E+03</pdfrwt>
<pdfrwt beam="2">0</pdfrwt>
<totfact> 0.26843020E-04</totfact>
</mgrwt>
<clustering>
<clus scale="   32.739">  1  6  2 -1</clus>
<clus scale="  459.503">  4  5 -1 -1</clus>
<clus scale="  300.000">  1  4  2 -1</clus>
</clustering>
</event>
<event>
 6    1  0.1000035E-011  0.3000000E+03  0.7818608E-02  0.1093470E+00
          1   -1    0    0  502    0  0.00000000000E+00  0.00000000000E+00  0.23454047144E+03  0.23454047144E+03  0.00000000000E+00 0.  1.
         13   -1    0    0    0    0 -0.00000000000E+00 -0.00000000000E+00 -0.27500000000E+03  0.27500000000E+03  0.00000000000E+00 0.  1.
    9000005    2    1    2  501    0 -0.27360247341E+02  0.27469645994E+02 -0.48579625490E+02  0.46992859747E+03  0.46580010962E+03 0.  0.
         13    1    3    3    0    0 -0.74098967382E+02  0.20949798100E+03  0.86530170762E+02  0.23846914153E+03  0.00000000000E+00 0.  1.
          3    1    3    3  501    0  0.46738720042E+02 -0.18202833501E+03 -0.13510979625E+03  0.23145945593E+03  0.00000000000E+00 0.  1.
         21    1    1    2  502  501  0.27360247341E+02 -0.27469645994E+02  0.81200969304E+01  0.39611873974E+02  0.00000000000E+00 0. -1.
<scales pt_clust_4="550.00000" pt_clust_5="550.00000" pt_clust_6="38.77067"></scales>
<mgrwt>
<rscale>  0 0.30000000E+03</rscale>
<asrwt>  1 0.38770667E+02</asrwt>
<pdfrwt beam="1">  1        1 0.85287444E+00 0.30000000E+03</pdfrwt>
<pdfrwt beam="2">0</pdfrwt>
<totfact> 0.37495480E-04</totfact>
</mgrwt>
<clustering>
<clus scale="   38.771">  1  6  2 -1</clus>
<clus scale="  465.800">  4  5 -1 -1</clus>
<clus scale="  300.000">  1  4  2 -1</clus>
</clustering>
</event>
<event>
 6    1  0.1000035E-011  0.3000000E+03  0.7818608E-02  0.1093470E+00
          1   -1    0    0  502    0  0.00000000000E+00  0.00000000000E+00  0.23653108286E+03  0.23653108286E+03  0.00000000000E+00 0.  1.
         13   -1    0    0    0    0 -0.00000000000E+00 -0.00000000000E+00 -0.27500000000E+03  0.27500000000E+03  0.00000000000E+00 0.  1.
    9000005    2    1    2  501    0 -0.41130854713E+02 -0.22271348988E+02 -0.52578574069E+02  0.46267575957E+03  0.45729267636E+03 0.  0.
         13    1    3    3    0    0 -0.13548242586E+03  0.14193211376E+03  0.99305337348E+02  0.21991307978E+03  0.00000000000E+00 0.  1.
          3    1    3    3  501    0  0.94351571143E+02 -0.16420346274E+03 -0.15188391142E+03  0.24276267980E+03  0.00000000000E+00 0.  1.
         21    1    1    2  502  501  0.41130854713E+02  0.22271348988E+02  0.14109656933E+02  0.48855323292E+02  0.00000000000E+00 0.  1.
<scales pt_clust_4="550.00000" pt_clust_5="550.00000" pt_clust_6="46.77350"></scales>
<mgrwt>
<rscale>  0 0.30000000E+03</rscale>
<asrwt>  1 0.46773499E+02</asrwt>
<pdfrwt beam="1">  1        1 0.86011303E+00 0.30000000E+03</pdfrwt>
<pdfrwt beam="2">0</pdfrwt>
<totfact> 0.30597070E-04</totfact>
</mgrwt>
<clustering>
<clus scale="   46.773">  1  6  2 -1</clus>
<clus scale="  457.293">  4  5 -1 -1</clus>
<clus scale="  300.000">  1  4  2 -1</clus>
</clustering>
</event>
<event>
 6    1  0.1000035E-011  0.3000000E+03  0.7818608E-02  0.1093470E+00
          1   -1    0    0  502    0  0.00000000000E+00  0.00000000000E+00  0.24918846563E+03  0.24918846563E+03  0.00000000000E+00 0.  1.
         13   -1    0    0    0    0 -0.00000000000E+00 -0.00000000000E+00 -0.27500000000E+03  0.27500000000E+03  0.00000000000E+00 0.  1.
    9000005    2    1    2  501    0  0.35948627882E+02 -0.37556574791E+01 -0.68888782862E+02  0.46795628492E+03  0.46144448353E+03 0.  0.
         13    1    3    3    0    0 -0.51464843908E+02  0.10721677887E+02  0.18852644608E+03  0.19571868946E+03  0.00000000000E+00 0.  1.
          1    1    3    3  501    0  0.87413471790E+02 -0.14477335366E+02 -0.25741522894E+03  0.27223759546E+03  0.00000000000E+00 0.  1.
         21    1    1    2  502  501 -0.35948627882E+02  0.37556574791E+01  0.43077248489E+02  0.56232180707E+02  0.00000000000E+00 0.  1.
<scales pt_clust_4="550.00000" pt_clust_5="550.00000" pt_clust_6="36.14428"></scales>
<mgrwt>
<rscale>  0 0.30000000E+03</rscale>
<asrwt>  1 0.36144278E+02</asrwt>
<pdfrwt beam="1">  1        1 0.90613988E+00 0.30000000E+03</pdfrwt>
<pdfrwt beam="2">0</pdfrwt>
<totfact> 0.87287290E-05</totfact>
</mgrwt>
<clustering>
<clus scale="   36.144">  1  6  2 -1</clus>
<clus scale="  461.444">  4  5 -1 -1</clus>
<clus scale="  300.000">  1  4  2 -1</clus>
</clustering>
</event>
<event>
 6    1  0.1000035E-011  0.3000000E+03  0.7818608E-02  0.1093470E+00
          1   -1    0    0  502    0  0.00000000000E+00  0.00000000000E+00  0.23005643770E+03  0.23005643770E+03  0.00000000000E+00 0.  1.
         13   -1    0    0    0    0 -0.00000000000E+00 -0.00000000000E+00 -0.27500000000E+03  0.27500000000E+03  0.00000000000E+00 0.  1.
    9000005    2    1    2  501    0  0.21417818792E+02 -0.22493671702E+02 -0.50217142128E+02  0.47355248759E+03  0.46985690259E+03 0.  0.
         13    1    3    3    0    0 -0.46491386622E+02 -0.16454892987E+03  0.14398661106E+03  0.22353957931E+03  0.00000000000E+00 0.  1.
          3    1    3    3  501    0  0.67909205414E+02  0.14205525817E+03 -0.19420375319E+03  0.25001290828E+03  0.00000000000E+00 0.  1.
         21    1    1    2  502  501 -0.21417818792E+02  0.22493671702E+02  0.52735798284E+01  0.31503950112E+02  0.00000000000E+00 0. -1.
<scales pt_clust_4="550.00000" pt_clust_5="550.00000" pt_clust_6="31.05943"></scales>
<mgrwt>
<rscale>  0 0.30000000E+03</rscale>
<asrwt>  1 0.31059431E+02</asrwt>
<pdfrwt beam="1">  1        1 0.83656886E+00 0.30000000E+03</pdfrwt>
<pdfrwt beam="2">0</pdfrwt>
<totfact> 0.53901480E-04</totfact>
</mgrwt>
<clustering>
<clus scale="   31.059">  1  6  2 -1</clus>
<clus scale="  469.857">  4  5 -1 -1</clus>
<clus scale="  300.000">  1  4  2 -1</clus>
</clustering>
</event>
<event>
 6    1  0.1000035E-011  0.3000000E+03  0.7818608E-02  0.1093470E+00
          1   -1    0    0  502    0  0.00000000000E+00  0.00000000000E+00  0.23187960271E+03  0.23187960271E+03  0.00000000000E+00 0.  1.
         13   -1    0    0    0    0 -0.00000000000E+00 -0.00000000000E+00 -0.27500000000E+03  0.27500000000E+03  0.00000000000E+00 0.  1.
    9000005    2    1    2  501    0  0.38069291037E+02  0.13373684660E+02 -0.53607533656E+02  0.46518899957E+03  0.46032478892E+03 0.  0.
         13    1    3    3    0    0  0.62708831349E+02  0.23168585638E+03 -0.44759415514E+01  0.24006409066E+03  0.00000000000E+00 0.  1.
          1    1    3    3  501    0 -0.24639540311E+02 -0.21831217172E+03 -0.49131592105E+02  0.22512490890E+03  0.00000000000E+00 0.  1.
         21    1    1    2  502  501 -0.38069291037E+02 -0.13373684660E+02  0.10487136370E+02  0.41690603147E+02  0.00000000000E+00 0. -1.
<scales pt_clust_4="550.00000" pt_clust_5="550.00000" pt_clust_6="40.35005"></scales>
<mgrwt>
<rscale>  0 0.30000000E+03</rscale>
<asrwt>  1 0.40350048E+02</asrwt>
<pdfrwt beam="1">  1        1 0.84319856E+00 0.30000000E+03</pdfrwt>
<pdfrwt beam="2">0</pdfrwt>
<totfact> 0.45609861E-04</totfact>
</mgrwt>
<clustering>
<clus scale="   40.350">  1  6  2 -1</clus>
<clus scale="  460.325">  4  5 -1 -1</clus>
<clus scale="  300.000">  1  4  2 -1</clus>
</clustering>
</event>
<event>
 6    1  0.1000035E-011  0.3000000E+03  0.7818608E-02  0.1093470E+00
          1   -1    0    0  502    0  0.00000000000E+00  0.00000000000E+00  0.24621662033E+03  0.24621662033E+03  0.00000000000E+00 0.  1.
         13   -1    0    0    0    0 -0.00000000000E+00 -0.00000000000E+00 -0.27500000000E+03  0.27500000000E+03  0.00000000000E+00 0.  1.
    9000005    2    1    2  501    0 -0.22226699218E+02  0.35036953023E+02 -0.31142647979E+02  0.47965726059E+03  0.47684337982E+03 0.  0.
         13    1    3    3    0    0 -0.15300380327E+03  0.11555869858E+03 -0.18201191689E+03  0.26437154635E+03  0.00000000000E+00 0.  1.
          1    1    3    3  501    0  0.13077710405E+03 -0.80521745559E+02  0.15086926891E+03  0.21528571423E+03  0.00000000000E+00 0.  1.
         21    1    1    2  502  501  0.22226699218E+02 -0.35036953023E+02  0.23592683071E+01  0.41559359743E+02  0.00000000000E+00 0.  1.
<scales pt_clust_4="550.00000" pt_clust_5="550.00000" pt_clust_6="41.49234"></scales>
<mgrwt>
<rscale>  0 0.30000000E+03</rscale>
<asrwt>  1 0.41492339E+02</asrwt>
<pdfrwt beam="1">  1        1 0.89533316E+00 0.30000000E+03</pdfrwt>
<pdfrwt beam="2">0</pdfrwt>
<totfact> 0.12115792E-04</totfact>
</mgrwt>
<clustering>
<clus scale="   41.492">  1  6  2 -1</clus>
<clus scale="  476.843">  4  5 -1 -1</clus>
<clus scale="  300.000">  1  4  2 -1</clus>
</clustering>
</event>
<event>
 6    1  0.1000035E-011  0.3000000E+03  0.7818608E-02  0.1093470E+00
          1   -1    0    0  502    0  0.00000000000E+00  0.00000000000E+00  0.23839325814E+03  0.23839325814E+03  0.00000000000E+00 0.  1.
         13   -1    0    0    0    0 -0.00000000000E+00 -0.00000000000E+00 -0.27500000000E+03  0.27500000000E+03  0.00000000000E+00 0.  1.
    9000005    2    1    2  501    0  0.22995181968E+02  0.32841268567E+02 -0.51370967926E+02  0.47066961496E+03  0.46613687130E+03 0.  0.
         13    1    3    3    0    0 -0.13734393849E+03  0.13068192742E+03 -0.16483972568E+03  0.25122352349E+03  0.00000000000E+00 0.  1.
          3    1    3    3  501    0  0.16033912046E+03 -0.97840658852E+02  0.11346875776E+03  0.21944609147E+03  0.00000000000E+00 0.  1.
         21    1    1    2  502  501 -0.22995181968E+02 -0.32841268567E+02  0.14764226063E+02  0.42723643174E+02  0.00000000000E+00 0. -1.
<scales pt_clust_4="550.00000" pt_clust_5="550.00000" pt_clust_6="40.09149"></scales>
<mgrwt>
<rscale>  0 0.30000000E+03</rscale>
<asrwt>  1 0.40091487E+02</asrwt>
<pdfrwt beam="1">  1        1 0.86688458E+00 0.30000000E+03</pdfrwt>
<pdfrwt beam="2">0</pdfrwt>
<totfact> 0.26602112E-04</totfact>
</mgrwt>
<clustering>
<clus scale="   40.091">  1  6  2 -1</clus>
<clus scale="  466.137">  4  5 -1 -1</clus>
<clus scale="  300.000">  1  4  2 -1</clus>
</clustering>
</event>
<event>
 6    1  0.1000035E-011  0.3000000E+03  0.7818608E-02  0.1093470E+00
          1   -1    0    0  502    0  0.00000000000E+00  0.00000000000E+00  0.23039571070E+03  0.23039571070E+03  0.00000000000E+00 0.  1.
         13   -1    0    0    0    0 -0.00000000000E+00 -0.00000000000E+00 -0.27500000000E+03  0.27500000000E+03  0.00000000000E+00 0.  1.
    9000005    2    1    2  501    0  0.84113211919E+01  0.40098918471E+02 -0.57344285522E+02  0.46248905515E+03  0.45708761246E+03 0.  0.
         13    1    3    3    0    0  0.60413568866E+02 -0.47221769556E+02  0.18469389995E+03  0.19997882764E+03  0.00000000000E+00 0.  1.
          1    1    3    3  501    0 -0.52002247674E+02  0.87320688026E+02 -0.24203818547E+03  0.26251022751E+03  0.00000000000E+00 0.  1.
         21    1    1    2  502  501 -0.84113211919E+01 -0.40098918471E+02  0.12739996217E+02  0.42906655548E+02  0.00000000000E+00 0.  1.
<scales pt_clust_4="550.00000" pt_clust_5="550.00000" pt_clust_6="40.97162"></scales>
<mgrwt>
<rscale>  0 0.30000000E+03</rscale>
<asrwt>  1 0.40971619E+02</asrwt>
<pdfrwt beam="1">  1        1 0.83780258E+00 0.30000000E+03</pdfrwt>
<pdfrwt beam="2">0</pdfrwt>
<totfact> 0.50141357E-04</totfact>
</mgrwt>
<clustering>
<clus scale="   40.972">  1  6  2 -1</clus>
<clus scale="  457.088">  4  5 -1 -1</clus>
<clus scale="  300.000">  1  4  2 -1</clus>
</clustering>
</event>
<event>
 6    1  0.1000035E-011  0.3000000E+03  0.7818608E-02  0.1093470E+00
          1   -1    0    0  502    0  0.00000000000E+00  0.00000000000E+00  0.24605138379E+03  0.24605138379E+03  0.00000000000E+00 0.  1.
         13   -1    0    0    0    0 -0.00000000000E+00 -0.00000000000E+00 -0.27500000000E+03  0.27500000000E+03  0.00000000000E+00 0.  1.
    9000005    2    1    2  501    0  0.35155650535E+02 -0.91833682492E+01 -0.68633591596E+02  0.46724477371E+03  0.46074597627E+03 0.  0.
         13    1    3    3    0    0  0.26294480213E+02 -0.35841346614E+02 -0.26508940312E+03  0.26879061268E+03  0.00000000000E+00 0.  1.
          1    1    3    3  501    0  0.88611703219E+01  0.26657978365E+02  0.19645581152E+03  0.19845416103E+03  0.00000000000E+00 0.  1.
         21    1    1    2  502  501 -0.35155650535E+02  0.91833682492E+01  0.39684975384E+02  0.53806610078E+02  0.00000000000E+00 0.  1.
<scales pt_clust_4="550.00000" pt_clust_5="550.00000" pt_clust_6="36.33530"></scales>
<mgrwt>
<rscale>  0 0.30000000E+03</rscale>
<asrwt>  1 0.36335300E+02</asrwt>
<pdfrwt beam="1">  1        1 0.89473230E+00 0.30000000E+03</pdfrwt>
<pdfrwt beam="2">0</pdfrwt>
<totfact> 0.12608594E-04</totfact>
</mgrwt>
<clustering>
<clus scale="   36.335">  1  6  2 -1</clus>
<clus scale="  460.746">  4  5 -1 -1</clus>
<clus scale="  300.000">  1  4  2 -1</clus>
</clustering>
</event>
<event>
 6    1  0.1000035E-011  0.3000000E+03  0.7818608E-02  0.1093470E+00
          1   -1    0    0  502    0  0.00000000000E+00  0.00000000000E+00  0.24331143199E+03  0.24331143199E+03  0.00000000000E+00 0.  1.
         13   -1    0    0    0    0 -0.00000000000E+00 -0.00000000000E+00 -0.27500000000E+03  0.27500000000E+03  0.00000000000E+00 0.  1.
    9000005    2    1    2  501    0  0.40640415389E+02  0.90613541841E+01 -0.50305331478E+02  0.47270073823E+03  0.46816835652E+03 0.  0.
         13    1    3    3    0    0 -0.38028656465E+02 -0.50797389839E+02 -0.24567949891E+03  0.25374193526E+03  0.00000000000E+00 0.  1.
          1    1    3    3  501    0  0.78669071854E+02  0.59858744023E+02  0.19537416743E+03  0.21895880297E+03  0.00000000000E+00 0.  1.
         21    1    1    2  502  501 -0.40640415389E+02 -0.90613541841E+01  0.18616763464E+02  0.45610693751E+02  0.00000000000E+00 0.  1.
<scales pt_clust_4="550.00000" pt_clust_5="550.00000" pt_clust_6="41.63834"></scales>
<mgrwt>
<rscale>  0 0.30000000E+03</rscale>
<asrwt>  1 0.41638342E+02</asrwt>
<pdfrwt beam="1">  1        1 0.88476884E+00 0.30000000E+03</pdfrwt>
<pdfrwt beam="2">0</pdfrwt>
<totfact> 0.16557017E-04</totfact>
</mgrwt>
<clustering>
<clus scale="   41.638">  1  6  2 -1</clus>
<clus scale="  468.168">  4  5 -1 -1</clus>
<clus scale="  300.000">  1  4  2 -1</clus>
</clustering>
</event>
<event>
 6    1  0.1000035E-011  0.3000000E+03  0.7818608E-02  0.1093470E+00
          1   -1    0    0  502    0  0.00000000000E+00  0.00000000000E+00  0.23928069529E+03  0.23928069529E+03  0.00000000000E+00 0.  1.
         13   -1    0    0    0    0 -0.00000000000E+00 -0.00000000000E+00 -0.27500000000E+03  0.27500000000E+03  0.00000000000E+00 0.  1.
    9000005    2    1    2  501    0  0.39176202397E+02 -0.24632139650E+02 -0.42428618499E+02  0.46752032714E+03  0.46328560466E+03 0.  0.
         13    1    3    3    0    0  0.25037747375E+03 -0.30554501820E+02 -0.11289136596E+01  0.25223745041E+03  0.00000000000E+00 0.  1.
          3    1    3    3  501    0 -0.21120127135E+03  0.59223621707E+01 -0.41299704839E+02  0.21528287673E+03  0.00000000000E+00 0.  1.
         21    1    1    2  502  501 -0.39176202397E+02  0.24632139650E+02  0.67093137927E+01  0.46760368150E+02  0.00000000000E+00 0. -1.
<scales pt_clust_4="550.00000" pt_clust_5="550.00000" pt_clust_6="46.27653"></scales>
<mgrwt>
<rscale>  0 0.30000000E+03</rscale>
<asrwt>  1 0.46276529E+02</asrwt>
<pdfrwt beam="1">  1        1 0.87011162E+00 0.30000000E+03</pdfrwt>
<pdfrwt beam="2">0</pdfrwt>
<totfact> 0.24004617E-04</totfact>
</mgrwt>
<clustering>
<clus scale="   46.277">  1  6  2 -1</clus>
<clus scale="  463.286">  4  5 -1 -1</clus>
<clus scale="  300.000">  1  4  2 -1</clus>
</clustering>
</event>
<event>
 6    1  0.1000035E-011  0.3000000E+03  0.7818608E-02  0.1093470E+00
          1   -1    0    0  502    0  0.00000000000E+00  0.00000000000E+00  0.22474745111E+03  0.22474745111E+03  0.00000000000E+00 0.  1.
         13   -1    0    0    0    0 -0.00000000000E+00 -0.00000000000E+00 -0.27500000000E+03  0.27500000000E+03  0.00000000000E+00 0.  1.
    9000005    2    1    2  501    0 -0.30733663725E+02 -0.12694393018E+02 -0.52057983911E+02  0.46644632056E+03  0.46233800469E+03 0.  0.
         13    1    3    3    0    0 -0.16854800927E+03  0.77052736323E+01  0.14679721502E+03  0.22364531072E+03  0.00000000000E+00 0.  1.
          1    1    3    3  501    0  0.13781434555E+03 -0.20399666651E+02 -0.19885519893E+03  0.24280100984E+03  0.00000000000E+00 0.  1.
         21    1    1    2  502  501  0.30733663725E+02  0.12694393018E+02  0.18054350225E+01  0.33301130546E+02  0.00000000000E+00 0.  1.
<scales pt_clust_4="550.00000" pt_clust_5="550.00000" pt_clust_6="33.25215"></scales>
<mgrwt>
<rscale>  0 0.30000000E+03</rscale>
<asrwt>  1 0.33252153E+02</asrwt>
<pdfrwt beam="1">  1        1 0.81726346E+00 0.30000000E+03</pdfrwt>
<pdfrwt beam="2">0</pdfrwt>
<totfact> 0.77025511E-04</totfact>
</mgrwt>
<clustering>
<clus scale="   33.252">  1  6  2 -1</clus>
<clus scale="  462.338">  4  5 -1 -1</clus>
<clus scale="  300.000">  1  4  2 -1</clus>
</clustering>
</event>
<event>
 6    1  0.1000035E-011  0.3000000E+03  0.7818608E-02  0.1093470E+00
          1   -1    0    0  502    0  0.00000000000E+00  0.00000000000E+00  0.21867866898E+03  0.21867866898E+03  0.00000000000E+00 0.  1.
         13   -1    0    0    0    0 -0.00000000000E+00 -0.00000000000E+00 -0.27500000000E+03  0.27500000000E+03  0.00000000000E+00 0.  1.
    9000005    2    1    2  501    0 -0.34367294883E+01 -0.30541809447E+02 -0.62571808190E+02  0.46231496864E+03  0.45702875820E+03 0.  0.
         13    1    3    3    0    0  0.21766173797E+03  0.45020449239E+02 -0.82103903459E+01  0.22242051060E+03  0.00000000000E+00 0.  1.
          3    1    3    3  501    0 -0.22109846746E+03 -0.75562258686E+02 -0.54361417844E+02  0.23989445804E+03  0.00000000000E+00 0.  1.
         21    1    1    2  502  501  0.34367294883E+01  0.30541809447E+02  0.62504771692E+01  0.31363700335E+02  0.00000000000E+00 0. -1.
<scales pt_clust_4="550.00000" pt_clust_5="550.00000" pt_clust_6="30.73456"></scales>
<mgrwt>
<rscale>  0 0.30000000E+03</rscale>
<asrwt>  1 0.30734561E+02</asrwt>
<pdfrwt beam="1">  1        1 0.79519516E+00 0.30000000E+03</pdfrwt>
<pdfrwt beam="2">0</pdfrwt>
<totfact> 0.11523275E-03</totfact>
</mgrwt>
<clustering>
<clus scale="   30.735">  1  6  2 -1</clus>
<clus scale="  457.029">  4  5 -1 -1</clus>
<clus scale="  300.000">  1  4  2 -1</clus>
</clustering>
</event>
<event>
 6    1  0.1000035E-011  0.3000000E+03  0.7818608E-02  0.1093470E+00
          1   -1    0    0  502    0  0.00000000000E+00  0.00000000000E+00  0.23176957189E+03  0.23176957189E+03  0.00000000000E+00 0.  1.
         13   -1    0    0    0    0 -0.00000000000E+00 -0.00000000000E+00 -0.27500000000E+03  0.27500000000E+03  0.00000000000E+00 0.  1.
    9000005    2    1    2  501    0 -0.24812980358E+02  0.27673340979E+02 -0.58911628363E+02  0.46642855261E+03  0.46119791515E+03 0.  0.
         13    1    3    3    0    0 -0.14033839578E+03  0.63234531364E+02  0.15644209007E+03  0.21947117995E+03  0.00000000000E+00 0.  1.
          3    1    3    3  501    0  0.11552541542E+03 -0.35561190384E+02 -0.21535371843E+03  0.24695737266E+03  0.00000000000E+00 0.  1.
         21    1    1    2  502  501  0.24812980358E+02 -0.27673340979E+02  0.15681200256E+02  0.40341019282E+02  0.00000000000E+00 0. -1.
<scales pt_clust_4="550.00000" pt_clust_5="550.00000" pt_clust_6="37.16851"></scales>
<mgrwt>
<rscale>  0 0.30000000E+03</rscale>
<asrwt>  1 0.37168505E+02</asrwt>
<pdfrwt beam="1">  1        1 0.84279844E+00 0.30000000E+03</pdfrwt>
<pdfrwt beam="2">0</pdfrwt>
<totfact> 0.46663568E-04</totfact>
</mgrwt>
<clustering>
<clus scale="   37.169">  1  6  2 -1</clus>
<clus scale="  461.198">  4  5 -1 -1</clus>
<clus scale="  300.000">  1  4  2 -1</clus>
</clustering>
</event>
<event>
 6    1  0.1000035E-011  0.3000000E+03  0.7818608E-02  0.1093470E+00
          1   -1    0    0  502    0  0.00000000000E+00  0.00000000000E+00  0.22765669419E+03  0.22765669419E+03  0.00000000000E+00 0.  1.
         13   -1    0    0    0    0 -0.00000000000E+00 -0.00000000000E+00 -0.27500000000E+03  0.27500000000E+03  0.00000000000E+00 0.  1.
    9000005    2    1    2  501    0  0.24933205118E+02  0.29102279003E+02 -0.37762109935E+02  0.46315471101E+03  0.46001924093E+03 0.  0.
         13    1    3    3    0    0  0.25551234177E+02 -0.17548216107E+03 -0.14780385414E+03  0.23085240679E+03  0.00000000000E+00 0.  1.
          1    1    3    3  501    0 -0.61802905885E+00  0.20458444007E+03  0.11004174420E+03  0.23230230422E+03  0.00000000000E+00 0.  1.
         21    1    1    2  502  501 -0.24933205118E+02 -0.29102279003E+02 -0.95811958733E+01  0.39501983178E+02  0.00000000000E+00 0. -1.
<scales pt_clust_4="550.00000" pt_clust_5="550.00000" pt_clust_6="38.32243"></scales>
<mgrwt>
<rscale>  0 0.30000000E+03</rscale>
<asrwt>  1 0.38322432E+02</asrwt>
<pdfrwt beam="1">  1        1 0.82784252E+00 0.30000000E+03</pdfrwt>
<pdfrwt beam="2">0</pdfrwt>
<totfact> 0.60619678E-04</totfact>
</mgrwt>
<clustering>
<clus scale="   38.322">  1  6  2 -1</clus>
<clus scale="  460.019">  4  5 -1 -1</clus>
<clus scale="  300.000">  1  4  2 -1</clus>
</clustering>
</event>
<event>
 6    1  0.1000035E-011  0.3000000E+03  0.7818608E-02  0.1093470E+00
          1   -1    0    0  502    0  0.00000000000E+00  0.00000000000E+00  0.23520387639E+03  0.23520387639E+03  0.00000000000E+00 0.  1.
         13   -1    0    0    0    0 -0.00000000000E+00 -0.00000000000E+00 -0.27500000000E+03  0.27500000000E+03  0.00000000000E+00 0.  1.
    9000005    2    1    2  501    0 -0.82349656574E+01  0.35275223682E+02 -0.42523835072E+02  0.47387762590E+03  0.47057366237E+03 0.  0.
         13    1    3    3    0    0  0.34107852395E+02  0.22237577385E+03 -0.13345974997E+03  0.26158332373E+03  0.00000000000E+00 0.  1.
          3    1    3    3  501    0 -0.42342818053E+02 -0.18710055017E+03  0.90935914897E+02  0.21229430217E+03  0.00000000000E+00 0.  1.
         21    1    1    2  502  501  0.82349656574E+01 -0.35275223682E+02  0.27277114649E+01  0.36326250495E+02  0.00000000000E+00 0. -1.
<scales pt_clust_4="550.00000" pt_clust_5="550.00000" pt_clust_6="36.22369"></scales>
<mgrwt>
<rscale>  0 0.30000000E+03</rscale>
<asrwt>  1 0.36223695E+02</asrwt>
<pdfrwt beam="1">  1        1 0.85528682E+00 0.30000000E+03</pdfrwt>
<pdfrwt beam="2">0</pdfrwt>
<totfact> 0.35964014E-04</totfact>
</mgrwt>
<clustering>
<clus scale="   36.224">  1  6  2 -1</clus>
<clus scale="  470.574">  4  5 -1 -1</clus>
<clus scale="  300.000">  1  4  2 -1</clus>
</clustering>
</event>
<event>
 6    1  0.1000035E-011  0.3000000E+03  0.7818608E-02  0.1093470E+00
          1   -1    0    0  502    0  0.00000000000E+00  0.00000000000E+00  0.22597509311E+03  0.22597509311E+03  0.00000000000E+00 0.  1.
         13   -1    0    0    0    0 -0.00000000000E+00 -0.00000000000E+00 -0.27500000000E+03  0.27500000000E+03  0.00000000000E+00 0.  1.
    9000005    2    1    2  501    0  0.45975172522E+00 -0.31373255099E+02 -0.67390749949E+02  0.46461857102E+03  0.45863319859E+03 0.  0.
         13    1    3    3    0    0  0.53176364911E+02  0.88190954501E+02  0.16703776355E+03  0.19623196654E+03  0.00000000000E+00 0.  1.
          1    1    3    3  501    0 -0.52716613186E+02 -0.11956420960E+03 -0.23442851350E+03  0.26838660448E+03  0.00000000000E+00 0.  1.
         21    1    1    2  502  501 -0.45975172522E+00  0.31373255099E+02  0.18365843062E+02  0.36356522091E+02  0.00000000000E+00 0. -1.
<scales pt_clust_4="550.00000" pt_clust_5="550.00000" pt_clust_6="31.37662"></scales>
<mgrwt>
<rscale>  0 0.30000000E+03</rscale>
<asrwt>  1 0.31376624E+02</asrwt>
<pdfrwt beam="1">  1        1 0.82172761E+00 0.30000000E+03</pdfrwt>
<pdfrwt beam="2">0</pdfrwt>
<totfact> 0.71310859E-04</totfact>
</mgrwt>
<clustering>
<clus scale="   31.377">  1  6  2 -1</clus>
<clus scale="  458.633">  4  5 -1 -1</clus>
<clus scale="  300.000">  1  4  2 -1</clus>
</clustering>
</event>
<event>
 6    1  0.1000035E-011  0.3000000E+03  0.7818608E-02  0.1093470E+00
          1   -1    0    0  502    0  0.00000000000E+00  0.00000000000E+00  0.22753164238E+03  0.22753164238E+03  0.00000000000E+00 0.  1.
         13   -1    0    0    0    0 -0.00000000000E+00 -0.00000000000E+00 -0.27500000000E+03  0.27500000000E+03  0.00000000000E+00 0.  1.
    9000005    2    1    2  501    0  0.54909607205E+01  0.30951840730E+02 -0.52252149131E+02  0.47073460234E+03  0.46676826334E+03 0.  0.
         13    1    3    3    0    0 -0.61803586647E+02  0.20960058770E+03 -0.14115302463E+03  0.26014662414E+03  0.00000000000E+00 0.  1.
          3    1    3    3  501    0  0.67294547367E+02 -0.17864874697E+03  0.88900875501E+02  0.21058797820E+03  0.00000000000E+00 0.  1.
         21    1    1    2  502  501 -0.54909607205E+01 -0.30951840730E+02  0.47837915138E+01  0.31797040042E+02  0.00000000000E+00 0.  1.
<scales pt_clust_4="550.00000" pt_clust_5="550.00000" pt_clust_6="31.43513"></scales>
<mgrwt>
<rscale>  0 0.30000000E+03</rscale>
<asrwt>  1 0.31435125E+02</asrwt>
<pdfrwt beam="1">  1        1 0.82738779E+00 0.30000000E+03</pdfrwt>
<pdfrwt beam="2">0</pdfrwt>
<totfact> 0.63488753E-04</totfact>
</mgrwt>
<clustering>
<clus scale="   31.435">  1  6  2 -1</clus>
<clus scale="  466.768">  4  5 -1 -1</clus>
<clus scale="  300.000">  1  4  2 -1</clus>
</clustering>
</event>
<event>
 6    1  0.1000035E-011  0.3000000E+03  0.7818608E-02  0.1093470E+00
          1   -1    0    0  502    0  0.00000000000E+00  0.00000000000E+00  0.23681597391E+03  0.23681597391E+03  0.00000000000E+00 0.  1.
         13   -1    0    0    0    0 -0.00000000000E+00 -0.00000000000E+00 -0.27500000000E+03  0.27500000000E+03  0.00000000000E+00 0.  1.
    9000005    2    1    2  501    0 -0.33815350751E+02 -0.14397005017E+02 -0.36444042061E+02  0.47502223471E+03  0.47219403169E+03 0.  0.
         13    1    3    3    0    0 -0.31963705133E+02  0.19622063437E+03  0.10152650001E+03  0.22323047731E+03  0.00000000000E+00 0.  1.
          1    1    3    3  501    0 -0.18516456183E+01 -0.21061763939E+03 -0.13797054207E+03  0.25179175739E+03  0.00000000000E+00 0.  1.
         21    1    1    2  502  501  0.33815350751E+02  0.14397005017E+02 -0.17399840299E+01  0.36793739200E+02  0.00000000000E+00 0. -1.
<scales pt_clust_4="550.00000" pt_clust_5="550.00000" pt_clust_6="36.75257"></scales>
<mgrwt>
<rscale>  0 0.30000000E+03</rscale>
<asrwt>  1 0.36752574E+02</asrwt>
<pdfrwt beam="1">  1        1 0.86114900E+00 0.30000000E+03</pdfrwt>
<pdfrwt beam="2">0</pdfrwt>
<totfact> 0.31157313E-04</totfact>
</mgrwt>
<clustering>
<clus scale="   36.753">  1  6  2 -1</clus>
<clus scale="  472.194">  4  5 -1 -1</clus>
<clus scale="  300.000">  1  4  2 -1</clus>
</clustering>
</event>
<event>
 6    1  0.1000035E-011  0.3000000E+03  0.7818608E-02  0.1093470E+00
          1   -1    0    0  502    0  0.00000000000E+00  0.00000000000E+00  0.22950166092E+03  0.22950166092E+03  0.00000000000E+00 0.  1.
         13   -1    0    0    0    0 -0.00000000000E+00 -0.00000000000E+00 -0.27500000000E+03  0.27500000000E+03  0.00000000000E+00 0.  1.
    9000005    2    1    2  501    0  0.18794587144E+02 -0.34093294932E+02 -0.49319785114E+02  0.46538398314E+03  0.46112278332E+03 0.  0.
         13    1    3    3    0    0  0.22224477498E+03  0.47415107661E+02 -0.86365768870E+02  0.24310487135E+03  0.00000000000E+00 0.  1.
          3    1    3    3  501    0 -0.20345018784E+03 -0.81508402593E+02  0.37045983756E+02  0.22227911179E+03  0.00000000000E+00 0.  1.
         21    1    1    2  502  501 -0.18794587144E+02  0.34093294932E+02  0.38214460339E+01  0.39117677782E+02  0.00000000000E+00 0.  1.
<scales pt_clust_4="550.00000" pt_clust_5="550.00000" pt_clust_6="38.93057"></scales>
<mgrwt>
<rscale>  0 0.30000000E+03</rscale>
<asrwt>  1 0.38930570E+02</asrwt>
<pdfrwt beam="1">  1        1 0.83455149E+00 0.30000000E+03</pdfrwt>
<pdfrwt beam="2">0</pdfrwt>
<totfact> 0.53445268E-04</totfact>
</mgrwt>
<clustering>
<clus scale="   38.931">  1  6  2 -1</clus>
<clus scale="  461.123">  4  5 -1 -1</clus>
<clus scale="  300.000">  1  4  2 -1</clus>
</clustering>
</event>
<event>
 6    1  0.1000035E-011  0.3000000E+03  0.7818608E-02  0.1093470E+00
          1   -1    0    0  502    0  0.00000000000E+00  0.00000000000E+00  0.23382229803E+03  0.23382229803E+03  0.00000000000E+00 0.  1.
         13   -1    0    0    0    0 -0.00000000000E+00 -0.00000000000E+00 -0.27500000000E+03  0.27500000000E+03  0.00000000000E+00 0.  1.
    9000005    2    1    2  501    0  0.34559592084E+02 -0.66230653017E+01 -0.11895636663E+02  0.46304381239E+03  0.46155155251E+03 0.  0.
         13    1    3    3    0    0 -0.54221144091E+02 -0.22231303810E+03  0.78347502628E+01  0.22896375846E+03  0.00000000000E+00 0.  1.
          1    1    3    3  501    0  0.88780736175E+02  0.21568997280E+03 -0.19730386926E+02  0.23408005393E+03  0.00000000000E+00 0.  1.
         21    1    1    2  502  501 -0.34559592084E+02  0.66230653017E+01 -0.29282065303E+02  0.45778485640E+02  0.00000000000E+00 0.  1.
<scales pt_clust_4="550.00000" pt_clust_5="550.00000" pt_clust_6="35.18852"></scales>
<mgrwt>
<rscale>  0 0.30000000E+03</rscale>
<asrwt>  1 0.35188516E+02</asrwt>
<pdfrwt beam="1">  1        1 0.85026290E+00 0.30000000E+03</pdfrwt>
<pdfrwt beam="2">0</pdfrwt>
<totfact> 0.40427237E-04</totfact>
</mgrwt>
<clustering>
<clus scale="   35.189">  1  6  2 -1</clus>
<clus scale="  461.552">  4  5 -1 -1</clus>
<clus scale="  300.000">  1  4  2 -1</clus>
</clustering>
</event>
<event>
 6    1  0.1000035E-011  0.3000000E+03  0.7818608E-02  0.1093470E+00
          1   -1    0    0  502    0  0.00000000000E+00  0.00000000000E+00  0.22058297076E+03  0.22058297076E+03  0.00000000000E+00 0.  1.
         13   -1    0    0    0    0 -0.00000000000E+00 -0.00000000000E+00 -0.27500000000E+03  0.27500000000E+03  0.00000000000E+00 0.  1.
    9000005    2    1    2  501    0 -0.13146184177E+02  0.31008009873E+02 -0.45846793743E+02  0.46083001734E+03  0.45730521269E+03 0.  0.
         13    1    3    3    0    0  0.25056166461E+02 -0.15649815338E+02 -0.24806202191E+03  0.24981492132E+03  0.00000000000E+00 0.  1.
          3    1    3    3  501    0 -0.38202350638E+02  0.46657825211E+02  0.20221522817E+03  0.21101509603E+03  0.00000000000E+00 0.  1.
         21    1    1    2  502  501  0.13146184177E+02 -0.31008009873E+02 -0.85702354989E+01  0.34752953417E+02  0.00000000000E+00 0.  1.
<scales pt_clust_4="550.00000" pt_clust_5="550.00000" pt_clust_6="33.67967"></scales>
<mgrwt>
<rscale>  0 0.30000000E+03</rscale>
<asrwt>  1 0.33679667E+02</asrwt>
<pdfrwt beam="1">  1        1 0.80211989E+00 0.30000000E+03</pdfrwt>
<pdfrwt beam="2">0</pdfrwt>
<totfact> 0.10082019E-03</totfact>
</mgrwt>
<clustering>
<clus scale="   33.680">  1  6  2 -1</clus>
<clus scale="  457.305">  4  5 -1 -1</clus>
<clus scale="  300.000">  1  4  2 -1</clus>
</clustering>
</event>
<event>
 6    1  0.1000035E-011  0.3000000E+03  0.7818608E-02  0.1093470E+00
          1   -1    0    0  502    0  0.00000000000E+00  0.00000000000E+00  0.22709078435E+03  0.22709078435E+03  0.00000000000E+00 0.  1.
         13   -1    0    0    0    0 -0.00000000000E+00 -0.00000000000E+00 -0.27500000000E+03  0.27500000000E+03  0.00000000000E+00 0.  1.
    9000005    2    1    2  501    0 -0.22222163331E+02  0.21350810856E+02 -0.62875171390E+02  0.46783204096E+03  0.46256226576E+03 0.  0.
         13    1    3    3    0    0 -0.14549909527E+03  0.19894865360E+03 -0.48195029131E+02  0.25114401113E+03  0.00000000000E+00 0.  1.
          3    1    3    3  501    0  0.12327693194E+03 -0.17759784275E+03 -0.14680142259E+02  0.21668802983E+03  0.00000000000E+00 0.  1.
         21    1    1    2  502  501  0.22222163331E+02 -0.21350810856E+02  0.14965955742E+02  0.34258743389E+02  0.00000000000E+00 0.  1.
<scales pt_clust_4="550.00000" pt_clust_5="550.00000" pt_clust_6="30.81691"></scales>
<mgrwt>
<rscale>  0 0.30000000E+03</rscale>
<asrwt>  1 0.30816906E+02</asrwt>
<pdfrwt beam="1">  1        1 0.82578467E+00 0.30000000E+03</pdfrwt>
<pdfrwt beam="2">0</pdfrwt>
<totfact> 0.65841333E-04</totfact>
</mgrwt>
<clustering>
<clus scale="   30.817">  1  6  2 -1</clus>
<clus scale="  462.562">  4  5 -1 -1</clus>
<clus scale="  300.000">  1  4  2 -1</clus>
</clustering>
</event>
<event>
 6    1  0.1000035E-011  0.3000000E+03  0.7818608E-02  0.1093470E+00
          1   -1    0    0  502    0  0.00000000000E+00  0.00000000000E+00  0.23965411165E+03  0.23965411165E+03  0.00000000000E+00 0.  1.
         13   -1    0    0    0    0 -0.00000000000E+00 -0.00000000000E+00 -0.27500000000E+03  0.27500000000E+03  0.00000000000E+00 0.  1.
    9000005    2    1    2  501    0 -0.21027300570E+02  0.42979571159E+02 -0.29453875714E+02  0.46644512162E+03  0.46304873370E+03 0.  0.
         13    1    3    3    0    0 -0.16674261706E+02  0.25358498732E+03 -0.30902577597E+01  0.25415138499E+03  0.00000000000E+00 0.  1.
          3    1    3    3  501    0 -0.43530388641E+01 -0.21060541616E+03 -0.26363617955E+02  0.21229373664E+03  0.00000000000E+00 0.  1.
         21    1    1    2  502  501  0.21027300570E+02 -0.42979571159E+02 -0.58920126373E+01  0.48208990025E+02  0.00000000000E+00 0.  1.
<scales pt_clust_4="550.00000" pt_clust_5="550.00000" pt_clust_6="47.84760"></scales>
<mgrwt>
<rscale>  0 0.30000000E+03</rscale>
<asrwt>  1 0.47847604E+02</asrwt>
<pdfrwt beam="1">  1        1 0.87146950E+00 0.30000000E+03</pdfrwt>
<pdfrwt beam="2">0</pdfrwt>
<totfact> 0.23113349E-04</totfact>
</mgrwt>
<clustering>
<clus scale="   47.848">  1  6  2 -1</clus>
<clus scale="  463.049">  4  5 -1 -1</clus>
<clus scale="  300.000">  1  4  2 -1</clus>
</clustering>
</event>
<event>
 6    1  0.1000035E-011  0.3000000E+03  0.7818608E-02  0.1093470E+00
          1   -1    0    0  502    0  0.00000000000E+00  0.00000000000E+00  0.25089336776E+03  0.25089336776E+03  0.00000000000E+00 0.  1.
         13   -1    0    0    0    0 -0.00000000000E+00 -0.00000000000E+00 -0.27500000000E+03  0.27500000000E+03  0.00000000000E+00 0.  1.
    9000005    2    1    2  501    0  0.20360705544E+02 -0.29317947764E+02 -0.74194984954E+02  0.46438773006E+03  0.45703059815E+03 0.  0.
         13    1    3    3    0    0  0.97386876554E+02 -0.67525159575E+02 -0.24556097304E+03  0.27266103935E+03  0.00000000000E+00 0.  1.
          3    1    3    3  501    0 -0.77026171010E+02  0.38207211811E+02  0.17136598809E+03  0.19172669070E+03  0.00000000000E+00 0.  1.
         21    1    1    2  502  501 -0.20360705544E+02  0.29317947764E+02  0.50088352711E+02  0.61505637698E+02  0.00000000000E+00 0.  1.
<scales pt_clust_4="550.00000" pt_clust_5="550.00000" pt_clust_6="35.69454"></scales>
<mgrwt>
<rscale>  0 0.30000000E+03</rscale>
<asrwt>  1 0.35694543E+02</asrwt>
<pdfrwt beam="1">  1        1 0.91233952E+00 0.30000000E+03</pdfrwt>
<pdfrwt beam="2">0</pdfrwt>
<totfact> 0.62634985E-05</totfact>
</mgrwt>
<clustering>
<clus scale="   35.695">  1  6  2 -1</clus>
<clus scale="  457.031">  4  5 -1 -1</clus>
<clus scale="  300.000">  1  4  2 -1</clus>
</clustering>
</event>
<event>
 6    1  0.1000035E-011  0.3000000E+03  0.7818608E-02  0.1093470E+00
          1   -1    0    0  502    0  0.00000000000E+00  0.00000000000E+00  0.22135853007E+03  0.22135853007E+03  0.00000000000E+00 0.  1.
         13   -1    0    0    0    0 -0.00000000000E+00 -0.00000000000E+00 -0.27500000000E+03  0.27500000000E+03  0.00000000000E+00 0.  1.
    9000005    2    1    2  501    0  0.29911504501E+02 -0.16067449890E+02 -0.51858124595E+02  0.46235792172E+03  0.45818415691E+03 0.  0.
         13    1    3    3    0    0  0.21001377595E+03  0.10904527239E+03 -0.55401423843E+02  0.24303492606E+03  0.00000000000E+00 0.  1.
          3    1    3    3  501    0 -0.18010227145E+03 -0.12511272228E+03  0.35432992483E+01  0.21932299566E+03  0.00000000000E+00 0.  1.
         21    1    1    2  502  501 -0.29911504501E+02  0.16067449890E+02 -0.17833453393E+01  0.34000608349E+02  0.00000000000E+00 0.  1.
<scales pt_clust_4="550.00000" pt_clust_5="550.00000" pt_clust_6="33.95381"></scales>
<mgrwt>
<rscale>  0 0.30000000E+03</rscale>
<asrwt>  1 0.33953808E+02</asrwt>
<pdfrwt beam="1">  1        1 0.80494011E+00 0.30000000E+03</pdfrwt>
<pdfrwt beam="2">0</pdfrwt>
<totfact> 0.95938687E-04</totfact>
</mgrwt>
<clustering>
<clus scale="   33.954">  1  6  2 -1</clus>
<clus scale="  458.184">  4  5 -1 -1</clus>
<clus scale="  300.000">  1  4  2 -1</clus>
</clustering>
</event>
<event>
 6    1  0.1000035E-011  0.3000000E+03  0.7818608E-02  0.1093470E+00
          1   -1    0    0  502    0  0.00000000000E+00  0.00000000000E+00  0.21895213775E+03  0.21895213775E+03  0.00000000000E+00 0.  1.
         13   -1    0    0    0    0 -0.00000000000E+00 -0.00000000000E+00 -0.27500000000E+03  0.27500000000E+03  0.00000000000E+00 0.  1.
    9000005    2    1    2  501    0  0.32720964044E+02 -0.17762688741E+01 -0.53886650457E+02  0.46111180499E+03  0.45677840250E+03 0.  0.
         13    1    3    3    0    0  0.16711653721E+02  0.70792414497E+02  0.19143146276E+03  0.20478488776E+03  0.00000000000E+00 0.  1.
          3    1    3    3  501    0  0.16009310324E+02 -0.72568683371E+02 -0.24531811322E+03  0.25632691723E+03  0.00000000000E+00 0.  1.
         21    1    1    2  502  501 -0.32720964044E+02  0.17762688741E+01 -0.21612117932E+01  0.32840332756E+02  0.00000000000E+00 0. -1.
<scales pt_clust_4="550.00000" pt_clust_5="550.00000" pt_clust_6="32.76914"></scales>
<mgrwt>
<rscale>  0 0.30000000E+03</rscale>
<asrwt>  1 0.32769141E+02</asrwt>
<pdfrwt beam="1">  1        1 0.79618959E+00 0.30000000E+03</pdfrwt>
<pdfrwt beam="2">0</pdfrwt>
<totfact> 0.11191808E-03</totfact>
</mgrwt>
<clustering>
<clus scale="   32.769">  1  6  2 -1</clus>
<clus scale="  456.778">  4  5 -1 -1</clus>
<clus scale="  300.000">  1  4  2 -1</clus>
</clustering>
</event>
<event>
 6    1  0.1000035E-011  0.3000000E+03  0.7818608E-02  0.1093470E+00
          1   -1    0    0  502    0  0.00000000000E+00  0.00000000000E+00  0.23541524941E+03  0.23541524941E+03  0.00000000000E+00 0.  1.
         13   -1    0    0    0    0 -0.00000000000E+00 -0.00000000000E+00 -0.27500000000E+03  0.27500000000E+03  0.00000000000E+00 0.  1.
    9000005    2    1    2  501    0 -0.36132416072E+02  0.10490411550E+02 -0.64266252184E+02  0.46541773007E+03  0.45942127952E+03 0.  0.
         13    1    3    3    0    0 -0.85180500400E+01 -0.17176589809E+03  0.11611670364E+03  0.20750703552E+03  0.00000000000E+00 0.  1.
          1    1    3    3  501    0 -0.27614366032E+02  0.18225630964E+03 -0.18038295582E+03  0.25791069456E+03  0.00000000000E+00 0.  1.
         21    1    1    2  502  501  0.36132416072E+02 -0.10490411550E+02  0.24681501597E+02  0.44997519340E+02  0.00000000000E+00 0. -1.
<scales pt_clust_4="550.00000" pt_clust_5="550.00000" pt_clust_6="37.62446"></scales>
<mgrwt>
<rscale>  0 0.30000000E+03</rscale>
<asrwt>  1 0.37624463E+02</asrwt>
<pdfrwt beam="1">  1        1 0.85605545E+00 0.30000000E+03</pdfrwt>
<pdfrwt beam="2">0</pdfrwt>
<totfact> 0.35082836E-04</totfact>
</mgrwt>
<clustering>
<clus scale="   37.624">  1  6  2 -1</clus>
<clus scale="  459.421">  4  5 -1 -1</clus>
<clus scale="  300.000">  1  4  2 -1</clus>
</clustering>
</event>
<event>
 6    1  0.1000035E-011  0.3000000E+03  0.7818608E-02  0.1093470E+00
          1   -1    0    0  502    0  0.00000000000E+00  0.00000000000E+00  0.24727679742E+03  0.24727679742E+03  0.00000000000E+00 0.  1.
         13   -1    0    0    0    0 -0.00000000000E+00 -0.00000000000E+00 -0.27500000000E+03  0.27500000000E+03  0.00000000000E+00 0.  1.
    9000005    2    1    2  501    0 -0.13211380588E+02 -0.27395685060E+02 -0.70966464974E+02  0.46940862288E+03  0.46301528262E+03 0.  0.
         13    1    3    3    0    0 -0.91471091704E+02  0.16788909303E+03 -0.15170488545E+03  0.24406572976E+03  0.00000000000E+00 0.  1.
          3    1    3    3  501    0  0.78259711116E+02 -0.19528477809E+03  0.80738420474E+02  0.22534289312E+03  0.00000000000E+00 0.  1.
         21    1    1    2  502  501  0.13211380588E+02  0.27395685060E+02  0.43243262394E+02  0.52868174542E+02  0.00000000000E+00 0.  1.
<scales pt_clust_4="550.00000" pt_clust_5="550.00000" pt_clust_6="30.41487"></scales>
<mgrwt>
<rscale>  0 0.30000000E+03</rscale>
<asrwt>  1 0.30414867E+02</asrwt>
<pdfrwt beam="1">  1        1 0.89918835E+00 0.30000000E+03</pdfrwt>
<pdfrwt beam="2">0</pdfrwt>
<totfact> 0.11605257E-04</totfact>
</mgrwt>
<clustering>
<clus scale="   30.415">  1  6  2 -1</clus>
<clus scale="  463.015">  4  5 -1 -1</clus>
<clus scale="  300.000">  1  4  2 -1</clus>
</clustering>
</event>
<event>
 6    1  0.1000035E-011  0.3000000E+03  0.7818608E-02  0.1093470E+00
          1   -1    0    0  502    0  0.00000000000E+00  0.00000000000E+00  0.22654304134E+03  0.22654304134E+03  0.00000000000E+00 0.  1.
         13   -1    0    0    0    0 -0.00000000000E+00 -0.00000000000E+00 -0.27500000000E+03  0.27500000000E+03  0.00000000000E+00 0.  1.
    9000005    2    1    2  501    0 -0.24423525036E+01  0.35228762780E+02 -0.52539218699E+02  0.46599454405E+03  0.46167468500E+03 0.  0.
         13    1    3    3    0    0  0.12992418515E+03  0.37878069279E+02  0.16372927009E+03  0.21242014006E+03  0.00000000000E+00 0.  1.
          1    1    3    3  501    0 -0.13236653766E+03 -0.26493064983E+01 -0.21626848879E+03  0.25357440399E+03  0.00000000000E+00 0.  1.
         21    1    1    2  502  501  0.24423525036E+01 -0.35228762780E+02  0.40822600427E+01  0.35548497294E+02  0.00000000000E+00 0. -1.
<scales pt_clust_4="550.00000" pt_clust_5="550.00000" pt_clust_6="35.31332"></scales>
<mgrwt>
<rscale>  0 0.30000000E+03</rscale>
<asrwt>  1 0.35313323E+02</asrwt>
<pdfrwt beam="1">  1        1 0.82379288E+00 0.30000000E+03</pdfrwt>
<pdfrwt beam="2">0</pdfrwt>
<totfact> 0.66848227E-04</totfact>
</mgrwt>
<clustering>
<clus scale="   35.313">  1  6  2 -1</clus>
<clus scale="  461.675">  4  5 -1 -1</clus>
<clus scale="  300.000">  1  4  2 -1</clus>
</clustering>
</event>
<event>
 6    1  0.1000035E-011  0.3000000E+03  0.7818608E-02  0.1093470E+00
          1   -1    0    0  502    0  0.00000000000E+00  0.00000000000E+00  0.23011724783E+03  0.23011724783E+03  0.00000000000E+00 0.  1.
         13   -1    0    0    0    0 -0.00000000000E+00 -0.00000000000E+00 -0.27500000000E+03  0.27500000000E+03  0.00000000000E+00 0.  1.
    9000005    2    1    2  501    0 -0.34401786603E+02 -0.74222651262E+01 -0.45706596499E+02  0.46991424141E+03  0.46636008446E+03 0.  0.
         13    1    3    3    0    0  0.72807375728E+02 -0.21755188661E+03 -0.46187034826E+02  0.23401491302E+03  0.00000000000E+00 0.  1.
          3    1    3    3  501    0 -0.10720916233E+03  0.21012962149E+03  0.48043832684E+00  0.23589932839E+03  0.00000000000E+00 0.  1.
         21    1    1    2  502  501  0.34401786603E+02  0.74222651262E+01  0.82384432507E+00  0.35203006413E+02  0.00000000000E+00 0. -1.
<scales pt_clust_4="550.00000" pt_clust_5="550.00000" pt_clust_6="35.19337"></scales>
<mgrwt>
<rscale>  0 0.30000000E+03</rscale>
<asrwt>  1 0.35193365E+02</asrwt>
<pdfrwt beam="1">  1        1 0.83678999E+00 0.30000000E+03</pdfrwt>
<pdfrwt beam="2">0</pdfrwt>
<totfact> 0.52449061E-04</totfact>
</mgrwt>
<clustering>
<clus scale="   35.193">  1  6  2 -1</clus>
<clus scale="  466.360">  4  5 -1 -1</clus>
<clus scale="  300.000">  1  4  2 -1</clus>
</clustering>
</event>
<event>
 6    1  0.1000035E-011  0.3000000E+03  0.7818608E-02  0.1093470E+00
          1   -1    0    0  502    0  0.00000000000E+00  0.00000000000E+00  0.22372813280E+03  0.22372813280E+03  0.00000000000E+00 0.  1.
         13   -1    0    0    0    0 -0.00000000000E+00 -0.00000000000E+00 -0.27500000000E+03  0.27500000000E+03  0.00000000000E+00 0.  1.
    9000005    2    1    2  501    0  0.30470816125E+02 -0.23505015382E+01 -0.49535137567E+02  0.46811748559E+03  0.46448493514E+03 0.  0.
         13    1    3    3    0    0  0.19780684765E+03 -0.14384281770E+03 -0.57342339345E+01  0.24464502165E+03  0.00000000000E+00 0.  1.
          3    1    3    3  501    0 -0.16733603153E+03  0.14149231616E+03 -0.43800903633E+02  0.22347246394E+03  0.00000000000E+00 0.  1.
         21    1    1    2  502  501 -0.30470816125E+02  0.23505015382E+01 -0.17367296303E+01  0.30610647210E+02  0.00000000000E+00 0.  1.
<scales pt_clust_4="550.00000" pt_clust_5="550.00000" pt_clust_6="30.56134"></scales>
<mgrwt>
<rscale>  0 0.30000000E+03</rscale>
<asrwt>  1 0.30561340E+02</asrwt>
<pdfrwt beam="1">  1        1 0.81355685E+00 0.30000000E+03</pdfrwt>
<pdfrwt beam="2">0</pdfrwt>
<totfact> 0.83885778E-04</totfact>
</mgrwt>
<clustering>
<clus scale="   30.561">  1  6  2 -1</clus>
<clus scale="  464.485">  4  5 -1 -1</clus>
<clus scale="  300.000">  1  4  2 -1</clus>
</clustering>
</event>
<event>
 6    1  0.1000035E-011  0.3000000E+03  0.7818608E-02  0.1093470E+00
          1   -1    0    0  502    0  0.00000000000E+00  0.00000000000E+00  0.22123211319E+03  0.22123211319E+03  0.00000000000E+00 0.  1.
         13   -1    0    0    0    0 -0.00000000000E+00 -0.00000000000E+00 -0.27500000000E+03  0.27500000000E+03  0.00000000000E+00 0.  1.
    9000005    2    1    2  501    0 -0.13753678154E+02  0.26982965802E+02 -0.48365443973E+02  0.46546800269E+03  0.46195670929E+03 0.  0.
         13    1    3    3    0    0  0.86178959989E+02  0.23302044028E+02  0.18838328821E+03  0.20846597247E+03  0.00000000000E+00 0.  1.
          1    1    3    3  501    0 -0.99932638143E+02  0.36809217735E+01 -0.23674873218E+03  0.25700203023E+03  0.00000000000E+00 0.  1.
         21    1    1    2  502  501  0.13753678154E+02 -0.26982965802E+02 -0.54024428337E+01  0.30764110499E+02  0.00000000000E+00 0. -1.
<scales pt_clust_4="550.00000" pt_clust_5="550.00000" pt_clust_6="30.28605"></scales>
<mgrwt>
<rscale>  0 0.30000000E+03</rscale>
<asrwt>  1 0.30286053E+02</asrwt>
<pdfrwt beam="1">  1        1 0.80448041E+00 0.30000000E+03</pdfrwt>
<pdfrwt beam="2">0</pdfrwt>
<totfact> 0.98831345E-04</totfact>
</mgrwt>
<clustering>
<clus scale="   30.286">  1  6  2 -1</clus>
<clus scale="  461.957">  4  5 -1 -1</clus>
<clus scale="  300.000">  1  4  2 -1</clus>
</clustering>
</event>
<event>
 6    1  0.1000035E-011  0.3000000E+03  0.7818608E-02  0.1093470E+00
          1   -1    0    0  502    0  0.00000000000E+00  0.00000000000E+00  0.23796636544E+03  0.23796636544E+03  0.00000000000E+00 0.  1.
         13   -1    0    0    0    0 -0.00000000000E+00 -0.00000000000E+00 -0.27500000000E+03  0.27500000000E+03  0.00000000000E+00 0.  1.
    9000005    2    1    2  501    0 -0.26629024732E+02  0.14076061722E+02 -0.39453677987E+02  0.48274886915E+03  0.48019020970E+03 0.  0.
         13    1    3    3    0    0 -0.13143938057E+03 -0.16276858481E+03  0.10245663786E+03  0.23295339793E+03  0.00000000000E+00 0.  1.
          3    1    3    3  501    0  0.10481035584E+03  0.17684464653E+03 -0.14191031585E+03  0.24979547122E+03  0.00000000000E+00 0.  1.
         21    1    1    2  502  501  0.26629024732E+02 -0.14076061722E+02  0.24200434290E+01  0.30217496289E+02  0.00000000000E+00 0.  1.
<scales pt_clust_4="550.00000" pt_clust_5="550.00000" pt_clust_6="30.12043"></scales>
<mgrwt>
<rscale>  0 0.30000000E+03</rscale>
<asrwt>  1 0.30120433E+02</asrwt>
<pdfrwt beam="1">  1        1 0.86533224E+00 0.30000000E+03</pdfrwt>
<pdfrwt beam="2">0</pdfrwt>
<totfact> 0.29154931E-04</totfact>
</mgrwt>
<clustering>
<clus scale="   30.120">  1  6  2 -1</clus>
<clus scale="  480.190">  4  5 -1 -1</clus>
<clus scale="  300.000">  1  4  2 -1</clus>
</clustering>
</event>
<event>
 6    1  0.1000035E-011  0.3000000E+03  0.7818608E-02  0.1093470E+00
          1   -1    0    0  502    0  0.00000000000E+00  0.00000000000E+00  0.25276222334E+03  0.25276222334E+03  0.00000000000E+00 0.  1.
         13   -1    0    0    0    0 -0.00000000000E+00 -0.00000000000E+00 -0.27500000000E+03  0.27500000000E+03  0.00000000000E+00 0.  1.
    9000005    2    1    2  501    0  0.45948793524E+02 -0.12444205933E+02  0.15103342547E+01  0.47456332618E+03  0.47216725803E+03 0.  0.
         13    1    3    3    0    0  0.73877642125E+00  0.17598159789E+03 -0.14789773554E+03  0.22987781268E+03  0.00000000000E+00 0.  1.
          1    1    3    3  501    0  0.45210017103E+02 -0.18842580383E+03  0.14940806979E+03  0.24468551349E+03  0.00000000000E+00 0.  1.
         21    1    1    2  502  501 -0.45948793524E+02  0.12444205933E+02 -0.23748110913E+02  0.53198897165E+02  0.00000000000E+00 0.  1.
<scales pt_clust_4="550.00000" pt_clust_5="550.00000" pt_clust_6="47.60412"></scales>
<mgrwt>
<rscale>  0 0.30000000E+03</rscale>
<asrwt>  1 0.47604119E+02</asrwt>
<pdfrwt beam="1">  1        1 0.91913536E+00 0.30000000E+03</pdfrwt>
<pdfrwt beam="2">0</pdfrwt>
<totfact> 0.41282604E-05</totfact>
</mgrwt>
<clustering>
<clus scale="   47.604">  1  6  2 -1</clus>
<clus scale="  472.167">  4  5 -1 -1</clus>
<clus scale="  300.000">  1  4  2 -1</clus>
</clustering>
</event>
<event>
 6    1  0.1000035E-011  0.3000000E+03  0.7818608E-02  0.1093470E+00
          1   -1    0    0  502    0  0.00000000000E+00  0.00000000000E+00  0.22696596945E+03  0.22696596945E+03  0.00000000000E+00 0.  1.
         13   -1    0    0    0    0 -0.00000000000E+00 -0.00000000000E+00 -0.27500000000E+03  0.27500000000E+03  0.00000000000E+00 0.  1.
    9000005    2    1    2  501    0 -0.53418565097E+01  0.31785173516E+02 -0.56824590428E+02  0.46855778738E+03  0.46398117780E+03 0.  0.
         13    1    3    3    0    0 -0.81644422085E+02  0.23438217441E+03 -0.40217574946E+02  0.25143243361E+03  0.00000000000E+00 0.  1.
          3    1    3    3  501    0  0.76302565575E+02 -0.20259700089E+03 -0.16607015482E+02  0.21712535377E+03  0.00000000000E+00 0.  1.
         21    1    1    2  502  501  0.53418565097E+01 -0.31785173516E+02  0.87905598824E+01  0.33408182074E+02  0.00000000000E+00 0.  1.
<scales pt_clust_4="550.00000" pt_clust_5="550.00000" pt_clust_6="32.23093"></scales>
<mgrwt>
<rscale>  0 0.30000000E+03</rscale>
<asrwt>  1 0.32230927E+02</asrwt>
<pdfrwt beam="1">  1        1 0.82533080E+00 0.30000000E+03</pdfrwt>
<pdfrwt beam="2">0</pdfrwt>
<totfact> 0.65890476E-04</totfact>
</mgrwt>
<clustering>
<clus scale="   32.231">  1  6  2 -1</clus>
<clus scale="  463.981">  4  5 -1 -1</clus>
<clus scale="  300.000">  1  4  2 -1</clus>
</clustering>
</event>
<event>
 6    1  0.1000035E-011  0.3000000E+03  0.7818608E-02  0.1093470E+00
          1   -1    0    0  502    0  0.00000000000E+00  0.00000000000E+00  0.23031870886E+03  0.23031870886E+03  0.00000000000E+00 0.  1.
         13   -1    0    0    0    0 -0.00000000000E+00 -0.00000000000E+00 -0.27500000000E+03  0.27500000000E+03  0.00000000000E+00 0.  1.
    9000005    2    1    2  501    0  0.27857096192E+02  0.17058835244E+02 -0.20341916476E+02  0.46458264589E+03  0.46298619809E+03 0.  0.
         13    1    3    3    0    0  0.42304325252E+02  0.74537403742E+02 -0.23066288653E+03  0.24607081850E+03  0.00000000000E+00 0.  1.
          1    1    3    3  501    0 -0.14447229060E+02 -0.57478568498E+02  0.21032097006E+03  0.21851182739E+03  0.00000000000E+00 0.  1.
         21    1    1    2  502  501 -0.27857096192E+02 -0.17058835244E+02 -0.24339374659E+02  0.40736062978E+02  0.00000000000E+00 0.  1.
<scales pt_clust_4="550.00000" pt_clust_5="550.00000" pt_clust_6="32.66531"></scales>
<mgrwt>
<rscale>  0 0.30000000E+03</rscale>
<asrwt>  1 0.32665314E+02</asrwt>
<pdfrwt beam="1">  1        1 0.83752258E+00 0.30000000E+03</pdfrwt>
<pdfrwt beam="2">0</pdfrwt>
<totfact> 0.52540874E-04</totfact>
</mgrwt>
<clustering>
<clus scale="   32.665">  1  6  2 -1</clus>
<clus scale="  462.986">  4  5 -1 -1</clus>
<clus scale="  300.000">  1  4  2 -1</clus>
</clustering>
</event>
<event>
 6    1  0.1000035E-011  0.3000000E+03  0.7818608E-02  0.1093470E+00
          1   -1    0    0  502    0  0.00000000000E+00  0.00000000000E+00  0.26970433347E+03  0.26970433347E+03  0.00000000000E+00 0.  1.
         13   -1    0    0    0    0 -0.00000000000E+00 -0.00000000000E+00 -0.27500000000E+03  0.27500000000E+03  0.00000000000E+00 0.  1.
    9000005    2    1    2  501    0  0.14180318694E+02  0.32918563146E+02 -0.70578615798E+02  0.47022899055E+03  0.46351833762E+03 0.  0.
         13    1    3    3    0    0  0.46724476058E+02  0.18718828623E+03  0.11665253994E+03  0.22545608495E+03  0.00000000000E+00 0.  1.
          3    1    3    3  501    0 -0.32544157364E+02 -0.15426972308E+03 -0.18723115574E+03  0.24477290560E+03  0.00000000000E+00 0.  1.
         21    1    1    2  502  501 -0.14180318694E+02 -0.32918563146E+02  0.65282949271E+02  0.74475342922E+02  0.00000000000E+00 0.  1.
<scales pt_clust_4="550.00000" pt_clust_5="550.00000" pt_clust_6="35.84290"></scales>
<mgrwt>
<rscale>  0 0.30000000E+03</rscale>
<asrwt>  1 0.35842897E+02</asrwt>
<pdfrwt beam="1">  1        1 0.98074303E+00 0.30000000E+03</pdfrwt>
<pdfrwt beam="2">0</pdfrwt>
<totfact> 0.26544941E-06</totfact>
</mgrwt>
<clustering>
<clus scale="   35.843">  1  6  2 -1</clus>
<clus scale="  463.518">  4  5 -1 -1</clus>
<clus scale="  300.000">  1  4  2 -1</clus>
</clustering>
</event>
<event>
 6    1  0.1000035E-011  0.3000000E+03  0.7818608E-02  0.1093470E+00
          1   -1    0    0  502    0  0.00000000000E+00  0.00000000000E+00  0.23598399882E+03  0.23598399882E+03  0.00000000000E+00 0.  1.
         13   -1    0    0    0    0 -0.00000000000E+00 -0.00000000000E+00 -0.27500000000E+03  0.27500000000E+03  0.00000000000E+00 0.  1.
    9000005    2    1    2  501    0 -0.33066304702E+02 -0.20341149855E+02 -0.23395049243E+02  0.46913717070E+03  0.46694240943E+03 0.  0.
         13    1    3    3    0    0 -0.69903216180E+02 -0.11893746093E+03 -0.21212567666E+03  0.25304126530E+03  0.00000000000E+00 0.  1.
          3    1    3    3  501    0  0.36836911478E+02  0.98596311076E+02  0.18873062742E+03  0.21609590540E+03  0.00000000000E+00 0.  1.
         21    1    1    2  502  501  0.33066304702E+02  0.20341149855E+02 -0.15620951937E+02  0.41846828117E+02  0.00000000000E+00 0.  1.
<scales pt_clust_4="550.00000" pt_clust_5="550.00000" pt_clust_6="38.82196"></scales>
<mgrwt>
<rscale>  0 0.30000000E+03</rscale>
<asrwt>  1 0.38821958E+02</asrwt>
<pdfrwt beam="1">  1        1 0.85812363E+00 0.30000000E+03</pdfrwt>
<pdfrwt beam="2">0</pdfrwt>
<totfact> 0.33213207E-04</totfact>
</mgrwt>
<clustering>
<clus scale="   38.822">  1  6  2 -1</clus>
<clus scale="  466.942">  4  5 -1 -1</clus>
<clus scale="  300.000">  1  4  2 -1</clus>
</clustering>
</event>
<event>
 6    1  0.1000035E-011  0.3000000E+03  0.7818608E-02  0.1093470E+00
          1   -1    0    0  502    0  0.00000000000E+00  0.00000000000E+00  0.22510542974E+03  0.22510542974E+03  0.00000000000E+00 0.  1.
         13   -1    0    0    0    0 -0.00000000000E+00 -0.00000000000E+00 -0.27500000000E+03  0.27500000000E+03  0.00000000000E+00 0.  1.
    9000005    2    1    2  501    0 -0.65090323900E+01 -0.33357847923E+02 -0.55119439042E+02  0.46571920031E+03  0.46119530294E+03 0.  0.
         13    1    3    3    0    0  0.18758984311E+03 -0.13998339198E+03  0.11835351890E+02  0.23436163258E+03  0.00000000000E+00 0.  1.
          3    1    3    3  501    0 -0.19409887550E+03  0.10662554406E+03 -0.66954790932E+02  0.23135756773E+03  0.00000000000E+00 0.  1.
         21    1    1    2  502  501  0.65090323900E+01  0.33357847923E+02  0.52248687842E+01  0.34386229432E+02  0.00000000000E+00 0. -1.
<scales pt_clust_4="550.00000" pt_clust_5="550.00000" pt_clust_6="33.98696"></scales>
<mgrwt>
<rscale>  0 0.30000000E+03</rscale>
<asrwt>  1 0.33986961E+02</asrwt>
<pdfrwt beam="1">  1        1 0.81856520E+00 0.30000000E+03</pdfrwt>
<pdfrwt beam="2">0</pdfrwt>
<totfact> 0.74814529E-04</totfact>
</mgrwt>
<clustering>
<clus scale="   33.987">  1  6  2 -1</clus>
<clus scale="  461.195">  4  5 -1 -1</clus>
<clus scale="  300.000">  1  4  2 -1</clus>
</clustering>
</event>
<event>
 6    1  0.1000035E-011  0.3000000E+03  0.7818608E-02  0.1093470E+00
          1   -1    0    0  502    0  0.00000000000E+00  0.00000000000E+00  0.22260397311E+03  0.22260397311E+03  0.00000000000E+00 0.  1.
         13   -1    0    0    0    0 -0.00000000000E+00 -0.00000000000E+00 -0.27500000000E+03  0.27500000000E+03  0.00000000000E+00 0.  1.
    9000005    2    1    2  501    0 -0.45004470281E+01  0.36244620252E+02 -0.47437336729E+02  0.46074593289E+03  0.45683978289E+03 0.  0.
         13    1    3    3    0    0  0.11740468931E+03 -0.14732978495E+03  0.81689035391E+02  0.20533637064E+03  0.00000000000E+00 0.  1.
          3    1    3    3  501    0 -0.12190513633E+03  0.18357440520E+03 -0.12912637212E+03  0.25540956225E+03  0.00000000000E+00 0.  1.
         21    1    1    2  502  501  0.45004470281E+01 -0.36244620252E+02 -0.49586901647E+01  0.36858040219E+02  0.00000000000E+00 0. -1.
<scales pt_clust_4="550.00000" pt_clust_5="550.00000" pt_clust_6="36.52298"></scales>
<mgrwt>
<rscale>  0 0.30000000E+03</rscale>
<asrwt>  1 0.36522977E+02</asrwt>
<pdfrwt beam="1">  1        1 0.80946899E+00 0.30000000E+03</pdfrwt>
<pdfrwt beam="2">0</pdfrwt>
<totfact> 0.87352805E-04</totfact>
</mgrwt>
<clustering>
<clus scale="   36.523">  1  6  2 -1</clus>
<clus scale="  456.840">  4  5 -1 -1</clus>
<clus scale="  300.000">  1  4  2 -1</clus>
</clustering>
</event>
<event>
 6    1  0.1000035E-011  0.3000000E+03  0.7818608E-02  0.1093470E+00
          1   -1    0    0  502    0  0.00000000000E+00  0.00000000000E+00  0.23823211317E+03  0.23823211317E+03  0.00000000000E+00 0.  1.
         13   -1    0    0    0    0 -0.00000000000E+00 -0.00000000000E+00 -0.27500000000E+03  0.27500000000E+03  0.00000000000E+00 0.  1.
    9000005    2    1    2  501    0  0.19372181756E+02 -0.33843528035E+02 -0.50216458769E+02  0.47198250828E+03  0.46768058499E+03 0.  0.
         13    1    3    3    0    0 -0.16503300706E+02 -0.73059730383E+01 -0.25842055669E+03  0.25905003435E+03  0.00000000000E+00 0.  1.
          1    1    3    3  501    0  0.35875482462E+02 -0.26537554997E+02  0.20820409792E+03  0.21293247394E+03  0.00000000000E+00 0.  1.
         21    1    1    2  502  501 -0.19372181756E+02  0.33843528035E+02  0.13448571936E+02  0.41249604882E+02  0.00000000000E+00 0. -1.
<scales pt_clust_4="550.00000" pt_clust_5="550.00000" pt_clust_6="38.99572"></scales>
<mgrwt>
<rscale>  0 0.30000000E+03</rscale>
<asrwt>  1 0.38995715E+02</asrwt>
<pdfrwt beam="1">  1        1 0.86629859E+00 0.30000000E+03</pdfrwt>
<pdfrwt beam="2">0</pdfrwt>
<totfact> 0.27121788E-04</totfact>
</mgrwt>
<clustering>
<clus scale="   38.996">  1  6  2 -1</clus>
<clus scale="  467.681">  4  5 -1 -1</clus>
<clus scale="  300.000">  1  4  2 -1</clus>
</clustering>
</event>
<event>
 6    1  0.1000035E-011  0.3000000E+03  0.7818608E-02  0.1093470E+00
          1   -1    0    0  502    0  0.00000000000E+00  0.00000000000E+00  0.23118018935E+03  0.23118018935E+03  0.00000000000E+00 0.  1.
         13   -1    0    0    0    0 -0.00000000000E+00 -0.00000000000E+00 -0.27500000000E+03  0.27500000000E+03  0.00000000000E+00 0.  1.
    9000005    2    1    2  501    0  0.32081148684E+02  0.51878050622E+01 -0.55674291046E+02  0.47158767386E+03  0.46716077964E+03 0.  0.
         13    1    3    3    0    0  0.72234950430E+02  0.84146438522E+02 -0.24149053707E+03  0.26573707057E+03  0.00000000000E+00 0.  1.
          3    1    3    3  501    0 -0.40153801746E+02 -0.78958633460E+02  0.18581624602E+03  0.20585060330E+03  0.00000000000E+00 0.  1.
         21    1    1    2  502  501 -0.32081148684E+02 -0.51878050622E+01  0.11854480395E+02  0.34592515487E+02  0.00000000000E+00 0.  1.
<scales pt_clust_4="550.00000" pt_clust_5="550.00000" pt_clust_6="32.49790"></scales>
<mgrwt>
<rscale>  0 0.30000000E+03</rscale>
<asrwt>  1 0.32497899E+02</asrwt>
<pdfrwt beam="1">  1        1 0.84065523E+00 0.30000000E+03</pdfrwt>
<pdfrwt beam="2">0</pdfrwt>
<totfact> 0.49817150E-04</totfact>
</mgrwt>
<clustering>
<clus scale="   32.498">  1  6  2 -1</clus>
<clus scale="  467.161">  4  5 -1 -1</clus>
<clus scale="  300.000">  1  4  2 -1</clus>
</clustering>
</event>
<event>
 6    1  0.1000035E-011  0.3000000E+03  0.7818608E-02  0.1093470E+00
          1   -1    0    0  502    0  0.00000000000E+00  0.00000000000E+00  0.24357564625E+03  0.24357564625E+03  0.00000000000E+00 0.  1.
         13   -1    0    0    0    0 -0.00000000000E+00 -0.00000000000E+00 -0.27500000000E+03  0.27500000000E+03  0.00000000000E+00 0.  1.
    9000005    2    1    2  501    0 -0.21454142498E+02 -0.40479420202E+02 -0.26779250513E+02  0.47252740335E+03  0.46953823590E+03 0.  0.
         13    1    3    3    0    0  0.19856560550E+03 -0.11386927964E+03  0.37261726885E+02  0.23191151077E+03  0.00000000000E+00 0.  1.
          3    1    3    3  501    0 -0.22001974800E+03  0.73389859441E+02 -0.64040977398E+02  0.24061589259E+03  0.00000000000E+00 0.  1.
         21    1    1    2  502  501  0.21454142498E+02  0.40479420202E+02 -0.46451032340E+01  0.46048242901E+02  0.00000000000E+00 0.  1.
<scales pt_clust_4="550.00000" pt_clust_5="550.00000" pt_clust_6="45.81338"></scales>
<mgrwt>
<rscale>  0 0.30000000E+03</rscale>
<asrwt>  1 0.45813380E+02</asrwt>
<pdfrwt beam="1">  1        1 0.88572962E+00 0.30000000E+03</pdfrwt>
<pdfrwt beam="2">0</pdfrwt>
<totfact> 0.15788423E-04</totfact>
</mgrwt>
<clustering>
<clus scale="   45.813">  1  6  2 -1</clus>
<clus scale="  469.538">  4  5 -1 -1</clus>
<clus scale="  300.000">  1  4  2 -1</clus>
</clustering>
</event>
<event>
 6    1  0.1000035E-011  0.3000000E+03  0.7818608E-02  0.1093470E+00
          1   -1    0    0  502    0  0.00000000000E+00  0.00000000000E+00  0.22486053516E+03  0.22486053516E+03  0.00000000000E+00 0.  1.
         13   -1    0    0    0    0 -0.00000000000E+00 -0.00000000000E+00 -0.27500000000E+03  0.27500000000E+03  0.00000000000E+00 0.  1.
    9000005    2    1    2  501    0 -0.67713070316E+01  0.30068314867E+02 -0.56756418078E+02  0.46833692134E+03  0.46386229286E+03 0.  0.
         13    1    3    3    0    0  0.39879077978E+02 -0.17313858961E+03  0.10327555219E+03  0.20550706011E+03  0.00000000000E+00 0.  1.
          1    1    3    3  501    0 -0.46650385010E+02  0.20320690448E+03 -0.16003197027E+03  0.26282986124E+03  0.00000000000E+00 0.  1.
         21    1    1    2  502  501  0.67713070316E+01 -0.30068314867E+02  0.66169532348E+01  0.31523613815E+02  0.00000000000E+00 0.  1.
<scales pt_clust_4="550.00000" pt_clust_5="550.00000" pt_clust_6="30.82133"></scales>
<mgrwt>
<rscale>  0 0.30000000E+03</rscale>
<asrwt>  1 0.30821326E+02</asrwt>
<pdfrwt beam="1">  1        1 0.81767467E+00 0.30000000E+03</pdfrwt>
<pdfrwt beam="2">0</pdfrwt>
<totfact> 0.77536060E-04</totfact>
</mgrwt>
<clustering>
<clus scale="   30.821">  1  6  2 -1</clus>
<clus scale="  463.862">  4  5 -1 -1</clus>
<clus scale="  300.000">  1  4  2 -1</clus>
</clustering>
</event>
<event>
 6    1  0.1000035E-011  0.3000000E+03  0.7818608E-02  0.1093470E+00
          1   -1    0    0  502    0  0.00000000000E+00  0.00000000000E+00  0.24526234933E+03  0.24526234933E+03  0.00000000000E+00 0.  1.
         13   -1    0    0    0    0 -0.00000000000E+00 -0.00000000000E+00 -0.27500000000E+03  0.27500000000E+03  0.00000000000E+00 0.  1.
    9000005    2    1    2  501    0  0.47704263429E+02  0.20768566813E+02 -0.41977578270E+02  0.46681287838E+03  0.46200120804E+03 0.  0.
         13    1    3    3    0    0 -0.61698905417E+02  0.21907193766E+03 -0.71161508401E+02  0.23846012052E+03  0.00000000000E+00 0.  1.
          1    1    3    3  501    0  0.10940316885E+03 -0.19830337085E+03  0.29183930131E+02  0.22835275786E+03  0.00000000000E+00 0.  1.
         21    1    1    2  502  501 -0.47704263429E+02 -0.20768566813E+02  0.12239927600E+02  0.53449470946E+02  0.00000000000E+00 0.  1.
<scales pt_clust_4="550.00000" pt_clust_5="550.00000" pt_clust_6="52.02913"></scales>
<mgrwt>
<rscale>  0 0.30000000E+03</rscale>
<asrwt>  1 0.52029128E+02</asrwt>
<pdfrwt beam="1">  1        1 0.89186309E+00 0.30000000E+03</pdfrwt>
<pdfrwt beam="2">0</pdfrwt>
<totfact> 0.12771306E-04</totfact>
</mgrwt>
<clustering>
<clus scale="   52.029">  1  6  2 -1</clus>
<clus scale="  462.001">  4  5 -1 -1</clus>
<clus scale="  300.000">  1  4  2 -1</clus>
</clustering>
</event>
<event>
 6    1  0.1000035E-011  0.3000000E+03  0.7818608E-02  0.1093470E+00
          1   -1    0    0  502    0  0.00000000000E+00  0.00000000000E+00  0.23951832665E+03  0.23951832665E+03  0.00000000000E+00 0.  1.
         13   -1    0    0    0    0 -0.00000000000E+00 -0.00000000000E+00 -0.27500000000E+03  0.27500000000E+03  0.00000000000E+00 0.  1.
    9000005    2    1    2  501    0 -0.47808153822E+02  0.10265285469E+02 -0.42074830067E+02  0.46517802494E+03  0.46068352250E+03 0.  0.
         13    1    3    3    0    0 -0.22429485557E+03 -0.95908993320E+02 -0.77998022614E+02  0.25610624508E+03  0.00000000000E+00 0.  1.
          1    1    3    3  501    0  0.17648670175E+03  0.10617427879E+03  0.35923192547E+02  0.20907177986E+03  0.00000000000E+00 0.  1.
         21    1    1    2  502  501  0.47808153822E+02 -0.10265285469E+02  0.65931567165E+01  0.49340301713E+02  0.00000000000E+00 0. -1.
<scales pt_clust_4="550.00000" pt_clust_5="550.00000" pt_clust_6="48.89781"></scales>
<mgrwt>
<rscale>  0 0.30000000E+03</rscale>
<asrwt>  1 0.48897808E+02</asrwt>
<pdfrwt beam="1">  1        1 0.87097573E+00 0.30000000E+03</pdfrwt>
<pdfrwt beam="2">0</pdfrwt>
<totfact> 0.23293737E-04</totfact>
</mgrwt>
<clustering>
<clus scale="   48.898">  1  6  2 -1</clus>
<clus scale="  460.684">  4  5 -1 -1</clus>
<clus scale="  300.000">  1  4  2 -1</clus>
</clustering>
</event>
<event>
 6    1  0.1000035E-011  0.3000000E+03  0.7818608E-02  0.1093470E+00
          1   -1    0    0  502    0  0.00000000000E+00  0.00000000000E+00  0.23604239272E+03  0.23604239272E+03  0.00000000000E+00 0.  1.
         13   -1    0    0    0    0 -0.00000000000E+00 -0.00000000000E+00 -0.27500000000E+03  0.27500000000E+03  0.00000000000E+00 0.  1.
    9000005    2    1    2  501    0  0.25029272771E+02  0.19644306688E+02 -0.73609057099E+02  0.46399894200E+03  0.45701680671E+03 0.  0.
         13    1    3    3    0    0  0.27223393191E+02 -0.14194834333E+03  0.13658411760E+03  0.19886092248E+03  0.00000000000E+00 0.  1.
          1    1    3    3  501    0 -0.21941204201E+01  0.16159265001E+03 -0.21019317470E+03  0.26513801952E+03  0.00000000000E+00 0.  1.
         21    1    1    2  502  501 -0.25029272771E+02 -0.19644306688E+02  0.34651449818E+02  0.47043450715E+02  0.00000000000E+00 0.  1.
<scales pt_clust_4="550.00000" pt_clust_5="550.00000" pt_clust_6="31.81766"></scales>
<mgrwt>
<rscale>  0 0.30000000E+03</rscale>
<asrwt>  1 0.31817657E+02</asrwt>
<pdfrwt beam="1">  1        1 0.85833597E+00 0.30000000E+03</pdfrwt>
<pdfrwt beam="2">0</pdfrwt>
<totfact> 0.34295746E-04</totfact>
</mgrwt>
<clustering>
<clus scale="   31.818">  1  6  2 -1</clus>
<clus scale="  457.017">  4  5 -1 -1</clus>
<clus scale="  300.000">  1  4  2 -1</clus>
</clustering>
</event>
<event>
 6    1  0.1000035E-011  0.3000000E+03  0.7818608E-02  0.1093470E+00
          1   -1    0    0  502    0  0.00000000000E+00  0.00000000000E+00  0.25530071564E+03  0.25530071564E+03  0.00000000000E+00 0.  1.
         13   -1    0    0    0    0 -0.00000000000E+00 -0.00000000000E+00 -0.27500000000E+03  0.27500000000E+03  0.00000000000E+00 0.  1.
    9000005    2    1    2  501    0  0.15526066810E+02 -0.27223637504E+02 -0.57387577986E+02  0.48128446664E+03  0.47682199879E+03 0.  0.
         13    1    3    3    0    0 -0.10577947535E+03  0.18410347346E+03  0.44889448390E+02  0.21702177062E+03  0.00000000000E+00 0.  1.
          3    1    3    3  501    0  0.12130554216E+03 -0.21132711096E+03 -0.10227702638E+03  0.26426269602E+03  0.00000000000E+00 0.  1.
         21    1    1    2  502  501 -0.15526066810E+02  0.27223637504E+02  0.37688293626E+02  0.49016249000E+02  0.00000000000E+00 0.  1.
<scales pt_clust_4="550.00000" pt_clust_5="550.00000" pt_clust_6="31.33983"></scales>
<mgrwt>
<rscale>  0 0.30000000E+03</rscale>
<asrwt>  1 0.31339834E+02</asrwt>
<pdfrwt beam="1">  1        1 0.92836624E+00 0.30000000E+03</pdfrwt>
<pdfrwt beam="2">0</pdfrwt>
<totfact> 0.28635379E-05</totfact>
</mgrwt>
<clustering>
<clus scale="   31.340">  1  6  2 -1</clus>
<clus scale="  476.822">  4  5 -1 -1</clus>
<clus scale="  300.000">  1  4  2 -1</clus>
</clustering>
</event>
<event>
 6    1  0.1000035E-011  0.3000000E+03  0.7818608E-02  0.1093470E+00
          1   -1    0    0  502    0  0.00000000000E+00  0.00000000000E+00  0.22911289908E+03  0.22911289908E+03  0.00000000000E+00 0.  1.
         13   -1    0    0    0    0 -0.00000000000E+00 -0.00000000000E+00 -0.27500000000E+03  0.27500000000E+03  0.00000000000E+00 0.  1.
    9000005    2    1    2  501    0  0.34472265449E+02 -0.65332493417E+01 -0.52686981733E+02  0.46837414125E+03  0.46407693082E+03 0.  0.
         13    1    3    3    0    0  0.74384869737E+02 -0.17934084844E+01 -0.25318250790E+03  0.26388957438E+03  0.00000000000E+00 0.  1.
          1    1    3    3  501    0 -0.39912604288E+02 -0.47398408573E+01  0.20049552617E+03  0.20448456687E+03  0.00000000000E+00 0.  1.
         21    1    1    2  502  501 -0.34472265449E+02  0.65332493417E+01  0.67998808137E+01  0.35738757830E+02  0.00000000000E+00 0.  1.
<scales pt_clust_4="550.00000" pt_clust_5="550.00000" pt_clust_6="35.08590"></scales>
<mgrwt>
<rscale>  0 0.30000000E+03</rscale>
<asrwt>  1 0.35085901E+02</asrwt>
<pdfrwt beam="1">  1        1 0.83313781E+00 0.30000000E+03</pdfrwt>
<pdfrwt beam="2">0</pdfrwt>
<totfact> 0.55816447E-04</totfact>
</mgrwt>
<clustering>
<clus scale="   35.086">  1  6  2 -1</clus>
<clus scale="  464.077">  4  5 -1 -1</clus>
<clus scale="  300.000">  1  4  2 -1</clus>
</clustering>
</event>
<event>
 6    1  0.1000035E-011  0.3000000E+03  0.7818608E-02  0.1093470E+00
          1   -1    0    0  502    0  0.00000000000E+00  0.00000000000E+00  0.22956797373E+03  0.22956797373E+03  0.00000000000E+00 0.  1.
         13   -1    0    0    0    0 -0.00000000000E+00 -0.00000000000E+00 -0.27500000000E+03  0.27500000000E+03  0.00000000000E+00 0.  1.
    9000005    2    1    2  501    0 -0.29554643101E+02  0.91512863526E+01 -0.68298257392E+02  0.46609606844E+03  0.46002572763E+03 0.  0.
         13    1    3    3    0    0  0.16435105126E+03  0.86102745496E+02 -0.15344676196E+03  0.24077138449E+03  0.00000000000E+00 0.  1.
          3    1    3    3  501    0 -0.19390569436E+03 -0.76951459143E+02  0.85148504568E+02  0.22532468395E+03  0.00000000000E+00 0.  1.
         21    1    1    2  502  501  0.29554643101E+02 -0.91512863526E+01  0.22866231119E+02  0.38471905285E+02  0.00000000000E+00 0.  1.
<scales pt_clust_4="550.00000" pt_clust_5="550.00000" pt_clust_6="30.93902"></scales>
<mgrwt>
<rscale>  0 0.30000000E+03</rscale>
<asrwt>  1 0.30939020E+02</asrwt>
<pdfrwt beam="1">  1        1 0.83479263E+00 0.30000000E+03</pdfrwt>
<pdfrwt beam="2">0</pdfrwt>
<totfact> 0.55569782E-04</totfact>
</mgrwt>
<clustering>
<clus scale="   30.939">  1  6  2 -1</clus>
<clus scale="  460.026">  4  5 -1 -1</clus>
<clus scale="  300.000">  1  4  2 -1</clus>
</clustering>
</event>
<event>
 6    1  0.1000035E-011  0.3000000E+03  0.7818608E-02  0.1093470E+00
          1   -1    0    0  502    0  0.00000000000E+00  0.00000000000E+00  0.24991682819E+03  0.24991682819E+03  0.00000000000E+00 0.  1.
         13   -1    0    0    0    0 -0.00000000000E+00 -0.00000000000E+00 -0.27500000000E+03  0.27500000000E+03  0.00000000000E+00 0.  1.
    9000005    2    1    2  501    0 -0.21190558461E+02 -0.22386369229E+02 -0.57938562400E+02  0.47986501373E+03  0.47535604035E+03 0.  0.
         13    1    3    3    0    0 -0.66262743164E+02 -0.31717098458E+02  0.20248801127E+03  0.21540222880E+03  0.00000000000E+00 0.  1.
          3    1    3    3  501    0  0.45072184703E+02  0.93307292296E+01 -0.26042657367E+03  0.26446278493E+03  0.00000000000E+00 0.  1.
         21    1    1    2  502  501  0.21190558461E+02  0.22386369229E+02  0.32855390588E+02  0.45051814457E+02  0.00000000000E+00 0. -1.
<scales pt_clust_4="550.00000" pt_clust_5="550.00000" pt_clust_6="30.82514"></scales>
<mgrwt>
<rscale>  0 0.30000000E+03</rscale>
<asrwt>  1 0.30825141E+02</asrwt>
<pdfrwt beam="1">  1        1 0.90878847E+00 0.30000000E+03</pdfrwt>
<pdfrwt beam="2">0</pdfrwt>
<totfact> 0.78672398E-05</totfact>
</mgrwt>
<clustering>
<clus scale="   30.825">  1  6  2 -1</clus>
<clus scale="  475.356">  4  5 -1 -1</clus>
<clus scale="  300.000">  1  4  2 -1</clus>
</clustering>
</event>
<event>
 6    1  0.1000035E-011  0.3000000E+03  0.7818608E-02  0.1093470E+00
          1   -1    0    0  502    0  0.00000000000E+00  0.00000000000E+00  0.22363010088E+03  0.22363010088E+03  0.00000000000E+00 0.  1.
         13   -1    0    0    0    0 -0.00000000000E+00 -0.00000000000E+00 -0.27500000000E+03  0.27500000000E+03  0.00000000000E+00 0.  1.
    9000005    2    1    2  501    0  0.32586457557E+02  0.44390770476E+01 -0.62673400497E+02  0.46385436560E+03  0.45842265949E+03 0.  0.
         13    1    3    3    0    0 -0.16469511353E+03  0.48569727020E+02 -0.16424664981E+03  0.23761410054E+03  0.00000000000E+00 0.  1.
          1    1    3    3  501    0  0.19728157109E+03 -0.44130649972E+02  0.10157324931E+03  0.22624026506E+03  0.00000000000E+00 0.  1.
         21    1    1    2  502  501 -0.32586457557E+02 -0.44390770476E+01  0.11303501381E+02  0.34775735285E+02  0.00000000000E+00 0. -1.
<scales pt_clust_4="550.00000" pt_clust_5="550.00000" pt_clust_6="32.88742"></scales>
<mgrwt>
<rscale>  0 0.30000000E+03</rscale>
<asrwt>  1 0.32887423E+02</asrwt>
<pdfrwt beam="1">  1        1 0.81320037E+00 0.30000000E+03</pdfrwt>
<pdfrwt beam="2">0</pdfrwt>
<totfact> 0.83264785E-04</totfact>
</mgrwt>
<clustering>
<clus scale="   32.887">  1  6  2 -1</clus>
<clus scale="  458.423">  4  5 -1 -1</clus>
<clus scale="  300.000">  1  4  2 -1</clus>
</clustering>
</event>
<event>
 6    1  0.1000035E-011  0.3000000E+03  0.7818608E-02  0.1093470E+00
          1   -1    0    0  502    0  0.00000000000E+00  0.00000000000E+00  0.26679682019E+03  0.26679682019E+03  0.00000000000E+00 0.  1.
         13   -1    0    0    0    0 -0.00000000000E+00 -0.00000000000E+00 -0.27500000000E+03  0.27500000000E+03  0.00000000000E+00 0.  1.
    9000005    2    1    2  501    0 -0.47372835748E+02 -0.17201590250E+02 -0.52511341526E+02  0.47469023729E+03  0.46907707268E+03 0.  0.
         13    1    3    3    0    0 -0.11536623092E+03 -0.13910177453E+03 -0.20140839135E+03  0.27059935518E+03  0.00000000000E+00 0.  1.
          3    1    3    3  501    0  0.67993395173E+02  0.12190018428E+03  0.14889704982E+03  0.20409088211E+03  0.00000000000E+00 0.  1.
         21    1    1    2  502  501  0.47372835748E+02  0.17201590250E+02  0.44308161713E+02  0.67106582899E+02  0.00000000000E+00 0.  1.
<scales pt_clust_4="550.00000" pt_clust_5="550.00000" pt_clust_6="50.39921"></scales>
<mgrwt>
<rscale>  0 0.30000000E+03</rscale>
<asrwt>  1 0.50399209E+02</asrwt>
<pdfrwt beam="1">  1        1 0.97017026E+00 0.30000000E+03</pdfrwt>
<pdfrwt beam="2">0</pdfrwt>
<totfact> 0.46101150E-06</totfact>
</mgrwt>
<clustering>
<clus scale="   50.399">  1  6  2 -1</clus>
<clus scale="  469.077">  4  5 -1 -1</clus>
<clus scale="  300.000">  1  4  2 -1</clus>
</clustering>
</event>
<event>
 6    1  0.1000035E-011  0.3000000E+03  0.7818608E-02  0.1093470E+00
          1   -1    0    0  502    0  0.00000000000E+00  0.00000000000E+00  0.23545506964E+03  0.23545506964E+03  0.00000000000E+00 0.  1.
         13   -1    0    0    0    0 -0.00000000000E+00 -0.00000000000E+00 -0.27500000000E+03  0.27500000000E+03  0.00000000000E+00 0.  1.
    9000005    2    1    2  501    0  0.36537551782E+02 -0.15745607506E+02 -0.52034864101E+02  0.46875476639E+03  0.46415567118E+03 0.  0.
         13    1    3    3    0    0  0.13237285508E+02 -0.20800789852E+03  0.91566313151E+02  0.22765522458E+03  0.00000000000E+00 0.  1.
          1    1    3    3  501    0  0.23300266274E+02  0.19226229101E+03 -0.14360117725E+03  0.24109954181E+03  0.00000000000E+00 0.  1.
         21    1    1    2  502  501 -0.36537551782E+02  0.15745607506E+02  0.12489933740E+02  0.41700303246E+02  0.00000000000E+00 0. -1.
<scales pt_clust_4="550.00000" pt_clust_5="550.00000" pt_clust_6="39.78589"></scales>
<mgrwt>
<rscale>  0 0.30000000E+03</rscale>
<asrwt>  1 0.39785888E+02</asrwt>
<pdfrwt beam="1">  1        1 0.85620025E+00 0.30000000E+03</pdfrwt>
<pdfrwt beam="2">0</pdfrwt>
<totfact> 0.34607842E-04</totfact>
</mgrwt>
<clustering>
<clus scale="   39.786">  1  6  2 -1</clus>
<clus scale="  464.156">  4  5 -1 -1</clus>
<clus scale="  300.000">  1  4  2 -1</clus>
</clustering>
</event>
<event>
 6    1  0.1000035E-011  0.3000000E+03  0.7818608E-02  0.1093470E+00
          1   -1    0    0  502    0  0.00000000000E+00  0.00000000000E+00  0.23355239929E+03  0.23355239929E+03  0.00000000000E+00 0.  1.
         13   -1    0    0    0    0 -0.00000000000E+00 -0.00000000000E+00 -0.27500000000E+03  0.27500000000E+03  0.00000000000E+00 0.  1.
    9000005    2    1    2  501    0 -0.19234535324E+02  0.30841929603E+02 -0.54131543264E+02  0.47005468027E+03  0.46551045799E+03 0.  0.
         13    1    3    3    0    0 -0.15347398278E+03 -0.11708079587E+03  0.10032733360E+03  0.21754941972E+03  0.00000000000E+00 0.  1.
          1    1    3    3  501    0  0.13423944746E+03  0.14792272547E+03 -0.15445887687E+03  0.25250526055E+03  0.00000000000E+00 0.  1.
         21    1    1    2  502  501  0.19234535324E+02 -0.30841929603E+02  0.12683942553E+02  0.38497719017E+02  0.00000000000E+00 0.  1.
<scales pt_clust_4="550.00000" pt_clust_5="550.00000" pt_clust_6="36.34820"></scales>
<mgrwt>
<rscale>  0 0.30000000E+03</rscale>
<asrwt>  1 0.36348205E+02</asrwt>
<pdfrwt beam="1">  1        1 0.84928145E+00 0.30000000E+03</pdfrwt>
<pdfrwt beam="2">0</pdfrwt>
<totfact> 0.41042570E-04</totfact>
</mgrwt>
<clustering>
<clus scale="   36.348">  1  6  2 -1</clus>
<clus scale="  465.510">  4  5 -1 -1</clus>
<clus scale="  300.000">  1  4  2 -1</clus>
</clustering>
</event>
<event>
 6    1  0.1000035E-011  0.3000000E+03  0.7818608E-02  0.1093470E+00
          1   -1    0    0  502    0  0.00000000000E+00  0.00000000000E+00  0.22712359746E+03  0.22712359746E+03  0.00000000000E+00 0.  1.
         13   -1    0    0    0    0 -0.00000000000E+00 -0.00000000000E+00 -0.27500000000E+03  0.27500000000E+03  0.00000000000E+00 0.  1.
    9000005    2    1    2  501    0  0.36690398179E+02 -0.17834626860E+02 -0.52686883898E+02  0.46104562326E+03  0.45620488792E+03 0.  0.
         13    1    3    3    0    0 -0.20434846703E+03  0.20165438590E+02  0.20315799704E+02  0.20634357904E+03  0.00000000000E+00 0.  1.
          1    1    3    3  501    0  0.24103886521E+03 -0.38000065450E+02 -0.73002683602E+02  0.25470204422E+03  0.00000000000E+00 0.  1.
         21    1    1    2  502  501 -0.36690398179E+02  0.17834626860E+02  0.48104813620E+01  0.41077974204E+02  0.00000000000E+00 0.  1.
<scales pt_clust_4="550.00000" pt_clust_5="550.00000" pt_clust_6="40.79533"></scales>
<mgrwt>
<rscale>  0 0.30000000E+03</rscale>
<asrwt>  1 0.40795333E+02</asrwt>
<pdfrwt beam="1">  1        1 0.82590399E+00 0.30000000E+03</pdfrwt>
<pdfrwt beam="2">0</pdfrwt>
<totfact> 0.62330922E-04</totfact>
</mgrwt>
<clustering>
<clus scale="   40.795">  1  6  2 -1</clus>
<clus scale="  456.205">  4  5 -1 -1</clus>
<clus scale="  300.000">  1  4  2 -1</clus>
</clustering>
</event>
<event>
 6    1  0.1000035E-011  0.3000000E+03  0.7818608E-02  0.1093470E+00
          1   -1    0    0  502    0  0.00000000000E+00  0.00000000000E+00  0.23530000109E+03  0.23530000109E+03  0.00000000000E+00 0.  1.
         13   -1    0    0    0    0 -0.00000000000E+00 -0.00000000000E+00 -0.27500000000E+03  0.27500000000E+03  0.00000000000E+00 0.  1.
    9000005    2    1    2  501    0 -0.39434623882E+02 -0.59290588930E+01 -0.48579253596E+02  0.46944557093E+03  0.46521925679E+03 0.  0.
         13    1    3    3    0    0 -0.88657681998E+02 -0.61117106081E+02  0.19069855424E+03  0.21900096763E+03  0.00000000000E+00 0.  1.
          1    1    3    3  501    0  0.49223058116E+02  0.55188047188E+02 -0.23927780783E+03  0.25044460330E+03  0.00000000000E+00 0.  1.
         21    1    1    2  502  501  0.39434623882E+02  0.59290588930E+01  0.88792546896E+01  0.40854430162E+02  0.00000000000E+00 0.  1.
<scales pt_clust_4="550.00000" pt_clust_5="550.00000" pt_clust_6="39.87785"></scales>
<mgrwt>
<rscale>  0 0.30000000E+03</rscale>
<asrwt>  1 0.39877855E+02</asrwt>
<pdfrwt beam="1">  1        1 0.85563637E+00 0.30000000E+03</pdfrwt>
<pdfrwt beam="2">0</pdfrwt>
<totfact> 0.35049470E-04</totfact>
</mgrwt>
<clustering>
<clus scale="   39.878">  1  6  2 -1</clus>
<clus scale="  465.219">  4  5 -1 -1</clus>
<clus scale="  300.000">  1  4  2 -1</clus>
</clustering>
</event>
<event>
 6    1  0.1000035E-011  0.3000000E+03  0.7818608E-02  0.1093470E+00
          1   -1    0    0  502    0  0.00000000000E+00  0.00000000000E+00  0.23288362670E+03  0.23288362670E+03  0.00000000000E+00 0.  1.
         13   -1    0    0    0    0 -0.00000000000E+00 -0.00000000000E+00 -0.27500000000E+03  0.27500000000E+03  0.00000000000E+00 0.  1.
    9000005    2    1    2  501    0  0.14756496091E+02 -0.40492407901E+02 -0.38643191258E+02  0.46464646366E+03  0.46102673532E+03 0.  0.
         13    1    3    3    0    0  0.57583632909E+02 -0.16724444144E+03 -0.19204991075E+03  0.26109336680E+03  0.00000000000E+00 0.  1.
          3    1    3    3  501    0 -0.42827136818E+02  0.12675203354E+03  0.15340671949E+03  0.20355309685E+03  0.00000000000E+00 0.  1.
         21    1    1    2  502  501 -0.14756496091E+02  0.40492407901E+02 -0.34731820423E+01  0.43237163043E+02  0.00000000000E+00 0. -1.
<scales pt_clust_4="550.00000" pt_clust_5="550.00000" pt_clust_6="43.09744"></scales>
<mgrwt>
<rscale>  0 0.30000000E+03</rscale>
<asrwt>  1 0.43097439E+02</asrwt>
<pdfrwt beam="1">  1        1 0.84684955E+00 0.30000000E+03</pdfrwt>
<pdfrwt beam="2">0</pdfrwt>
<totfact> 0.41877203E-04</totfact>
</mgrwt>
<clustering>
<clus scale="   43.097">  1  6  2 -1</clus>
<clus scale="  461.027">  4  5 -1 -1</clus>
<clus scale="  300.000">  1  4  2 -1</clus>
</clustering>
</event>
<event>
 6    1  0.1000035E-011  0.3000000E+03  0.7818608E-02  0.1093470E+00
          1   -1    0    0  502    0  0.00000000000E+00  0.00000000000E+00  0.22164533474E+03  0.22164533474E+03  0.00000000000E+00 0.  1.
         13   -1    0    0    0    0 -0.00000000000E+00 -0.00000000000E+00 -0.27500000000E+03  0.27500000000E+03  0.00000000000E+00 0.  1.
    9000005    2    1    2  501    0 -0.33331636094E+02  0.64209413780E+01 -0.60803992317E+02  0.46189308408E+03  0.45661347898E+03 0.  0.
         13    1    3    3    0    0  0.17886412664E+03  0.32650011752E+02  0.87404996886E+02  0.20173753381E+03  0.00000000000E+00 0.  1.
          3    1    3    3  501    0 -0.21219576273E+03 -0.26229070374E+02 -0.14820898920E+03  0.26015555027E+03  0.00000000000E+00 0.  1.
         21    1    1    2  502  501  0.33331636094E+02 -0.64209413780E+01  0.74493270609E+01  0.34752250669E+02  0.00000000000E+00 0. -1.
<scales pt_clust_4="550.00000" pt_clust_5="550.00000" pt_clust_6="33.94446"></scales>
<mgrwt>
<rscale>  0 0.30000000E+03</rscale>
<asrwt>  1 0.33944461E+02</asrwt>
<pdfrwt beam="1">  1        1 0.80598304E+00 0.30000000E+03</pdfrwt>
<pdfrwt beam="2">0</pdfrwt>
<totfact> 0.94205212E-04</totfact>
</mgrwt>
<clustering>
<clus scale="   33.944">  1  6  2 -1</clus>
<clus scale="  456.613">  4  5 -1 -1</clus>
<clus scale="  300.000">  1  4  2 -1</clus>
</clustering>
</event>
<event>
 6    1  0.1000035E-011  0.3000000E+03  0.7818608E-02  0.1093470E+00
          1   -1    0    0  502    0  0.00000000000E+00  0.00000000000E+00  0.24045423832E+03  0.24045423832E+03  0.00000000000E+00 0.  1.
         13   -1    0    0    0    0 -0.00000000000E+00 -0.00000000000E+00 -0.27500000000E+03  0.27500000000E+03  0.00000000000E+00 0.  1.
    9000005    2    1    2  501    0 -0.17714702954E+02 -0.27981403655E+02 -0.59802807630E+02  0.47380465223E+03  0.46884720648E+03 0.  0.
         13    1    3    3    0    0 -0.21397027702E+03  0.98319347016E+02 -0.13449997506E+02  0.23586198481E+03  0.00000000000E+00 0.  1.
          3    1    3    3  501    0  0.19625557407E+03 -0.12630075067E+03 -0.46352810124E+02  0.23794266742E+03  0.00000000000E+00 0.  1.
         21    1    1    2  502  501  0.17714702954E+02  0.27981403655E+02  0.25257045951E+02  0.41649586090E+02  0.00000000000E+00 0. -1.
<scales pt_clust_4="550.00000" pt_clust_5="550.00000" pt_clust_6="33.11751"></scales>
<mgrwt>
<rscale>  0 0.30000000E+03</rscale>
<asrwt>  1 0.33117513E+02</asrwt>
<pdfrwt beam="1">  1        1 0.87437905E+00 0.30000000E+03</pdfrwt>
<pdfrwt beam="2">0</pdfrwt>
<totfact> 0.23072188E-04</totfact>
</mgrwt>
<clustering>
<clus scale="   33.118">  1  6  2 -1</clus>
<clus scale="  468.847">  4  5 -1 -1</clus>
<clus scale="  300.000">  1  4  2 -1</clus>
</clustering>
</event>
<event>
 6    1  0.1000035E-011  0.3000000E+03  0.7818608E-02  0.1093470E+00
          1   -1    0    0  502    0  0.00000000000E+00  0.00000000000E+00  0.22915258108E+03  0.22915258108E+03  0.00000000000E+00 0.  1.
         13   -1    0    0    0    0 -0.00000000000E+00 -0.00000000000E+00 -0.27500000000E+03  0.27500000000E+03  0.00000000000E+00 0.  1.
    9000005    2    1    2  501    0 -0.34376301751E+02  0.26825868756E+01 -0.41799305687E+02  0.46943495421E+03  0.46629718837E+03 0.  0.
         13    1    3    3    0    0 -0.33015652925E-01  0.88856045615E+02  0.19544714925E+03  0.21469742915E+03  0.00000000000E+00 0.  1.
          1    1    3    3  501    0 -0.34343286098E+02 -0.86173458739E+02 -0.23724645494E+03  0.25473752506E+03  0.00000000000E+00 0.  1.
         21    1    1    2  502  501  0.34376301751E+02 -0.26825868756E+01 -0.40481132379E+01  0.34717626866E+02  0.00000000000E+00 0.  1.
<scales pt_clust_4="550.00000" pt_clust_5="550.00000" pt_clust_6="34.48083"></scales>
<mgrwt>
<rscale>  0 0.30000000E+03</rscale>
<asrwt>  1 0.34480829E+02</asrwt>
<pdfrwt beam="1">  1        1 0.83328211E+00 0.30000000E+03</pdfrwt>
<pdfrwt beam="2">0</pdfrwt>
<totfact> 0.55859018E-04</totfact>
</mgrwt>
<clustering>
<clus scale="   34.481">  1  6  2 -1</clus>
<clus scale="  466.297">  4  5 -1 -1</clus>
<clus scale="  300.000">  1  4  2 -1</clus>
</clustering>
</event>
<event>
 6    1  0.1000035E-011  0.3000000E+03  0.7818608E-02  0.1093470E+00
          1   -1    0    0  502    0  0.00000000000E+00  0.00000000000E+00  0.24236185374E+03  0.24236185374E+03  0.00000000000E+00 0.  1.
         13   -1    0    0    0    0 -0.00000000000E+00 -0.00000000000E+00 -0.27500000000E+03  0.27500000000E+03  0.00000000000E+00 0.  1.
    9000005    2    1    2  501    0  0.12713276884E+02 -0.33806968653E+02 -0.31084582809E+02  0.48121006128E+03  0.47884479036E+03 0.  0.
         13    1    3    3    0    0 -0.15053157301E+03  0.15808718955E+03 -0.63145079024E+02  0.22724131442E+03  0.00000000000E+00 0.  1.
          3    1    3    3  501    0  0.16324484989E+03 -0.19189415820E+03  0.32060496215E+02  0.25396874687E+03  0.00000000000E+00 0.  1.
         21    1    1    2  502  501 -0.12713276884E+02  0.33806968653E+02 -0.15535634475E+01  0.36151792459E+02  0.00000000000E+00 0. -1.
<scales pt_clust_4="550.00000" pt_clust_5="550.00000" pt_clust_6="36.11840"></scales>
<mgrwt>
<rscale>  0 0.30000000E+03</rscale>
<asrwt>  1 0.36118396E+02</asrwt>
<pdfrwt beam="1">  1        1 0.88131583E+00 0.30000000E+03</pdfrwt>
<pdfrwt beam="2">0</pdfrwt>
<totfact> 0.18889042E-04</totfact>
</mgrwt>
<clustering>
<clus scale="   36.118">  1  6  2 -1</clus>
<clus scale="  478.845">  4  5 -1 -1</clus>
<clus scale="  300.000">  1  4  2 -1</clus>
</clustering>
</event>
<event>
 6    1  0.1000035E-011  0.3000000E+03  0.7818608E-02  0.1093470E+00
          1   -1    0    0  502    0  0.00000000000E+00  0.00000000000E+00  0.24847552551E+03  0.24847552551E+03  0.00000000000E+00 0.  1.
         13   -1    0    0    0    0 -0.00000000000E+00 -0.00000000000E+00 -0.27500000000E+03  0.27500000000E+03  0.00000000000E+00 0.  1.
    9000005    2    1    2  501    0 -0.11614563687E+02 -0.49514592700E+02 -0.10786839470E+02  0.47023769934E+03  0.46735483842E+03 0.  0.
         13    1    3    3    0    0 -0.65246626306E+02 -0.23915829204E+03  0.69458445335E+02  0.25744569626E+03  0.00000000000E+00 0.  1.
          1    1    3    3  501    0  0.53632062620E+02  0.18964369934E+03 -0.80245284805E+02  0.21279200308E+03  0.00000000000E+00 0.  1.
         21    1    1    2  502  501  0.11614563687E+02  0.49514592700E+02 -0.15737635018E+02  0.53237826175E+02  0.00000000000E+00 0.  1.
<scales pt_clust_4="550.00000" pt_clust_5="550.00000" pt_clust_6="50.85858"></scales>
<mgrwt>
<rscale>  0 0.30000000E+03</rscale>
<asrwt>  1 0.50858584E+02</asrwt>
<pdfrwt beam="1">  1        1 0.90354737E+00 0.30000000E+03</pdfrwt>
<pdfrwt beam="2">0</pdfrwt>
<totfact> 0.91748856E-05</totfact>
</mgrwt>
<clustering>
<clus scale="   50.859">  1  6  2 -1</clus>
<clus scale="  467.355">  4  5 -1 -1</clus>
<clus scale="  300.000">  1  4  2 -1</clus>
</clustering>
</event>
<event>
 6    1  0.1000035E-011  0.3000000E+03  0.7818608E-02  0.1093470E+00
          1   -1    0    0  502    0  0.00000000000E+00  0.00000000000E+00  0.23694442069E+03  0.23694442069E+03  0.00000000000E+00 0.  1.
         13   -1    0    0    0    0 -0.00000000000E+00 -0.00000000000E+00 -0.27500000000E+03  0.27500000000E+03  0.00000000000E+00 0.  1.
    9000005    2    1    2  501    0 -0.17185873136E+01 -0.46685803658E+02 -0.37451277947E+02  0.46522308738E+03  0.46135388262E+03 0.  0.
         13    1    3    3    0    0  0.12742924530E+03 -0.13473307637E+02  0.17348093098E+03  0.21567423581E+03  0.00000000000E+00 0.  1.
          1    1    3    3  501    0 -0.12914783261E+03 -0.33212496021E+02 -0.21093220893E+03  0.24954885158E+03  0.00000000000E+00 0.  1.
         21    1    1    2  502  501  0.17185873136E+01  0.46685803658E+02 -0.60430136501E+00  0.46721333304E+02  0.00000000000E+00 0.  1.
<scales pt_clust_4="550.00000" pt_clust_5="550.00000" pt_clust_6="46.71743"></scales>
<mgrwt>
<rscale>  0 0.30000000E+03</rscale>
<asrwt>  1 0.46717425E+02</asrwt>
<pdfrwt beam="1">  1        1 0.86161608E+00 0.30000000E+03</pdfrwt>
<pdfrwt beam="2">0</pdfrwt>
<totfact> 0.29487174E-04</totfact>
</mgrwt>
<clustering>
<clus scale="   46.717">  1  6  2 -1</clus>
<clus scale="  461.354">  4  5 -1 -1</clus>
<clus scale="  300.000">  1  4  2 -1</clus>
</clustering>
</event>
<event>
 6    1  0.1000035E-011  0.3000000E+03  0.7818608E-02  0.1093470E+00
          1   -1    0    0  502    0  0.00000000000E+00  0.00000000000E+00  0.22103181763E+03  0.22103181763E+03  0.00000000000E+00 0.  1.
         13   -1    0    0    0    0 -0.00000000000E+00 -0.00000000000E+00 -0.27500000000E+03  0.27500000000E+03  0.00000000000E+00 0.  1.
    9000005    2    1    2  501    0 -0.30091719913E+02 -0.42954283472E+00 -0.51164400484E+02  0.46580670709E+03  0.46200908690E+03 0.  0.
         13    1    3    3    0    0 -0.12728632450E+03 -0.19429077484E+03  0.30108064339E+02  0.23421615898E+03  0.00000000000E+00 0.  1.
          3    1    3    3  501    0  0.97194604583E+02  0.19386123200E+03 -0.81272464822E+02  0.23159054811E+03  0.00000000000E+00 0.  1.
         21    1    1    2  502  501  0.30091719913E+02  0.42954283472E+00 -0.28037818853E+01  0.30225110541E+02  0.00000000000E+00 0.  1.
<scales pt_clust_4="550.00000" pt_clust_5="550.00000" pt_clust_6="30.09479"></scales>
<mgrwt>
<rscale>  0 0.30000000E+03</rscale>
<asrwt>  1 0.30094786E+02</asrwt>
<pdfrwt beam="1">  1        1 0.80375206E+00 0.30000000E+03</pdfrwt>
<pdfrwt beam="2">0</pdfrwt>
<totfact> 0.10019748E-03</totfact>
</mgrwt>
<clustering>
<clus scale="   30.095">  1  6  2 -1</clus>
<clus scale="  462.009">  4  5 -1 -1</clus>
<clus scale="  300.000">  1  4  2 -1</clus>
</clustering>
</event>
<event>
 6    1  0.1000035E-011  0.3000000E+03  0.7818608E-02  0.1093470E+00
          1   -1    0    0  502    0  0.00000000000E+00  0.00000000000E+00  0.26480949910E+03  0.26480949910E+03  0.00000000000E+00 0.  1.
         13   -1    0    0    0    0 -0.00000000000E+00 -0.00000000000E+00 -0.27500000000E+03  0.27500000000E+03  0.00000000000E+00 0.  1.
    9000005    2    1    2  501    0  0.44967529273E+02  0.14321640911E+02 -0.35224895876E+02  0.48638750907E+03  0.48280930770E+03 0.  0.
         13    1    3    3    0    0 -0.59646032992E+02  0.27801734930E+02  0.20966386652E+03  0.21974877165E+03  0.00000000000E+00 0.  1.
          1    1    3    3  501    0  0.10461356226E+03 -0.13480094018E+02 -0.24488876240E+03  0.26663873742E+03  0.00000000000E+00 0.  1.
         21    1    1    2  502  501 -0.44967529273E+02 -0.14321640911E+02  0.25034394979E+02  0.53421990035E+02  0.00000000000E+00 0.  1.
<scales pt_clust_4="550.00000" pt_clust_5="550.00000" pt_clust_6="47.19309"></scales>
<mgrwt>
<rscale>  0 0.30000000E+03</rscale>
<asrwt>  1 0.47193094E+02</asrwt>
<pdfrwt beam="1">  1        1 0.96294363E+00 0.30000000E+03</pdfrwt>
<pdfrwt beam="2">0</pdfrwt>
<totfact> 0.62098346E-06</totfact>
</mgrwt>
<clustering>
<clus scale="   47.193">  1  6  2 -1</clus>
<clus scale="  482.809">  4  5 -1 -1</clus>
<clus scale="  300.000">  1  4  2 -1</clus>
</clustering>
</event>
<event>
 6    1  0.1000035E-011  0.3000000E+03  0.7818608E-02  0.1093470E+00
          1   -1    0    0  502    0  0.00000000000E+00  0.00000000000E+00  0.22726721932E+03  0.22726721932E+03  0.00000000000E+00 0.  1.
         13   -1    0    0    0    0 -0.00000000000E+00 -0.00000000000E+00 -0.27500000000E+03  0.27500000000E+03  0.00000000000E+00 0.  1.
    9000005    2    1    2  501    0  0.30785515547E+02 -0.86282580039E+01 -0.35329177095E+02  0.46797371868E+03  0.46554168000E+03 0.  0.
         13    1    3    3    0    0 -0.28696554091E+02  0.11921629857E+03 -0.21019036540E+03  0.24334339475E+03  0.00000000000E+00 0.  1.
          1    1    3    3  501    0  0.59482069638E+02 -0.12784455657E+03  0.17486118831E+03  0.22463032393E+03  0.00000000000E+00 0.  1.
         21    1    1    2  502  501 -0.30785515547E+02  0.86282580039E+01 -0.12403603589E+02  0.34293500633E+02  0.00000000000E+00 0.  1.
<scales pt_clust_4="550.00000" pt_clust_5="550.00000" pt_clust_6="31.97180"></scales>
<mgrwt>
<rscale>  0 0.30000000E+03</rscale>
<asrwt>  1 0.31971797E+02</asrwt>
<pdfrwt beam="1">  1        1 0.82642625E+00 0.30000000E+03</pdfrwt>
<pdfrwt beam="2">0</pdfrwt>
<totfact> 0.64529279E-04</totfact>
</mgrwt>
<clustering>
<clus scale="   31.972">  1  6  2 -1</clus>
<clus scale="  465.542">  4  5 -1 -1</clus>
<clus scale="  300.000">  1  4  2 -1</clus>
</clustering>
</event>
<event>
 6    1  0.1000035E-011  0.3000000E+03  0.7818608E-02  0.1093470E+00
          1   -1    0    0  502    0  0.00000000000E+00  0.00000000000E+00  0.23683420386E+03  0.23683420386E+03  0.00000000000E+00 0.  1.
         13   -1    0    0    0    0 -0.00000000000E+00 -0.00000000000E+00 -0.27500000000E+03  0.27500000000E+03  0.00000000000E+00 0.  1.
    9000005    2    1    2  501    0  0.46600642738E+01 -0.35054463981E+02 -0.66756831952E+02  0.46635916705E+03  0.46019981143E+03 0.  0.
         13    1    3    3    0    0  0.17191786780E+03  0.92442085488E+02  0.78895251868E+02  0.21053682149E+03  0.00000000000E+00 0.  1.
          1    1    3    3  501    0 -0.16725780352E+03 -0.12749654947E+03 -0.14565208382E+03  0.25582234556E+03  0.00000000000E+00 0.  1.
         21    1    1    2  502  501 -0.46600642738E+01  0.35054463981E+02  0.28591035817E+02  0.45475036813E+02  0.00000000000E+00 0.  1.
<scales pt_clust_4="550.00000" pt_clust_5="550.00000" pt_clust_6="35.36286"></scales>
<mgrwt>
<rscale>  0 0.30000000E+03</rscale>
<asrwt>  1 0.35362857E+02</asrwt>
<pdfrwt beam="1">  1        1 0.86121529E+00 0.30000000E+03</pdfrwt>
<pdfrwt beam="2">0</pdfrwt>
<totfact> 0.31330085E-04</totfact>
</mgrwt>
<clustering>
<clus scale="   35.363">  1  6  2 -1</clus>
<clus scale="  460.200">  4  5 -1 -1</clus>
<clus scale="  300.000">  1  4  2 -1</clus>
</clustering>
</event>
<event>
 6    1  0.1000035E-011  0.3000000E+03  0.7818608E-02  0.1093470E+00
          1   -1    0    0  502    0  0.00000000000E+00  0.00000000000E+00  0.24867189903E+03  0.24867189903E+03  0.00000000000E+00 0.  1.
         13   -1    0    0    0    0 -0.00000000000E+00 -0.00000000000E+00 -0.27500000000E+03  0.27500000000E+03  0.00000000000E+00 0.  1.
    9000005    2    1    2  501    0  0.26541063062E+02 -0.22088410982E+02 -0.59431835626E+02  0.47583694135E+03  0.47084639293E+03 0.  0.
         13    1    3    3    0    0 -0.14974065853E+02  0.11476266447E+03  0.16989690889E+03  0.20557152394E+03  0.00000000000E+00 0.  1.
          3    1    3    3  501    0  0.41515128915E+02 -0.13685107546E+03 -0.22932874452E+03  0.27026541740E+03  0.00000000000E+00 0.  1.
         21    1    1    2  502  501 -0.26541063062E+02  0.22088410982E+02  0.33103734652E+02  0.47834957678E+02  0.00000000000E+00 0.  1.
<scales pt_clust_4="550.00000" pt_clust_5="550.00000" pt_clust_6="34.53007"></scales>
<mgrwt>
<rscale>  0 0.30000000E+03</rscale>
<asrwt>  1 0.34530073E+02</asrwt>
<pdfrwt beam="1">  1        1 0.90426145E+00 0.30000000E+03</pdfrwt>
<pdfrwt beam="2">0</pdfrwt>
<totfact> 0.95643657E-05</totfact>
</mgrwt>
<clustering>
<clus scale="   34.530">  1  6  2 -1</clus>
<clus scale="  470.846">  4  5 -1 -1</clus>
<clus scale="  300.000">  1  4  2 -1</clus>
</clustering>
</event>
<event>
 6    1  0.1000035E-011  0.3000000E+03  0.7818608E-02  0.1093470E+00
          1   -1    0    0  502    0  0.00000000000E+00  0.00000000000E+00  0.25143176949E+03  0.25143176949E+03  0.00000000000E+00 0.  1.
         13   -1    0    0    0    0 -0.00000000000E+00 -0.00000000000E+00 -0.27500000000E+03  0.27500000000E+03  0.00000000000E+00 0.  1.
    9000005    2    1    2  501    0 -0.67221962138E+01 -0.30831600937E+02 -0.70972697531E+02  0.46948478509E+03  0.46301518777E+03 0.  0.
         13    1    3    3    0    0  0.95343906834E+02 -0.22090868979E+03 -0.79977722843E+02  0.25354988847E+03  0.00000000000E+00 0.  1.
          1    1    3    3  501    0 -0.10206610305E+03  0.19007708885E+03  0.90050253123E+01  0.21593489662E+03  0.00000000000E+00 0.  1.
         21    1    1    2  502  501  0.67221962138E+01  0.30831600937E+02  0.47404467021E+02  0.56946984396E+02  0.00000000000E+00 0.  1.
<scales pt_clust_4="550.00000" pt_clust_5="550.00000" pt_clust_6="31.55591"></scales>
<mgrwt>
<rscale>  0 0.30000000E+03</rscale>
<asrwt>  1 0.31555911E+02</asrwt>
<pdfrwt beam="1">  1        1 0.91429734E+00 0.30000000E+03</pdfrwt>
<pdfrwt beam="2">0</pdfrwt>
<totfact> 0.57361487E-05</totfact>
</mgrwt>
<clustering>
<clus scale="   31.556">  1  6  2 -1</clus>
<clus scale="  463.015">  4  5 -1 -1</clus>
<clus scale="  300.000">  1  4  2 -1</clus>
</clustering>
</event>
<event>
 6    1  0.1000035E-011  0.3000000E+03  0.7818608E-02  0.1093470E+00
          1   -1    0    0  502    0  0.00000000000E+00  0.00000000000E+00  0.25316503175E+03  0.25316503175E+03  0.00000000000E+00 0.  1.
         13   -1    0    0    0    0 -0.00000000000E+00 -0.00000000000E+00 -0.27500000000E+03  0.27500000000E+03  0.00000000000E+00 0.  1.
    9000005    2    1    2  501    0  0.15129650918E+02 -0.64783698342E+02 -0.17866375037E+02  0.46151982457E+03  0.45635020238E+03 0.  0.
         13    1    3    3    0    0 -0.57942450578E+02 -0.13676670730E+03 -0.20200747758E+03  0.25073787269E+03  0.00000000000E+00 0.  1.
          1    1    3    3  501    0  0.73072101496E+02  0.71983008955E+02  0.18414110254E+03  0.21078195188E+03  0.00000000000E+00 0.  1.
         21    1    1    2  502  501 -0.15129650918E+02  0.64783698342E+02 -0.39685932103E+01  0.66645207178E+02  0.00000000000E+00 0. -1.
<scales pt_clust_4="550.00000" pt_clust_5="550.00000" pt_clust_6="66.52697"></scales>
<mgrwt>
<rscale>  0 0.30000000E+03</rscale>
<asrwt>  1 0.66526974E+02</asrwt>
<pdfrwt beam="1">  1        1 0.92060012E+00 0.30000000E+03</pdfrwt>
<pdfrwt beam="2">0</pdfrwt>
<totfact> 0.36219140E-05</totfact>
</mgrwt>
<clustering>
<clus scale="   66.527">  1  6  2 -1</clus>
<clus scale="  456.350">  4  5 -1 -1</clus>
<clus scale="  300.000">  1  4  2 -1</clus>
</clustering>
</event>
<event>
 6    1  0.1000035E-011  0.3000000E+03  0.7818608E-02  0.1093470E+00
          1   -1    0    0  502    0  0.00000000000E+00  0.00000000000E+00  0.24037708154E+03  0.24037708154E+03  0.00000000000E+00 0.  1.
         13   -1    0    0    0    0 -0.00000000000E+00 -0.00000000000E+00 -0.27500000000E+03  0.27500000000E+03  0.00000000000E+00 0.  1.
    9000005    2    1    2  501    0 -0.20729141107E+02 -0.23365523542E+02 -0.62057473550E+02  0.47380425635E+03  0.46868294009E+03 0.  0.
         13    1    3    3    0    0 -0.16351884739E+03 -0.85354995713E+02 -0.19549174809E+03  0.26877669600E+03  0.00000000000E+00 0.  1.
          1    1    3    3  501    0  0.14278970628E+03  0.61989472171E+02  0.13343427454E+03  0.20502756034E+03  0.00000000000E+00 0.  1.
         21    1    1    2  502  501  0.20729141107E+02  0.23365523542E+02  0.27434555090E+02  0.41572825192E+02  0.00000000000E+00 0.  1.
<scales pt_clust_4="550.00000" pt_clust_5="550.00000" pt_clust_6="31.23532"></scales>
<mgrwt>
<rscale>  0 0.30000000E+03</rscale>
<asrwt>  1 0.31235316E+02</asrwt>
<pdfrwt beam="1">  1        1 0.87409848E+00 0.30000000E+03</pdfrwt>
<pdfrwt beam="2">0</pdfrwt>
<totfact> 0.23488087E-04</totfact>
</mgrwt>
<clustering>
<clus scale="   31.235">  1  6  2 -1</clus>
<clus scale="  468.683">  4  5 -1 -1</clus>
<clus scale="  300.000">  1  4  2 -1</clus>
</clustering>
</event>
<event>
 6    1  0.1000035E-011  0.3000000E+03  0.7818608E-02  0.1093470E+00
          1   -1    0    0  502    0  0.00000000000E+00  0.00000000000E+00  0.24083805171E+03  0.24083805171E+03  0.00000000000E+00 0.  1.
         13   -1    0    0    0    0 -0.00000000000E+00 -0.00000000000E+00 -0.27500000000E+03  0.27500000000E+03  0.00000000000E+00 0.  1.
    9000005    2    1    2  501    0 -0.49326951566E+01  0.36810242813E+02 -0.40003511227E+02  0.47824218339E+03  0.47511680627E+03 0.  0.
         13    1    3    3    0    0  0.76863419354E+02 -0.20551705678E+03 -0.31024377082E+00  0.21942046877E+03  0.00000000000E+00 0.  1.
          3    1    3    3  501    0 -0.81796114510E+02  0.24232729959E+03 -0.39693267456E+02  0.25882171462E+03  0.00000000000E+00 0.  1.
         21    1    1    2  502  501  0.49326951566E+01 -0.36810242813E+02  0.58415629359E+01  0.37595868323E+02  0.00000000000E+00 0.  1.
<scales pt_clust_4="550.00000" pt_clust_5="550.00000" pt_clust_6="37.13927"></scales>
<mgrwt>
<rscale>  0 0.30000000E+03</rscale>
<asrwt>  1 0.37139271E+02</asrwt>
<pdfrwt beam="1">  1        1 0.87577473E+00 0.30000000E+03</pdfrwt>
<pdfrwt beam="2">0</pdfrwt>
<totfact> 0.21826621E-04</totfact>
</mgrwt>
<clustering>
<clus scale="   37.139">  1  6  2 -1</clus>
<clus scale="  475.117">  4  5 -1 -1</clus>
<clus scale="  300.000">  1  4  2 -1</clus>
</clustering>
</event>
<event>
 6    1  0.1000035E-011  0.3000000E+03  0.7818608E-02  0.1093470E+00
          1   -1    0    0  502    0  0.00000000000E+00  0.00000000000E+00  0.22459009873E+03  0.22459009873E+03  0.00000000000E+00 0.  1.
         13   -1    0    0    0    0 -0.00000000000E+00 -0.00000000000E+00 -0.27500000000E+03  0.27500000000E+03  0.00000000000E+00 0.  1.
    9000005    2    1    2  501    0 -0.30370766147E+02 -0.61374738963E+01 -0.62370713923E+02  0.46637695281E+03  0.46114781159E+03 0.  0.
         13    1    3    3    0    0  0.88294343784E+02 -0.18551451001E+03 -0.12732269932E+03  0.24170766295E+03  0.00000000000E+00 0.  1.
          3    1    3    3  501    0 -0.11866510993E+03  0.17937703611E+03  0.64951985394E+02  0.22466928986E+03  0.00000000000E+00 0.  1.
         21    1    1    2  502  501  0.30370766147E+02  0.61374738963E+01  0.11960812650E+02  0.33213145913E+02  0.00000000000E+00 0.  1.
<scales pt_clust_4="550.00000" pt_clust_5="550.00000" pt_clust_6="30.98471"></scales>
<mgrwt>
<rscale>  0 0.30000000E+03</rscale>
<asrwt>  1 0.30984706E+02</asrwt>
<pdfrwt beam="1">  1        1 0.81669127E+00 0.30000000E+03</pdfrwt>
<pdfrwt beam="2">0</pdfrwt>
<totfact> 0.78917672E-04</totfact>
</mgrwt>
<clustering>
<clus scale="   30.985">  1  6  2 -1</clus>
<clus scale="  461.148">  4  5 -1 -1</clus>
<clus scale="  300.000">  1  4  2 -1</clus>
</clustering>
</event>
<event>
 6    1  0.1000035E-011  0.3000000E+03  0.7818608E-02  0.1093470E+00
          1   -1    0    0  502    0  0.00000000000E+00  0.00000000000E+00  0.22463059278E+03  0.22463059278E+03  0.00000000000E+00 0.  1.
         13   -1    0    0    0    0 -0.00000000000E+00 -0.00000000000E+00 -0.27500000000E+03  0.27500000000E+03  0.00000000000E+00 0.  1.
    9000005    2    1    2  501    0  0.22050808294E+02 -0.22214599210E+02 -0.67139769984E+02  0.46412043041E+03  0.45817059993E+03 0.  0.
         13    1    3    3    0    0  0.17942258476E+03  0.13640149819E+03  0.15434443004E+02  0.22591160808E+03  0.00000000000E+00 0.  1.
          1    1    3    3  501    0 -0.15737177647E+03 -0.15861609740E+03 -0.82574212988E+02  0.23820882233E+03  0.00000000000E+00 0.  1.
         21    1    1    2  502  501 -0.22050808294E+02  0.22214599210E+02  0.16770362761E+02  0.35510162371E+02  0.00000000000E+00 0.  1.
<scales pt_clust_4="550.00000" pt_clust_5="550.00000" pt_clust_6="31.30058"></scales>
<mgrwt>
<rscale>  0 0.30000000E+03</rscale>
<asrwt>  1 0.31300584E+02</asrwt>
<pdfrwt beam="1">  1        1 0.81683852E+00 0.30000000E+03</pdfrwt>
<pdfrwt beam="2">0</pdfrwt>
<totfact> 0.78545712E-04</totfact>
</mgrwt>
<clustering>
<clus scale="   31.301">  1  6  2 -1</clus>
<clus scale="  458.171">  4  5 -1 -1</clus>
<clus scale="  300.000">  1  4  2 -1</clus>
</clustering>
</event>
<event>
 6    1  0.1000035E-011  0.3000000E+03  0.7818608E-02  0.1093470E+00
          1   -1    0    0  502    0  0.00000000000E+00  0.00000000000E+00  0.23389597679E+03  0.23389597679E+03  0.00000000000E+00 0.  1.
         13   -1    0    0    0    0 -0.00000000000E+00 -0.00000000000E+00 -0.27500000000E+03  0.27500000000E+03  0.00000000000E+00 0.  1.
    9000005    2    1    2  501    0  0.32437341525E+02 -0.34366063381E+01 -0.56870649544E+02  0.47266645990E+03  0.46809755409E+03 0.  0.
         13    1    3    3    0    0  0.24480931251E+03 -0.44599927314E+02 -0.61371539987E+02  0.25629517929E+03  0.00000000000E+00 0.  1.
          3    1    3    3  501    0 -0.21237197099E+03  0.41163320976E+02  0.45008904427E+01  0.21637128060E+03  0.00000000000E+00 0.  1.
         21    1    1    2  502  501 -0.32437341525E+02  0.34366063381E+01  0.15766626335E+02  0.36229516893E+02  0.00000000000E+00 0.  1.
<scales pt_clust_4="550.00000" pt_clust_5="550.00000" pt_clust_6="32.61888"></scales>
<mgrwt>
<rscale>  0 0.30000000E+03</rscale>
<asrwt>  1 0.32618881E+02</asrwt>
<pdfrwt beam="1">  1        1 0.85053082E+00 0.30000000E+03</pdfrwt>
<pdfrwt beam="2">0</pdfrwt>
<totfact> 0.40770403E-04</totfact>
</mgrwt>
<clustering>
<clus scale="   32.619">  1  6  2 -1</clus>
<clus scale="  468.098">  4  5 -1 -1</clus>
<clus scale="  300.000">  1  4  2 -1</clus>
</clustering>
</event>
<event>
 6    1  0.1000035E-011  0.3000000E+03  0.7818608E-02  0.1093470E+00
          1   -1    0    0  502    0  0.00000000000E+00  0.00000000000E+00  0.23379037390E+03  0.23379037390E+03  0.00000000000E+00 0.  1.
         13   -1    0    0    0    0 -0.00000000000E+00 -0.00000000000E+00 -0.27500000000E+03  0.27500000000E+03  0.00000000000E+00 0.  1.
    9000005    2    1    2  501    0  0.26993209047E+02  0.26241181364E+02 -0.34987578530E+02  0.47063350283E+03  0.46781890770E+03 0.  0.
         13    1    3    3    0    0 -0.19226250638E+03 -0.10838986345E+02  0.93228256800E+02  0.21394827144E+03  0.00000000000E+00 0.  1.
          3    1    3    3  501    0  0.21925571543E+03  0.37080167708E+02 -0.12821583533E+03  0.25668523139E+03  0.00000000000E+00 0.  1.
         21    1    1    2  502  501 -0.26993209047E+02 -0.26241181364E+02 -0.62220475688E+01  0.38156871071E+02  0.00000000000E+00 0.  1.
<scales pt_clust_4="550.00000" pt_clust_5="550.00000" pt_clust_6="37.64617"></scales>
<mgrwt>
<rscale>  0 0.30000000E+03</rscale>
<asrwt>  1 0.37646173E+02</asrwt>
<pdfrwt beam="1">  1        1 0.85014681E+00 0.30000000E+03</pdfrwt>
<pdfrwt beam="2">0</pdfrwt>
<totfact> 0.40023942E-04</totfact>
</mgrwt>
<clustering>
<clus scale="   37.646">  1  6  2 -1</clus>
<clus scale="  467.819">  4  5 -1 -1</clus>
<clus scale="  300.000">  1  4  2 -1</clus>
</clustering>
</event>
<event>
 6    1  0.1000035E-011  0.3000000E+03  0.7818608E-02  0.1093470E+00
          1   -1    0    0  502    0  0.00000000000E+00  0.00000000000E+00  0.22833823856E+03  0.22833823856E+03  0.00000000000E+00 0.  1.
         13   -1    0    0    0    0 -0.00000000000E+00 -0.00000000000E+00 -0.27500000000E+03  0.27500000000E+03  0.00000000000E+00 0.  1.
    9000005    2    1    2  501    0  0.21242083878E+02 -0.25299602689E+02 -0.49122259988E+02  0.47021196384E+03  0.46647079060E+03 0.  0.
         13    1    3    3    0    0 -0.10711125409E+03 -0.21395445872E+03 -0.31889534493E+02  0.24138407895E+03  0.00000000000E+00 0.  1.
          3    1    3    3  501    0  0.12835333797E+03  0.18865485604E+03 -0.17232725495E+02  0.22882788489E+03  0.00000000000E+00 0.  1.
         21    1    1    2  502  501 -0.21242083878E+02  0.25299602689E+02  0.24604985434E+01  0.33126274719E+02  0.00000000000E+00 0. -1.
<scales pt_clust_4="550.00000" pt_clust_5="550.00000" pt_clust_6="33.03477"></scales>
<mgrwt>
<rscale>  0 0.30000000E+03</rscale>
<asrwt>  1 0.33034770E+02</asrwt>
<pdfrwt beam="1">  1        1 0.83032087E+00 0.30000000E+03</pdfrwt>
<pdfrwt beam="2">0</pdfrwt>
<totfact> 0.59385678E-04</totfact>
</mgrwt>
<clustering>
<clus scale="   33.035">  1  6  2 -1</clus>
<clus scale="  466.471">  4  5 -1 -1</clus>
<clus scale="  300.000">  1  4  2 -1</clus>
</clustering>
</event>
<event>
 6    1  0.1000035E-011  0.3000000E+03  0.7818608E-02  0.1093470E+00
          1   -1    0    0  502    0  0.00000000000E+00  0.00000000000E+00  0.22509820548E+03  0.22509820548E+03  0.00000000000E+00 0.  1.
         13   -1    0    0    0    0 -0.00000000000E+00 -0.00000000000E+00 -0.27500000000E+03  0.27500000000E+03  0.00000000000E+00 0.  1.
    9000005    2    1    2  501    0 -0.86098031152E+01  0.31374828388E+02 -0.64111650623E+02  0.46459569041E+03  0.45899928457E+03 0.  0.
         13    1    3    3    0    0  0.24491767880E+01  0.21861811558E+03 -0.14285754883E+03  0.26116691633E+03  0.00000000000E+00 0.  1.
          3    1    3    3  501    0 -0.11058979903E+02 -0.18724328719E+03  0.78745898211E+02  0.20342877407E+03  0.00000000000E+00 0.  1.
         21    1    1    2  502  501  0.86098031152E+01 -0.31374828388E+02  0.14209856100E+02  0.35502515072E+02  0.00000000000E+00 0. -1.
<scales pt_clust_4="550.00000" pt_clust_5="550.00000" pt_clust_6="32.53473"></scales>
<mgrwt>
<rscale>  0 0.30000000E+03</rscale>
<asrwt>  1 0.32534729E+02</asrwt>
<pdfrwt beam="1">  1        1 0.81853893E+00 0.30000000E+03</pdfrwt>
<pdfrwt beam="2">0</pdfrwt>
<totfact> 0.75472440E-04</totfact>
</mgrwt>
<clustering>
<clus scale="   32.535">  1  6  2 -1</clus>
<clus scale="  458.999">  4  5 -1 -1</clus>
<clus scale="  300.000">  1  4  2 -1</clus>
</clustering>
</event>
<event>
 6    1  0.1000035E-011  0.3000000E+03  0.7818608E-02  0.1093470E+00
          1   -1    0    0  502    0  0.00000000000E+00  0.00000000000E+00  0.22657033204E+03  0.22657033204E+03  0.00000000000E+00 0.  1.
         13   -1    0    0    0    0 -0.00000000000E+00 -0.00000000000E+00 -0.27500000000E+03  0.27500000000E+03  0.00000000000E+00 0.  1.
    9000005    2    1    2  501    0  0.35051462076E+02 -0.19269201551E+02 -0.50796180302E+02  0.46150154739E+03  0.45695023711E+03 0.  0.
         13    1    3    3    0    0 -0.48320207470E+02  0.20763764208E+03  0.56481124809E+01  0.21326071845E+03  0.00000000000E+00 0.  1.
          1    1    3    3  501    0  0.83371669546E+02 -0.22690684363E+03 -0.56444292783E+02  0.24824082895E+03  0.00000000000E+00 0.  1.
         21    1    1    2  502  501 -0.35051462076E+02  0.19269201551E+02  0.23665123390E+01  0.40068784642E+02  0.00000000000E+00 0.  1.
<scales pt_clust_4="550.00000" pt_clust_5="550.00000" pt_clust_6="39.99884"></scales>
<mgrwt>
<rscale>  0 0.30000000E+03</rscale>
<asrwt>  1 0.39998839E+02</asrwt>
<pdfrwt beam="1">  1        1 0.82389212E+00 0.30000000E+03</pdfrwt>
<pdfrwt beam="2">0</pdfrwt>
<totfact> 0.65194960E-04</totfact>
</mgrwt>
<clustering>
<clus scale="   39.999">  1  6  2 -1</clus>
<clus scale="  456.950">  4  5 -1 -1</clus>
<clus scale="  300.000">  1  4  2 -1</clus>
</clustering>
</event>
<event>
 6    1  0.1000035E-011  0.3000000E+03  0.7818608E-02  0.1093470E+00
          1   -1    0    0  502    0  0.00000000000E+00  0.00000000000E+00  0.23364343073E+03  0.23364343073E+03  0.00000000000E+00 0.  1.
         13   -1    0    0    0    0 -0.00000000000E+00 -0.00000000000E+00 -0.27500000000E+03  0.27500000000E+03  0.00000000000E+00 0.  1.
    9000005    2    1    2  501    0  0.32908285913E+02  0.10432622912E+02 -0.42380339225E+02  0.47410587135E+03  0.47094425275E+03 0.  0.
         13    1    3    3    0    0  0.52884215322E+02 -0.22137600503E+03 -0.73925225414E+02  0.23930945403E+03  0.00000000000E+00 0.  1.
          1    1    3    3  501    0 -0.19975929409E+02  0.23180862794E+03  0.31544886189E+02  0.23479641733E+03  0.00000000000E+00 0.  1.
         21    1    1    2  502  501 -0.32908285913E+02 -0.10432622912E+02  0.10237699534E+01  0.34537559374E+02  0.00000000000E+00 0.  1.
<scales pt_clust_4="550.00000" pt_clust_5="550.00000" pt_clust_6="34.52238"></scales>
<mgrwt>
<rscale>  0 0.30000000E+03</rscale>
<asrwt>  1 0.34522383E+02</asrwt>
<pdfrwt beam="1">  1        1 0.84961248E+00 0.30000000E+03</pdfrwt>
<pdfrwt beam="2">0</pdfrwt>
<totfact> 0.41145848E-04</totfact>
</mgrwt>
<clustering>
<clus scale="   34.522">  1  6  2 -1</clus>
<clus scale="  470.944">  4  5 -1 -1</clus>
<clus scale="  300.000">  1  4  2 -1</clus>
</clustering>
</event>
<event>
 6    1  0.1000035E-011  0.3000000E+03  0.7818608E-02  0.1093470E+00
          1   -1    0    0  502    0  0.00000000000E+00  0.00000000000E+00  0.22536059386E+03  0.22536059386E+03  0.00000000000E+00 0.  1.
         13   -1    0    0    0    0 -0.00000000000E+00 -0.00000000000E+00 -0.27500000000E+03  0.27500000000E+03  0.00000000000E+00 0.  1.
    9000005    2    1    2  501    0 -0.10755322335E+02  0.28707725700E+02 -0.51501167351E+02  0.46964778500E+03  0.46580775138E+03 0.  0.
         13    1    3    3    0    0  0.76787577591E+02 -0.11653662481E+03 -0.20023945247E+03  0.24407571637E+03  0.00000000000E+00 0.  1.
          3    1    3    3  501    0 -0.87542899926E+02  0.14524435051E+03  0.14873828512E+03  0.22557206863E+03  0.00000000000E+00 0.  1.
         21    1    1    2  502  501  0.10755322335E+02 -0.28707725700E+02  0.18617612109E+01  0.30712808862E+02  0.00000000000E+00 0. -1.
<scales pt_clust_4="550.00000" pt_clust_5="550.00000" pt_clust_6="30.65633"></scales>
<mgrwt>
<rscale>  0 0.30000000E+03</rscale>
<asrwt>  1 0.30656328E+02</asrwt>
<pdfrwt beam="1">  1        1 0.81949307E+00 0.30000000E+03</pdfrwt>
<pdfrwt beam="2">0</pdfrwt>
<totfact> 0.74917563E-04</totfact>
</mgrwt>
<clustering>
<clus scale="   30.656">  1  6  2 -1</clus>
<clus scale="  465.808">  4  5 -1 -1</clus>
<clus scale="  300.000">  1  4  2 -1</clus>
</clustering>
</event>
<event>
 6    1  0.1000035E-011  0.3000000E+03  0.7818608E-02  0.1093470E+00
          1   -1    0    0  502    0  0.00000000000E+00  0.00000000000E+00  0.26528945759E+03  0.26528945759E+03  0.00000000000E+00 0.  1.
         13   -1    0    0    0    0 -0.00000000000E+00 -0.00000000000E+00 -0.27500000000E+03  0.27500000000E+03  0.00000000000E+00 0.  1.
    9000005    2    1    2  501    0 -0.43688342961E+02 -0.21653202006E+00 -0.72348947480E+02  0.46392003972E+03  0.45615645874E+03 0.  0.
         13    1    3    3    0    0 -0.46955656742E+02  0.19009140331E+03  0.88353039412E+02  0.21481581619E+03  0.00000000000E+00 0.  1.
          1    1    3    3  501    0  0.32673137817E+01 -0.19030793533E+03 -0.16070198689E+03  0.24910422353E+03  0.00000000000E+00 0.  1.
         21    1    1    2  502  501  0.43688342961E+02  0.21653202006E+00  0.62638405069E+02  0.76369417873E+02  0.00000000000E+00 0.  1.
<scales pt_clust_4="550.00000" pt_clust_5="550.00000" pt_clust_6="43.68888"></scales>
<mgrwt>
<rscale>  0 0.30000000E+03</rscale>
<asrwt>  1 0.43688880E+02</asrwt>
<pdfrwt beam="1">  1        1 0.96468894E+00 0.30000000E+03</pdfrwt>
<pdfrwt beam="2">0</pdfrwt>
<totfact> 0.57961232E-06</totfact>
</mgrwt>
<clustering>
<clus scale="   43.689">  1  6  2 -1</clus>
<clus scale="  456.156">  4  5 -1 -1</clus>
<clus scale="  300.000">  1  4  2 -1</clus>
</clustering>
</event>
<event>
 6    1  0.1000035E-011  0.3000000E+03  0.7818608E-02  0.1093470E+00
          1   -1    0    0  502    0  0.00000000000E+00  0.00000000000E+00  0.24873974925E+03  0.24873974925E+03  0.00000000000E+00 0.  1.
         13   -1    0    0    0    0 -0.00000000000E+00 -0.00000000000E+00 -0.27500000000E+03  0.27500000000E+03  0.00000000000E+00 0.  1.
    9000005    2    1    2  501    0 -0.14694320080E+02  0.54722296855E+02 -0.46293771063E+02  0.46364154003E+03  0.45783175030E+03 0.  0.
         13    1    3    3    0    0  0.17432227989E+03 -0.44517547170E+02  0.99046952781E+02  0.20537859705E+03  0.00000000000E+00 0.  1.
          1    1    3    3  501    0 -0.18901659997E+03  0.99239844024E+02 -0.14534072384E+03  0.25826294298E+03  0.00000000000E+00 0.  1.
         21    1    1    2  502  501  0.14694320080E+02 -0.54722296855E+02  0.20033520317E+02  0.60098209224E+02  0.00000000000E+00 0.  1.
<scales pt_clust_4="550.00000" pt_clust_5="550.00000" pt_clust_6="56.66086"></scales>
<mgrwt>
<rscale>  0 0.30000000E+03</rscale>
<asrwt>  1 0.56660858E+02</asrwt>
<pdfrwt beam="1">  1        1 0.90450818E+00 0.30000000E+03</pdfrwt>
<pdfrwt beam="2">0</pdfrwt>
<totfact> 0.86623675E-05</totfact>
</mgrwt>
<clustering>
<clus scale="   56.661">  1  6  2 -1</clus>
<clus scale="  457.832">  4  5 -1 -1</clus>
<clus scale="  300.000">  1  4  2 -1</clus>
</clustering>
</event>
<event>
 6    1  0.1000035E-011  0.3000000E+03  0.7818608E-02  0.1093470E+00
          1   -1    0    0  502    0  0.00000000000E+00  0.00000000000E+00  0.22942677620E+03  0.22942677620E+03  0.00000000000E+00 0.  1.
         13   -1    0    0    0    0 -0.00000000000E+00 -0.00000000000E+00 -0.27500000000E+03  0.27500000000E+03  0.00000000000E+00 0.  1.
    9000005    2    1    2  501    0  0.78597939301E+01  0.35504850208E+02 -0.48996661912E+02  0.46790157015E+03  0.46390606346E+03 0.  0.
         13    1    3    3    0    0 -0.33126369307E+02  0.81467147434E+02 -0.24613175642E+03  0.26137156305E+03  0.00000000000E+00 0.  1.
          1    1    3    3  501    0  0.40986163237E+02 -0.45962297226E+02  0.19713509451E+03  0.20653000709E+03  0.00000000000E+00 0.  1.
         21    1    1    2  502  501 -0.78597939301E+01 -0.35504850208E+02  0.34234381147E+01  0.36525206056E+02  0.00000000000E+00 0. -1.
<scales pt_clust_4="550.00000" pt_clust_5="550.00000" pt_clust_6="36.36442"></scales>
<mgrwt>
<rscale>  0 0.30000000E+03</rscale>
<asrwt>  1 0.36364416E+02</asrwt>
<pdfrwt beam="1">  1        1 0.83427919E+00 0.30000000E+03</pdfrwt>
<pdfrwt beam="2">0</pdfrwt>
<totfact> 0.54372221E-04</totfact>
</mgrwt>
<clustering>
<clus scale="   36.364">  1  6  2 -1</clus>
<clus scale="  463.906">  4  5 -1 -1</clus>
<clus scale="  300.000">  1  4  2 -1</clus>
</clustering>
</event>
<event>
 6    1  0.1000035E-011  0.3000000E+03  0.7818608E-02  0.1093470E+00
          1   -1    0    0  502    0  0.00000000000E+00  0.00000000000E+00  0.25838255047E+03  0.25838255047E+03  0.00000000000E+00 0.  1.
         13   -1    0    0    0    0 -0.00000000000E+00 -0.00000000000E+00 -0.27500000000E+03  0.27500000000E+03  0.00000000000E+00 0.  1.
    9000005    2    1    2  501    0 -0.37150991236E+02  0.18659906464E+02 -0.11665889389E+02  0.49151482774E+03  0.48961448575E+03 0.  0.
         13    1    3    3    0    0 -0.63507412438E+02  0.22308022172E+03  0.10507855410E+03  0.25463597407E+03  0.00000000000E+00 0.  1.
          3    1    3    3  501    0  0.26356421202E+02 -0.20442031526E+03 -0.11674444349E+03  0.23687885367E+03  0.00000000000E+00 0.  1.
         21    1    1    2  502  501  0.37150991236E+02 -0.18659906464E+02 -0.49515601360E+01  0.41867722733E+02  0.00000000000E+00 0.  1.
<scales pt_clust_4="550.00000" pt_clust_5="550.00000" pt_clust_6="41.57391"></scales>
<mgrwt>
<rscale>  0 0.30000000E+03</rscale>
<asrwt>  1 0.41573910E+02</asrwt>
<pdfrwt beam="1">  1        1 0.93957291E+00 0.30000000E+03</pdfrwt>
<pdfrwt beam="2">0</pdfrwt>
<totfact> 0.18868307E-05</totfact>
</mgrwt>
<clustering>
<clus scale="   41.574">  1  6  2 -1</clus>
<clus scale="  489.614">  4  5 -1 -1</clus>
<clus scale="  300.000">  1  4  2 -1</clus>
</clustering>
</event>
<event>
 6    1  0.1000035E-011  0.3000000E+03  0.7818608E-02  0.1093470E+00
          1   -1    0    0  502    0  0.00000000000E+00  0.00000000000E+00  0.22726426524E+03  0.22726426524E+03  0.00000000000E+00 0.  1.
         13   -1    0    0    0    0 -0.00000000000E+00 -0.00000000000E+00 -0.27500000000E+03  0.27500000000E+03  0.00000000000E+00 0.  1.
    9000005    2    1    2  501    0  0.20458943136E+02  0.32795284827E+02 -0.59051303531E+02  0.46198845168E+03  0.45656562943E+03 0.  0.
         13    1    3    3    0    0  0.12126134331E+03 -0.44690315941E+02 -0.22104923902E+03  0.25605527488E+03  0.00000000000E+00 0.  1.
          3    1    3    3  501    0 -0.10080240017E+03  0.77485600768E+02  0.16199793549E+03  0.20593317681E+03  0.00000000000E+00 0.  1.
         21    1    1    2  502  501 -0.20458943136E+02 -0.32795284827E+02  0.11315568772E+02  0.40275813558E+02  0.00000000000E+00 0.  1.
<scales pt_clust_4="550.00000" pt_clust_5="550.00000" pt_clust_6="38.65358"></scales>
<mgrwt>
<rscale>  0 0.30000000E+03</rscale>
<asrwt>  1 0.38653578E+02</asrwt>
<pdfrwt beam="1">  1        1 0.82641551E+00 0.30000000E+03</pdfrwt>
<pdfrwt beam="2">0</pdfrwt>
<totfact> 0.62294057E-04</totfact>
</mgrwt>
<clustering>
<clus scale="   38.654">  1  6  2 -1</clus>
<clus scale="  456.566">  4  5 -1 -1</clus>
<clus scale="  300.000">  1  4  2 -1</clus>
</clustering>
</event>
<event>
 6    1  0.1000035E-011  0.3000000E+03  0.7818608E-02  0.1093470E+00
          1   -1    0    0  502    0  0.00000000000E+00  0.00000000000E+00  0.23024508483E+03  0.23024508483E+03  0.00000000000E+00 0.  1.
         13   -1    0    0    0    0 -0.00000000000E+00 -0.00000000000E+00 -0.27500000000E+03  0.27500000000E+03  0.00000000000E+00 0.  1.
    9000005    2    1    2  501    0 -0.28960861586E+01 -0.38864269282E+02 -0.31416417409E+02  0.46405365048E+03  0.46134583611E+03 0.  0.
         13    1    3    3    0    0 -0.16527105407E+03 -0.18182865042E+03 -0.20333372929E+01  0.24572406046E+03  0.00000000000E+00 0.  1.
          3    1    3    3  501    0  0.16237496791E+03  0.14296438114E+03 -0.29383080116E+02  0.21832959002E+03  0.00000000000E+00 0.  1.
         21    1    1    2  502  501  0.28960861586E+01  0.38864269282E+02 -0.13338497757E+02  0.41191434356E+02  0.00000000000E+00 0.  1.
<scales pt_clust_4="550.00000" pt_clust_5="550.00000" pt_clust_6="38.97204"></scales>
<mgrwt>
<rscale>  0 0.30000000E+03</rscale>
<asrwt>  1 0.38972045E+02</asrwt>
<pdfrwt beam="1">  1        1 0.83725485E+00 0.30000000E+03</pdfrwt>
<pdfrwt beam="2">0</pdfrwt>
<totfact> 0.51069165E-04</totfact>
</mgrwt>
<clustering>
<clus scale="   38.972">  1  6  2 -1</clus>
<clus scale="  461.346">  4  5 -1 -1</clus>
<clus scale="  300.000">  1  4  2 -1</clus>
</clustering>
</event>
<event>
 6    1  0.1000035E-011  0.3000000E+03  0.7818608E-02  0.1093470E+00
          1   -1    0    0  502    0  0.00000000000E+00  0.00000000000E+00  0.24877876546E+03  0.24877876546E+03  0.00000000000E+00 0.  1.
         13   -1    0    0    0    0 -0.00000000000E+00 -0.00000000000E+00 -0.27500000000E+03  0.27500000000E+03  0.00000000000E+00 0.  1.
    9000005    2    1    2  501    0  0.20246660785E+02 -0.37550788453E+02 -0.72157955525E+01  0.47707549258E+03  0.47510942838E+03 0.  0.
         13    1    3    3    0    0  0.10914436576E+03 -0.21727461059E+03  0.83385078359E+02  0.25704828394E+03  0.00000000000E+00 0.  1.
          1    1    3    3  501    0 -0.88897704972E+02  0.17972382213E+03 -0.90600873911E+02  0.22002720865E+03  0.00000000000E+00 0.  1.
         21    1    1    2  502  501 -0.20246660785E+02  0.37550788453E+02 -0.19005438987E+02  0.46703272878E+02  0.00000000000E+00 0. -1.
<scales pt_clust_4="550.00000" pt_clust_5="550.00000" pt_clust_6="42.66135"></scales>
<mgrwt>
<rscale>  0 0.30000000E+03</rscale>
<asrwt>  1 0.42661350E+02</asrwt>
<pdfrwt beam="1">  1        1 0.90465006E+00 0.30000000E+03</pdfrwt>
<pdfrwt beam="2">0</pdfrwt>
<totfact> 0.90514612E-05</totfact>
</mgrwt>
<clustering>
<clus scale="   42.661">  1  6  2 -1</clus>
<clus scale="  475.109">  4  5 -1 -1</clus>
<clus scale="  300.000">  1  4  2 -1</clus>
</clustering>
</event>
<event>
 6    1  0.1000035E-011  0.3000000E+03  0.7818608E-02  0.1093470E+00
          1   -1    0    0  502    0  0.00000000000E+00  0.00000000000E+00  0.24606802900E+03  0.24606802900E+03  0.00000000000E+00 0.  1.
         13   -1    0    0    0    0 -0.00000000000E+00 -0.00000000000E+00 -0.27500000000E+03  0.27500000000E+03  0.00000000000E+00 0.  1.
    9000005    2    1    2  501    0  0.18122352575E+02 -0.31013040778E+02 -0.57498417856E+02  0.47517390904E+03  0.47031260605E+03 0.  0.
         13    1    3    3    0    0 -0.35415259906E+02 -0.13192669170E+03  0.17150728565E+03  0.21925702189E+03  0.00000000000E+00 0.  1.
          3    1    3    3  501    0  0.53537612481E+02  0.10091365092E+03 -0.22900570350E+03  0.25591688715E+03  0.00000000000E+00 0.  1.
         21    1    1    2  502  501 -0.18122352575E+02  0.31013040778E+02  0.28566446855E+02  0.45894119962E+02  0.00000000000E+00 0. -1.
<scales pt_clust_4="550.00000" pt_clust_5="550.00000" pt_clust_6="35.91975"></scales>
<mgrwt>
<rscale>  0 0.30000000E+03</rscale>
<asrwt>  1 0.35919749E+02</asrwt>
<pdfrwt beam="1">  1        1 0.89479283E+00 0.30000000E+03</pdfrwt>
<pdfrwt beam="2">0</pdfrwt>
<totfact> 0.12615789E-04</totfact>
</mgrwt>
<clustering>
<clus scale="   35.920">  1  6  2 -1</clus>
<clus scale="  470.313">  4  5 -1 -1</clus>
<clus scale="  300.000">  1  4  2 -1</clus>
</clustering>
</event>
<event>
 6    1  0.1000035E-011  0.3000000E+03  0.7818608E-02  0.1093470E+00
          1   -1    0    0  502    0  0.00000000000E+00  0.00000000000E+00  0.25718661779E+03  0.25718661779E+03  0.00000000000E+00 0.  1.
         13   -1    0    0    0    0 -0.00000000000E+00 -0.00000000000E+00 -0.27500000000E+03  0.27500000000E+03  0.00000000000E+00 0.  1.
    9000005    2    1    2  501    0 -0.19271218940E+02  0.23004035507E+02 -0.44716210899E+02  0.49188366851E+03  0.48892682306E+03 0.  0.
         13    1    3    3    0    0  0.16678851911E+03  0.17809705495E+03 -0.52290393690E+02  0.24954209336E+03  0.00000000000E+00 0.  1.
          3    1    3    3  501    0 -0.18605973805E+03 -0.15509301944E+03  0.75741827911E+01  0.24234157515E+03  0.00000000000E+00 0.  1.
         21    1    1    2  502  501  0.19271218940E+02 -0.23004035507E+02  0.26902828693E+02  0.40302949281E+02  0.00000000000E+00 0.  1.
<scales pt_clust_4="550.00000" pt_clust_5="550.00000" pt_clust_6="30.00942"></scales>
<mgrwt>
<rscale>  0 0.30000000E+03</rscale>
<asrwt>  1 0.30009424E+02</asrwt>
<pdfrwt beam="1">  1        1 0.93522406E+00 0.30000000E+03</pdfrwt>
<pdfrwt beam="2">0</pdfrwt>
<totfact> 0.23047491E-05</totfact>
</mgrwt>
<clustering>
<clus scale="   30.009">  1  6  2 -1</clus>
<clus scale="  488.927">  4  5 -1 -1</clus>
<clus scale="  300.000">  1  4  2 -1</clus>
</clustering>
</event>
<event>
 6    1  0.1000035E-011  0.3000000E+03  0.7818608E-02  0.1093470E+00
          1   -1    0    0  502    0  0.00000000000E+00  0.00000000000E+00  0.23178462586E+03  0.23178462586E+03  0.00000000000E+00 0.  1.
         13   -1    0    0    0    0 -0.00000000000E+00 -0.00000000000E+00 -0.27500000000E+03  0.27500000000E+03  0.00000000000E+00 0.  1.
    9000005    2    1    2  501    0  0.17668143603E+02  0.33772033324E+02 -0.53884987818E+02  0.46720490645E+03  0.46251931761E+03 0.  0.
         13    1    3    3    0    0 -0.33228424293E+02  0.23386162104E+03 -0.98588772109E+02  0.25595923887E+03  0.00000000000E+00 0.  1.
          1    1    3    3  501    0  0.50896567896E+02 -0.20008958772E+03  0.44703784291E+02  0.21124566757E+03  0.00000000000E+00 0.  1.
         21    1    1    2  502  501 -0.17668143603E+02 -0.33772033324E+02  0.10669613683E+02  0.39579719419E+02  0.00000000000E+00 0. -1.
<scales pt_clust_4="550.00000" pt_clust_5="550.00000" pt_clust_6="38.11448"></scales>
<mgrwt>
<rscale>  0 0.30000000E+03</rscale>
<asrwt>  1 0.38114479E+02</asrwt>
<pdfrwt beam="1">  1        1 0.84285318E+00 0.30000000E+03</pdfrwt>
<pdfrwt beam="2">0</pdfrwt>
<totfact> 0.46398465E-04</totfact>
</mgrwt>
<clustering>
<clus scale="   38.114">  1  6  2 -1</clus>
<clus scale="  462.519">  4  5 -1 -1</clus>
<clus scale="  300.000">  1  4  2 -1</clus>
</clustering>
</event>
<event>
 6    1  0.1000035E-011  0.3000000E+03  0.7818608E-02  0.1093470E+00
          1   -1    0    0  502    0  0.00000000000E+00  0.00000000000E+00  0.23201972218E+03  0.23201972218E+03  0.00000000000E+00 0.  1.
         13   -1    0    0    0    0 -0.00000000000E+00 -0.00000000000E+00 -0.27500000000E+03  0.27500000000E+03  0.00000000000E+00 0.  1.
    9000005    2    1    2  501    0 -0.60434159800E+01  0.31425925358E+02 -0.72536047087E+02  0.46345763823E+03  0.45662609720E+03 0.  0.
         13    1    3    3    0    0 -0.86341298131E+02 -0.16280645459E+02 -0.24886469478E+03  0.26391952464E+03  0.00000000000E+00 0.  1.
          3    1    3    3  501    0  0.80297882151E+02  0.47706570817E+02  0.17632864769E+03  0.19953811359E+03  0.00000000000E+00 0.  1.
         21    1    1    2  502  501  0.60434159800E+01 -0.31425925358E+02  0.29555769269E+02  0.43562083954E+02  0.00000000000E+00 0. -1.
<scales pt_clust_4="550.00000" pt_clust_5="550.00000" pt_clust_6="32.00174"></scales>
<mgrwt>
<rscale>  0 0.30000000E+03</rscale>
<asrwt>  1 0.32001745E+02</asrwt>
<pdfrwt beam="1">  1        1 0.84370808E+00 0.30000000E+03</pdfrwt>
<pdfrwt beam="2">0</pdfrwt>
<totfact> 0.47148388E-04</totfact>
</mgrwt>
<clustering>
<clus scale="   32.002">  1  6  2 -1</clus>
<clus scale="  456.626">  4  5 -1 -1</clus>
<clus scale="  300.000">  1  4  2 -1</clus>
</clustering>
</event>
<event>
 6    1  0.1000035E-011  0.3000000E+03  0.7818608E-02  0.1093470E+00
          1   -1    0    0  502    0  0.00000000000E+00  0.00000000000E+00  0.22891771385E+03  0.22891771385E+03  0.00000000000E+00 0.  1.
         13   -1    0    0    0    0 -0.00000000000E+00 -0.00000000000E+00 -0.27500000000E+03  0.27500000000E+03  0.00000000000E+00 0.  1.
    9000005    2    1    2  501    0 -0.20717563342E+02  0.23796424872E+02 -0.45560435731E+02  0.47236205515E+03  0.46909985139E+03 0.  0.
         13    1    3    3    0    0  0.19553304683E+03 -0.13961347060E+02  0.88564090286E+02  0.21510855330E+03  0.00000000000E+00 0.  1.
          3    1    3    3  501    0 -0.21625061017E+03  0.37757771933E+02 -0.13412452602E+03  0.25725350186E+03  0.00000000000E+00 0.  1.
         21    1    1    2  502  501  0.20717563342E+02 -0.23796424872E+02 -0.52185042412E+00  0.31555658691E+02  0.00000000000E+00 0.  1.
<scales pt_clust_4="550.00000" pt_clust_5="550.00000" pt_clust_6="31.55134"></scales>
<mgrwt>
<rscale>  0 0.30000000E+03</rscale>
<asrwt>  1 0.31551343E+02</asrwt>
<pdfrwt beam="1">  1        1 0.83242805E+00 0.30000000E+03</pdfrwt>
<pdfrwt beam="2">0</pdfrwt>
<totfact> 0.57656714E-04</totfact>
</mgrwt>
<clustering>
<clus scale="   31.551">  1  6  2 -1</clus>
<clus scale="  469.100">  4  5 -1 -1</clus>
<clus scale="  300.000">  1  4  2 -1</clus>
</clustering>
</event>
<event>
 6    1  0.1000035E-011  0.3000000E+03  0.7818608E-02  0.1093470E+00
          1   -1    0    0  502    0  0.00000000000E+00  0.00000000000E+00  0.23324093398E+03  0.23324093398E+03  0.00000000000E+00 0.  1.
         13   -1    0    0    0    0 -0.00000000000E+00 -0.00000000000E+00 -0.27500000000E+03  0.27500000000E+03  0.00000000000E+00 0.  1.
    9000005    2    1    2  501    0 -0.31773490690E+02  0.12626091200E+02 -0.71369776370E+02  0.46301077748E+03  0.45619772270E+03 0.  0.
         13    1    3    3    0    0 -0.91366205776E+02 -0.13988553683E+03 -0.19576958925E+03  0.25737420043E+03  0.00000000000E+00 0.  1.
          1    1    3    3  501    0  0.59592715086E+02  0.15251162803E+03  0.12439981288E+03  0.20563657705E+03  0.00000000000E+00 0.  1.
         21    1    1    2  502  501  0.31773490690E+02 -0.12626091200E+02  0.29610710353E+02  0.45230156502E+02  0.00000000000E+00 0. -1.
<scales pt_clust_4="550.00000" pt_clust_5="550.00000" pt_clust_6="34.19025"></scales>
<mgrwt>
<rscale>  0 0.30000000E+03</rscale>
<asrwt>  1 0.34190246E+02</asrwt>
<pdfrwt beam="1">  1        1 0.84814885E+00 0.30000000E+03</pdfrwt>
<pdfrwt beam="2">0</pdfrwt>
<totfact> 0.42526736E-04</totfact>
</mgrwt>
<clustering>
<clus scale="   34.190">  1  6  2 -1</clus>
<clus scale="  456.198">  4  5 -1 -1</clus>
<clus scale="  300.000">  1  4  2 -1</clus>
</clustering>
</event>
<event>
 6    1  0.1000035E-011  0.3000000E+03  0.7818608E-02  0.1093470E+00
          1   -1    0    0  502    0  0.00000000000E+00  0.00000000000E+00  0.24282908471E+03  0.24282908471E+03  0.00000000000E+00 0.  1.
         13   -1    0    0    0    0 -0.00000000000E+00 -0.00000000000E+00 -0.27500000000E+03  0.27500000000E+03  0.00000000000E+00 0.  1.
    9000005    2    1    2  501    0  0.36317455766E+02 -0.89212991038E+01 -0.36493380674E+02  0.48018295771E+03  0.47733149788E+03 0.  0.
         13    1    3    3    0    0  0.17780191815E+03 -0.14883509696E+03  0.85092846405E+02  0.24699433332E+03  0.00000000000E+00 0.  1.
          3    1    3    3  501    0 -0.14148446239E+03  0.13991379785E+03 -0.12158622708E+03  0.23318862438E+03  0.00000000000E+00 0.  1.
         21    1    1    2  502  501 -0.36317455766E+02  0.89212991038E+01  0.43224653789E+01  0.37646126998E+02  0.00000000000E+00 0.  1.
<scales pt_clust_4="550.00000" pt_clust_5="550.00000" pt_clust_6="37.39715"></scales>
<mgrwt>
<rscale>  0 0.30000000E+03</rscale>
<asrwt>  1 0.37397155E+02</asrwt>
<pdfrwt beam="1">  1        1 0.88301485E+00 0.30000000E+03</pdfrwt>
<pdfrwt beam="2">0</pdfrwt>
<totfact> 0.17832097E-04</totfact>
</mgrwt>
<clustering>
<clus scale="   37.397">  1  6  2 -1</clus>
<clus scale="  477.331">  4  5 -1 -1</clus>
<clus scale="  300.000">  1  4  2 -1</clus>
</clustering>
</event>
<event>
 6    1  0.1000035E-011  0.3000000E+03  0.7818608E-02  0.1093470E+00
          1   -1    0    0  502    0  0.00000000000E+00  0.00000000000E+00  0.21946570703E+03  0.21946570703E+03  0.00000000000E+00 0.  1.
         13   -1    0    0    0    0 -0.00000000000E+00 -0.00000000000E+00 -0.27500000000E+03  0.27500000000E+03  0.00000000000E+00 0.  1.
    9000005    2    1    2  501    0  0.23500051283E+02 -0.21872326107E+02 -0.54558736693E+02  0.46234713344E+03  0.45799297482E+03 0.  0.
         13    1    3    3    0    0 -0.10551768756E+03 -0.20473012006E+03 -0.61694601729E+02  0.23844208590E+03  0.00000000000E+00 0.  1.
          3    1    3    3  501    0  0.12901773884E+03  0.18285779395E+03  0.71358650352E+01  0.22390504754E+03  0.00000000000E+00 0.  1.
         21    1    1    2  502  501 -0.23500051283E+02  0.21872326107E+02 -0.97555627643E+00  0.32118573594E+02  0.00000000000E+00 0. -1.
<scales pt_clust_4="550.00000" pt_clust_5="550.00000" pt_clust_6="32.10375"></scales>
<mgrwt>
<rscale>  0 0.30000000E+03</rscale>
<asrwt>  1 0.32103755E+02</asrwt>
<pdfrwt beam="1">  1        1 0.79805712E+00 0.30000000E+03</pdfrwt>
<pdfrwt beam="2">0</pdfrwt>
<totfact> 0.10887590E-03</totfact>
</mgrwt>
<clustering>
<clus scale="   32.104">  1  6  2 -1</clus>
<clus scale="  457.993">  4  5 -1 -1</clus>
<clus scale="  300.000">  1  4  2 -1</clus>
</clustering>
</event>
<event>
 6    1  0.1000035E-011  0.3000000E+03  0.7818608E-02  0.1093470E+00
          1   -1    0    0  502    0  0.00000000000E+00  0.00000000000E+00  0.22657372984E+03  0.22657372984E+03  0.00000000000E+00 0.  1.
         13   -1    0    0    0    0 -0.00000000000E+00 -0.00000000000E+00 -0.27500000000E+03  0.27500000000E+03  0.00000000000E+00 0.  1.
    9000005    2    1    2  501    0  0.29912374271E+02 -0.16552583893E+02 -0.58737307971E+02  0.46586580818E+03  0.46088191733E+03 0.  0.
         13    1    3    3    0    0  0.12298805460E+03 -0.94393565989E+02 -0.21684449308E+03  0.26656657902E+03  0.00000000000E+00 0.  1.
          1    1    3    3  501    0 -0.93075680327E+02  0.77840982095E+02  0.15810718511E+03  0.19929922916E+03  0.00000000000E+00 0.  1.
         21    1    1    2  502  501 -0.29912374271E+02  0.16552583893E+02  0.10311037808E+02  0.35707921652E+02  0.00000000000E+00 0.  1.
<scales pt_clust_4="550.00000" pt_clust_5="550.00000" pt_clust_6="34.18681"></scales>
<mgrwt>
<rscale>  0 0.30000000E+03</rscale>
<asrwt>  1 0.34186813E+02</asrwt>
<pdfrwt beam="1">  1        1 0.82390447E+00 0.30000000E+03</pdfrwt>
<pdfrwt beam="2">0</pdfrwt>
<totfact> 0.67101084E-04</totfact>
</mgrwt>
<clustering>
<clus scale="   34.187">  1  6  2 -1</clus>
<clus scale="  460.882">  4  5 -1 -1</clus>
<clus scale="  300.000">  1  4  2 -1</clus>
</clustering>
</event>
<event>
 6    1  0.1000035E-011  0.3000000E+03  0.7818608E-02  0.1093470E+00
          1   -1    0    0  502    0  0.00000000000E+00  0.00000000000E+00  0.25400451036E+03  0.25400451036E+03  0.00000000000E+00 0.  1.
         13   -1    0    0    0    0 -0.00000000000E+00 -0.00000000000E+00 -0.27500000000E+03  0.27500000000E+03  0.00000000000E+00 0.  1.
    9000005    2    1    2  501    0 -0.29445727497E+02 -0.31351552873E+02 -0.37796634701E+02  0.48282822629E+03  0.47942104644E+03 0.  0.
         13    1    3    3    0    0  0.16609218770E+03 -0.25105070883E+02  0.13984639709E+03  0.21857240031E+03  0.00000000000E+00 0.  1.
          3    1    3    3  501    0 -0.19553791520E+03 -0.62464819896E+01 -0.17764303180E+03  0.26425582598E+03  0.00000000000E+00 0.  1.
         21    1    1    2  502  501  0.29445727497E+02  0.31351552873E+02  0.16801145063E+02  0.46176284073E+02  0.00000000000E+00 0.  1.
<scales pt_clust_4="550.00000" pt_clust_5="550.00000" pt_clust_6="43.01129"></scales>
<mgrwt>
<rscale>  0 0.30000000E+03</rscale>
<asrwt>  1 0.43011286E+02</asrwt>
<pdfrwt beam="1">  1        1 0.92365276E+00 0.30000000E+03</pdfrwt>
<pdfrwt beam="2">0</pdfrwt>
<totfact> 0.33671640E-05</totfact>
</mgrwt>
<clustering>
<clus scale="   43.011">  1  6  2 -1</clus>
<clus scale="  479.421">  4  5 -1 -1</clus>
<clus scale="  300.000">  1  4  2 -1</clus>
</clustering>
</event>
<event>
 6    1  0.1000035E-011  0.3000000E+03  0.7818608E-02  0.1093470E+00
          1   -1    0    0  502    0  0.00000000000E+00  0.00000000000E+00  0.22414690828E+03  0.22414690828E+03  0.00000000000E+00 0.  1.
         13   -1    0    0    0    0 -0.00000000000E+00 -0.00000000000E+00 -0.27500000000E+03  0.27500000000E+03  0.00000000000E+00 0.  1.
    9000005    2    1    2  501    0  0.84815781400E+00  0.34484047543E+02 -0.64379441426E+02  0.46209517360E+03  0.45628649781E+03 0.  0.
         13    1    3    3    0    0 -0.21336541162E+03 -0.39273572151E+02  0.25331972637E+02  0.21842371937E+03  0.00000000000E+00 0.  1.
          3    1    3    3  501    0  0.21421356944E+03  0.73757619693E+02 -0.89711414063E+02  0.24367145423E+03  0.00000000000E+00 0.  1.
         21    1    1    2  502  501 -0.84815781400E+00 -0.34484047543E+02  0.13526349709E+02  0.37051734684E+02  0.00000000000E+00 0. -1.
<scales pt_clust_4="550.00000" pt_clust_5="550.00000" pt_clust_6="34.49448"></scales>
<mgrwt>
<rscale>  0 0.30000000E+03</rscale>
<asrwt>  1 0.34494476E+02</asrwt>
<pdfrwt beam="1">  1        1 0.81507967E+00 0.30000000E+03</pdfrwt>
<pdfrwt beam="2">0</pdfrwt>
<totfact> 0.79703164E-04</totfact>
</mgrwt>
<clustering>
<clus scale="   34.494">  1  6  2 -1</clus>
<clus scale="  456.286">  4  5 -1 -1</clus>
<clus scale="  300.000">  1  4  2 -1</clus>
</clustering>
</event>
<event>
 6    1  0.1000035E-011  0.3000000E+03  0.7818608E-02  0.1093470E+00
          1   -1    0    0  502    0  0.00000000000E+00  0.00000000000E+00  0.23083213396E+03  0.23083213396E+03  0.00000000000E+00 0.  1.
         13   -1    0    0    0    0 -0.00000000000E+00 -0.00000000000E+00 -0.27500000000E+03  0.27500000000E+03  0.00000000000E+00 0.  1.
    9000005    2    1    2  501    0  0.34557151076E+02  0.21633862453E+02 -0.43121885489E+02  0.46504837775E+03  0.46124643732E+03 0.  0.
         13    1    3    3    0    0 -0.32567821169E+02  0.12178166339E+03 -0.21848229787E+03  0.25224185021E+03  0.00000000000E+00 0.  1.
          3    1    3    3  501    0  0.67124972245E+02 -0.10014780094E+03  0.17536041238E+03  0.21280652754E+03  0.00000000000E+00 0.  1.
         21    1    1    2  502  501 -0.34557151076E+02 -0.21633862453E+02 -0.10459805553E+01  0.40783756208E+02  0.00000000000E+00 0.  1.
<scales pt_clust_4="550.00000" pt_clust_5="550.00000" pt_clust_6="40.77034"></scales>
<mgrwt>
<rscale>  0 0.30000000E+03</rscale>
<asrwt>  1 0.40770341E+02</asrwt>
<pdfrwt beam="1">  1        1 0.83938958E+00 0.30000000E+03</pdfrwt>
<pdfrwt beam="2">0</pdfrwt>
<totfact> 0.48844190E-04</totfact>
</mgrwt>
<clustering>
<clus scale="   40.770">  1  6  2 -1</clus>
<clus scale="  461.246">  4  5 -1 -1</clus>
<clus scale="  300.000">  1  4  2 -1</clus>
</clustering>
</event>
<event>
 6    1  0.1000035E-011  0.3000000E+03  0.7818608E-02  0.1093470E+00
          1   -1    0    0  502    0  0.00000000000E+00  0.00000000000E+00  0.23317639569E+03  0.23317639569E+03  0.00000000000E+00 0.  1.
         13   -1    0    0    0    0 -0.00000000000E+00 -0.00000000000E+00 -0.27500000000E+03  0.27500000000E+03  0.00000000000E+00 0.  1.
    9000005    2    1    2  501    0 -0.20264239493E+02 -0.27496763948E+02 -0.31242710566E+02  0.47241794575E+03  0.47014454913E+03 0.  0.
         13    1    3    3    0    0  0.74223194135E+02  0.74432591616E+02  0.18650855096E+03  0.21409047812E+03  0.00000000000E+00 0.  1.
          1    1    3    3  501    0 -0.94487433628E+02 -0.10192935556E+03 -0.21775126152E+03  0.25832746763E+03  0.00000000000E+00 0.  1.
         21    1    1    2  502  501  0.20264239493E+02  0.27496763948E+02 -0.10580893739E+02  0.35758449941E+02  0.00000000000E+00 0.  1.
<scales pt_clust_4="550.00000" pt_clust_5="550.00000" pt_clust_6="34.15717"></scales>
<mgrwt>
<rscale>  0 0.30000000E+03</rscale>
<asrwt>  1 0.34157175E+02</asrwt>
<pdfrwt beam="1">  1        1 0.84791417E+00 0.30000000E+03</pdfrwt>
<pdfrwt beam="2">0</pdfrwt>
<totfact> 0.42745399E-04</totfact>
</mgrwt>
<clustering>
<clus scale="   34.157">  1  6  2 -1</clus>
<clus scale="  470.145">  4  5 -1 -1</clus>
<clus scale="  300.000">  1  4  2 -1</clus>
</clustering>
</event>
<event>
 6    1  0.1000035E-011  0.3000000E+03  0.7818608E-02  0.1093470E+00
          1   -1    0    0  502    0  0.00000000000E+00  0.00000000000E+00  0.23523381936E+03  0.23523381936E+03  0.00000000000E+00 0.  1.
         13   -1    0    0    0    0 -0.00000000000E+00 -0.00000000000E+00 -0.27500000000E+03  0.27500000000E+03  0.00000000000E+00 0.  1.
    9000005    2    1    2  501    0 -0.28828101667E+02  0.14319634275E+02 -0.66607822900E+02  0.46832218457E+03  0.46244238032E+03 0.  0.
         13    1    3    3    0    0  0.30581588367E+02  0.11894130074E+03 -0.23276699300E+03  0.26317815182E+03  0.00000000000E+00 0.  1.
          3    1    3    3  501    0 -0.59409690034E+02 -0.10462166646E+03  0.16615917010E+03  0.20514403275E+03  0.00000000000E+00 0.  1.
         21    1    1    2  502  501  0.28828101667E+02 -0.14319634275E+02  0.26841642259E+02  0.41911634788E+02  0.00000000000E+00 0. -1.
<scales pt_clust_4="550.00000" pt_clust_5="550.00000" pt_clust_6="32.18868"></scales>
<mgrwt>
<rscale>  0 0.30000000E+03</rscale>
<asrwt>  1 0.32188684E+02</asrwt>
<pdfrwt beam="1">  1        1 0.85539571E+00 0.30000000E+03</pdfrwt>
<pdfrwt beam="2">0</pdfrwt>
<totfact> 0.36679046E-04</totfact>
</mgrwt>
<clustering>
<clus scale="   32.189">  1  6  2 -1</clus>
<clus scale="  462.442">  4  5 -1 -1</clus>
<clus scale="  300.000">  1  4  2 -1</clus>
</clustering>
</event>
<event>
 6    1  0.1000035E-011  0.3000000E+03  0.7818608E-02  0.1093470E+00
          1   -1    0    0  502    0  0.00000000000E+00  0.00000000000E+00  0.26417552993E+03  0.26417552993E+03  0.00000000000E+00 0.  1.
         13   -1    0    0    0    0 -0.00000000000E+00 -0.00000000000E+00 -0.27500000000E+03  0.27500000000E+03  0.00000000000E+00 0.  1.
    9000005    2    1    2  501    0  0.19327261318E+01  0.36859898865E+02 -0.25664315929E+02  0.49939351641E+03  0.49736590107E+03 0.  0.
         13    1    3    3    0    0  0.95613602911E+02 -0.13150670980E+03 -0.18720856806E+03  0.24795770555E+03  0.00000000000E+00 0.  1.
          3    1    3    3  501    0 -0.93680876779E+02  0.16836660867E+03  0.16154425213E+03  0.25143581086E+03  0.00000000000E+00 0.  1.
         21    1    1    2  502  501 -0.19327261318E+01 -0.36859898865E+02  0.14839845858E+02  0.39782013520E+02  0.00000000000E+00 0. -1.
<scales pt_clust_4="550.00000" pt_clust_5="550.00000" pt_clust_6="36.91053"></scales>
<mgrwt>
<rscale>  0 0.30000000E+03</rscale>
<asrwt>  1 0.36910535E+02</asrwt>
<pdfrwt beam="1">  1        1 0.96063829E+00 0.30000000E+03</pdfrwt>
<pdfrwt beam="2">0</pdfrwt>
<totfact> 0.72757993E-06</totfact>
</mgrwt>
<clustering>
<clus scale="   36.911">  1  6  2 -1</clus>
<clus scale="  497.366">  4  5 -1 -1</clus>
<clus scale="  300.000">  1  4  2 -1</clus>
</clustering>
</event>
<event>
 6    1  0.1000035E-011  0.3000000E+03  0.7818608E-02  0.1093470E+00
          1   -1    0    0  502    0  0.00000000000E+00  0.00000000000E+00  0.23058048853E+03  0.23058048853E+03  0.00000000000E+00 0.  1.
         13   -1    0    0    0    0 -0.00000000000E+00 -0.00000000000E+00 -0.27500000000E+03  0.27500000000E+03  0.00000000000E+00 0.  1.
    9000005    2    1    2  501    0  0.24981086869E+02  0.17958044835E+02 -0.67283014952E+02  0.46724922365E+03  0.46135483831E+03 0.  0.
         13    1    3    3    0    0  0.20794633592E+03 -0.10944226044E+03 -0.66799022262E+02  0.24429776169E+03  0.00000000000E+00 0.  1.
          1    1    3    3  501    0 -0.18296524905E+03  0.12740030527E+03 -0.48399269084E+00  0.22295146196E+03  0.00000000000E+00 0.  1.
         21    1    1    2  502  501 -0.24981086869E+02 -0.17958044835E+02  0.22863503481E+02  0.38331264874E+02  0.00000000000E+00 0.  1.
<scales pt_clust_4="550.00000" pt_clust_5="550.00000" pt_clust_6="30.76599"></scales>
<mgrwt>
<rscale>  0 0.30000000E+03</rscale>
<asrwt>  1 0.30765989E+02</asrwt>
<pdfrwt beam="1">  1        1 0.83847450E+00 0.30000000E+03</pdfrwt>
<pdfrwt beam="2">0</pdfrwt>
<totfact> 0.52295779E-04</totfact>
</mgrwt>
<clustering>
<clus scale="   30.766">  1  6  2 -1</clus>
<clus scale="  461.355">  4  5 -1 -1</clus>
<clus scale="  300.000">  1  4  2 -1</clus>
</clustering>
</event>
<event>
 6    1  0.1000035E-011  0.3000000E+03  0.7818608E-02  0.1093470E+00
          1   -1    0    0  502    0  0.00000000000E+00  0.00000000000E+00  0.22739566435E+03  0.22739566435E+03  0.00000000000E+00 0.  1.
         13   -1    0    0    0    0 -0.00000000000E+00 -0.00000000000E+00 -0.27500000000E+03  0.27500000000E+03  0.00000000000E+00 0.  1.
    9000005    2    1    2  501    0  0.30154724449E+02  0.91480661199E+00 -0.46891628744E+02  0.47221864944E+03  0.46891522022E+03 0.  0.
         13    1    3    3    0    0 -0.13476084868E+03 -0.54387698331E+02  0.15044136024E+03  0.20916766226E+03  0.00000000000E+00 0.  1.
          3    1    3    3  501    0  0.16491557313E+03  0.55302504943E+02 -0.19733298898E+03  0.26305098717E+03  0.00000000000E+00 0.  1.
         21    1    1    2  502  501 -0.30154724449E+02 -0.91480661199E+00 -0.71270690885E+00  0.30177014910E+02  0.00000000000E+00 0. -1.
<scales pt_clust_4="550.00000" pt_clust_5="550.00000" pt_clust_6="30.16860"></scales>
<mgrwt>
<rscale>  0 0.30000000E+03</rscale>
<asrwt>  1 0.30168598E+02</asrwt>
<pdfrwt beam="1">  1        1 0.82689332E+00 0.30000000E+03</pdfrwt>
<pdfrwt beam="2">0</pdfrwt>
<totfact> 0.64633735E-04</totfact>
</mgrwt>
<clustering>
<clus scale="   30.169">  1  6  2 -1</clus>
<clus scale="  468.915">  4  5 -1 -1</clus>
<clus scale="  300.000">  1  4  2 -1</clus>
</clustering>
</event>
<event>
 6    1  0.1000035E-011  0.3000000E+03  0.7818608E-02  0.1093470E+00
          1   -1    0    0  502    0  0.00000000000E+00  0.00000000000E+00  0.23107363966E+03  0.23107363966E+03  0.00000000000E+00 0.  1.
         13   -1    0    0    0    0 -0.00000000000E+00 -0.00000000000E+00 -0.27500000000E+03  0.27500000000E+03  0.00000000000E+00 0.  1.
    9000005    2    1    2  501    0 -0.35828465146E+02 -0.11993245601E+01 -0.65229050984E+02  0.46437325689E+03  0.45836947470E+03 0.  0.
         13    1    3    3    0    0  0.21499554432E+02  0.22507905092E+03 -0.39566075806E+02  0.22953928718E+03  0.00000000000E+00 0.  1.
          3    1    3    3  501    0 -0.57328019578E+02 -0.22627837548E+03 -0.25662975177E+02  0.23483396972E+03  0.00000000000E+00 0.  1.
         21    1    1    2  502  501  0.35828465146E+02  0.11993245601E+01  0.21302690643E+02  0.41700382765E+02  0.00000000000E+00 0. -1.
<scales pt_clust_4="550.00000" pt_clust_5="550.00000" pt_clust_6="35.84853"></scales>
<mgrwt>
<rscale>  0 0.30000000E+03</rscale>
<asrwt>  1 0.35848533E+02</asrwt>
<pdfrwt beam="1">  1        1 0.84026778E+00 0.30000000E+03</pdfrwt>
<pdfrwt beam="2">0</pdfrwt>
<totfact> 0.49248062E-04</totfact>
</mgrwt>
<clustering>
<clus scale="   35.849">  1  6  2 -1</clus>
<clus scale="  458.369">  4  5 -1 -1</clus>
<clus scale="  300.000">  1  4  2 -1</clus>
</clustering>
</event>
<event>
 6    1  0.1000035E-011  0.3000000E+03  0.7818608E-02  0.1093470E+00
          1   -1    0    0  502    0  0.00000000000E+00  0.00000000000E+00  0.23651730832E+03  0.23651730832E+03  0.00000000000E+00 0.  1.
         13   -1    0    0    0    0 -0.00000000000E+00 -0.00000000000E+00 -0.27500000000E+03  0.27500000000E+03  0.00000000000E+00 0.  1.
    9000005    2    1    2  501    0  0.36102594019E+02 -0.70231054419E+01 -0.56694614993E+02  0.47047592121E+03  0.46559702723E+03 0.  0.
         13    1    3    3    0    0 -0.29392796332E+01 -0.23459336638E+03 -0.47663052779E+02  0.23940437238E+03  0.00000000000E+00 0.  1.
          1    1    3    3  501    0  0.39041873653E+02  0.22757026094E+03 -0.90315622139E+01  0.23107154883E+03  0.00000000000E+00 0.  1.
         21    1    1    2  502  501 -0.36102594019E+02  0.70231054419E+01  0.18211923312E+02  0.41041387107E+02  0.00000000000E+00 0. -1.
<scales pt_clust_4="550.00000" pt_clust_5="550.00000" pt_clust_6="36.77936"></scales>
<mgrwt>
<rscale>  0 0.30000000E+03</rscale>
<asrwt>  1 0.36779360E+02</asrwt>
<pdfrwt beam="1">  1        1 0.86006294E+00 0.30000000E+03</pdfrwt>
<pdfrwt beam="2">0</pdfrwt>
<totfact> 0.31999520E-04</totfact>
</mgrwt>
<clustering>
<clus scale="   36.779">  1  6  2 -1</clus>
<clus scale="  465.597">  4  5 -1 -1</clus>
<clus scale="  300.000">  1  4  2 -1</clus>
</clustering>
</event>
<event>
 6    1  0.1000035E-011  0.3000000E+03  0.7818608E-02  0.1093470E+00
          1   -1    0    0  502    0  0.00000000000E+00  0.00000000000E+00  0.26147353221E+03  0.26147353221E+03  0.00000000000E+00 0.  1.
         13   -1    0    0    0    0 -0.00000000000E+00 -0.00000000000E+00 -0.27500000000E+03  0.27500000000E+03  0.00000000000E+00 0.  1.
    9000005    2    1    2  501    0 -0.27632732079E+02  0.57315956331E+02 -0.45059993174E+01  0.47220802370E+03  0.46787971412E+03 0.  0.
         13    1    3    3    0    0 -0.98907807488E+02  0.21352129934E+03  0.11608527423E+03  0.26239262670E+03  0.00000000000E+00 0.  1.
          1    1    3    3  501    0  0.71275075409E+02 -0.15620534301E+03 -0.12059127355E+03  0.20981539700E+03  0.00000000000E+00 0.  1.
         21    1    1    2  502  501  0.27632732079E+02 -0.57315956331E+02 -0.90204684742E+01  0.64265508508E+02  0.00000000000E+00 0. -1.
<scales pt_clust_4="550.00000" pt_clust_5="550.00000" pt_clust_6="63.62932"></scales>
<mgrwt>
<rscale>  0 0.30000000E+03</rscale>
<asrwt>  1 0.63629323E+02</asrwt>
<pdfrwt beam="1">  1        1 0.95081284E+00 0.30000000E+03</pdfrwt>
<pdfrwt beam="2">0</pdfrwt>
<totfact> 0.10675832E-05</totfact>
</mgrwt>
<clustering>
<clus scale="   63.629">  1  6  2 -1</clus>
<clus scale="  467.880">  4  5 -1 -1</clus>
<clus scale="  300.000">  1  4  2 -1</clus>
</clustering>
</event>
<event>
 6    1  0.1000035E-011  0.3000000E+03  0.7818608E-02  0.1093470E+00
          1   -1    0    0  502    0  0.00000000000E+00  0.00000000000E+00  0.23913397624E+03  0.23913397624E+03  0.00000000000E+00 0.  1.
         13   -1    0    0    0    0 -0.00000000000E+00 -0.00000000000E+00 -0.27500000000E+03  0.27500000000E+03  0.00000000000E+00 0.  1.
    9000005    2    1    2  501    0 -0.22161867469E+02  0.21565561906E+02 -0.52170002580E+02  0.47917626528E+03  0.47532300829E+03 0.  0.
         13    1    3    3    0    0 -0.37315135940E+02 -0.20516225864E+03  0.71529403717E+02  0.22045504607E+03  0.00000000000E+00 0.  1.
          1    1    3    3  501    0  0.15153268471E+02  0.22672782054E+03 -0.12369940630E+03  0.25872121922E+03  0.00000000000E+00 0.  1.
         21    1    1    2  502  501  0.22161867469E+02 -0.21565561906E+02  0.16303978818E+02  0.34957710957E+02  0.00000000000E+00 0.  1.
<scales pt_clust_4="550.00000" pt_clust_5="550.00000" pt_clust_6="30.92284"></scales>
<mgrwt>
<rscale>  0 0.30000000E+03</rscale>
<asrwt>  1 0.30922837E+02</asrwt>
<pdfrwt beam="1">  1        1 0.86957810E+00 0.30000000E+03</pdfrwt>
<pdfrwt beam="2">0</pdfrwt>
<totfact> 0.26184736E-04</totfact>
</mgrwt>
<clustering>
<clus scale="   30.923">  1  6  2 -1</clus>
<clus scale="  475.323">  4  5 -1 -1</clus>
<clus scale="  300.000">  1  4  2 -1</clus>
</clustering>
</event>
<event>
 6    1  0.1000035E-011  0.3000000E+03  0.7818608E-02  0.1093470E+00
          1   -1    0    0  502    0  0.00000000000E+00  0.00000000000E+00  0.25902266094E+03  0.25902266094E+03  0.00000000000E+00 0.  1.
         13   -1    0    0    0    0 -0.00000000000E+00 -0.00000000000E+00 -0.27500000000E+03  0.27500000000E+03  0.00000000000E+00 0.  1.
    9000005    2    1    2  501    0  0.11295632468E+01  0.38558426219E+02 -0.38966008077E+02  0.48911712622E+03  0.48603413998E+03 0.  0.
         13    1    3    3    0    0 -0.11297604713E+03  0.34343912420E+02  0.19546168571E+03  0.22836015879E+03  0.00000000000E+00 0.  1.
          3    1    3    3  501    0  0.11410561037E+03  0.42145137994E+01 -0.23442769379E+03  0.26075696742E+03  0.00000000000E+00 0.  1.
         21    1    1    2  502  501 -0.11295632468E+01 -0.38558426219E+02  0.22988669016E+02  0.44905534723E+02  0.00000000000E+00 0.  1.
<scales pt_clust_4="550.00000" pt_clust_5="550.00000" pt_clust_6="38.57497"></scales>
<mgrwt>
<rscale>  0 0.30000000E+03</rscale>
<asrwt>  1 0.38574968E+02</asrwt>
<pdfrwt beam="1">  1        1 0.94190059E+00 0.30000000E+03</pdfrwt>
<pdfrwt beam="2">0</pdfrwt>
<totfact> 0.17438143E-05</totfact>
</mgrwt>
<clustering>
<clus scale="   38.575">  1  6  2 -1</clus>
<clus scale="  486.034">  4  5 -1 -1</clus>
<clus scale="  300.000">  1  4  2 -1</clus>
</clustering>
</event>
<event>
 6    1  0.1000035E-011  0.3000000E+03  0.7818608E-02  0.1093470E+00
          1   -1    0    0  502    0  0.00000000000E+00  0.00000000000E+00  0.22747646802E+03  0.22747646802E+03  0.00000000000E+00 0.  1.
         13   -1    0    0    0    0 -0.00000000000E+00 -0.00000000000E+00 -0.27500000000E+03  0.27500000000E+03  0.00000000000E+00 0.  1.
    9000005    2    1    2  501    0 -0.31974191568E+02  0.78223748272E+01 -0.66731778011E+02  0.46436485312E+03  0.45836453631E+03 0.  0.
         13    1    3    3    0    0  0.10173059977E+03  0.57176371321E+02 -0.22372287173E+03  0.25232949828E+03  0.00000000000E+00 0.  1.
          1    1    3    3  501    0 -0.13370479133E+03 -0.49353996494E+02  0.15699109372E+03  0.21203535484E+03  0.00000000000E+00 0.  1.
         21    1    1    2  502  501  0.31974191568E+02 -0.78223748272E+01  0.19208246029E+02  0.38111614894E+02  0.00000000000E+00 0. -1.
<scales pt_clust_4="550.00000" pt_clust_5="550.00000" pt_clust_6="32.91715"></scales>
<mgrwt>
<rscale>  0 0.30000000E+03</rscale>
<asrwt>  1 0.32917146E+02</asrwt>
<pdfrwt beam="1">  1        1 0.82718716E+00 0.30000000E+03</pdfrwt>
<pdfrwt beam="2">0</pdfrwt>
<totfact> 0.63190613E-04</totfact>
</mgrwt>
<clustering>
<clus scale="   32.917">  1  6  2 -1</clus>
<clus scale="  458.365">  4  5 -1 -1</clus>
<clus scale="  300.000">  1  4  2 -1</clus>
</clustering>
</event>
<event>
 6    1  0.1000035E-011  0.3000000E+03  0.7818608E-02  0.1093470E+00
          1   -1    0    0  502    0  0.00000000000E+00  0.00000000000E+00  0.22951216401E+03  0.22951216401E+03  0.00000000000E+00 0.  1.
         13   -1    0    0    0    0 -0.00000000000E+00 -0.00000000000E+00 -0.27500000000E+03  0.27500000000E+03  0.00000000000E+00 0.  1.
    9000005    2    1    2  501    0  0.22631859434E+02  0.25984389182E+02 -0.49028079023E+02  0.46987226125E+03  0.46603519161E+03 0.  0.
         13    1    3    3    0    0 -0.89052097196E+02 -0.13886805683E+03 -0.16999846434E+03  0.23688413012E+03  0.00000000000E+00 0.  1.
          1    1    3    3  501    0  0.11168395663E+03  0.16485244601E+03  0.12097038532E+03  0.23298813113E+03  0.00000000000E+00 0.  1.
         21    1    1    2  502  501 -0.22631859434E+02 -0.25984389182E+02  0.35402430340E+01  0.34639902761E+02  0.00000000000E+00 0. -1.
<scales pt_clust_4="550.00000" pt_clust_5="550.00000" pt_clust_6="34.45852"></scales>
<mgrwt>
<rscale>  0 0.30000000E+03</rscale>
<asrwt>  1 0.34458519E+02</asrwt>
<pdfrwt beam="1">  1        1 0.83458969E+00 0.30000000E+03</pdfrwt>
<pdfrwt beam="2">0</pdfrwt>
<totfact> 0.54633571E-04</totfact>
</mgrwt>
<clustering>
<clus scale="   34.459">  1  6  2 -1</clus>
<clus scale="  466.035">  4  5 -1 -1</clus>
<clus scale="  300.000">  1  4  2 -1</clus>
</clustering>
</event>
<event>
 6    1  0.1000035E-011  0.3000000E+03  0.7818608E-02  0.1093470E+00
          1   -1    0    0  502    0  0.00000000000E+00  0.00000000000E+00  0.22764502030E+03  0.22764502030E+03  0.00000000000E+00 0.  1.
         13   -1    0    0    0    0 -0.00000000000E+00 -0.00000000000E+00 -0.27500000000E+03  0.27500000000E+03  0.00000000000E+00 0.  1.
    9000005    2    1    2  501    0 -0.23037617521E+02 -0.33758677218E+02 -0.38852176386E+02  0.46089962807E+03  0.45743698521E+03 0.  0.
         13    1    3    3    0    0 -0.20755598799E+03  0.92143319094E+02  0.25289225176E+02  0.22849381680E+03  0.00000000000E+00 0.  1.
          3    1    3    3  501    0  0.18451837047E+03 -0.12590199631E+03 -0.64141401562E+02  0.23240581127E+03  0.00000000000E+00 0.  1.
         21    1    1    2  502  501  0.23037617521E+02  0.33758677218E+02 -0.85028033122E+01  0.41745392234E+02  0.00000000000E+00 0.  1.
<scales pt_clust_4="550.00000" pt_clust_5="550.00000" pt_clust_6="40.87030"></scales>
<mgrwt>
<rscale>  0 0.30000000E+03</rscale>
<asrwt>  1 0.40870304E+02</asrwt>
<pdfrwt beam="1">  1        1 0.82780007E+00 0.30000000E+03</pdfrwt>
<pdfrwt beam="2">0</pdfrwt>
<totfact> 0.59961482E-04</totfact>
</mgrwt>
<clustering>
<clus scale="   40.870">  1  6  2 -1</clus>
<clus scale="  457.437">  4  5 -1 -1</clus>
<clus scale="  300.000">  1  4  2 -1</clus>
</clustering>
</event>
<event>
 6    1  0.1000035E-011  0.3000000E+03  0.7818608E-02  0.1093470E+00
          1   -1    0    0  502    0  0.00000000000E+00  0.00000000000E+00  0.22188341310E+03  0.22188341310E+03  0.00000000000E+00 0.  1.
         13   -1    0    0    0    0 -0.00000000000E+00 -0.00000000000E+00 -0.27500000000E+03  0.27500000000E+03  0.00000000000E+00 0.  1.
    9000005    2    1    2  501    0 -0.21577340134E+02 -0.21665003344E+02 -0.63327648752E+02  0.46464648146E+03  0.45929403182E+03 0.  0.
         13    1    3    3    0    0  0.10903455608E+03  0.12267767886E+03  0.11519232170E+03  0.20051837394E+03  0.00000000000E+00 0.  1.
          3    1    3    3  501    0 -0.13061189621E+03 -0.14434268220E+03 -0.17851997045E+03  0.26412810753E+03  0.00000000000E+00 0.  1.
         21    1    1    2  502  501  0.21577340134E+02  0.21665003344E+02  0.10211061851E+02  0.32236931636E+02  0.00000000000E+00 0.  1.
<scales pt_clust_4="550.00000" pt_clust_5="550.00000" pt_clust_6="30.57702"></scales>
<mgrwt>
<rscale>  0 0.30000000E+03</rscale>
<asrwt>  1 0.30577017E+02</asrwt>
<pdfrwt beam="1">  1        1 0.80684877E+00 0.30000000E+03</pdfrwt>
<pdfrwt beam="2">0</pdfrwt>
<totfact> 0.94638105E-04</totfact>
</mgrwt>
<clustering>
<clus scale="   30.577">  1  6  2 -1</clus>
<clus scale="  459.294">  4  5 -1 -1</clus>
<clus scale="  300.000">  1  4  2 -1</clus>
</clustering>
</event>
<event>
 6    1  0.1000035E-011  0.3000000E+03  0.7818608E-02  0.1093470E+00
          1   -1    0    0  502    0  0.00000000000E+00  0.00000000000E+00  0.22629518958E+03  0.22629518958E+03  0.00000000000E+00 0.  1.
         13   -1    0    0    0    0 -0.00000000000E+00 -0.00000000000E+00 -0.27500000000E+03  0.27500000000E+03  0.00000000000E+00 0.  1.
    9000005    2    1    2  501    0  0.20168330831E+02 -0.25812924378E+02 -0.66749520084E+02  0.46389625670E+03  0.45789864590E+03 0.  0.
         13    1    3    3    0    0 -0.89263250930E+02  0.18536770026E+03 -0.90695852843E+02  0.22484405704E+03  0.00000000000E+00 0.  1.
          1    1    3    3  501    0  0.10943158176E+03 -0.21118062464E+03  0.23946332759E+02  0.23905219966E+03  0.00000000000E+00 0.  1.
         21    1    1    2  502  501 -0.20168330831E+02  0.25812924378E+02  0.18044709661E+02  0.37398932875E+02  0.00000000000E+00 0. -1.
<scales pt_clust_4="550.00000" pt_clust_5="550.00000" pt_clust_6="32.75773"></scales>
<mgrwt>
<rscale>  0 0.30000000E+03</rscale>
<asrwt>  1 0.32757726E+02</asrwt>
<pdfrwt beam="1">  1        1 0.82289160E+00 0.30000000E+03</pdfrwt>
<pdfrwt beam="2">0</pdfrwt>
<totfact> 0.69066375E-04</totfact>
</mgrwt>
<clustering>
<clus scale="   32.758">  1  6  2 -1</clus>
<clus scale="  457.899">  4  5 -1 -1</clus>
<clus scale="  300.000">  1  4  2 -1</clus>
</clustering>
</event>
<event>
 6    1  0.1000035E-011  0.3000000E+03  0.7818608E-02  0.1093470E+00
          1   -1    0    0  502    0  0.00000000000E+00  0.00000000000E+00  0.22362353011E+03  0.22362353011E+03  0.00000000000E+00 0.  1.
         13   -1    0    0    0    0 -0.00000000000E+00 -0.00000000000E+00 -0.27500000000E+03  0.27500000000E+03  0.00000000000E+00 0.  1.
    9000005    2    1    2  501    0 -0.17517481033E+02 -0.29870107429E+02 -0.40687754200E+02  0.46238357836E+03  0.45928639729E+03 0.  0.
         13    1    3    3    0    0  0.32364264651E+02  0.18473975103E+03 -0.12618020727E+03  0.22604792842E+03  0.00000000000E+00 0.  1.
          3    1    3    3  501    0 -0.49881745684E+02 -0.21460985846E+03  0.85492453069E+02  0.23633564994E+03  0.00000000000E+00 0.  1.
         21    1    1    2  502  501  0.17517481033E+02  0.29870107429E+02 -0.10688715692E+02  0.36239951748E+02  0.00000000000E+00 0. -1.
<scales pt_clust_4="550.00000" pt_clust_5="550.00000" pt_clust_6="34.62783"></scales>
<mgrwt>
<rscale>  0 0.30000000E+03</rscale>
<asrwt>  1 0.34627831E+02</asrwt>
<pdfrwt beam="1">  1        1 0.81317647E+00 0.30000000E+03</pdfrwt>
<pdfrwt beam="2">0</pdfrwt>
<totfact> 0.82496443E-04</totfact>
</mgrwt>
<clustering>
<clus scale="   34.628">  1  6  2 -1</clus>
<clus scale="  459.286">  4  5 -1 -1</clus>
<clus scale="  300.000">  1  4  2 -1</clus>
</clustering>
</event>
<event>
 6    1  0.1000035E-011  0.3000000E+03  0.7818608E-02  0.1093470E+00
          1   -1    0    0  502    0  0.00000000000E+00  0.00000000000E+00  0.25838128834E+03  0.25838128834E+03  0.00000000000E+00 0.  1.
         13   -1    0    0    0    0 -0.00000000000E+00 -0.00000000000E+00 -0.27500000000E+03  0.27500000000E+03  0.00000000000E+00 0.  1.
    9000005    2    1    2  501    0  0.46548096859E+02  0.86368388077E+01 -0.11393972882E+02  0.48575127469E+03  0.48330441539E+03 0.  0.
         13    1    3    3    0    0  0.22606306296E+03  0.15279486096E+01  0.12670230902E+03  0.25915307865E+03  0.00000000000E+00 0.  1.
          1    1    3    3  501    0 -0.17951496610E+03  0.71088901981E+01 -0.13809628190E+03  0.22659819604E+03  0.00000000000E+00 0.  1.
         21    1    1    2  502  501 -0.46548096859E+02 -0.86368388077E+01 -0.52247387740E+01  0.47630013658E+02  0.00000000000E+00 0.  1.
<scales pt_clust_4="550.00000" pt_clust_5="550.00000" pt_clust_6="47.34261"></scales>
<mgrwt>
<rscale>  0 0.30000000E+03</rscale>
<asrwt>  1 0.47342608E+02</asrwt>
<pdfrwt beam="1">  1        1 0.93956832E+00 0.30000000E+03</pdfrwt>
<pdfrwt beam="2">0</pdfrwt>
<totfact> 0.18437443E-05</totfact>
</mgrwt>
<clustering>
<clus scale="   47.343">  1  6  2 -1</clus>
<clus scale="  483.304">  4  5 -1 -1</clus>
<clus scale="  300.000">  1  4  2 -1</clus>
</clustering>
</event>
<event>
 6    1  0.1000035E-011  0.3000000E+03  0.7818608E-02  0.1093470E+00
          1   -1    0    0  502    0  0.00000000000E+00  0.00000000000E+00  0.23908738394E+03  0.23908738394E+03  0.00000000000E+00 0.  1.
         13   -1    0    0    0    0 -0.00000000000E+00 -0.00000000000E+00 -0.27500000000E+03  0.27500000000E+03  0.00000000000E+00 0.  1.
    9000005    2    1    2  501    0 -0.43258792505E+02  0.20685173269E+01 -0.39069067647E+01  0.46023603930E+03  0.45817719941E+03 0.  0.
         13    1    3    3    0    0 -0.70004685244E+02 -0.87719239036E+02  0.20364325785E+03  0.23252074600E+03  0.00000000000E+00 0.  1.
          3    1    3    3  501    0  0.26745892739E+02  0.89787756363E+02 -0.20755016461E+03  0.22771529330E+03  0.00000000000E+00 0.  1.
         21    1    1    2  502  501  0.43258792505E+02 -0.20685173269E+01 -0.32005709292E+02  0.53851344646E+02  0.00000000000E+00 0. -1.
<scales pt_clust_4="550.00000" pt_clust_5="550.00000" pt_clust_6="43.30824"></scales>
<mgrwt>
<rscale>  0 0.30000000E+03</rscale>
<asrwt>  1 0.43308241E+02</asrwt>
<pdfrwt beam="1">  1        1 0.86940867E+00 0.30000000E+03</pdfrwt>
<pdfrwt beam="2">0</pdfrwt>
<totfact> 0.24696909E-04</totfact>
</mgrwt>
<clustering>
<clus scale="   43.308">  1  6  2 -1</clus>
<clus scale="  458.177">  4  5 -1 -1</clus>
<clus scale="  300.000">  1  4  2 -1</clus>
</clustering>
</event>
<event>
 6    1  0.1000035E-011  0.3000000E+03  0.7818608E-02  0.1093470E+00
          1   -1    0    0  502    0  0.00000000000E+00  0.00000000000E+00  0.24202420613E+03  0.24202420613E+03  0.00000000000E+00 0.  1.
         13   -1    0    0    0    0 -0.00000000000E+00 -0.00000000000E+00 -0.27500000000E+03  0.27500000000E+03  0.00000000000E+00 0.  1.
    9000005    2    1    2  501    0 -0.31784333574E+02 -0.11179950283E+02 -0.73241118811E+02  0.46452152485E+03  0.45747213075E+03 0.  0.
         13    1    3    3    0    0 -0.12818793299E+03  0.12813702013E+03 -0.18702337801E+03  0.26043998543E+03  0.00000000000E+00 0.  1.
          1    1    3    3  501    0  0.96403599413E+02 -0.13931697041E+03  0.11378225920E+03  0.20408153942E+03  0.00000000000E+00 0.  1.
         21    1    1    2  502  501  0.31784333574E+02  0.11179950283E+02  0.40265324944E+02  0.52502681283E+02  0.00000000000E+00 0.  1.
<scales pt_clust_4="550.00000" pt_clust_5="550.00000" pt_clust_6="33.69325"></scales>
<mgrwt>
<rscale>  0 0.30000000E+03</rscale>
<asrwt>  1 0.33693251E+02</asrwt>
<pdfrwt beam="1">  1        1 0.88008802E+00 0.30000000E+03</pdfrwt>
<pdfrwt beam="2">0</pdfrwt>
<totfact> 0.19829522E-04</totfact>
</mgrwt>
<clustering>
<clus scale="   33.693">  1  6  2 -1</clus>
<clus scale="  457.472">  4  5 -1 -1</clus>
<clus scale="  300.000">  1  4  2 -1</clus>
</clustering>
</event>
<event>
 6    1  0.1000035E-011  0.3000000E+03  0.7818608E-02  0.1093470E+00
          1   -1    0    0  502    0  0.00000000000E+00  0.00000000000E+00  0.23955255087E+03  0.23955255087E+03  0.00000000000E+00 0.  1.
         13   -1    0    0    0    0 -0.00000000000E+00 -0.00000000000E+00 -0.27500000000E+03  0.27500000000E+03  0.00000000000E+00 0.  1.
    9000005    2    1    2  501    0  0.24662922651E+02 -0.24553996444E+02 -0.52398814349E+02  0.47584199316E+03  0.47166599222E+03 0.  0.
         13    1    3    3    0    0 -0.11811903335E+03 -0.12010094580E+03  0.13918066002E+03  0.21851224072E+03  0.00000000000E+00 0.  1.
          3    1    3    3  501    0  0.14278195600E+03  0.95546949354E+02 -0.19157947437E+03  0.25732975244E+03  0.00000000000E+00 0.  1.
         21    1    1    2  502  501 -0.24662922651E+02  0.24553996444E+02  0.16951365214E+02  0.38710557703E+02  0.00000000000E+00 0. -1.
<scales pt_clust_4="550.00000" pt_clust_5="550.00000" pt_clust_6="34.80170"></scales>
<mgrwt>
<rscale>  0 0.30000000E+03</rscale>
<asrwt>  1 0.34801702E+02</asrwt>
<pdfrwt beam="1">  1        1 0.87110018E+00 0.30000000E+03</pdfrwt>
<pdfrwt beam="2">0</pdfrwt>
<totfact> 0.24704653E-04</totfact>
</mgrwt>
<clustering>
<clus scale="   34.802">  1  6  2 -1</clus>
<clus scale="  471.666">  4  5 -1 -1</clus>
<clus scale="  300.000">  1  4  2 -1</clus>
</clustering>
</event>
<event>
 6    1  0.1000035E-011  0.3000000E+03  0.7818608E-02  0.1093470E+00
          1   -1    0    0  502    0  0.00000000000E+00  0.00000000000E+00  0.24255267355E+03  0.24255267355E+03  0.00000000000E+00 0.  1.
         13   -1    0    0    0    0 -0.00000000000E+00 -0.00000000000E+00 -0.27500000000E+03  0.27500000000E+03  0.00000000000E+00 0.  1.
    9000005    2    1    2  501    0  0.35804383666E+02  0.28551556656E+02 -0.35681642909E+02  0.47164400247E+03  0.46805741117E+03 0.  0.
         13    1    3    3    0    0  0.18264122019E+03 -0.11709201531E+03 -0.12043051012E+03  0.24813678310E+03  0.00000000000E+00 0.  1.
          1    1    3    3  501    0 -0.14683683653E+03  0.14564357196E+03  0.84748867210E+02  0.22350721937E+03  0.00000000000E+00 0.  1.
         21    1    1    2  502  501 -0.35804383666E+02 -0.28551556656E+02  0.32343164561E+01  0.45908671078E+02  0.00000000000E+00 0. -1.
<scales pt_clust_4="550.00000" pt_clust_5="550.00000" pt_clust_6="45.79460"></scales>
<mgrwt>
<rscale>  0 0.30000000E+03</rscale>
<asrwt>  1 0.45794599E+02</asrwt>
<pdfrwt beam="1">  1        1 0.88200972E+00 0.30000000E+03</pdfrwt>
<pdfrwt beam="2">0</pdfrwt>
<totfact> 0.17720964E-04</totfact>
</mgrwt>
<clustering>
<clus scale="   45.795">  1  6  2 -1</clus>
<clus scale="  468.057">  4  5 -1 -1</clus>
<clus scale="  300.000">  1  4  2 -1</clus>
</clustering>
</event>
<event>
 6    1  0.1000035E-011  0.3000000E+03  0.7818608E-02  0.1093470E+00
          1   -1    0    0  502    0  0.00000000000E+00  0.00000000000E+00  0.23136992763E+03  0.23136992763E+03  0.00000000000E+00 0.  1.
         13   -1    0    0    0    0 -0.00000000000E+00 -0.00000000000E+00 -0.27500000000E+03  0.27500000000E+03  0.00000000000E+00 0.  1.
    9000005    2    1    2  501    0 -0.29646101793E+02 -0.67931803796E+01 -0.58578093060E+02  0.47248066718E+03  0.46784778425E+03 0.  0.
         13    1    3    3    0    0 -0.15767734892E+02 -0.20269208779E+03  0.93808473301E+02  0.22390340234E+03  0.00000000000E+00 0.  1.
          3    1    3    3  501    0 -0.13878366900E+02  0.19589890741E+03 -0.15238656636E+03  0.24857726485E+03  0.00000000000E+00 0.  1.
         21    1    1    2  502  501  0.29646101793E+02  0.67931803796E+01  0.14948020691E+02  0.33889260449E+02  0.00000000000E+00 0.  1.
<scales pt_clust_4="550.00000" pt_clust_5="550.00000" pt_clust_6="30.41445"></scales>
<mgrwt>
<rscale>  0 0.30000000E+03</rscale>
<asrwt>  1 0.30414448E+02</asrwt>
<pdfrwt beam="1">  1        1 0.84134519E+00 0.30000000E+03</pdfrwt>
<pdfrwt beam="2">0</pdfrwt>
<totfact> 0.49818506E-04</totfact>
</mgrwt>
<clustering>
<clus scale="   30.414">  1  6  2 -1</clus>
<clus scale="  467.848">  4  5 -1 -1</clus>
<clus scale="  300.000">  1  4  2 -1</clus>
</clustering>
</event>
<event>
 6    1  0.1000035E-011  0.3000000E+03  0.7818608E-02  0.1093470E+00
          1   -1    0    0  502    0  0.00000000000E+00  0.00000000000E+00  0.22519194111E+03  0.22519194111E+03  0.00000000000E+00 0.  1.
         13   -1    0    0    0    0 -0.00000000000E+00 -0.00000000000E+00 -0.27500000000E+03  0.27500000000E+03  0.00000000000E+00 0.  1.
    9000005    2    1    2  501    0 -0.40118328756E+01  0.32908348098E+02 -0.52617555268E+02  0.46692112135E+03  0.46276092344E+03 0.  0.
         13    1    3    3    0    0 -0.23216899343E+03  0.19476089562E+02 -0.50323837048E+02  0.23835739583E+03  0.00000000000E+00 0.  1.
          3    1    3    3  501    0  0.22815716055E+03  0.13432258537E+02 -0.22937182198E+01  0.22856372552E+03  0.00000000000E+00 0.  1.
         21    1    1    2  502  501  0.40118328756E+01 -0.32908348098E+02  0.28094963791E+01  0.33270819760E+02  0.00000000000E+00 0. -1.
<scales pt_clust_4="550.00000" pt_clust_5="550.00000" pt_clust_6="33.15199"></scales>
<mgrwt>
<rscale>  0 0.30000000E+03</rscale>
<asrwt>  1 0.33151986E+02</asrwt>
<pdfrwt beam="1">  1        1 0.81887979E+00 0.30000000E+03</pdfrwt>
<pdfrwt beam="2">0</pdfrwt>
<totfact> 0.74705968E-04</totfact>
</mgrwt>
<clustering>
<clus scale="   33.152">  1  6  2 -1</clus>
<clus scale="  462.761">  4  5 -1 -1</clus>
<clus scale="  300.000">  1  4  2 -1</clus>
</clustering>
</event>
<event>
 6    1  0.1000035E-011  0.3000000E+03  0.7818608E-02  0.1093470E+00
          1   -1    0    0  502    0  0.00000000000E+00  0.00000000000E+00  0.23444648536E+03  0.23444648536E+03  0.00000000000E+00 0.  1.
         13   -1    0    0    0    0 -0.00000000000E+00 -0.00000000000E+00 -0.27500000000E+03  0.27500000000E+03  0.00000000000E+00 0.  1.
    9000005    2    1    2  501    0 -0.81431382639E+01  0.40965429347E+02 -0.51965941456E+02  0.46614844166E+03  0.46135608101E+03 0.  0.
         13    1    3    3    0    0 -0.86962621753E+02  0.23627354465E+03 -0.42433615037E+02  0.25531998976E+03  0.00000000000E+00 0.  1.
          3    1    3    3  501    0  0.78819483489E+02 -0.19530811531E+03 -0.95323264187E+01  0.21082845190E+03  0.00000000000E+00 0.  1.
         21    1    1    2  502  501  0.81431382639E+01 -0.40965429347E+02  0.11412426812E+02  0.43298043698E+02  0.00000000000E+00 0.  1.
<scales pt_clust_4="550.00000" pt_clust_5="550.00000" pt_clust_6="41.76694"></scales>
<mgrwt>
<rscale>  0 0.30000000E+03</rscale>
<asrwt>  1 0.41766938E+02</asrwt>
<pdfrwt beam="1">  1        1 0.85253267E+00 0.30000000E+03</pdfrwt>
<pdfrwt beam="2">0</pdfrwt>
<totfact> 0.37271650E-04</totfact>
</mgrwt>
<clustering>
<clus scale="   41.767">  1  6  2 -1</clus>
<clus scale="  461.356">  4  5 -1 -1</clus>
<clus scale="  300.000">  1  4  2 -1</clus>
</clustering>
</event>
<event>
 6    1  0.1000035E-011  0.3000000E+03  0.7818608E-02  0.1093470E+00
          1   -1    0    0  502    0  0.00000000000E+00  0.00000000000E+00  0.25094440426E+03  0.25094440426E+03  0.00000000000E+00 0.  1.
         13   -1    0    0    0    0 -0.00000000000E+00 -0.00000000000E+00 -0.27500000000E+03  0.27500000000E+03  0.00000000000E+00 0.  1.
    9000005    2    1    2  501    0  0.32475447783E+02 -0.60820588943E+01 -0.18378657418E+02  0.49242017754E+03  0.49096660787E+03 0.  0.
         13    1    3    3    0    0 -0.16928164118E+03  0.42004929255E+02 -0.16367182064E+03  0.23918434939E+03  0.00000000000E+00 0.  1.
          1    1    3    3  501    0  0.20175708897E+03 -0.48086988149E+02  0.14529316322E+03  0.25323582814E+03  0.00000000000E+00 0.  1.
         21    1    1    2  502  501 -0.32475447783E+02  0.60820588943E+01 -0.56769383177E+01  0.33524226729E+02  0.00000000000E+00 0.  1.
<scales pt_clust_4="550.00000" pt_clust_5="550.00000" pt_clust_6="33.04009"></scales>
<mgrwt>
<rscale>  0 0.30000000E+03</rscale>
<asrwt>  1 0.33040085E+02</asrwt>
<pdfrwt beam="1">  1        1 0.91252511E+00 0.30000000E+03</pdfrwt>
<pdfrwt beam="2">0</pdfrwt>
<totfact> 0.62873891E-05</totfact>
</mgrwt>
<clustering>
<clus scale="   33.040">  1  6  2 -1</clus>
<clus scale="  490.967">  4  5 -1 -1</clus>
<clus scale="  300.000">  1  4  2 -1</clus>
</clustering>
</event>
<event>
 6    1  0.1000035E-011  0.3000000E+03  0.7818608E-02  0.1093470E+00
          1   -1    0    0  502    0  0.00000000000E+00  0.00000000000E+00  0.23350144573E+03  0.23350144573E+03  0.00000000000E+00 0.  1.
         13   -1    0    0    0    0 -0.00000000000E+00 -0.00000000000E+00 -0.27500000000E+03  0.27500000000E+03  0.00000000000E+00 0.  1.
    9000005    2    1    2  501    0  0.36223213936E+02 -0.22728794957E+02 -0.37541775940E+02  0.46555525332E+03  0.46206448641E+03 0.  0.
         13    1    3    3    0    0 -0.64446693947E+02 -0.18798330972E+03  0.10543411892E+03  0.22496100668E+03  0.00000000000E+00 0.  1.
          1    1    3    3  501    0  0.10066990788E+03  0.16525451477E+03 -0.14297589486E+03  0.24059424664E+03  0.00000000000E+00 0.  1.
         21    1    1    2  502  501 -0.36223213936E+02  0.22728794957E+02 -0.39567783278E+01  0.42946192413E+02  0.00000000000E+00 0. -1.
<scales pt_clust_4="550.00000" pt_clust_5="550.00000" pt_clust_6="42.76355"></scales>
<mgrwt>
<rscale>  0 0.30000000E+03</rscale>
<asrwt>  1 0.42763550E+02</asrwt>
<pdfrwt beam="1">  1        1 0.84909617E+00 0.30000000E+03</pdfrwt>
<pdfrwt beam="2">0</pdfrwt>
<totfact> 0.39998206E-04</totfact>
</mgrwt>
<clustering>
<clus scale="   42.764">  1  6  2 -1</clus>
<clus scale="  462.064">  4  5 -1 -1</clus>
<clus scale="  300.000">  1  4  2 -1</clus>
</clustering>
</event>
<event>
 6    1  0.1000035E-011  0.3000000E+03  0.7818608E-02  0.1093470E+00
          1   -1    0    0  502    0  0.00000000000E+00  0.00000000000E+00  0.24388400991E+03  0.24388400991E+03  0.00000000000E+00 0.  1.
         13   -1    0    0    0    0 -0.00000000000E+00 -0.00000000000E+00 -0.27500000000E+03  0.27500000000E+03  0.00000000000E+00 0.  1.
    9000005    2    1    2  501    0  0.53998432241E+02 -0.81991929512E+01 -0.43640944192E+02  0.46284891444E+03  0.45753855372E+03 0.  0.
         13    1    3    3    0    0  0.62919884800E+02 -0.53040643613E+02 -0.24391454765E+03  0.25742285900E+03  0.00000000000E+00 0.  1.
          1    1    3    3  501    0 -0.89214525594E+01  0.44841450662E+02  0.20027360346E+03  0.20542605544E+03  0.00000000000E+00 0.  1.
         21    1    1    2  502  501 -0.53998432241E+02  0.81991929512E+01  0.12524954105E+02  0.56035095475E+02  0.00000000000E+00 0.  1.
<scales pt_clust_4="550.00000" pt_clust_5="550.00000" pt_clust_6="54.61737"></scales>
<mgrwt>
<rscale>  0 0.30000000E+03</rscale>
<asrwt>  1 0.54617373E+02</asrwt>
<pdfrwt beam="1">  1        1 0.88685095E+00 0.30000000E+03</pdfrwt>
<pdfrwt beam="2">0</pdfrwt>
<totfact> 0.14773235E-04</totfact>
</mgrwt>
<clustering>
<clus scale="   54.617">  1  6  2 -1</clus>
<clus scale="  457.539">  4  5 -1 -1</clus>
<clus scale="  300.000">  1  4  2 -1</clus>
</clustering>
</event>
<event>
 6    1  0.1000035E-011  0.3000000E+03  0.7818608E-02  0.1093470E+00
          1   -1    0    0  502    0  0.00000000000E+00  0.00000000000E+00  0.22819596438E+03  0.22819596438E+03  0.00000000000E+00 0.  1.
         13   -1    0    0    0    0 -0.00000000000E+00 -0.00000000000E+00 -0.27500000000E+03  0.27500000000E+03  0.00000000000E+00 0.  1.
    9000005    2    1    2  501    0  0.15786863792E+01 -0.41526942930E+02 -0.49786389953E+02  0.46153214702E+03  0.45695323488E+03 0.  0.
         13    1    3    3    0    0  0.16035723319E+03  0.45514045586E+02  0.12616432840E+03  0.20905360160E+03  0.00000000000E+00 0.  1.
          3    1    3    3  501    0 -0.15877854681E+03 -0.87040988516E+02 -0.17595071835E+03  0.25247854542E+03  0.00000000000E+00 0.  1.
         21    1    1    2  502  501 -0.15786863792E+01  0.41526942930E+02  0.29823543318E+01  0.41663817361E+02  0.00000000000E+00 0.  1.
<scales pt_clust_4="550.00000" pt_clust_5="550.00000" pt_clust_6="41.55694"></scales>
<mgrwt>
<rscale>  0 0.30000000E+03</rscale>
<asrwt>  1 0.41556940E+02</asrwt>
<pdfrwt beam="1">  1        1 0.82980351E+00 0.30000000E+03</pdfrwt>
<pdfrwt beam="2">0</pdfrwt>
<totfact> 0.57476857E-04</totfact>
</mgrwt>
<clustering>
<clus scale="   41.557">  1  6  2 -1</clus>
<clus scale="  456.953">  4  5 -1 -1</clus>
<clus scale="  300.000">  1  4  2 -1</clus>
</clustering>
</event>
<event>
 6    1  0.1000035E-011  0.3000000E+03  0.7818608E-02  0.1093470E+00
          1   -1    0    0  502    0  0.00000000000E+00  0.00000000000E+00  0.25234182274E+03  0.25234182274E+03  0.00000000000E+00 0.  1.
         13   -1    0    0    0    0 -0.00000000000E+00 -0.00000000000E+00 -0.27500000000E+03  0.27500000000E+03  0.00000000000E+00 0.  1.
    9000005    2    1    2  501    0  0.28921242482E+02 -0.86961891864E+01 -0.21073819825E+02  0.49709992859E+03  0.49573397216E+03 0.  0.
         13    1    3    3    0    0 -0.36139694676E+02 -0.19771188604E+03  0.13616519905E+03  0.24276949735E+03  0.00000000000E+00 0.  1.
          1    1    3    3  501    0  0.65060937158E+02  0.18901569685E+03 -0.15723901888E+03  0.25433043124E+03  0.00000000000E+00 0.  1.
         21    1    1    2  502  501 -0.28921242482E+02  0.86961891864E+01 -0.15843574349E+01  0.30241894147E+02  0.00000000000E+00 0.  1.
<scales pt_clust_4="550.00000" pt_clust_5="550.00000" pt_clust_6="30.20038"></scales>
<mgrwt>
<rscale>  0 0.30000000E+03</rscale>
<asrwt>  1 0.30200379E+02</asrwt>
<pdfrwt beam="1">  1        1 0.91760663E+00 0.30000000E+03</pdfrwt>
<pdfrwt beam="2">0</pdfrwt>
<totfact> 0.48547010E-05</totfact>
</mgrwt>
<clustering>
<clus scale="   30.200">  1  6  2 -1</clus>
<clus scale="  495.734">  4  5 -1 -1</clus>
<clus scale="  300.000">  1  4  2 -1</clus>
</clustering>
</event>
<event>
 6    1  0.1000035E-011  0.3000000E+03  0.7818608E-02  0.1093470E+00
          1   -1    0    0  502    0  0.00000000000E+00  0.00000000000E+00  0.22215024711E+03  0.22215024711E+03  0.00000000000E+00 0.  1.
         13   -1    0    0    0    0 -0.00000000000E+00 -0.00000000000E+00 -0.27500000000E+03  0.27500000000E+03  0.00000000000E+00 0.  1.
    9000005    2    1    2  501    0  0.12397913804E+02  0.29672278186E+02 -0.57600487102E+02  0.46464298892E+03  0.45993601586E+03 0.  0.
         13    1    3    3    0    0  0.22981799417E+02  0.53469807768E+02  0.19868698993E+03  0.20703551245E+03  0.00000000000E+00 0.  1.
          3    1    3    3  501    0 -0.10583885612E+02 -0.23797529583E+02 -0.25628747704E+03  0.25760747647E+03  0.00000000000E+00 0.  1.
         21    1    1    2  502  501 -0.12397913804E+02 -0.29672278186E+02  0.47507342162E+01  0.32507258190E+02  0.00000000000E+00 0.  1.
<scales pt_clust_4="550.00000" pt_clust_5="550.00000" pt_clust_6="32.15824"></scales>
<mgrwt>
<rscale>  0 0.30000000E+03</rscale>
<asrwt>  1 0.32158239E+02</asrwt>
<pdfrwt beam="1">  1        1 0.80781908E+00 0.30000000E+03</pdfrwt>
<pdfrwt beam="2">0</pdfrwt>
<totfact> 0.92134922E-04</totfact>
</mgrwt>
<clustering>
<clus scale="   32.158">  1  6  2 -1</clus>
<clus scale="  459.936">  4  5 -1 -1</clus>
<clus scale="  300.000">  1  4  2 -1</clus>
</clustering>
</event>
<event>
 6    1  0.1000035E-011  0.3000000E+03  0.7818608E-02  0.1093470E+00
          1   -1    0    0  502    0  0.00000000000E+00  0.00000000000E+00  0.22158557706E+03  0.22158557706E+03  0.00000000000E+00 0.  1.
         13   -1    0    0    0    0 -0.00000000000E+00 -0.00000000000E+00 -0.27500000000E+03  0.27500000000E+03  0.00000000000E+00 0.  1.
    9000005    2    1    2  501    0  0.34516546074E+02  0.73526443848E+01 -0.43547768402E+02  0.45994128413E+03  0.45651300462E+03 0.  0.
         13    1    3    3    0    0 -0.80774411455E+02  0.18262256747E+03 -0.12422360007E+03  0.23517442572E+03  0.00000000000E+00 0.  1.
          3    1    3    3  501    0  0.11529095753E+03 -0.17526992309E+03  0.80675831673E+02  0.22476685842E+03  0.00000000000E+00 0.  1.
         21    1    1    2  502  501 -0.34516546074E+02 -0.73526443848E+01 -0.98666545393E+01  0.36644292927E+02  0.00000000000E+00 0.  1.
<scales pt_clust_4="550.00000" pt_clust_5="550.00000" pt_clust_6="35.29100"></scales>
<mgrwt>
<rscale>  0 0.30000000E+03</rscale>
<asrwt>  1 0.35290999E+02</asrwt>
<pdfrwt beam="1">  1        1 0.80576573E+00 0.30000000E+03</pdfrwt>
<pdfrwt beam="2">0</pdfrwt>
<totfact> 0.93879049E-04</totfact>
</mgrwt>
<clustering>
<clus scale="   35.291">  1  6  2 -1</clus>
<clus scale="  456.513">  4  5 -1 -1</clus>
<clus scale="  300.000">  1  4  2 -1</clus>
</clustering>
</event>
<event>
 6    1  0.1000035E-011  0.3000000E+03  0.7818608E-02  0.1093470E+00
          1   -1    0    0  502    0  0.00000000000E+00  0.00000000000E+00  0.23847354764E+03  0.23847354764E+03  0.00000000000E+00 0.  1.
         13   -1    0    0    0    0 -0.00000000000E+00 -0.00000000000E+00 -0.27500000000E+03  0.27500000000E+03  0.00000000000E+00 0.  1.
    9000005    2    1    2  501    0  0.30673627577E+02 -0.18783401160E+02 -0.38445890906E+02  0.47745449945E+03  0.47454296426E+03 0.  0.
         13    1    3    3    0    0  0.21400703880E+03  0.29304161412E+02  0.10460008303E+03  0.23999775812E+03  0.00000000000E+00 0.  1.
          1    1    3    3  501    0 -0.18333341122E+03 -0.48087562571E+02 -0.14304597393E+03  0.23745674133E+03  0.00000000000E+00 0.  1.
         21    1    1    2  502  501 -0.30673627577E+02  0.18783401160E+02  0.19194385408E+01  0.36019048186E+02  0.00000000000E+00 0.  1.
<scales pt_clust_4="550.00000" pt_clust_5="550.00000" pt_clust_6="35.96787"></scales>
<mgrwt>
<rscale>  0 0.30000000E+03</rscale>
<asrwt>  1 0.35967869E+02</asrwt>
<pdfrwt beam="1">  1        1 0.86717654E+00 0.30000000E+03</pdfrwt>
<pdfrwt beam="2">0</pdfrwt>
<totfact> 0.26948280E-04</totfact>
</mgrwt>
<clustering>
<clus scale="   35.968">  1  6  2 -1</clus>
<clus scale="  474.543">  4  5 -1 -1</clus>
<clus scale="  300.000">  1  4  2 -1</clus>
</clustering>
</event>
<event>
 6    1  0.1000035E-011  0.3000000E+03  0.7818608E-02  0.1093470E+00
          1   -1    0    0  502    0  0.00000000000E+00  0.00000000000E+00  0.22133602177E+03  0.22133602177E+03  0.00000000000E+00 0.  1.
         13   -1    0    0    0    0 -0.00000000000E+00 -0.00000000000E+00 -0.27500000000E+03  0.27500000000E+03  0.00000000000E+00 0.  1.
    9000005    2    1    2  501    0 -0.29935222950E+02 -0.41894534584E+01 -0.61179259285E+02  0.46518881415E+03  0.46015656243E+03 0.  0.
         13    1    3    3    0    0  0.15656226736E+03 -0.45462113960E+02  0.11960000480E+03  0.20219472920E+03  0.00000000000E+00 0.  1.
          3    1    3    3  501    0 -0.18649749031E+03  0.41272660501E+02 -0.18077926408E+03  0.26299408495E+03  0.00000000000E+00 0.  1.
         21    1    1    2  502  501  0.29935222950E+02  0.41894534584E+01  0.75152810581E+01  0.31147207623E+02  0.00000000000E+00 0. -1.
<scales pt_clust_4="550.00000" pt_clust_5="550.00000" pt_clust_6="30.22696"></scales>
<mgrwt>
<rscale>  0 0.30000000E+03</rscale>
<asrwt>  1 0.30226960E+02</asrwt>
<pdfrwt beam="1">  1        1 0.80485826E+00 0.30000000E+03</pdfrwt>
<pdfrwt beam="2">0</pdfrwt>
<totfact> 0.98223432E-04</totfact>
</mgrwt>
<clustering>
<clus scale="   30.227">  1  6  2 -1</clus>
<clus scale="  460.157">  4  5 -1 -1</clus>
<clus scale="  300.000">  1  4  2 -1</clus>
</clustering>
</event>
<event>
 6    1  0.1000035E-011  0.3000000E+03  0.7818608E-02  0.1093470E+00
          1   -1    0    0  502    0  0.00000000000E+00  0.00000000000E+00  0.23369499159E+03  0.23369499159E+03  0.00000000000E+00 0.  1.
         13   -1    0    0    0    0 -0.00000000000E+00 -0.00000000000E+00 -0.27500000000E+03  0.27500000000E+03  0.00000000000E+00 0.  1.
    9000005    2    1    2  501    0 -0.28639189450E+01 -0.38537506762E+02 -0.59326502385E+02  0.46605562358E+03  0.46064614285E+03 0.  0.
         13    1    3    3    0    0  0.96517022891E+02 -0.17400988918E+03  0.11012683289E+03  0.22742668393E+03  0.00000000000E+00 0.  1.
          1    1    3    3  501    0 -0.99380941836E+02  0.13547238242E+03 -0.16945333528E+03  0.23862893965E+03  0.00000000000E+00 0.  1.
         21    1    1    2  502  501  0.28639189450E+01  0.38537506762E+02  0.18021493971E+02  0.42639368008E+02  0.00000000000E+00 0.  1.
<scales pt_clust_4="550.00000" pt_clust_5="550.00000" pt_clust_6="38.64378"></scales>
<mgrwt>
<rscale>  0 0.30000000E+03</rscale>
<asrwt>  1 0.38643776E+02</asrwt>
<pdfrwt beam="1">  1        1 0.84979997E+00 0.30000000E+03</pdfrwt>
<pdfrwt beam="2">0</pdfrwt>
<totfact> 0.40131212E-04</totfact>
</mgrwt>
<clustering>
<clus scale="   38.644">  1  6  2 -1</clus>
<clus scale="  460.646">  4  5 -1 -1</clus>
<clus scale="  300.000">  1  4  2 -1</clus>
</clustering>
</event>
<event>
 6    1  0.1000035E-011  0.3000000E+03  0.7818608E-02  0.1093470E+00
          1   -1    0    0  502    0  0.00000000000E+00  0.00000000000E+00  0.23785994731E+03  0.23785994731E+03  0.00000000000E+00 0.  1.
         13   -1    0    0    0    0 -0.00000000000E+00 -0.00000000000E+00 -0.27500000000E+03  0.27500000000E+03  0.00000000000E+00 0.  1.
    9000005    2    1    2  501    0 -0.28725909446E+02  0.15508539787E+02 -0.24900285554E+02  0.47799586007E+03  0.47622927813E+03 0.  0.
         13    1    3    3    0    0 -0.75386597479E+02 -0.21244898079E+03  0.54884937314E+02  0.23201307046E+03  0.00000000000E+00 0.  1.
          3    1    3    3  501    0  0.46660688033E+02  0.22795752058E+03 -0.79785222867E+02  0.24598278961E+03  0.00000000000E+00 0.  1.
         21    1    1    2  502  501  0.28725909446E+02 -0.15508539787E+02 -0.12239767133E+02  0.34864087243E+02  0.00000000000E+00 0.  1.
<scales pt_clust_4="550.00000" pt_clust_5="550.00000" pt_clust_6="32.64497"></scales>
<mgrwt>
<rscale>  0 0.30000000E+03</rscale>
<asrwt>  1 0.32644965E+02</asrwt>
<pdfrwt beam="1">  1        1 0.86494526E+00 0.30000000E+03</pdfrwt>
<pdfrwt beam="2">0</pdfrwt>
<totfact> 0.28986520E-04</totfact>
</mgrwt>
<clustering>
<clus scale="   32.645">  1  6  2 -1</clus>
<clus scale="  476.229">  4  5 -1 -1</clus>
<clus scale="  300.000">  1  4  2 -1</clus>
</clustering>
</event>
<event>
 6    1  0.1000035E-011  0.3000000E+03  0.7818608E-02  0.1093470E+00
          1   -1    0    0  502    0  0.00000000000E+00  0.00000000000E+00  0.22769278777E+03  0.22769278777E+03  0.00000000000E+00 0.  1.
         13   -1    0    0    0    0 -0.00000000000E+00 -0.00000000000E+00 -0.27500000000E+03  0.27500000000E+03  0.00000000000E+00 0.  1.
    9000005    2    1    2  501    0 -0.26862095417E+02  0.20150018116E+02 -0.54743115346E+02  0.46829964811E+03  0.46387515168E+03 0.  0.
         13    1    3    3    0    0  0.31168212266E+02 -0.19595981407E+03 -0.12409596188E+03  0.23403314710E+03  0.00000000000E+00 0.  1.
          1    1    3    3  501    0 -0.58030307683E+02  0.21610983218E+03  0.69352846532E+02  0.23426650102E+03  0.00000000000E+00 0.  1.
         21    1    1    2  502  501  0.26862095417E+02 -0.20150018116E+02  0.74359031177E+01  0.34393139657E+02  0.00000000000E+00 0. -1.
<scales pt_clust_4="550.00000" pt_clust_5="550.00000" pt_clust_6="33.57969"></scales>
<mgrwt>
<rscale>  0 0.30000000E+03</rscale>
<asrwt>  1 0.33579687E+02</asrwt>
<pdfrwt beam="1">  1        1 0.82797377E+00 0.30000000E+03</pdfrwt>
<pdfrwt beam="2">0</pdfrwt>
<totfact> 0.61966795E-04</totfact>
</mgrwt>
<clustering>
<clus scale="   33.580">  1  6  2 -1</clus>
<clus scale="  463.875">  4  5 -1 -1</clus>
<clus scale="  300.000">  1  4  2 -1</clus>
</clustering>
</event>
<event>
 6    1  0.1000035E-011  0.3000000E+03  0.7818608E-02  0.1093470E+00
          1   -1    0    0  502    0  0.00000000000E+00  0.00000000000E+00  0.25879295632E+03  0.25879295632E+03  0.00000000000E+00 0.  1.
         13   -1    0    0    0    0 -0.00000000000E+00 -0.00000000000E+00 -0.27500000000E+03  0.27500000000E+03  0.00000000000E+00 0.  1.
    9000005    2    1    2  501    0  0.16313377318E+02  0.43531545446E+02 -0.50303907895E+02  0.47614126183E+03  0.47118881177E+03 0.  0.
         13    1    3    3    0    0  0.19431450923E+02 -0.21121976142E+03 -0.62351638398E+02  0.22108617259E+03  0.00000000000E+00 0.  1.
          3    1    3    3  501    0 -0.31180736052E+01  0.25475130687E+03  0.12047730503E+02  0.25505508924E+03  0.00000000000E+00 0.  1.
         21    1    1    2  502  501 -0.16313377318E+02 -0.43531545446E+02  0.34096864215E+02  0.57651694491E+02  0.00000000000E+00 0.  1.
<scales pt_clust_4="550.00000" pt_clust_5="550.00000" pt_clust_6="46.48787"></scales>
<mgrwt>
<rscale>  0 0.30000000E+03</rscale>
<asrwt>  1 0.46487866E+02</asrwt>
<pdfrwt beam="1">  1        1 0.94106530E+00 0.30000000E+03</pdfrwt>
<pdfrwt beam="2">0</pdfrwt>
<totfact> 0.17442308E-05</totfact>
</mgrwt>
<clustering>
<clus scale="   46.488">  1  6  2 -1</clus>
<clus scale="  471.189">  4  5 -1 -1</clus>
<clus scale="  300.000">  1  4  2 -1</clus>
</clustering>
</event>
<event>
 6    1  0.1000035E-011  0.3000000E+03  0.7818608E-02  0.1093470E+00
          1   -1    0    0  502    0  0.00000000000E+00  0.00000000000E+00  0.26838916890E+03  0.26838916890E+03  0.00000000000E+00 0.  1.
         13   -1    0    0    0    0 -0.00000000000E+00 -0.00000000000E+00 -0.27500000000E+03  0.27500000000E+03  0.00000000000E+00 0.  1.
    9000005    2    1    2  501    0 -0.49059580635E+02 -0.23350766761E+01 -0.24964698093E+02  0.49095674126E+03  0.48785550176E+03 0.  0.
         13    1    3    3    0    0  0.24469210625E+02  0.13400648118E+03 -0.20958112638E+03  0.24996145264E+03  0.00000000000E+00 0.  1.
          1    1    3    3  501    0 -0.73528791260E+02 -0.13634155786E+03  0.18461642829E+03  0.24099528862E+03  0.00000000000E+00 0.  1.
         21    1    1    2  502  501  0.49059580635E+02  0.23350766761E+01  0.18353866996E+02  0.52432427646E+02  0.00000000000E+00 0. -1.
<scales pt_clust_4="550.00000" pt_clust_5="550.00000" pt_clust_6="49.11512"></scales>
<mgrwt>
<rscale>  0 0.30000000E+03</rscale>
<asrwt>  1 0.49115120E+02</asrwt>
<pdfrwt beam="1">  1        1 0.97596061E+00 0.30000000E+03</pdfrwt>
<pdfrwt beam="2">0</pdfrwt>
<totfact> 0.36434706E-06</totfact>
</mgrwt>
<clustering>
<clus scale="   49.115">  1  6  2 -1</clus>
<clus scale="  487.856">  4  5 -1 -1</clus>
<clus scale="  300.000">  1  4  2 -1</clus>
</clustering>
</event>
<event>
 6    1  0.1000035E-011  0.3000000E+03  0.7818608E-02  0.1093470E+00
          1   -1    0    0  502    0  0.00000000000E+00  0.00000000000E+00  0.22678814065E+03  0.22678814065E+03  0.00000000000E+00 0.  1.
         13   -1    0    0    0    0 -0.00000000000E+00 -0.00000000000E+00 -0.27500000000E+03  0.27500000000E+03  0.00000000000E+00 0.  1.
    9000005    2    1    2  501    0  0.64369111025E+01 -0.31565780074E+02 -0.55681074655E+02  0.46871819246E+03  0.46428281206E+03 0.  0.
         13    1    3    3    0    0  0.28589830141E+02  0.17178110688E+03  0.10957879527E+03  0.20575140204E+03  0.00000000000E+00 0.  1.
          3    1    3    3  501    0 -0.22152919039E+02 -0.20334688696E+03 -0.16525986992E+03  0.26296679042E+03  0.00000000000E+00 0.  1.
         21    1    1    2  502  501 -0.64369111025E+01  0.31565780074E+02  0.74692153089E+01  0.33069948194E+02  0.00000000000E+00 0. -1.
<scales pt_clust_4="550.00000" pt_clust_5="550.00000" pt_clust_6="32.21540"></scales>
<mgrwt>
<rscale>  0 0.30000000E+03</rscale>
<asrwt>  1 0.32215405E+02</asrwt>
<pdfrwt beam="1">  1        1 0.82468415E+00 0.30000000E+03</pdfrwt>
<pdfrwt beam="2">0</pdfrwt>
<totfact> 0.66778066E-04</totfact>
</mgrwt>
<clustering>
<clus scale="   32.215">  1  6  2 -1</clus>
<clus scale="  464.283">  4  5 -1 -1</clus>
<clus scale="  300.000">  1  4  2 -1</clus>
</clustering>
</event>
<event>
 6    1  0.1000035E-011  0.3000000E+03  0.7818608E-02  0.1093470E+00
          1   -1    0    0  502    0  0.00000000000E+00  0.00000000000E+00  0.24604829558E+03  0.24604829558E+03  0.00000000000E+00 0.  1.
         13   -1    0    0    0    0 -0.00000000000E+00 -0.00000000000E+00 -0.27500000000E+03  0.27500000000E+03  0.00000000000E+00 0.  1.
    9000005    2    1    2  501    0  0.66814189327E+01 -0.49195767108E+02 -0.46126607390E+02  0.46851409574E+03  0.46358702434E+03 0.  0.
         13    1    3    3    0    0 -0.20783571044E+03 -0.88809737121E+02 -0.94657928687E+02  0.24503668176E+03  0.00000000000E+00 0.  1.
          1    1    3    3  501    0  0.21451712937E+03  0.39613970013E+02  0.48531321297E+02  0.22347741399E+03  0.00000000000E+00 0.  1.
         21    1    1    2  502  501 -0.66814189327E+01  0.49195767108E+02  0.17174902967E+02  0.52534199834E+02  0.00000000000E+00 0.  1.
<scales pt_clust_4="550.00000" pt_clust_5="550.00000" pt_clust_6="49.64741"></scales>
<mgrwt>
<rscale>  0 0.30000000E+03</rscale>
<asrwt>  1 0.49647405E+02</asrwt>
<pdfrwt beam="1">  1        1 0.89472107E+00 0.30000000E+03</pdfrwt>
<pdfrwt beam="2">0</pdfrwt>
<totfact> 0.11921079E-04</totfact>
</mgrwt>
<clustering>
<clus scale="   49.647">  1  6  2 -1</clus>
<clus scale="  463.587">  4  5 -1 -1</clus>
<clus scale="  300.000">  1  4  2 -1</clus>
</clustering>
</event>
<event>
 6    1  0.1000035E-011  0.3000000E+03  0.7818608E-02  0.1093470E+00
          1   -1    0    0  502    0  0.00000000000E+00  0.00000000000E+00  0.25421489498E+03  0.25421489498E+03  0.00000000000E+00 0.  1.
         13   -1    0    0    0    0 -0.00000000000E+00 -0.00000000000E+00 -0.27500000000E+03  0.27500000000E+03  0.00000000000E+00 0.  1.
    9000005    2    1    2  501    0  0.59002323524E+01  0.32813300961E+02 -0.68779537785E+02  0.47077697032E+03  0.46453073688E+03 0.  0.
         13    1    3    3    0    0 -0.21863903042E+03 -0.48739510188E+02 -0.59190551569E+02  0.23169395087E+03  0.00000000000E+00 0.  1.
          3    1    3    3  501    0  0.22453926277E+03  0.81552811150E+02 -0.95889862160E+01  0.23908301945E+03  0.00000000000E+00 0.  1.
         21    1    1    2  502  501 -0.59002323524E+01 -0.32813300961E+02  0.47994432761E+02  0.58437924653E+02  0.00000000000E+00 0. -1.
<scales pt_clust_4="550.00000" pt_clust_5="550.00000" pt_clust_6="33.33955"></scales>
<mgrwt>
<rscale>  0 0.30000000E+03</rscale>
<asrwt>  1 0.33339548E+02</asrwt>
<pdfrwt beam="1">  1        1 0.92441780E+00 0.30000000E+03</pdfrwt>
<pdfrwt beam="2">0</pdfrwt>
<totfact> 0.34024386E-05</totfact>
</mgrwt>
<clustering>
<clus scale="   33.340">  1  6  2 -1</clus>
<clus scale="  464.531">  4  5 -1 -1</clus>
<clus scale="  300.000">  1  4  2 -1</clus>
</clustering>
</event>
<event>
 6    1  0.1000035E-011  0.3000000E+03  0.7818608E-02  0.1093470E+00
          1   -1    0    0  502    0  0.00000000000E+00  0.00000000000E+00  0.24292382440E+03  0.24292382440E+03  0.00000000000E+00 0.  1.
         13   -1    0    0    0    0 -0.00000000000E+00 -0.00000000000E+00 -0.27500000000E+03  0.27500000000E+03  0.00000000000E+00 0.  1.
    9000005    2    1    2  501    0 -0.27380819782E+02  0.20606831108E+02 -0.17744861161E+02  0.48077900842E+03  0.47922773716E+03 0.  0.
         13    1    3    3    0    0 -0.43239580942E+02 -0.11380351865E+02 -0.24585707337E+03  0.24988972427E+03  0.00000000000E+00 0.  1.
          1    1    3    3  501    0  0.15858761160E+02  0.31987182973E+02  0.22811221221E+03  0.23088928416E+03  0.00000000000E+00 0.  1.
         21    1    1    2  502  501  0.27380819782E+02 -0.20606831108E+02 -0.14331314442E+02  0.37144815975E+02  0.00000000000E+00 0.  1.
<scales pt_clust_4="550.00000" pt_clust_5="550.00000" pt_clust_6="34.26882"></scales>
<mgrwt>
<rscale>  0 0.30000000E+03</rscale>
<asrwt>  1 0.34268819E+02</asrwt>
<pdfrwt beam="1">  1        1 0.88335936E+00 0.30000000E+03</pdfrwt>
<pdfrwt beam="2">0</pdfrwt>
<totfact> 0.17933698E-04</totfact>
</mgrwt>
<clustering>
<clus scale="   34.269">  1  6  2 -1</clus>
<clus scale="  479.228">  4  5 -1 -1</clus>
<clus scale="  300.000">  1  4  2 -1</clus>
</clustering>
</event>
<event>
 6    1  0.1000035E-011  0.3000000E+03  0.7818608E-02  0.1093470E+00
          1   -1    0    0  502    0  0.00000000000E+00  0.00000000000E+00  0.22979953348E+03  0.22979953348E+03  0.00000000000E+00 0.  1.
         13   -1    0    0    0    0 -0.00000000000E+00 -0.00000000000E+00 -0.27500000000E+03  0.27500000000E+03  0.00000000000E+00 0.  1.
    9000005    2    1    2  501    0  0.33270160316E+02 -0.23565507764E+02 -0.57033607188E+02  0.46234650129E+03  0.45700023871E+03 0.  0.
         13    1    3    3    0    0 -0.63650823952E+02  0.19405371095E+03 -0.87497329097E+02  0.22218022577E+03  0.00000000000E+00 0.  1.
          1    1    3    3  501    0  0.96920984268E+02 -0.21761921872E+03  0.30463721909E+02  0.24016627552E+03  0.00000000000E+00 0.  1.
         21    1    1    2  502  501 -0.33270160316E+02  0.23565507764E+02  0.11833140664E+02  0.42453032184E+02  0.00000000000E+00 0. -1.
<scales pt_clust_4="550.00000" pt_clust_5="550.00000" pt_clust_6="40.77054"></scales>
<mgrwt>
<rscale>  0 0.30000000E+03</rscale>
<asrwt>  1 0.40770537E+02</asrwt>
<pdfrwt beam="1">  1        1 0.83563467E+00 0.30000000E+03</pdfrwt>
<pdfrwt beam="2">0</pdfrwt>
<totfact> 0.52040928E-04</totfact>
</mgrwt>
<clustering>
<clus scale="   40.771">  1  6  2 -1</clus>
<clus scale="  457.000">  4  5 -1 -1</clus>
<clus scale="  300.000">  1  4  2 -1</clus>
</clustering>
</event>
<event>
 6    1  0.1000035E-011  0.3000000E+03  0.7818608E-02  0.1093470E+00
          1   -1    0    0  502    0  0.00000000000E+00  0.00000000000E+00  0.24067429620E+03  0.24067429620E+03  0.00000000000E+00 0.  1.
         13   -1    0    0    0    0 -0.00000000000E+00 -0.00000000000E+00 -0.27500000000E+03  0.27500000000E+03  0.00000000000E+00 0.  1.
    9000005    2    1    2  501    0  0.31032565639E+02 -0.82201835318E+01 -0.70321175818E+02  0.46744292101E+03  0.46100675167E+03 0.  0.
         13    1    3    3    0    0  0.18913872235E+03 -0.15627127443E+03 -0.30917047325E+02  0.24728532371E+03  0.00000000000E+00 0.  1.
          1    1    3    3  501    0 -0.15810615671E+03  0.14805109090E+03 -0.39404128493E+02  0.22015759730E+03  0.00000000000E+00 0.  1.
         21    1    1    2  502  501 -0.31032565639E+02  0.82201835318E+01  0.35995472023E+02  0.48231375199E+02  0.00000000000E+00 0. -1.
<scales pt_clust_4="550.00000" pt_clust_5="550.00000" pt_clust_6="32.10283"></scales>
<mgrwt>
<rscale>  0 0.30000000E+03</rscale>
<asrwt>  1 0.32102828E+02</asrwt>
<pdfrwt beam="1">  1        1 0.87517926E+00 0.30000000E+03</pdfrwt>
<pdfrwt beam="2">0</pdfrwt>
<totfact> 0.22762332E-04</totfact>
</mgrwt>
<clustering>
<clus scale="   32.103">  1  6  2 -1</clus>
<clus scale="  461.007">  4  5 -1 -1</clus>
<clus scale="  300.000">  1  4  2 -1</clus>
</clustering>
</event>
<event>
 6    1  0.1000035E-011  0.3000000E+03  0.7818608E-02  0.1093470E+00
          1   -1    0    0  502    0  0.00000000000E+00  0.00000000000E+00  0.23924368368E+03  0.23924368368E+03  0.00000000000E+00 0.  1.
         13   -1    0    0    0    0 -0.00000000000E+00 -0.00000000000E+00 -0.27500000000E+03  0.27500000000E+03  0.00000000000E+00 0.  1.
    9000005    2    1    2  501    0  0.69965522673E+01 -0.29566634805E+02 -0.56411764619E+02  0.47750426096E+03  0.47318589836E+03 0.  0.
         13    1    3    3    0    0 -0.88576490515E+02 -0.12127474315E+03  0.16273327659E+03  0.22143955678E+03  0.00000000000E+00 0.  1.
          3    1    3    3  501    0  0.95573042783E+02  0.91708108343E+02 -0.21914504121E+03  0.25606470418E+03  0.00000000000E+00 0.  1.
         21    1    1    2  502  501 -0.69965522673E+01  0.29566634805E+02  0.20655448301E+02  0.36739422721E+02  0.00000000000E+00 0. -1.
<scales pt_clust_4="550.00000" pt_clust_5="550.00000" pt_clust_6="30.38318"></scales>
<mgrwt>
<rscale>  0 0.30000000E+03</rscale>
<asrwt>  1 0.30383180E+02</asrwt>
<pdfrwt beam="1">  1        1 0.86997703E+00 0.30000000E+03</pdfrwt>
<pdfrwt beam="2">0</pdfrwt>
<totfact> 0.26027399E-04</totfact>
</mgrwt>
<clustering>
<clus scale="   30.383">  1  6  2 -1</clus>
<clus scale="  473.186">  4  5 -1 -1</clus>
<clus scale="  300.000">  1  4  2 -1</clus>
</clustering>
</event>
<event>
 6    1  0.1000035E-011  0.3000000E+03  0.7818608E-02  0.1093470E+00
          1   -1    0    0  502    0  0.00000000000E+00  0.00000000000E+00  0.23163883172E+03  0.23163883172E+03  0.00000000000E+00 0.  1.
         13   -1    0    0    0    0 -0.00000000000E+00 -0.00000000000E+00 -0.27500000000E+03  0.27500000000E+03  0.00000000000E+00 0.  1.
    9000005    2    1    2  501    0  0.11206823476E+02  0.30772115750E+02 -0.45807288360E+02  0.47379831553E+03  0.47044024076E+03 0.  0.
         13    1    3    3    0    0 -0.20425905144E+03 -0.73591128565E+02 -0.81173836607E+02  0.23179000420E+03  0.00000000000E+00 0.  1.
          1    1    3    3  501    0  0.21546587491E+03  0.10436324432E+03  0.35366548247E+02  0.24200831133E+03  0.00000000000E+00 0.  1.
         21    1    1    2  502  501 -0.11206823476E+02 -0.30772115750E+02  0.24461200756E+01  0.32840516190E+02  0.00000000000E+00 0.  1.
<scales pt_clust_4="550.00000" pt_clust_5="550.00000" pt_clust_6="32.74929"></scales>
<mgrwt>
<rscale>  0 0.30000000E+03</rscale>
<asrwt>  1 0.32749290E+02</asrwt>
<pdfrwt beam="1">  1        1 0.84232302E+00 0.30000000E+03</pdfrwt>
<pdfrwt beam="2">0</pdfrwt>
<totfact> 0.48221368E-04</totfact>
</mgrwt>
<clustering>
<clus scale="   32.749">  1  6  2 -1</clus>
<clus scale="  470.440">  4  5 -1 -1</clus>
<clus scale="  300.000">  1  4  2 -1</clus>
</clustering>
</event>
<event>
 6    1  0.1000035E-011  0.3000000E+03  0.7818608E-02  0.1093470E+00
          1   -1    0    0  502    0  0.00000000000E+00  0.00000000000E+00  0.24544509186E+03  0.24544509186E+03  0.00000000000E+00 0.  1.
         13   -1    0    0    0    0 -0.00000000000E+00 -0.00000000000E+00 -0.27500000000E+03  0.27500000000E+03  0.00000000000E+00 0.  1.
    9000005    2    1    2  501    0  0.25634365684E+02  0.22307778526E+02 -0.33975874719E+02  0.48617699252E+03  0.48379639344E+03 0.  0.
         13    1    3    3    0    0 -0.66918696803E+02  0.20025512141E+03 -0.14574784109E+03  0.25655926959E+03  0.00000000000E+00 0.  1.
          1    1    3    3  501    0  0.92553062486E+02 -0.17794734288E+03  0.11177196637E+03  0.22961772292E+03  0.00000000000E+00 0.  1.
         21    1    1    2  502  501 -0.25634365684E+02 -0.22307778526E+02  0.44209665752E+01  0.34268099338E+02  0.00000000000E+00 0.  1.
<scales pt_clust_4="550.00000" pt_clust_5="550.00000" pt_clust_6="33.98173"></scales>
<mgrwt>
<rscale>  0 0.30000000E+03</rscale>
<asrwt>  1 0.33981726E+02</asrwt>
<pdfrwt beam="1">  1        1 0.89252761E+00 0.30000000E+03</pdfrwt>
<pdfrwt beam="2">0</pdfrwt>
<totfact> 0.13540332E-04</totfact>
</mgrwt>
<clustering>
<clus scale="   33.982">  1  6  2 -1</clus>
<clus scale="  483.796">  4  5 -1 -1</clus>
<clus scale="  300.000">  1  4  2 -1</clus>
</clustering>
</event>
<event>
 6    1  0.1000035E-011  0.3000000E+03  0.7818608E-02  0.1093470E+00
          1   -1    0    0  502    0  0.00000000000E+00  0.00000000000E+00  0.25370001441E+03  0.25370001441E+03  0.00000000000E+00 0.  1.
         13   -1    0    0    0    0 -0.00000000000E+00 -0.00000000000E+00 -0.27500000000E+03  0.27500000000E+03  0.00000000000E+00 0.  1.
    9000005    2    1    2  501    0 -0.14285037940E+00 -0.45077179617E+02 -0.53284736925E+02  0.47342798851E+03  0.46825508496E+03 0.  0.
         13    1    3    3    0    0 -0.20970896625E+03 -0.11798232588E+03 -0.70891554936E+02  0.25084515604E+03  0.00000000000E+00 0.  1.
          1    1    3    3  501    0  0.20956611587E+03  0.72905146258E+02  0.17606818011E+02  0.22258283248E+03  0.00000000000E+00 0.  1.
         21    1    1    2  502  501  0.14285037940E+00  0.45077179617E+02  0.31984751330E+02  0.55272025891E+02  0.00000000000E+00 0. -1.
<scales pt_clust_4="550.00000" pt_clust_5="550.00000" pt_clust_6="45.07741"></scales>
<mgrwt>
<rscale>  0 0.30000000E+03</rscale>
<asrwt>  1 0.45077406E+02</asrwt>
<pdfrwt beam="1">  1        1 0.92254551E+00 0.30000000E+03</pdfrwt>
<pdfrwt beam="2">0</pdfrwt>
<totfact> 0.35217206E-05</totfact>
</mgrwt>
<clustering>
<clus scale="   45.077">  1  6  2 -1</clus>
<clus scale="  468.255">  4  5 -1 -1</clus>
<clus scale="  300.000">  1  4  2 -1</clus>
</clustering>
</event>
<event>
 6    1  0.1000035E-011  0.3000000E+03  0.7818608E-02  0.1093470E+00
          1   -1    0    0  502    0  0.00000000000E+00  0.00000000000E+00  0.24801821474E+03  0.24801821474E+03  0.00000000000E+00 0.  1.
         13   -1    0    0    0    0 -0.00000000000E+00 -0.00000000000E+00 -0.27500000000E+03  0.27500000000E+03  0.00000000000E+00 0.  1.
    9000005    2    1    2  501    0  0.48894451515E+02  0.29784761684E+01 -0.45691275779E+02  0.47058174132E+03  0.46578959185E+03 0.  0.
         13    1    3    3    0    0 -0.19929306868E+02  0.19688302536E+03 -0.14183672737E+03  0.24347024496E+03  0.00000000000E+00 0.  1.
          3    1    3    3  501    0  0.68823758383E+02 -0.19390454920E+03  0.96145451593E+02  0.22711149636E+03  0.00000000000E+00 0.  1.
         21    1    1    2  502  501 -0.48894451515E+02 -0.29784761684E+01  0.18709490518E+02  0.52436473419E+02  0.00000000000E+00 0. -1.
<scales pt_clust_4="550.00000" pt_clust_5="550.00000" pt_clust_6="48.98509"></scales>
<mgrwt>
<rscale>  0 0.30000000E+03</rscale>
<asrwt>  1 0.48985087E+02</asrwt>
<pdfrwt beam="1">  1        1 0.90188442E+00 0.30000000E+03</pdfrwt>
<pdfrwt beam="2">0</pdfrwt>
<totfact> 0.98033456E-05</totfact>
</mgrwt>
<clustering>
<clus scale="   48.985">  1  6  2 -1</clus>
<clus scale="  465.790">  4  5 -1 -1</clus>
<clus scale="  300.000">  1  4  2 -1</clus>
</clustering>
</event>
<event>
 6    1  0.1000035E-011  0.3000000E+03  0.7818608E-02  0.1093470E+00
          1   -1    0    0  502    0  0.00000000000E+00  0.00000000000E+00  0.26725121871E+03  0.26725121871E+03  0.00000000000E+00 0.  1.
         13   -1    0    0    0    0 -0.00000000000E+00 -0.00000000000E+00 -0.27500000000E+03  0.27500000000E+03  0.00000000000E+00 0.  1.
    9000005    2    1    2  501    0 -0.31636761747E+02  0.30657168710E+02 -0.41487463013E+02  0.48676207264E+03  0.48298587876E+03 0.  0.
         13    1    3    3    0    0 -0.82722040248E+02 -0.51274321617E+02  0.20233130389E+03  0.22452159926E+03  0.00000000000E+00 0.  1.
          3    1    3    3  501    0  0.51085278501E+02  0.81931490327E+02 -0.24381876690E+03  0.26224047338E+03  0.00000000000E+00 0.  1.
         21    1    1    2  502  501  0.31636761747E+02 -0.30657168710E+02  0.33738681718E+02  0.55489146067E+02  0.00000000000E+00 0.  1.
<scales pt_clust_4="550.00000" pt_clust_5="550.00000" pt_clust_6="44.05391"></scales>
<mgrwt>
<rscale>  0 0.30000000E+03</rscale>
<asrwt>  1 0.44053907E+02</asrwt>
<pdfrwt beam="1">  1        1 0.97182261E+00 0.30000000E+03</pdfrwt>
<pdfrwt beam="2">0</pdfrwt>
<totfact> 0.44622034E-06</totfact>
</mgrwt>
<clustering>
<clus scale="   44.054">  1  6  2 -1</clus>
<clus scale="  482.986">  4  5 -1 -1</clus>
<clus scale="  300.000">  1  4  2 -1</clus>
</clustering>
</event>
<event>
 6    1  0.1000035E-011  0.3000000E+03  0.7818608E-02  0.1093470E+00
          1   -1    0    0  502    0  0.00000000000E+00  0.00000000000E+00  0.24991371107E+03  0.24991371107E+03  0.00000000000E+00 0.  1.
         13   -1    0    0    0    0 -0.00000000000E+00 -0.00000000000E+00 -0.27500000000E+03  0.27500000000E+03  0.00000000000E+00 0.  1.
    9000005    2    1    2  501    0 -0.29435971850E+02  0.20089449374E+02 -0.53950962943E+02  0.47905270562E+03  0.47466906993E+03 0.  0.
         13    1    3    3    0    0 -0.14705680645E+03  0.99176301578E+02  0.14890143007E+03  0.23158859858E+03  0.00000000000E+00 0.  1.
          1    1    3    3  501    0  0.11762083460E+03 -0.79086852204E+02 -0.20285239301E+03  0.24746410704E+03  0.00000000000E+00 0.  1.
         21    1    1    2  502  501  0.29435971850E+02 -0.20089449374E+02  0.28864674015E+02  0.45861005450E+02  0.00000000000E+00 0.  1.
<scales pt_clust_4="550.00000" pt_clust_5="550.00000" pt_clust_6="35.63794"></scales>
<mgrwt>
<rscale>  0 0.30000000E+03</rscale>
<asrwt>  1 0.35637935E+02</asrwt>
<pdfrwt beam="1">  1        1 0.90877713E+00 0.30000000E+03</pdfrwt>
<pdfrwt beam="2">0</pdfrwt>
<totfact> 0.76591707E-05</totfact>
</mgrwt>
<clustering>
<clus scale="   35.638">  1  6  2 -1</clus>
<clus scale="  474.669">  4  5 -1 -1</clus>
<clus scale="  300.000">  1  4  2 -1</clus>
</clustering>
</event>
<event>
 6    1  0.1000035E-011  0.3000000E+03  0.7818608E-02  0.1093470E+00
          1   -1    0    0  502    0  0.00000000000E+00  0.00000000000E+00  0.24940937476E+03  0.24940937476E+03  0.00000000000E+00 0.  1.
         13   -1    0    0    0    0 -0.00000000000E+00 -0.00000000000E+00 -0.27500000000E+03  0.27500000000E+03  0.00000000000E+00 0.  1.
    9000005    2    1    2  501    0  0.30354963503E+02  0.47905873092E+01 -0.62421800320E+02  0.47644158355E+03  0.47133398757E+03 0.  0.
         13    1    3    3    0    0  0.24511768301E+03  0.33044277812E+02  0.11391831289E+02  0.24759720645E+03  0.00000000000E+00 0.  1.
          3    1    3    3  501    0 -0.21476271951E+03 -0.28253690503E+02 -0.73813631608E+02  0.22884437710E+03  0.00000000000E+00 0.  1.
         21    1    1    2  502  501 -0.30354963503E+02 -0.47905873092E+01  0.36831175075E+02  0.47967791208E+02  0.00000000000E+00 0.  1.
<scales pt_clust_4="550.00000" pt_clust_5="550.00000" pt_clust_6="30.73066"></scales>
<mgrwt>
<rscale>  0 0.30000000E+03</rscale>
<asrwt>  1 0.30730661E+02</asrwt>
<pdfrwt beam="1">  1        1 0.90694318E+00 0.30000000E+03</pdfrwt>
<pdfrwt beam="2">0</pdfrwt>
<totfact> 0.86586696E-05</totfact>
</mgrwt>
<clustering>
<clus scale="   30.731">  1  6  2 -1</clus>
<clus scale="  471.334">  4  5 -1 -1</clus>
<clus scale="  300.000">  1  4  2 -1</clus>
</clustering>
</event>
<event>
 6    1  0.1000035E-011  0.3000000E+03  0.7818608E-02  0.1093470E+00
          1   -1    0    0  502    0  0.00000000000E+00  0.00000000000E+00  0.23605704486E+03  0.23605704486E+03  0.00000000000E+00 0.  1.
         13   -1    0    0    0    0 -0.00000000000E+00 -0.00000000000E+00 -0.27500000000E+03  0.27500000000E+03  0.00000000000E+00 0.  1.
    9000005    2    1    2  501    0  0.29579308633E+02  0.33458201336E+02 -0.37117729537E+02  0.46636120406E+03  0.46273173662E+03 0.  0.
         13    1    3    3    0    0  0.17914356277E+03  0.11108489621E+03  0.11432728701E+03  0.23979782902E+03  0.00000000000E+00 0.  1.
          3    1    3    3  501    0 -0.14956425414E+03 -0.77626694869E+02 -0.15144501655E+03  0.22656337504E+03  0.00000000000E+00 0.  1.
         21    1    1    2  502  501 -0.29579308633E+02 -0.33458201336E+02 -0.18252256065E+01  0.44695840795E+02  0.00000000000E+00 0.  1.
<scales pt_clust_4="550.00000" pt_clust_5="550.00000" pt_clust_6="44.65856"></scales>
<mgrwt>
<rscale>  0 0.30000000E+03</rscale>
<asrwt>  1 0.44658557E+02</asrwt>
<pdfrwt beam="1">  1        1 0.85838925E+00 0.30000000E+03</pdfrwt>
<pdfrwt beam="2">0</pdfrwt>
<totfact> 0.32174516E-04</totfact>
</mgrwt>
<clustering>
<clus scale="   44.659">  1  6  2 -1</clus>
<clus scale="  462.732">  4  5 -1 -1</clus>
<clus scale="  300.000">  1  4  2 -1</clus>
</clustering>
</event>
<event>
 6    1  0.1000035E-011  0.3000000E+03  0.7818608E-02  0.1093470E+00
          1   -1    0    0  502    0  0.00000000000E+00  0.00000000000E+00  0.25607421081E+03  0.25607421081E+03  0.00000000000E+00 0.  1.
         13   -1    0    0    0    0 -0.00000000000E+00 -0.00000000000E+00 -0.27500000000E+03  0.27500000000E+03  0.00000000000E+00 0.  1.
    9000005    2    1    2  501    0  0.32500651617E+02  0.20545577485E+02 -0.32620096943E+02  0.49025819466E+03  0.48765829594E+03 0.  0.
         13    1    3    3    0    0  0.19798320620E+02  0.20770923173E+03  0.12672817056E+03  0.24412113317E+03  0.00000000000E+00 0.  1.
          3    1    3    3  501    0  0.12702330997E+02 -0.18716365425E+03 -0.15934826750E+03  0.24613706149E+03  0.00000000000E+00 0.  1.
         21    1    1    2  502  501 -0.32500651617E+02 -0.20545577485E+02  0.13694307757E+02  0.40816016154E+02  0.00000000000E+00 0. -1.
<scales pt_clust_4="550.00000" pt_clust_5="550.00000" pt_clust_6="38.45014"></scales>
<mgrwt>
<rscale>  0 0.30000000E+03</rscale>
<asrwt>  1 0.38450138E+02</asrwt>
<pdfrwt beam="1">  1        1 0.93117895E+00 0.30000000E+03</pdfrwt>
<pdfrwt beam="2">0</pdfrwt>
<totfact> 0.24796866E-05</totfact>
</mgrwt>
<clustering>
<clus scale="   38.450">  1  6  2 -1</clus>
<clus scale="  487.658">  4  5 -1 -1</clus>
<clus scale="  300.000">  1  4  2 -1</clus>
</clustering>
</event>
<event>
 6    1  0.1000035E-011  0.3000000E+03  0.7818608E-02  0.1093470E+00
          1   -1    0    0  502    0  0.00000000000E+00  0.00000000000E+00  0.24276490313E+03  0.24276490313E+03  0.00000000000E+00 0.  1.
         13   -1    0    0    0    0 -0.00000000000E+00 -0.00000000000E+00 -0.27500000000E+03  0.27500000000E+03  0.00000000000E+00 0.  1.
    9000005    2    1    2  501    0  0.81100668744E+01  0.37681388348E+02 -0.27463757203E+02  0.47892644416E+03  0.47658222874E+03 0.  0.
         13    1    3    3    0    0 -0.12142344201E+03 -0.18211534122E+03 -0.44012240341E+02  0.22326380601E+03  0.00000000000E+00 0.  1.
          3    1    3    3  501    0  0.12953350888E+03  0.21979672957E+03  0.16548483138E+02  0.25566263815E+03  0.00000000000E+00 0.  1.
         21    1    1    2  502  501 -0.81100668744E+01 -0.37681388348E+02 -0.47713396690E+01  0.38838458965E+02  0.00000000000E+00 0.  1.
<scales pt_clust_4="550.00000" pt_clust_5="550.00000" pt_clust_6="38.54428"></scales>
<mgrwt>
<rscale>  0 0.30000000E+03</rscale>
<asrwt>  1 0.38544282E+02</asrwt>
<pdfrwt beam="1">  1        1 0.88278147E+00 0.30000000E+03</pdfrwt>
<pdfrwt beam="2">0</pdfrwt>
<totfact> 0.17860117E-04</totfact>
</mgrwt>
<clustering>
<clus scale="   38.544">  1  6  2 -1</clus>
<clus scale="  476.582">  4  5 -1 -1</clus>
<clus scale="  300.000">  1  4  2 -1</clus>
</clustering>
</event>
<event>
 6    1  0.1000035E-011  0.3000000E+03  0.7818608E-02  0.1093470E+00
          1   -1    0    0  502    0  0.00000000000E+00  0.00000000000E+00  0.23739933473E+03  0.23739933473E+03  0.00000000000E+00 0.  1.
         13   -1    0    0    0    0 -0.00000000000E+00 -0.00000000000E+00 -0.27500000000E+03  0.27500000000E+03  0.00000000000E+00 0.  1.
    9000005    2    1    2  501    0 -0.32884778250E+02  0.24682285932E+02 -0.61810413685E+02  0.46468418203E+03  0.45871585748E+03 0.  0.
         13    1    3    3    0    0  0.15580963606E+03 -0.12102497059E+03 -0.10329852864E+03  0.22269771489E+03  0.00000000000E+00 0.  1.
          3    1    3    3  501    0 -0.18869441431E+03  0.14570725652E+03  0.41488114955E+02  0.24198646714E+03  0.00000000000E+00 0.  1.
         21    1    1    2  502  501  0.32884778250E+02 -0.24682285932E+02  0.24209748419E+02  0.47715152708E+02  0.00000000000E+00 0. -1.
<scales pt_clust_4="550.00000" pt_clust_5="550.00000" pt_clust_6="41.11720"></scales>
<mgrwt>
<rscale>  0 0.30000000E+03</rscale>
<asrwt>  1 0.41117197E+02</asrwt>
<pdfrwt beam="1">  1        1 0.86327031E+00 0.30000000E+03</pdfrwt>
<pdfrwt beam="2">0</pdfrwt>
<totfact> 0.28953662E-04</totfact>
</mgrwt>
<clustering>
<clus scale="   41.117">  1  6  2 -1</clus>
<clus scale="  458.716">  4  5 -1 -1</clus>
<clus scale="  300.000">  1  4  2 -1</clus>
</clustering>
</event>
<event>
 6    1  0.1000035E-011  0.3000000E+03  0.7818608E-02  0.1093470E+00
          1   -1    0    0  502    0  0.00000000000E+00  0.00000000000E+00  0.24109953939E+03  0.24109953939E+03  0.00000000000E+00 0.  1.
         13   -1    0    0    0    0 -0.00000000000E+00 -0.00000000000E+00 -0.27500000000E+03  0.27500000000E+03  0.00000000000E+00 0.  1.
    9000005    2    1    2  501    0 -0.16705478214E+02  0.25841050271E+02 -0.63268056922E+02  0.47356380624E+03  0.46830865748E+03 0.  0.
         13    1    3    3    0    0 -0.23699192973E+03  0.12638112713E+02  0.18902850924E+02  0.23808026886E+03  0.00000000000E+00 0.  1.
          3    1    3    3  501    0  0.22028645151E+03  0.13202937558E+02 -0.82170907845E+02  0.23548353738E+03  0.00000000000E+00 0.  1.
         21    1    1    2  502  501  0.16705478214E+02 -0.25841050271E+02  0.29367596309E+02  0.42535733148E+02  0.00000000000E+00 0.  1.
<scales pt_clust_4="550.00000" pt_clust_5="550.00000" pt_clust_6="30.77065"></scales>
<mgrwt>
<rscale>  0 0.30000000E+03</rscale>
<asrwt>  1 0.30770650E+02</asrwt>
<pdfrwt beam="1">  1        1 0.87672560E+00 0.30000000E+03</pdfrwt>
<pdfrwt beam="2">0</pdfrwt>
<totfact> 0.22081078E-04</totfact>
</mgrwt>
<clustering>
<clus scale="   30.771">  1  6  2 -1</clus>
<clus scale="  468.309">  4  5 -1 -1</clus>
<clus scale="  300.000">  1  4  2 -1</clus>
</clustering>
</event>
<event>
 6    1  0.1000035E-011  0.3000000E+03  0.7818608E-02  0.1093470E+00
          1   -1    0    0  502    0  0.00000000000E+00  0.00000000000E+00  0.24252090780E+03  0.24252090780E+03  0.00000000000E+00 0.  1.
         13   -1    0    0    0    0 -0.00000000000E+00 -0.00000000000E+00 -0.27500000000E+03  0.27500000000E+03  0.00000000000E+00 0.  1.
    9000005    2    1    2  501    0 -0.32784076393E+02  0.12558278912E+02 -0.41413548235E+02  0.48129480480E+03  0.47822285716E+03 0.  0.
         13    1    3    3    0    0  0.18237708173E+03  0.11261294804E+03 -0.10054040457E+03  0.23675187213E+03  0.00000000000E+00 0.  1.
          3    1    3    3  501    0 -0.21516115812E+03 -0.10005466913E+03  0.59126856334E+02  0.24454293267E+03  0.00000000000E+00 0.  1.
         21    1    1    2  502  501  0.32784076393E+02 -0.12558278912E+02  0.89344560334E+01  0.36226103003E+02  0.00000000000E+00 0. -1.
<scales pt_clust_4="550.00000" pt_clust_5="550.00000" pt_clust_6="35.10707"></scales>
<mgrwt>
<rscale>  0 0.30000000E+03</rscale>
<asrwt>  1 0.35107065E+02</asrwt>
<pdfrwt beam="1">  1        1 0.88189421E+00 0.30000000E+03</pdfrwt>
<pdfrwt beam="2">0</pdfrwt>
<totfact> 0.18665889E-04</totfact>
</mgrwt>
<clustering>
<clus scale="   35.107">  1  6  2 -1</clus>
<clus scale="  478.223">  4  5 -1 -1</clus>
<clus scale="  300.000">  1  4  2 -1</clus>
</clustering>
</event>
<event>
 6    1  0.1000035E-011  0.3000000E+03  0.7818608E-02  0.1093470E+00
          1   -1    0    0  502    0  0.00000000000E+00  0.00000000000E+00  0.23380947373E+03  0.23380947373E+03  0.00000000000E+00 0.  1.
         13   -1    0    0    0    0 -0.00000000000E+00 -0.00000000000E+00 -0.27500000000E+03  0.27500000000E+03  0.00000000000E+00 0.  1.
    9000005    2    1    2  501    0  0.10301600682E+02  0.37390367018E+02 -0.15299004037E+02  0.46217758072E+03  0.46029326964E+03 0.  0.
         13    1    3    3    0    0  0.72464744139E+02 -0.19616081629E+03  0.43160751778E+02  0.21352530408E+03  0.00000000000E+00 0.  1.
          3    1    3    3  501    0 -0.62163143457E+02  0.23355118331E+03 -0.58459755816E+02  0.24865227664E+03  0.00000000000E+00 0.  1.
         21    1    1    2  502  501 -0.10301600682E+02 -0.37390367018E+02 -0.25891522229E+02  0.46631893010E+02  0.00000000000E+00 0.  1.
<scales pt_clust_4="550.00000" pt_clust_5="550.00000" pt_clust_6="38.78355"></scales>
<mgrwt>
<rscale>  0 0.30000000E+03</rscale>
<asrwt>  1 0.38783554E+02</asrwt>
<pdfrwt beam="1">  1        1 0.85021627E+00 0.30000000E+03</pdfrwt>
<pdfrwt beam="2">0</pdfrwt>
<totfact> 0.39745507E-04</totfact>
</mgrwt>
<clustering>
<clus scale="   38.784">  1  6  2 -1</clus>
<clus scale="  460.293">  4  5 -1 -1</clus>
<clus scale="  300.000">  1  4  2 -1</clus>
</clustering>
</event>
<event>
 6    1  0.1000035E-011  0.3000000E+03  0.7818608E-02  0.1093470E+00
          1   -1    0    0  502    0  0.00000000000E+00  0.00000000000E+00  0.26147597773E+03  0.26147597773E+03  0.00000000000E+00 0.  1.
         13   -1    0    0    0    0 -0.00000000000E+00 -0.00000000000E+00 -0.27500000000E+03  0.27500000000E+03  0.00000000000E+00 0.  1.
    9000005    2    1    2  501    0  0.38215686593E+02  0.32696860851E+02 -0.57151228461E+02  0.46989627714E+03  0.46368817641E+03 0.  0.
         13    1    3    3    0    0  0.10738868206E+03  0.20419028945E+03  0.75020427668E+02  0.24259857359E+03  0.00000000000E+00 0.  1.
          1    1    3    3  501    0 -0.69172995469E+02 -0.17149342860E+03 -0.13217165613E+03  0.22729770355E+03  0.00000000000E+00 0.  1.
         21    1    1    2  502  501 -0.38215686593E+02 -0.32696860851E+02  0.43627206193E+02  0.66579700597E+02  0.00000000000E+00 0.  1.
<scales pt_clust_4="550.00000" pt_clust_5="550.00000" pt_clust_6="50.29437"></scales>
<mgrwt>
<rscale>  0 0.30000000E+03</rscale>
<asrwt>  1 0.50294368E+02</asrwt>
<pdfrwt beam="1">  1        1 0.95082174E+00 0.30000000E+03</pdfrwt>
<pdfrwt beam="2">0</pdfrwt>
<totfact> 0.11110918E-05</totfact>
</mgrwt>
<clustering>
<clus scale="   50.294">  1  6  2 -1</clus>
<clus scale="  463.688">  4  5 -1 -1</clus>
<clus scale="  300.000">  1  4  2 -1</clus>
</clustering>
</event>
<event>
 6    1  0.1000035E-011  0.3000000E+03  0.7818608E-02  0.1093470E+00
          1   -1    0    0  502    0  0.00000000000E+00  0.00000000000E+00  0.23123692435E+03  0.23123692435E+03  0.00000000000E+00 0.  1.
         13   -1    0    0    0    0 -0.00000000000E+00 -0.00000000000E+00 -0.27500000000E+03  0.27500000000E+03  0.00000000000E+00 0.  1.
    9000005    2    1    2  501    0  0.35692083805E+02 -0.20458065695E+02 -0.51233578363E+02  0.46442465690E+03  0.45975311319E+03 0.  0.
         13    1    3    3    0    0 -0.21046814132E+03 -0.13426615391E+02  0.83394742626E+01  0.21106079537E+03  0.00000000000E+00 0.  1.
          3    1    3    3  501    0  0.24616022513E+03 -0.70314503044E+01 -0.59573052626E+02  0.25336386153E+03  0.00000000000E+00 0.  1.
         21    1    1    2  502  501 -0.35692083805E+02  0.20458065695E+02  0.74705027120E+01  0.41812267448E+02  0.00000000000E+00 0.  1.
<scales pt_clust_4="550.00000" pt_clust_5="550.00000" pt_clust_6="41.13949"></scales>
<mgrwt>
<rscale>  0 0.30000000E+03</rscale>
<asrwt>  1 0.41139486E+02</asrwt>
<pdfrwt beam="1">  1        1 0.84086154E+00 0.30000000E+03</pdfrwt>
<pdfrwt beam="2">0</pdfrwt>
<totfact> 0.47506710E-04</totfact>
</mgrwt>
<clustering>
<clus scale="   41.139">  1  6  2 -1</clus>
<clus scale="  459.753">  4  5 -1 -1</clus>
<clus scale="  300.000">  1  4  2 -1</clus>
</clustering>
</event>
<event>
 6    1  0.1000035E-011  0.3000000E+03  0.7818608E-02  0.1093470E+00
          1   -1    0    0  502    0  0.00000000000E+00  0.00000000000E+00  0.23391747488E+03  0.23391747488E+03  0.00000000000E+00 0.  1.
         13   -1    0    0    0    0 -0.00000000000E+00 -0.00000000000E+00 -0.27500000000E+03  0.27500000000E+03  0.00000000000E+00 0.  1.
    9000005    2    1    2  501    0 -0.37228049934E+02  0.23451444096E-01 -0.52702614257E+02  0.46991805536E+03  0.46546695366E+03 0.  0.
         13    1    3    3    0    0 -0.21907653832E+03  0.11558935749E+03  0.16476610835E+01  0.24770576092E+03  0.00000000000E+00 0.  1.
          3    1    3    3  501    0  0.18184848839E+03 -0.11556590605E+03 -0.54350275341E+02  0.22221229444E+03  0.00000000000E+00 0.  1.
         21    1    1    2  502  501  0.37228049934E+02 -0.23451444096E-01  0.11620089142E+02  0.38999419528E+02  0.00000000000E+00 0. -1.
<scales pt_clust_4="550.00000" pt_clust_5="550.00000" pt_clust_6="37.22806"></scales>
<mgrwt>
<rscale>  0 0.30000000E+03</rscale>
<asrwt>  1 0.37228057E+02</asrwt>
<pdfrwt beam="1">  1        1 0.85060900E+00 0.30000000E+03</pdfrwt>
<pdfrwt beam="2">0</pdfrwt>
<totfact> 0.39706462E-04</totfact>
</mgrwt>
<clustering>
<clus scale="   37.228">  1  6  2 -1</clus>
<clus scale="  465.467">  4  5 -1 -1</clus>
<clus scale="  300.000">  1  4  2 -1</clus>
</clustering>
</event>
<event>
 6    1  0.1000035E-011  0.3000000E+03  0.7818608E-02  0.1093470E+00
          1   -1    0    0  502    0  0.00000000000E+00  0.00000000000E+00  0.22580853704E+03  0.22580853704E+03  0.00000000000E+00 0.  1.
         13   -1    0    0    0    0 -0.00000000000E+00 -0.00000000000E+00 -0.27500000000E+03  0.27500000000E+03  0.00000000000E+00 0.  1.
    9000005    2    1    2  501    0  0.19236790751E+02  0.23287332686E+02 -0.52588882794E+02  0.47041287216E+03  0.46648721924E+03 0.  0.
         13    1    3    3    0    0  0.12997605900E+02  0.22324191073E+03 -0.12676611661E+03  0.25705162281E+03  0.00000000000E+00 0.  1.
          1    1    3    3  501    0  0.62391848505E+01 -0.19995457805E+03  0.74177233816E+02  0.21336124935E+03  0.00000000000E+00 0.  1.
         21    1    1    2  502  501 -0.19236790751E+02 -0.23287332686E+02  0.33974198338E+01  0.30395664881E+02  0.00000000000E+00 0. -1.
<scales pt_clust_4="550.00000" pt_clust_5="550.00000" pt_clust_6="30.20520"></scales>
<mgrwt>
<rscale>  0 0.30000000E+03</rscale>
<asrwt>  1 0.30205198E+02</asrwt>
<pdfrwt beam="1">  1        1 0.82112195E+00 0.30000000E+03</pdfrwt>
<pdfrwt beam="2">0</pdfrwt>
<totfact> 0.72721043E-04</totfact>
</mgrwt>
<clustering>
<clus scale="   30.205">  1  6  2 -1</clus>
<clus scale="  466.487">  4  5 -1 -1</clus>
<clus scale="  300.000">  1  4  2 -1</clus>
</clustering>
</event>
<event>
 6    1  0.1000035E-011  0.3000000E+03  0.7818608E-02  0.1093470E+00
          1   -1    0    0  502    0  0.00000000000E+00  0.00000000000E+00  0.23353422041E+03  0.23353422041E+03  0.00000000000E+00 0.  1.
         13   -1    0    0    0    0 -0.00000000000E+00 -0.00000000000E+00 -0.27500000000E+03  0.27500000000E+03  0.00000000000E+00 0.  1.
    9000005    2    1    2  501    0  0.15395214799E+02 -0.27403680057E+02 -0.58469299215E+02  0.47279776845E+03  0.46811440544E+03 0.  0.
         13    1    3    3    0    0  0.14025392392E+03 -0.16069941616E+03  0.95705919765E+02  0.23378427792E+03  0.00000000000E+00 0.  1.
          1    1    3    3  501    0 -0.12485870912E+03  0.13329573610E+03 -0.15417521898E+03  0.23901349052E+03  0.00000000000E+00 0.  1.
         21    1    1    2  502  501 -0.15395214799E+02  0.27403680057E+02  0.17003519629E+02  0.35736451967E+02  0.00000000000E+00 0.  1.
<scales pt_clust_4="550.00000" pt_clust_5="550.00000" pt_clust_6="31.43206"></scales>
<mgrwt>
<rscale>  0 0.30000000E+03</rscale>
<asrwt>  1 0.31432059E+02</asrwt>
<pdfrwt beam="1">  1        1 0.84921535E+00 0.30000000E+03</pdfrwt>
<pdfrwt beam="2">0</pdfrwt>
<totfact> 0.42240619E-04</totfact>
</mgrwt>
<clustering>
<clus scale="   31.432">  1  6  2 -1</clus>
<clus scale="  468.114">  4  5 -1 -1</clus>
<clus scale="  300.000">  1  4  2 -1</clus>
</clustering>
</event>
<event>
 6    1  0.1000035E-011  0.3000000E+03  0.7818608E-02  0.1093470E+00
          1   -1    0    0  502    0  0.00000000000E+00  0.00000000000E+00  0.22578808559E+03  0.22578808559E+03  0.00000000000E+00 0.  1.
         13   -1    0    0    0    0 -0.00000000000E+00 -0.00000000000E+00 -0.27500000000E+03  0.27500000000E+03  0.00000000000E+00 0.  1.
    9000005    2    1    2  501    0  0.15117874449E+01  0.30124782405E+02 -0.61358099597E+02  0.46827166157E+03  0.46325343456E+03 0.  0.
         13    1    3    3    0    0  0.67470524573E+02 -0.18253753356E+03 -0.13145039790E+03  0.23484341582E+03  0.00000000000E+00 0.  1.
          1    1    3    3  501    0 -0.65958737128E+02  0.21266231596E+03  0.70092298304E+02  0.23342824575E+03  0.00000000000E+00 0.  1.
         21    1    1    2  502  501 -0.15117874449E+01 -0.30124782405E+02  0.12146185182E+02  0.32516424015E+02  0.00000000000E+00 0.  1.
<scales pt_clust_4="550.00000" pt_clust_5="550.00000" pt_clust_6="30.16269"></scales>
<mgrwt>
<rscale>  0 0.30000000E+03</rscale>
<asrwt>  1 0.30162692E+02</asrwt>
<pdfrwt beam="1">  1        1 0.82104758E+00 0.30000000E+03</pdfrwt>
<pdfrwt beam="2">0</pdfrwt>
<totfact> 0.72850210E-04</totfact>
</mgrwt>
<clustering>
<clus scale="   30.163">  1  6  2 -1</clus>
<clus scale="  463.253">  4  5 -1 -1</clus>
<clus scale="  300.000">  1  4  2 -1</clus>
</clustering>
</event>
<event>
 6    1  0.1000035E-011  0.3000000E+03  0.7818608E-02  0.1093470E+00
          1   -1    0    0  502    0  0.00000000000E+00  0.00000000000E+00  0.24147194718E+03  0.24147194718E+03  0.00000000000E+00 0.  1.
         13   -1    0    0    0    0 -0.00000000000E+00 -0.00000000000E+00 -0.27500000000E+03  0.27500000000E+03  0.00000000000E+00 0.  1.
    9000005    2    1    2  501    0  0.46850522990E+02  0.49660114145E+01 -0.52470394194E+02  0.46569355541E+03  0.46032348681E+03 0.  0.
         13    1    3    3    0    0 -0.10185561853E+03  0.13777880206E+03 -0.16405118694E+03  0.23721373750E+03  0.00000000000E+00 0.  1.
          1    1    3    3  501    0  0.14870614152E+03 -0.13281279064E+03  0.11158079274E+03  0.22847981791E+03  0.00000000000E+00 0.  1.
         21    1    1    2  502  501 -0.46850522990E+02 -0.49660114145E+01  0.18942341371E+02  0.50778391767E+02  0.00000000000E+00 0.  1.
<scales pt_clust_4="550.00000" pt_clust_5="550.00000" pt_clust_6="47.11298"></scales>
<mgrwt>
<rscale>  0 0.30000000E+03</rscale>
<asrwt>  1 0.47112979E+02</asrwt>
<pdfrwt beam="1">  1        1 0.87807981E+00 0.30000000E+03</pdfrwt>
<pdfrwt beam="2">0</pdfrwt>
<totfact> 0.19710392E-04</totfact>
</mgrwt>
<clustering>
<clus scale="   47.113">  1  6  2 -1</clus>
<clus scale="  460.323">  4  5 -1 -1</clus>
<clus scale="  300.000">  1  4  2 -1</clus>
</clustering>
</event>
<event>
 6    1  0.1000035E-011  0.3000000E+03  0.7818608E-02  0.1093470E+00
          1   -1    0    0  502    0  0.00000000000E+00  0.00000000000E+00  0.23414658082E+03  0.23414658082E+03  0.00000000000E+00 0.  1.
         13   -1    0    0    0    0 -0.00000000000E+00 -0.00000000000E+00 -0.27500000000E+03  0.27500000000E+03  0.00000000000E+00 0.  1.
    9000005    2    1    2  501    0  0.24423020801E+02  0.18640439534E+02 -0.46215097817E+02  0.47795848166E+03  0.47472573661E+03 0.  0.
         13    1    3    3    0    0  0.18528002529E+03  0.41225701175E+02  0.13626241276E+03  0.23365720905E+03  0.00000000000E+00 0.  1.
          1    1    3    3  501    0 -0.16085700449E+03 -0.22585261641E+02 -0.18247751058E+03  0.24430127262E+03  0.00000000000E+00 0.  1.
         21    1    1    2  502  501 -0.24423020801E+02 -0.18640439534E+02  0.53616786354E+01  0.31188099154E+02  0.00000000000E+00 0. -1.
<scales pt_clust_4="550.00000" pt_clust_5="550.00000" pt_clust_6="30.72377"></scales>
<mgrwt>
<rscale>  0 0.30000000E+03</rscale>
<asrwt>  1 0.30723768E+02</asrwt>
<pdfrwt beam="1">  1        1 0.85144211E+00 0.30000000E+03</pdfrwt>
<pdfrwt beam="2">0</pdfrwt>
<totfact> 0.40425808E-04</totfact>
</mgrwt>
<clustering>
<clus scale="   30.724">  1  6  2 -1</clus>
<clus scale="  474.726">  4  5 -1 -1</clus>
<clus scale="  300.000">  1  4  2 -1</clus>
</clustering>
</event>
<event>
 6    1  0.1000035E-011  0.3000000E+03  0.7818608E-02  0.1093470E+00
          1   -1    0    0  502    0  0.00000000000E+00  0.00000000000E+00  0.22184045640E+03  0.22184045640E+03  0.00000000000E+00 0.  1.
         13   -1    0    0    0    0 -0.00000000000E+00 -0.00000000000E+00 -0.27500000000E+03  0.27500000000E+03  0.00000000000E+00 0.  1.
    9000005    2    1    2  501    0  0.21733256235E+02  0.23406787736E+02 -0.66904848533E+02  0.46206768622E+03  0.45608121618E+03 0.  0.
         13    1    3    3    0    0  0.10777603071E+03  0.19280237619E+03  0.65616342504E+02  0.23042120880E+03  0.00000000000E+00 0.  1.
          3    1    3    3  501    0 -0.86042774479E+02 -0.16939558845E+03 -0.13252119104E+03  0.23164647742E+03  0.00000000000E+00 0.  1.
         21    1    1    2  502  501 -0.21733256235E+02 -0.23406787736E+02  0.13745304936E+02  0.34772770187E+02  0.00000000000E+00 0. -1.
<scales pt_clust_4="550.00000" pt_clust_5="550.00000" pt_clust_6="31.94076"></scales>
<mgrwt>
<rscale>  0 0.30000000E+03</rscale>
<asrwt>  1 0.31940760E+02</asrwt>
<pdfrwt beam="1">  1        1 0.80669257E+00 0.30000000E+03</pdfrwt>
<pdfrwt beam="2">0</pdfrwt>
<totfact> 0.94111430E-04</totfact>
</mgrwt>
<clustering>
<clus scale="   31.941">  1  6  2 -1</clus>
<clus scale="  456.081">  4  5 -1 -1</clus>
<clus scale="  300.000">  1  4  2 -1</clus>
</clustering>
</event>
<event>
 6    1  0.1000035E-011  0.3000000E+03  0.7818608E-02  0.1093470E+00
          1   -1    0    0  502    0  0.00000000000E+00  0.00000000000E+00  0.22601672525E+03  0.22601672525E+03  0.00000000000E+00 0.  1.
         13   -1    0    0    0    0 -0.00000000000E+00 -0.00000000000E+00 -0.27500000000E+03  0.27500000000E+03  0.00000000000E+00 0.  1.
    9000005    2    1    2  501    0  0.38201228890E+02 -0.96149367541E-01 -0.45737425253E+02  0.46267772849E+03  0.45882395888E+03 0.  0.
         13    1    3    3    0    0  0.11566338324E+03 -0.17017513523E+03  0.97035642588E+02  0.22749397971E+03  0.00000000000E+00 0.  1.
          1    1    3    3  501    0 -0.77462154347E+02  0.17007898586E+03 -0.14277306784E+03  0.23518374878E+03  0.00000000000E+00 0.  1.
         21    1    1    2  502  501 -0.38201228890E+02  0.96149367540E-01 -0.32458494977E+01  0.38338996758E+02  0.00000000000E+00 0.  1.
<scales pt_clust_4="550.00000" pt_clust_5="550.00000" pt_clust_6="38.20135"></scales>
<mgrwt>
<rscale>  0 0.30000000E+03</rscale>
<asrwt>  1 0.38201350E+02</asrwt>
<pdfrwt beam="1">  1        1 0.82187900E+00 0.30000000E+03</pdfrwt>
<pdfrwt beam="2">0</pdfrwt>
<totfact> 0.68516603E-04</totfact>
</mgrwt>
<clustering>
<clus scale="   38.201">  1  6  2 -1</clus>
<clus scale="  458.824">  4  5 -1 -1</clus>
<clus scale="  300.000">  1  4  2 -1</clus>
</clustering>
</event>
<event>
 6    1  0.1000035E-011  0.3000000E+03  0.7818608E-02  0.1093470E+00
          1   -1    0    0  502    0  0.00000000000E+00  0.00000000000E+00  0.23651203597E+03  0.23651203597E+03  0.00000000000E+00 0.  1.
         13   -1    0    0    0    0 -0.00000000000E+00 -0.00000000000E+00 -0.27500000000E+03  0.27500000000E+03  0.00000000000E+00 0.  1.
    9000005    2    1    2  501    0 -0.16322094255E+02  0.26568091731E+02 -0.33231591284E+02  0.47989078183E+03  0.47772225149E+03 0.  0.
         13    1    3    3    0    0  0.22471492463E+03 -0.35957971571E+02 -0.38568861226E+02  0.23081882533E+03  0.00000000000E+00 0.  1.
          1    1    3    3  501    0 -0.24103701888E+03  0.62526063302E+02  0.53372699422E+01  0.24907195650E+03  0.00000000000E+00 0.  1.
         21    1    1    2  502  501  0.16322094255E+02 -0.26568091731E+02 -0.52563727429E+01  0.31621254142E+02  0.00000000000E+00 0.  1.
<scales pt_clust_4="550.00000" pt_clust_5="550.00000" pt_clust_6="31.18133"></scales>
<mgrwt>
<rscale>  0 0.30000000E+03</rscale>
<asrwt>  1 0.31181328E+02</asrwt>
<pdfrwt beam="1">  1        1 0.86004377E+00 0.30000000E+03</pdfrwt>
<pdfrwt beam="2">0</pdfrwt>
<totfact> 0.33025100E-04</totfact>
</mgrwt>
<clustering>
<clus scale="   31.181">  1  6  2 -1</clus>
<clus scale="  477.722">  4  5 -1 -1</clus>
<clus scale="  300.000">  1  4  2 -1</clus>
</clustering>
</event>
<event>
 6    1  0.1000035E-011  0.3000000E+03  0.7818608E-02  0.1093470E+00
          1   -1    0    0  502    0  0.00000000000E+00  0.00000000000E+00  0.22965188182E+03  0.22965188182E+03  0.00000000000E+00 0.  1.
         13   -1    0    0    0    0 -0.00000000000E+00 -0.00000000000E+00 -0.27500000000E+03  0.27500000000E+03  0.00000000000E+00 0.  1.
    9000005    2    1    2  501    0 -0.20428777809E+02 -0.31073043017E+02 -0.31602171008E+02  0.46500569627E+03  0.46243781354E+03 0.  0.
         13    1    3    3    0    0 -0.17048232270E+03  0.88373659045E+02 -0.14641340169E+03  0.24147672799E+03  0.00000000000E+00 0.  1.
          1    1    3    3  501    0  0.15005354489E+03 -0.11944670206E+03  0.11481123069E+03  0.22352896828E+03  0.00000000000E+00 0.  1.
         21    1    1    2  502  501  0.20428777809E+02  0.31073043017E+02 -0.13745947170E+02  0.39646185551E+02  0.00000000000E+00 0. -1.
<scales pt_clust_4="550.00000" pt_clust_5="550.00000" pt_clust_6="37.18696"></scales>
<mgrwt>
<rscale>  0 0.30000000E+03</rscale>
<asrwt>  1 0.37186965E+02</asrwt>
<pdfrwt beam="1">  1        1 0.83509775E+00 0.30000000E+03</pdfrwt>
<pdfrwt beam="2">0</pdfrwt>
<totfact> 0.53404677E-04</totfact>
</mgrwt>
<clustering>
<clus scale="   37.187">  1  6  2 -1</clus>
<clus scale="  462.438">  4  5 -1 -1</clus>
<clus scale="  300.000">  1  4  2 -1</clus>
</clustering>
</event>
<event>
 6    1  0.1000035E-011  0.3000000E+03  0.7818608E-02  0.1093470E+00
          1   -1    0    0  502    0  0.00000000000E+00  0.00000000000E+00  0.24710824506E+03  0.24710824506E+03  0.00000000000E+00 0.  1.
         13   -1    0    0    0    0 -0.00000000000E+00 -0.00000000000E+00 -0.27500000000E+03  0.27500000000E+03  0.00000000000E+00 0.  1.
    9000005    2    1    2  501    0  0.30702517241E+02 -0.13126270158E+02 -0.54928978835E+02  0.47914366652E+03  0.47481208590E+03 0.  0.
         13    1    3    3    0    0  0.72073792281E+02  0.22376815943E+03 -0.37166116131E+02  0.23800869921E+03  0.00000000000E+00 0.  1.
          3    1    3    3  501    0 -0.41371275041E+02 -0.23689442959E+03 -0.17762862704E+02  0.24113496731E+03  0.00000000000E+00 0.  1.
         21    1    1    2  502  501 -0.30702517241E+02  0.13126270158E+02  0.27037223892E+02  0.42964578538E+02  0.00000000000E+00 0. -1.
<scales pt_clust_4="550.00000" pt_clust_5="550.00000" pt_clust_6="33.39077"></scales>
<mgrwt>
<rscale>  0 0.30000000E+03</rscale>
<asrwt>  1 0.33390770E+02</asrwt>
<pdfrwt beam="1">  1        1 0.89857544E+00 0.30000000E+03</pdfrwt>
<pdfrwt beam="2">0</pdfrwt>
<totfact> 0.11593128E-04</totfact>
</mgrwt>
<clustering>
<clus scale="   33.391">  1  6  2 -1</clus>
<clus scale="  474.812">  4  5 -1 -1</clus>
<clus scale="  300.000">  1  4  2 -1</clus>
</clustering>
</event>
<event>
 6    1  0.1000035E-011  0.3000000E+03  0.7818608E-02  0.1093470E+00
          1   -1    0    0  502    0  0.00000000000E+00  0.00000000000E+00  0.22232514430E+03  0.22232514430E+03  0.00000000000E+00 0.  1.
         13   -1    0    0    0    0 -0.00000000000E+00 -0.00000000000E+00 -0.27500000000E+03  0.27500000000E+03  0.00000000000E+00 0.  1.
    9000005    2    1    2  501    0 -0.19573126966E+02  0.23051210740E+02 -0.67136308645E+02  0.46380501248E+03  0.45792285382E+03 0.  0.
         13    1    3    3    0    0  0.13729508505E+03  0.18490400837E+03 -0.65029273252E+01  0.23039470643E+03  0.00000000000E+00 0.  1.
          1    1    3    3  501    0 -0.15686821201E+03 -0.16185279763E+03 -0.60633381320E+02  0.23341030605E+03  0.00000000000E+00 0.  1.
         21    1    1    2  502  501  0.19573126966E+02 -0.23051210740E+02  0.14461452949E+02  0.33520131819E+02  0.00000000000E+00 0.  1.
<scales pt_clust_4="550.00000" pt_clust_5="550.00000" pt_clust_6="30.24013"></scales>
<mgrwt>
<rscale>  0 0.30000000E+03</rscale>
<asrwt>  1 0.30240133E+02</asrwt>
<pdfrwt beam="1">  1        1 0.80845507E+00 0.30000000E+03</pdfrwt>
<pdfrwt beam="2">0</pdfrwt>
<totfact> 0.92176875E-04</totfact>
</mgrwt>
<clustering>
<clus scale="   30.240">  1  6  2 -1</clus>
<clus scale="  457.923">  4  5 -1 -1</clus>
<clus scale="  300.000">  1  4  2 -1</clus>
</clustering>
</event>
<event>
 6    1  0.1000035E-011  0.3000000E+03  0.7818608E-02  0.1093470E+00
          1   -1    0    0  502    0  0.00000000000E+00  0.00000000000E+00  0.22816150237E+03  0.22816150237E+03  0.00000000000E+00 0.  1.
         13   -1    0    0    0    0 -0.00000000000E+00 -0.00000000000E+00 -0.27500000000E+03  0.27500000000E+03  0.00000000000E+00 0.  1.
    9000005    2    1    2  501    0  0.32280248826E+01 -0.30416778222E+02 -0.43692459273E+02  0.47241254956E+03  0.46939214463E+03 0.  0.
         13    1    3    3    0    0 -0.84742710965E+02 -0.14965045978E+03  0.15023428397E+03  0.22835701709E+03  0.00000000000E+00 0.  1.
          3    1    3    3  501    0  0.87970735848E+02  0.11923368156E+03 -0.19392674324E+03  0.24405553247E+03  0.00000000000E+00 0.  1.
         21    1    1    2  502  501 -0.32280248826E+01  0.30416778222E+02 -0.31460383527E+01  0.30748952817E+02  0.00000000000E+00 0.  1.
<scales pt_clust_4="550.00000" pt_clust_5="550.00000" pt_clust_6="30.58760"></scales>
<mgrwt>
<rscale>  0 0.30000000E+03</rscale>
<asrwt>  1 0.30587603E+02</asrwt>
<pdfrwt beam="1">  1        1 0.82967819E+00 0.30000000E+03</pdfrwt>
<pdfrwt beam="2">0</pdfrwt>
<totfact> 0.61002977E-04</totfact>
</mgrwt>
<clustering>
<clus scale="   30.588">  1  6  2 -1</clus>
<clus scale="  469.392">  4  5 -1 -1</clus>
<clus scale="  300.000">  1  4  2 -1</clus>
</clustering>
</event>
<event>
 6    1  0.1000035E-011  0.3000000E+03  0.7818608E-02  0.1093470E+00
          1   -1    0    0  502    0  0.00000000000E+00  0.00000000000E+00  0.22996128765E+03  0.22996128765E+03  0.00000000000E+00 0.  1.
         13   -1    0    0    0    0 -0.00000000000E+00 -0.00000000000E+00 -0.27500000000E+03  0.27500000000E+03  0.00000000000E+00 0.  1.
    9000005    2    1    2  501    0 -0.92077046388E+01 -0.32516709974E+02 -0.64553746115E+02  0.46593623422E+03  0.46020350930E+03 0.  0.
         13    1    3    3    0    0  0.69233270551E+02 -0.21968176863E+03  0.45937100667E+02  0.23486920283E+03  0.00000000000E+00 0.  1.
          3    1    3    3  501    0 -0.78440975190E+02  0.18716505866E+03 -0.11049084678E+03  0.23106703139E+03  0.00000000000E+00 0.  1.
         21    1    1    2  502  501  0.92077046388E+01  0.32516709974E+02  0.19515033764E+02  0.39025053427E+02  0.00000000000E+00 0.  1.
<scales pt_clust_4="550.00000" pt_clust_5="550.00000" pt_clust_6="33.79524"></scales>
<mgrwt>
<rscale>  0 0.30000000E+03</rscale>
<asrwt>  1 0.33795240E+02</asrwt>
<pdfrwt beam="1">  1        1 0.83622286E+00 0.30000000E+03</pdfrwt>
<pdfrwt beam="2">0</pdfrwt>
<totfact> 0.53352392E-04</totfact>
</mgrwt>
<clustering>
<clus scale="   33.795">  1  6  2 -1</clus>
<clus scale="  460.204">  4  5 -1 -1</clus>
<clus scale="  300.000">  1  4  2 -1</clus>
</clustering>
</event>
<event>
 6    1  0.1000035E-011  0.3000000E+03  0.7818608E-02  0.1093470E+00
          1   -1    0    0  502    0  0.00000000000E+00  0.00000000000E+00  0.24254373375E+03  0.24254373375E+03  0.00000000000E+00 0.  1.
         13   -1    0    0    0    0 -0.00000000000E+00 -0.00000000000E+00 -0.27500000000E+03  0.27500000000E+03  0.00000000000E+00 0.  1.
    9000005    2    1    2  501    0  0.11802964153E+02  0.30290867533E+02 -0.43665055892E+02  0.48315647472E+03  0.48007988433E+03 0.  0.
         13    1    3    3    0    0  0.16266471415E+03  0.65053550397E+01 -0.20448424997E+03  0.26137317643E+03  0.00000000000E+00 0.  1.
          1    1    3    3  501    0 -0.15086174999E+03  0.23785512493E+02  0.16081919407E+03  0.22178329829E+03  0.00000000000E+00 0.  1.
         21    1    1    2  502  501 -0.11802964153E+02 -0.30290867533E+02  0.11208789641E+02  0.34387259034E+02  0.00000000000E+00 0.  1.
<scales pt_clust_4="550.00000" pt_clust_5="550.00000" pt_clust_6="32.50918"></scales>
<mgrwt>
<rscale>  0 0.30000000E+03</rscale>
<asrwt>  1 0.32509177E+02</asrwt>
<pdfrwt beam="1">  1        1 0.88197721E+00 0.30000000E+03</pdfrwt>
<pdfrwt beam="2">0</pdfrwt>
<totfact> 0.18890973E-04</totfact>
</mgrwt>
<clustering>
<clus scale="   32.509">  1  6  2 -1</clus>
<clus scale="  480.080">  4  5 -1 -1</clus>
<clus scale="  300.000">  1  4  2 -1</clus>
</clustering>
</event>
<event>
 6    1  0.1000035E-011  0.3000000E+03  0.7818608E-02  0.1093470E+00
          1   -1    0    0  502    0  0.00000000000E+00  0.00000000000E+00  0.23633249932E+03  0.23633249932E+03  0.00000000000E+00 0.  1.
         13   -1    0    0    0    0 -0.00000000000E+00 -0.00000000000E+00 -0.27500000000E+03  0.27500000000E+03  0.00000000000E+00 0.  1.
    9000005    2    1    2  501    0 -0.10102519145E+02 -0.30229149438E+02 -0.54108707558E+02  0.47591649674E+03  0.47175512426E+03 0.  0.
         13    1    3    3    0    0  0.14039846704E+03 -0.18842173785E+03  0.39634049516E+02  0.23829674509E+03  0.00000000000E+00 0.  1.
          1    1    3    3  501    0 -0.15050098619E+03  0.15819258841E+03 -0.93742757074E+02  0.23761975165E+03  0.00000000000E+00 0.  1.
         21    1    1    2  502  501  0.10102519145E+02  0.30229149438E+02  0.15441206879E+02  0.35416002579E+02  0.00000000000E+00 0.  1.
<scales pt_clust_4="550.00000" pt_clust_5="550.00000" pt_clust_6="31.87260"></scales>
<mgrwt>
<rscale>  0 0.30000000E+03</rscale>
<asrwt>  1 0.31872596E+02</asrwt>
<pdfrwt beam="1">  1        1 0.85939091E+00 0.30000000E+03</pdfrwt>
<pdfrwt beam="2">0</pdfrwt>
<totfact> 0.33417526E-04</totfact>
</mgrwt>
<clustering>
<clus scale="   31.873">  1  6  2 -1</clus>
<clus scale="  471.755">  4  5 -1 -1</clus>
<clus scale="  300.000">  1  4  2 -1</clus>
</clustering>
</event>
<event>
 6    1  0.1000035E-011  0.3000000E+03  0.7818608E-02  0.1093470E+00
          1   -1    0    0  502    0  0.00000000000E+00  0.00000000000E+00  0.23777943792E+03  0.23777943792E+03  0.00000000000E+00 0.  1.
         13   -1    0    0    0    0 -0.00000000000E+00 -0.00000000000E+00 -0.27500000000E+03  0.27500000000E+03  0.00000000000E+00 0.  1.
    9000005    2    1    2  501    0  0.27517482960E+02 -0.27477468003E+02 -0.27280342048E+02  0.47264178613E+03  0.47024867658E+03 0.  0.
         13    1    3    3    0    0 -0.22521614308E+02 -0.19794818634E+03  0.12790222707E+03  0.23674815158E+03  0.00000000000E+00 0.  1.
          3    1    3    3  501    0  0.50039097268E+02  0.17047071834E+03 -0.15518256911E+03  0.23589363456E+03  0.00000000000E+00 0.  1.
         21    1    1    2  502  501 -0.27517482960E+02  0.27477468003E+02 -0.99402200347E+01  0.40137651783E+02  0.00000000000E+00 0. -1.
<scales pt_clust_4="550.00000" pt_clust_5="550.00000" pt_clust_6="38.88733"></scales>
<mgrwt>
<rscale>  0 0.30000000E+03</rscale>
<asrwt>  1 0.38887332E+02</asrwt>
<pdfrwt beam="1">  1        1 0.86465250E+00 0.30000000E+03</pdfrwt>
<pdfrwt beam="2">0</pdfrwt>
<totfact> 0.28260656E-04</totfact>
</mgrwt>
<clustering>
<clus scale="   38.887">  1  6  2 -1</clus>
<clus scale="  470.249">  4  5 -1 -1</clus>
<clus scale="  300.000">  1  4  2 -1</clus>
</clustering>
</event>
<event>
 6    1  0.1000035E-011  0.3000000E+03  0.7818608E-02  0.1093470E+00
          1   -1    0    0  502    0  0.00000000000E+00  0.00000000000E+00  0.22652905865E+03  0.22652905865E+03  0.00000000000E+00 0.  1.
         13   -1    0    0    0    0 -0.00000000000E+00 -0.00000000000E+00 -0.27500000000E+03  0.27500000000E+03  0.00000000000E+00 0.  1.
    9000005    2    1    2  501    0  0.37723525764E+02 -0.60706433826E+01 -0.53526802204E+02  0.46298714853E+03  0.45829255290E+03 0.  0.
         13    1    3    3    0    0  0.13293517810E+03 -0.14108137562E+03 -0.17243261377E+03  0.25943924610E+03  0.00000000000E+00 0.  1.
          3    1    3    3  501    0 -0.95211652337E+02  0.13501073224E+03  0.11890581156E+03  0.20354790243E+03  0.00000000000E+00 0.  1.
         21    1    1    2  502  501 -0.37723525764E+02  0.60706433826E+01  0.50558608573E+01  0.38541910126E+02  0.00000000000E+00 0. -1.
<scales pt_clust_4="550.00000" pt_clust_5="550.00000" pt_clust_6="38.20886"></scales>
<mgrwt>
<rscale>  0 0.30000000E+03</rscale>
<asrwt>  1 0.38208862E+02</asrwt>
<pdfrwt beam="1">  1        1 0.82374203E+00 0.30000000E+03</pdfrwt>
<pdfrwt beam="2">0</pdfrwt>
<totfact> 0.65947451E-04</totfact>
</mgrwt>
<clustering>
<clus scale="   38.209">  1  6  2 -1</clus>
<clus scale="  458.293">  4  5 -1 -1</clus>
<clus scale="  300.000">  1  4  2 -1</clus>
</clustering>
</event>
<event>
 6    1  0.1000035E-011  0.3000000E+03  0.7818608E-02  0.1093470E+00
          1   -1    0    0  502    0  0.00000000000E+00  0.00000000000E+00  0.24394158331E+03  0.24394158331E+03  0.00000000000E+00 0.  1.
         13   -1    0    0    0    0 -0.00000000000E+00 -0.00000000000E+00 -0.27500000000E+03  0.27500000000E+03  0.00000000000E+00 0.  1.
    9000005    2    1    2  501    0  0.14246465920E+02  0.27360544599E+02 -0.54490086381E+02  0.48020394868E+03  0.47610408697E+03 0.  0.
         13    1    3    3    0    0  0.15508526045E+03 -0.15485389307E+02 -0.21296503771E+03  0.26390404047E+03  0.00000000000E+00 0.  1.
          3    1    3    3  501    0 -0.14083879453E+03  0.42845933907E+02  0.15847495133E+03  0.21629990822E+03  0.00000000000E+00 0.  1.
         21    1    1    2  502  501 -0.14246465920E+02 -0.27360544599E+02  0.23431669693E+02  0.38737634628E+02  0.00000000000E+00 0.  1.
<scales pt_clust_4="550.00000" pt_clust_5="550.00000" pt_clust_6="30.84739"></scales>
<mgrwt>
<rscale>  0 0.30000000E+03</rscale>
<asrwt>  1 0.30847385E+02</asrwt>
<pdfrwt beam="1">  1        1 0.88706030E+00 0.30000000E+03</pdfrwt>
<pdfrwt beam="2">0</pdfrwt>
<totfact> 0.16281198E-04</totfact>
</mgrwt>
<clustering>
<clus scale="   30.847">  1  6  2 -1</clus>
<clus scale="  476.104">  4  5 -1 -1</clus>
<clus scale="  300.000">  1  4  2 -1</clus>
</clustering>
</event>
<event>
 6    1  0.1000035E-011  0.3000000E+03  0.7818608E-02  0.1093470E+00
          1   -1    0    0  502    0  0.00000000000E+00  0.00000000000E+00  0.23019888011E+03  0.23019888011E+03  0.00000000000E+00 0.  1.
         13   -1    0    0    0    0 -0.00000000000E+00 -0.00000000000E+00 -0.27500000000E+03  0.27500000000E+03  0.00000000000E+00 0.  1.
    9000005    2    1    2  501    0  0.30285890548E+02 -0.25278488755E+02 -0.46355212079E+02  0.46571910854E+03  0.46172420904E+03 0.  0.
         13    1    3    3    0    0  0.14982078765E+03 -0.16841399416E+03  0.81415388233E+02  0.23966227755E+03  0.00000000000E+00 0.  1.
          1    1    3    3  501    0 -0.11953489710E+03  0.14313550541E+03 -0.12777060031E+03  0.22605683099E+03  0.00000000000E+00 0.  1.
         21    1    1    2  502  501 -0.30285890548E+02  0.25278488755E+02  0.15540921857E+01  0.39479771562E+02  0.00000000000E+00 0.  1.
<scales pt_clust_4="550.00000" pt_clust_5="550.00000" pt_clust_6="39.44917"></scales>
<mgrwt>
<rscale>  0 0.30000000E+03</rscale>
<asrwt>  1 0.39449172E+02</asrwt>
<pdfrwt beam="1">  1        1 0.83708684E+00 0.30000000E+03</pdfrwt>
<pdfrwt beam="2">0</pdfrwt>
<totfact> 0.51099131E-04</totfact>
</mgrwt>
<clustering>
<clus scale="   39.449">  1  6  2 -1</clus>
<clus scale="  461.724">  4  5 -1 -1</clus>
<clus scale="  300.000">  1  4  2 -1</clus>
</clustering>
</event>
<event>
 6    1  0.1000035E-011  0.3000000E+03  0.7818608E-02  0.1093470E+00
          1   -1    0    0  502    0  0.00000000000E+00  0.00000000000E+00  0.23416564744E+03  0.23416564744E+03  0.00000000000E+00 0.  1.
         13   -1    0    0    0    0 -0.00000000000E+00 -0.00000000000E+00 -0.27500000000E+03  0.27500000000E+03  0.00000000000E+00 0.  1.
    9000005    2    1    2  501    0 -0.80191999365E+01 -0.29948487716E+02 -0.63087569820E+02  0.47100250865E+03  0.46572749780E+03 0.  0.
         13    1    3    3    0    0  0.79695149102E+02  0.20287119796E+03 -0.29242505673E+02  0.21991626563E+03  0.00000000000E+00 0.  1.
          1    1    3    3  501    0 -0.87714349039E+02 -0.23281968568E+03 -0.33845064147E+02  0.25108624302E+03  0.00000000000E+00 0.  1.
         21    1    1    2  502  501  0.80191999365E+01  0.29948487716E+02  0.22253217264E+02  0.38163138795E+02  0.00000000000E+00 0.  1.
<scales pt_clust_4="550.00000" pt_clust_5="550.00000" pt_clust_6="31.00354"></scales>
<mgrwt>
<rscale>  0 0.30000000E+03</rscale>
<asrwt>  1 0.31003540E+02</asrwt>
<pdfrwt beam="1">  1        1 0.85151145E+00 0.30000000E+03</pdfrwt>
<pdfrwt beam="2">0</pdfrwt>
<totfact> 0.40294318E-04</totfact>
</mgrwt>
<clustering>
<clus scale="   31.004">  1  6  2 -1</clus>
<clus scale="  465.727">  4  5 -1 -1</clus>
<clus scale="  300.000">  1  4  2 -1</clus>
</clustering>
</event>
<event>
 6    1  0.1000035E-011  0.3000000E+03  0.7818608E-02  0.1093470E+00
          1   -1    0    0  502    0  0.00000000000E+00  0.00000000000E+00  0.23079011518E+03  0.23079011518E+03  0.00000000000E+00 0.  1.
         13   -1    0    0    0    0 -0.00000000000E+00 -0.00000000000E+00 -0.27500000000E+03  0.27500000000E+03  0.00000000000E+00 0.  1.
    9000005    2    1    2  501    0  0.40408621680E+01  0.32029195689E+02 -0.31965509580E+02  0.47126298572E+03  0.46906802275E+03 0.  0.
         13    1    3    3    0    0 -0.10300769799E+03  0.21124915530E+02 -0.22607031674E+03  0.24932836985E+03  0.00000000000E+00 0.  1.
          1    1    3    3  501    0  0.10704856016E+03  0.10904280159E+02  0.19410480716E+03  0.22193461587E+03  0.00000000000E+00 0.  1.
         21    1    1    2  502  501 -0.40408621680E+01 -0.32029195689E+02 -0.12244375241E+02  0.34527129458E+02  0.00000000000E+00 0. -1.
<scales pt_clust_4="550.00000" pt_clust_5="550.00000" pt_clust_6="32.28311"></scales>
<mgrwt>
<rscale>  0 0.30000000E+03</rscale>
<asrwt>  1 0.32283107E+02</asrwt>
<pdfrwt beam="1">  1        1 0.83923678E+00 0.30000000E+03</pdfrwt>
<pdfrwt beam="2">0</pdfrwt>
<totfact> 0.51144476E-04</totfact>
</mgrwt>
<clustering>
<clus scale="   32.283">  1  6  2 -1</clus>
<clus scale="  469.068">  4  5 -1 -1</clus>
<clus scale="  300.000">  1  4  2 -1</clus>
</clustering>
</event>
<event>
 6    1  0.1000035E-011  0.3000000E+03  0.7818608E-02  0.1093470E+00
          1   -1    0    0  502    0  0.00000000000E+00  0.00000000000E+00  0.23014193714E+03  0.23014193714E+03  0.00000000000E+00 0.  1.
         13   -1    0    0    0    0 -0.00000000000E+00 -0.00000000000E+00 -0.27500000000E+03  0.27500000000E+03  0.00000000000E+00 0.  1.
    9000005    2    1    2  501    0  0.28415759366E+02  0.12241082226E+02 -0.38079008045E+02  0.47346773536E+03  0.47091866187E+03 0.  0.
         13    1    3    3    0    0  0.68680701506E+02 -0.19414494246E+03 -0.13047243578E+03  0.24378751801E+03  0.00000000000E+00 0.  1.
          1    1    3    3  501    0 -0.40264942140E+02  0.20638602468E+03  0.92393427736E+02  0.22968021734E+03  0.00000000000E+00 0.  1.
         21    1    1    2  502  501 -0.28415759366E+02 -0.12241082226E+02 -0.67790548161E+01  0.31674201783E+02  0.00000000000E+00 0.  1.
<scales pt_clust_4="550.00000" pt_clust_5="550.00000" pt_clust_6="30.94027"></scales>
<mgrwt>
<rscale>  0 0.30000000E+03</rscale>
<asrwt>  1 0.30940272E+02</asrwt>
<pdfrwt beam="1">  1        1 0.83687977E+00 0.30000000E+03</pdfrwt>
<pdfrwt beam="2">0</pdfrwt>
<totfact> 0.53661571E-04</totfact>
</mgrwt>
<clustering>
<clus scale="   30.940">  1  6  2 -1</clus>
<clus scale="  470.919">  4  5 -1 -1</clus>
<clus scale="  300.000">  1  4  2 -1</clus>
</clustering>
</event>
<event>
 6    1  0.1000035E-011  0.3000000E+03  0.7818608E-02  0.1093470E+00
          1   -1    0    0  502    0  0.00000000000E+00  0.00000000000E+00  0.22798492119E+03  0.22798492119E+03  0.00000000000E+00 0.  1.
         13   -1    0    0    0    0 -0.00000000000E+00 -0.00000000000E+00 -0.27500000000E+03  0.27500000000E+03  0.00000000000E+00 0.  1.
    9000005    2    1    2  501    0  0.15287050221E+02  0.29803895483E+02 -0.56830326857E+02  0.46808069244E+03  0.46340897973E+03 0.  0.
         13    1    3    3    0    0 -0.17119564117E+03  0.15271331827E+03 -0.81321811050E+02  0.24339790896E+03  0.00000000000E+00 0.  1.
          1    1    3    3  501    0  0.18648269139E+03 -0.12290942278E+03  0.24491484193E+02  0.22468278349E+03  0.00000000000E+00 0.  1.
         21    1    1    2  502  501 -0.15287050221E+02 -0.29803895483E+02  0.98152480505E+01  0.34904228751E+02  0.00000000000E+00 0.  1.
<scales pt_clust_4="550.00000" pt_clust_5="550.00000" pt_clust_6="33.49576"></scales>
<mgrwt>
<rscale>  0 0.30000000E+03</rscale>
<asrwt>  1 0.33495762E+02</asrwt>
<pdfrwt beam="1">  1        1 0.82903608E+00 0.30000000E+03</pdfrwt>
<pdfrwt beam="2">0</pdfrwt>
<totfact> 0.60708775E-04</totfact>
</mgrwt>
<clustering>
<clus scale="   33.496">  1  6  2 -1</clus>
<clus scale="  463.409">  4  5 -1 -1</clus>
<clus scale="  300.000">  1  4  2 -1</clus>
</clustering>
</event>
<event>
 6    1  0.1000035E-011  0.3000000E+03  0.7818608E-02  0.1093470E+00
          1   -1    0    0  502    0  0.00000000000E+00  0.00000000000E+00  0.22916525429E+03  0.22916525429E+03  0.00000000000E+00 0.  1.
         13   -1    0    0    0    0 -0.00000000000E+00 -0.00000000000E+00 -0.27500000000E+03  0.27500000000E+03  0.00000000000E+00 0.  1.
    9000005    2    1    2  501    0  0.30475880142E+02  0.23747106012E+02 -0.34132249316E+02  0.46379629671E+03  0.46092221696E+03 0.  0.
         13    1    3    3    0    0 -0.59672062969E+01  0.86998778697E+02 -0.23468955983E+03  0.25036689984E+03  0.00000000000E+00 0.  1.
          3    1    3    3  501    0  0.36443086439E+02 -0.63251672685E+02  0.20055731051E+03  0.21342939687E+03  0.00000000000E+00 0.  1.
         21    1    1    2  502  501 -0.30475880142E+02 -0.23747106012E+02 -0.11702496393E+02  0.40368957581E+02  0.00000000000E+00 0.  1.
<scales pt_clust_4="550.00000" pt_clust_5="550.00000" pt_clust_6="38.63555"></scales>
<mgrwt>
<rscale>  0 0.30000000E+03</rscale>
<asrwt>  1 0.38635551E+02</asrwt>
<pdfrwt beam="1">  1        1 0.83332820E+00 0.30000000E+03</pdfrwt>
<pdfrwt beam="2">0</pdfrwt>
<totfact> 0.54648270E-04</totfact>
</mgrwt>
<clustering>
<clus scale="   38.636">  1  6  2 -1</clus>
<clus scale="  460.922">  4  5 -1 -1</clus>
<clus scale="  300.000">  1  4  2 -1</clus>
</clustering>
</event>
<event>
 6    1  0.1000035E-011  0.3000000E+03  0.7818608E-02  0.1093470E+00
          1   -1    0    0  502    0  0.00000000000E+00  0.00000000000E+00  0.24545632072E+03  0.24545632072E+03  0.00000000000E+00 0.  1.
         13   -1    0    0    0    0 -0.00000000000E+00 -0.00000000000E+00 -0.27500000000E+03  0.27500000000E+03  0.00000000000E+00 0.  1.
    9000005    2    1    2  501    0  0.31093863438E+02  0.16082507273E+02 -0.47989213742E+02  0.48088722766E+03  0.47720444854E+03 0.  0.
         13    1    3    3    0    0  0.14746120050E+03  0.14936302616E+03 -0.16651785978E+03  0.26792222166E+03  0.00000000000E+00 0.  1.
          3    1    3    3  501    0 -0.11636733706E+03 -0.13328051889E+03  0.11852864603E+03  0.21296500600E+03  0.00000000000E+00 0.  1.
         21    1    1    2  502  501 -0.31093863438E+02 -0.16082507273E+02  0.18445534458E+02  0.39569093054E+02  0.00000000000E+00 0. -1.
<scales pt_clust_4="550.00000" pt_clust_5="550.00000" pt_clust_6="35.00679"></scales>
<mgrwt>
<rscale>  0 0.30000000E+03</rscale>
<asrwt>  1 0.35006791E+02</asrwt>
<pdfrwt beam="1">  1        1 0.89256844E+00 0.30000000E+03</pdfrwt>
<pdfrwt beam="2">0</pdfrwt>
<totfact> 0.13449921E-04</totfact>
</mgrwt>
<clustering>
<clus scale="   35.007">  1  6  2 -1</clus>
<clus scale="  477.204">  4  5 -1 -1</clus>
<clus scale="  300.000">  1  4  2 -1</clus>
</clustering>
</event>
<event>
 6    1  0.1000035E-011  0.3000000E+03  0.7818608E-02  0.1093470E+00
          1   -1    0    0  502    0  0.00000000000E+00  0.00000000000E+00  0.23804305208E+03  0.23804305208E+03  0.00000000000E+00 0.  1.
         13   -1    0    0    0    0 -0.00000000000E+00 -0.00000000000E+00 -0.27500000000E+03  0.27500000000E+03  0.00000000000E+00 0.  1.
    9000005    2    1    2  501    0  0.68556937005E+01 -0.39872008644E+02 -0.64268902514E+02  0.46422993424E+03  0.45797615921E+03 0.  0.
         13    1    3    3    0    0  0.67417786036E+02 -0.57842456520E+02 -0.25144821457E+03  0.26667791859E+03  0.00000000000E+00 0.  1.
          1    1    3    3  501    0 -0.60562092335E+02  0.17970447875E+02  0.18717931206E+03  0.19755201565E+03  0.00000000000E+00 0.  1.
         21    1    1    2  502  501 -0.68556937005E+01  0.39872008644E+02  0.27311954595E+02  0.48813117840E+02  0.00000000000E+00 0. -1.
<scales pt_clust_4="550.00000" pt_clust_5="550.00000" pt_clust_6="40.45711"></scales>
<mgrwt>
<rscale>  0 0.30000000E+03</rscale>
<asrwt>  1 0.40457108E+02</asrwt>
<pdfrwt beam="1">  1        1 0.86561110E+00 0.30000000E+03</pdfrwt>
<pdfrwt beam="2">0</pdfrwt>
<totfact> 0.27399201E-04</totfact>
</mgrwt>
<clustering>
<clus scale="   40.457">  1  6  2 -1</clus>
<clus scale="  457.976">  4  5 -1 -1</clus>
<clus scale="  300.000">  1  4  2 -1</clus>
</clustering>
</event>
<event>
 6    1  0.1000035E-011  0.3000000E+03  0.7818608E-02  0.1093470E+00
          1   -1    0    0  502    0  0.00000000000E+00  0.00000000000E+00  0.22431511446E+03  0.22431511446E+03  0.00000000000E+00 0.  1.
         13   -1    0    0    0    0 -0.00000000000E+00 -0.00000000000E+00 -0.27500000000E+03  0.27500000000E+03  0.00000000000E+00 0.  1.
    9000005    2    1    2  501    0  0.29906620089E+02  0.10973478617E+02 -0.56694708967E+02  0.46689689218E+03  0.46234575238E+03 0.  0.
         13    1    3    3    0    0  0.24581235474E+01 -0.18898158906E+03  0.97726021358E+02  0.21276855648E+03  0.00000000000E+00 0.  1.
          1    1    3    3  501    0  0.27448496541E+02  0.19995506768E+03 -0.15442073032E+03  0.25412833570E+03  0.00000000000E+00 0.  1.
         21    1    1    2  502  501 -0.29906620089E+02 -0.10973478617E+02  0.60098234245E+01  0.32418222278E+02  0.00000000000E+00 0. -1.
<scales pt_clust_4="550.00000" pt_clust_5="550.00000" pt_clust_6="31.85629"></scales>
<mgrwt>
<rscale>  0 0.30000000E+03</rscale>
<asrwt>  1 0.31856289E+02</asrwt>
<pdfrwt beam="1">  1        1 0.81569133E+00 0.30000000E+03</pdfrwt>
<pdfrwt beam="2">0</pdfrwt>
<totfact> 0.79991327E-04</totfact>
</mgrwt>
<clustering>
<clus scale="   31.856">  1  6  2 -1</clus>
<clus scale="  462.346">  4  5 -1 -1</clus>
<clus scale="  300.000">  1  4  2 -1</clus>
</clustering>
</event>
<event>
 6    1  0.1000035E-011  0.3000000E+03  0.7818608E-02  0.1093470E+00
          1   -1    0    0  502    0  0.00000000000E+00  0.00000000000E+00  0.24205887106E+03  0.24205887106E+03  0.00000000000E+00 0.  1.
         13   -1    0    0    0    0 -0.00000000000E+00 -0.00000000000E+00 -0.27500000000E+03  0.27500000000E+03  0.00000000000E+00 0.  1.
    9000005    2    1    2  501    0  0.34352433030E+02  0.16604733239E+01 -0.70837843538E+02  0.46588262849E+03  0.45917946015E+03 0.  0.
         13    1    3    3    0    0 -0.93144256253E+02  0.20178795805E+03 -0.49036232998E+02  0.22759346351E+03  0.00000000000E+00 0.  1.
          3    1    3    3  501    0  0.12749668928E+03 -0.20012748473E+03 -0.21801610541E+02  0.23828916497E+03  0.00000000000E+00 0.  1.
         21    1    1    2  502  501 -0.34352433030E+02 -0.16604733239E+01  0.37896714598E+02  0.51176242574E+02  0.00000000000E+00 0. -1.
<scales pt_clust_4="550.00000" pt_clust_5="550.00000" pt_clust_6="34.39254"></scales>
<mgrwt>
<rscale>  0 0.30000000E+03</rscale>
<asrwt>  1 0.34392540E+02</asrwt>
<pdfrwt beam="1">  1        1 0.88021408E+00 0.30000000E+03</pdfrwt>
<pdfrwt beam="2">0</pdfrwt>
<totfact> 0.19682244E-04</totfact>
</mgrwt>
<clustering>
<clus scale="   34.393">  1  6  2 -1</clus>
<clus scale="  459.179">  4  5 -1 -1</clus>
<clus scale="  300.000">  1  4  2 -1</clus>
</clustering>
</event>
<event>
 6    1  0.1000035E-011  0.3000000E+03  0.7818608E-02  0.1093470E+00
          1   -1    0    0  502    0  0.00000000000E+00  0.00000000000E+00  0.23399366659E+03  0.23399366659E+03  0.00000000000E+00 0.  1.
         13   -1    0    0    0    0 -0.00000000000E+00 -0.00000000000E+00 -0.27500000000E+03  0.27500000000E+03  0.00000000000E+00 0.  1.
    9000005    2    1    2  501    0  0.24947803478E+02  0.31059992757E+02 -0.27686911608E+02  0.46698744032E+03  0.46446053470E+03 0.  0.
         13    1    3    3    0    0  0.83395029910E+02  0.23478382601E+03  0.19293242995E+02  0.24990079071E+03  0.00000000000E+00 0.  1.
          3    1    3    3  501    0 -0.58447226432E+02 -0.20372383326E+03 -0.46980154603E+02  0.21708664961E+03  0.00000000000E+00 0.  1.
         21    1    1    2  502  501 -0.24947803478E+02 -0.31059992757E+02 -0.13319421801E+02  0.42006226271E+02  0.00000000000E+00 0.  1.
<scales pt_clust_4="550.00000" pt_clust_5="550.00000" pt_clust_6="39.83865"></scales>
<mgrwt>
<rscale>  0 0.30000000E+03</rscale>
<asrwt>  1 0.39838645E+02</asrwt>
<pdfrwt beam="1">  1        1 0.85088606E+00 0.30000000E+03</pdfrwt>
<pdfrwt beam="2">0</pdfrwt>
<totfact> 0.38979099E-04</totfact>
</mgrwt>
<clustering>
<clus scale="   39.839">  1  6  2 -1</clus>
<clus scale="  464.461">  4  5 -1 -1</clus>
<clus scale="  300.000">  1  4  2 -1</clus>
</clustering>
</event>
<event>
 6    1  0.1000035E-011  0.3000000E+03  0.7818608E-02  0.1093470E+00
          1   -1    0    0  502    0  0.00000000000E+00  0.00000000000E+00  0.24014603774E+03  0.24014603774E+03  0.00000000000E+00 0.  1.
         13   -1    0    0    0    0 -0.00000000000E+00 -0.00000000000E+00 -0.27500000000E+03  0.27500000000E+03  0.00000000000E+00 0.  1.
    9000005    2    1    2  501    0 -0.18433672931E+02 -0.26583883738E+02 -0.47926297003E+02  0.48025493418E+03  0.47676133304E+03 0.  0.
         13    1    3    3    0    0 -0.43321732583E+02  0.12885197198E+03  0.16605971181E+03  0.21460529137E+03  0.00000000000E+00 0.  1.
          3    1    3    3  501    0  0.24888059651E+02 -0.15543585572E+03 -0.21398600881E+03  0.26564964281E+03  0.00000000000E+00 0.  1.
         21    1    1    2  502  501  0.18433672931E+02  0.26583883738E+02  0.13072334744E+02  0.34891103565E+02  0.00000000000E+00 0.  1.
<scales pt_clust_4="550.00000" pt_clust_5="550.00000" pt_clust_6="32.34970"></scales>
<mgrwt>
<rscale>  0 0.30000000E+03</rscale>
<asrwt>  1 0.32349701E+02</asrwt>
<pdfrwt beam="1">  1        1 0.87325832E+00 0.30000000E+03</pdfrwt>
<pdfrwt beam="2">0</pdfrwt>
<totfact> 0.23804385E-04</totfact>
</mgrwt>
<clustering>
<clus scale="   32.350">  1  6  2 -1</clus>
<clus scale="  476.761">  4  5 -1 -1</clus>
<clus scale="  300.000">  1  4  2 -1</clus>
</clustering>
</event>
<event>
 6    1  0.1000035E-011  0.3000000E+03  0.7818608E-02  0.1093470E+00
          1   -1    0    0  502    0  0.00000000000E+00  0.00000000000E+00  0.24637009394E+03  0.24637009394E+03  0.00000000000E+00 0.  1.
         13   -1    0    0    0    0 -0.00000000000E+00 -0.00000000000E+00 -0.27500000000E+03  0.27500000000E+03  0.00000000000E+00 0.  1.
    9000005    2    1    2  501    0  0.43609466151E+02  0.16252993895E+01 -0.98215213403E+01  0.47384975648E+03  0.47173371970E+03 0.  0.
         13    1    3    3    0    0  0.38521153265E+02 -0.38136696321E+02  0.22714155831E+03  0.23351996567E+03  0.00000000000E+00 0.  1.
          3    1    3    3  501    0  0.50883128866E+01  0.39761995711E+02 -0.23696307965E+03  0.24032979081E+03  0.00000000000E+00 0.  1.
         21    1    1    2  502  501 -0.43609466151E+02 -0.16252993895E+01 -0.18808384724E+02  0.47520337457E+02  0.00000000000E+00 0.  1.
<scales pt_clust_4="550.00000" pt_clust_5="550.00000" pt_clust_6="43.63976"></scales>
<mgrwt>
<rscale>  0 0.30000000E+03</rscale>
<asrwt>  1 0.43639764E+02</asrwt>
<pdfrwt beam="1">  1        1 0.89589125E+00 0.30000000E+03</pdfrwt>
<pdfrwt beam="2">0</pdfrwt>
<totfact> 0.11835109E-04</totfact>
</mgrwt>
<clustering>
<clus scale="   43.640">  1  6  2 -1</clus>
<clus scale="  471.734">  4  5 -1 -1</clus>
<clus scale="  300.000">  1  4  2 -1</clus>
</clustering>
</event>
<event>
 6    1  0.1000035E-011  0.3000000E+03  0.7818608E-02  0.1093470E+00
          1   -1    0    0  502    0  0.00000000000E+00  0.00000000000E+00  0.23203930761E+03  0.23203930761E+03  0.00000000000E+00 0.  1.
         13   -1    0    0    0    0 -0.00000000000E+00 -0.00000000000E+00 -0.27500000000E+03  0.27500000000E+03  0.00000000000E+00 0.  1.
    9000005    2    1    2  501    0  0.62065418611E+01 -0.37919442857E+02 -0.61181467792E+02  0.46451399791E+03  0.45886128290E+03 0.  0.
         13    1    3    3    0    0 -0.22061668260E+03  0.32422006023E+02 -0.29138648296E+02  0.22488212010E+03  0.00000000000E+00 0.  1.
          1    1    3    3  501    0  0.22682322446E+03 -0.70341448880E+02 -0.32042819496E+02  0.23963187782E+03  0.00000000000E+00 0.  1.
         21    1    1    2  502  501 -0.62065418611E+01  0.37919442857E+02  0.18220775402E+02  0.42525309696E+02  0.00000000000E+00 0. -1.
<scales pt_clust_4="550.00000" pt_clust_5="550.00000" pt_clust_6="38.42402"></scales>
<mgrwt>
<rscale>  0 0.30000000E+03</rscale>
<asrwt>  1 0.38424020E+02</asrwt>
<pdfrwt beam="1">  1        1 0.84377930E+00 0.30000000E+03</pdfrwt>
<pdfrwt beam="2">0</pdfrwt>
<totfact> 0.45499390E-04</totfact>
</mgrwt>
<clustering>
<clus scale="   38.424">  1  6  2 -1</clus>
<clus scale="  458.861">  4  5 -1 -1</clus>
<clus scale="  300.000">  1  4  2 -1</clus>
</clustering>
</event>
<event>
 6    1  0.1000035E-011  0.3000000E+03  0.7818608E-02  0.1093470E+00
          1   -1    0    0  502    0  0.00000000000E+00  0.00000000000E+00  0.23272689291E+03  0.23272689291E+03  0.00000000000E+00 0.  1.
         13   -1    0    0    0    0 -0.00000000000E+00 -0.00000000000E+00 -0.27500000000E+03  0.27500000000E+03  0.00000000000E+00 0.  1.
    9000005    2    1    2  501    0  0.23783264780E+02  0.39082942917E+02 -0.37431307869E+02  0.46172077233E+03  0.45792122541E+03 0.  0.
         13    1    3    3    0    0  0.97074558653E+02  0.19352438052E+03  0.10368235646E+03  0.24005246683E+03  0.00000000000E+00 0.  1.
          3    1    3    3  501    0 -0.73291293872E+02 -0.15444143760E+03 -0.14111366432E+03  0.22166830550E+03  0.00000000000E+00 0.  1.
         21    1    1    2  502  501 -0.23783264780E+02 -0.39082942917E+02 -0.48417992226E+01  0.46006120575E+02  0.00000000000E+00 0.  1.
<scales pt_clust_4="550.00000" pt_clust_5="550.00000" pt_clust_6="45.75065"></scales>
<mgrwt>
<rscale>  0 0.30000000E+03</rscale>
<asrwt>  1 0.45750652E+02</asrwt>
<pdfrwt beam="1">  1        1 0.84627961E+00 0.30000000E+03</pdfrwt>
<pdfrwt beam="2">0</pdfrwt>
<totfact> 0.41921565E-04</totfact>
</mgrwt>
<clustering>
<clus scale="   45.751">  1  6  2 -1</clus>
<clus scale="  457.921">  4  5 -1 -1</clus>
<clus scale="  300.000">  1  4  2 -1</clus>
</clustering>
</event>
<event>
 6    1  0.1000035E-011  0.3000000E+03  0.7818608E-02  0.1093470E+00
          1   -1    0    0  502    0  0.00000000000E+00  0.00000000000E+00  0.24038797055E+03  0.24038797055E+03  0.00000000000E+00 0.  1.
         13   -1    0    0    0    0 -0.00000000000E+00 -0.00000000000E+00 -0.27500000000E+03  0.27500000000E+03  0.00000000000E+00 0.  1.
    9000005    2    1    2  501    0  0.36973242905E+02 -0.19734060000E+02 -0.18455816921E+02  0.47047163702E+03  0.46823764292E+03 0.  0.
         13    1    3    3    0    0  0.15457767016E+03 -0.18435850123E+03 -0.88536508685E+02  0.25636112509E+03  0.00000000000E+00 0.  1.
          1    1    3    3  501    0 -0.11760442725E+03  0.16462444123E+03  0.70080691765E+02  0.21411051193E+03  0.00000000000E+00 0.  1.
         21    1    1    2  502  501 -0.36973242905E+02  0.19734060000E+02 -0.16156212528E+02  0.44916333535E+02  0.00000000000E+00 0.  1.
<scales pt_clust_4="550.00000" pt_clust_5="550.00000" pt_clust_6="41.91009"></scales>
<mgrwt>
<rscale>  0 0.30000000E+03</rscale>
<asrwt>  1 0.41910089E+02</asrwt>
<pdfrwt beam="1">  1        1 0.87413807E+00 0.30000000E+03</pdfrwt>
<pdfrwt beam="2">0</pdfrwt>
<totfact> 0.22217653E-04</totfact>
</mgrwt>
<clustering>
<clus scale="   41.910">  1  6  2 -1</clus>
<clus scale="  468.238">  4  5 -1 -1</clus>
<clus scale="  300.000">  1  4  2 -1</clus>
</clustering>
</event>
<event>
 6    1  0.1000035E-011  0.3000000E+03  0.7818608E-02  0.1093470E+00
          1   -1    0    0  502    0  0.00000000000E+00  0.00000000000E+00  0.24808689209E+03  0.24808689209E+03  0.00000000000E+00 0.  1.
         13   -1    0    0    0    0 -0.00000000000E+00 -0.00000000000E+00 -0.27500000000E+03  0.27500000000E+03  0.00000000000E+00 0.  1.
    9000005    2    1    2  501    0 -0.35452548473E+02 -0.29530527495E+01 -0.11810277032E+02  0.48443848702E+03  0.48298608815E+03 0.  0.
         13    1    3    3    0    0  0.42492865888E+02 -0.13971157689E+03  0.18290779529E+03  0.23405176766E+03  0.00000000000E+00 0.  1.
          1    1    3    3  501    0 -0.77945414361E+02  0.13675852414E+03 -0.19471807232E+03  0.25038671936E+03  0.00000000000E+00 0.  1.
         21    1    1    2  502  501  0.35452548473E+02  0.29530527495E+01 -0.15102830881E+02  0.38648405069E+02  0.00000000000E+00 0.  1.
<scales pt_clust_4="550.00000" pt_clust_5="550.00000" pt_clust_6="35.57534"></scales>
<mgrwt>
<rscale>  0 0.30000000E+03</rscale>
<asrwt>  1 0.35575342E+02</asrwt>
<pdfrwt beam="1">  1        1 0.90213415E+00 0.30000000E+03</pdfrwt>
<pdfrwt beam="2">0</pdfrwt>
<totfact> 0.10301357E-04</totfact>
</mgrwt>
<clustering>
<clus scale="   35.575">  1  6  2 -1</clus>
<clus scale="  482.986">  4  5 -1 -1</clus>
<clus scale="  300.000">  1  4  2 -1</clus>
</clustering>
</event>
<event>
 6    1  0.1000035E-011  0.3000000E+03  0.7818608E-02  0.1093470E+00
          1   -1    0    0  502    0  0.00000000000E+00  0.00000000000E+00  0.24034514292E+03  0.24034514292E+03  0.00000000000E+00 0.  1.
         13   -1    0    0    0    0 -0.00000000000E+00 -0.00000000000E+00 -0.27500000000E+03  0.27500000000E+03  0.00000000000E+00 0.  1.
    9000005    2    1    2  501    0  0.21364493291E+02 -0.27423175857E+02 -0.32968027741E+02  0.48054115549E+03  0.47814688028E+03 0.  0.
         13    1    3    3    0    0  0.13214099028E+03 -0.68249098138E+01  0.18952508843E+03  0.23114406731E+03  0.00000000000E+00 0.  1.
          3    1    3    3  501    0 -0.11077649699E+03 -0.20598266043E+02 -0.22249311617E+03  0.24939708818E+03  0.00000000000E+00 0.  1.
         21    1    1    2  502  501 -0.21364493291E+02  0.27423175857E+02 -0.16868293406E+01  0.34803987428E+02  0.00000000000E+00 0. -1.
<scales pt_clust_4="550.00000" pt_clust_5="550.00000" pt_clust_6="34.76309"></scales>
<mgrwt>
<rscale>  0 0.30000000E+03</rscale>
<asrwt>  1 0.34763086E+02</asrwt>
<pdfrwt beam="1">  1        1 0.87398234E+00 0.30000000E+03</pdfrwt>
<pdfrwt beam="2">0</pdfrwt>
<totfact> 0.23081673E-04</totfact>
</mgrwt>
<clustering>
<clus scale="   34.763">  1  6  2 -1</clus>
<clus scale="  478.147">  4  5 -1 -1</clus>
<clus scale="  300.000">  1  4  2 -1</clus>
</clustering>
</event>
<event>
 6    1  0.1000035E-011  0.3000000E+03  0.7818608E-02  0.1093470E+00
          1   -1    0    0  502    0  0.00000000000E+00  0.00000000000E+00  0.24142535976E+03  0.24142535976E+03  0.00000000000E+00 0.  1.
         13   -1    0    0    0    0 -0.00000000000E+00 -0.00000000000E+00 -0.27500000000E+03  0.27500000000E+03  0.00000000000E+00 0.  1.
    9000005    2    1    2  501    0  0.11557116526E+02 -0.31722958015E+02 -0.70950445840E+01  0.47351752838E+03  0.47225903593E+03 0.  0.
         13    1    3    3    0    0 -0.18678752457E+03  0.35375682346E+01  0.13196488193E+03  0.22872871220E+03  0.00000000000E+00 0.  1.
          3    1    3    3  501    0  0.19834464109E+03 -0.35260526249E+02 -0.13905992652E+03  0.24478881617E+03  0.00000000000E+00 0.  1.
         21    1    1    2  502  501 -0.11557116526E+02  0.31722958015E+02 -0.26479595659E+02  0.42907831381E+02  0.00000000000E+00 0. -1.
<scales pt_clust_4="550.00000" pt_clust_5="550.00000" pt_clust_6="33.76261"></scales>
<mgrwt>
<rscale>  0 0.30000000E+03</rscale>
<asrwt>  1 0.33762615E+02</asrwt>
<pdfrwt beam="1">  1        1 0.87791040E+00 0.30000000E+03</pdfrwt>
<pdfrwt beam="2">0</pdfrwt>
<totfact> 0.21041114E-04</totfact>
</mgrwt>
<clustering>
<clus scale="   33.763">  1  6  2 -1</clus>
<clus scale="  472.259">  4  5 -1 -1</clus>
<clus scale="  300.000">  1  4  2 -1</clus>
</clustering>
</event>
<event>
 6    1  0.1000035E-011  0.3000000E+03  0.7818608E-02  0.1093470E+00
          1   -1    0    0  502    0  0.00000000000E+00  0.00000000000E+00  0.24619008357E+03  0.24619008357E+03  0.00000000000E+00 0.  1.
         13   -1    0    0    0    0 -0.00000000000E+00 -0.00000000000E+00 -0.27500000000E+03  0.27500000000E+03  0.00000000000E+00 0.  1.
    9000005    2    1    2  501    0  0.29941965590E+02  0.34568251495E+02 -0.33206823054E+02  0.47524644306E+03  0.47187392727E+03 0.  0.
         13    1    3    3    0    0  0.14880864818E+03 -0.69611988136E+02  0.15747655886E+03  0.22757132784E+03  0.00000000000E+00 0.  1.
          1    1    3    3  501    0 -0.11886668259E+03  0.10418023963E+03 -0.19068338192E+03  0.24767511522E+03  0.00000000000E+00 0.  1.
         21    1    1    2  502  501 -0.29941965590E+02 -0.34568251495E+02  0.43969066219E+01  0.45943640503E+02  0.00000000000E+00 0. -1.
<scales pt_clust_4="550.00000" pt_clust_5="550.00000" pt_clust_6="45.73276"></scales>
<mgrwt>
<rscale>  0 0.30000000E+03</rscale>
<asrwt>  1 0.45732760E+02</asrwt>
<pdfrwt beam="1">  1        1 0.89523667E+00 0.30000000E+03</pdfrwt>
<pdfrwt beam="2">0</pdfrwt>
<totfact> 0.11935372E-04</totfact>
</mgrwt>
<clustering>
<clus scale="   45.733">  1  6  2 -1</clus>
<clus scale="  471.874">  4  5 -1 -1</clus>
<clus scale="  300.000">  1  4  2 -1</clus>
</clustering>
</event>
<event>
 6    1  0.1000035E-011  0.3000000E+03  0.7818608E-02  0.1093470E+00
          1   -1    0    0  502    0  0.00000000000E+00  0.00000000000E+00  0.24603708793E+03  0.24603708793E+03  0.00000000000E+00 0.  1.
         13   -1    0    0    0    0 -0.00000000000E+00 -0.00000000000E+00 -0.27500000000E+03  0.27500000000E+03  0.00000000000E+00 0.  1.
    9000005    2    1    2  501    0  0.26309230578E+02  0.19407243887E+02 -0.37130962031E+02  0.48733940598E+03  0.48482179360E+03 0.  0.
         13    1    3    3    0    0  0.25385586867E+03  0.29790572822E+02 -0.44470990239E+02  0.25943775605E+03  0.00000000000E+00 0.  1.
          1    1    3    3  501    0 -0.22754663810E+03 -0.10383328935E+02  0.73400282074E+01  0.22790164993E+03  0.00000000000E+00 0.  1.
         21    1    1    2  502  501 -0.26309230578E+02 -0.19407243887E+02  0.81680499662E+01  0.33697681955E+02  0.00000000000E+00 0.  1.
<scales pt_clust_4="550.00000" pt_clust_5="550.00000" pt_clust_6="32.69276"></scales>
<mgrwt>
<rscale>  0 0.30000000E+03</rscale>
<asrwt>  1 0.32692763E+02</asrwt>
<pdfrwt beam="1">  1        1 0.89468032E+00 0.30000000E+03</pdfrwt>
<pdfrwt beam="2">0</pdfrwt>
<totfact> 0.12878269E-04</totfact>
</mgrwt>
<clustering>
<clus scale="   32.693">  1  6  2 -1</clus>
<clus scale="  484.822">  4  5 -1 -1</clus>
<clus scale="  300.000">  1  4  2 -1</clus>
</clustering>
</event>
<event>
 6    1  0.1000035E-011  0.3000000E+03  0.7818608E-02  0.1093470E+00
          1   -1    0    0  502    0  0.00000000000E+00  0.00000000000E+00  0.24042943672E+03  0.24042943672E+03  0.00000000000E+00 0.  1.
         13   -1    0    0    0    0 -0.00000000000E+00 -0.00000000000E+00 -0.27500000000E+03  0.27500000000E+03  0.00000000000E+00 0.  1.
    9000005    2    1    2  501    0 -0.30762122104E+02 -0.23478991135E+02 -0.62335188338E+02  0.46780123514E+03  0.46201163266E+03 0.  0.
         13    1    3    3    0    0  0.17002360320E+03 -0.11254888822E+03  0.64871235523E+02  0.21397092111E+03  0.00000000000E+00 0.  1.
          3    1    3    3  501    0 -0.20078572530E+03  0.89069897081E+02 -0.12720642386E+03  0.25383031403E+03  0.00000000000E+00 0.  1.
         21    1    1    2  502  501  0.30762122104E+02  0.23478991135E+02  0.27764625059E+02  0.47628201580E+02  0.00000000000E+00 0.  1.
<scales pt_clust_4="550.00000" pt_clust_5="550.00000" pt_clust_6="38.69846"></scales>
<mgrwt>
<rscale>  0 0.30000000E+03</rscale>
<asrwt>  1 0.38698465E+02</asrwt>
<pdfrwt beam="1">  1        1 0.87428886E+00 0.30000000E+03</pdfrwt>
<pdfrwt beam="2">0</pdfrwt>
<totfact> 0.22461206E-04</totfact>
</mgrwt>
<clustering>
<clus scale="   38.698">  1  6  2 -1</clus>
<clus scale="  462.012">  4  5 -1 -1</clus>
<clus scale="  300.000">  1  4  2 -1</clus>
</clustering>
</event>
<event>
 6    1  0.1000035E-011  0.3000000E+03  0.7818608E-02  0.1093470E+00
          1   -1    0    0  502    0  0.00000000000E+00  0.00000000000E+00  0.23915867294E+03  0.23915867294E+03  0.00000000000E+00 0.  1.
         13   -1    0    0    0    0 -0.00000000000E+00 -0.00000000000E+00 -0.27500000000E+03  0.27500000000E+03  0.00000000000E+00 0.  1.
    9000005    2    1    2  501    0  0.30180333557E+02 -0.11351580135E+02 -0.27197803703E+02  0.48077572219E+03  0.47892156311E+03 0.  0.
         13    1    3    3    0    0  0.48438885234E+02  0.23033175645E+03  0.99148053680E+01  0.23557874903E+03  0.00000000000E+00 0.  1.
          3    1    3    3  501    0 -0.18258551677E+02 -0.24168333658E+03 -0.37112609070E+02  0.24519697315E+03  0.00000000000E+00 0.  1.
         21    1    1    2  502  501 -0.30180333557E+02  0.11351580135E+02 -0.86435233559E+01  0.33382950756E+02  0.00000000000E+00 0. -1.
<scales pt_clust_4="550.00000" pt_clust_5="550.00000" pt_clust_6="32.24456"></scales>
<mgrwt>
<rscale>  0 0.30000000E+03</rscale>
<asrwt>  1 0.32244565E+02</asrwt>
<pdfrwt beam="1">  1        1 0.86966790E+00 0.30000000E+03</pdfrwt>
<pdfrwt beam="2">0</pdfrwt>
<totfact> 0.25921580E-04</totfact>
</mgrwt>
<clustering>
<clus scale="   32.245">  1  6  2 -1</clus>
<clus scale="  478.922">  4  5 -1 -1</clus>
<clus scale="  300.000">  1  4  2 -1</clus>
</clustering>
</event>
<event>
 6    1  0.1000035E-011  0.3000000E+03  0.7818608E-02  0.1093470E+00
          1   -1    0    0  502    0  0.00000000000E+00  0.00000000000E+00  0.23191894821E+03  0.23191894821E+03  0.00000000000E+00 0.  1.
         13   -1    0    0    0    0 -0.00000000000E+00 -0.00000000000E+00 -0.27500000000E+03  0.27500000000E+03  0.00000000000E+00 0.  1.
    9000005    2    1    2  501    0  0.16802992404E+02  0.34913951878E+02 -0.57087172533E+02  0.46571826851E+03  0.46057923940E+03 0.  0.
         13    1    3    3    0    0 -0.48561312767E+02 -0.16682437259E+03  0.10122039663E+03  0.20108242361E+03  0.00000000000E+00 0.  1.
          3    1    3    3  501    0  0.65364305171E+02  0.20173832447E+03 -0.15830756916E+03  0.26463584490E+03  0.00000000000E+00 0.  1.
         21    1    1    2  502  501 -0.16802992404E+02 -0.34913951878E+02  0.14006120739E+02  0.41200679698E+02  0.00000000000E+00 0.  1.
<scales pt_clust_4="550.00000" pt_clust_5="550.00000" pt_clust_6="38.74693"></scales>
<mgrwt>
<rscale>  0 0.30000000E+03</rscale>
<asrwt>  1 0.38746930E+02</asrwt>
<pdfrwt beam="1">  1        1 0.84334163E+00 0.30000000E+03</pdfrwt>
<pdfrwt beam="2">0</pdfrwt>
<totfact> 0.45821120E-04</totfact>
</mgrwt>
<clustering>
<clus scale="   38.747">  1  6  2 -1</clus>
<clus scale="  460.579">  4  5 -1 -1</clus>
<clus scale="  300.000">  1  4  2 -1</clus>
</clustering>
</event>
<event>
 6    1  0.1000035E-011  0.3000000E+03  0.7818608E-02  0.1093470E+00
          1   -1    0    0  502    0  0.00000000000E+00  0.00000000000E+00  0.24864481081E+03  0.24864481081E+03  0.00000000000E+00 0.  1.
         13   -1    0    0    0    0 -0.00000000000E+00 -0.00000000000E+00 -0.27500000000E+03  0.27500000000E+03  0.00000000000E+00 0.  1.
    9000005    2    1    2  501    0  0.17883452560E+02 -0.27711458417E+02 -0.32870504481E+02  0.49002648044E+03  0.48780912114E+03 0.  0.
         13    1    3    3    0    0  0.29712217641E+02  0.17939967878E+03  0.13228007200E+03  0.22486680073E+03  0.00000000000E+00 0.  1.
          3    1    3    3  501    0 -0.11828765080E+02 -0.20711113719E+03 -0.16515057648E+03  0.26515967971E+03  0.00000000000E+00 0.  1.
         21    1    1    2  502  501 -0.17883452560E+02  0.27711458417E+02  0.65153152860E+01  0.33618330362E+02  0.00000000000E+00 0.  1.
<scales pt_clust_4="550.00000" pt_clust_5="550.00000" pt_clust_6="32.98095"></scales>
<mgrwt>
<rscale>  0 0.30000000E+03</rscale>
<asrwt>  1 0.32980946E+02</asrwt>
<pdfrwt beam="1">  1        1 0.90416295E+00 0.30000000E+03</pdfrwt>
<pdfrwt beam="2">0</pdfrwt>
<totfact> 0.96863898E-05</totfact>
</mgrwt>
<clustering>
<clus scale="   32.981">  1  6  2 -1</clus>
<clus scale="  487.809">  4  5 -1 -1</clus>
<clus scale="  300.000">  1  4  2 -1</clus>
</clustering>
</event>
<event>
 6    1  0.1000035E-011  0.3000000E+03  0.7818608E-02  0.1093470E+00
          1   -1    0    0  502    0  0.00000000000E+00  0.00000000000E+00  0.25026030685E+03  0.25026030685E+03  0.00000000000E+00 0.  1.
         13   -1    0    0    0    0 -0.00000000000E+00 -0.00000000000E+00 -0.27500000000E+03  0.27500000000E+03  0.00000000000E+00 0.  1.
    9000005    2    1    2  501    0  0.28814191344E+02 -0.29087883435E+02 -0.57156824055E+02  0.47303739079E+03  0.46778318478E+03 0.  0.
         13    1    3    3    0    0  0.16350773247E+03 -0.14676474950E+02 -0.21146352787E+03  0.26770693139E+03  0.00000000000E+00 0.  1.
          1    1    3    3  501    0 -0.13469354113E+03 -0.14411408485E+02  0.15430670381E+03  0.20533045940E+03  0.00000000000E+00 0.  1.
         21    1    1    2  502  501 -0.28814191344E+02  0.29087883435E+02  0.32417130908E+02  0.52222916061E+02  0.00000000000E+00 0.  1.
<scales pt_clust_4="550.00000" pt_clust_5="550.00000" pt_clust_6="40.94341"></scales>
<mgrwt>
<rscale>  0 0.30000000E+03</rscale>
<asrwt>  1 0.40943407E+02</asrwt>
<pdfrwt beam="1">  1        1 0.91003748E+00 0.30000000E+03</pdfrwt>
<pdfrwt beam="2">0</pdfrwt>
<totfact> 0.69664003E-05</totfact>
</mgrwt>
<clustering>
<clus scale="   40.943">  1  6  2 -1</clus>
<clus scale="  467.783">  4  5 -1 -1</clus>
<clus scale="  300.000">  1  4  2 -1</clus>
</clustering>
</event>
<event>
 6    1  0.1000035E-011  0.3000000E+03  0.7818608E-02  0.1093470E+00
          1   -1    0    0  502    0  0.00000000000E+00  0.00000000000E+00  0.23614745031E+03  0.23614745031E+03  0.00000000000E+00 0.  1.
         13   -1    0    0    0    0 -0.00000000000E+00 -0.00000000000E+00 -0.27500000000E+03  0.27500000000E+03  0.00000000000E+00 0.  1.
    9000005    2    1    2  501    0  0.43405109158E+01  0.44096318889E+02 -0.32067538225E+02  0.46632154536E+03  0.46310272217E+03 0.  0.
         13    1    3    3    0    0  0.40424812745E+02 -0.12829568389E+03  0.15779294957E+03  0.20734648037E+03  0.00000000000E+00 0.  1.
          3    1    3    3  501    0 -0.36084301830E+02  0.17239200278E+03 -0.18986048779E+03  0.25897506498E+03  0.00000000000E+00 0.  1.
         21    1    1    2  502  501 -0.43405109158E+01 -0.44096318889E+02 -0.67850114637E+01  0.44825904956E+02  0.00000000000E+00 0.  1.
<scales pt_clust_4="550.00000" pt_clust_5="550.00000" pt_clust_6="44.30945"></scales>
<mgrwt>
<rscale>  0 0.30000000E+03</rscale>
<asrwt>  1 0.44309450E+02</asrwt>
<pdfrwt beam="1">  1        1 0.85871800E+00 0.30000000E+03</pdfrwt>
<pdfrwt beam="2">0</pdfrwt>
<totfact> 0.31964553E-04</totfact>
</mgrwt>
<clustering>
<clus scale="   44.309">  1  6  2 -1</clus>
<clus scale="  463.103">  4  5 -1 -1</clus>
<clus scale="  300.000">  1  4  2 -1</clus>
</clustering>
</event>
<event>
 6    1  0.1000035E-011  0.3000000E+03  0.7818608E-02  0.1093470E+00
          1   -1    0    0  502    0  0.00000000000E+00  0.00000000000E+00  0.24917540944E+03  0.24917540944E+03  0.00000000000E+00 0.  1.
         13   -1    0    0    0    0 -0.00000000000E+00 -0.00000000000E+00 -0.27500000000E+03  0.27500000000E+03  0.00000000000E+00 0.  1.
    9000005    2    1    2  501    0  0.17771441675E+02 -0.27581042444E+02 -0.42769637412E+02  0.48724747077E+03  0.48425645876E+03 0.  0.
         13    1    3    3    0    0  0.91483852081E+02 -0.11597616359E+03  0.18219326930E+03  0.23455096054E+03  0.00000000000E+00 0.  1.
          1    1    3    3  501    0 -0.73712410405E+02  0.88395121141E+02 -0.22496290671E+03  0.25269651024E+03  0.00000000000E+00 0.  1.
         21    1    1    2  502  501 -0.17771441675E+02  0.27581042444E+02  0.16945046856E+02  0.36927938671E+02  0.00000000000E+00 0.  1.
<scales pt_clust_4="550.00000" pt_clust_5="550.00000" pt_clust_6="32.81064"></scales>
<mgrwt>
<rscale>  0 0.30000000E+03</rscale>
<asrwt>  1 0.32810639E+02</asrwt>
<pdfrwt beam="1">  1        1 0.90609240E+00 0.30000000E+03</pdfrwt>
<pdfrwt beam="2">0</pdfrwt>
<totfact> 0.89084537E-05</totfact>
</mgrwt>
<clustering>
<clus scale="   32.811">  1  6  2 -1</clus>
<clus scale="  484.256">  4  5 -1 -1</clus>
<clus scale="  300.000">  1  4  2 -1</clus>
</clustering>
</event>
<event>
 6    1  0.1000035E-011  0.3000000E+03  0.7818608E-02  0.1093470E+00
          1   -1    0    0  502    0  0.00000000000E+00  0.00000000000E+00  0.25484386681E+03  0.25484386681E+03  0.00000000000E+00 0.  1.
         13   -1    0    0    0    0 -0.00000000000E+00 -0.00000000000E+00 -0.27500000000E+03  0.27500000000E+03  0.00000000000E+00 0.  1.
    9000005    2    1    2  501    0 -0.41074280828E+02 -0.44337796315E+02 -0.17161513137E+02  0.46933019499E+03  0.46510577041E+03 0.  0.
         13    1    3    3    0    0 -0.19120131764E+03  0.12279736183E+03 -0.71444861212E+02  0.23820475254E+03  0.00000000000E+00 0.  1.
          1    1    3    3  501    0  0.15012703681E+03 -0.16713515815E+03  0.54283348075E+02  0.23112544245E+03  0.00000000000E+00 0.  1.
         21    1    1    2  502  501  0.41074280828E+02  0.44337796315E+02 -0.29946200559E+01  0.60513671818E+02  0.00000000000E+00 0.  1.
<scales pt_clust_4="550.00000" pt_clust_5="550.00000" pt_clust_6="60.43956"></scales>
<mgrwt>
<rscale>  0 0.30000000E+03</rscale>
<asrwt>  1 0.60439560E+02</asrwt>
<pdfrwt beam="1">  1        1 0.92670497E+00 0.30000000E+03</pdfrwt>
<pdfrwt beam="2">0</pdfrwt>
<totfact> 0.27441150E-05</totfact>
</mgrwt>
<clustering>
<clus scale="   60.440">  1  6  2 -1</clus>
<clus scale="  465.106">  4  5 -1 -1</clus>
<clus scale="  300.000">  1  4  2 -1</clus>
</clustering>
</event>
<event>
 6    1  0.1000035E-011  0.3000000E+03  0.7818608E-02  0.1093470E+00
          1   -1    0    0  502    0  0.00000000000E+00  0.00000000000E+00  0.22280915802E+03  0.22280915802E+03  0.00000000000E+00 0.  1.
         13   -1    0    0    0    0 -0.00000000000E+00 -0.00000000000E+00 -0.27500000000E+03  0.27500000000E+03  0.00000000000E+00 0.  1.
    9000005    2    1    2  501    0  0.21177372888E+02  0.21278019834E+02 -0.63951007002E+02  0.46556731050E+03  0.46017600335E+03 0.  0.
         13    1    3    3    0    0 -0.20968477209E+03 -0.57902590284E+01  0.35490656801E+02  0.21274589882E+03  0.00000000000E+00 0.  1.
          3    1    3    3  501    0  0.23086214497E+03  0.27068278863E+02 -0.99441663803E+02  0.25282141168E+03  0.00000000000E+00 0.  1.
         21    1    1    2  502  501 -0.21177372888E+02 -0.21278019834E+02  0.11760165026E+02  0.32241847527E+02  0.00000000000E+00 0.  1.
<scales pt_clust_4="550.00000" pt_clust_5="550.00000" pt_clust_6="30.02058"></scales>
<mgrwt>
<rscale>  0 0.30000000E+03</rscale>
<asrwt>  1 0.30020580E+02</asrwt>
<pdfrwt beam="1">  1        1 0.81021512E+00 0.30000000E+03</pdfrwt>
<pdfrwt beam="2">0</pdfrwt>
<totfact> 0.89445574E-04</totfact>
</mgrwt>
<clustering>
<clus scale="   30.021">  1  6  2 -1</clus>
<clus scale="  460.176">  4  5 -1 -1</clus>
<clus scale="  300.000">  1  4  2 -1</clus>
</clustering>
</event>
<event>
 6    1  0.1000035E-011  0.3000000E+03  0.7818608E-02  0.1093470E+00
          1   -1    0    0  502    0  0.00000000000E+00  0.00000000000E+00  0.24599645683E+03  0.24599645683E+03  0.00000000000E+00 0.  1.
         13   -1    0    0    0    0 -0.00000000000E+00 -0.00000000000E+00 -0.27500000000E+03  0.27500000000E+03  0.00000000000E+00 0.  1.
    9000005    2    1    2  501    0 -0.12363929277E+02 -0.43069266922E+02 -0.56385831141E+02  0.46848342802E+03  0.46291417334E+03 0.  0.
         13    1    3    3    0    0 -0.12645016651E+03 -0.11505185147E+03 -0.20556074146E+03  0.26736078913E+03  0.00000000000E+00 0.  1.
          3    1    3    3  501    0  0.11408623723E+03  0.71982584547E+02  0.14917491032E+03  0.20112263889E+03  0.00000000000E+00 0.  1.
         21    1    1    2  502  501  0.12363929277E+02  0.43069266922E+02  0.27382287974E+02  0.52513028813E+02  0.00000000000E+00 0.  1.
<scales pt_clust_4="550.00000" pt_clust_5="550.00000" pt_clust_6="44.80880"></scales>
<mgrwt>
<rscale>  0 0.30000000E+03</rscale>
<asrwt>  1 0.44808799E+02</asrwt>
<pdfrwt beam="1">  1        1 0.89453257E+00 0.30000000E+03</pdfrwt>
<pdfrwt beam="2">0</pdfrwt>
<totfact> 0.12199228E-04</totfact>
</mgrwt>
<clustering>
<clus scale="   44.809">  1  6  2 -1</clus>
<clus scale="  462.914">  4  5 -1 -1</clus>
<clus scale="  300.000">  1  4  2 -1</clus>
</clustering>
</event>
<event>
 6    1  0.1000035E-011  0.3000000E+03  0.7818608E-02  0.1093470E+00
          1   -1    0    0  502    0  0.00000000000E+00  0.00000000000E+00  0.23141664067E+03  0.23141664067E+03  0.00000000000E+00 0.  1.
         13   -1    0    0    0    0 -0.00000000000E+00 -0.00000000000E+00 -0.27500000000E+03  0.27500000000E+03  0.00000000000E+00 0.  1.
    9000005    2    1    2  501    0 -0.39474962427E+01 -0.41503270064E+02 -0.29482136664E+02  0.46240586207E+03  0.45957793761E+03 0.  0.
         13    1    3    3    0    0 -0.12717416529E+03  0.16768527259E+03 -0.57074913184E+02  0.21805770951E+03  0.00000000000E+00 0.  1.
          3    1    3    3  501    0  0.12322666905E+03 -0.20918854266E+03  0.27592776520E+02  0.24434815256E+03  0.00000000000E+00 0.  1.
         21    1    1    2  502  501  0.39474962427E+01  0.41503270064E+02 -0.14101222664E+02  0.44010778602E+02  0.00000000000E+00 0. -1.
<scales pt_clust_4="550.00000" pt_clust_5="550.00000" pt_clust_6="41.69060"></scales>
<mgrwt>
<rscale>  0 0.30000000E+03</rscale>
<asrwt>  1 0.41690597E+02</asrwt>
<pdfrwt beam="1">  1        1 0.84151506E+00 0.30000000E+03</pdfrwt>
<pdfrwt beam="2">0</pdfrwt>
<totfact> 0.46824972E-04</totfact>
</mgrwt>
<clustering>
<clus scale="   41.691">  1  6  2 -1</clus>
<clus scale="  459.578">  4  5 -1 -1</clus>
<clus scale="  300.000">  1  4  2 -1</clus>
</clustering>
</event>
<event>
 6    1  0.1000035E-011  0.3000000E+03  0.7818608E-02  0.1093470E+00
          1   -1    0    0  502    0  0.00000000000E+00  0.00000000000E+00  0.23369709397E+03  0.23369709397E+03  0.00000000000E+00 0.  1.
         13   -1    0    0    0    0 -0.00000000000E+00 -0.00000000000E+00 -0.27500000000E+03  0.27500000000E+03  0.00000000000E+00 0.  1.
    9000005    2    1    2  501    0 -0.35776849746E+02 -0.24483312220E+02 -0.37816999276E+02  0.46520494410E+03  0.46163416145E+03 0.  0.
         13    1    3    3    0    0  0.16217228972E+03  0.24274949098E+02  0.12346014251E+03  0.20525966846E+03  0.00000000000E+00 0.  1.
          3    1    3    3  501    0 -0.19794913947E+03 -0.48758261318E+02 -0.16127714178E+03  0.25994527564E+03  0.00000000000E+00 0.  1.
         21    1    1    2  502  501  0.35776849746E+02  0.24483312220E+02 -0.34859067520E+01  0.43492149876E+02  0.00000000000E+00 0. -1.
<scales pt_clust_4="550.00000" pt_clust_5="550.00000" pt_clust_6="43.35223"></scales>
<mgrwt>
<rscale>  0 0.30000000E+03</rscale>
<asrwt>  1 0.43352227E+02</asrwt>
<pdfrwt beam="1">  1        1 0.84980761E+00 0.30000000E+03</pdfrwt>
<pdfrwt beam="2">0</pdfrwt>
<totfact> 0.39295125E-04</totfact>
</mgrwt>
<clustering>
<clus scale="   43.352">  1  6  2 -1</clus>
<clus scale="  461.634">  4  5 -1 -1</clus>
<clus scale="  300.000">  1  4  2 -1</clus>
</clustering>
</event>
<event>
 6    1  0.1000035E-011  0.3000000E+03  0.7818608E-02  0.1093470E+00
          1   -1    0    0  502    0  0.00000000000E+00  0.00000000000E+00  0.25856408758E+03  0.25856408758E+03  0.00000000000E+00 0.  1.
         13   -1    0    0    0    0 -0.00000000000E+00 -0.00000000000E+00 -0.27500000000E+03  0.27500000000E+03  0.00000000000E+00 0.  1.
    9000005    2    1    2  501    0 -0.24022160689E+02 -0.18286224816E+02 -0.54545118657E+02  0.48494555385E+03  0.48092158405E+03 0.  0.
         13    1    3    3    0    0  0.26967258393E+02  0.18421805621E+03 -0.16494158015E+03  0.24873530132E+03  0.00000000000E+00 0.  1.
          1    1    3    3  501    0 -0.50989419083E+02 -0.20250428102E+03  0.11039646149E+03  0.23621025253E+03  0.00000000000E+00 0.  1.
         21    1    1    2  502  501  0.24022160689E+02  0.18286224816E+02  0.38109206233E+02  0.48618533728E+02  0.00000000000E+00 0.  1.
<scales pt_clust_4="550.00000" pt_clust_5="550.00000" pt_clust_6="30.19023"></scales>
<mgrwt>
<rscale>  0 0.30000000E+03</rscale>
<asrwt>  1 0.30190234E+02</asrwt>
<pdfrwt beam="1">  1        1 0.94023305E+00 0.30000000E+03</pdfrwt>
<pdfrwt beam="2">0</pdfrwt>
<totfact> 0.19524140E-05</totfact>
</mgrwt>
<clustering>
<clus scale="   30.190">  1  6  2 -1</clus>
<clus scale="  480.922">  4  5 -1 -1</clus>
<clus scale="  300.000">  1  4  2 -1</clus>
</clustering>
</event>
<event>
 6    1  0.1000035E-011  0.3000000E+03  0.7818608E-02  0.1093470E+00
          1   -1    0    0  502    0  0.00000000000E+00  0.00000000000E+00  0.22808853317E+03  0.22808853317E+03  0.00000000000E+00 0.  1.
         13   -1    0    0    0    0 -0.00000000000E+00 -0.00000000000E+00 -0.27500000000E+03  0.27500000000E+03  0.00000000000E+00 0.  1.
    9000005    2    1    2  501    0  0.30219373069E+02 -0.44917571993E+01 -0.57010869193E+02  0.47091114484E+03  0.46644794001E+03 0.  0.
         13    1    3    3    0    0  0.12856695830E+03  0.15420762239E+03 -0.16086463035E+03  0.25726811475E+03  0.00000000000E+00 0.  1.
          3    1    3    3  501    0 -0.98347585227E+02 -0.15869937959E+03  0.10385376116E+03  0.21364303010E+03  0.00000000000E+00 0.  1.
         21    1    1    2  502  501 -0.30219373069E+02  0.44917571993E+01  0.10099402365E+02  0.32177388328E+02  0.00000000000E+00 0.  1.
<scales pt_clust_4="550.00000" pt_clust_5="550.00000" pt_clust_6="30.55137"></scales>
<mgrwt>
<rscale>  0 0.30000000E+03</rscale>
<asrwt>  1 0.30551373E+02</asrwt>
<pdfrwt beam="1">  1        1 0.82941285E+00 0.30000000E+03</pdfrwt>
<pdfrwt beam="2">0</pdfrwt>
<totfact> 0.61329835E-04</totfact>
</mgrwt>
<clustering>
<clus scale="   30.551">  1  6  2 -1</clus>
<clus scale="  466.448">  4  5 -1 -1</clus>
<clus scale="  300.000">  1  4  2 -1</clus>
</clustering>
</event>
<event>
 6    1  0.1000035E-011  0.3000000E+03  0.7818608E-02  0.1093470E+00
          1   -1    0    0  502    0  0.00000000000E+00  0.00000000000E+00  0.23082451337E+03  0.23082451337E+03  0.00000000000E+00 0.  1.
         13   -1    0    0    0    0 -0.00000000000E+00 -0.00000000000E+00 -0.27500000000E+03  0.27500000000E+03  0.00000000000E+00 0.  1.
    9000005    2    1    2  501    0  0.33786847922E+02  0.86436320762E+01 -0.22500833611E+02  0.46476292485E+03  0.46290606534E+03 0.  0.
         13    1    3    3    0    0 -0.19809155910E+03  0.10019978948E+02 -0.97553331381E+02  0.22103691599E+03  0.00000000000E+00 0.  1.
          1    1    3    3  501    0  0.23187840702E+03 -0.13763468719E+01  0.75052497771E+02  0.24372600886E+03  0.00000000000E+00 0.  1.
         21    1    1    2  502  501 -0.33786847922E+02 -0.86436320762E+01 -0.21674653024E+02  0.41061588519E+02  0.00000000000E+00 0. -1.
<scales pt_clust_4="550.00000" pt_clust_5="550.00000" pt_clust_6="34.87499"></scales>
<mgrwt>
<rscale>  0 0.30000000E+03</rscale>
<asrwt>  1 0.34874987E+02</asrwt>
<pdfrwt beam="1">  1        1 0.83936187E+00 0.30000000E+03</pdfrwt>
<pdfrwt beam="2">0</pdfrwt>
<totfact> 0.50296294E-04</totfact>
</mgrwt>
<clustering>
<clus scale="   34.875">  1  6  2 -1</clus>
<clus scale="  462.906">  4  5 -1 -1</clus>
<clus scale="  300.000">  1  4  2 -1</clus>
</clustering>
</event>
<event>
 6    1  0.1000035E-011  0.3000000E+03  0.7818608E-02  0.1093470E+00
          1   -1    0    0  502    0  0.00000000000E+00  0.00000000000E+00  0.23498947034E+03  0.23498947034E+03  0.00000000000E+00 0.  1.
         13   -1    0    0    0    0 -0.00000000000E+00 -0.00000000000E+00 -0.27500000000E+03  0.27500000000E+03  0.00000000000E+00 0.  1.
    9000005    2    1    2  501    0 -0.48706506390E+01 -0.30277222230E+02 -0.47663750052E+02  0.47838242673E+03  0.47501313635E+03 0.  0.
         13    1    3    3    0    0 -0.14998186706E+03  0.13747739821E+03 -0.13038604569E+03  0.24165081497E+03  0.00000000000E+00 0.  1.
          1    1    3    3  501    0  0.14511121642E+03 -0.16775462044E+03  0.82722295638E+02  0.23673161176E+03  0.00000000000E+00 0.  1.
         21    1    1    2  502  501  0.48706506390E+01  0.30277222230E+02  0.76532203905E+01  0.31607043613E+02  0.00000000000E+00 0. -1.
<scales pt_clust_4="550.00000" pt_clust_5="550.00000" pt_clust_6="30.66649"></scales>
<mgrwt>
<rscale>  0 0.30000000E+03</rscale>
<asrwt>  1 0.30666487E+02</asrwt>
<pdfrwt beam="1">  1        1 0.85450716E+00 0.30000000E+03</pdfrwt>
<pdfrwt beam="2">0</pdfrwt>
<totfact> 0.37777701E-04</totfact>
</mgrwt>
<clustering>
<clus scale="   30.666">  1  6  2 -1</clus>
<clus scale="  475.013">  4  5 -1 -1</clus>
<clus scale="  300.000">  1  4  2 -1</clus>
</clustering>
</event>
<event>
 6    1  0.1000035E-011  0.3000000E+03  0.7818608E-02  0.1093470E+00
          1   -1    0    0  502    0  0.00000000000E+00  0.00000000000E+00  0.23552172258E+03  0.23552172258E+03  0.00000000000E+00 0.  1.
         13   -1    0    0    0    0 -0.00000000000E+00 -0.00000000000E+00 -0.27500000000E+03  0.27500000000E+03  0.00000000000E+00 0.  1.
    9000005    2    1    2  501    0  0.17907663749E+02  0.25495004365E+02 -0.43187578041E+02  0.47914595837E+03  0.47617749092E+03 0.  0.
         13    1    3    3    0    0 -0.10417722747E+02 -0.19276466582E+03  0.99170368137E+02  0.21702881664E+03  0.00000000000E+00 0.  1.
          1    1    3    3  501    0  0.28325386497E+02  0.21825967019E+03 -0.14235794618E+03  0.26211714173E+03  0.00000000000E+00 0.  1.
         21    1    1    2  502  501 -0.17907663749E+02 -0.25495004365E+02  0.37093006224E+01  0.31375764208E+02  0.00000000000E+00 0.  1.
<scales pt_clust_4="550.00000" pt_clust_5="550.00000" pt_clust_6="31.15573"></scales>
<mgrwt>
<rscale>  0 0.30000000E+03</rscale>
<asrwt>  1 0.31155733E+02</asrwt>
<pdfrwt beam="1">  1        1 0.85644263E+00 0.30000000E+03</pdfrwt>
<pdfrwt beam="2">0</pdfrwt>
<totfact> 0.36020864E-04</totfact>
</mgrwt>
<clustering>
<clus scale="   31.156">  1  6  2 -1</clus>
<clus scale="  476.177">  4  5 -1 -1</clus>
<clus scale="  300.000">  1  4  2 -1</clus>
</clustering>
</event>
<event>
 6    1  0.1000035E-011  0.3000000E+03  0.7818608E-02  0.1093470E+00
          1   -1    0    0  502    0  0.00000000000E+00  0.00000000000E+00  0.25011794888E+03  0.25011794888E+03  0.00000000000E+00 0.  1.
         13   -1    0    0    0    0 -0.00000000000E+00 -0.00000000000E+00 -0.27500000000E+03  0.27500000000E+03  0.00000000000E+00 0.  1.
    9000005    2    1    2  501    0 -0.45138949844E+02  0.64707238435E+01 -0.32071215737E+02  0.47895433606E+03  0.47569874721E+03 0.  0.
         13    1    3    3    0    0  0.12773993695E+03 -0.14940730856E+03 -0.11979371821E+03  0.23019680768E+03  0.00000000000E+00 0.  1.
          1    1    3    3  501    0 -0.17287888680E+03  0.15587803240E+03  0.87722502474E+02  0.24875752838E+03  0.00000000000E+00 0.  1.
         21    1    1    2  502  501  0.45138949844E+02 -0.64707238435E+01  0.71891646137E+01  0.46163612813E+02  0.00000000000E+00 0.  1.
<scales pt_clust_4="550.00000" pt_clust_5="550.00000" pt_clust_6="45.60038"></scales>
<mgrwt>
<rscale>  0 0.30000000E+03</rscale>
<asrwt>  1 0.45600384E+02</asrwt>
<pdfrwt beam="1">  1        1 0.90951981E+00 0.30000000E+03</pdfrwt>
<pdfrwt beam="2">0</pdfrwt>
<totfact> 0.70322341E-05</totfact>
</mgrwt>
<clustering>
<clus scale="   45.600">  1  6  2 -1</clus>
<clus scale="  475.699">  4  5 -1 -1</clus>
<clus scale="  300.000">  1  4  2 -1</clus>
</clustering>
</event>
<event>
 6    1  0.1000035E-011  0.3000000E+03  0.7818608E-02  0.1093470E+00
          1   -1    0    0  502    0  0.00000000000E+00  0.00000000000E+00  0.23478206444E+03  0.23478206444E+03  0.00000000000E+00 0.  1.
         13   -1    0    0    0    0 -0.00000000000E+00 -0.00000000000E+00 -0.27500000000E+03  0.27500000000E+03  0.00000000000E+00 0.  1.
    9000005    2    1    2  501    0 -0.38708541285E+02 -0.13975378189E+02 -0.54649491103E+02  0.46617091725E+03  0.46112373052E+03 0.  0.
         13    1    3    3    0    0  0.60266655891E+02 -0.14644119936E+03 -0.19364762242E+03  0.25015294591E+03  0.00000000000E+00 0.  1.
          1    1    3    3  501    0 -0.98975197176E+02  0.13246582117E+03  0.13899813131E+03  0.21601797134E+03  0.00000000000E+00 0.  1.
         21    1    1    2  502  501  0.38708541285E+02  0.13975378189E+02  0.14431555548E+02  0.43611147193E+02  0.00000000000E+00 0.  1.
<scales pt_clust_4="550.00000" pt_clust_5="550.00000" pt_clust_6="41.15413"></scales>
<mgrwt>
<rscale>  0 0.30000000E+03</rscale>
<asrwt>  1 0.41154129E+02</asrwt>
<pdfrwt beam="1">  1        1 0.85375296E+00 0.30000000E+03</pdfrwt>
<pdfrwt beam="2">0</pdfrwt>
<totfact> 0.36370778E-04</totfact>
</mgrwt>
<clustering>
<clus scale="   41.154">  1  6  2 -1</clus>
<clus scale="  461.124">  4  5 -1 -1</clus>
<clus scale="  300.000">  1  4  2 -1</clus>
</clustering>
</event>
<event>
 6    1  0.1000035E-011  0.3000000E+03  0.7818608E-02  0.1093470E+00
          1   -1    0    0  502    0  0.00000000000E+00  0.00000000000E+00  0.24362689830E+03  0.24362689830E+03  0.00000000000E+00 0.  1.
         13   -1    0    0    0    0 -0.00000000000E+00 -0.00000000000E+00 -0.27500000000E+03  0.27500000000E+03  0.00000000000E+00 0.  1.
    9000005    2    1    2  501    0  0.31803878235E+02  0.11063160841E+01 -0.48239689986E+02  0.48261034091E+03  0.47913772848E+03 0.  0.
         13    1    3    3    0    0  0.16956952486E+03  0.54383357707E+02 -0.20207470988E+03  0.26934283307E+03  0.00000000000E+00 0.  1.
          1    1    3    3  501    0 -0.13776564662E+03 -0.53277041622E+02  0.15383501989E+03  0.21326750783E+03  0.00000000000E+00 0.  1.
         21    1    1    2  502  501 -0.31803878235E+02 -0.11063160841E+01  0.16866588285E+02  0.36016557393E+02  0.00000000000E+00 0.  1.
<scales pt_clust_4="550.00000" pt_clust_5="550.00000" pt_clust_6="31.82311"></scales>
<mgrwt>
<rscale>  0 0.30000000E+03</rscale>
<asrwt>  1 0.31823114E+02</asrwt>
<pdfrwt beam="1">  1        1 0.88591599E+00 0.30000000E+03</pdfrwt>
<pdfrwt beam="2">0</pdfrwt>
<totfact> 0.16784382E-04</totfact>
</mgrwt>
<clustering>
<clus scale="   31.823">  1  6  2 -1</clus>
<clus scale="  479.138">  4  5 -1 -1</clus>
<clus scale="  300.000">  1  4  2 -1</clus>
</clustering>
</event>
<event>
 6    1  0.1000035E-011  0.3000000E+03  0.7818608E-02  0.1093470E+00
          1   -1    0    0  502    0  0.00000000000E+00  0.00000000000E+00  0.26093404983E+03  0.26093404983E+03  0.00000000000E+00 0.  1.
         13   -1    0    0    0    0 -0.00000000000E+00 -0.00000000000E+00 -0.27500000000E+03  0.27500000000E+03  0.00000000000E+00 0.  1.
    9000005    2    1    2  501    0  0.34941218979E+02 -0.32216870347E+02  0.40491246155E+02  0.46357865480E+03  0.45935477863E+03 0.  0.
         13    1    3    3    0    0 -0.20175938172E+02  0.20369470398E+03 -0.39463923558E+02  0.20846103275E+03  0.00000000000E+00 0.  1.
          3    1    3    3  501    0  0.55117157151E+02 -0.23591157433E+03  0.79955169712E+02  0.25511762205E+03  0.00000000000E+00 0.  1.
         21    1    1    2  502  501 -0.34941218979E+02  0.32216870347E+02 -0.54557196329E+02  0.72355395030E+02  0.00000000000E+00 0.  1.
<scales pt_clust_4="550.00000" pt_clust_5="550.00000" pt_clust_6="47.52702"></scales>
<mgrwt>
<rscale>  0 0.30000000E+03</rscale>
<asrwt>  1 0.47527022E+02</asrwt>
<pdfrwt beam="1">  1        1 0.94885109E+00 0.30000000E+03</pdfrwt>
<pdfrwt beam="2">0</pdfrwt>
<totfact> 0.12320297E-05</totfact>
</mgrwt>
<clustering>
<clus scale="   47.527">  1  6  2 -1</clus>
<clus scale="  459.355">  4  5 -1 -1</clus>
<clus scale="  300.000">  1  4  2 -1</clus>
</clustering>
</event>
<event>
 6    1  0.1000035E-011  0.3000000E+03  0.7818608E-02  0.1093470E+00
          1   -1    0    0  502    0  0.00000000000E+00  0.00000000000E+00  0.23587872751E+03  0.23587872751E+03  0.00000000000E+00 0.  1.
         13   -1    0    0    0    0 -0.00000000000E+00 -0.00000000000E+00 -0.27500000000E+03  0.27500000000E+03  0.00000000000E+00 0.  1.
    9000005    2    1    2  501    0  0.13869241990E+02  0.37932385967E+02 -0.41592656862E+02  0.47041479889E+03  0.46682856824E+03 0.  0.
         13    1    3    3    0    0  0.90795065375E+02  0.20738157280E+03 -0.13354815963E+03  0.26284210388E+03  0.00000000000E+00 0.  1.
          1    1    3    3  501    0 -0.76925823385E+02 -0.16944918684E+03  0.91955502764E+02  0.20757269500E+03  0.00000000000E+00 0.  1.
         21    1    1    2  502  501 -0.13869241990E+02 -0.37932385967E+02  0.24713843684E+01  0.40463928619E+02  0.00000000000E+00 0. -1.
<scales pt_clust_4="550.00000" pt_clust_5="550.00000" pt_clust_6="40.38839"></scales>
<mgrwt>
<rscale>  0 0.30000000E+03</rscale>
<asrwt>  1 0.40388387E+02</asrwt>
<pdfrwt beam="1">  1        1 0.85774083E+00 0.30000000E+03</pdfrwt>
<pdfrwt beam="2">0</pdfrwt>
<totfact> 0.33278224E-04</totfact>
</mgrwt>
<clustering>
<clus scale="   40.388">  1  6  2 -1</clus>
<clus scale="  466.829">  4  5 -1 -1</clus>
<clus scale="  300.000">  1  4  2 -1</clus>
</clustering>
</event>
<event>
 6    1  0.1000035E-011  0.3000000E+03  0.7818608E-02  0.1093470E+00
          1   -1    0    0  502    0  0.00000000000E+00  0.00000000000E+00  0.23200871645E+03  0.23200871645E+03  0.00000000000E+00 0.  1.
         13   -1    0    0    0    0 -0.00000000000E+00 -0.00000000000E+00 -0.27500000000E+03  0.27500000000E+03  0.00000000000E+00 0.  1.
    9000005    2    1    2  501    0 -0.91587931726E+01 -0.29593328220E+02 -0.61860943300E+02  0.47073596322E+03  0.46562422853E+03 0.  0.
         13    1    3    3    0    0  0.56210006485E+02  0.88538981352E+02 -0.23137029137E+03  0.25402938368E+03  0.00000000000E+00 0.  1.
          1    1    3    3  501    0 -0.65368799658E+02 -0.11813230957E+03  0.16950934807E+03  0.21670657954E+03  0.00000000000E+00 0.  1.
         21    1    1    2  502  501  0.91587931726E+01  0.29593328220E+02  0.18869659746E+02  0.36272753224E+02  0.00000000000E+00 0.  1.
<scales pt_clust_4="550.00000" pt_clust_5="550.00000" pt_clust_6="30.97820"></scales>
<mgrwt>
<rscale>  0 0.30000000E+03</rscale>
<asrwt>  1 0.30978195E+02</asrwt>
<pdfrwt beam="1">  1        1 0.84366806E+00 0.30000000E+03</pdfrwt>
<pdfrwt beam="2">0</pdfrwt>
<totfact> 0.47479089E-04</totfact>
</mgrwt>
<clustering>
<clus scale="   30.978">  1  6  2 -1</clus>
<clus scale="  465.624">  4  5 -1 -1</clus>
<clus scale="  300.000">  1  4  2 -1</clus>
</clustering>
</event>
<event>
 6    1  0.1000035E-011  0.3000000E+03  0.7818608E-02  0.1093470E+00
          1   -1    0    0  502    0  0.00000000000E+00  0.00000000000E+00  0.22849350152E+03  0.22849350152E+03  0.00000000000E+00 0.  1.
         13   -1    0    0    0    0 -0.00000000000E+00 -0.00000000000E+00 -0.27500000000E+03  0.27500000000E+03  0.00000000000E+00 0.  1.
    9000005    2    1    2  501    0  0.13815079821E+02 -0.30668271299E+02 -0.42040584164E+02  0.46956204583E+03  0.46646511645E+03 0.  0.
         13    1    3    3    0    0  0.15764096382E+03 -0.12427022212E+03 -0.16385630573E+03  0.25911898909E+03  0.00000000000E+00 0.  1.
          1    1    3    3  501    0 -0.14382588400E+03  0.93601950826E+02  0.12181572157E+03  0.21044305673E+03  0.00000000000E+00 0.  1.
         21    1    1    2  502  501 -0.13815079821E+02  0.30668271299E+02 -0.44659143153E+01  0.33931455696E+02  0.00000000000E+00 0. -1.
<scales pt_clust_4="550.00000" pt_clust_5="550.00000" pt_clust_6="33.63630"></scales>
<mgrwt>
<rscale>  0 0.30000000E+03</rscale>
<asrwt>  1 0.33636296E+02</asrwt>
<pdfrwt beam="1">  1        1 0.83088546E+00 0.30000000E+03</pdfrwt>
<pdfrwt beam="2">0</pdfrwt>
<totfact> 0.58565428E-04</totfact>
</mgrwt>
<clustering>
<clus scale="   33.636">  1  6  2 -1</clus>
<clus scale="  466.465">  4  5 -1 -1</clus>
<clus scale="  300.000">  1  4  2 -1</clus>
</clustering>
</event>
<event>
 6    1  0.1000035E-011  0.3000000E+03  0.7818608E-02  0.1093470E+00
          1   -1    0    0  502    0  0.00000000000E+00  0.00000000000E+00  0.24313852404E+03  0.24313852404E+03  0.00000000000E+00 0.  1.
         13   -1    0    0    0    0 -0.00000000000E+00 -0.00000000000E+00 -0.27500000000E+03  0.27500000000E+03  0.00000000000E+00 0.  1.
    9000005    2    1    2  501    0 -0.16563467614E+02  0.32702096295E+02 -0.52357650752E+02  0.47614008666E+03  0.47183077789E+03 0.  0.
         13    1    3    3    0    0  0.97209242207E+02 -0.71520732126E+02 -0.21836855630E+03  0.24949885425E+03  0.00000000000E+00 0.  1.
          1    1    3    3  501    0 -0.11377270982E+03  0.10422282842E+03  0.16601090555E+03  0.22664123240E+03  0.00000000000E+00 0.  1.
         21    1    1    2  502  501  0.16563467614E+02 -0.32702096295E+02  0.20496174789E+02  0.41998437381E+02  0.00000000000E+00 0. -1.
<scales pt_clust_4="550.00000" pt_clust_5="550.00000" pt_clust_6="36.65754"></scales>
<mgrwt>
<rscale>  0 0.30000000E+03</rscale>
<asrwt>  1 0.36657544E+02</asrwt>
<pdfrwt beam="1">  1        1 0.88414009E+00 0.30000000E+03</pdfrwt>
<pdfrwt beam="2">0</pdfrwt>
<totfact> 0.17285556E-04</totfact>
</mgrwt>
<clustering>
<clus scale="   36.658">  1  6  2 -1</clus>
<clus scale="  471.831">  4  5 -1 -1</clus>
<clus scale="  300.000">  1  4  2 -1</clus>
</clustering>
</event>
<event>
 6    1  0.1000035E-011  0.3000000E+03  0.7818608E-02  0.1093470E+00
          1   -1    0    0  502    0  0.00000000000E+00  0.00000000000E+00  0.24817551999E+03  0.24817551999E+03  0.00000000000E+00 0.  1.
         13   -1    0    0    0    0 -0.00000000000E+00 -0.00000000000E+00 -0.27500000000E+03  0.27500000000E+03  0.00000000000E+00 0.  1.
    9000005    2    1    2  501    0 -0.71582171603E+01  0.50137410649E+02 -0.17952755984E+02  0.47175852370E+03  0.46868838605E+03 0.  0.
         13    1    3    3    0    0  0.15949735018E+03  0.14478936358E+03  0.10944326772E+03  0.24162200514E+03  0.00000000000E+00 0.  1.
          1    1    3    3  501    0 -0.16665556734E+03 -0.94651952934E+02 -0.12739602370E+03  0.23013651856E+03  0.00000000000E+00 0.  1.
         21    1    1    2  502  501  0.71582171603E+01 -0.50137410649E+02 -0.88717240279E+01  0.51416996283E+02  0.00000000000E+00 0.  1.
<scales pt_clust_4="550.00000" pt_clust_5="550.00000" pt_clust_6="50.64585"></scales>
<mgrwt>
<rscale>  0 0.30000000E+03</rscale>
<asrwt>  1 0.50645855E+02</asrwt>
<pdfrwt beam="1">  1        1 0.90245644E+00 0.30000000E+03</pdfrwt>
<pdfrwt beam="2">0</pdfrwt>
<totfact> 0.95581031E-05</totfact>
</mgrwt>
<clustering>
<clus scale="   50.646">  1  6  2 -1</clus>
<clus scale="  468.688">  4  5 -1 -1</clus>
<clus scale="  300.000">  1  4  2 -1</clus>
</clustering>
</event>
<event>
 6    1  0.1000035E-011  0.3000000E+03  0.7818608E-02  0.1093470E+00
          1   -1    0    0  502    0  0.00000000000E+00  0.00000000000E+00  0.24319079363E+03  0.24319079363E+03  0.00000000000E+00 0.  1.
         13   -1    0    0    0    0 -0.00000000000E+00 -0.00000000000E+00 -0.27500000000E+03  0.27500000000E+03  0.00000000000E+00 0.  1.
    9000005    2    1    2  501    0 -0.27701961246E+02 -0.20499672274E+02 -0.67676964504E+02  0.46845015337E+03  0.46225289555E+03 0.  0.
         13    1    3    3    0    0  0.29186186825E+02  0.26778644785E+02  0.19323634155E+03  0.19725418376E+03  0.00000000000E+00 0.  1.
          3    1    3    3  501    0 -0.56888148071E+02 -0.47278317059E+02 -0.26091330605E+03  0.27119596960E+03  0.00000000000E+00 0.  1.
         21    1    1    2  502  501  0.27701961246E+02  0.20499672274E+02  0.35867758136E+02  0.49740640265E+02  0.00000000000E+00 0.  1.
<scales pt_clust_4="550.00000" pt_clust_5="550.00000" pt_clust_6="34.46208"></scales>
<mgrwt>
<rscale>  0 0.30000000E+03</rscale>
<asrwt>  1 0.34462084E+02</asrwt>
<pdfrwt beam="1">  1        1 0.88433016E+00 0.30000000E+03</pdfrwt>
<pdfrwt beam="2">0</pdfrwt>
<totfact> 0.17382236E-04</totfact>
</mgrwt>
<clustering>
<clus scale="   34.462">  1  6  2 -1</clus>
<clus scale="  462.253">  4  5 -1 -1</clus>
<clus scale="  300.000">  1  4  2 -1</clus>
</clustering>
</event>
<event>
 6    1  0.1000035E-011  0.3000000E+03  0.7818608E-02  0.1093470E+00
          1   -1    0    0  502    0  0.00000000000E+00  0.00000000000E+00  0.23140580639E+03  0.23140580639E+03  0.00000000000E+00 0.  1.
         13   -1    0    0    0    0 -0.00000000000E+00 -0.00000000000E+00 -0.27500000000E+03  0.27500000000E+03  0.00000000000E+00 0.  1.
    9000005    2    1    2  501    0 -0.28793132288E+02  0.18424363214E+02 -0.44505845107E+02  0.47221029886E+03  0.46886383362E+03 0.  0.
         13    1    3    3    0    0 -0.23830613312E+03  0.73833045916E+02 -0.54107497161E+02  0.25528171301E+03  0.00000000000E+00 0.  1.
          1    1    3    3  501    0  0.20951300083E+03 -0.55408682702E+02  0.96016520533E+01  0.21692858585E+03  0.00000000000E+00 0.  1.
         21    1    1    2  502  501  0.28793132288E+02 -0.18424363214E+02  0.91165149876E+00  0.34195507530E+02  0.00000000000E+00 0.  1.
<scales pt_clust_4="550.00000" pt_clust_5="550.00000" pt_clust_6="34.18335"></scales>
<mgrwt>
<rscale>  0 0.30000000E+03</rscale>
<asrwt>  1 0.34183353E+02</asrwt>
<pdfrwt beam="1">  1        1 0.84147566E+00 0.30000000E+03</pdfrwt>
<pdfrwt beam="2">0</pdfrwt>
<totfact> 0.48607202E-04</totfact>
</mgrwt>
<clustering>
<clus scale="   34.183">  1  6  2 -1</clus>
<clus scale="  468.864">  4  5 -1 -1</clus>
<clus scale="  300.000">  1  4  2 -1</clus>
</clustering>
</event>
<event>
 6    1  0.1000035E-011  0.3000000E+03  0.7818608E-02  0.1093470E+00
          1   -1    0    0  502    0  0.00000000000E+00  0.00000000000E+00  0.22447272594E+03  0.22447272594E+03  0.00000000000E+00 0.  1.
         13   -1    0    0    0    0 -0.00000000000E+00 -0.00000000000E+00 -0.27500000000E+03  0.27500000000E+03  0.00000000000E+00 0.  1.
    9000005    2    1    2  501    0 -0.31931037111E+02 -0.35017472114E+01 -0.66535157710E+02  0.46358253642E+03  0.45765706320E+03 0.  0.
         13    1    3    3    0    0 -0.14984776136E+03 -0.34601521727E+01 -0.22236607212E+03  0.26816598269E+03  0.00000000000E+00 0.  1.
          1    1    3    3  501    0  0.11791672425E+03 -0.41595038696E-01  0.15583091441E+03  0.19541655374E+03  0.00000000000E+00 0.  1.
         21    1    1    2  502  501  0.31931037111E+02  0.35017472114E+01  0.16007883650E+02  0.35890189516E+02  0.00000000000E+00 0.  1.
<scales pt_clust_4="550.00000" pt_clust_5="550.00000" pt_clust_6="32.12247"></scales>
<mgrwt>
<rscale>  0 0.30000000E+03</rscale>
<asrwt>  1 0.32122474E+02</asrwt>
<pdfrwt beam="1">  1        1 0.81626446E+00 0.30000000E+03</pdfrwt>
<pdfrwt beam="2">0</pdfrwt>
<totfact> 0.79010139E-04</totfact>
</mgrwt>
<clustering>
<clus scale="   32.122">  1  6  2 -1</clus>
<clus scale="  457.657">  4  5 -1 -1</clus>
<clus scale="  300.000">  1  4  2 -1</clus>
</clustering>
</event>
<event>
 6    1  0.1000035E-011  0.3000000E+03  0.7818608E-02  0.1093470E+00
          1   -1    0    0  502    0  0.00000000000E+00  0.00000000000E+00  0.23594689395E+03  0.23594689395E+03  0.00000000000E+00 0.  1.
         13   -1    0    0    0    0 -0.00000000000E+00 -0.00000000000E+00 -0.27500000000E+03  0.27500000000E+03  0.00000000000E+00 0.  1.
    9000005    2    1    2  501    0 -0.29559462261E+02 -0.80252001024E+01 -0.66568119351E+02  0.46977358217E+03  0.46402342435E+03 0.  0.
         13    1    3    3    0    0  0.22482936009E+02 -0.18171117063E+03 -0.17930235385E+03  0.25626893303E+03  0.00000000000E+00 0.  1.
          3    1    3    3  501    0 -0.52042398271E+02  0.17368597053E+03  0.11273423449E+03  0.21350464914E+03  0.00000000000E+00 0.  1.
         21    1    1    2  502  501  0.29559462261E+02  0.80252001024E+01  0.27515013306E+02  0.41173311782E+02  0.00000000000E+00 0.  1.
<scales pt_clust_4="550.00000" pt_clust_5="550.00000" pt_clust_6="30.62949"></scales>
<mgrwt>
<rscale>  0 0.30000000E+03</rscale>
<asrwt>  1 0.30629490E+02</asrwt>
<pdfrwt beam="1">  1        1 0.85798871E+00 0.30000000E+03</pdfrwt>
<pdfrwt beam="2">0</pdfrwt>
<totfact> 0.34836122E-04</totfact>
</mgrwt>
<clustering>
<clus scale="   30.629">  1  6  2 -1</clus>
<clus scale="  464.023">  4  5 -1 -1</clus>
<clus scale="  300.000">  1  4  2 -1</clus>
</clustering>
</event>
<event>
 6    1  0.1000035E-011  0.3000000E+03  0.7818608E-02  0.1093470E+00
          1   -1    0    0  502    0  0.00000000000E+00  0.00000000000E+00  0.24915986571E+03  0.24915986571E+03  0.00000000000E+00 0.  1.
         13   -1    0    0    0    0 -0.00000000000E+00 -0.00000000000E+00 -0.27500000000E+03  0.27500000000E+03  0.00000000000E+00 0.  1.
    9000005    2    1    2  501    0 -0.12810316443E+02  0.32377746193E+02 -0.42541807022E+02  0.48554162484E+03  0.48241936264E+03 0.  0.
         13    1    3    3    0    0 -0.22904083202E+03  0.81250809556E+00  0.70321260770E+02  0.23959432927E+03  0.00000000000E+00 0.  1.
          1    1    3    3  501    0  0.21623051558E+03  0.31565238097E+02 -0.11286306779E+03  0.24594729557E+03  0.00000000000E+00 0.  1.
         21    1    1    2  502  501  0.12810316443E+02 -0.32377746193E+02  0.16701672734E+02  0.38618240871E+02  0.00000000000E+00 0. -1.
<scales pt_clust_4="550.00000" pt_clust_5="550.00000" pt_clust_6="34.81986"></scales>
<mgrwt>
<rscale>  0 0.30000000E+03</rscale>
<asrwt>  1 0.34819860E+02</asrwt>
<pdfrwt beam="1">  1        1 0.90603588E+00 0.30000000E+03</pdfrwt>
<pdfrwt beam="2">0</pdfrwt>
<totfact> 0.88326780E-05</totfact>
</mgrwt>
<clustering>
<clus scale="   34.820">  1  6  2 -1</clus>
<clus scale="  482.419">  4  5 -1 -1</clus>
<clus scale="  300.000">  1  4  2 -1</clus>
</clustering>
</event>
<event>
 6    1  0.1000035E-011  0.3000000E+03  0.7818608E-02  0.1093470E+00
          1   -1    0    0  502    0  0.00000000000E+00  0.00000000000E+00  0.24230602472E+03  0.24230602472E+03  0.00000000000E+00 0.  1.
         13   -1    0    0    0    0 -0.00000000000E+00 -0.00000000000E+00 -0.27500000000E+03  0.27500000000E+03  0.00000000000E+00 0.  1.
    9000005    2    1    2  501    0  0.34442072125E+02 -0.17570003852E+01 -0.73464556220E+02  0.46390580325E+03  0.45675180338E+03 0.  0.
         13    1    3    3    0    0  0.24136464215E+03  0.35749034973E+02 -0.68991555531E+02  0.25356403277E+03  0.00000000000E+00 0.  1.
          1    1    3    3  501    0 -0.20692257002E+03 -0.37506035358E+02 -0.44730006886E+01  0.21034177048E+03  0.00000000000E+00 0.  1.
         21    1    1    2  502  501 -0.34442072125E+02  0.17570003852E+01  0.40770580941E+02  0.53400221468E+02  0.00000000000E+00 0.  1.
<scales pt_clust_4="550.00000" pt_clust_5="550.00000" pt_clust_6="34.48686"></scales>
<mgrwt>
<rscale>  0 0.30000000E+03</rscale>
<asrwt>  1 0.34486858E+02</asrwt>
<pdfrwt beam="1">  1        1 0.88111282E+00 0.30000000E+03</pdfrwt>
<pdfrwt beam="2">0</pdfrwt>
<totfact> 0.19166886E-04</totfact>
</mgrwt>
<clustering>
<clus scale="   34.487">  1  6  2 -1</clus>
<clus scale="  456.752">  4  5 -1 -1</clus>
<clus scale="  300.000">  1  4  2 -1</clus>
</clustering>
</event>
<event>
 6    1  0.1000035E-011  0.3000000E+03  0.7818608E-02  0.1093470E+00
          1   -1    0    0  502    0  0.00000000000E+00  0.00000000000E+00  0.22862309494E+03  0.22862309494E+03  0.00000000000E+00 0.  1.
         13   -1    0    0    0    0 -0.00000000000E+00 -0.00000000000E+00 -0.27500000000E+03  0.27500000000E+03  0.00000000000E+00 0.  1.
    9000005    2    1    2  501    0 -0.31101144922E+02  0.73299358549E+01 -0.38678592250E+02  0.47075558522E+03  0.46807454357E+03 0.  0.
         13    1    3    3    0    0 -0.11659828510E+03  0.18537517754E+02 -0.23131396946E+03  0.25970165983E+03  0.00000000000E+00 0.  1.
          1    1    3    3  501    0  0.85497140175E+02 -0.11207581899E+02  0.19263537721E+03  0.21105392539E+03  0.00000000000E+00 0.  1.
         21    1    1    2  502  501  0.31101144922E+02 -0.73299358549E+01 -0.76983128115E+01  0.32867509721E+02  0.00000000000E+00 0.  1.
<scales pt_clust_4="550.00000" pt_clust_5="550.00000" pt_clust_6="31.95325"></scales>
<mgrwt>
<rscale>  0 0.30000000E+03</rscale>
<asrwt>  1 0.31953250E+02</asrwt>
<pdfrwt beam="1">  1        1 0.83135671E+00 0.30000000E+03</pdfrwt>
<pdfrwt beam="2">0</pdfrwt>
<totfact> 0.58629809E-04</totfact>
</mgrwt>
<clustering>
<clus scale="   31.953">  1  6  2 -1</clus>
<clus scale="  468.075">  4  5 -1 -1</clus>
<clus scale="  300.000">  1  4  2 -1</clus>
</clustering>
</event>
<event>
 6    1  0.1000035E-011  0.3000000E+03  0.7818608E-02  0.1093470E+00
          1   -1    0    0  502    0  0.00000000000E+00  0.00000000000E+00  0.25326384265E+03  0.25326384265E+03  0.00000000000E+00 0.  1.
         13   -1    0    0    0    0 -0.00000000000E+00 -0.00000000000E+00 -0.27500000000E+03  0.27500000000E+03  0.00000000000E+00 0.  1.
    9000005    2    1    2  501    0  0.27791793520E+02 -0.46431146596E+02 -0.21766183911E+01  0.47072419784E+03  0.46759843627E+03 0.  0.
         13    1    3    3    0    0 -0.19757972522E+03  0.74814944797E+02 -0.29639502419E+02  0.21333898820E+03  0.00000000000E+00 0.  1.
          3    1    3    3  501    0  0.22537151874E+03 -0.12124609139E+03  0.27462884028E+02  0.25738520963E+03  0.00000000000E+00 0.  1.
         21    1    1    2  502  501 -0.27791793520E+02  0.46431146596E+02 -0.19559538956E+02  0.57539644815E+02  0.00000000000E+00 0. -1.
<scales pt_clust_4="550.00000" pt_clust_5="550.00000" pt_clust_6="54.11320"></scales>
<mgrwt>
<rscale>  0 0.30000000E+03</rscale>
<asrwt>  1 0.54113197E+02</asrwt>
<pdfrwt beam="1">  1        1 0.92095943E+00 0.30000000E+03</pdfrwt>
<pdfrwt beam="2">0</pdfrwt>
<totfact> 0.36852108E-05</totfact>
</mgrwt>
<clustering>
<clus scale="   54.113">  1  6  2 -1</clus>
<clus scale="  467.598">  4  5 -1 -1</clus>
<clus scale="  300.000">  1  4  2 -1</clus>
</clustering>
</event>
<event>
 6    1  0.1000035E-011  0.3000000E+03  0.7818608E-02  0.1093470E+00
          1   -1    0    0  502    0  0.00000000000E+00  0.00000000000E+00  0.23314692356E+03  0.23314692356E+03  0.00000000000E+00 0.  1.
         13   -1    0    0    0    0 -0.00000000000E+00 -0.00000000000E+00 -0.27500000000E+03  0.27500000000E+03  0.00000000000E+00 0.  1.
    9000005    2    1    2  501    0  0.32346645107E+02 -0.19951892122E+02 -0.38977419703E+02  0.47003324031E+03  0.46687002935E+03 0.  0.
         13    1    3    3    0    0  0.22362304089E+02  0.13740825808E+03  0.16263676148E+03  0.21408367107E+03  0.00000000000E+00 0.  1.
          1    1    3    3  501    0  0.99843410178E+01 -0.15736015021E+03 -0.20161418119E+03  0.25594956924E+03  0.00000000000E+00 0.  1.
         21    1    1    2  502  501 -0.32346645107E+02  0.19951892122E+02 -0.28756567382E+01  0.38113683246E+02  0.00000000000E+00 0.  1.
<scales pt_clust_4="550.00000" pt_clust_5="550.00000" pt_clust_6="38.00505"></scales>
<mgrwt>
<rscale>  0 0.30000000E+03</rscale>
<asrwt>  1 0.38005045E+02</asrwt>
<pdfrwt beam="1">  1        1 0.84780699E+00 0.30000000E+03</pdfrwt>
<pdfrwt beam="2">0</pdfrwt>
<totfact> 0.41999308E-04</totfact>
</mgrwt>
<clustering>
<clus scale="   38.005">  1  6  2 -1</clus>
<clus scale="  466.870">  4  5 -1 -1</clus>
<clus scale="  300.000">  1  4  2 -1</clus>
</clustering>
</event>
<event>
 6    1  0.1000035E-011  0.3000000E+03  0.7818608E-02  0.1093470E+00
          1   -1    0    0  502    0  0.00000000000E+00  0.00000000000E+00  0.22668266903E+03  0.22668266903E+03  0.00000000000E+00 0.  1.
         13   -1    0    0    0    0 -0.00000000000E+00 -0.00000000000E+00 -0.27500000000E+03  0.27500000000E+03  0.00000000000E+00 0.  1.
    9000005    2    1    2  501    0 -0.13075407738E+02 -0.27147976887E+02 -0.66610759701E+02  0.46643173328E+03  0.46066646239E+03 0.  0.
         13    1    3    3    0    0  0.20652644832E+03  0.73096835536E+02 -0.48274675564E+02  0.22433627776E+03  0.00000000000E+00 0.  1.
          1    1    3    3  501    0 -0.21960185606E+03 -0.10024481242E+03 -0.18336084137E+02  0.24209545552E+03  0.00000000000E+00 0.  1.
         21    1    1    2  502  501  0.13075407738E+02  0.27147976887E+02  0.18293428735E+02  0.35250935753E+02  0.00000000000E+00 0. -1.
<scales pt_clust_4="550.00000" pt_clust_5="550.00000" pt_clust_6="30.13269"></scales>
<mgrwt>
<rscale>  0 0.30000000E+03</rscale>
<asrwt>  1 0.30132689E+02</asrwt>
<pdfrwt beam="1">  1        1 0.82430061E+00 0.30000000E+03</pdfrwt>
<pdfrwt beam="2">0</pdfrwt>
<totfact> 0.68172869E-04</totfact>
</mgrwt>
<clustering>
<clus scale="   30.133">  1  6  2 -1</clus>
<clus scale="  460.666">  4  5 -1 -1</clus>
<clus scale="  300.000">  1  4  2 -1</clus>
</clustering>
</event>
<event>
 6    1  0.1000035E-011  0.3000000E+03  0.7818608E-02  0.1093470E+00
          1   -1    0    0  502    0  0.00000000000E+00  0.00000000000E+00  0.24923788302E+03  0.24923788302E+03  0.00000000000E+00 0.  1.
         13   -1    0    0    0    0 -0.00000000000E+00 -0.00000000000E+00 -0.27500000000E+03  0.27500000000E+03  0.00000000000E+00 0.  1.
    9000005    2    1    2  501    0 -0.31084817893E+02 -0.84592988533E+01  0.87286065174E+01  0.47704216660E+03  0.47587310757E+03 0.  0.
         13    1    3    3    0    0  0.62066824709E+02 -0.19012029088E+03  0.13099601063E+03  0.23907733170E+03  0.00000000000E+00 0.  1.
          3    1    3    3  501    0 -0.93151642603E+02  0.18166099203E+03 -0.12226740411E+03  0.23796483490E+03  0.00000000000E+00 0.  1.
         21    1    1    2  502  501  0.31084817893E+02  0.84592988533E+01 -0.34490723498E+02  0.47195716415E+02  0.00000000000E+00 0.  1.
<scales pt_clust_4="550.00000" pt_clust_5="550.00000" pt_clust_6="32.21532"></scales>
<mgrwt>
<rscale>  0 0.30000000E+03</rscale>
<asrwt>  1 0.32215317E+02</asrwt>
<pdfrwt beam="1">  1        1 0.90631957E+00 0.30000000E+03</pdfrwt>
<pdfrwt beam="2">0</pdfrwt>
<totfact> 0.88440902E-05</totfact>
</mgrwt>
<clustering>
<clus scale="   32.215">  1  6  2 -1</clus>
<clus scale="  475.873">  4  5 -1 -1</clus>
<clus scale="  300.000">  1  4  2 -1</clus>
</clustering>
</event>
<event>
 6    1  0.1000035E-011  0.3000000E+03  0.7818608E-02  0.1093470E+00
          1   -1    0    0  502    0  0.00000000000E+00  0.00000000000E+00  0.24866447715E+03  0.24866447715E+03  0.00000000000E+00 0.  1.
         13   -1    0    0    0    0 -0.00000000000E+00 -0.00000000000E+00 -0.27500000000E+03  0.27500000000E+03  0.00000000000E+00 0.  1.
    9000005    2    1    2  501    0  0.16529100089E+02 -0.28867676995E+02 -0.45466758517E+02  0.48529055237E+03  0.48200948140E+03 0.  0.
         13    1    3    3    0    0  0.20313013235E+03  0.12731103713E+03 -0.17817507675E+02  0.24039012963E+03  0.00000000000E+00 0.  1.
          1    1    3    3  501    0 -0.18660103226E+03 -0.15617871413E+03 -0.27649250842E+02  0.24490042274E+03  0.00000000000E+00 0.  1.
         21    1    1    2  502  501 -0.16529100089E+02  0.28867676995E+02  0.19131235665E+02  0.38373924779E+02  0.00000000000E+00 0.  1.
<scales pt_clust_4="550.00000" pt_clust_5="550.00000" pt_clust_6="33.26491"></scales>
<mgrwt>
<rscale>  0 0.30000000E+03</rscale>
<asrwt>  1 0.33264905E+02</asrwt>
<pdfrwt beam="1">  1        1 0.90423446E+00 0.30000000E+03</pdfrwt>
<pdfrwt beam="2">0</pdfrwt>
<totfact> 0.96424513E-05</totfact>
</mgrwt>
<clustering>
<clus scale="   33.265">  1  6  2 -1</clus>
<clus scale="  482.009">  4  5 -1 -1</clus>
<clus scale="  300.000">  1  4  2 -1</clus>
</clustering>
</event>
<event>
 6    1  0.1000035E-011  0.3000000E+03  0.7818608E-02  0.1093470E+00
          1   -1    0    0  502    0  0.00000000000E+00  0.00000000000E+00  0.25333542012E+03  0.25333542012E+03  0.00000000000E+00 0.  1.
         13   -1    0    0    0    0 -0.00000000000E+00 -0.00000000000E+00 -0.27500000000E+03  0.27500000000E+03  0.00000000000E+00 0.  1.
    9000005    2    1    2  501    0 -0.30302760754E+02  0.12928446334E+02 -0.36650389019E+02  0.49214182249E+03  0.48966817376E+03 0.  0.
         13    1    3    3    0    0 -0.49251528242E+02  0.13930665356E+03  0.18471332665E+03  0.23653978482E+03  0.00000000000E+00 0.  1.
          3    1    3    3  501    0  0.18948767488E+02 -0.12637820722E+03 -0.22136371567E+03  0.25560203768E+03  0.00000000000E+00 0.  1.
         21    1    1    2  502  501  0.30302760754E+02 -0.12928446334E+02  0.14985809142E+02  0.36193597632E+02  0.00000000000E+00 0.  1.
<scales pt_clust_4="550.00000" pt_clust_5="550.00000" pt_clust_6="32.94544"></scales>
<mgrwt>
<rscale>  0 0.30000000E+03</rscale>
<asrwt>  1 0.32945440E+02</asrwt>
<pdfrwt beam="1">  1        1 0.92121971E+00 0.30000000E+03</pdfrwt>
<pdfrwt beam="2">0</pdfrwt>
<totfact> 0.39798043E-05</totfact>
</mgrwt>
<clustering>
<clus scale="   32.945">  1  6  2 -1</clus>
<clus scale="  489.668">  4  5 -1 -1</clus>
<clus scale="  300.000">  1  4  2 -1</clus>
</clustering>
</event>
<event>
 6    1  0.1000035E-011  0.3000000E+03  0.7818608E-02  0.1093470E+00
          1   -1    0    0  502    0  0.00000000000E+00  0.00000000000E+00  0.23879558386E+03  0.23879558386E+03  0.00000000000E+00 0.  1.
         13   -1    0    0    0    0 -0.00000000000E+00 -0.00000000000E+00 -0.27500000000E+03  0.27500000000E+03  0.00000000000E+00 0.  1.
    9000005    2    1    2  501    0  0.32077134189E+02  0.20202704234E+02 -0.62762666214E+02  0.46750916638E+03  0.46172348498E+03 0.  0.
         13    1    3    3    0    0  0.16738170440E+03 -0.14654282242E+03  0.45429138499E+02  0.22705779087E+03  0.00000000000E+00 0.  1.
          1    1    3    3  501    0 -0.13530457021E+03  0.16674552666E+03 -0.10819180471E+03  0.24045137551E+03  0.00000000000E+00 0.  1.
         21    1    1    2  502  501 -0.32077134189E+02 -0.20202704234E+02  0.26558250078E+02  0.46286417482E+02  0.00000000000E+00 0.  1.
<scales pt_clust_4="550.00000" pt_clust_5="550.00000" pt_clust_6="37.90899"></scales>
<mgrwt>
<rscale>  0 0.30000000E+03</rscale>
<asrwt>  1 0.37908994E+02</asrwt>
<pdfrwt beam="1">  1        1 0.86834758E+00 0.30000000E+03</pdfrwt>
<pdfrwt beam="2">0</pdfrwt>
<totfact> 0.25947799E-04</totfact>
</mgrwt>
<clustering>
<clus scale="   37.909">  1  6  2 -1</clus>
<clus scale="  461.723">  4  5 -1 -1</clus>
<clus scale="  300.000">  1  4  2 -1</clus>
</clustering>
</event>
<event>
 6    1  0.1000035E-011  0.3000000E+03  0.7818608E-02  0.1093470E+00
          1   -1    0    0  502    0  0.00000000000E+00  0.00000000000E+00  0.23147956748E+03  0.23147956748E+03  0.00000000000E+00 0.  1.
         13   -1    0    0    0    0 -0.00000000000E+00 -0.00000000000E+00 -0.27500000000E+03  0.27500000000E+03  0.00000000000E+00 0.  1.
    9000005    2    1    2  501    0 -0.26092766674E+02 -0.23748911011E+02 -0.39969169341E+02  0.47101895951E+03  0.46799196839E+03 0.  0.
         13    1    3    3    0    0  0.18218699148E+03 -0.13754145279E+03 -0.49137232103E+02  0.23350421555E+03  0.00000000000E+00 0.  1.
          3    1    3    3  501    0 -0.20827975816E+03  0.11379254178E+03  0.91680627617E+01  0.23751474396E+03  0.00000000000E+00 0.  1.
         21    1    1    2  502  501  0.26092766674E+02  0.23748911011E+02 -0.35512631826E+01  0.35460607963E+02  0.00000000000E+00 0.  1.
<scales pt_clust_4="550.00000" pt_clust_5="550.00000" pt_clust_6="35.28235"></scales>
<mgrwt>
<rscale>  0 0.30000000E+03</rscale>
<asrwt>  1 0.35282354E+02</asrwt>
<pdfrwt beam="1">  1        1 0.84174388E+00 0.30000000E+03</pdfrwt>
<pdfrwt beam="2">0</pdfrwt>
<totfact> 0.48077574E-04</totfact>
</mgrwt>
<clustering>
<clus scale="   35.282">  1  6  2 -1</clus>
<clus scale="  467.992">  4  5 -1 -1</clus>
<clus scale="  300.000">  1  4  2 -1</clus>
</clustering>
</event>
<event>
 6    1  0.1000035E-011  0.3000000E+03  0.7818608E-02  0.1093470E+00
          1   -1    0    0  502    0  0.00000000000E+00  0.00000000000E+00  0.23333036783E+03  0.23333036783E+03  0.00000000000E+00 0.  1.
         13   -1    0    0    0    0 -0.00000000000E+00 -0.00000000000E+00 -0.27500000000E+03  0.27500000000E+03  0.00000000000E+00 0.  1.
    9000005    2    1    2  501    0 -0.13292767069E+02  0.31776456587E+02 -0.66370566625E+02  0.46594432045E+03  0.45990500845E+03 0.  0.
         13    1    3    3    0    0  0.73089701526E+02  0.14047707064E+03 -0.21207934652E+03  0.26467633265E+03  0.00000000000E+00 0.  1.
          3    1    3    3  501    0 -0.86382468596E+02 -0.10870061405E+03  0.14570877989E+03  0.20126798780E+03  0.00000000000E+00 0.  1.
         21    1    1    2  502  501  0.13292767069E+02 -0.31776456587E+02  0.24700934459E+02  0.42386047383E+02  0.00000000000E+00 0. -1.
<scales pt_clust_4="550.00000" pt_clust_5="550.00000" pt_clust_6="34.44475"></scales>
<mgrwt>
<rscale>  0 0.30000000E+03</rscale>
<asrwt>  1 0.34444751E+02</asrwt>
<pdfrwt beam="1">  1        1 0.84847406E+00 0.30000000E+03</pdfrwt>
<pdfrwt beam="2">0</pdfrwt>
<totfact> 0.42176365E-04</totfact>
</mgrwt>
<clustering>
<clus scale="   34.445">  1  6  2 -1</clus>
<clus scale="  459.905">  4  5 -1 -1</clus>
<clus scale="  300.000">  1  4  2 -1</clus>
</clustering>
</event>
<event>
 6    1  0.1000035E-011  0.3000000E+03  0.7818608E-02  0.1093470E+00
          1   -1    0    0  502    0  0.00000000000E+00  0.00000000000E+00  0.22763590308E+03  0.22763590308E+03  0.00000000000E+00 0.  1.
         13   -1    0    0    0    0 -0.00000000000E+00 -0.00000000000E+00 -0.27500000000E+03  0.27500000000E+03  0.00000000000E+00 0.  1.
    9000005    2    1    2  501    0  0.75602209204E+00 -0.36051761332E+02 -0.43146526033E+02  0.46633040805E+03  0.46292777590E+03 0.  0.
         13    1    3    3    0    0  0.22094528010E+03  0.39447272093E+02 -0.61854482047E+02  0.23280653131E+03  0.00000000000E+00 0.  1.
          1    1    3    3  501    0 -0.22018925801E+03 -0.75499033426E+02  0.18707956015E+02  0.23352387674E+03  0.00000000000E+00 0.  1.
         21    1    1    2  502  501 -0.75602209204E+00  0.36051761332E+02 -0.42175708908E+01  0.36305495022E+02  0.00000000000E+00 0.  1.
<scales pt_clust_4="550.00000" pt_clust_5="550.00000" pt_clust_6="36.05971"></scales>
<mgrwt>
<rscale>  0 0.30000000E+03</rscale>
<asrwt>  1 0.36059706E+02</asrwt>
<pdfrwt beam="1">  1        1 0.82776692E+00 0.30000000E+03</pdfrwt>
<pdfrwt beam="2">0</pdfrwt>
<totfact> 0.61398930E-04</totfact>
</mgrwt>
<clustering>
<clus scale="   36.060">  1  6  2 -1</clus>
<clus scale="  462.928">  4  5 -1 -1</clus>
<clus scale="  300.000">  1  4  2 -1</clus>
</clustering>
</event>
<event>
 6    1  0.1000035E-011  0.3000000E+03  0.7818608E-02  0.1093470E+00
          1   -1    0    0  502    0  0.00000000000E+00  0.00000000000E+00  0.21910259741E+03  0.21910259741E+03  0.00000000000E+00 0.  1.
         13   -1    0    0    0    0 -0.00000000000E+00 -0.00000000000E+00 -0.27500000000E+03  0.27500000000E+03  0.00000000000E+00 0.  1.
    9000005    2    1    2  501    0  0.29556733062E+02 -0.89180241891E+01 -0.58736027779E+02  0.46309954244E+03  0.45832099409E+03 0.  0.
         13    1    3    3    0    0  0.22234891544E+03 -0.38270550026E+02  0.61688581531E+02  0.23389988518E+03  0.00000000000E+00 0.  1.
          1    1    3    3  501    0 -0.19279218238E+03  0.29352525837E+02 -0.12042460931E+03  0.22919965726E+03  0.00000000000E+00 0.  1.
         21    1    1    2  502  501 -0.29556733062E+02  0.89180241891E+01  0.28386251878E+01  0.31003054974E+02  0.00000000000E+00 0.  1.
<scales pt_clust_4="550.00000" pt_clust_5="550.00000" pt_clust_6="30.87283"></scales>
<mgrwt>
<rscale>  0 0.30000000E+03</rscale>
<asrwt>  1 0.30872830E+02</asrwt>
<pdfrwt beam="1">  1        1 0.79673672E+00 0.30000000E+03</pdfrwt>
<pdfrwt beam="2">0</pdfrwt>
<totfact> 0.11215205E-03</totfact>
</mgrwt>
<clustering>
<clus scale="   30.873">  1  6  2 -1</clus>
<clus scale="  458.321">  4  5 -1 -1</clus>
<clus scale="  300.000">  1  4  2 -1</clus>
</clustering>
</event>
<event>
 6    1  0.1000035E-011  0.3000000E+03  0.7818608E-02  0.1093470E+00
          1   -1    0    0  502    0  0.00000000000E+00  0.00000000000E+00  0.22131282183E+03  0.22131282183E+03  0.00000000000E+00 0.  1.
         13   -1    0    0    0    0 -0.00000000000E+00 -0.00000000000E+00 -0.27500000000E+03  0.27500000000E+03  0.00000000000E+00 0.  1.
    9000005    2    1    2  501    0 -0.28344488251E+02 -0.12524083910E+02 -0.39140112488E+02  0.46208009171E+03  0.45937544564E+03 0.  0.
         13    1    3    3    0    0  0.63916028430E+02 -0.42293803693E+02  0.19453775160E+03  0.20909079683E+03  0.00000000000E+00 0.  1.
          3    1    3    3  501    0 -0.92260516680E+02  0.29769719783E+02 -0.23367786409E+03  0.25298929487E+03  0.00000000000E+00 0.  1.
         21    1    1    2  502  501  0.28344488251E+02  0.12524083910E+02 -0.14547065681E+02  0.34232730126E+02  0.00000000000E+00 0.  1.
<scales pt_clust_4="550.00000" pt_clust_5="550.00000" pt_clust_6="30.98812"></scales>
<mgrwt>
<rscale>  0 0.30000000E+03</rscale>
<asrwt>  1 0.30988121E+02</asrwt>
<pdfrwt beam="1">  1        1 0.80477390E+00 0.30000000E+03</pdfrwt>
<pdfrwt beam="2">0</pdfrwt>
<totfact> 0.97899047E-04</totfact>
</mgrwt>
<clustering>
<clus scale="   30.988">  1  6  2 -1</clus>
<clus scale="  459.375">  4  5 -1 -1</clus>
<clus scale="  300.000">  1  4  2 -1</clus>
</clustering>
</event>
<event>
 6    1  0.1000035E-011  0.3000000E+03  0.7818608E-02  0.1093470E+00
          1   -1    0    0  502    0  0.00000000000E+00  0.00000000000E+00  0.24165873903E+03  0.24165873903E+03  0.00000000000E+00 0.  1.
         13   -1    0    0    0    0 -0.00000000000E+00 -0.00000000000E+00 -0.27500000000E+03  0.27500000000E+03  0.00000000000E+00 0.  1.
    9000005    2    1    2  501    0 -0.33979578375E+02 -0.40756433344E+01 -0.64363538947E+02  0.47046778379E+03  0.46478602370E+03 0.  0.
         13    1    3    3    0    0 -0.32198280337E+02  0.39078334500E+01 -0.26634908872E+03  0.26831667387E+03  0.00000000000E+00 0.  1.
          1    1    3    3  501    0 -0.17812980381E+01 -0.79834767844E+01  0.20198554977E+03  0.20215110992E+03  0.00000000000E+00 0.  1.
         21    1    1    2  502  501  0.33979578375E+02  0.40756433344E+01  0.31022277979E+02  0.46190955241E+02  0.00000000000E+00 0. -1.
<scales pt_clust_4="550.00000" pt_clust_5="550.00000" pt_clust_6="34.22313"></scales>
<mgrwt>
<rscale>  0 0.30000000E+03</rscale>
<asrwt>  1 0.34223130E+02</asrwt>
<pdfrwt beam="1">  1        1 0.87875905E+00 0.30000000E+03</pdfrwt>
<pdfrwt beam="2">0</pdfrwt>
<totfact> 0.20516385E-04</totfact>
</mgrwt>
<clustering>
<clus scale="   34.223">  1  6  2 -1</clus>
<clus scale="  464.786">  4  5 -1 -1</clus>
<clus scale="  300.000">  1  4  2 -1</clus>
</clustering>
</event>
<event>
 6    1  0.1000035E-011  0.3000000E+03  0.7818608E-02  0.1093470E+00
          1   -1    0    0  502    0  0.00000000000E+00  0.00000000000E+00  0.23612968513E+03  0.23612968513E+03  0.00000000000E+00 0.  1.
         13   -1    0    0    0    0 -0.00000000000E+00 -0.00000000000E+00 -0.27500000000E+03  0.27500000000E+03  0.00000000000E+00 0.  1.
    9000005    2    1    2  501    0 -0.75470959419E+01 -0.29186082972E+02 -0.70789076324E+02  0.46722531827E+03  0.46084663242E+03 0.  0.
         13    1    3    3    0    0 -0.16876592523E+03  0.14642902366E+03 -0.34765357202E+02  0.22612391858E+03  0.00000000000E+00 0.  1.
          3    1    3    3  501    0  0.16121882929E+03 -0.17561510663E+03 -0.36023719122E+02  0.24110139970E+03  0.00000000000E+00 0.  1.
         21    1    1    2  502  501  0.75470959419E+01  0.29186082972E+02  0.31918761458E+02  0.43904366860E+02  0.00000000000E+00 0.  1.
<scales pt_clust_4="550.00000" pt_clust_5="550.00000" pt_clust_6="30.14608"></scales>
<mgrwt>
<rscale>  0 0.30000000E+03</rscale>
<asrwt>  1 0.30146079E+02</asrwt>
<pdfrwt beam="1">  1        1 0.85865340E+00 0.30000000E+03</pdfrwt>
<pdfrwt beam="2">0</pdfrwt>
<totfact> 0.34387066E-04</totfact>
</mgrwt>
<clustering>
<clus scale="   30.146">  1  6  2 -1</clus>
<clus scale="  460.847">  4  5 -1 -1</clus>
<clus scale="  300.000">  1  4  2 -1</clus>
</clustering>
</event>
<event>
 6    1  0.1000035E-011  0.3000000E+03  0.7818608E-02  0.1093470E+00
          1   -1    0    0  502    0  0.00000000000E+00  0.00000000000E+00  0.22606620577E+03  0.22606620577E+03  0.00000000000E+00 0.  1.
         13   -1    0    0    0    0 -0.00000000000E+00 -0.00000000000E+00 -0.27500000000E+03  0.27500000000E+03  0.00000000000E+00 0.  1.
    9000005    2    1    2  501    0 -0.14622945557E+02  0.27825132422E+02 -0.44767092175E+02  0.46935769055E+03  0.46615928673E+03 0.  0.
         13    1    3    3    0    0 -0.18669347617E+03 -0.13308645296E+03 -0.45628574104E+02  0.23377002541E+03  0.00000000000E+00 0.  1.
          1    1    3    3  501    0  0.17207053061E+03  0.16091158538E+03  0.86148192947E+00  0.23558766514E+03  0.00000000000E+00 0.  1.
         21    1    1    2  502  501  0.14622945557E+02 -0.27825132422E+02 -0.41667020594E+01  0.31708515215E+02  0.00000000000E+00 0.  1.
<scales pt_clust_4="550.00000" pt_clust_5="550.00000" pt_clust_6="31.43357"></scales>
<mgrwt>
<rscale>  0 0.30000000E+03</rscale>
<asrwt>  1 0.31433573E+02</asrwt>
<pdfrwt beam="1">  1        1 0.82205893E+00 0.30000000E+03</pdfrwt>
<pdfrwt beam="2">0</pdfrwt>
<totfact> 0.70806514E-04</totfact>
</mgrwt>
<clustering>
<clus scale="   31.434">  1  6  2 -1</clus>
<clus scale="  466.159">  4  5 -1 -1</clus>
<clus scale="  300.000">  1  4  2 -1</clus>
</clustering>
</event>
<event>
 6    1  0.1000035E-011  0.3000000E+03  0.7818608E-02  0.1093470E+00
          1   -1    0    0  502    0  0.00000000000E+00  0.00000000000E+00  0.22666328789E+03  0.22666328789E+03  0.00000000000E+00 0.  1.
         13   -1    0    0    0    0 -0.00000000000E+00 -0.00000000000E+00 -0.27500000000E+03  0.27500000000E+03  0.00000000000E+00 0.  1.
    9000005    2    1    2  501    0  0.27087589358E+02  0.19186834021E+02 -0.23957350445E+02  0.46047803116E+03  0.45865476172E+03 0.  0.
         13    1    3    3    0    0  0.13199118974E+03 -0.13948647170E+03  0.11597159018E+03  0.22433804779E+03  0.00000000000E+00 0.  1.
          1    1    3    3  501    0 -0.10490360038E+03  0.15867330572E+03 -0.13992894063E+03  0.23613998337E+03  0.00000000000E+00 0.  1.
         21    1    1    2  502  501 -0.27087589358E+02 -0.19186834021E+02 -0.24379361663E+02  0.41185256732E+02  0.00000000000E+00 0.  1.
<scales pt_clust_4="550.00000" pt_clust_5="550.00000" pt_clust_6="33.19448"></scales>
<mgrwt>
<rscale>  0 0.30000000E+03</rscale>
<asrwt>  1 0.33194475E+02</asrwt>
<pdfrwt beam="1">  1        1 0.82423014E+00 0.30000000E+03</pdfrwt>
<pdfrwt beam="2">0</pdfrwt>
<totfact> 0.67023687E-04</totfact>
</mgrwt>
<clustering>
<clus scale="   33.194">  1  6  2 -1</clus>
<clus scale="  458.655">  4  5 -1 -1</clus>
<clus scale="  300.000">  1  4  2 -1</clus>
</clustering>
</event>
<event>
 6    1  0.1000035E-011  0.3000000E+03  0.7818608E-02  0.1093470E+00
          1   -1    0    0  502    0  0.00000000000E+00  0.00000000000E+00  0.24180849884E+03  0.24180849884E+03  0.00000000000E+00 0.  1.
         13   -1    0    0    0    0 -0.00000000000E+00 -0.00000000000E+00 -0.27500000000E+03  0.27500000000E+03  0.00000000000E+00 0.  1.
    9000005    2    1    2  501    0 -0.17713079194E+02  0.36711085099E+02 -0.65151999515E+02  0.46501148736E+03  0.45861688084E+03 0.  0.
         13    1    3    3    0    0  0.47184156053E+02 -0.18346084124E+03 -0.12604612296E+03  0.22753428306E+03  0.00000000000E+00 0.  1.
          3    1    3    3  501    0 -0.64897235247E+02  0.22017192634E+03  0.60894123448E+02  0.23747720430E+03  0.00000000000E+00 0.  1.
         21    1    1    2  502  501  0.17713079194E+02 -0.36711085099E+02  0.31960498357E+02  0.51797011486E+02  0.00000000000E+00 0.  1.
<scales pt_clust_4="550.00000" pt_clust_5="550.00000" pt_clust_6="40.76097"></scales>
<mgrwt>
<rscale>  0 0.30000000E+03</rscale>
<asrwt>  1 0.40760973E+02</asrwt>
<pdfrwt beam="1">  1        1 0.87930363E+00 0.30000000E+03</pdfrwt>
<pdfrwt beam="2">0</pdfrwt>
<totfact> 0.19569302E-04</totfact>
</mgrwt>
<clustering>
<clus scale="   40.761">  1  6  2 -1</clus>
<clus scale="  458.617">  4  5 -1 -1</clus>
<clus scale="  300.000">  1  4  2 -1</clus>
</clustering>
</event>
<event>
 6    1  0.1000035E-011  0.3000000E+03  0.7818608E-02  0.1093470E+00
          1   -1    0    0  502    0  0.00000000000E+00  0.00000000000E+00  0.24725364370E+03  0.24725364370E+03  0.00000000000E+00 0.  1.
         13   -1    0    0    0    0 -0.00000000000E+00 -0.00000000000E+00 -0.27500000000E+03  0.27500000000E+03  0.00000000000E+00 0.  1.
    9000005    2    1    2  501    0 -0.29331795247E+02 -0.84015660597E+01 -0.76995834415E+02  0.46431875249E+03  0.45687263529E+03 0.  0.
         13    1    3    3    0    0 -0.39171370080E+02 -0.15825642233E+03  0.13004608280E+03  0.20854609824E+03  0.00000000000E+00 0.  1.
          1    1    3    3  501    0  0.98395748329E+01  0.14985485627E+03 -0.20704191721E+03  0.25577265425E+03  0.00000000000E+00 0.  1.
         21    1    1    2  502  501  0.29331795247E+02  0.84015660597E+01  0.49249478118E+02  0.57934891210E+02  0.00000000000E+00 0.  1.
<scales pt_clust_4="550.00000" pt_clust_5="550.00000" pt_clust_6="30.51132"></scales>
<mgrwt>
<rscale>  0 0.30000000E+03</rscale>
<asrwt>  1 0.30511318E+02</asrwt>
<pdfrwt beam="1">  1        1 0.89910416E+00 0.30000000E+03</pdfrwt>
<pdfrwt beam="2">0</pdfrwt>
<totfact> 0.11625194E-04</totfact>
</mgrwt>
<clustering>
<clus scale="   30.511">  1  6  2 -1</clus>
<clus scale="  456.873">  4  5 -1 -1</clus>
<clus scale="  300.000">  1  4  2 -1</clus>
</clustering>
</event>
<event>
 6    1  0.1000035E-011  0.3000000E+03  0.7818608E-02  0.1093470E+00
          1   -1    0    0  502    0  0.00000000000E+00  0.00000000000E+00  0.25236028487E+03  0.25236028487E+03  0.00000000000E+00 0.  1.
         13   -1    0    0    0    0 -0.00000000000E+00 -0.00000000000E+00 -0.27500000000E+03  0.27500000000E+03  0.00000000000E+00 0.  1.
    9000005    2    1    2  501    0  0.36439390246E+02  0.59224888649E+01 -0.59078902029E+02  0.47548814034E+03  0.47035704513E+03 0.  0.
         13    1    3    3    0    0  0.71775446918E+02  0.21294680955E+03 -0.12271428118E+03  0.25604072583E+03  0.00000000000E+00 0.  1.
          1    1    3    3  501    0 -0.35336056671E+02 -0.20702432068E+03  0.63635379154E+02  0.21944741451E+03  0.00000000000E+00 0.  1.
         21    1    1    2  502  501 -0.36439390246E+02 -0.59224888649E+01  0.36439186897E+02  0.51872144525E+02  0.00000000000E+00 0.  1.
<scales pt_clust_4="550.00000" pt_clust_5="550.00000" pt_clust_6="36.91754"></scales>
<mgrwt>
<rscale>  0 0.30000000E+03</rscale>
<asrwt>  1 0.36917544E+02</asrwt>
<pdfrwt beam="1">  1        1 0.91767376E+00 0.30000000E+03</pdfrwt>
<pdfrwt beam="2">0</pdfrwt>
<totfact> 0.46579545E-05</totfact>
</mgrwt>
<clustering>
<clus scale="   36.918">  1  6  2 -1</clus>
<clus scale="  470.357">  4  5 -1 -1</clus>
<clus scale="  300.000">  1  4  2 -1</clus>
</clustering>
</event>
<event>
 6    1  0.1000035E-011  0.3000000E+03  0.7818608E-02  0.1093470E+00
          1   -1    0    0  502    0  0.00000000000E+00  0.00000000000E+00  0.24947276508E+03  0.24947276508E+03  0.00000000000E+00 0.  1.
         13   -1    0    0    0    0 -0.00000000000E+00 -0.00000000000E+00 -0.27500000000E+03  0.27500000000E+03  0.00000000000E+00 0.  1.
    9000005    2    1    2  501    0 -0.52541471267E+02 -0.13833882339E+02 -0.43591956689E+02  0.46721617877E+03  0.46199428190E+03 0.  0.
         13    1    3    3    0    0 -0.10339817783E+03  0.18571283501E+03  0.79925841217E+02  0.22708716468E+03  0.00000000000E+00 0.  1.
          1    1    3    3  501    0  0.50856706566E+02 -0.19954671735E+03 -0.12351779791E+03  0.24012901409E+03  0.00000000000E+00 0.  1.
         21    1    1    2  502  501  0.52541471267E+02  0.13833882339E+02  0.18064721768E+02  0.57256586311E+02  0.00000000000E+00 0.  1.
<scales pt_clust_4="550.00000" pt_clust_5="550.00000" pt_clust_6="54.33215"></scales>
<mgrwt>
<rscale>  0 0.30000000E+03</rscale>
<asrwt>  1 0.54332150E+02</asrwt>
<pdfrwt beam="1">  1        1 0.90717369E+00 0.30000000E+03</pdfrwt>
<pdfrwt beam="2">0</pdfrwt>
<totfact> 0.77172187E-05</totfact>
</mgrwt>
<clustering>
<clus scale="   54.332">  1  6  2 -1</clus>
<clus scale="  461.994">  4  5 -1 -1</clus>
<clus scale="  300.000">  1  4  2 -1</clus>
</clustering>
</event>
<event>
 6    1  0.1000035E-011  0.3000000E+03  0.7818608E-02  0.1093470E+00
          1   -1    0    0  502    0  0.00000000000E+00  0.00000000000E+00  0.24197960438E+03  0.24197960438E+03  0.00000000000E+00 0.  1.
         13   -1    0    0    0    0 -0.00000000000E+00 -0.00000000000E+00 -0.27500000000E+03  0.27500000000E+03  0.00000000000E+00 0.  1.
    9000005    2    1    2  501    0 -0.24781988171E+02  0.48869813381E+02 -0.27089064448E+02  0.46186530236E+03  0.45780272445E+03 0.  0.
         13    1    3    3    0    0  0.33941673916E+02  0.24888028061E+03 -0.32911452854E+02  0.25333099896E+03  0.00000000000E+00 0.  1.
          3    1    3    3  501    0 -0.58723662087E+02 -0.20001046723E+03  0.58223884064E+01  0.20853430340E+03  0.00000000000E+00 0.  1.
         21    1    1    2  502  501  0.24781988171E+02 -0.48869813381E+02 -0.59313311719E+01  0.55114302020E+02  0.00000000000E+00 0. -1.
<scales pt_clust_4="550.00000" pt_clust_5="550.00000" pt_clust_6="54.79424"></scales>
<mgrwt>
<rscale>  0 0.30000000E+03</rscale>
<asrwt>  1 0.54794239E+02</asrwt>
<pdfrwt beam="1">  1        1 0.87992583E+00 0.30000000E+03</pdfrwt>
<pdfrwt beam="2">0</pdfrwt>
<totfact> 0.18249259E-04</totfact>
</mgrwt>
<clustering>
<clus scale="   54.794">  1  6  2 -1</clus>
<clus scale="  457.803">  4  5 -1 -1</clus>
<clus scale="  300.000">  1  4  2 -1</clus>
</clustering>
</event>
<event>
 6    1  0.1000035E-011  0.3000000E+03  0.7818608E-02  0.1093470E+00
          1   -1    0    0  502    0  0.00000000000E+00  0.00000000000E+00  0.22727325265E+03  0.22727325265E+03  0.00000000000E+00 0.  1.
         13   -1    0    0    0    0 -0.00000000000E+00 -0.00000000000E+00 -0.27500000000E+03  0.27500000000E+03  0.00000000000E+00 0.  1.
    9000005    2    1    2  501    0  0.71844760951E+01 -0.29449144393E+02 -0.57256633182E+02  0.47049767199E+03  0.46601595306E+03 0.  0.
         13    1    3    3    0    0  0.64134538754E+02  0.10727344133E+03 -0.21839713818E+03  0.25163096042E+03  0.00000000000E+00 0.  1.
          3    1    3    3  501    0 -0.56950062659E+02 -0.13672258572E+03  0.16114050500E+03  0.21886671157E+03  0.00000000000E+00 0.  1.
         21    1    1    2  502  501 -0.71844760951E+01  0.29449144393E+02  0.95298858304E+01  0.31775580658E+02  0.00000000000E+00 0. -1.
<scales pt_clust_4="550.00000" pt_clust_5="550.00000" pt_clust_6="30.31285"></scales>
<mgrwt>
<rscale>  0 0.30000000E+03</rscale>
<asrwt>  1 0.30312849E+02</asrwt>
<pdfrwt beam="1">  1        1 0.82644819E+00 0.30000000E+03</pdfrwt>
<pdfrwt beam="2">0</pdfrwt>
<totfact> 0.65161118E-04</totfact>
</mgrwt>
<clustering>
<clus scale="   30.313">  1  6  2 -1</clus>
<clus scale="  466.016">  4  5 -1 -1</clus>
<clus scale="  300.000">  1  4  2 -1</clus>
</clustering>
</event>
<event>
 6    1  0.1000035E-011  0.3000000E+03  0.7818608E-02  0.1093470E+00
          1   -1    0    0  502    0  0.00000000000E+00  0.00000000000E+00  0.23420998493E+03  0.23420998493E+03  0.00000000000E+00 0.  1.
         13   -1    0    0    0    0 -0.00000000000E+00 -0.00000000000E+00 -0.27500000000E+03  0.27500000000E+03  0.00000000000E+00 0.  1.
    9000005    2    1    2  501    0  0.28887794594E+02 -0.26309355209E+02 -0.35180765614E+02  0.46973656948E+03  0.46678482365E+03 0.  0.
         13    1    3    3    0    0  0.30301459393E+02 -0.73425899683E+02 -0.24351160823E+03  0.25613950209E+03  0.00000000000E+00 0.  1.
          3    1    3    3  501    0 -0.14136647994E+01  0.47116544473E+02  0.20833084262E+03  0.21359706739E+03  0.00000000000E+00 0.  1.
         21    1    1    2  502  501 -0.28887794594E+02  0.26309355209E+02 -0.56092494527E+01  0.39473415452E+02  0.00000000000E+00 0. -1.
<scales pt_clust_4="550.00000" pt_clust_5="550.00000" pt_clust_6="39.07286"></scales>
<mgrwt>
<rscale>  0 0.30000000E+03</rscale>
<asrwt>  1 0.39072860E+02</asrwt>
<pdfrwt beam="1">  1        1 0.85167267E+00 0.30000000E+03</pdfrwt>
<pdfrwt beam="2">0</pdfrwt>
<totfact> 0.38449679E-04</totfact>
</mgrwt>
<clustering>
<clus scale="   39.073">  1  6  2 -1</clus>
<clus scale="  466.785">  4  5 -1 -1</clus>
<clus scale="  300.000">  1  4  2 -1</clus>
</clustering>
</event>
<event>
 6    1  0.1000035E-011  0.3000000E+03  0.7818608E-02  0.1093470E+00
          1   -1    0    0  502    0  0.00000000000E+00  0.00000000000E+00  0.23339554101E+03  0.23339554101E+03  0.00000000000E+00 0.  1.
         13   -1    0    0    0    0 -0.00000000000E+00 -0.00000000000E+00 -0.27500000000E+03  0.27500000000E+03  0.00000000000E+00 0.  1.
    9000005    2    1    2  501    0 -0.74174205744E+01  0.30625887433E+02 -0.70925956818E+02  0.46535238425E+03  0.45883481458E+03 0.  0.
         13    1    3    3    0    0  0.64346920075E+02  0.70727541285E+02 -0.25035152116E+03  0.26799028969E+03  0.00000000000E+00 0.  1.
          1    1    3    3  501    0 -0.71764340650E+02 -0.40101653852E+02  0.17942556434E+03  0.19736209456E+03  0.00000000000E+00 0.  1.
         21    1    1    2  502  501  0.74174205744E+01 -0.30625887433E+02  0.29321497829E+02  0.43043156761E+02  0.00000000000E+00 0.  1.
<scales pt_clust_4="550.00000" pt_clust_5="550.00000" pt_clust_6="31.51132"></scales>
<mgrwt>
<rscale>  0 0.30000000E+03</rscale>
<asrwt>  1 0.31511317E+02</asrwt>
<pdfrwt beam="1">  1        1 0.84871106E+00 0.30000000E+03</pdfrwt>
<pdfrwt beam="2">0</pdfrwt>
<totfact> 0.42677090E-04</totfact>
</mgrwt>
<clustering>
<clus scale="   31.511">  1  6  2 -1</clus>
<clus scale="  458.835">  4  5 -1 -1</clus>
<clus scale="  300.000">  1  4  2 -1</clus>
</clustering>
</event>
<event>
 6    1  0.1000035E-011  0.3000000E+03  0.7818608E-02  0.1093470E+00
          1   -1    0    0  502    0  0.00000000000E+00  0.00000000000E+00  0.22890332289E+03  0.22890332289E+03  0.00000000000E+00 0.  1.
         13   -1    0    0    0    0 -0.00000000000E+00 -0.00000000000E+00 -0.27500000000E+03  0.27500000000E+03  0.00000000000E+00 0.  1.
    9000005    2    1    2  501    0 -0.31710530336E+02  0.30977339604E+01 -0.69871819567E+02  0.46414893837E+03  0.45775212957E+03 0.  0.
         13    1    3    3    0    0 -0.11104543074E+03 -0.94051365570E+02  0.15127644109E+03  0.20990785760E+03  0.00000000000E+00 0.  1.
          1    1    3    3  501    0  0.79334900399E+02  0.97149099530E+02 -0.22114826066E+03  0.25424108077E+03  0.00000000000E+00 0.  1.
         21    1    1    2  502  501  0.31710530336E+02 -0.30977339604E+01  0.23775142461E+02  0.39754384525E+02  0.00000000000E+00 0. -1.
<scales pt_clust_4="550.00000" pt_clust_5="550.00000" pt_clust_6="31.86148"></scales>
<mgrwt>
<rscale>  0 0.30000000E+03</rscale>
<asrwt>  1 0.31861477E+02</asrwt>
<pdfrwt beam="1">  1        1 0.83237572E+00 0.30000000E+03</pdfrwt>
<pdfrwt beam="2">0</pdfrwt>
<totfact> 0.57602448E-04</totfact>
</mgrwt>
<clustering>
<clus scale="   31.861">  1  6  2 -1</clus>
<clus scale="  457.752">  4  5 -1 -1</clus>
<clus scale="  300.000">  1  4  2 -1</clus>
</clustering>
</event>
<event>
 6    1  0.1000035E-011  0.3000000E+03  0.7818608E-02  0.1093470E+00
          1   -1    0    0  502    0  0.00000000000E+00  0.00000000000E+00  0.21943298278E+03  0.21943298278E+03  0.00000000000E+00 0.  1.
         13   -1    0    0    0    0 -0.00000000000E+00 -0.00000000000E+00 -0.27500000000E+03  0.27500000000E+03  0.00000000000E+00 0.  1.
    9000005    2    1    2  501    0  0.17999011163E+02  0.24496119432E+02 -0.65030823348E+02  0.46259608758E+03  0.45699245944E+03 0.  0.
         13    1    3    3    0    0  0.85931584766E+02  0.20364952443E+03  0.65759370673E+02  0.23061149341E+03  0.00000000000E+00 0.  1.
          3    1    3    3  501    0 -0.67932573603E+02 -0.17915340500E+03 -0.13079019402E+03  0.23198459417E+03  0.00000000000E+00 0.  1.
         21    1    1    2  502  501 -0.17999011163E+02 -0.24496119432E+02  0.94638061330E+01  0.31836895210E+02  0.00000000000E+00 0. -1.
<scales pt_clust_4="550.00000" pt_clust_5="550.00000" pt_clust_6="30.39777"></scales>
<mgrwt>
<rscale>  0 0.30000000E+03</rscale>
<asrwt>  1 0.30397768E+02</asrwt>
<pdfrwt beam="1">  1        1 0.79793812E+00 0.30000000E+03</pdfrwt>
<pdfrwt beam="2">0</pdfrwt>
<totfact> 0.11023741E-03</totfact>
</mgrwt>
<clustering>
<clus scale="   30.398">  1  6  2 -1</clus>
<clus scale="  456.992">  4  5 -1 -1</clus>
<clus scale="  300.000">  1  4  2 -1</clus>
</clustering>
</event>
<event>
 6    1  0.1000035E-011  0.3000000E+03  0.7818608E-02  0.1093470E+00
          1   -1    0    0  502    0  0.00000000000E+00  0.00000000000E+00  0.24231669268E+03  0.24231669268E+03  0.00000000000E+00 0.  1.
         13   -1    0    0    0    0 -0.00000000000E+00 -0.00000000000E+00 -0.27500000000E+03  0.27500000000E+03  0.00000000000E+00 0.  1.
    9000005    2    1    2  501    0  0.10430270199E+02 -0.41711533327E+02 -0.61443842468E+02  0.46558845155E+03  0.45950910534E+03 0.  0.
         13    1    3    3    0    0  0.38138175103E+02 -0.24877655345E+03 -0.48213417835E+02  0.25625929760E+03  0.00000000000E+00 0.  1.
          3    1    3    3  501    0 -0.27707904904E+02  0.20706502013E+03 -0.13230424633E+02  0.20932915394E+03  0.00000000000E+00 0.  1.
         21    1    1    2  502  501 -0.10430270199E+02  0.41711533327E+02  0.28760535150E+02  0.51728241136E+02  0.00000000000E+00 0.  1.
<scales pt_clust_4="550.00000" pt_clust_5="550.00000" pt_clust_6="42.99584"></scales>
<mgrwt>
<rscale>  0 0.30000000E+03</rscale>
<asrwt>  1 0.42995843E+02</asrwt>
<pdfrwt beam="1">  1        1 0.88115161E+00 0.30000000E+03</pdfrwt>
<pdfrwt beam="2">0</pdfrwt>
<totfact> 0.18384684E-04</totfact>
</mgrwt>
<clustering>
<clus scale="   42.996">  1  6  2 -1</clus>
<clus scale="  459.509">  4  5 -1 -1</clus>
<clus scale="  300.000">  1  4  2 -1</clus>
</clustering>
</event>
<event>
 6    1  0.1000035E-011  0.3000000E+03  0.7818608E-02  0.1093470E+00
          1   -1    0    0  502    0  0.00000000000E+00  0.00000000000E+00  0.24526426593E+03  0.24526426593E+03  0.00000000000E+00 0.  1.
         13   -1    0    0    0    0 -0.00000000000E+00 -0.00000000000E+00 -0.27500000000E+03  0.27500000000E+03  0.00000000000E+00 0.  1.
    9000005    2    1    2  501    0 -0.31541891878E+02 -0.13502069720E+02 -0.63750730924E+02  0.47195053247E+03  0.46636461334E+03 0.  0.
         13    1    3    3    0    0  0.10351282091E+03  0.17921876882E+02  0.17019063263E+03  0.20000237298E+03  0.00000000000E+00 0.  1.
          1    1    3    3  501    0 -0.13505471279E+03 -0.31423946602E+02 -0.23394136355E+03  0.27194815949E+03  0.00000000000E+00 0.  1.
         21    1    1    2  502  501  0.31541891878E+02  0.13502069720E+02  0.34014996858E+02  0.48313733464E+02  0.00000000000E+00 0.  1.
<scales pt_clust_4="550.00000" pt_clust_5="550.00000" pt_clust_6="34.31030"></scales>
<mgrwt>
<rscale>  0 0.30000000E+03</rscale>
<asrwt>  1 0.34310302E+02</asrwt>
<pdfrwt beam="1">  1        1 0.89187006E+00 0.30000000E+03</pdfrwt>
<pdfrwt beam="2">0</pdfrwt>
<totfact> 0.13766859E-04</totfact>
</mgrwt>
<clustering>
<clus scale="   34.310">  1  6  2 -1</clus>
<clus scale="  466.365">  4  5 -1 -1</clus>
<clus scale="  300.000">  1  4  2 -1</clus>
</clustering>
</event>
<event>
 6    1  0.1000035E-011  0.3000000E+03  0.7818608E-02  0.1093470E+00
          1   -1    0    0  502    0  0.00000000000E+00  0.00000000000E+00  0.25387569880E+03  0.25387569880E+03  0.00000000000E+00 0.  1.
         13   -1    0    0    0    0 -0.00000000000E+00 -0.00000000000E+00 -0.27500000000E+03  0.27500000000E+03  0.00000000000E+00 0.  1.
    9000005    2    1    2  501    0  0.32775868309E+02 -0.54265281727E+01 -0.58840916477E+02  0.47861390596E+03  0.47381991598E+03 0.  0.
         13    1    3    3    0    0 -0.15454665346E+03  0.16185668451E+03 -0.24317767959E+02  0.22510799243E+03  0.00000000000E+00 0.  1.
          1    1    3    3  501    0  0.18732252177E+03 -0.16728321269E+03 -0.34523148518E+02  0.25350591353E+03  0.00000000000E+00 0.  1.
         21    1    1    2  502  501 -0.32775868309E+02  0.54265281727E+01  0.37716615276E+02  0.50261792838E+02  0.00000000000E+00 0.  1.
<scales pt_clust_4="550.00000" pt_clust_5="550.00000" pt_clust_6="33.22205"></scales>
<mgrwt>
<rscale>  0 0.30000000E+03</rscale>
<asrwt>  1 0.33222052E+02</asrwt>
<pdfrwt beam="1">  1        1 0.92318436E+00 0.30000000E+03</pdfrwt>
<pdfrwt beam="2">0</pdfrwt>
<totfact> 0.36116759E-05</totfact>
</mgrwt>
<clustering>
<clus scale="   33.222">  1  6  2 -1</clus>
<clus scale="  473.820">  4  5 -1 -1</clus>
<clus scale="  300.000">  1  4  2 -1</clus>
</clustering>
</event>
<event>
 6    1  0.1000035E-011  0.3000000E+03  0.7818608E-02  0.1093470E+00
          1   -1    0    0  502    0  0.00000000000E+00  0.00000000000E+00  0.24508339563E+03  0.24508339563E+03  0.00000000000E+00 0.  1.
         13   -1    0    0    0    0 -0.00000000000E+00 -0.00000000000E+00 -0.27500000000E+03  0.27500000000E+03  0.00000000000E+00 0.  1.
    9000005    2    1    2  501    0 -0.49136703934E+02 -0.26693922789E+02 -0.34267446876E+02  0.46399497420E+03  0.45933658354E+03 0.  0.
         13    1    3    3    0    0 -0.20939432457E+03 -0.64134031978E+02  0.11006371753E+03  0.24509830505E+03  0.00000000000E+00 0.  1.
          3    1    3    3  501    0  0.16025762064E+03  0.37440109189E+02 -0.14433116440E+03  0.21889666915E+03  0.00000000000E+00 0.  1.
         21    1    1    2  502  501  0.49136703934E+02  0.26693922789E+02  0.43508425023E+01  0.56088421424E+02  0.00000000000E+00 0.  1.
<scales pt_clust_4="550.00000" pt_clust_5="550.00000" pt_clust_6="55.91942"></scales>
<mgrwt>
<rscale>  0 0.30000000E+03</rscale>
<asrwt>  1 0.55919417E+02</asrwt>
<pdfrwt beam="1">  1        1 0.89121235E+00 0.30000000E+03</pdfrwt>
<pdfrwt beam="2">0</pdfrwt>
<totfact> 0.12851400E-04</totfact>
</mgrwt>
<clustering>
<clus scale="   55.919">  1  6  2 -1</clus>
<clus scale="  459.337">  4  5 -1 -1</clus>
<clus scale="  300.000">  1  4  2 -1</clus>
</clustering>
</event>
<event>
 6    1  0.1000035E-011  0.3000000E+03  0.7818608E-02  0.1093470E+00
          1   -1    0    0  502    0  0.00000000000E+00  0.00000000000E+00  0.24127963203E+03  0.24127963203E+03  0.00000000000E+00 0.  1.
         13   -1    0    0    0    0 -0.00000000000E+00 -0.00000000000E+00 -0.27500000000E+03  0.27500000000E+03  0.00000000000E+00 0.  1.
    9000005    2    1    2  501    0  0.22903940523E+02 -0.32230496185E+02 -0.27648686991E+02  0.47627637360E+03  0.47382627489E+03 0.  0.
         13    1    3    3    0    0  0.10567424117E+03  0.15345241476E+03 -0.14983063579E+03  0.23908974939E+03  0.00000000000E+00 0.  1.
          3    1    3    3  501    0 -0.82770300649E+02 -0.18568291094E+03  0.12218194880E+03  0.23718662420E+03  0.00000000000E+00 0.  1.
         21    1    1    2  502  501 -0.22903940523E+02  0.32230496185E+02 -0.60716809762E+01  0.40003258438E+02  0.00000000000E+00 0.  1.
<scales pt_clust_4="550.00000" pt_clust_5="550.00000" pt_clust_6="39.53981"></scales>
<mgrwt>
<rscale>  0 0.30000000E+03</rscale>
<asrwt>  1 0.39539815E+02</asrwt>
<pdfrwt beam="1">  1        1 0.87738048E+00 0.30000000E+03</pdfrwt>
<pdfrwt beam="2">0</pdfrwt>
<totfact> 0.20717992E-04</totfact>
</mgrwt>
<clustering>
<clus scale="   39.540">  1  6  2 -1</clus>
<clus scale="  473.826">  4  5 -1 -1</clus>
<clus scale="  300.000">  1  4  2 -1</clus>
</clustering>
</event>
<event>
 6    1  0.1000035E-011  0.3000000E+03  0.7818608E-02  0.1093470E+00
          1   -1    0    0  502    0  0.00000000000E+00  0.00000000000E+00  0.22325225403E+03  0.22325225403E+03  0.00000000000E+00 0.  1.
         13   -1    0    0    0    0 -0.00000000000E+00 -0.00000000000E+00 -0.27500000000E+03  0.27500000000E+03  0.00000000000E+00 0.  1.
    9000005    2    1    2  501    0  0.30341553769E+02  0.18061295392E+01 -0.59114729122E+02  0.46697695339E+03  0.46222186427E+03 0.  0.
         13    1    3    3    0    0 -0.80374289265E+02 -0.13696912811E+03  0.13172569064E+03  0.20633038071E+03  0.00000000000E+00 0.  1.
          3    1    3    3  501    0  0.11071584303E+03  0.13877525765E+03 -0.19084041976E+03  0.26064657268E+03  0.00000000000E+00 0.  1.
         21    1    1    2  502  501 -0.30341553769E+02 -0.18061295392E+01  0.73669831514E+01  0.31275300635E+02  0.00000000000E+00 0. -1.
<scales pt_clust_4="550.00000" pt_clust_5="550.00000" pt_clust_6="30.39526"></scales>
<mgrwt>
<rscale>  0 0.30000000E+03</rscale>
<asrwt>  1 0.30395263E+02</asrwt>
<pdfrwt beam="1">  1        1 0.81182638E+00 0.30000000E+03</pdfrwt>
<pdfrwt beam="2">0</pdfrwt>
<totfact> 0.86671913E-04</totfact>
</mgrwt>
<clustering>
<clus scale="   30.395">  1  6  2 -1</clus>
<clus scale="  462.222">  4  5 -1 -1</clus>
<clus scale="  300.000">  1  4  2 -1</clus>
</clustering>
</event>
<event>
 6    1  0.1000035E-011  0.3000000E+03  0.7818608E-02  0.1093470E+00
          1   -1    0    0  502    0  0.00000000000E+00  0.00000000000E+00  0.23425557904E+03  0.23425557904E+03  0.00000000000E+00 0.  1.
         13   -1    0    0    0    0 -0.00000000000E+00 -0.00000000000E+00 -0.27500000000E+03  0.27500000000E+03  0.00000000000E+00 0.  1.
    9000005    2    1    2  501    0  0.34059025502E+02  0.12930945079E+02 -0.33137752262E+02  0.47203880906E+03  0.46946277816E+03 0.  0.
         13    1    3    3    0    0  0.19576829815E+03 -0.91060826513E+02  0.10023862688E+03  0.23804428790E+03  0.00000000000E+00 0.  1.
          1    1    3    3  501    0 -0.16170927265E+03  0.10399177159E+03 -0.13337637914E+03  0.23399452116E+03  0.00000000000E+00 0.  1.
         21    1    1    2  502  501 -0.34059025502E+02 -0.12930945079E+02 -0.76066687006E+01  0.37216769976E+02  0.00000000000E+00 0.  1.
<scales pt_clust_4="550.00000" pt_clust_5="550.00000" pt_clust_6="36.43114"></scales>
<mgrwt>
<rscale>  0 0.30000000E+03</rscale>
<asrwt>  1 0.36431139E+02</asrwt>
<pdfrwt beam="1">  1        1 0.85183847E+00 0.30000000E+03</pdfrwt>
<pdfrwt beam="2">0</pdfrwt>
<totfact> 0.38807678E-04</totfact>
</mgrwt>
<clustering>
<clus scale="   36.431">  1  6  2 -1</clus>
<clus scale="  469.463">  4  5 -1 -1</clus>
<clus scale="  300.000">  1  4  2 -1</clus>
</clustering>
</event>
<event>
 6    1  0.1000035E-011  0.3000000E+03  0.7818608E-02  0.1093470E+00
          1   -1    0    0  502    0  0.00000000000E+00  0.00000000000E+00  0.25907348611E+03  0.25907348611E+03  0.00000000000E+00 0.  1.
         13   -1    0    0    0    0 -0.00000000000E+00 -0.00000000000E+00 -0.27500000000E+03  0.27500000000E+03  0.00000000000E+00 0.  1.
    9000005    2    1    2  501    0 -0.56140781055E+01  0.29836113038E+02 -0.54881511684E+02  0.48468519431E+03  0.48061007661E+03 0.  0.
         13    1    3    3    0    0  0.74069889636E+01  0.17989663606E+03  0.14725668338E+03  0.23259878321E+03  0.00000000000E+00 0.  1.
          1    1    3    3  501    0 -0.13021067069E+02 -0.15006052302E+03 -0.20213819506E+03  0.25208641110E+03  0.00000000000E+00 0.  1.
         21    1    1    2  502  501  0.56140781055E+01 -0.29836113038E+02  0.38954997798E+02  0.49388291808E+02  0.00000000000E+00 0. -1.
<scales pt_clust_4="550.00000" pt_clust_5="550.00000" pt_clust_6="30.35970"></scales>
<mgrwt>
<rscale>  0 0.30000000E+03</rscale>
<asrwt>  1 0.30359702E+02</asrwt>
<pdfrwt beam="1">  1        1 0.94208540E+00 0.30000000E+03</pdfrwt>
<pdfrwt beam="2">0</pdfrwt>
<totfact> 0.18102158E-05</totfact>
</mgrwt>
<clustering>
<clus scale="   30.360">  1  6  2 -1</clus>
<clus scale="  480.610">  4  5 -1 -1</clus>
<clus scale="  300.000">  1  4  2 -1</clus>
</clustering>
</event>
<event>
 6    1  0.1000035E-011  0.3000000E+03  0.7818608E-02  0.1093470E+00
          1   -1    0    0  502    0  0.00000000000E+00  0.00000000000E+00  0.24563384097E+03  0.24563384097E+03  0.00000000000E+00 0.  1.
         13   -1    0    0    0    0 -0.00000000000E+00 -0.00000000000E+00 -0.27500000000E+03  0.27500000000E+03  0.00000000000E+00 0.  1.
    9000005    2    1    2  501    0 -0.19535855250E+02  0.32048350800E+02 -0.47156446779E+02  0.47909782325E+03  0.47529174971E+03 0.  0.
         13    1    3    3    0    0 -0.10377878193E+03  0.47895793541E+02  0.19288668938E+03  0.22420820136E+03  0.00000000000E+00 0.  1.
          1    1    3    3  501    0  0.84242926675E+02 -0.15847442741E+02 -0.24004313615E+03  0.25488962190E+03  0.00000000000E+00 0.  1.
         21    1    1    2  502  501  0.19535855250E+02 -0.32048350800E+02  0.17790287745E+02  0.41536017712E+02  0.00000000000E+00 0.  1.
<scales pt_clust_4="550.00000" pt_clust_5="550.00000" pt_clust_6="37.53327"></scales>
<mgrwt>
<rscale>  0 0.30000000E+03</rscale>
<asrwt>  1 0.37533271E+02</asrwt>
<pdfrwt beam="1">  1        1 0.89321397E+00 0.30000000E+03</pdfrwt>
<pdfrwt beam="2">0</pdfrwt>
<totfact> 0.13045321E-04</totfact>
</mgrwt>
<clustering>
<clus scale="   37.533">  1  6  2 -1</clus>
<clus scale="  475.292">  4  5 -1 -1</clus>
<clus scale="  300.000">  1  4  2 -1</clus>
</clustering>
</event>
<event>
 6    1  0.1000035E-011  0.3000000E+03  0.7818608E-02  0.1093470E+00
          1   -1    0    0  502    0  0.00000000000E+00  0.00000000000E+00  0.21951459371E+03  0.21951459371E+03  0.00000000000E+00 0.  1.
         13   -1    0    0    0    0 -0.00000000000E+00 -0.00000000000E+00 -0.27500000000E+03  0.27500000000E+03  0.00000000000E+00 0.  1.
    9000005    2    1    2  501    0  0.62125556601E+01  0.30395762792E+02 -0.52008804655E+02  0.46329624970E+03  0.45932123942E+03 0.  0.
         13    1    3    3    0    0 -0.20369534544E+03  0.46787700019E+02  0.69439151145E+02  0.22023323623E+03  0.00000000000E+00 0.  1.
          3    1    3    3  501    0  0.20990790110E+03 -0.16391937227E+02 -0.12144795580E+03  0.24306301348E+03  0.00000000000E+00 0.  1.
         21    1    1    2  502  501 -0.62125556601E+01 -0.30395762792E+02 -0.34766016346E+01  0.31218344006E+02  0.00000000000E+00 0. -1.
<scales pt_clust_4="550.00000" pt_clust_5="550.00000" pt_clust_6="31.02416"></scales>
<mgrwt>
<rscale>  0 0.30000000E+03</rscale>
<asrwt>  1 0.31024156E+02</asrwt>
<pdfrwt beam="1">  1        1 0.79823489E+00 0.30000000E+03</pdfrwt>
<pdfrwt beam="2">0</pdfrwt>
<totfact> 0.10926324E-03</totfact>
</mgrwt>
<clustering>
<clus scale="   31.024">  1  6  2 -1</clus>
<clus scale="  459.321">  4  5 -1 -1</clus>
<clus scale="  300.000">  1  4  2 -1</clus>
</clustering>
</event>
<event>
 6    1  0.1000035E-011  0.3000000E+03  0.7818608E-02  0.1093470E+00
          1   -1    0    0  502    0  0.00000000000E+00  0.00000000000E+00  0.23784578200E+03  0.23784578200E+03  0.00000000000E+00 0.  1.
         13   -1    0    0    0    0 -0.00000000000E+00 -0.00000000000E+00 -0.27500000000E+03  0.27500000000E+03  0.00000000000E+00 0.  1.
    9000005    2    1    2  501    0 -0.42719650835E+01  0.43830322451E+02 -0.59057267315E+02  0.46366153227E+03  0.45777167763E+03 0.  0.
         13    1    3    3    0    0  0.14676447524E+03 -0.13666209790E+03 -0.10110469396E+03  0.22458517167E+03  0.00000000000E+00 0.  1.
          1    1    3    3  501    0 -0.15103644032E+03  0.18049242035E+03  0.42047426647E+02  0.23907636060E+03  0.00000000000E+00 0.  1.
         21    1    1    2  502  501  0.42719650835E+01 -0.43830322451E+02  0.21903049315E+02  0.49184249726E+02  0.00000000000E+00 0. -1.
<scales pt_clust_4="550.00000" pt_clust_5="550.00000" pt_clust_6="44.03802"></scales>
<mgrwt>
<rscale>  0 0.30000000E+03</rscale>
<asrwt>  1 0.44038016E+02</asrwt>
<pdfrwt beam="1">  1        1 0.86489375E+00 0.30000000E+03</pdfrwt>
<pdfrwt beam="2">0</pdfrwt>
<totfact> 0.27465475E-04</totfact>
</mgrwt>
<clustering>
<clus scale="   44.038">  1  6  2 -1</clus>
<clus scale="  457.772">  4  5 -1 -1</clus>
<clus scale="  300.000">  1  4  2 -1</clus>
</clustering>
</event>
<event>
 6    1  0.1000035E-011  0.3000000E+03  0.7818608E-02  0.1093470E+00
          1   -1    0    0  502    0  0.00000000000E+00  0.00000000000E+00  0.22356559222E+03  0.22356559222E+03  0.00000000000E+00 0.  1.
         13   -1    0    0    0    0 -0.00000000000E+00 -0.00000000000E+00 -0.27500000000E+03  0.27500000000E+03  0.00000000000E+00 0.  1.
    9000005    2    1    2  501    0  0.30868397587E+02 -0.14757293249E+01 -0.43930595837E+02  0.46676397370E+03  0.46366331982E+03 0.  0.
         13    1    3    3    0    0  0.15534458689E+03  0.14052349635E+03  0.97291050632E+02  0.23096394142E+03  0.00000000000E+00 0.  1.
          1    1    3    3  501    0 -0.12447618930E+03 -0.14199922568E+03 -0.14122164647E+03  0.23580003229E+03  0.00000000000E+00 0.  1.
         21    1    1    2  502  501 -0.30868397587E+02  0.14757293249E+01 -0.75038119434E+01  0.31801618517E+02  0.00000000000E+00 0.  1.
<scales pt_clust_4="550.00000" pt_clust_5="550.00000" pt_clust_6="30.90367"></scales>
<mgrwt>
<rscale>  0 0.30000000E+03</rscale>
<asrwt>  1 0.30903668E+02</asrwt>
<pdfrwt beam="1">  1        1 0.81296579E+00 0.30000000E+03</pdfrwt>
<pdfrwt beam="2">0</pdfrwt>
<totfact> 0.84619745E-04</totfact>
</mgrwt>
<clustering>
<clus scale="   30.904">  1  6  2 -1</clus>
<clus scale="  463.663">  4  5 -1 -1</clus>
<clus scale="  300.000">  1  4  2 -1</clus>
</clustering>
</event>
<event>
 6    1  0.1000035E-011  0.3000000E+03  0.7818608E-02  0.1093470E+00
          1   -1    0    0  502    0  0.00000000000E+00  0.00000000000E+00  0.22147259719E+03  0.22147259719E+03  0.00000000000E+00 0.  1.
         13   -1    0    0    0    0 -0.00000000000E+00 -0.00000000000E+00 -0.27500000000E+03  0.27500000000E+03  0.00000000000E+00 0.  1.
    9000005    2    1    2  501    0  0.28139218203E+02  0.16913975130E+02 -0.60106876990E+02  0.46298845712E+03  0.45789472219E+03 0.  0.
         13    1    3    3    0    0 -0.81068455420E+02 -0.74628785118E+02 -0.22167890727E+03  0.24755421216E+03  0.00000000000E+00 0.  1.
          1    1    3    3  501    0  0.10920767362E+03  0.91542760248E+02  0.16157203028E+03  0.21543424496E+03  0.00000000000E+00 0.  1.
         21    1    1    2  502  501 -0.28139218203E+02 -0.16913975130E+02  0.65794741767E+01  0.33484140070E+02  0.00000000000E+00 0.  1.
<scales pt_clust_4="550.00000" pt_clust_5="550.00000" pt_clust_6="32.83136"></scales>
<mgrwt>
<rscale>  0 0.30000000E+03</rscale>
<asrwt>  1 0.32831359E+02</asrwt>
<pdfrwt beam="1">  1        1 0.80535490E+00 0.30000000E+03</pdfrwt>
<pdfrwt beam="2">0</pdfrwt>
<totfact> 0.95851907E-04</totfact>
</mgrwt>
<clustering>
<clus scale="   32.831">  1  6  2 -1</clus>
<clus scale="  457.895">  4  5 -1 -1</clus>
<clus scale="  300.000">  1  4  2 -1</clus>
</clustering>
</event>
<event>
 6    1  0.1000035E-011  0.3000000E+03  0.7818608E-02  0.1093470E+00
          1   -1    0    0  502    0  0.00000000000E+00  0.00000000000E+00  0.23674959997E+03  0.23674959997E+03  0.00000000000E+00 0.  1.
         13   -1    0    0    0    0 -0.00000000000E+00 -0.00000000000E+00 -0.27500000000E+03  0.27500000000E+03  0.00000000000E+00 0.  1.
    9000005    2    1    2  501    0 -0.57572278078E+01 -0.42517887465E+02 -0.51388325451E+02  0.46687731999E+03  0.46205276268E+03 0.  0.
         13    1    3    3    0    0  0.39704128277E+02 -0.15503349111E+03  0.15798363850E+03  0.22487914799E+03  0.00000000000E+00 0.  1.
          3    1    3    3  501    0 -0.45461356085E+02  0.11251560365E+03 -0.20937196395E+03  0.24199817199E+03  0.00000000000E+00 0.  1.
         21    1    1    2  502  501  0.57572278078E+01  0.42517887465E+02  0.13137925419E+02  0.44872279982E+02  0.00000000000E+00 0.  1.
<scales pt_clust_4="550.00000" pt_clust_5="550.00000" pt_clust_6="42.90590"></scales>
<mgrwt>
<rscale>  0 0.30000000E+03</rscale>
<asrwt>  1 0.42905902E+02</asrwt>
<pdfrwt beam="1">  1        1 0.86090764E+00 0.30000000E+03</pdfrwt>
<pdfrwt beam="2">0</pdfrwt>
<totfact> 0.30469889E-04</totfact>
</mgrwt>
<clustering>
<clus scale="   42.906">  1  6  2 -1</clus>
<clus scale="  462.053">  4  5 -1 -1</clus>
<clus scale="  300.000">  1  4  2 -1</clus>
</clustering>
</event>
<event>
 6    1  0.1000035E-011  0.3000000E+03  0.7818608E-02  0.1093470E+00
          1   -1    0    0  502    0  0.00000000000E+00  0.00000000000E+00  0.24414032546E+03  0.24414032546E+03  0.00000000000E+00 0.  1.
         13   -1    0    0    0    0 -0.00000000000E+00 -0.00000000000E+00 -0.27500000000E+03  0.27500000000E+03  0.00000000000E+00 0.  1.
    9000005    2    1    2  501    0  0.20145168006E+02 -0.40293614143E+02 -0.29087303703E+02  0.47405657635E+03  0.47101397348E+03 0.  0.
         13    1    3    3    0    0  0.79557124241E+02  0.14981399583E+03 -0.16203851736E+03  0.23458484707E+03  0.00000000000E+00 0.  1.
          1    1    3    3  501    0 -0.59411956234E+02 -0.19010760998E+03  0.13295121366E+03  0.23947172929E+03  0.00000000000E+00 0.  1.
         21    1    1    2  502  501 -0.20145168006E+02  0.40293614143E+02 -0.17723708406E+01  0.45083749102E+02  0.00000000000E+00 0. -1.
<scales pt_clust_4="550.00000" pt_clust_5="550.00000" pt_clust_6="45.04890"></scales>
<mgrwt>
<rscale>  0 0.30000000E+03</rscale>
<asrwt>  1 0.45048897E+02</asrwt>
<pdfrwt beam="1">  1        1 0.88778300E+00 0.30000000E+03</pdfrwt>
<pdfrwt beam="2">0</pdfrwt>
<totfact> 0.14835551E-04</totfact>
</mgrwt>
<clustering>
<clus scale="   45.049">  1  6  2 -1</clus>
<clus scale="  471.014">  4  5 -1 -1</clus>
<clus scale="  300.000">  1  4  2 -1</clus>
</clustering>
</event>
<event>
 6    1  0.1000035E-011  0.3000000E+03  0.7818608E-02  0.1093470E+00
          1   -1    0    0  502    0  0.00000000000E+00  0.00000000000E+00  0.22693961818E+03  0.22693961818E+03  0.00000000000E+00 0.  1.
         13   -1    0    0    0    0 -0.00000000000E+00 -0.00000000000E+00 -0.27500000000E+03  0.27500000000E+03  0.00000000000E+00 0.  1.
    9000005    2    1    2  501    0 -0.36873411145E+02  0.12011475308E+01 -0.49129990843E+02  0.46503114669E+03  0.46095457497E+03 0.  0.
         13    1    3    3    0    0  0.19647519173E+03  0.84943429172E+02 -0.12455739820E+02  0.21441322856E+03  0.00000000000E+00 0.  1.
          3    1    3    3  501    0 -0.23334860288E+03 -0.83742281641E+02 -0.36674251023E+02  0.25061791813E+03  0.00000000000E+00 0.  1.
         21    1    1    2  502  501  0.36873411145E+02 -0.12011475308E+01  0.10696090269E+01  0.36908471498E+02  0.00000000000E+00 0.  1.
<scales pt_clust_4="550.00000" pt_clust_5="550.00000" pt_clust_6="36.89297"></scales>
<mgrwt>
<rscale>  0 0.30000000E+03</rscale>
<asrwt>  1 0.36892970E+02</asrwt>
<pdfrwt beam="1">  1        1 0.82523498E+00 0.30000000E+03</pdfrwt>
<pdfrwt beam="2">0</pdfrwt>
<totfact> 0.64368376E-04</totfact>
</mgrwt>
<clustering>
<clus scale="   36.893">  1  6  2 -1</clus>
<clus scale="  460.955">  4  5 -1 -1</clus>
<clus scale="  300.000">  1  4  2 -1</clus>
</clustering>
</event>
<event>
 6    1  0.1000035E-011  0.3000000E+03  0.7818608E-02  0.1093470E+00
          1   -1    0    0  502    0  0.00000000000E+00  0.00000000000E+00  0.22890175657E+03  0.22890175657E+03  0.00000000000E+00 0.  1.
         13   -1    0    0    0    0 -0.00000000000E+00 -0.00000000000E+00 -0.27500000000E+03  0.27500000000E+03  0.00000000000E+00 0.  1.
    9000005    2    1    2  501    0  0.32222729085E+02  0.13456144858E+02 -0.52826910019E+02  0.46833988010E+03  0.46403899487E+03 0.  0.
         13    1    3    3    0    0  0.95408566145E+01  0.19345625136E+02  0.20666718369E+03  0.20778981200E+03  0.00000000000E+00 0.  1.
          3    1    3    3  501    0  0.22681872470E+02 -0.58894802773E+01 -0.25949409371E+03  0.26055006810E+03  0.00000000000E+00 0.  1.
         21    1    1    2  502  501 -0.32222729085E+02 -0.13456144858E+02  0.67286665851E+01  0.35561876471E+02  0.00000000000E+00 0.  1.
<scales pt_clust_4="550.00000" pt_clust_5="550.00000" pt_clust_6="34.91951"></scales>
<mgrwt>
<rscale>  0 0.30000000E+03</rscale>
<asrwt>  1 0.34919509E+02</asrwt>
<pdfrwt beam="1">  1        1 0.83237002E+00 0.30000000E+03</pdfrwt>
<pdfrwt beam="2">0</pdfrwt>
<totfact> 0.56620538E-04</totfact>
</mgrwt>
<clustering>
<clus scale="   34.920">  1  6  2 -1</clus>
<clus scale="  464.039">  4  5 -1 -1</clus>
<clus scale="  300.000">  1  4  2 -1</clus>
</clustering>
</event>
<event>
 6    1  0.1000035E-011  0.3000000E+03  0.7818608E-02  0.1093470E+00
          1   -1    0    0  502    0  0.00000000000E+00  0.00000000000E+00  0.26287537753E+03  0.26287537753E+03  0.00000000000E+00 0.  1.
         13   -1    0    0    0    0 -0.00000000000E+00 -0.00000000000E+00 -0.27500000000E+03  0.27500000000E+03  0.00000000000E+00 0.  1.
    9000005    2    1    2  501    0  0.32689643238E+01 -0.43963425264E+02 -0.12825091297E+02  0.49378502093E+03  0.49164590412E+03 0.  0.
         13    1    3    3    0    0 -0.85039556750E+02 -0.20679134481E+03 -0.14476414827E+03  0.26636637386E+03  0.00000000000E+00 0.  1.
          1    1    3    3  501    0  0.88308521074E+02  0.16282791955E+03  0.13193905697E+03  0.22741864706E+03  0.00000000000E+00 0.  1.
         21    1    1    2  502  501 -0.32689643238E+01  0.43963425264E+02  0.70046882414E+00  0.44090356602E+02  0.00000000000E+00 0. -1.
<scales pt_clust_4="550.00000" pt_clust_5="550.00000" pt_clust_6="44.08479"></scales>
<mgrwt>
<rscale>  0 0.30000000E+03</rscale>
<asrwt>  1 0.44084792E+02</asrwt>
<pdfrwt beam="1">  1        1 0.95591046E+00 0.30000000E+03</pdfrwt>
<pdfrwt beam="2">0</pdfrwt>
<totfact> 0.89004119E-06</totfact>
</mgrwt>
<clustering>
<clus scale="   44.085">  1  6  2 -1</clus>
<clus scale="  491.646">  4  5 -1 -1</clus>
<clus scale="  300.000">  1  4  2 -1</clus>
</clustering>
</event>
<event>
 6    1  0.1000035E-011  0.3000000E+03  0.7818608E-02  0.1093470E+00
          1   -1    0    0  502    0  0.00000000000E+00  0.00000000000E+00  0.23945656976E+03  0.23945656976E+03  0.00000000000E+00 0.  1.
         13   -1    0    0    0    0 -0.00000000000E+00 -0.00000000000E+00 -0.27500000000E+03  0.27500000000E+03  0.00000000000E+00 0.  1.
    9000005    2    1    2  501    0  0.17758100129E+02 -0.38264823759E+02 -0.28812289142E+02  0.47173824678E+03  0.46896404831E+03 0.  0.
         13    1    3    3    0    0  0.79479976653E+02 -0.57606145286E+02 -0.23551457509E+03  0.25515220897E+03  0.00000000000E+00 0.  1.
          3    1    3    3  501    0 -0.61721876525E+02  0.19341321527E+02  0.20670228594E+03  0.21658603781E+03  0.00000000000E+00 0.  1.
         21    1    1    2  502  501 -0.17758100129E+02  0.38264823759E+02 -0.67311411014E+01  0.42718322978E+02  0.00000000000E+00 0. -1.
<scales pt_clust_4="550.00000" pt_clust_5="550.00000" pt_clust_6="42.18470"></scales>
<mgrwt>
<rscale>  0 0.30000000E+03</rscale>
<asrwt>  1 0.42184697E+02</asrwt>
<pdfrwt beam="1">  1        1 0.87075116E+00 0.30000000E+03</pdfrwt>
<pdfrwt beam="2">0</pdfrwt>
<totfact> 0.24042022E-04</totfact>
</mgrwt>
<clustering>
<clus scale="   42.185">  1  6  2 -1</clus>
<clus scale="  468.964">  4  5 -1 -1</clus>
<clus scale="  300.000">  1  4  2 -1</clus>
</clustering>
</event>
<event>
 6    1  0.1000035E-011  0.3000000E+03  0.7818608E-02  0.1093470E+00
          1   -1    0    0  502    0  0.00000000000E+00  0.00000000000E+00  0.24397974703E+03  0.24397974703E+03  0.00000000000E+00 0.  1.
         13   -1    0    0    0    0 -0.00000000000E+00 -0.00000000000E+00 -0.27500000000E+03  0.27500000000E+03  0.00000000000E+00 0.  1.
    9000005    2    1    2  501    0  0.30117496260E+02  0.14007517175E+01 -0.43478118764E+02  0.48635729914E+03  0.48347083669E+03 0.  0.
         13    1    3    3    0    0  0.92714464546E+01  0.15330406675E+03  0.16639591715E+03  0.22644137839E+03  0.00000000000E+00 0.  1.
          3    1    3    3  501    0  0.20846049806E+02 -0.15190331503E+03 -0.20987403591E+03  0.25991592075E+03  0.00000000000E+00 0.  1.
         21    1    1    2  502  501 -0.30117496260E+02 -0.14007517175E+01  0.12457865797E+02  0.32622447894E+02  0.00000000000E+00 0.  1.
<scales pt_clust_4="550.00000" pt_clust_5="550.00000" pt_clust_6="30.15005"></scales>
<mgrwt>
<rscale>  0 0.30000000E+03</rscale>
<asrwt>  1 0.30150053E+02</asrwt>
<pdfrwt beam="1">  1        1 0.88719908E+00 0.30000000E+03</pdfrwt>
<pdfrwt beam="2">0</pdfrwt>
<totfact> 0.16280858E-04</totfact>
</mgrwt>
<clustering>
<clus scale="   30.150">  1  6  2 -1</clus>
<clus scale="  483.471">  4  5 -1 -1</clus>
<clus scale="  300.000">  1  4  2 -1</clus>
</clustering>
</event>
<event>
 6    1  0.1000035E-011  0.3000000E+03  0.7818608E-02  0.1093470E+00
          1   -1    0    0  502    0  0.00000000000E+00  0.00000000000E+00  0.22731215442E+03  0.22731215442E+03  0.00000000000E+00 0.  1.
         13   -1    0    0    0    0 -0.00000000000E+00 -0.00000000000E+00 -0.27500000000E+03  0.27500000000E+03  0.00000000000E+00 0.  1.
    9000005    2    1    2  501    0  0.36304306434E+02  0.16163875298E+02 -0.55362719485E+02  0.46183775239E+03  0.45678201069E+03 0.  0.
         13    1    3    3    0    0 -0.63317239673E+01 -0.76760723140E+02  0.18513116981E+03  0.20051396305E+03  0.00000000000E+00 0.  1.
          3    1    3    3  501    0  0.42636030402E+02  0.92924598437E+02 -0.24049388929E+03  0.26132378933E+03  0.00000000000E+00 0.  1.
         21    1    1    2  502  501 -0.36304306434E+02 -0.16163875298E+02  0.76748739022E+01  0.40474402031E+02  0.00000000000E+00 0.  1.
<scales pt_clust_4="550.00000" pt_clust_5="550.00000" pt_clust_6="39.74007"></scales>
<mgrwt>
<rscale>  0 0.30000000E+03</rscale>
<asrwt>  1 0.39740075E+02</asrwt>
<pdfrwt beam="1">  1        1 0.82658965E+00 0.30000000E+03</pdfrwt>
<pdfrwt beam="2">0</pdfrwt>
<totfact> 0.61759336E-04</totfact>
</mgrwt>
<clustering>
<clus scale="   39.740">  1  6  2 -1</clus>
<clus scale="  456.782">  4  5 -1 -1</clus>
<clus scale="  300.000">  1  4  2 -1</clus>
</clustering>
</event>
<event>
 6    1  0.1000035E-011  0.3000000E+03  0.7818608E-02  0.1093470E+00
          1   -1    0    0  502    0  0.00000000000E+00  0.00000000000E+00  0.23996317239E+03  0.23996317239E+03  0.00000000000E+00 0.  1.
         13   -1    0    0    0    0 -0.00000000000E+00 -0.00000000000E+00 -0.27500000000E+03  0.27500000000E+03  0.00000000000E+00 0.  1.
    9000005    2    1    2  501    0  0.29039489944E+02 -0.86408809615E+01 -0.51587434906E+02  0.48043956595E+03  0.47670006953E+03 0.  0.
         13    1    3    3    0    0  0.18490114902E+03  0.13495341945E+03 -0.11907224050E+03  0.25802918205E+03  0.00000000000E+00 0.  1.
          1    1    3    3  501    0 -0.15586165908E+03 -0.14359430041E+03  0.67484805597E+02  0.22241038390E+03  0.00000000000E+00 0.  1.
         21    1    1    2  502  501 -0.29039489944E+02  0.86408809615E+01  0.16550607300E+02  0.34523606445E+02  0.00000000000E+00 0.  1.
<scales pt_clust_4="550.00000" pt_clust_5="550.00000" pt_clust_6="30.29780"></scales>
<mgrwt>
<rscale>  0 0.30000000E+03</rscale>
<asrwt>  1 0.30297802E+02</asrwt>
<pdfrwt beam="1">  1        1 0.87259335E+00 0.30000000E+03</pdfrwt>
<pdfrwt beam="2">0</pdfrwt>
<totfact> 0.24486844E-04</totfact>
</mgrwt>
<clustering>
<clus scale="   30.298">  1  6  2 -1</clus>
<clus scale="  476.700">  4  5 -1 -1</clus>
<clus scale="  300.000">  1  4  2 -1</clus>
</clustering>
</event>
<event>
 6    1  0.1000035E-011  0.3000000E+03  0.7818608E-02  0.1093470E+00
          1   -1    0    0  502    0  0.00000000000E+00  0.00000000000E+00  0.25509053590E+03  0.25509053590E+03  0.00000000000E+00 0.  1.
         13   -1    0    0    0    0 -0.00000000000E+00 -0.00000000000E+00 -0.27500000000E+03  0.27500000000E+03  0.00000000000E+00 0.  1.
    9000005    2    1    2  501    0  0.31563593737E+02 -0.11262980933E+02 -0.34912051353E+02  0.49337279069E+03  0.49099362936E+03 0.  0.
         13    1    3    3    0    0 -0.15910653470E+02  0.23107100704E+03 -0.74445074570E+02  0.24328795349E+03  0.00000000000E+00 0.  1.
          3    1    3    3  501    0  0.47474247207E+02 -0.24233398797E+03  0.39533023217E+02  0.25008483720E+03  0.00000000000E+00 0.  1.
         21    1    1    2  502  501 -0.31563593737E+02  0.11262980933E+02  0.15002587257E+02  0.36717745212E+02  0.00000000000E+00 0. -1.
<scales pt_clust_4="550.00000" pt_clust_5="550.00000" pt_clust_6="33.51291"></scales>
<mgrwt>
<rscale>  0 0.30000000E+03</rscale>
<asrwt>  1 0.33512911E+02</asrwt>
<pdfrwt beam="1">  1        1 0.92760195E+00 0.30000000E+03</pdfrwt>
<pdfrwt beam="2">0</pdfrwt>
<totfact> 0.29237522E-05</totfact>
</mgrwt>
<clustering>
<clus scale="   33.513">  1  6  2 -1</clus>
<clus scale="  490.994">  4  5 -1 -1</clus>
<clus scale="  300.000">  1  4  2 -1</clus>
</clustering>
</event>
<event>
 6    1  0.1000035E-011  0.3000000E+03  0.7818608E-02  0.1093470E+00
          1   -1    0    0  502    0  0.00000000000E+00  0.00000000000E+00  0.22356273756E+03  0.22356273756E+03  0.00000000000E+00 0.  1.
         13   -1    0    0    0    0 -0.00000000000E+00 -0.00000000000E+00 -0.27500000000E+03  0.27500000000E+03  0.00000000000E+00 0.  1.
    9000005    2    1    2  501    0 -0.11226873256E+02  0.35658633337E+02 -0.48790674121E+02  0.46108494087E+03  0.45696959637E+03 0.  0.
         13    1    3    3    0    0  0.45046982625E+02  0.61000096821E+02  0.19519896321E+03  0.20941078695E+03  0.00000000000E+00 0.  1.
          1    1    3    3  501    0 -0.56273855881E+02 -0.25341463484E+02 -0.24398963733E+03  0.25167415392E+03  0.00000000000E+00 0.  1.
         21    1    1    2  502  501  0.11226873256E+02 -0.35658633337E+02 -0.26465883234E+01  0.37477796684E+02  0.00000000000E+00 0.  1.
<scales pt_clust_4="550.00000" pt_clust_5="550.00000" pt_clust_6="37.38423"></scales>
<mgrwt>
<rscale>  0 0.30000000E+03</rscale>
<asrwt>  1 0.37384232E+02</asrwt>
<pdfrwt beam="1">  1        1 0.81295541E+00 0.30000000E+03</pdfrwt>
<pdfrwt beam="2">0</pdfrwt>
<totfact> 0.81658886E-04</totfact>
</mgrwt>
<clustering>
<clus scale="   37.384">  1  6  2 -1</clus>
<clus scale="  456.970">  4  5 -1 -1</clus>
<clus scale="  300.000">  1  4  2 -1</clus>
</clustering>
</event>
<event>
 6    1  0.1000035E-011  0.3000000E+03  0.7818608E-02  0.1093470E+00
          1   -1    0    0  502    0  0.00000000000E+00  0.00000000000E+00  0.24569731303E+03  0.24569731303E+03  0.00000000000E+00 0.  1.
         13   -1    0    0    0    0 -0.00000000000E+00 -0.00000000000E+00 -0.27500000000E+03  0.27500000000E+03  0.00000000000E+00 0.  1.
    9000005    2    1    2  501    0  0.23732697640E+02  0.21293515893E+02 -0.72598034367E+01  0.48193465741E+03  0.48082393296E+03 0.  0.
         13    1    3    3    0    0  0.14096233011E+03 -0.19107181842E+03 -0.24766624264E+02  0.23873040020E+03  0.00000000000E+00 0.  1.
          3    1    3    3  501    0 -0.11722963247E+03  0.21236533431E+03  0.17506820827E+02  0.24320425720E+03  0.00000000000E+00 0.  1.
         21    1    1    2  502  501 -0.23732697640E+02 -0.21293515893E+02 -0.22042883534E+02  0.38762655622E+02  0.00000000000E+00 0. -1.
<scales pt_clust_4="550.00000" pt_clust_5="550.00000" pt_clust_6="31.88504"></scales>
<mgrwt>
<rscale>  0 0.30000000E+03</rscale>
<asrwt>  1 0.31885040E+02</asrwt>
<pdfrwt beam="1">  1        1 0.89344477E+00 0.30000000E+03</pdfrwt>
<pdfrwt beam="2">0</pdfrwt>
<totfact> 0.13367232E-04</totfact>
</mgrwt>
<clustering>
<clus scale="   31.885">  1  6  2 -1</clus>
<clus scale="  480.824">  4  5 -1 -1</clus>
<clus scale="  300.000">  1  4  2 -1</clus>
</clustering>
</event>
<event>
 6    1  0.1000035E-011  0.3000000E+03  0.7818608E-02  0.1093470E+00
          1   -1    0    0  502    0  0.00000000000E+00  0.00000000000E+00  0.23600644132E+03  0.23600644132E+03  0.00000000000E+00 0.  1.
         13   -1    0    0    0    0 -0.00000000000E+00 -0.00000000000E+00 -0.27500000000E+03  0.27500000000E+03  0.00000000000E+00 0.  1.
    9000005    2    1    2  501    0  0.15547371822E+02  0.37713136669E+02 -0.64251384097E+02  0.46302770444E+03  0.45673013177E+03 0.  0.
         13    1    3    3    0    0  0.20579053847E+03  0.31424198309E+02 -0.14764089578E+03  0.25521571282E+03  0.00000000000E+00 0.  1.
          1    1    3    3  501    0 -0.19024316665E+03  0.62889383601E+01  0.83389511685E+02  0.20781199162E+03  0.00000000000E+00 0.  1.
         21    1    1    2  502  501 -0.15547371822E+02 -0.37713136669E+02  0.25257825418E+02  0.47978736883E+02  0.00000000000E+00 0. -1.
<scales pt_clust_4="550.00000" pt_clust_5="550.00000" pt_clust_6="40.79217"></scales>
<mgrwt>
<rscale>  0 0.30000000E+03</rscale>
<asrwt>  1 0.40792174E+02</asrwt>
<pdfrwt beam="1">  1        1 0.85820524E+00 0.30000000E+03</pdfrwt>
<pdfrwt beam="2">0</pdfrwt>
<totfact> 0.32849725E-04</totfact>
</mgrwt>
<clustering>
<clus scale="   40.792">  1  6  2 -1</clus>
<clus scale="  456.730">  4  5 -1 -1</clus>
<clus scale="  300.000">  1  4  2 -1</clus>
</clustering>
</event>
<event>
 6    1  0.1000035E-011  0.3000000E+03  0.7818608E-02  0.1093470E+00
          1   -1    0    0  502    0  0.00000000000E+00  0.00000000000E+00  0.24686221915E+03  0.24686221915E+03  0.00000000000E+00 0.  1.
         13   -1    0    0    0    0 -0.00000000000E+00 -0.00000000000E+00 -0.27500000000E+03  0.27500000000E+03  0.00000000000E+00 0.  1.
    9000005    2    1    2  501    0 -0.27784967762E+02  0.14235491954E+02 -0.11644350676E+02  0.48655376544E+03  0.48541149769E+03 0.  0.
         13    1    3    3    0    0  0.58664934045E+02  0.97465185427E+02  0.20753781287E+03  0.23667061632E+03  0.00000000000E+00 0.  1.
          1    1    3    3  501    0 -0.86449901807E+02 -0.83229693472E+02 -0.21918216355E+03  0.24988314912E+03  0.00000000000E+00 0.  1.
         21    1    1    2  502  501  0.27784967762E+02 -0.14235491954E+02 -0.16493430175E+02  0.35308453713E+02  0.00000000000E+00 0.  1.
<scales pt_clust_4="550.00000" pt_clust_5="550.00000" pt_clust_6="31.21946"></scales>
<mgrwt>
<rscale>  0 0.30000000E+03</rscale>
<asrwt>  1 0.31219459E+02</asrwt>
<pdfrwt beam="1">  1        1 0.89768080E+00 0.30000000E+03</pdfrwt>
<pdfrwt beam="2">0</pdfrwt>
<totfact> 0.12024130E-04</totfact>
</mgrwt>
<clustering>
<clus scale="   31.219">  1  6  2 -1</clus>
<clus scale="  485.411">  4  5 -1 -1</clus>
<clus scale="  300.000">  1  4  2 -1</clus>
</clustering>
</event>
<event>
 6    1  0.1000035E-011  0.3000000E+03  0.7818608E-02  0.1093470E+00
          1   -1    0    0  502    0  0.00000000000E+00  0.00000000000E+00  0.24834466928E+03  0.24834466928E+03  0.00000000000E+00 0.  1.
         13   -1    0    0    0    0 -0.00000000000E+00 -0.00000000000E+00 -0.27500000000E+03  0.27500000000E+03  0.00000000000E+00 0.  1.
    9000005    2    1    2  501    0 -0.35065679576E+02 -0.11476153425E+02 -0.43108274499E+02  0.48294660818E+03  0.47960170875E+03 0.  0.
         13    1    3    3    0    0  0.17258067721E+03 -0.89112590535E+02  0.10062011658E+03  0.21874540406E+03  0.00000000000E+00 0.  1.
          3    1    3    3  501    0 -0.20764635678E+03  0.77636437110E+02 -0.14372839108E+03  0.26420120412E+03  0.00000000000E+00 0.  1.
         21    1    1    2  502  501  0.35065679576E+02  0.11476153425E+02  0.16452943776E+02  0.40398061098E+02  0.00000000000E+00 0.  1.
<scales pt_clust_4="550.00000" pt_clust_5="550.00000" pt_clust_6="36.89585"></scales>
<mgrwt>
<rscale>  0 0.30000000E+03</rscale>
<asrwt>  1 0.36895853E+02</asrwt>
<pdfrwt beam="1">  1        1 0.90307152E+00 0.30000000E+03</pdfrwt>
<pdfrwt beam="2">0</pdfrwt>
<totfact> 0.98971899E-05</totfact>
</mgrwt>
<clustering>
<clus scale="   36.896">  1  6  2 -1</clus>
<clus scale="  479.602">  4  5 -1 -1</clus>
<clus scale="  300.000">  1  4  2 -1</clus>
</clustering>
</event>
<event>
 6    1  0.1000035E-011  0.3000000E+03  0.7818608E-02  0.1093470E+00
          1   -1    0    0  502    0  0.00000000000E+00  0.00000000000E+00  0.23114702907E+03  0.23114702907E+03  0.00000000000E+00 0.  1.
         13   -1    0    0    0    0 -0.00000000000E+00 -0.00000000000E+00 -0.27500000000E+03  0.27500000000E+03  0.00000000000E+00 0.  1.
    9000005    2    1    2  501    0  0.25994192586E+02  0.30906793996E+02 -0.38456899345E+02  0.46540337248E+03  0.46205025489E+03 0.  0.
         13    1    3    3    0    0 -0.10146614022E+03 -0.19535829459E+02 -0.21697740567E+03  0.24032523965E+03  0.00000000000E+00 0.  1.
          1    1    3    3  501    0  0.12746033280E+03  0.50442623455E+02  0.17852050632E+03  0.22507813283E+03  0.00000000000E+00 0.  1.
         21    1    1    2  502  501 -0.25994192586E+02 -0.30906793996E+02 -0.53960715889E+01  0.40743656585E+02  0.00000000000E+00 0.  1.
<scales pt_clust_4="550.00000" pt_clust_5="550.00000" pt_clust_6="40.38477"></scales>
<mgrwt>
<rscale>  0 0.30000000E+03</rscale>
<asrwt>  1 0.40384769E+02</asrwt>
<pdfrwt beam="1">  1        1 0.84053465E+00 0.30000000E+03</pdfrwt>
<pdfrwt beam="2">0</pdfrwt>
<totfact> 0.47949499E-04</totfact>
</mgrwt>
<clustering>
<clus scale="   40.385">  1  6  2 -1</clus>
<clus scale="  462.050">  4  5 -1 -1</clus>
<clus scale="  300.000">  1  4  2 -1</clus>
</clustering>
</event>
<event>
 6    1  0.1000035E-011  0.3000000E+03  0.7818608E-02  0.1093470E+00
          1   -1    0    0  502    0  0.00000000000E+00  0.00000000000E+00  0.24113834547E+03  0.24113834547E+03  0.00000000000E+00 0.  1.
         13   -1    0    0    0    0 -0.00000000000E+00 -0.00000000000E+00 -0.27500000000E+03  0.27500000000E+03  0.00000000000E+00 0.  1.
    9000005    2    1    2  501    0  0.20789904823E+02  0.29266843200E+02 -0.58335582752E+02  0.47269019918E+03  0.46770098988E+03 0.  0.
         13    1    3    3    0    0  0.13092176515E+03  0.21044700237E+03 -0.77801113232E+02  0.25977194347E+03  0.00000000000E+00 0.  1.
          1    1    3    3  501    0 -0.11013186033E+03 -0.18118015917E+03  0.19465530480E+02  0.21291825571E+03  0.00000000000E+00 0.  1.
         21    1    1    2  502  501 -0.20789904823E+02 -0.29266843200E+02  0.24473928220E+02  0.43448146289E+02  0.00000000000E+00 0. -1.
<scales pt_clust_4="550.00000" pt_clust_5="550.00000" pt_clust_6="35.89942"></scales>
<mgrwt>
<rscale>  0 0.30000000E+03</rscale>
<asrwt>  1 0.35899419E+02</asrwt>
<pdfrwt beam="1">  1        1 0.87686671E+00 0.30000000E+03</pdfrwt>
<pdfrwt beam="2">0</pdfrwt>
<totfact> 0.21370652E-04</totfact>
</mgrwt>
<clustering>
<clus scale="   35.899">  1  6  2 -1</clus>
<clus scale="  467.701">  4  5 -1 -1</clus>
<clus scale="  300.000">  1  4  2 -1</clus>
</clustering>
</event>
<event>
 6    1  0.1000035E-011  0.3000000E+03  0.7818608E-02  0.1093470E+00
          1   -1    0    0  502    0  0.00000000000E+00  0.00000000000E+00  0.24113797586E+03  0.24113797586E+03  0.00000000000E+00 0.  1.
         13   -1    0    0    0    0 -0.00000000000E+00 -0.00000000000E+00 -0.27500000000E+03  0.27500000000E+03  0.00000000000E+00 0.  1.
    9000005    2    1    2  501    0 -0.12737185048E+02  0.33801947584E+02 -0.58596622647E+02  0.47235889516E+03  0.46731633195E+03 0.  0.
         13    1    3    3    0    0 -0.35041974230E+02 -0.10177270264E+03 -0.22925444285E+03  0.25326512300E+03  0.00000000000E+00 0.  1.
          1    1    3    3  501    0  0.22304789182E+02  0.13557465023E+03  0.17065782020E+03  0.21909377216E+03  0.00000000000E+00 0.  1.
         21    1    1    2  502  501  0.12737185048E+02 -0.33801947584E+02  0.24734598504E+02  0.43779080696E+02  0.00000000000E+00 0. -1.
<scales pt_clust_4="550.00000" pt_clust_5="550.00000" pt_clust_6="36.12212"></scales>
<mgrwt>
<rscale>  0 0.30000000E+03</rscale>
<asrwt>  1 0.36122120E+02</asrwt>
<pdfrwt beam="1">  1        1 0.87686537E+00 0.30000000E+03</pdfrwt>
<pdfrwt beam="2">0</pdfrwt>
<totfact> 0.21346800E-04</totfact>
</mgrwt>
<clustering>
<clus scale="   36.122">  1  6  2 -1</clus>
<clus scale="  467.316">  4  5 -1 -1</clus>
<clus scale="  300.000">  1  4  2 -1</clus>
</clustering>
</event>
<event>
 6    1  0.1000035E-011  0.3000000E+03  0.7818608E-02  0.1093470E+00
          1   -1    0    0  502    0  0.00000000000E+00  0.00000000000E+00  0.24373447957E+03  0.24373447957E+03  0.00000000000E+00 0.  1.
         13   -1    0    0    0    0 -0.00000000000E+00 -0.00000000000E+00 -0.27500000000E+03  0.27500000000E+03  0.00000000000E+00 0.  1.
    9000005    2    1    2  501    0 -0.29618440924E+02  0.24527801519E+02 -0.44888218480E+02  0.47793689395E+03  0.47426770642E+03 0.  0.
         13    1    3    3    0    0 -0.41085757854E+02 -0.16771241423E+03 -0.17474437948E+03  0.24566459156E+03  0.00000000000E+00 0.  1.
          1    1    3    3  501    0  0.11467316929E+02  0.19224021575E+03  0.12985616100E+03  0.23227230239E+03  0.00000000000E+00 0.  1.
         21    1    1    2  502  501  0.29618440924E+02 -0.24527801519E+02  0.13622698050E+02  0.40797585619E+02  0.00000000000E+00 0. -1.
<scales pt_clust_4="550.00000" pt_clust_5="550.00000" pt_clust_6="38.45602"></scales>
<mgrwt>
<rscale>  0 0.30000000E+03</rscale>
<asrwt>  1 0.38456015E+02</asrwt>
<pdfrwt beam="1">  1        1 0.88630720E+00 0.30000000E+03</pdfrwt>
<pdfrwt beam="2">0</pdfrwt>
<totfact> 0.16000180E-04</totfact>
</mgrwt>
<clustering>
<clus scale="   38.456">  1  6  2 -1</clus>
<clus scale="  474.268">  4  5 -1 -1</clus>
<clus scale="  300.000">  1  4  2 -1</clus>
</clustering>
</event>
<event>
 6    1  0.1000035E-011  0.3000000E+03  0.7818608E-02  0.1093470E+00
          1   -1    0    0  502    0  0.00000000000E+00  0.00000000000E+00  0.22722537501E+03  0.22722537501E+03  0.00000000000E+00 0.  1.
         13   -1    0    0    0    0 -0.00000000000E+00 -0.00000000000E+00 -0.27500000000E+03  0.27500000000E+03  0.00000000000E+00 0.  1.
    9000005    2    1    2  501    0 -0.18446591922E+01  0.33331383832E+02 -0.56832464519E+02  0.46763594928E+03  0.46296767502E+03 0.  0.
         13    1    3    3    0    0  0.11897877190E+03  0.61693666048E+02  0.16552972094E+03  0.21298390810E+03  0.00000000000E+00 0.  1.
          3    1    3    3  501    0 -0.12082343109E+03 -0.28362282216E+02 -0.22236218546E+03  0.25465204118E+03  0.00000000000E+00 0.  1.
         21    1    1    2  502  501  0.18446591922E+01 -0.33331383832E+02  0.90578395295E+01  0.34589425734E+02  0.00000000000E+00 0.  1.
<scales pt_clust_4="550.00000" pt_clust_5="550.00000" pt_clust_6="33.38239"></scales>
<mgrwt>
<rscale>  0 0.30000000E+03</rscale>
<asrwt>  1 0.33382389E+02</asrwt>
<pdfrwt beam="1">  1        1 0.82627409E+00 0.30000000E+03</pdfrwt>
<pdfrwt beam="2">0</pdfrwt>
<totfact> 0.64202487E-04</totfact>
</mgrwt>
<clustering>
<clus scale="   33.382">  1  6  2 -1</clus>
<clus scale="  462.968">  4  5 -1 -1</clus>
<clus scale="  300.000">  1  4  2 -1</clus>
</clustering>
</event>
<event>
 6    1  0.1000035E-011  0.3000000E+03  0.7818608E-02  0.1093470E+00
          1   -1    0    0  502    0  0.00000000000E+00  0.00000000000E+00  0.23782774037E+03  0.23782774037E+03  0.00000000000E+00 0.  1.
         13   -1    0    0    0    0 -0.00000000000E+00 -0.00000000000E+00 -0.27500000000E+03  0.27500000000E+03  0.00000000000E+00 0.  1.
    9000005    2    1    2  501    0 -0.29830341372E+02 -0.18175234990E+02 -0.60033992455E+02  0.47108031816E+03  0.46593175195E+03 0.  0.
         13    1    3    3    0    0 -0.18671319227E+03 -0.85144299165E+02  0.10777982424E+03  0.23179270558E+03  0.00000000000E+00 0.  1.
          1    1    3    3  501    0  0.15688285089E+03  0.66969064175E+02 -0.16781381669E+03  0.23928761258E+03  0.00000000000E+00 0.  1.
         21    1    1    2  502  501  0.29830341372E+02  0.18175234990E+02  0.22861732821E+02  0.41747422207E+02  0.00000000000E+00 0.  1.
<scales pt_clust_4="550.00000" pt_clust_5="550.00000" pt_clust_6="34.93120"></scales>
<mgrwt>
<rscale>  0 0.30000000E+03</rscale>
<asrwt>  1 0.34931196E+02</asrwt>
<pdfrwt beam="1">  1        1 0.86482815E+00 0.30000000E+03</pdfrwt>
<pdfrwt beam="2">0</pdfrwt>
<totfact> 0.28702715E-04</totfact>
</mgrwt>
<clustering>
<clus scale="   34.931">  1  6  2 -1</clus>
<clus scale="  465.932">  4  5 -1 -1</clus>
<clus scale="  300.000">  1  4  2 -1</clus>
</clustering>
</event>
<event>
 6    1  0.1000035E-011  0.3000000E+03  0.7818608E-02  0.1093470E+00
          1   -1    0    0  502    0  0.00000000000E+00  0.00000000000E+00  0.23943637441E+03  0.23943637441E+03  0.00000000000E+00 0.  1.
         13   -1    0    0    0    0 -0.00000000000E+00 -0.00000000000E+00 -0.27500000000E+03  0.27500000000E+03  0.00000000000E+00 0.  1.
    9000005    2    1    2  501    0 -0.27929030420E+02 -0.11590276260E+02 -0.52314090434E+02  0.47986842225E+03  0.47604891909E+03 0.  0.
         13    1    3    3    0    0 -0.84452508747E+02  0.20296651891E+03 -0.11662960054E+03  0.24885758529E+03  0.00000000000E+00 0.  1.
          1    1    3    3  501    0  0.56523478327E+02 -0.21455679517E+03  0.64315510110E+02  0.23101083696E+03  0.00000000000E+00 0.  1.
         21    1    1    2  502  501  0.27929030420E+02  0.11590276260E+02  0.16750464841E+02  0.34567952157E+02  0.00000000000E+00 0.  1.
<scales pt_clust_4="550.00000" pt_clust_5="550.00000" pt_clust_6="30.23847"></scales>
<mgrwt>
<rscale>  0 0.30000000E+03</rscale>
<asrwt>  1 0.30238473E+02</asrwt>
<pdfrwt beam="1">  1        1 0.87067773E+00 0.30000000E+03</pdfrwt>
<pdfrwt beam="2">0</pdfrwt>
<totfact> 0.25625429E-04</totfact>
</mgrwt>
<clustering>
<clus scale="   30.238">  1  6  2 -1</clus>
<clus scale="  476.049">  4  5 -1 -1</clus>
<clus scale="  300.000">  1  4  2 -1</clus>
</clustering>
</event>
<event>
 6    1  0.1000035E-011  0.3000000E+03  0.7818608E-02  0.1093470E+00
          1   -1    0    0  502    0  0.00000000000E+00  0.00000000000E+00  0.24564789261E+03  0.24564789261E+03  0.00000000000E+00 0.  1.
         13   -1    0    0    0    0 -0.00000000000E+00 -0.00000000000E+00 -0.27500000000E+03  0.27500000000E+03  0.00000000000E+00 0.  1.
    9000005    2    1    2  501    0  0.44941630124E+02  0.21092024685E+01 -0.46205937558E+02  0.47260363755E+03  0.46818266809E+03 0.  0.
         13    1    3    3    0    0  0.62270929294E+02 -0.21790985647E+03  0.49614131506E+02  0.23199986255E+03  0.00000000000E+00 0.  1.
          1    1    3    3  501    0 -0.17329299170E+02  0.22001905893E+03 -0.95820069065E+02  0.24060377499E+03  0.00000000000E+00 0.  1.
         21    1    1    2  502  501 -0.44941630124E+02 -0.21092024685E+01  0.16853830167E+02  0.48044255063E+02  0.00000000000E+00 0.  1.
<scales pt_clust_4="550.00000" pt_clust_5="550.00000" pt_clust_6="44.99110"></scales>
<mgrwt>
<rscale>  0 0.30000000E+03</rscale>
<asrwt>  1 0.44991097E+02</asrwt>
<pdfrwt beam="1">  1        1 0.89326506E+00 0.30000000E+03</pdfrwt>
<pdfrwt beam="2">0</pdfrwt>
<totfact> 0.12605610E-04</totfact>
</mgrwt>
<clustering>
<clus scale="   44.991">  1  6  2 -1</clus>
<clus scale="  468.183">  4  5 -1 -1</clus>
<clus scale="  300.000">  1  4  2 -1</clus>
</clustering>
</event>
<event>
 6    1  0.1000035E-011  0.3000000E+03  0.7818608E-02  0.1093470E+00
          1   -1    0    0  502    0  0.00000000000E+00  0.00000000000E+00  0.24556416759E+03  0.24556416759E+03  0.00000000000E+00 0.  1.
         13   -1    0    0    0    0 -0.00000000000E+00 -0.00000000000E+00 -0.27500000000E+03  0.27500000000E+03  0.00000000000E+00 0.  1.
    9000005    2    1    2  501    0  0.41517784107E+02  0.11094848273E+02 -0.62591708333E+02  0.46628586471E+03  0.46006299962E+03 0.  0.
         13    1    3    3    0    0 -0.19752696326E+03  0.21761963989E+02 -0.10265805467E+03  0.22367199307E+03  0.00000000000E+00 0.  1.
          1    1    3    3  501    0  0.23904474737E+03 -0.10667115716E+02  0.40066346342E+02  0.24261387164E+03  0.00000000000E+00 0.  1.
         21    1    1    2  502  501 -0.41517784107E+02 -0.11094848273E+02  0.33155875918E+02  0.54278302877E+02  0.00000000000E+00 0.  1.
<scales pt_clust_4="550.00000" pt_clust_5="550.00000" pt_clust_6="42.97467"></scales>
<mgrwt>
<rscale>  0 0.30000000E+03</rscale>
<asrwt>  1 0.42974668E+02</asrwt>
<pdfrwt beam="1">  1        1 0.89296061E+00 0.30000000E+03</pdfrwt>
<pdfrwt beam="2">0</pdfrwt>
<totfact> 0.12814813E-04</totfact>
</mgrwt>
<clustering>
<clus scale="   42.975">  1  6  2 -1</clus>
<clus scale="  460.063">  4  5 -1 -1</clus>
<clus scale="  300.000">  1  4  2 -1</clus>
</clustering>
</event>
<event>
 6    1  0.1000035E-011  0.3000000E+03  0.7818608E-02  0.1093470E+00
          1   -1    0    0  502    0  0.00000000000E+00  0.00000000000E+00  0.25614212831E+03  0.25614212831E+03  0.00000000000E+00 0.  1.
         13   -1    0    0    0    0 -0.00000000000E+00 -0.00000000000E+00 -0.27500000000E+03  0.27500000000E+03  0.00000000000E+00 0.  1.
    9000005    2    1    2  501    0 -0.90107108769E+01 -0.31400688282E+02 -0.52190017974E+02  0.48447063690E+03  0.48054219784E+03 0.  0.
         13    1    3    3    0    0  0.54549228593E+02  0.22289795705E+02 -0.25686144300E+03  0.26353416141E+03  0.00000000000E+00 0.  1.
          1    1    3    3  501    0 -0.63559939470E+02 -0.53690483987E+02  0.20467142502E+03  0.22093647548E+03  0.00000000000E+00 0.  1.
         21    1    1    2  502  501  0.90107108769E+01  0.31400688282E+02  0.33332146288E+02  0.46671491419E+02  0.00000000000E+00 0.  1.
<scales pt_clust_4="550.00000" pt_clust_5="550.00000" pt_clust_6="32.66797"></scales>
<mgrwt>
<rscale>  0 0.30000000E+03</rscale>
<asrwt>  1 0.32667968E+02</asrwt>
<pdfrwt beam="1">  1        1 0.93142592E+00 0.30000000E+03</pdfrwt>
<pdfrwt beam="2">0</pdfrwt>
<totfact> 0.25355848E-05</totfact>
</mgrwt>
<clustering>
<clus scale="   32.668">  1  6  2 -1</clus>
<clus scale="  480.542">  4  5 -1 -1</clus>
<clus scale="  300.000">  1  4  2 -1</clus>
</clustering>
</event>
<event>
 6    1  0.1000035E-011  0.3000000E+03  0.7818608E-02  0.1093470E+00
          1   -1    0    0  502    0  0.00000000000E+00  0.00000000000E+00  0.25918909786E+03  0.25918909786E+03  0.00000000000E+00 0.  1.
         13   -1    0    0    0    0 -0.00000000000E+00 -0.00000000000E+00 -0.27500000000E+03  0.27500000000E+03  0.00000000000E+00 0.  1.
    9000005    2    1    2  501    0  0.13601403791E+02 -0.30988421742E+02 -0.28423639905E+02  0.49807315095E+03  0.49610853644E+03 0.  0.
         13    1    3    3    0    0 -0.97089970485E+02 -0.96831482592E+02 -0.22474594800E+03  0.26327464658E+03  0.00000000000E+00 0.  1.
          3    1    3    3  501    0  0.11069137428E+03  0.65843060851E+02  0.19632230809E+03  0.23479850437E+03  0.00000000000E+00 0.  1.
         21    1    1    2  502  501 -0.13601403791E+02  0.30988421742E+02  0.12612737764E+02  0.36115946908E+02  0.00000000000E+00 0.  1.
<scales pt_clust_4="550.00000" pt_clust_5="550.00000" pt_clust_6="33.84199"></scales>
<mgrwt>
<rscale>  0 0.30000000E+03</rscale>
<asrwt>  1 0.33841993E+02</asrwt>
<pdfrwt beam="1">  1        1 0.94250581E+00 0.30000000E+03</pdfrwt>
<pdfrwt beam="2">0</pdfrwt>
<totfact> 0.17424926E-05</totfact>
</mgrwt>
<clustering>
<clus scale="   33.842">  1  6  2 -1</clus>
<clus scale="  496.109">  4  5 -1 -1</clus>
<clus scale="  300.000">  1  4  2 -1</clus>
</clustering>
</event>
<event>
 6    1  0.1000035E-011  0.3000000E+03  0.7818608E-02  0.1093470E+00
          1   -1    0    0  502    0  0.00000000000E+00  0.00000000000E+00  0.23677449931E+03  0.23677449931E+03  0.00000000000E+00 0.  1.
         13   -1    0    0    0    0 -0.00000000000E+00 -0.00000000000E+00 -0.27500000000E+03  0.27500000000E+03  0.00000000000E+00 0.  1.
    9000005    2    1    2  501    0  0.19581960536E+02  0.30581755593E+02 -0.44185599146E+02  0.47497477476E+03  0.47151879340E+03 0.  0.
         13    1    3    3    0    0 -0.21734571065E+03 -0.42372576229E+02  0.82232608217E+01  0.22159019648E+03  0.00000000000E+00 0.  1.
          3    1    3    3  501    0  0.23692767119E+03  0.72954331821E+02 -0.52408859968E+02  0.25338457828E+03  0.00000000000E+00 0.  1.
         21    1    1    2  502  501 -0.19581960536E+02 -0.30581755593E+02  0.59600984532E+01  0.36799724552E+02  0.00000000000E+00 0. -1.
<scales pt_clust_4="550.00000" pt_clust_5="550.00000" pt_clust_6="36.31387"></scales>
<mgrwt>
<rscale>  0 0.30000000E+03</rscale>
<asrwt>  1 0.36313867E+02</asrwt>
<pdfrwt beam="1">  1        1 0.86099818E+00 0.30000000E+03</pdfrwt>
<pdfrwt beam="2">0</pdfrwt>
<totfact> 0.31343694E-04</totfact>
</mgrwt>
<clustering>
<clus scale="   36.314">  1  6  2 -1</clus>
<clus scale="  471.519">  4  5 -1 -1</clus>
<clus scale="  300.000">  1  4  2 -1</clus>
</clustering>
</event>
<event>
 6    1  0.1000035E-011  0.3000000E+03  0.7818608E-02  0.1093470E+00
          1   -1    0    0  502    0  0.00000000000E+00  0.00000000000E+00  0.22505713861E+03  0.22505713861E+03  0.00000000000E+00 0.  1.
         13   -1    0    0    0    0 -0.00000000000E+00 -0.00000000000E+00 -0.27500000000E+03  0.27500000000E+03  0.00000000000E+00 0.  1.
    9000005    2    1    2  501    0 -0.12461572341E+02  0.32547432722E+02 -0.36377449983E+02  0.46265865537E+03  0.45990769330E+03 0.  0.
         13    1    3    3    0    0 -0.24281440964E+02 -0.16493989652E+03  0.12416541399E+03  0.20787450029E+03  0.00000000000E+00 0.  1.
          1    1    3    3  501    0  0.11819868623E+02  0.19748732924E+03 -0.16054286398E+03  0.25478415508E+03  0.00000000000E+00 0.  1.
         21    1    1    2  502  501  0.12461572341E+02 -0.32547432722E+02 -0.13565411406E+02  0.37398483239E+02  0.00000000000E+00 0. -1.
<scales pt_clust_4="550.00000" pt_clust_5="550.00000" pt_clust_6="34.85150"></scales>
<mgrwt>
<rscale>  0 0.30000000E+03</rscale>
<asrwt>  1 0.34851505E+02</asrwt>
<pdfrwt beam="1">  1        1 0.81838959E+00 0.30000000E+03</pdfrwt>
<pdfrwt beam="2">0</pdfrwt>
<totfact> 0.74717271E-04</totfact>
</mgrwt>
<clustering>
<clus scale="   34.852">  1  6  2 -1</clus>
<clus scale="  459.908">  4  5 -1 -1</clus>
<clus scale="  300.000">  1  4  2 -1</clus>
</clustering>
</event>
<event>
 6    1  0.1000035E-011  0.3000000E+03  0.7818608E-02  0.1093470E+00
          1   -1    0    0  502    0  0.00000000000E+00  0.00000000000E+00  0.24799227765E+03  0.24799227765E+03  0.00000000000E+00 0.  1.
         13   -1    0    0    0    0 -0.00000000000E+00 -0.00000000000E+00 -0.27500000000E+03  0.27500000000E+03  0.00000000000E+00 0.  1.
    9000005    2    1    2  501    0 -0.14535384983E+02 -0.41729756116E+02 -0.30889266304E+02  0.47863332878E+03  0.47558707581E+03 0.  0.
         13    1    3    3    0    0  0.10489999355E+03  0.12895296286E+03  0.13354917746E+03  0.21323287288E+03  0.00000000000E+00 0.  1.
          1    1    3    3  501    0 -0.11943537853E+03 -0.17068271898E+03 -0.16443844376E+03  0.26540045590E+03  0.00000000000E+00 0.  1.
         21    1    1    2  502  501  0.14535384983E+02  0.41729756116E+02  0.38815439585E+01  0.44358948879E+02  0.00000000000E+00 0.  1.
<scales pt_clust_4="550.00000" pt_clust_5="550.00000" pt_clust_6="44.18880"></scales>
<mgrwt>
<rscale>  0 0.30000000E+03</rscale>
<asrwt>  1 0.44188799E+02</asrwt>
<pdfrwt beam="1">  1        1 0.90179010E+00 0.30000000E+03</pdfrwt>
<pdfrwt beam="2">0</pdfrwt>
<totfact> 0.10015613E-04</totfact>
</mgrwt>
<clustering>
<clus scale="   44.189">  1  6  2 -1</clus>
<clus scale="  475.587">  4  5 -1 -1</clus>
<clus scale="  300.000">  1  4  2 -1</clus>
</clustering>
</event>
<event>
 6    1  0.1000035E-011  0.3000000E+03  0.7818608E-02  0.1093470E+00
          1   -1    0    0  502    0  0.00000000000E+00  0.00000000000E+00  0.24678658157E+03  0.24678658157E+03  0.00000000000E+00 0.  1.
         13   -1    0    0    0    0 -0.00000000000E+00 -0.00000000000E+00 -0.27500000000E+03  0.27500000000E+03  0.00000000000E+00 0.  1.
    9000005    2    1    2  501    0  0.10878073559E+02 -0.50710837900E+02 -0.19127988356E+02  0.46913236423E+03  0.46586411502E+03 0.  0.
         13    1    3    3    0    0  0.17485245538E+03  0.11913915184E+03 -0.78532023033E+02  0.22568738842E+03  0.00000000000E+00 0.  1.
          3    1    3    3  501    0 -0.16397438182E+03 -0.16984998974E+03  0.59404034677E+02  0.24344497580E+03  0.00000000000E+00 0.  1.
         21    1    1    2  502  501 -0.10878073559E+02  0.50710837900E+02 -0.90854300705E+01  0.52654217347E+02  0.00000000000E+00 0.  1.
<scales pt_clust_4="550.00000" pt_clust_5="550.00000" pt_clust_6="51.86448"></scales>
<mgrwt>
<rscale>  0 0.30000000E+03</rscale>
<asrwt>  1 0.51864480E+02</asrwt>
<pdfrwt beam="1">  1        1 0.89740575E+00 0.30000000E+03</pdfrwt>
<pdfrwt beam="2">0</pdfrwt>
<totfact> 0.11039794E-04</totfact>
</mgrwt>
<clustering>
<clus scale="   51.864">  1  6  2 -1</clus>
<clus scale="  465.864">  4  5 -1 -1</clus>
<clus scale="  300.000">  1  4  2 -1</clus>
</clustering>
</event>
<event>
 6    1  0.1000035E-011  0.3000000E+03  0.7818608E-02  0.1093470E+00
          1   -1    0    0  502    0  0.00000000000E+00  0.00000000000E+00  0.24972330199E+03  0.24972330199E+03  0.00000000000E+00 0.  1.
         13   -1    0    0    0    0 -0.00000000000E+00 -0.00000000000E+00 -0.27500000000E+03  0.27500000000E+03  0.00000000000E+00 0.  1.
    9000005    2    1    2  501    0  0.22391924138E+02 -0.22700764881E+02 -0.21792402880E+02  0.49264740285E+03  0.49113117568E+03 0.  0.
         13    1    3    3    0    0  0.83819044521E+02  0.20672957527E+03  0.76177522089E+02  0.23572391561E+03  0.00000000000E+00 0.  1.
          1    1    3    3  501    0 -0.61427120384E+02 -0.22943034015E+03 -0.97969924969E+02  0.25692348725E+03  0.00000000000E+00 0.  1.
         21    1    1    2  502  501 -0.22391924138E+02  0.22700764881E+02 -0.34842951301E+01  0.32075899135E+02  0.00000000000E+00 0.  1.
<scales pt_clust_4="550.00000" pt_clust_5="550.00000" pt_clust_6="31.88611"></scales>
<mgrwt>
<rscale>  0 0.30000000E+03</rscale>
<asrwt>  1 0.31886110E+02</asrwt>
<pdfrwt beam="1">  1        1 0.90808473E+00 0.30000000E+03</pdfrwt>
<pdfrwt beam="2">0</pdfrwt>
<totfact> 0.81136295E-05</totfact>
</mgrwt>
<clustering>
<clus scale="   31.886">  1  6  2 -1</clus>
<clus scale="  491.131">  4  5 -1 -1</clus>
<clus scale="  300.000">  1  4  2 -1</clus>
</clustering>
</event>
<event>
 6    1  0.1000035E-011  0.3000000E+03  0.7818608E-02  0.1093470E+00
          1   -1    0    0  502    0  0.00000000000E+00  0.00000000000E+00  0.23471924116E+03  0.23471924116E+03  0.00000000000E+00 0.  1.
         13   -1    0    0    0    0 -0.00000000000E+00 -0.00000000000E+00 -0.27500000000E+03  0.27500000000E+03  0.00000000000E+00 0.  1.
    9000005    2    1    2  501    0 -0.73092004275E+01  0.46605250297E+02 -0.47878354132E+02  0.46193642814E+03  0.45702018892E+03 0.  0.
         13    1    3    3    0    0  0.19206249158E+03  0.11466009835E+03  0.50680523034E+02  0.22935442930E+03  0.00000000000E+00 0.  1.
          3    1    3    3  501    0 -0.19937169200E+03 -0.68054848055E+02 -0.98558877166E+02  0.23258199884E+03  0.00000000000E+00 0.  1.
         21    1    1    2  502  501  0.73092004275E+01 -0.46605250297E+02  0.75975952970E+01  0.47782813024E+02  0.00000000000E+00 0.  1.
<scales pt_clust_4="550.00000" pt_clust_5="550.00000" pt_clust_6="47.17493"></scales>
<mgrwt>
<rscale>  0 0.30000000E+03</rscale>
<asrwt>  1 0.47174927E+02</asrwt>
<pdfrwt beam="1">  1        1 0.85352451E+00 0.30000000E+03</pdfrwt>
<pdfrwt beam="2">0</pdfrwt>
<totfact> 0.35672413E-04</totfact>
</mgrwt>
<clustering>
<clus scale="   47.175">  1  6  2 -1</clus>
<clus scale="  457.020">  4  5 -1 -1</clus>
<clus scale="  300.000">  1  4  2 -1</clus>
</clustering>
</event>
<event>
 6    1  0.1000035E-011  0.3000000E+03  0.7818608E-02  0.1093470E+00
          1   -1    0    0  502    0  0.00000000000E+00  0.00000000000E+00  0.23355569870E+03  0.23355569870E+03  0.00000000000E+00 0.  1.
         13   -1    0    0    0    0 -0.00000000000E+00 -0.00000000000E+00 -0.27500000000E+03  0.27500000000E+03  0.00000000000E+00 0.  1.
    9000005    2    1    2  501    0 -0.38053829262E+02  0.55862446842E+01 -0.38618359179E+02  0.46999035157E+03  0.46681929357E+03 0.  0.
         13    1    3    3    0    0 -0.20362974645E+03  0.14149564539E+03  0.17403893193E+02  0.24857390612E+03  0.00000000000E+00 0.  1.
          1    1    3    3  501    0  0.16557591719E+03 -0.13590940071E+03 -0.56022252371E+02  0.22141644545E+03  0.00000000000E+00 0.  1.
         21    1    1    2  502  501  0.38053829262E+02 -0.55862446842E+01 -0.28259421164E+01  0.38565347139E+02  0.00000000000E+00 0. -1.
<scales pt_clust_4="550.00000" pt_clust_5="550.00000" pt_clust_6="38.46167"></scales>
<mgrwt>
<rscale>  0 0.30000000E+03</rscale>
<asrwt>  1 0.38461670E+02</asrwt>
<pdfrwt beam="1">  1        1 0.84929345E+00 0.30000000E+03</pdfrwt>
<pdfrwt beam="2">0</pdfrwt>
<totfact> 0.40605673E-04</totfact>
</mgrwt>
<clustering>
<clus scale="   38.462">  1  6  2 -1</clus>
<clus scale="  466.819">  4  5 -1 -1</clus>
<clus scale="  300.000">  1  4  2 -1</clus>
</clustering>
</event>
<event>
 6    1  0.1000035E-011  0.3000000E+03  0.7818608E-02  0.1093470E+00
          1   -1    0    0  502    0  0.00000000000E+00  0.00000000000E+00  0.23125968546E+03  0.23125968546E+03  0.00000000000E+00 0.  1.
         13   -1    0    0    0    0 -0.00000000000E+00 -0.00000000000E+00 -0.27500000000E+03  0.27500000000E+03  0.00000000000E+00 0.  1.
    9000005    2    1    2  501    0  0.26802369844E+02 -0.14831378856E+02 -0.66697768208E+02  0.46797938364E+03  0.46218802927E+03 0.  0.
         13    1    3    3    0    0 -0.16901327824E+03 -0.11864917053E+03 -0.12160141560E+03  0.23964560953E+03  0.00000000000E+00 0.  1.
          1    1    3    3  501    0  0.19581564809E+03  0.10381779168E+03  0.54903647390E+02  0.22833377412E+03  0.00000000000E+00 0.  1.
         21    1    1    2  502  501 -0.26802369844E+02  0.14831378856E+02  0.22957453664E+02  0.38280301811E+02  0.00000000000E+00 0.  1.
<scales pt_clust_4="550.00000" pt_clust_5="550.00000" pt_clust_6="30.63228"></scales>
<mgrwt>
<rscale>  0 0.30000000E+03</rscale>
<asrwt>  1 0.30632284E+02</asrwt>
<pdfrwt beam="1">  1        1 0.84094431E+00 0.30000000E+03</pdfrwt>
<pdfrwt beam="2">0</pdfrwt>
<totfact> 0.50118454E-04</totfact>
</mgrwt>
<clustering>
<clus scale="   30.632">  1  6  2 -1</clus>
<clus scale="  462.188">  4  5 -1 -1</clus>
<clus scale="  300.000">  1  4  2 -1</clus>
</clustering>
</event>
<event>
 6    1  0.1000035E-011  0.3000000E+03  0.7818608E-02  0.1093470E+00
          1   -1    0    0  502    0  0.00000000000E+00  0.00000000000E+00  0.23342880140E+03  0.23342880140E+03  0.00000000000E+00 0.  1.
         13   -1    0    0    0    0 -0.00000000000E+00 -0.00000000000E+00 -0.27500000000E+03  0.27500000000E+03  0.00000000000E+00 0.  1.
    9000005    2    1    2  501    0  0.26958154172E+02 -0.28804264439E+02 -0.50906809609E+02  0.46788769437E+03  0.46343388262E+03 0.  0.
         13    1    3    3    0    0  0.20792000897E+03  0.74577032502E+02 -0.11606821265E+03  0.24952814249E+03  0.00000000000E+00 0.  1.
          1    1    3    3  501    0 -0.18096185480E+03 -0.10338129694E+03  0.65161403046E+02  0.21835955188E+03  0.00000000000E+00 0.  1.
         21    1    1    2  502  501 -0.26958154172E+02  0.28804264439E+02  0.93356110136E+01  0.40541107030E+02  0.00000000000E+00 0.  1.
<scales pt_clust_4="550.00000" pt_clust_5="550.00000" pt_clust_6="39.45159"></scales>
<mgrwt>
<rscale>  0 0.30000000E+03</rscale>
<asrwt>  1 0.39451587E+02</asrwt>
<pdfrwt beam="1">  1        1 0.84883201E+00 0.30000000E+03</pdfrwt>
<pdfrwt beam="2">0</pdfrwt>
<totfact> 0.40817355E-04</totfact>
</mgrwt>
<clustering>
<clus scale="   39.452">  1  6  2 -1</clus>
<clus scale="  463.434">  4  5 -1 -1</clus>
<clus scale="  300.000">  1  4  2 -1</clus>
</clustering>
</event>
<event>
 6    1  0.1000035E-011  0.3000000E+03  0.7818608E-02  0.1093470E+00
          1   -1    0    0  502    0  0.00000000000E+00  0.00000000000E+00  0.22713926854E+03  0.22713926854E+03  0.00000000000E+00 0.  1.
         13   -1    0    0    0    0 -0.00000000000E+00 -0.00000000000E+00 -0.27500000000E+03  0.27500000000E+03  0.00000000000E+00 0.  1.
    9000005    2    1    2  501    0 -0.85355565422E+01  0.31583096626E+02 -0.49284487402E+02  0.46939213433E+03  0.46564972603E+03 0.  0.
         13    1    3    3    0    0 -0.21354619831E+03  0.96568115066E+02  0.37746396245E+02  0.23738612025E+03  0.00000000000E+00 0.  1.
          1    1    3    3  501    0  0.20501064177E+03 -0.64985018440E+02 -0.87030883647E+02  0.23200601408E+03  0.00000000000E+00 0.  1.
         21    1    1    2  502  501  0.85355565422E+01 -0.31583096626E+02  0.14237559418E+01  0.32747134210E+02  0.00000000000E+00 0.  1.
<scales pt_clust_4="550.00000" pt_clust_5="550.00000" pt_clust_6="32.71617"></scales>
<mgrwt>
<rscale>  0 0.30000000E+03</rscale>
<asrwt>  1 0.32716169E+02</asrwt>
<pdfrwt beam="1">  1        1 0.82596098E+00 0.30000000E+03</pdfrwt>
<pdfrwt beam="2">0</pdfrwt>
<totfact> 0.64861048E-04</totfact>
</mgrwt>
<clustering>
<clus scale="   32.716">  1  6  2 -1</clus>
<clus scale="  465.650">  4  5 -1 -1</clus>
<clus scale="  300.000">  1  4  2 -1</clus>
</clustering>
</event>
<event>
 6    1  0.1000035E-011  0.3000000E+03  0.7818608E-02  0.1093470E+00
          1   -1    0    0  502    0  0.00000000000E+00  0.00000000000E+00  0.23954542482E+03  0.23954542482E+03  0.00000000000E+00 0.  1.
         13   -1    0    0    0    0 -0.00000000000E+00 -0.00000000000E+00 -0.27500000000E+03  0.27500000000E+03  0.00000000000E+00 0.  1.
    9000005    2    1    2  501    0  0.50753277681E+01 -0.31905576547E+02 -0.42470711403E+02  0.48148561638E+03  0.47851950084E+03 0.  0.
         13    1    3    3    0    0 -0.84631889972E+02  0.14297866148E+03  0.13698278525E+03  0.21533633668E+03  0.00000000000E+00 0.  1.
          3    1    3    3  501    0  0.89707217740E+02 -0.17488423803E+03 -0.17945349665E+03  0.26614927970E+03  0.00000000000E+00 0.  1.
         21    1    1    2  502  501 -0.50753277681E+01  0.31905576547E+02  0.70161362233E+01  0.33059808443E+02  0.00000000000E+00 0. -1.
<scales pt_clust_4="550.00000" pt_clust_5="550.00000" pt_clust_6="32.30673"></scales>
<mgrwt>
<rscale>  0 0.30000000E+03</rscale>
<asrwt>  1 0.32306729E+02</asrwt>
<pdfrwt beam="1">  1        1 0.87107427E+00 0.30000000E+03</pdfrwt>
<pdfrwt beam="2">0</pdfrwt>
<totfact> 0.25068786E-04</totfact>
</mgrwt>
<clustering>
<clus scale="   32.307">  1  6  2 -1</clus>
<clus scale="  478.520">  4  5 -1 -1</clus>
<clus scale="  300.000">  1  4  2 -1</clus>
</clustering>
</event>
<event>
 6    1  0.1000035E-011  0.3000000E+03  0.7818608E-02  0.1093470E+00
          1   -1    0    0  502    0  0.00000000000E+00  0.00000000000E+00  0.25575152679E+03  0.25575152679E+03  0.00000000000E+00 0.  1.
         13   -1    0    0    0    0 -0.00000000000E+00 -0.00000000000E+00 -0.27500000000E+03  0.27500000000E+03  0.00000000000E+00 0.  1.
    9000005    2    1    2  501    0  0.34859085972E+02  0.54362774820E+01 -0.26055029338E+02  0.49482050685E+03  0.49287296584E+03 0.  0.
         13    1    3    3    0    0 -0.17268828752E+03 -0.29352854660E+02 -0.16661664172E+03  0.24175181492E+03  0.00000000000E+00 0.  1.
          1    1    3    3  501    0  0.20754737349E+03  0.34789132142E+02  0.14056161238E+03  0.25306869192E+03  0.00000000000E+00 0.  1.
         21    1    1    2  502  501 -0.34859085972E+02 -0.54362774820E+01  0.68065561244E+01  0.35931019940E+02  0.00000000000E+00 0. -1.
<scales pt_clust_4="550.00000" pt_clust_5="550.00000" pt_clust_6="35.28043"></scales>
<mgrwt>
<rscale>  0 0.30000000E+03</rscale>
<asrwt>  1 0.35280433E+02</asrwt>
<pdfrwt beam="1">  1        1 0.93000555E+00 0.30000000E+03</pdfrwt>
<pdfrwt beam="2">0</pdfrwt>
<totfact> 0.26247880E-05</totfact>
</mgrwt>
<clustering>
<clus scale="   35.280">  1  6  2 -1</clus>
<clus scale="  492.873">  4  5 -1 -1</clus>
<clus scale="  300.000">  1  4  2 -1</clus>
</clustering>
</event>
<event>
 6    1  0.1000035E-011  0.3000000E+03  0.7818608E-02  0.1093470E+00
          1   -1    0    0  502    0  0.00000000000E+00  0.00000000000E+00  0.23658052323E+03  0.23658052323E+03  0.00000000000E+00 0.  1.
         13   -1    0    0    0    0 -0.00000000000E+00 -0.00000000000E+00 -0.27500000000E+03  0.27500000000E+03  0.00000000000E+00 0.  1.
    9000005    2    1    2  501    0  0.48515160135E+01 -0.35897017714E+02 -0.32391341712E+02  0.47485898322E+03  0.47236608879E+03 0.  0.
         13    1    3    3    0    0  0.15272173185E+03 -0.19822105388E+03  0.13272380769E+02  0.25058266035E+03  0.00000000000E+00 0.  1.
          1    1    3    3  501    0 -0.14787021583E+03  0.16232403616E+03 -0.45663722480E+02  0.22427632286E+03  0.00000000000E+00 0.  1.
         21    1    1    2  502  501 -0.48515160135E+01  0.35897017714E+02 -0.60281350626E+01  0.36721540010E+02  0.00000000000E+00 0. -1.
<scales pt_clust_4="550.00000" pt_clust_5="550.00000" pt_clust_6="36.22340"></scales>
<mgrwt>
<rscale>  0 0.30000000E+03</rscale>
<asrwt>  1 0.36223396E+02</asrwt>
<pdfrwt beam="1">  1        1 0.86029281E+00 0.30000000E+03</pdfrwt>
<pdfrwt beam="2">0</pdfrwt>
<totfact> 0.31909174E-04</totfact>
</mgrwt>
<clustering>
<clus scale="   36.223">  1  6  2 -1</clus>
<clus scale="  472.366">  4  5 -1 -1</clus>
<clus scale="  300.000">  1  4  2 -1</clus>
</clustering>
</event>
<event>
 6    1  0.1000035E-011  0.3000000E+03  0.7818608E-02  0.1093470E+00
          1   -1    0    0  502    0  0.00000000000E+00  0.00000000000E+00  0.23437969089E+03  0.23437969089E+03  0.00000000000E+00 0.  1.
         13   -1    0    0    0    0 -0.00000000000E+00 -0.00000000000E+00 -0.27500000000E+03  0.27500000000E+03  0.00000000000E+00 0.  1.
    9000005    2    1    2  501    0  0.16041474578E+01  0.40264649163E+02 -0.58047178318E+02  0.46547626242E+03  0.46008136313E+03 0.  0.
         13    1    3    3    0    0 -0.15866811839E+03 -0.10640063362E+03  0.81037468314E+02  0.20751804234E+03  0.00000000000E+00 0.  1.
          3    1    3    3  501    0  0.16027226585E+03  0.14666528278E+03 -0.13908464663E+03  0.25795822007E+03  0.00000000000E+00 0.  1.
         21    1    1    2  502  501 -0.16041474578E+01 -0.40264649163E+02  0.17426869205E+02  0.43903428472E+02  0.00000000000E+00 0. -1.
<scales pt_clust_4="550.00000" pt_clust_5="550.00000" pt_clust_6="40.29659"></scales>
<mgrwt>
<rscale>  0 0.30000000E+03</rscale>
<asrwt>  1 0.40296591E+02</asrwt>
<pdfrwt beam="1">  1        1 0.85228979E+00 0.30000000E+03</pdfrwt>
<pdfrwt beam="2">0</pdfrwt>
<totfact> 0.37717122E-04</totfact>
</mgrwt>
<clustering>
<clus scale="   40.297">  1  6  2 -1</clus>
<clus scale="  460.081">  4  5 -1 -1</clus>
<clus scale="  300.000">  1  4  2 -1</clus>
</clustering>
</event>
<event>
 6    1  0.1000035E-011  0.3000000E+03  0.7818608E-02  0.1093470E+00
          1   -1    0    0  502    0  0.00000000000E+00  0.00000000000E+00  0.25315908276E+03  0.25315908276E+03  0.00000000000E+00 0.  1.
         13   -1    0    0    0    0 -0.00000000000E+00 -0.00000000000E+00 -0.27500000000E+03  0.27500000000E+03  0.00000000000E+00 0.  1.
    9000005    2    1    2  501    0 -0.27042034490E+02  0.16313412159E+02 -0.26965110414E+02  0.49616445194E+03  0.49442355035E+03 0.  0.
         13    1    3    3    0    0 -0.90891705392E+02  0.18844285650E+03  0.13694423856E+03  0.25005146820E+03  0.00000000000E+00 0.  1.
          3    1    3    3  501    0  0.63849670902E+02 -0.17212944434E+03 -0.16390934898E+03  0.24611298374E+03  0.00000000000E+00 0.  1.
         21    1    1    2  502  501  0.27042034490E+02 -0.16313412159E+02  0.51241931753E+01  0.31994630820E+02  0.00000000000E+00 0.  1.
<scales pt_clust_4="550.00000" pt_clust_5="550.00000" pt_clust_6="31.58163"></scales>
<mgrwt>
<rscale>  0 0.30000000E+03</rscale>
<asrwt>  1 0.31581625E+02</asrwt>
<pdfrwt beam="1">  1        1 0.92057848E+00 0.30000000E+03</pdfrwt>
<pdfrwt beam="2">0</pdfrwt>
<totfact> 0.41409399E-05</totfact>
</mgrwt>
<clustering>
<clus scale="   31.582">  1  6  2 -1</clus>
<clus scale="  494.424">  4  5 -1 -1</clus>
<clus scale="  300.000">  1  4  2 -1</clus>
</clustering>
</event>
<event>
 6    1  0.1000035E-011  0.3000000E+03  0.7818608E-02  0.1093470E+00
          1   -1    0    0  502    0  0.00000000000E+00  0.00000000000E+00  0.23053656338E+03  0.23053656338E+03  0.00000000000E+00 0.  1.
         13   -1    0    0    0    0 -0.00000000000E+00 -0.00000000000E+00 -0.27500000000E+03  0.27500000000E+03  0.00000000000E+00 0.  1.
    9000005    2    1    2  501    0  0.11691518793E+02 -0.28953238591E+02 -0.65833260473E+02  0.46769939900E+03  0.46198888299E+03 0.  0.
         13    1    3    3    0    0 -0.20423112481E+03 -0.10834388044E+03 -0.12410856387E+02  0.23152273782E+03  0.00000000000E+00 0.  1.
          3    1    3    3  501    0  0.21592264360E+03  0.79390641853E+02 -0.53422404087E+02  0.23617666119E+03  0.00000000000E+00 0.  1.
         21    1    1    2  502  501 -0.11691518793E+02  0.28953238591E+02  0.21369823858E+02  0.37837164380E+02  0.00000000000E+00 0.  1.
<scales pt_clust_4="550.00000" pt_clust_5="550.00000" pt_clust_6="31.22470"></scales>
<mgrwt>
<rscale>  0 0.30000000E+03</rscale>
<asrwt>  1 0.31224696E+02</asrwt>
<pdfrwt beam="1">  1        1 0.83831478E+00 0.30000000E+03</pdfrwt>
<pdfrwt beam="2">0</pdfrwt>
<totfact> 0.52289650E-04</totfact>
</mgrwt>
<clustering>
<clus scale="   31.225">  1  6  2 -1</clus>
<clus scale="  461.989">  4  5 -1 -1</clus>
<clus scale="  300.000">  1  4  2 -1</clus>
</clustering>
</event>
<event>
 6    1  0.1000035E-011  0.3000000E+03  0.7818608E-02  0.1093470E+00
          1   -1    0    0  502    0  0.00000000000E+00  0.00000000000E+00  0.24003634394E+03  0.24003634394E+03  0.00000000000E+00 0.  1.
         13   -1    0    0    0    0 -0.00000000000E+00 -0.00000000000E+00 -0.27500000000E+03  0.27500000000E+03  0.00000000000E+00 0.  1.
    9000005    2    1    2  501    0  0.42187990015E+02  0.11836220961E+01 -0.52350218203E+02  0.46939075263E+03  0.46454914255E+03 0.  0.
         13    1    3    3    0    0 -0.16062861583E+03 -0.12319152193E+03 -0.10150120170E+03  0.22645131319E+03  0.00000000000E+00 0.  1.
          3    1    3    3  501    0  0.20281660584E+03  0.12437514403E+03  0.49150983498E+02  0.24293943944E+03  0.00000000000E+00 0.  1.
         21    1    1    2  502  501 -0.42187990015E+02 -0.11836220961E+01  0.17386562140E+02  0.45645591308E+02  0.00000000000E+00 0.  1.
<scales pt_clust_4="550.00000" pt_clust_5="550.00000" pt_clust_6="42.20459"></scales>
<mgrwt>
<rscale>  0 0.30000000E+03</rscale>
<asrwt>  1 0.42204591E+02</asrwt>
<pdfrwt beam="1">  1        1 0.87285943E+00 0.30000000E+03</pdfrwt>
<pdfrwt beam="2">0</pdfrwt>
<totfact> 0.22875838E-04</totfact>
</mgrwt>
<clustering>
<clus scale="   42.205">  1  6  2 -1</clus>
<clus scale="  464.549">  4  5 -1 -1</clus>
<clus scale="  300.000">  1  4  2 -1</clus>
</clustering>
</event>
<event>
 6    1  0.1000035E-011  0.3000000E+03  0.7818608E-02  0.1093470E+00
          1   -1    0    0  502    0  0.00000000000E+00  0.00000000000E+00  0.22808047574E+03  0.22808047574E+03  0.00000000000E+00 0.  1.
         13   -1    0    0    0    0 -0.00000000000E+00 -0.00000000000E+00 -0.27500000000E+03  0.27500000000E+03  0.00000000000E+00 0.  1.
    9000005    2    1    2  501    0 -0.29923267628E+02 -0.52644022419E+01 -0.30276006596E+02  0.46843769068E+03  0.46646984640E+03 0.  0.
         13    1    3    3    0    0 -0.23301158521E+02  0.10529416350E+03  0.19193364286E+03  0.22015523641E+03  0.00000000000E+00 0.  1.
          1    1    3    3  501    0 -0.66221091070E+01 -0.11055856575E+03 -0.22220964946E+03  0.24828245428E+03  0.00000000000E+00 0.  1.
         21    1    1    2  502  501  0.29923267628E+02  0.52644022419E+01 -0.16643517660E+02  0.34642785059E+02  0.00000000000E+00 0. -1.
<scales pt_clust_4="550.00000" pt_clust_5="550.00000" pt_clust_6="30.38284"></scales>
<mgrwt>
<rscale>  0 0.30000000E+03</rscale>
<asrwt>  1 0.30382837E+02</asrwt>
<pdfrwt beam="1">  1        1 0.82938355E+00 0.30000000E+03</pdfrwt>
<pdfrwt beam="2">0</pdfrwt>
<totfact> 0.61429872E-04</totfact>
</mgrwt>
<clustering>
<clus scale="   30.383">  1  6  2 -1</clus>
<clus scale="  466.470">  4  5 -1 -1</clus>
<clus scale="  300.000">  1  4  2 -1</clus>
</clustering>
</event>
<event>
 6    1  0.1000035E-011  0.3000000E+03  0.7818608E-02  0.1093470E+00
          1   -1    0    0  502    0  0.00000000000E+00  0.00000000000E+00  0.22714455334E+03  0.22714455334E+03  0.00000000000E+00 0.  1.
         13   -1    0    0    0    0 -0.00000000000E+00 -0.00000000000E+00 -0.27500000000E+03  0.27500000000E+03  0.00000000000E+00 0.  1.
    9000005    2    1    2  501    0 -0.26975057377E+02  0.18446074894E+02 -0.52752376515E+02  0.46910077447E+03  0.46497829195E+03 0.  0.
         13    1    3    3    0    0  0.16416693533E+03  0.14521594987E+03  0.37986695230E+02  0.22244424867E+03  0.00000000000E+00 0.  1.
          3    1    3    3  501    0 -0.19114199271E+03 -0.12676987497E+03 -0.90739071745E+02  0.24665652580E+03  0.00000000000E+00 0.  1.
         21    1    1    2  502  501  0.26975057377E+02 -0.18446074894E+02  0.48969298504E+01  0.33043778861E+02  0.00000000000E+00 0.  1.
<scales pt_clust_4="550.00000" pt_clust_5="550.00000" pt_clust_6="32.67891"></scales>
<mgrwt>
<rscale>  0 0.30000000E+03</rscale>
<asrwt>  1 0.32678914E+02</asrwt>
<pdfrwt beam="1">  1        1 0.82598019E+00 0.30000000E+03</pdfrwt>
<pdfrwt beam="2">0</pdfrwt>
<totfact> 0.64849559E-04</totfact>
</mgrwt>
<clustering>
<clus scale="   32.679">  1  6  2 -1</clus>
<clus scale="  464.978">  4  5 -1 -1</clus>
<clus scale="  300.000">  1  4  2 -1</clus>
</clustering>
</event>
<event>
 6    1  0.1000035E-011  0.3000000E+03  0.7818608E-02  0.1093470E+00
          1   -1    0    0  502    0  0.00000000000E+00  0.00000000000E+00  0.23933237194E+03  0.23933237194E+03  0.00000000000E+00 0.  1.
         13   -1    0    0    0    0 -0.00000000000E+00 -0.00000000000E+00 -0.27500000000E+03  0.27500000000E+03  0.00000000000E+00 0.  1.
    9000005    2    1    2  501    0  0.98077644017E+01  0.30995335713E+02 -0.67762339626E+02  0.46864896588E+03  0.46258319843E+03 0.  0.
         13    1    3    3    0    0  0.68165412691E+02 -0.20136116955E+03 -0.83876651153E+02  0.22853476037E+03  0.00000000000E+00 0.  1.
          1    1    3    3  501    0 -0.58357648289E+02  0.23235650526E+03  0.16114311527E+02  0.24011420551E+03  0.00000000000E+00 0.  1.
         21    1    1    2  502  501 -0.98077644017E+01 -0.30995335713E+02  0.32094711562E+02  0.45683406055E+02  0.00000000000E+00 0.  1.
<scales pt_clust_4="550.00000" pt_clust_5="550.00000" pt_clust_6="32.51005"></scales>
<mgrwt>
<rscale>  0 0.30000000E+03</rscale>
<asrwt>  1 0.32510046E+02</asrwt>
<pdfrwt beam="1">  1        1 0.87029953E+00 0.30000000E+03</pdfrwt>
<pdfrwt beam="2">0</pdfrwt>
<totfact> 0.25499102E-04</totfact>
</mgrwt>
<clustering>
<clus scale="   32.510">  1  6  2 -1</clus>
<clus scale="  462.583">  4  5 -1 -1</clus>
<clus scale="  300.000">  1  4  2 -1</clus>
</clustering>
</event>
<event>
 6    1  0.1000035E-011  0.3000000E+03  0.7818608E-02  0.1093470E+00
          1   -1    0    0  502    0  0.00000000000E+00  0.00000000000E+00  0.26270646214E+03  0.26270646214E+03  0.00000000000E+00 0.  1.
         13   -1    0    0    0    0 -0.00000000000E+00 -0.00000000000E+00 -0.27500000000E+03  0.27500000000E+03  0.00000000000E+00 0.  1.
    9000005    2    1    2  501    0  0.26591182671E+02 -0.23604422376E+02 -0.25103412955E+02  0.49991290910E+03  0.49801453351E+03 0.  0.
         13    1    3    3    0    0 -0.16142303117E+03  0.16602332458E+03 -0.24709370715E+02  0.23287698962E+03  0.00000000000E+00 0.  1.
          1    1    3    3  501    0  0.18801421384E+03 -0.18962774695E+03 -0.39404224008E+00  0.26703591947E+03  0.00000000000E+00 0.  1.
         21    1    1    2  502  501 -0.26591182671E+02  0.23604422376E+02  0.12809875092E+02  0.37793553041E+02  0.00000000000E+00 0.  1.
<scales pt_clust_4="550.00000" pt_clust_5="550.00000" pt_clust_6="35.55643"></scales>
<mgrwt>
<rscale>  0 0.30000000E+03</rscale>
<asrwt>  1 0.35556431E+02</asrwt>
<pdfrwt beam="1">  1        1 0.95529623E+00 0.30000000E+03</pdfrwt>
<pdfrwt beam="2">0</pdfrwt>
<totfact> 0.95399349E-06</totfact>
</mgrwt>
<clustering>
<clus scale="   35.556">  1  6  2 -1</clus>
<clus scale="  498.015">  4  5 -1 -1</clus>
<clus scale="  300.000">  1  4  2 -1</clus>
</clustering>
</event>
<event>
 6    1  0.1000035E-011  0.3000000E+03  0.7818608E-02  0.1093470E+00
          1   -1    0    0  502    0  0.00000000000E+00  0.00000000000E+00  0.22591098712E+03  0.22591098712E+03  0.00000000000E+00 0.  1.
         13   -1    0    0    0    0 -0.00000000000E+00 -0.00000000000E+00 -0.27500000000E+03  0.27500000000E+03  0.00000000000E+00 0.  1.
    9000005    2    1    2  501    0  0.31743287249E+02 -0.73761027103E-01 -0.65893277713E+02  0.46499406851E+03  0.45920574689E+03 0.  0.
         13    1    3    3    0    0 -0.28581339399E+01 -0.19505297594E+03 -0.15372400632E+03  0.24836445492E+03  0.00000000000E+00 0.  1.
          3    1    3    3  501    0  0.34601421189E+02  0.19497921491E+03  0.87830728603E+02  0.21662961359E+03  0.00000000000E+00 0.  1.
         21    1    1    2  502  501 -0.31743287249E+02  0.73761027103E-01  0.16804264836E+02  0.35916918615E+02  0.00000000000E+00 0. -1.
<scales pt_clust_4="550.00000" pt_clust_5="550.00000" pt_clust_6="31.74337"></scales>
<mgrwt>
<rscale>  0 0.30000000E+03</rscale>
<asrwt>  1 0.31743373E+02</asrwt>
<pdfrwt beam="1">  1        1 0.82149450E+00 0.30000000E+03</pdfrwt>
<pdfrwt beam="2">0</pdfrwt>
<totfact> 0.71490934E-04</totfact>
</mgrwt>
<clustering>
<clus scale="   31.743">  1  6  2 -1</clus>
<clus scale="  459.206">  4  5 -1 -1</clus>
<clus scale="  300.000">  1  4  2 -1</clus>
</clustering>
</event>
<event>
 6    1  0.1000035E-011  0.3000000E+03  0.7818608E-02  0.1093470E+00
          1   -1    0    0  502    0  0.00000000000E+00  0.00000000000E+00  0.24607324904E+03  0.24607324904E+03  0.00000000000E+00 0.  1.
         13   -1    0    0    0    0 -0.00000000000E+00 -0.00000000000E+00 -0.27500000000E+03  0.27500000000E+03  0.00000000000E+00 0.  1.
    9000005    2    1    2  501    0  0.22157741371E+02  0.21965474245E+02 -0.50745210605E+02  0.48300104471E+03  0.47931355628E+03 0.  0.
         13    1    3    3    0    0 -0.22671540249E+03  0.40721102811E+02 -0.34272743455E+02  0.23287915940E+03  0.00000000000E+00 0.  1.
          3    1    3    3  501    0  0.24887314386E+03 -0.18755628567E+02 -0.16472467150E+02  0.25012188531E+03  0.00000000000E+00 0.  1.
         21    1    1    2  502  501 -0.22157741371E+02 -0.21965474245E+02  0.21818459647E+02  0.38072204333E+02  0.00000000000E+00 0.  1.
<scales pt_clust_4="550.00000" pt_clust_5="550.00000" pt_clust_6="31.20012"></scales>
<mgrwt>
<rscale>  0 0.30000000E+03</rscale>
<asrwt>  1 0.31200121E+02</asrwt>
<pdfrwt beam="1">  1        1 0.89481181E+00 0.30000000E+03</pdfrwt>
<pdfrwt beam="2">0</pdfrwt>
<totfact> 0.12949064E-04</totfact>
</mgrwt>
<clustering>
<clus scale="   31.200">  1  6  2 -1</clus>
<clus scale="  479.314">  4  5 -1 -1</clus>
<clus scale="  300.000">  1  4  2 -1</clus>
</clustering>
</event>
<event>
 6    1  0.1000035E-011  0.3000000E+03  0.7818608E-02  0.1093470E+00
          1   -1    0    0  502    0  0.00000000000E+00  0.00000000000E+00  0.23891121894E+03  0.23891121894E+03  0.00000000000E+00 0.  1.
         13   -1    0    0    0    0 -0.00000000000E+00 -0.00000000000E+00 -0.27500000000E+03  0.27500000000E+03  0.00000000000E+00 0.  1.
    9000005    2    1    2  501    0 -0.23185927475E+02 -0.28484350669E+02 -0.54892565143E+02  0.47264952045E+03  0.46801221139E+03 0.  0.
         13    1    3    3    0    0  0.25574307159E+02  0.21212373110E+03 -0.74726438283E+02  0.22635053139E+03  0.00000000000E+00 0.  1.
          1    1    3    3  501    0 -0.48760234634E+02 -0.24060808176E+03  0.19833873139E+02  0.24629898907E+03  0.00000000000E+00 0.  1.
         21    1    1    2  502  501  0.23185927475E+02  0.28484350669E+02  0.18803784080E+02  0.41261698482E+02  0.00000000000E+00 0.  1.
<scales pt_clust_4="550.00000" pt_clust_5="550.00000" pt_clust_6="36.72799"></scales>
<mgrwt>
<rscale>  0 0.30000000E+03</rscale>
<asrwt>  1 0.36727993E+02</asrwt>
<pdfrwt beam="1">  1        1 0.86876807E+00 0.30000000E+03</pdfrwt>
<pdfrwt beam="2">0</pdfrwt>
<totfact> 0.25840334E-04</totfact>
</mgrwt>
<clustering>
<clus scale="   36.728">  1  6  2 -1</clus>
<clus scale="  468.012">  4  5 -1 -1</clus>
<clus scale="  300.000">  1  4  2 -1</clus>
</clustering>
</event>
<event>
 6    1  0.1000035E-011  0.3000000E+03  0.7818608E-02  0.1093470E+00
          1   -1    0    0  502    0  0.00000000000E+00  0.00000000000E+00  0.23049195819E+03  0.23049195819E+03  0.00000000000E+00 0.  1.
         13   -1    0    0    0    0 -0.00000000000E+00 -0.00000000000E+00 -0.27500000000E+03  0.27500000000E+03  0.00000000000E+00 0.  1.
    9000005    2    1    2  501    0  0.30111111745E+02 -0.18012149135E+02 -0.41549604071E+02  0.47028018572E+03  0.46712521545E+03 0.  0.
         13    1    3    3    0    0 -0.42810174004E+02  0.21168279545E+03 -0.71357273297E+02  0.22745148349E+03  0.00000000000E+00 0.  1.
          1    1    3    3  501    0  0.72921285749E+02 -0.22969494458E+03  0.29807669226E+02  0.24282870223E+03  0.00000000000E+00 0.  1.
         21    1    1    2  502  501 -0.30111111745E+02  0.18012149135E+02 -0.29584377373E+01  0.35211772475E+02  0.00000000000E+00 0. -1.
<scales pt_clust_4="550.00000" pt_clust_5="550.00000" pt_clust_6="35.08727"></scales>
<mgrwt>
<rscale>  0 0.30000000E+03</rscale>
<asrwt>  1 0.35087271E+02</asrwt>
<pdfrwt beam="1">  1        1 0.83815258E+00 0.30000000E+03</pdfrwt>
<pdfrwt beam="2">0</pdfrwt>
<totfact> 0.51290626E-04</totfact>
</mgrwt>
<clustering>
<clus scale="   35.087">  1  6  2 -1</clus>
<clus scale="  467.125">  4  5 -1 -1</clus>
<clus scale="  300.000">  1  4  2 -1</clus>
</clustering>
</event>
<event>
 6    1  0.1000035E-011  0.3000000E+03  0.7818608E-02  0.1093470E+00
          1   -1    0    0  502    0  0.00000000000E+00  0.00000000000E+00  0.24369755097E+03  0.24369755097E+03  0.00000000000E+00 0.  1.
         13   -1    0    0    0    0 -0.00000000000E+00 -0.00000000000E+00 -0.27500000000E+03  0.27500000000E+03  0.00000000000E+00 0.  1.
    9000005    2    1    2  501    0  0.25399680447E+02  0.21399654605E+02 -0.71261030786E+02  0.46673817030E+03  0.46006879499E+03 0.  0.
         13    1    3    3    0    0 -0.49663771756E+01 -0.61797222950E+02 -0.25518146120E+03  0.26260453120E+03  0.00000000000E+00 0.  1.
          3    1    3    3  501    0  0.30366057622E+02  0.83196877555E+02  0.18392043041E+03  0.20413363910E+03  0.00000000000E+00 0.  1.
         21    1    1    2  502  501 -0.25399680447E+02 -0.21399654605E+02  0.39958581761E+02  0.51959380677E+02  0.00000000000E+00 0. -1.
<scales pt_clust_4="550.00000" pt_clust_5="550.00000" pt_clust_6="33.21278"></scales>
<mgrwt>
<rscale>  0 0.30000000E+03</rscale>
<asrwt>  1 0.33212783E+02</asrwt>
<pdfrwt beam="1">  1        1 0.88617291E+00 0.30000000E+03</pdfrwt>
<pdfrwt beam="2">0</pdfrwt>
<totfact> 0.16513567E-04</totfact>
</mgrwt>
<clustering>
<clus scale="   33.213">  1  6  2 -1</clus>
<clus scale="  460.069">  4  5 -1 -1</clus>
<clus scale="  300.000">  1  4  2 -1</clus>
</clustering>
</event>
<event>
 6    1  0.1000035E-011  0.3000000E+03  0.7818608E-02  0.1093470E+00
          1   -1    0    0  502    0  0.00000000000E+00  0.00000000000E+00  0.24141050907E+03  0.24141050907E+03  0.00000000000E+00 0.  1.
         13   -1    0    0    0    0 -0.00000000000E+00 -0.00000000000E+00 -0.27500000000E+03  0.27500000000E+03  0.00000000000E+00 0.  1.
    9000005    2    1    2  501    0  0.33224856663E+02  0.24442610917E+02 -0.38807758037E+02  0.47483452273E+03  0.47144506526E+03 0.  0.
         13    1    3    3    0    0  0.12625728812E+03 -0.67017740751E+02 -0.21342086216E+03  0.25686717343E+03  0.00000000000E+00 0.  1.
          3    1    3    3  501    0 -0.93032431453E+02  0.91460351667E+02  0.17461310412E+03  0.21796734930E+03  0.00000000000E+00 0.  1.
         21    1    1    2  502  501 -0.33224856663E+02 -0.24442610917E+02  0.52182671044E+01  0.41575986342E+02  0.00000000000E+00 0.  1.
<scales pt_clust_4="550.00000" pt_clust_5="550.00000" pt_clust_6="41.24721"></scales>
<mgrwt>
<rscale>  0 0.30000000E+03</rscale>
<asrwt>  1 0.41247210E+02</asrwt>
<pdfrwt beam="1">  1        1 0.87785640E+00 0.30000000E+03</pdfrwt>
<pdfrwt beam="2">0</pdfrwt>
<totfact> 0.20305440E-04</totfact>
</mgrwt>
<clustering>
<clus scale="   41.247">  1  6  2 -1</clus>
<clus scale="  471.445">  4  5 -1 -1</clus>
<clus scale="  300.000">  1  4  2 -1</clus>
</clustering>
</event>
<event>
 6    1  0.1000035E-011  0.3000000E+03  0.7818608E-02  0.1093470E+00
          1   -1    0    0  502    0  0.00000000000E+00  0.00000000000E+00  0.23396716587E+03  0.23396716587E+03  0.00000000000E+00 0.  1.
         13   -1    0    0    0    0 -0.00000000000E+00 -0.00000000000E+00 -0.27500000000E+03  0.27500000000E+03  0.00000000000E+00 0.  1.
    9000005    2    1    2  501    0 -0.14071611970E+02 -0.39332757149E+02 -0.55416243028E+02  0.46478619146E+03  0.45957607393E+03 0.  0.
         13    1    3    3    0    0 -0.22263234974E+03 -0.82595578610E+02  0.21248751099E+02  0.23840868730E+03  0.00000000000E+00 0.  1.
          3    1    3    3  501    0  0.20856073777E+03  0.43262821460E+02 -0.76664994127E+02  0.22637750415E+03  0.00000000000E+00 0.  1.
         21    1    1    2  502  501  0.14071611970E+02  0.39332757149E+02  0.14383408895E+02  0.44180974410E+02  0.00000000000E+00 0.  1.
<scales pt_clust_4="550.00000" pt_clust_5="550.00000" pt_clust_6="41.77411"></scales>
<mgrwt>
<rscale>  0 0.30000000E+03</rscale>
<asrwt>  1 0.41774107E+02</asrwt>
<pdfrwt beam="1">  1        1 0.85078969E+00 0.30000000E+03</pdfrwt>
<pdfrwt beam="2">0</pdfrwt>
<totfact> 0.38725691E-04</totfact>
</mgrwt>
<clustering>
<clus scale="   41.774">  1  6  2 -1</clus>
<clus scale="  459.576">  4  5 -1 -1</clus>
<clus scale="  300.000">  1  4  2 -1</clus>
</clustering>
</event>
<event>
 6    1  0.1000035E-011  0.3000000E+03  0.7818608E-02  0.1093470E+00
          1   -1    0    0  502    0  0.00000000000E+00  0.00000000000E+00  0.22789564077E+03  0.22789564077E+03  0.00000000000E+00 0.  1.
         13   -1    0    0    0    0 -0.00000000000E+00 -0.00000000000E+00 -0.27500000000E+03  0.27500000000E+03  0.00000000000E+00 0.  1.
    9000005    2    1    2  501    0  0.30378505908E+02  0.90712035656E+01 -0.57093631011E+02  0.46965521499E+03  0.46509267669E+03 0.  0.
         13    1    3    3    0    0 -0.73509703732E+02 -0.65673879031E+02 -0.23249335910E+03  0.25252702223E+03  0.00000000000E+00 0.  1.
          1    1    3    3  501    0  0.10388820964E+03  0.74745082596E+02  0.17539972809E+03  0.21712819276E+03  0.00000000000E+00 0.  1.
         21    1    1    2  502  501 -0.30378505908E+02 -0.90712035656E+01  0.99892717766E+01  0.33240425779E+02  0.00000000000E+00 0.  1.
<scales pt_clust_4="550.00000" pt_clust_5="550.00000" pt_clust_6="31.70395"></scales>
<mgrwt>
<rscale>  0 0.30000000E+03</rscale>
<asrwt>  1 0.31703949E+02</asrwt>
<pdfrwt beam="1">  1        1 0.82871142E+00 0.30000000E+03</pdfrwt>
<pdfrwt beam="2">0</pdfrwt>
<totfact> 0.61736277E-04</totfact>
</mgrwt>
<clustering>
<clus scale="   31.704">  1  6  2 -1</clus>
<clus scale="  465.093">  4  5 -1 -1</clus>
<clus scale="  300.000">  1  4  2 -1</clus>
</clustering>
</event>
<event>
 6    1  0.1000035E-011  0.3000000E+03  0.7818608E-02  0.1093470E+00
          1   -1    0    0  502    0  0.00000000000E+00  0.00000000000E+00  0.25171642848E+03  0.25171642848E+03  0.00000000000E+00 0.  1.
         13   -1    0    0    0    0 -0.00000000000E+00 -0.00000000000E+00 -0.27500000000E+03  0.27500000000E+03  0.00000000000E+00 0.  1.
    9000005    2    1    2  501    0 -0.28642826252E+02 -0.17548837043E+02 -0.36993990744E+02  0.49043490739E+03  0.48788263943E+03 0.  0.
         13    1    3    3    0    0  0.18208239282E+03  0.28619158533E+02 -0.15828168959E+03  0.24295297338E+03  0.00000000000E+00 0.  1.
          3    1    3    3  501    0 -0.21072521908E+03 -0.46167995577E+02  0.12128769885E+03  0.24748193401E+03  0.00000000000E+00 0.  1.
         21    1    1    2  502  501  0.28642826252E+02  0.17548837043E+02  0.13710419226E+02  0.36281521091E+02  0.00000000000E+00 0.  1.
<scales pt_clust_4="550.00000" pt_clust_5="550.00000" pt_clust_6="33.59127"></scales>
<mgrwt>
<rscale>  0 0.30000000E+03</rscale>
<asrwt>  1 0.33591266E+02</asrwt>
<pdfrwt beam="1">  1        1 0.91533247E+00 0.30000000E+03</pdfrwt>
<pdfrwt beam="2">0</pdfrwt>
<totfact> 0.53605665E-05</totfact>
</mgrwt>
<clustering>
<clus scale="   33.591">  1  6  2 -1</clus>
<clus scale="  487.883">  4  5 -1 -1</clus>
<clus scale="  300.000">  1  4  2 -1</clus>
</clustering>
</event>
<event>
 6    1  0.1000035E-011  0.3000000E+03  0.7818608E-02  0.1093470E+00
          1   -1    0    0  502    0  0.00000000000E+00  0.00000000000E+00  0.24302411410E+03  0.24302411410E+03  0.00000000000E+00 0.  1.
         13   -1    0    0    0    0 -0.00000000000E+00 -0.00000000000E+00 -0.27500000000E+03  0.27500000000E+03  0.00000000000E+00 0.  1.
    9000005    2    1    2  501    0 -0.14726215257E+02  0.42657888786E+02 -0.20413449429E+02  0.47143820605E+03  0.46882909073E+03 0.  0.
         13    1    3    3    0    0 -0.80531121817E+02  0.52693757458E+02  0.21032094504E+03  0.23129373874E+03  0.00000000000E+00 0.  1.
          1    1    3    3  501    0  0.65804906560E+02 -0.10035868672E+02 -0.23073439447E+03  0.24014446731E+03  0.00000000000E+00 0.  1.
         21    1    1    2  502  501  0.14726215257E+02 -0.42657888786E+02 -0.11562436475E+02  0.46585908049E+02  0.00000000000E+00 0.  1.
<scales pt_clust_4="550.00000" pt_clust_5="550.00000" pt_clust_6="45.12825"></scales>
<mgrwt>
<rscale>  0 0.30000000E+03</rscale>
<asrwt>  1 0.45128250E+02</asrwt>
<pdfrwt beam="1">  1        1 0.88372405E+00 0.30000000E+03</pdfrwt>
<pdfrwt beam="2">0</pdfrwt>
<totfact> 0.16860894E-04</totfact>
</mgrwt>
<clustering>
<clus scale="   45.128">  1  6  2 -1</clus>
<clus scale="  468.829">  4  5 -1 -1</clus>
<clus scale="  300.000">  1  4  2 -1</clus>
</clustering>
</event>
<event>
 6    1  0.1000035E-011  0.3000000E+03  0.7818608E-02  0.1093470E+00
          1   -1    0    0  502    0  0.00000000000E+00  0.00000000000E+00  0.24527544535E+03  0.24527544535E+03  0.00000000000E+00 0.  1.
         13   -1    0    0    0    0 -0.00000000000E+00 -0.00000000000E+00 -0.27500000000E+03  0.27500000000E+03  0.00000000000E+00 0.  1.
    9000005    2    1    2  501    0  0.28183576127E+02 -0.13173751626E+02 -0.30685163028E+02  0.48915014272E+03  0.48719443880E+03 0.  0.
         13    1    3    3    0    0 -0.11192327274E+03  0.96111311259E+02 -0.19676674417E+03  0.24592957273E+03  0.00000000000E+00 0.  1.
          3    1    3    3  501    0  0.14010684887E+03 -0.10928506289E+03  0.16608158114E+03  0.24322056999E+03  0.00000000000E+00 0.  1.
         21    1    1    2  502  501 -0.28183576127E+02  0.13173751626E+02  0.96060837469E+00  0.31125302628E+02  0.00000000000E+00 0.  1.
<scales pt_clust_4="550.00000" pt_clust_5="550.00000" pt_clust_6="31.11048"></scales>
<mgrwt>
<rscale>  0 0.30000000E+03</rscale>
<asrwt>  1 0.31110476E+02</asrwt>
<pdfrwt beam="1">  1        1 0.89191071E+00 0.30000000E+03</pdfrwt>
<pdfrwt beam="2">0</pdfrwt>
<totfact> 0.14008428E-04</totfact>
</mgrwt>
<clustering>
<clus scale="   31.110">  1  6  2 -1</clus>
<clus scale="  487.194">  4  5 -1 -1</clus>
<clus scale="  300.000">  1  4  2 -1</clus>
</clustering>
</event>
<event>
 6    1  0.1000035E-011  0.3000000E+03  0.7818608E-02  0.1093470E+00
          1   -1    0    0  502    0  0.00000000000E+00  0.00000000000E+00  0.23987988546E+03  0.23987988546E+03  0.00000000000E+00 0.  1.
         13   -1    0    0    0    0 -0.00000000000E+00 -0.00000000000E+00 -0.27500000000E+03  0.27500000000E+03  0.00000000000E+00 0.  1.
    9000005    2    1    2  501    0  0.38283903416E+02  0.18414579042E+02 -0.52423777440E+02  0.46900864467E+03  0.46412940259E+03 0.  0.
         13    1    3    3    0    0  0.15773832356E+03  0.85443862595E+02 -0.19931808117E+03  0.26815989606E+03  0.00000000000E+00 0.  1.
          3    1    3    3  501    0 -0.11945442015E+03 -0.67029283553E+02  0.14689430373E+03  0.20084874860E+03  0.00000000000E+00 0.  1.
         21    1    1    2  502  501 -0.38283903416E+02 -0.18414579042E+02  0.17303662898E+02  0.45871240791E+02  0.00000000000E+00 0. -1.
<scales pt_clust_4="550.00000" pt_clust_5="550.00000" pt_clust_6="42.48240"></scales>
<mgrwt>
<rscale>  0 0.30000000E+03</rscale>
<asrwt>  1 0.42482396E+02</asrwt>
<pdfrwt beam="1">  1        1 0.87229049E+00 0.30000000E+03</pdfrwt>
<pdfrwt beam="2">0</pdfrwt>
<totfact> 0.23157836E-04</totfact>
</mgrwt>
<clustering>
<clus scale="   42.482">  1  6  2 -1</clus>
<clus scale="  464.129">  4  5 -1 -1</clus>
<clus scale="  300.000">  1  4  2 -1</clus>
</clustering>
</event>
<event>
 6    1  0.1000035E-011  0.3000000E+03  0.7818608E-02  0.1093470E+00
          1   -1    0    0  502    0  0.00000000000E+00  0.00000000000E+00  0.22717737307E+03  0.22717737307E+03  0.00000000000E+00 0.  1.
         13   -1    0    0    0    0 -0.00000000000E+00 -0.00000000000E+00 -0.27500000000E+03  0.27500000000E+03  0.00000000000E+00 0.  1.
    9000005    2    1    2  501    0  0.10264262842E+02 -0.30954324775E+02 -0.46085908005E+02  0.46951942601E+03  0.46611270651E+03 0.  0.
         13    1    3    3    0    0  0.87425194917E+02  0.19981193231E+03  0.15090219784E+02  0.21862224894E+03  0.00000000000E+00 0.  1.
          3    1    3    3  501    0 -0.77160932075E+02 -0.23076625708E+03 -0.61176127789E+02  0.25089717706E+03  0.00000000000E+00 0.  1.
         21    1    1    2  502  501 -0.10264262842E+02  0.30954324775E+02 -0.17367189241E+01  0.32657947066E+02  0.00000000000E+00 0.  1.
<scales pt_clust_4="550.00000" pt_clust_5="550.00000" pt_clust_6="32.61174"></scales>
<mgrwt>
<rscale>  0 0.30000000E+03</rscale>
<asrwt>  1 0.32611736E+02</asrwt>
<pdfrwt beam="1">  1        1 0.82609954E+00 0.30000000E+03</pdfrwt>
<pdfrwt beam="2">0</pdfrwt>
<totfact> 0.64716809E-04</totfact>
</mgrwt>
<clustering>
<clus scale="   32.612">  1  6  2 -1</clus>
<clus scale="  466.113">  4  5 -1 -1</clus>
<clus scale="  300.000">  1  4  2 -1</clus>
</clustering>
</event>
<event>
 6    1  0.1000035E-011  0.3000000E+03  0.7818608E-02  0.1093470E+00
          1   -1    0    0  502    0  0.00000000000E+00  0.00000000000E+00  0.22907523320E+03  0.22907523320E+03  0.00000000000E+00 0.  1.
         13   -1    0    0    0    0 -0.00000000000E+00 -0.00000000000E+00 -0.27500000000E+03  0.27500000000E+03  0.00000000000E+00 0.  1.
    9000005    2    1    2  501    0  0.23353063135E+02 -0.28542194778E+02 -0.34099273008E+02  0.46534714592E+03  0.46262855874E+03 0.  0.
         13    1    3    3    0    0  0.15504827747E+03 -0.11981067801E+03 -0.16678063444E+03  0.25731371308E+03  0.00000000000E+00 0.  1.
          3    1    3    3  501    0 -0.13169521433E+03  0.91268483233E+02  0.13268136144E+03  0.20803343285E+03  0.00000000000E+00 0.  1.
         21    1    1    2  502  501 -0.23353063135E+02  0.28542194778E+02 -0.11825493793E+02  0.38728087275E+02  0.00000000000E+00 0.  1.
<scales pt_clust_4="550.00000" pt_clust_5="550.00000" pt_clust_6="36.87850"></scales>
<mgrwt>
<rscale>  0 0.30000000E+03</rscale>
<asrwt>  1 0.36878501E+02</asrwt>
<pdfrwt beam="1">  1        1 0.83300085E+00 0.30000000E+03</pdfrwt>
<pdfrwt beam="2">0</pdfrwt>
<totfact> 0.55432629E-04</totfact>
</mgrwt>
<clustering>
<clus scale="   36.879">  1  6  2 -1</clus>
<clus scale="  462.629">  4  5 -1 -1</clus>
<clus scale="  300.000">  1  4  2 -1</clus>
</clustering>
</event>
<event>
 6    1  0.1000035E-011  0.3000000E+03  0.7818608E-02  0.1093470E+00
          1   -1    0    0  502    0  0.00000000000E+00  0.00000000000E+00  0.23882314599E+03  0.23882314599E+03  0.00000000000E+00 0.  1.
         13   -1    0    0    0    0 -0.00000000000E+00 -0.00000000000E+00 -0.27500000000E+03  0.27500000000E+03  0.00000000000E+00 0.  1.
    9000005    2    1    2  501    0 -0.43838877332E+01  0.40579188537E+02 -0.45803783247E+02  0.47188787706E+03  0.46788277692E+03 0.  0.
         13    1    3    3    0    0  0.37117984972E+02  0.25100526423E+03 -0.43240000108E+02  0.25739286137E+03  0.00000000000E+00 0.  1.
          3    1    3    3  501    0 -0.41501872705E+02 -0.21042607569E+03 -0.25637831395E+01  0.21449501568E+03  0.00000000000E+00 0.  1.
         21    1    1    2  502  501  0.43838877332E+01 -0.40579188537E+02  0.96269292361E+01  0.41935268933E+02  0.00000000000E+00 0.  1.
<scales pt_clust_4="550.00000" pt_clust_5="550.00000" pt_clust_6="40.81530"></scales>
<mgrwt>
<rscale>  0 0.30000000E+03</rscale>
<asrwt>  1 0.40815304E+02</asrwt>
<pdfrwt beam="1">  1        1 0.86844780E+00 0.30000000E+03</pdfrwt>
<pdfrwt beam="2">0</pdfrwt>
<totfact> 0.25538331E-04</totfact>
</mgrwt>
<clustering>
<clus scale="   40.815">  1  6  2 -1</clus>
<clus scale="  467.883">  4  5 -1 -1</clus>
<clus scale="  300.000">  1  4  2 -1</clus>
</clustering>
</event>
<event>
 6    1  0.1000035E-011  0.3000000E+03  0.7818608E-02  0.1093470E+00
          1   -1    0    0  502    0  0.00000000000E+00  0.00000000000E+00  0.23162213387E+03  0.23162213387E+03  0.00000000000E+00 0.  1.
         13   -1    0    0    0    0 -0.00000000000E+00 -0.00000000000E+00 -0.27500000000E+03  0.27500000000E+03  0.00000000000E+00 0.  1.
    9000005    2    1    2  501    0  0.32576055853E+02  0.15117027225E+02 -0.54198237031E+02  0.46911474322E+03  0.46458741856E+03 0.  0.
         13    1    3    3    0    0  0.81707284046E+02 -0.19810855733E+03  0.59667085069E+02  0.22244829015E+03  0.00000000000E+00 0.  1.
          1    1    3    3  501    0 -0.49131228194E+02  0.21322558455E+03 -0.11386532210E+03  0.24666645306E+03  0.00000000000E+00 0.  1.
         21    1    1    2  502  501 -0.32576055853E+02 -0.15117027225E+02  0.10820370900E+02  0.37507390651E+02  0.00000000000E+00 0.  1.
<scales pt_clust_4="550.00000" pt_clust_5="550.00000" pt_clust_6="35.91273"></scales>
<mgrwt>
<rscale>  0 0.30000000E+03</rscale>
<asrwt>  1 0.35912727E+02</asrwt>
<pdfrwt beam="1">  1        1 0.84226230E+00 0.30000000E+03</pdfrwt>
<pdfrwt beam="2">0</pdfrwt>
<totfact> 0.47448918E-04</totfact>
</mgrwt>
<clustering>
<clus scale="   35.913">  1  6  2 -1</clus>
<clus scale="  464.587">  4  5 -1 -1</clus>
<clus scale="  300.000">  1  4  2 -1</clus>
</clustering>
</event>
<event>
 6    1  0.1000035E-011  0.3000000E+03  0.7818608E-02  0.1093470E+00
          1   -1    0    0  502    0  0.00000000000E+00  0.00000000000E+00  0.22288239491E+03  0.22288239491E+03  0.00000000000E+00 0.  1.
         13   -1    0    0    0    0 -0.00000000000E+00 -0.00000000000E+00 -0.27500000000E+03  0.27500000000E+03  0.00000000000E+00 0.  1.
    9000005    2    1    2  501    0  0.22292792521E+02  0.25178302636E+02 -0.62976956316E+02  0.46254344995E+03  0.45700047105E+03 0.  0.
         13    1    3    3    0    0  0.21284769169E+03 -0.79617546306E+02  0.23599644899E+02  0.22847327366E+03  0.00000000000E+00 0.  1.
          3    1    3    3  501    0 -0.19055489916E+03  0.10479584894E+03 -0.86576601215E+02  0.23407017629E+03  0.00000000000E+00 0.  1.
         21    1    1    2  502  501 -0.22292792521E+02 -0.25178302636E+02  0.10859351225E+02  0.35338944962E+02  0.00000000000E+00 0. -1.
<scales pt_clust_4="550.00000" pt_clust_5="550.00000" pt_clust_6="33.62909"></scales>
<mgrwt>
<rscale>  0 0.30000000E+03</rscale>
<asrwt>  1 0.33629087E+02</asrwt>
<pdfrwt beam="1">  1        1 0.81048144E+00 0.30000000E+03</pdfrwt>
<pdfrwt beam="2">0</pdfrwt>
<totfact> 0.87113891E-04</totfact>
</mgrwt>
<clustering>
<clus scale="   33.629">  1  6  2 -1</clus>
<clus scale="  457.000">  4  5 -1 -1</clus>
<clus scale="  300.000">  1  4  2 -1</clus>
</clustering>
</event>
<event>
 6    1  0.1000035E-011  0.3000000E+03  0.7818608E-02  0.1093470E+00
          1   -1    0    0  502    0  0.00000000000E+00  0.00000000000E+00  0.24739733130E+03  0.24739733130E+03  0.00000000000E+00 0.  1.
         13   -1    0    0    0    0 -0.00000000000E+00 -0.00000000000E+00 -0.27500000000E+03  0.27500000000E+03  0.00000000000E+00 0.  1.
    9000005    2    1    2  501    0 -0.34252854993E+02 -0.25913758254E+02 -0.45585586865E+02  0.47583375876E+03  0.47169369225E+03 0.  0.
         13    1    3    3    0    0  0.95108903949E+02  0.16280571560E+03 -0.13317644096E+03  0.23084057067E+03  0.00000000000E+00 0.  1.
          3    1    3    3  501    0 -0.12936175894E+03 -0.18871947385E+03  0.87590854096E+02  0.24499318809E+03  0.00000000000E+00 0.  1.
         21    1    1    2  502  501  0.34252854993E+02  0.25913758254E+02  0.17982918168E+02  0.46563572542E+02  0.00000000000E+00 0.  1.
<scales pt_clust_4="550.00000" pt_clust_5="550.00000" pt_clust_6="42.95091"></scales>
<mgrwt>
<rscale>  0 0.30000000E+03</rscale>
<asrwt>  1 0.42950913E+02</asrwt>
<pdfrwt beam="1">  1        1 0.89962666E+00 0.30000000E+03</pdfrwt>
<pdfrwt beam="2">0</pdfrwt>
<totfact> 0.10751141E-04</totfact>
</mgrwt>
<clustering>
<clus scale="   42.951">  1  6  2 -1</clus>
<clus scale="  471.694">  4  5 -1 -1</clus>
<clus scale="  300.000">  1  4  2 -1</clus>
</clustering>
</event>
<event>
 6    1  0.1000035E-011  0.3000000E+03  0.7818608E-02  0.1093470E+00
          1   -1    0    0  502    0  0.00000000000E+00  0.00000000000E+00  0.22921793393E+03  0.22921793393E+03  0.00000000000E+00 0.  1.
         13   -1    0    0    0    0 -0.00000000000E+00 -0.00000000000E+00 -0.27500000000E+03  0.27500000000E+03  0.00000000000E+00 0.  1.
    9000005    2    1    2  501    0  0.21099753460E+02  0.31032716370E+02 -0.44189998826E+02  0.46665779868E+03  0.46304267189E+03 0.  0.
         13    1    3    3    0    0  0.23836796857E+03  0.15299732593E+02 -0.65787606448E+02  0.24775265774E+03  0.00000000000E+00 0.  1.
          3    1    3    3  501    0 -0.21726821511E+03  0.15732983777E+02  0.21597607622E+02  0.21890514094E+03  0.00000000000E+00 0.  1.
         21    1    1    2  502  501 -0.21099753460E+02 -0.31032716370E+02 -0.15920672486E+01  0.37560135243E+02  0.00000000000E+00 0. -1.
<scales pt_clust_4="550.00000" pt_clust_5="550.00000" pt_clust_6="37.52638"></scales>
<mgrwt>
<rscale>  0 0.30000000E+03</rscale>
<asrwt>  1 0.37526378E+02</asrwt>
<pdfrwt beam="1">  1        1 0.83351976E+00 0.30000000E+03</pdfrwt>
<pdfrwt beam="2">0</pdfrwt>
<totfact> 0.54761334E-04</totfact>
</mgrwt>
<clustering>
<clus scale="   37.526">  1  6  2 -1</clus>
<clus scale="  463.043">  4  5 -1 -1</clus>
<clus scale="  300.000">  1  4  2 -1</clus>
</clustering>
</event>
<event>
 6    1  0.1000035E-011  0.3000000E+03  0.7818608E-02  0.1093470E+00
          1   -1    0    0  502    0  0.00000000000E+00  0.00000000000E+00  0.23035730272E+03  0.23035730272E+03  0.00000000000E+00 0.  1.
         13   -1    0    0    0    0 -0.00000000000E+00 -0.00000000000E+00 -0.27500000000E+03  0.27500000000E+03  0.00000000000E+00 0.  1.
    9000005    2    1    2  501    0 -0.32839884912E+02 -0.22047382355E+02 -0.37461185656E+02  0.46515631743E+03  0.46195509966E+03 0.  0.
         13    1    3    3    0    0 -0.13529901541E+03  0.23030563763E+02  0.17656095051E+03  0.22362915660E+03  0.00000000000E+00 0.  1.
          1    1    3    3  501    0  0.10245913049E+03 -0.45077946118E+02 -0.21402213617E+03  0.24152716083E+03  0.00000000000E+00 0.  1.
         21    1    1    2  502  501  0.32839884912E+02  0.22047382355E+02 -0.71815116205E+01  0.40200985298E+02  0.00000000000E+00 0.  1.
<scales pt_clust_4="550.00000" pt_clust_5="550.00000" pt_clust_6="39.55435"></scales>
<mgrwt>
<rscale>  0 0.30000000E+03</rscale>
<asrwt>  1 0.39554351E+02</asrwt>
<pdfrwt beam="1">  1        1 0.83766292E+00 0.30000000E+03</pdfrwt>
<pdfrwt beam="2">0</pdfrwt>
<totfact> 0.50582869E-04</totfact>
</mgrwt>
<clustering>
<clus scale="   39.554">  1  6  2 -1</clus>
<clus scale="  461.955">  4  5 -1 -1</clus>
<clus scale="  300.000">  1  4  2 -1</clus>
</clustering>
</event>
<event>
 6    1  0.1000035E-011  0.3000000E+03  0.7818608E-02  0.1093470E+00
          1   -1    0    0  502    0  0.00000000000E+00  0.00000000000E+00  0.22551050174E+03  0.22551050174E+03  0.00000000000E+00 0.  1.
         13   -1    0    0    0    0 -0.00000000000E+00 -0.00000000000E+00 -0.27500000000E+03  0.27500000000E+03  0.00000000000E+00 0.  1.
    9000005    2    1    2  501    0 -0.81465020768E+01  0.32218539418E+02 -0.35190748712E+02  0.46433241421E+03  0.46180277426E+03 0.  0.
         13    1    3    3    0    0 -0.12386495262E+03 -0.16254803185E+03 -0.10163333377E+03  0.22824049527E+03  0.00000000000E+00 0.  1.
          3    1    3    3  501    0  0.11571845055E+03  0.19476657127E+03  0.66442585062E+02  0.23609191894E+03  0.00000000000E+00 0.  1.
         21    1    1    2  502  501  0.81465020768E+01 -0.32218539418E+02 -0.14298749551E+02  0.36178087526E+02  0.00000000000E+00 0. -1.
<scales pt_clust_4="550.00000" pt_clust_5="550.00000" pt_clust_6="33.23253"></scales>
<mgrwt>
<rscale>  0 0.30000000E+03</rscale>
<asrwt>  1 0.33232527E+02</asrwt>
<pdfrwt beam="1">  1        1 0.82003819E+00 0.30000000E+03</pdfrwt>
<pdfrwt beam="2">0</pdfrwt>
<totfact> 0.72981260E-04</totfact>
</mgrwt>
<clustering>
<clus scale="   33.233">  1  6  2 -1</clus>
<clus scale="  461.803">  4  5 -1 -1</clus>
<clus scale="  300.000">  1  4  2 -1</clus>
</clustering>
</event>
<event>
 6    1  0.1000035E-011  0.3000000E+03  0.7818608E-02  0.1093470E+00
          1   -1    0    0  502    0  0.00000000000E+00  0.00000000000E+00  0.24250319944E+03  0.24250319944E+03  0.00000000000E+00 0.  1.
         13   -1    0    0    0    0 -0.00000000000E+00 -0.00000000000E+00 -0.27500000000E+03  0.27500000000E+03  0.00000000000E+00 0.  1.
    9000005    2    1    2  501    0 -0.21324438395E+02 -0.25456494624E+02 -0.36609570751E+02  0.48404158457E+03  0.48151140187E+03 0.  0.
         13    1    3    3    0    0 -0.17394459848E+03 -0.16558219275E+03  0.71190870914E+02  0.25048418313E+03  0.00000000000E+00 0.  1.
          1    1    3    3  501    0  0.15262016009E+03  0.14012569813E+03 -0.10780044166E+03  0.23355740143E+03  0.00000000000E+00 0.  1.
         21    1    1    2  502  501  0.21324438395E+02  0.25456494624E+02  0.41127701943E+01  0.33461614876E+02  0.00000000000E+00 0.  1.
<scales pt_clust_4="550.00000" pt_clust_5="550.00000" pt_clust_6="33.20790"></scales>
<mgrwt>
<rscale>  0 0.30000000E+03</rscale>
<asrwt>  1 0.33207903E+02</asrwt>
<pdfrwt beam="1">  1        1 0.88182982E+00 0.30000000E+03</pdfrwt>
<pdfrwt beam="2">0</pdfrwt>
<totfact> 0.18898281E-04</totfact>
</mgrwt>
<clustering>
<clus scale="   33.208">  1  6  2 -1</clus>
<clus scale="  481.511">  4  5 -1 -1</clus>
<clus scale="  300.000">  1  4  2 -1</clus>
</clustering>
</event>
<event>
 6    1  0.1000035E-011  0.3000000E+03  0.7818608E-02  0.1093470E+00
          1   -1    0    0  502    0  0.00000000000E+00  0.00000000000E+00  0.22886530772E+03  0.22886530772E+03  0.00000000000E+00 0.  1.
         13   -1    0    0    0    0 -0.00000000000E+00 -0.00000000000E+00 -0.27500000000E+03  0.27500000000E+03  0.00000000000E+00 0.  1.
    9000005    2    1    2  501    0  0.30561212377E+02 -0.17012898746E+02 -0.42804681243E+02  0.46872963640E+03  0.46545870373E+03 0.  0.
         13    1    3    3    0    0  0.15788814769E+03 -0.19309576219E+03 -0.26192274655E+02  0.25080007138E+03  0.00000000000E+00 0.  1.
          1    1    3    3  501    0 -0.12732693531E+03  0.17608286344E+03 -0.16612406588E+02  0.21792956501E+03  0.00000000000E+00 0.  1.
         21    1    1    2  502  501 -0.30561212377E+02  0.17012898746E+02 -0.33300110397E+01  0.35135671321E+02  0.00000000000E+00 0.  1.
<scales pt_clust_4="550.00000" pt_clust_5="550.00000" pt_clust_6="34.97753"></scales>
<mgrwt>
<rscale>  0 0.30000000E+03</rscale>
<asrwt>  1 0.34977531E+02</asrwt>
<pdfrwt beam="1">  1        1 0.83223748E+00 0.30000000E+03</pdfrwt>
<pdfrwt beam="2">0</pdfrwt>
<totfact> 0.56735658E-04</totfact>
</mgrwt>
<clustering>
<clus scale="   34.978">  1  6  2 -1</clus>
<clus scale="  465.459">  4  5 -1 -1</clus>
<clus scale="  300.000">  1  4  2 -1</clus>
</clustering>
</event>
<event>
 6    1  0.1000035E-011  0.3000000E+03  0.7818608E-02  0.1093470E+00
          1   -1    0    0  502    0  0.00000000000E+00  0.00000000000E+00  0.23103413883E+03  0.23103413883E+03  0.00000000000E+00 0.  1.
         13   -1    0    0    0    0 -0.00000000000E+00 -0.00000000000E+00 -0.27500000000E+03  0.27500000000E+03  0.00000000000E+00 0.  1.
    9000005    2    1    2  501    0 -0.35030325376E+02  0.90685881401E+00 -0.66480182168E+02  0.46438271942E+03  0.45826166039E+03 0.  0.
         13    1    3    3    0    0 -0.17904533834E+03 -0.30943924343E+00 -0.19968892975E+03  0.26820327663E+03  0.00000000000E+00 0.  1.
          3    1    3    3  501    0  0.14401501296E+03  0.12162980574E+01  0.13320874758E+03  0.19617944279E+03  0.00000000000E+00 0.  1.
         21    1    1    2  502  501  0.35030325376E+02 -0.90685881401E+00  0.22514320998E+02  0.41651419410E+02  0.00000000000E+00 0. -1.
<scales pt_clust_4="550.00000" pt_clust_5="550.00000" pt_clust_6="35.04206"></scales>
<mgrwt>
<rscale>  0 0.30000000E+03</rscale>
<asrwt>  1 0.35042062E+02</asrwt>
<pdfrwt beam="1">  1        1 0.84012414E+00 0.30000000E+03</pdfrwt>
<pdfrwt beam="2">0</pdfrwt>
<totfact> 0.49584060E-04</totfact>
</mgrwt>
<clustering>
<clus scale="   35.042">  1  6  2 -1</clus>
<clus scale="  458.262">  4  5 -1 -1</clus>
<clus scale="  300.000">  1  4  2 -1</clus>
</clustering>
</event>
<event>
 6    1  0.1000035E-011  0.3000000E+03  0.7818608E-02  0.1093470E+00
          1   -1    0    0  502    0  0.00000000000E+00  0.00000000000E+00  0.23581313433E+03  0.23581313433E+03  0.00000000000E+00 0.  1.
         13   -1    0    0    0    0 -0.00000000000E+00 -0.00000000000E+00 -0.27500000000E+03  0.27500000000E+03  0.00000000000E+00 0.  1.
    9000005    2    1    2  501    0  0.50216653069E+01 -0.37939476729E+02 -0.23315375262E+02  0.46938216494E+03  0.46723804321E+03 0.  0.
         13    1    3    3    0    0  0.10498637196E+03  0.17814598453E+03 -0.84784490505E+02  0.22348722544E+03  0.00000000000E+00 0.  1.
          1    1    3    3  501    0 -0.99964706653E+02 -0.21608546126E+03  0.61469115242E+02  0.24589493950E+03  0.00000000000E+00 0.  1.
         21    1    1    2  502  501 -0.50216653069E+01  0.37939476729E+02 -0.15871490408E+02  0.41430969391E+02  0.00000000000E+00 0. -1.
<scales pt_clust_4="550.00000" pt_clust_5="550.00000" pt_clust_6="38.27039"></scales>
<mgrwt>
<rscale>  0 0.30000000E+03</rscale>
<asrwt>  1 0.38270386E+02</asrwt>
<pdfrwt beam="1">  1        1 0.85750231E+00 0.30000000E+03</pdfrwt>
<pdfrwt beam="2">0</pdfrwt>
<totfact> 0.33799985E-04</totfact>
</mgrwt>
<clustering>
<clus scale="   38.270">  1  6  2 -1</clus>
<clus scale="  467.238">  4  5 -1 -1</clus>
<clus scale="  300.000">  1  4  2 -1</clus>
</clustering>
</event>
<event>
 6    1  0.1000035E-011  0.3000000E+03  0.7818608E-02  0.1093470E+00
          1   -1    0    0  502    0  0.00000000000E+00  0.00000000000E+00  0.23232668879E+03  0.23232668879E+03  0.00000000000E+00 0.  1.
         13   -1    0    0    0    0 -0.00000000000E+00 -0.00000000000E+00 -0.27500000000E+03  0.27500000000E+03  0.00000000000E+00 0.  1.
    9000005    2    1    2  501    0 -0.32294373366E+02 -0.35993824354E+01 -0.52898241274E+02  0.47326158494E+03  0.46917205986E+03 0.  0.
         13    1    3    3    0    0  0.10783867827E+03 -0.20067976619E+03 -0.13186478974E+02  0.22820042138E+03  0.00000000000E+00 0.  1.
          3    1    3    3  501    0 -0.14013305164E+03  0.19708038376E+03 -0.39711762300E+02  0.24506116356E+03  0.00000000000E+00 0.  1.
         21    1    1    2  502  501  0.32294373366E+02  0.35993824354E+01  0.10224930060E+02  0.34065103842E+02  0.00000000000E+00 0.  1.
<scales pt_clust_4="550.00000" pt_clust_5="550.00000" pt_clust_6="32.49434"></scales>
<mgrwt>
<rscale>  0 0.30000000E+03</rscale>
<asrwt>  1 0.32494340E+02</asrwt>
<pdfrwt beam="1">  1        1 0.84482432E+00 0.30000000E+03</pdfrwt>
<pdfrwt beam="2">0</pdfrwt>
<totfact> 0.45980901E-04</totfact>
</mgrwt>
<clustering>
<clus scale="   32.494">  1  6  2 -1</clus>
<clus scale="  469.172">  4  5 -1 -1</clus>
<clus scale="  300.000">  1  4  2 -1</clus>
</clustering>
</event>
<event>
 6    1  0.1000035E-011  0.3000000E+03  0.7818608E-02  0.1093470E+00
          1   -1    0    0  502    0  0.00000000000E+00  0.00000000000E+00  0.22119994547E+03  0.22119994547E+03  0.00000000000E+00 0.  1.
         13   -1    0    0    0    0 -0.00000000000E+00 -0.00000000000E+00 -0.27500000000E+03  0.27500000000E+03  0.00000000000E+00 0.  1.
    9000005    2    1    2  501    0 -0.23047890887E+02 -0.22279875999E+02 -0.63568264098E+02  0.46268851359E+03  0.45717845340E+03 0.  0.
         13    1    3    3    0    0  0.45908176126E+02 -0.73962115432E+01 -0.25472286259E+03  0.25893242614E+03  0.00000000000E+00 0.  1.
          3    1    3    3  501    0 -0.68956067013E+02 -0.14883664455E+02  0.19115459849E+03  0.20375608745E+03  0.00000000000E+00 0.  1.
         21    1    1    2  502  501  0.23047890887E+02  0.22279875999E+02  0.97682095727E+01  0.33511431887E+02  0.00000000000E+00 0. -1.
<scales pt_clust_4="550.00000" pt_clust_5="550.00000" pt_clust_6="32.05617"></scales>
<mgrwt>
<rscale>  0 0.30000000E+03</rscale>
<asrwt>  1 0.32056172E+02</asrwt>
<pdfrwt beam="1">  1        1 0.80436344E+00 0.30000000E+03</pdfrwt>
<pdfrwt beam="2">0</pdfrwt>
<totfact> 0.97961152E-04</totfact>
</mgrwt>
<clustering>
<clus scale="   32.056">  1  6  2 -1</clus>
<clus scale="  457.178">  4  5 -1 -1</clus>
<clus scale="  300.000">  1  4  2 -1</clus>
</clustering>
</event>
<event>
 6    1  0.1000035E-011  0.3000000E+03  0.7818608E-02  0.1093470E+00
          1   -1    0    0  502    0  0.00000000000E+00  0.00000000000E+00  0.23126502334E+03  0.23126502334E+03  0.00000000000E+00 0.  1.
         13   -1    0    0    0    0 -0.00000000000E+00 -0.00000000000E+00 -0.27500000000E+03  0.27500000000E+03  0.00000000000E+00 0.  1.
    9000005    2    1    2  501    0  0.34558032326E+02 -0.15832488568E+02 -0.57915230449E+02  0.46569403753E+03  0.46051258113E+03 0.  0.
         13    1    3    3    0    0  0.47898386460E+02  0.18794246480E+03 -0.14653546904E+03  0.24308284429E+03  0.00000000000E+00 0.  1.
          3    1    3    3  501    0 -0.13340354134E+02 -0.20377495337E+03  0.88620238591E+02  0.22261119324E+03  0.00000000000E+00 0.  1.
         21    1    1    2  502  501 -0.34558032326E+02  0.15832488568E+02  0.14180253794E+02  0.40570985817E+02  0.00000000000E+00 0. -1.
<scales pt_clust_4="550.00000" pt_clust_5="550.00000" pt_clust_6="38.01217"></scales>
<mgrwt>
<rscale>  0 0.30000000E+03</rscale>
<asrwt>  1 0.38012173E+02</asrwt>
<pdfrwt beam="1">  1        1 0.84096372E+00 0.30000000E+03</pdfrwt>
<pdfrwt beam="2">0</pdfrwt>
<totfact> 0.48108718E-04</totfact>
</mgrwt>
<clustering>
<clus scale="   38.012">  1  6  2 -1</clus>
<clus scale="  460.513">  4  5 -1 -1</clus>
<clus scale="  300.000">  1  4  2 -1</clus>
</clustering>
</event>
<event>
 6    1  0.1000035E-011  0.3000000E+03  0.7818608E-02  0.1093470E+00
          1   -1    0    0  502    0  0.00000000000E+00  0.00000000000E+00  0.23866074610E+03  0.23866074610E+03  0.00000000000E+00 0.  1.
         13   -1    0    0    0    0 -0.00000000000E+00 -0.00000000000E+00 -0.27500000000E+03  0.27500000000E+03  0.00000000000E+00 0.  1.
    9000005    2    1    2  501    0 -0.28453412001E+02  0.10718554920E+02 -0.50649513617E+01  0.47004233172E+03  0.46903054890E+03 0.  0.
         13    1    3    3    0    0  0.19404750481E+03  0.32783390580E+02  0.10253499200E+03  0.22190675836E+03  0.00000000000E+00 0.  1.
          3    1    3    3  501    0 -0.22250091682E+03 -0.22064835660E+02 -0.10759994336E+03  0.24813557336E+03  0.00000000000E+00 0.  1.
         21    1    1    2  502  501  0.28453412001E+02 -0.10718554920E+02 -0.31274302535E+02  0.43618414381E+02  0.00000000000E+00 0.  1.
<scales pt_clust_4="550.00000" pt_clust_5="550.00000" pt_clust_6="30.40534"></scales>
<mgrwt>
<rscale>  0 0.30000000E+03</rscale>
<asrwt>  1 0.30405345E+02</asrwt>
<pdfrwt beam="1">  1        1 0.86785726E+00 0.30000000E+03</pdfrwt>
<pdfrwt beam="2">0</pdfrwt>
<totfact> 0.27366018E-04</totfact>
</mgrwt>
<clustering>
<clus scale="   30.405">  1  6  2 -1</clus>
<clus scale="  469.031">  4  5 -1 -1</clus>
<clus scale="  300.000">  1  4  2 -1</clus>
</clustering>
</event>
<event>
 6    1  0.1000035E-011  0.3000000E+03  0.7818608E-02  0.1093470E+00
          1   -1    0    0  502    0  0.00000000000E+00  0.00000000000E+00  0.25942192620E+03  0.25942192620E+03  0.00000000000E+00 0.  1.
         13   -1    0    0    0    0 -0.00000000000E+00 -0.00000000000E+00 -0.27500000000E+03  0.27500000000E+03  0.00000000000E+00 0.  1.
    9000005    2    1    2  501    0 -0.38221828047E+02  0.14850515853E+01 -0.23893721190E+02  0.49527778859E+03  0.49322009737E+03 0.  0.
         13    1    3    3    0    0  0.18179417875E+03  0.10450649217E+03  0.88493426939E+02  0.22760012510E+03  0.00000000000E+00 0.  1.
          3    1    3    3  501    0 -0.22001600680E+03 -0.10302144059E+03 -0.11238714813E+03  0.26767766349E+03  0.00000000000E+00 0.  1.
         21    1    1    2  502  501  0.38221828047E+02 -0.14850515853E+01  0.83156473919E+01  0.39144137608E+02  0.00000000000E+00 0.  1.
<scales pt_clust_4="550.00000" pt_clust_5="550.00000" pt_clust_6="38.25067"></scales>
<mgrwt>
<rscale>  0 0.30000000E+03</rscale>
<asrwt>  1 0.38250667E+02</asrwt>
<pdfrwt beam="1">  1        1 0.94335246E+00 0.30000000E+03</pdfrwt>
<pdfrwt beam="2">0</pdfrwt>
<totfact> 0.16433187E-05</totfact>
</mgrwt>
<clustering>
<clus scale="   38.251">  1  6  2 -1</clus>
<clus scale="  493.220">  4  5 -1 -1</clus>
<clus scale="  300.000">  1  4  2 -1</clus>
</clustering>
</event>
<event>
 6    1  0.1000035E-011  0.3000000E+03  0.7818608E-02  0.1093470E+00
          1   -1    0    0  502    0  0.00000000000E+00  0.00000000000E+00  0.23089762313E+03  0.23089762313E+03  0.00000000000E+00 0.  1.
         13   -1    0    0    0    0 -0.00000000000E+00 -0.00000000000E+00 -0.27500000000E+03  0.27500000000E+03  0.00000000000E+00 0.  1.
    9000005    2    1    2  501    0  0.20518271313E+02 -0.22440758980E+02 -0.47689349247E+02  0.47527976083E+03  0.47190252161E+03 0.  0.
         13    1    3    3    0    0 -0.77296698352E+02 -0.23024222412E+03 -0.33493504753E+02  0.24516948465E+03  0.00000000000E+00 0.  1.
          1    1    3    3  501    0  0.97814969665E+02  0.20780146514E+03 -0.14195844494E+02  0.23011027618E+03  0.00000000000E+00 0.  1.
         21    1    1    2  502  501 -0.20518271313E+02  0.22440758980E+02  0.35869723812E+01  0.30617862305E+02  0.00000000000E+00 0. -1.
<scales pt_clust_4="550.00000" pt_clust_5="550.00000" pt_clust_6="30.40702"></scales>
<mgrwt>
<rscale>  0 0.30000000E+03</rscale>
<asrwt>  1 0.30407024E+02</asrwt>
<pdfrwt beam="1">  1        1 0.83962772E+00 0.30000000E+03</pdfrwt>
<pdfrwt beam="2">0</pdfrwt>
<totfact> 0.51382271E-04</totfact>
</mgrwt>
<clustering>
<clus scale="   30.407">  1  6  2 -1</clus>
<clus scale="  471.903">  4  5 -1 -1</clus>
<clus scale="  300.000">  1  4  2 -1</clus>
</clustering>
</event>
<event>
 6    1  0.1000035E-011  0.3000000E+03  0.7818608E-02  0.1093470E+00
          1   -1    0    0  502    0  0.00000000000E+00  0.00000000000E+00  0.26797583938E+03  0.26797583938E+03  0.00000000000E+00 0.  1.
         13   -1    0    0    0    0 -0.00000000000E+00 -0.00000000000E+00 -0.27500000000E+03  0.27500000000E+03  0.00000000000E+00 0.  1.
    9000005    2    1    2  501    0  0.93014635840E+01 -0.39486481432E+02 -0.37150246662E+02  0.49244584333E+03  0.48936394263E+03 0.  0.
         13    1    3    3    0    0  0.12869502422E+03 -0.22777332490E+03 -0.59751659144E+02  0.26835304650E+03  0.00000000000E+00 0.  1.
          1    1    3    3  501    0 -0.11939356064E+03  0.18828684347E+03  0.22601412482E+02  0.22409279683E+03  0.00000000000E+00 0.  1.
         21    1    1    2  502  501 -0.93014635840E+01  0.39486481432E+02  0.30126086038E+02  0.50529996048E+02  0.00000000000E+00 0. -1.
<scales pt_clust_4="550.00000" pt_clust_5="550.00000" pt_clust_6="40.56722"></scales>
<mgrwt>
<rscale>  0 0.30000000E+03</rscale>
<asrwt>  1 0.40567221E+02</asrwt>
<pdfrwt beam="1">  1        1 0.97445760E+00 0.30000000E+03</pdfrwt>
<pdfrwt beam="2">0</pdfrwt>
<totfact> 0.40763928E-06</totfact>
</mgrwt>
<clustering>
<clus scale="   40.567">  1  6  2 -1</clus>
<clus scale="  489.364">  4  5 -1 -1</clus>
<clus scale="  300.000">  1  4  2 -1</clus>
</clustering>
</event>
<event>
 6    1  0.1000035E-011  0.3000000E+03  0.7818608E-02  0.1093470E+00
          1   -1    0    0  502    0  0.00000000000E+00  0.00000000000E+00  0.23478564594E+03  0.23478564594E+03  0.00000000000E+00 0.  1.
         13   -1    0    0    0    0 -0.00000000000E+00 -0.00000000000E+00 -0.27500000000E+03  0.27500000000E+03  0.00000000000E+00 0.  1.
    9000005    2    1    2  501    0  0.36517408442E+02  0.34443692604E+01 -0.59729571153E+02  0.46823773989E+03  0.46296174203E+03 0.  0.
         13    1    3    3    0    0  0.21726017966E+03 -0.10898555502E+03  0.12698674585E+02  0.24339493258E+03  0.00000000000E+00 0.  1.
          1    1    3    3  501    0 -0.18074277122E+03  0.11242992428E+03 -0.72428245738E+02  0.22484280731E+03  0.00000000000E+00 0.  1.
         21    1    1    2  502  501 -0.36517408442E+02 -0.34443692604E+01  0.19515217091E+02  0.41547906049E+02  0.00000000000E+00 0.  1.
<scales pt_clust_4="550.00000" pt_clust_5="550.00000" pt_clust_6="36.67949"></scales>
<mgrwt>
<rscale>  0 0.30000000E+03</rscale>
<asrwt>  1 0.36679487E+02</asrwt>
<pdfrwt beam="1">  1        1 0.85376599E+00 0.30000000E+03</pdfrwt>
<pdfrwt beam="2">0</pdfrwt>
<totfact> 0.37136173E-04</totfact>
</mgrwt>
<clustering>
<clus scale="   36.679">  1  6  2 -1</clus>
<clus scale="  462.962">  4  5 -1 -1</clus>
<clus scale="  300.000">  1  4  2 -1</clus>
</clustering>
</event>
<event>
 6    1  0.1000035E-011  0.3000000E+03  0.7818608E-02  0.1093470E+00
          1   -1    0    0  502    0  0.00000000000E+00  0.00000000000E+00  0.22555820372E+03  0.22555820372E+03  0.00000000000E+00 0.  1.
         13   -1    0    0    0    0 -0.00000000000E+00 -0.00000000000E+00 -0.27500000000E+03  0.27500000000E+03  0.00000000000E+00 0.  1.
    9000005    2    1    2  501    0 -0.25711688022E+02 -0.15954378364E+02 -0.67206945720E+02  0.46546926494E+03  0.45959681240E+03 0.  0.
         13    1    3    3    0    0  0.10799995122E+03  0.17610388809E+03  0.36009917924E+02  0.20969807594E+03  0.00000000000E+00 0.  1.
          3    1    3    3  501    0 -0.13371163925E+03 -0.19205826645E+03 -0.10321686364E+03  0.25577118900E+03  0.00000000000E+00 0.  1.
         21    1    1    2  502  501  0.25711688022E+02  0.15954378364E+02  0.17765149443E+02  0.35088938780E+02  0.00000000000E+00 0. -1.
<scales pt_clust_4="550.00000" pt_clust_5="550.00000" pt_clust_6="30.25943"></scales>
<mgrwt>
<rscale>  0 0.30000000E+03</rscale>
<asrwt>  1 0.30259430E+02</asrwt>
<pdfrwt beam="1">  1        1 0.82021165E+00 0.30000000E+03</pdfrwt>
<pdfrwt beam="2">0</pdfrwt>
<totfact> 0.74039411E-04</totfact>
</mgrwt>
<clustering>
<clus scale="   30.259">  1  6  2 -1</clus>
<clus scale="  459.597">  4  5 -1 -1</clus>
<clus scale="  300.000">  1  4  2 -1</clus>
</clustering>
</event>
<event>
 6    1  0.1000035E-011  0.3000000E+03  0.7818608E-02  0.1093470E+00
          1   -1    0    0  502    0  0.00000000000E+00  0.00000000000E+00  0.23455567001E+03  0.23455567001E+03  0.00000000000E+00 0.  1.
         13   -1    0    0    0    0 -0.00000000000E+00 -0.00000000000E+00 -0.27500000000E+03  0.27500000000E+03  0.00000000000E+00 0.  1.
    9000005    2    1    2  501    0 -0.25954296668E+02 -0.30363148687E+02 -0.50917235945E+02  0.46826126273E+03  0.46376772089E+03 0.  0.
         13    1    3    3    0    0  0.43701224150E+02 -0.23195509986E+03  0.34427190773E+02  0.23853342912E+03  0.00000000000E+00 0.  1.
          1    1    3    3  501    0 -0.69655520817E+02  0.20159195118E+03 -0.85344426717E+02  0.22972783360E+03  0.00000000000E+00 0.  1.
         21    1    1    2  502  501  0.25954296668E+02  0.30363148687E+02  0.10472905954E+02  0.41294407283E+02  0.00000000000E+00 0. -1.
<scales pt_clust_4="550.00000" pt_clust_5="550.00000" pt_clust_6="39.94429"></scales>
<mgrwt>
<rscale>  0 0.30000000E+03</rscale>
<asrwt>  1 0.39944290E+02</asrwt>
<pdfrwt beam="1">  1        1 0.85292971E+00 0.30000000E+03</pdfrwt>
<pdfrwt beam="2">0</pdfrwt>
<totfact> 0.37245682E-04</totfact>
</mgrwt>
<clustering>
<clus scale="   39.944">  1  6  2 -1</clus>
<clus scale="  463.768">  4  5 -1 -1</clus>
<clus scale="  300.000">  1  4  2 -1</clus>
</clustering>
</event>
<event>
 6    1  0.1000035E-011  0.3000000E+03  0.7818608E-02  0.1093470E+00
          1   -1    0    0  502    0  0.00000000000E+00  0.00000000000E+00  0.25024916191E+03  0.25024916191E+03  0.00000000000E+00 0.  1.
         13   -1    0    0    0    0 -0.00000000000E+00 -0.00000000000E+00 -0.27500000000E+03  0.27500000000E+03  0.00000000000E+00 0.  1.
    9000005    2    1    2  501    0 -0.36442075121E+02  0.73432056162E+01 -0.63656006491E+02  0.47143875737E+03  0.46563984718E+03 0.  0.
         13    1    3    3    0    0 -0.61864171052E+02 -0.65393725827E+02 -0.25218608420E+03  0.26777105165E+03  0.00000000000E+00 0.  1.
          3    1    3    3  501    0  0.25422095931E+02  0.72736931443E+02  0.18853007770E+03  0.20366770573E+03  0.00000000000E+00 0.  1.
         21    1    1    2  502  501  0.36442075121E+02 -0.73432056162E+01  0.38905168398E+02  0.53810404532E+02  0.00000000000E+00 0. -1.
<scales pt_clust_4="550.00000" pt_clust_5="550.00000" pt_clust_6="37.17455"></scales>
<mgrwt>
<rscale>  0 0.30000000E+03</rscale>
<asrwt>  1 0.37174555E+02</asrwt>
<pdfrwt beam="1">  1        1 0.90999695E+00 0.30000000E+03</pdfrwt>
<pdfrwt beam="2">0</pdfrwt>
<totfact> 0.71069202E-05</totfact>
</mgrwt>
<clustering>
<clus scale="   37.175">  1  6  2 -1</clus>
<clus scale="  465.640">  4  5 -1 -1</clus>
<clus scale="  300.000">  1  4  2 -1</clus>
</clustering>
</event>
<event>
 6    1  0.1000035E-011  0.3000000E+03  0.7818608E-02  0.1093470E+00
          1   -1    0    0  502    0  0.00000000000E+00  0.00000000000E+00  0.24157783734E+03  0.24157783734E+03  0.00000000000E+00 0.  1.
         13   -1    0    0    0    0 -0.00000000000E+00 -0.00000000000E+00 -0.27500000000E+03  0.27500000000E+03  0.00000000000E+00 0.  1.
    9000005    2    1    2  501    0  0.35532153339E+02 -0.13244491481E+02 -0.54445225648E+02  0.47321979711E+03  0.46854534818E+03 0.  0.
         13    1    3    3    0    0  0.23348189078E+03  0.18879116244E+02  0.60691420777E+02  0.24197864143E+03  0.00000000000E+00 0.  1.
          1    1    3    3  501    0 -0.19794973744E+03 -0.32123607725E+02 -0.11513664643E+03  0.23124115567E+03  0.00000000000E+00 0.  1.
         21    1    1    2  502  501 -0.35532153339E+02  0.13244491481E+02  0.21023062987E+02  0.43358040233E+02  0.00000000000E+00 0.  1.
<scales pt_clust_4="550.00000" pt_clust_5="550.00000" pt_clust_6="37.92032"></scales>
<mgrwt>
<rscale>  0 0.30000000E+03</rscale>
<asrwt>  1 0.37920317E+02</asrwt>
<pdfrwt beam="1">  1        1 0.87846486E+00 0.30000000E+03</pdfrwt>
<pdfrwt beam="2">0</pdfrwt>
<totfact> 0.20289197E-04</totfact>
</mgrwt>
<clustering>
<clus scale="   37.920">  1  6  2 -1</clus>
<clus scale="  468.545">  4  5 -1 -1</clus>
<clus scale="  300.000">  1  4  2 -1</clus>
</clustering>
</event>
<event>
 6    1  0.1000035E-011  0.3000000E+03  0.7818608E-02  0.1093470E+00
          1   -1    0    0  502    0  0.00000000000E+00  0.00000000000E+00  0.25152544680E+03  0.25152544680E+03  0.00000000000E+00 0.  1.
         13   -1    0    0    0    0 -0.00000000000E+00 -0.00000000000E+00 -0.27500000000E+03  0.27500000000E+03  0.00000000000E+00 0.  1.
    9000005    2    1    2  501    0  0.23686829115E+02 -0.26782413979E+02 -0.99752051632E+01  0.48830770264E+03  0.48689479784E+03 0.  0.
         13    1    3    3    0    0  0.13146800045E+03 -0.19934069021E+03  0.97835668566E+02  0.25805496306E+03  0.00000000000E+00 0.  1.
          3    1    3    3  501    0 -0.10778117134E+03  0.17255827623E+03 -0.10781087373E+03  0.23025273958E+03  0.00000000000E+00 0.  1.
         21    1    1    2  502  501 -0.23686829115E+02  0.26782413979E+02 -0.13499348032E+02  0.38217744169E+02  0.00000000000E+00 0.  1.
<scales pt_clust_4="550.00000" pt_clust_5="550.00000" pt_clust_6="35.75423"></scales>
<mgrwt>
<rscale>  0 0.30000000E+03</rscale>
<asrwt>  1 0.35754228E+02</asrwt>
<pdfrwt beam="1">  1        1 0.91463799E+00 0.30000000E+03</pdfrwt>
<pdfrwt beam="2">0</pdfrwt>
<totfact> 0.54991734E-05</totfact>
</mgrwt>
<clustering>
<clus scale="   35.754">  1  6  2 -1</clus>
<clus scale="  486.895">  4  5 -1 -1</clus>
<clus scale="  300.000">  1  4  2 -1</clus>
</clustering>
</event>
<event>
 6    1  0.1000035E-011  0.3000000E+03  0.7818608E-02  0.1093470E+00
          1   -1    0    0  502    0  0.00000000000E+00  0.00000000000E+00  0.23234730979E+03  0.23234730979E+03  0.00000000000E+00 0.  1.
         13   -1    0    0    0    0 -0.00000000000E+00 -0.00000000000E+00 -0.27500000000E+03  0.27500000000E+03  0.00000000000E+00 0.  1.
    9000005    2    1    2  501    0  0.13722934926E+01 -0.31484779091E+02 -0.45822761709E+02  0.47567360055E+03  0.47241134011E+03 0.  0.
         13    1    3    3    0    0  0.64238443020E+02  0.12099167068E+03 -0.20493652344E+03  0.24650464615E+03  0.00000000000E+00 0.  1.
          3    1    3    3  501    0 -0.62866149527E+02 -0.15247644977E+03  0.15911376173E+03  0.22916895440E+03  0.00000000000E+00 0.  1.
         21    1    1    2  502  501 -0.13722934926E+01  0.31484779091E+02  0.31700714973E+01  0.31673709241E+02  0.00000000000E+00 0.  1.
<scales pt_clust_4="550.00000" pt_clust_5="550.00000" pt_clust_6="31.51467"></scales>
<mgrwt>
<rscale>  0 0.30000000E+03</rscale>
<asrwt>  1 0.31514671E+02</asrwt>
<pdfrwt beam="1">  1        1 0.84489931E+00 0.30000000E+03</pdfrwt>
<pdfrwt beam="2">0</pdfrwt>
<totfact> 0.46179847E-04</totfact>
</mgrwt>
<clustering>
<clus scale="   31.515">  1  6  2 -1</clus>
<clus scale="  472.411">  4  5 -1 -1</clus>
<clus scale="  300.000">  1  4  2 -1</clus>
</clustering>
</event>
<event>
 6    1  0.1000035E-011  0.3000000E+03  0.7818608E-02  0.1093470E+00
          1   -1    0    0  502    0  0.00000000000E+00  0.00000000000E+00  0.24922759110E+03  0.24922759110E+03  0.00000000000E+00 0.  1.
         13   -1    0    0    0    0 -0.00000000000E+00 -0.00000000000E+00 -0.27500000000E+03  0.27500000000E+03  0.00000000000E+00 0.  1.
    9000005    2    1    2  501    0  0.32349426280E+02 -0.30518615617E+02 -0.42019727607E+02  0.47687944811E+03  0.47293813468E+03 0.  0.
         13    1    3    3    0    0 -0.18730304042E+03 -0.11109964149E+03  0.53363148077E+02  0.22421682556E+03  0.00000000000E+00 0.  1.
          1    1    3    3  501    0  0.21965246670E+03  0.80581025875E+02 -0.95382875684E+02  0.25266262255E+03  0.00000000000E+00 0.  1.
         21    1    1    2  502  501 -0.32349426280E+02  0.30518615617E+02  0.16247318707E+02  0.47348142994E+02  0.00000000000E+00 0.  1.
<scales pt_clust_4="550.00000" pt_clust_5="550.00000" pt_clust_6="44.47326"></scales>
<mgrwt>
<rscale>  0 0.30000000E+03</rscale>
<asrwt>  1 0.44473265E+02</asrwt>
<pdfrwt beam="1">  1        1 0.90628215E+00 0.30000000E+03</pdfrwt>
<pdfrwt beam="2">0</pdfrwt>
<totfact> 0.83484185E-05</totfact>
</mgrwt>
<clustering>
<clus scale="   44.473">  1  6  2 -1</clus>
<clus scale="  472.938">  4  5 -1 -1</clus>
<clus scale="  300.000">  1  4  2 -1</clus>
</clustering>
</event>
<event>
 6    1  0.1000035E-011  0.3000000E+03  0.7818608E-02  0.1093470E+00
          1   -1    0    0  502    0  0.00000000000E+00  0.00000000000E+00  0.22474693431E+03  0.22474693431E+03  0.00000000000E+00 0.  1.
         13   -1    0    0    0    0 -0.00000000000E+00 -0.00000000000E+00 -0.27500000000E+03  0.27500000000E+03  0.00000000000E+00 0.  1.
    9000005    2    1    2  501    0 -0.32604144022E+02  0.83482352571E+01 -0.42815108333E+02  0.46527888462E+03  0.46208071128E+03 0.  0.
         13    1    3    3    0    0  0.65279890480E+02  0.21967820938E+03 -0.42680587617E+01  0.22921212033E+03  0.00000000000E+00 0.  1.
          3    1    3    3  501    0 -0.97884034502E+02 -0.21132997413E+03 -0.38547049571E+02  0.23606676430E+03  0.00000000000E+00 0.  1.
         21    1    1    2  502  501  0.32604144022E+02 -0.83482352571E+01 -0.74379573620E+01  0.34468049684E+02  0.00000000000E+00 0.  1.
<scales pt_clust_4="550.00000" pt_clust_5="550.00000" pt_clust_6="33.65597"></scales>
<mgrwt>
<rscale>  0 0.30000000E+03</rscale>
<asrwt>  1 0.33655971E+02</asrwt>
<pdfrwt beam="1">  1        1 0.81726158E+00 0.30000000E+03</pdfrwt>
<pdfrwt beam="2">0</pdfrwt>
<totfact> 0.76853123E-04</totfact>
</mgrwt>
<clustering>
<clus scale="   33.656">  1  6  2 -1</clus>
<clus scale="  462.081">  4  5 -1 -1</clus>
<clus scale="  300.000">  1  4  2 -1</clus>
</clustering>
</event>
<event>
 6    1  0.1000035E-011  0.3000000E+03  0.7818608E-02  0.1093470E+00
          1   -1    0    0  502    0  0.00000000000E+00  0.00000000000E+00  0.24376508420E+03  0.24376508420E+03  0.00000000000E+00 0.  1.
         13   -1    0    0    0    0 -0.00000000000E+00 -0.00000000000E+00 -0.27500000000E+03  0.27500000000E+03  0.00000000000E+00 0.  1.
    9000005    2    1    2  501    0  0.55233940358E+02  0.11865847414E+02 -0.38285337777E+02  0.46183271245E+03  0.45676263059E+03 0.  0.
         13    1    3    3    0    0  0.15431825483E+03 -0.22890905595E+02 -0.20936606308E+03  0.26109819169E+03  0.00000000000E+00 0.  1.
          1    1    3    3  501    0 -0.99084314473E+02  0.34756753009E+02  0.17108072531E+03  0.20073452076E+03  0.00000000000E+00 0.  1.
         21    1    1    2  502  501 -0.55233940358E+02 -0.11865847414E+02  0.70504219734E+01  0.56932371744E+02  0.00000000000E+00 0.  1.
<scales pt_clust_4="550.00000" pt_clust_5="550.00000" pt_clust_6="56.49413"></scales>
<mgrwt>
<rscale>  0 0.30000000E+03</rscale>
<asrwt>  1 0.56494128E+02</asrwt>
<pdfrwt beam="1">  1        1 0.88641849E+00 0.30000000E+03</pdfrwt>
<pdfrwt beam="2">0</pdfrwt>
<totfact> 0.14890963E-04</totfact>
</mgrwt>
<clustering>
<clus scale="   56.494">  1  6  2 -1</clus>
<clus scale="  456.763">  4  5 -1 -1</clus>
<clus scale="  300.000">  1  4  2 -1</clus>
</clustering>
</event>
<event>
 6    1  0.1000035E-011  0.3000000E+03  0.7818608E-02  0.1093470E+00
          1   -1    0    0  502    0  0.00000000000E+00  0.00000000000E+00  0.24255525898E+03  0.24255525898E+03  0.00000000000E+00 0.  1.
         13   -1    0    0    0    0 -0.00000000000E+00 -0.00000000000E+00 -0.27500000000E+03  0.27500000000E+03  0.00000000000E+00 0.  1.
    9000005    2    1    2  501    0  0.28993867350E+02 -0.21678155257E+02 -0.43602139754E+02  0.47967288438E+03  0.47631328205E+03 0.  0.
         13    1    3    3    0    0 -0.10308794781E+03 -0.20102910923E+03  0.60393428603E+02  0.23385293233E+03  0.00000000000E+00 0.  1.
          3    1    3    3  501    0  0.13208181516E+03  0.17935095397E+03 -0.10399556836E+03  0.24581995205E+03  0.00000000000E+00 0.  1.
         21    1    1    2  502  501 -0.28993867350E+02  0.21678155257E+02  0.11157398737E+02  0.37882374607E+02  0.00000000000E+00 0.  1.
<scales pt_clust_4="550.00000" pt_clust_5="550.00000" pt_clust_6="36.20203"></scales>
<mgrwt>
<rscale>  0 0.30000000E+03</rscale>
<asrwt>  1 0.36202027E+02</asrwt>
<pdfrwt beam="1">  1        1 0.88201912E+00 0.30000000E+03</pdfrwt>
<pdfrwt beam="2">0</pdfrwt>
<totfact> 0.18489987E-04</totfact>
</mgrwt>
<clustering>
<clus scale="   36.202">  1  6  2 -1</clus>
<clus scale="  476.313">  4  5 -1 -1</clus>
<clus scale="  300.000">  1  4  2 -1</clus>
</clustering>
</event>
<event>
 6    1  0.1000035E-011  0.3000000E+03  0.7818608E-02  0.1093470E+00
          1   -1    0    0  502    0  0.00000000000E+00  0.00000000000E+00  0.23611749936E+03  0.23611749936E+03  0.00000000000E+00 0.  1.
         13   -1    0    0    0    0 -0.00000000000E+00 -0.00000000000E+00 -0.27500000000E+03  0.27500000000E+03  0.00000000000E+00 0.  1.
    9000005    2    1    2  501    0  0.17821916538E+02  0.29560801961E+02 -0.52372572955E+02  0.47405749703E+03  0.46988952145E+03 0.  0.
         13    1    3    3    0    0 -0.87137200984E+01 -0.15339700189E+02  0.20788154255E+03  0.20862878769E+03  0.00000000000E+00 0.  1.
          3    1    3    3  501    0  0.26535636636E+02  0.44900502150E+02 -0.26025411550E+03  0.26542870934E+03  0.00000000000E+00 0.  1.
         21    1    1    2  502  501 -0.17821916538E+02 -0.29560801961E+02  0.13490072313E+02  0.37060002329E+02  0.00000000000E+00 0. -1.
<scales pt_clust_4="550.00000" pt_clust_5="550.00000" pt_clust_6="34.51756"></scales>
<mgrwt>
<rscale>  0 0.30000000E+03</rscale>
<asrwt>  1 0.34517557E+02</asrwt>
<pdfrwt beam="1">  1        1 0.85860909E+00 0.30000000E+03</pdfrwt>
<pdfrwt beam="2">0</pdfrwt>
<totfact> 0.33549895E-04</totfact>
</mgrwt>
<clustering>
<clus scale="   34.518">  1  6  2 -1</clus>
<clus scale="  469.890">  4  5 -1 -1</clus>
<clus scale="  300.000">  1  4  2 -1</clus>
</clustering>
</event>
<event>
 6    1  0.1000035E-011  0.3000000E+03  0.7818608E-02  0.1093470E+00
          1   -1    0    0  502    0  0.00000000000E+00  0.00000000000E+00  0.24086531009E+03  0.24086531009E+03  0.00000000000E+00 0.  1.
         13   -1    0    0    0    0 -0.00000000000E+00 -0.00000000000E+00 -0.27500000000E+03  0.27500000000E+03  0.00000000000E+00 0.  1.
    9000005    2    1    2  501    0 -0.34159655840E+02 -0.15426997775E+02 -0.50732483072E+02  0.47487310247E+03  0.47066527837E+03 0.  0.
         13    1    3    3    0    0 -0.23275086799E+03 -0.26383215351E+02  0.67142154463E+02  0.24367418720E+03  0.00000000000E+00 0.  1.
          1    1    3    3  501    0  0.19859121215E+03  0.10956217575E+02 -0.11787463753E+03  0.23119891527E+03  0.00000000000E+00 0.  1.
         21    1    1    2  502  501  0.34159655840E+02  0.15426997775E+02  0.16597793163E+02  0.40992207617E+02  0.00000000000E+00 0. -1.
<scales pt_clust_4="550.00000" pt_clust_5="550.00000" pt_clust_6="37.48165"></scales>
<mgrwt>
<rscale>  0 0.30000000E+03</rscale>
<asrwt>  1 0.37481653E+02</asrwt>
<pdfrwt beam="1">  1        1 0.87587385E+00 0.30000000E+03</pdfrwt>
<pdfrwt beam="2">0</pdfrwt>
<totfact> 0.21736141E-04</totfact>
</mgrwt>
<clustering>
<clus scale="   37.482">  1  6  2 -1</clus>
<clus scale="  470.665">  4  5 -1 -1</clus>
<clus scale="  300.000">  1  4  2 -1</clus>
</clustering>
</event>
<event>
 6    1  0.1000035E-011  0.3000000E+03  0.7818608E-02  0.1093470E+00
          1   -1    0    0  502    0  0.00000000000E+00  0.00000000000E+00  0.25439949863E+03  0.25439949863E+03  0.00000000000E+00 0.  1.
         13   -1    0    0    0    0 -0.00000000000E+00 -0.00000000000E+00 -0.27500000000E+03  0.27500000000E+03  0.00000000000E+00 0.  1.
    9000005    2    1    2  501    0  0.30620297551E+02  0.22965990626E+01 -0.52085755699E+02  0.48541997806E+03  0.48163964970E+03 0.  0.
         13    1    3    3    0    0  0.13083831301E+03 -0.74084479186E+02  0.17192746570E+03  0.22839927248E+03  0.00000000000E+00 0.  1.
          1    1    3    3  501    0 -0.10021801546E+03  0.76381078249E+02 -0.22401322140E+03  0.25702070558E+03  0.00000000000E+00 0.  1.
         21    1    1    2  502  501 -0.30620297551E+02 -0.22965990626E+01  0.31485254325E+02  0.43979520567E+02  0.00000000000E+00 0.  1.
<scales pt_clust_4="550.00000" pt_clust_5="550.00000" pt_clust_6="30.70630"></scales>
<mgrwt>
<rscale>  0 0.30000000E+03</rscale>
<asrwt>  1 0.30706302E+02</asrwt>
<pdfrwt beam="1">  1        1 0.92508909E+00 0.30000000E+03</pdfrwt>
<pdfrwt beam="2">0</pdfrwt>
<totfact> 0.33475142E-05</totfact>
</mgrwt>
<clustering>
<clus scale="   30.706">  1  6  2 -1</clus>
<clus scale="  481.640">  4  5 -1 -1</clus>
<clus scale="  300.000">  1  4  2 -1</clus>
</clustering>
</event>
<event>
 6    1  0.1000035E-011  0.3000000E+03  0.7818608E-02  0.1093470E+00
          1   -1    0    0  502    0  0.00000000000E+00  0.00000000000E+00  0.25069616886E+03  0.25069616886E+03  0.00000000000E+00 0.  1.
         13   -1    0    0    0    0 -0.00000000000E+00 -0.00000000000E+00 -0.27500000000E+03  0.27500000000E+03  0.00000000000E+00 0.  1.
    9000005    2    1    2  501    0  0.60285431421E+01  0.54400553950E+02 -0.47014647988E+02  0.46643787995E+03  0.46082334481E+03 0.  0.
         13    1    3    3    0    0  0.13534562505E+03  0.19043726092E+03 -0.12289656441E+03  0.26398551875E+03  0.00000000000E+00 0.  1.
          3    1    3    3  501    0 -0.12931708191E+03 -0.13603670697E+03  0.75881916424E+02  0.20245236120E+03  0.00000000000E+00 0.  1.
         21    1    1    2  502  501 -0.60285431421E+01 -0.54400553950E+02  0.22710816843E+02  0.59258288906E+02  0.00000000000E+00 0.  1.
<scales pt_clust_4="550.00000" pt_clust_5="550.00000" pt_clust_6="54.73357"></scales>
<mgrwt>
<rscale>  0 0.30000000E+03</rscale>
<asrwt>  1 0.54733569E+02</asrwt>
<pdfrwt beam="1">  1        1 0.91162243E+00 0.30000000E+03</pdfrwt>
<pdfrwt beam="2">0</pdfrwt>
<totfact> 0.60462333E-05</totfact>
</mgrwt>
<clustering>
<clus scale="   54.734">  1  6  2 -1</clus>
<clus scale="  460.823">  4  5 -1 -1</clus>
<clus scale="  300.000">  1  4  2 -1</clus>
</clustering>
</event>
<event>
 6    1  0.1000035E-011  0.3000000E+03  0.7818608E-02  0.1093470E+00
          1   -1    0    0  502    0  0.00000000000E+00  0.00000000000E+00  0.24024781982E+03  0.24024781982E+03  0.00000000000E+00 0.  1.
         13   -1    0    0    0    0 -0.00000000000E+00 -0.00000000000E+00 -0.27500000000E+03  0.27500000000E+03  0.00000000000E+00 0.  1.
    9000005    2    1    2  501    0  0.30338141344E+02 -0.13577104242E+02 -0.41663994843E+02  0.48129912674E+03  0.47833902241E+03 0.  0.
         13    1    3    3    0    0 -0.20492994860E+03  0.82453558616E+02 -0.52159995227E+02  0.22697034666E+03  0.00000000000E+00 0.  1.
          3    1    3    3  501    0  0.23526808994E+03 -0.96030662858E+02  0.10496000384E+02  0.25432878008E+03  0.00000000000E+00 0.  1.
         21    1    1    2  502  501 -0.30338141344E+02  0.13577104242E+02  0.69118146633E+01  0.33948693079E+02  0.00000000000E+00 0.  1.
<scales pt_clust_4="550.00000" pt_clust_5="550.00000" pt_clust_6="33.23764"></scales>
<mgrwt>
<rscale>  0 0.30000000E+03</rscale>
<asrwt>  1 0.33237638E+02</asrwt>
<pdfrwt beam="1">  1        1 0.87362844E+00 0.30000000E+03</pdfrwt>
<pdfrwt beam="2">0</pdfrwt>
<totfact> 0.23474983E-04</totfact>
</mgrwt>
<clustering>
<clus scale="   33.238">  1  6  2 -1</clus>
<clus scale="  478.339">  4  5 -1 -1</clus>
<clus scale="  300.000">  1  4  2 -1</clus>
</clustering>
</event>
<event>
 6    1  0.1000035E-011  0.3000000E+03  0.7818608E-02  0.1093470E+00
          1   -1    0    0  502    0  0.00000000000E+00  0.00000000000E+00  0.23952962125E+03  0.23952962125E+03  0.00000000000E+00 0.  1.
         13   -1    0    0    0    0 -0.00000000000E+00 -0.00000000000E+00 -0.27500000000E+03  0.27500000000E+03  0.00000000000E+00 0.  1.
    9000005    2    1    2  501    0  0.28711038398E+02 -0.20331552855E+02 -0.56737030729E+02  0.47342042211E+03  0.46868977976E+03 0.  0.
         13    1    3    3    0    0  0.42398308793E+02  0.22117785105E+03 -0.53634390117E+02  0.23150357705E+03  0.00000000000E+00 0.  1.
          3    1    3    3  501    0 -0.13687270395E+02 -0.24150940390E+03 -0.31026406115E+01  0.24191684506E+03  0.00000000000E+00 0.  1.
         21    1    1    2  502  501 -0.28711038398E+02  0.20331552855E+02  0.21266651974E+02  0.41109199136E+02  0.00000000000E+00 0.  1.
<scales pt_clust_4="550.00000" pt_clust_5="550.00000" pt_clust_6="35.18090"></scales>
<mgrwt>
<rscale>  0 0.30000000E+03</rscale>
<asrwt>  1 0.35180901E+02</asrwt>
<pdfrwt beam="1">  1        1 0.87101680E+00 0.30000000E+03</pdfrwt>
<pdfrwt beam="2">0</pdfrwt>
<totfact> 0.24702977E-04</totfact>
</mgrwt>
<clustering>
<clus scale="   35.181">  1  6  2 -1</clus>
<clus scale="  468.690">  4  5 -1 -1</clus>
<clus scale="  300.000">  1  4  2 -1</clus>
</clustering>
</event>
<event>
 6    1  0.1000035E-011  0.3000000E+03  0.7818608E-02  0.1093470E+00
          1   -1    0    0  502    0  0.00000000000E+00  0.00000000000E+00  0.24061393520E+03  0.24061393520E+03  0.00000000000E+00 0.  1.
         13   -1    0    0    0    0 -0.00000000000E+00 -0.00000000000E+00 -0.27500000000E+03  0.27500000000E+03  0.00000000000E+00 0.  1.
    9000005    2    1    2  501    0 -0.30562843316E+02  0.30848725061E+01 -0.50568448128E+02  0.48089400778E+03  0.47724026962E+03 0.  0.
         13    1    3    3    0    0  0.71018670614E+02  0.20595643106E+03  0.63538058298E+02  0.22693344381E+03  0.00000000000E+00 0.  1.
          1    1    3    3  501    0 -0.10158151393E+03 -0.20287155855E+03 -0.11410650643E+03  0.25396056397E+03  0.00000000000E+00 0.  1.
         21    1    1    2  502  501  0.30562843316E+02 -0.30848725061E+01  0.16182383331E+02  0.34719927422E+02  0.00000000000E+00 0.  1.
<scales pt_clust_4="550.00000" pt_clust_5="550.00000" pt_clust_6="30.71814"></scales>
<mgrwt>
<rscale>  0 0.30000000E+03</rscale>
<asrwt>  1 0.30718135E+02</asrwt>
<pdfrwt beam="1">  1        1 0.87495976E+00 0.30000000E+03</pdfrwt>
<pdfrwt beam="2">0</pdfrwt>
<totfact> 0.23077988E-04</totfact>
</mgrwt>
<clustering>
<clus scale="   30.718">  1  6  2 -1</clus>
<clus scale="  477.240">  4  5 -1 -1</clus>
<clus scale="  300.000">  1  4  2 -1</clus>
</clustering>
</event>
<event>
 6    1  0.1000035E-011  0.3000000E+03  0.7818608E-02  0.1093470E+00
          1   -1    0    0  502    0  0.00000000000E+00  0.00000000000E+00  0.24603780789E+03  0.24603780789E+03  0.00000000000E+00 0.  1.
         13   -1    0    0    0    0 -0.00000000000E+00 -0.00000000000E+00 -0.27500000000E+03  0.27500000000E+03  0.00000000000E+00 0.  1.
    9000005    2    1    2  501    0  0.36480434480E+02  0.42786737141E+02 -0.19647525132E+02  0.46404403634E+03  0.46020573165E+03 0.  0.
         13    1    3    3    0    0  0.61934363751E+02  0.20409782035E+03  0.12385872242E+03  0.24664299869E+03  0.00000000000E+00 0.  1.
          3    1    3    3  501    0 -0.25453929271E+02 -0.16131108321E+03 -0.14350624755E+03  0.21740103764E+03  0.00000000000E+00 0.  1.
         21    1    1    2  502  501 -0.36480434480E+02 -0.42786737141E+02 -0.93146669780E+01  0.56993771554E+02  0.00000000000E+00 0. -1.
<scales pt_clust_4="550.00000" pt_clust_5="550.00000" pt_clust_6="56.22749"></scales>
<mgrwt>
<rscale>  0 0.30000000E+03</rscale>
<asrwt>  1 0.56227486E+02</asrwt>
<pdfrwt beam="1">  1        1 0.89468294E+00 0.30000000E+03</pdfrwt>
<pdfrwt beam="2">0</pdfrwt>
<totfact> 0.11677711E-04</totfact>
</mgrwt>
<clustering>
<clus scale="   56.227">  1  6  2 -1</clus>
<clus scale="  460.206">  4  5 -1 -1</clus>
<clus scale="  300.000">  1  4  2 -1</clus>
</clustering>
</event>
<event>
 6    1  0.1000035E-011  0.3000000E+03  0.7818608E-02  0.1093470E+00
          1   -1    0    0  502    0  0.00000000000E+00  0.00000000000E+00  0.22938449922E+03  0.22938449922E+03  0.00000000000E+00 0.  1.
         13   -1    0    0    0    0 -0.00000000000E+00 -0.00000000000E+00 -0.27500000000E+03  0.27500000000E+03  0.00000000000E+00 0.  1.
    9000005    2    1    2  501    0 -0.30864631333E+02  0.40555390569E+01 -0.58805876038E+02  0.47057534567E+03  0.46584756308E+03 0.  0.
         13    1    3    3    0    0  0.21433149885E+03 -0.29540890092E+02 -0.54209515919E+02  0.22304557203E+03  0.00000000000E+00 0.  1.
          1    1    3    3  501    0 -0.24519613019E+03  0.33596429149E+02 -0.45963601181E+01  0.24752977363E+03  0.00000000000E+00 0.  1.
         21    1    1    2  502  501  0.30864631333E+02 -0.40555390569E+01  0.13190375256E+02  0.33809153550E+02  0.00000000000E+00 0. -1.
<scales pt_clust_4="550.00000" pt_clust_5="550.00000" pt_clust_6="31.12994"></scales>
<mgrwt>
<rscale>  0 0.30000000E+03</rscale>
<asrwt>  1 0.31129935E+02</asrwt>
<pdfrwt beam="1">  1        1 0.83412545E+00 0.30000000E+03</pdfrwt>
<pdfrwt beam="2">0</pdfrwt>
<totfact> 0.56134378E-04</totfact>
</mgrwt>
<clustering>
<clus scale="   31.130">  1  6  2 -1</clus>
<clus scale="  465.848">  4  5 -1 -1</clus>
<clus scale="  300.000">  1  4  2 -1</clus>
</clustering>
</event>
<event>
 6    1  0.1000035E-011  0.3000000E+03  0.7818608E-02  0.1093470E+00
          1   -1    0    0  502    0  0.00000000000E+00  0.00000000000E+00  0.24929847213E+03  0.24929847213E+03  0.00000000000E+00 0.  1.
         13   -1    0    0    0    0 -0.00000000000E+00 -0.00000000000E+00 -0.27500000000E+03  0.27500000000E+03  0.00000000000E+00 0.  1.
    9000005    2    1    2  501    0  0.24260285508E+02 -0.20141640226E+02 -0.51101972560E+02  0.48380860038E+03  0.48006781092E+03 0.  0.
         13    1    3    3    0    0  0.19083065317E+02 -0.19941807811E+02 -0.26671196480E+03  0.26813636689E+03  0.00000000000E+00 0.  1.
          1    1    3    3  501    0  0.51772201911E+01 -0.19983241475E+00  0.21560999224E+03  0.21567223349E+03  0.00000000000E+00 0.  1.
         21    1    1    2  502  501 -0.24260285508E+02  0.20141640226E+02  0.25400444690E+02  0.40489871751E+02  0.00000000000E+00 0.  1.
<scales pt_clust_4="550.00000" pt_clust_5="550.00000" pt_clust_6="31.53168"></scales>
<mgrwt>
<rscale>  0 0.30000000E+03</rscale>
<asrwt>  1 0.31531684E+02</asrwt>
<pdfrwt beam="1">  1        1 0.90653990E+00 0.30000000E+03</pdfrwt>
<pdfrwt beam="2">0</pdfrwt>
<totfact> 0.87871486E-05</totfact>
</mgrwt>
<clustering>
<clus scale="   31.532">  1  6  2 -1</clus>
<clus scale="  480.068">  4  5 -1 -1</clus>
<clus scale="  300.000">  1  4  2 -1</clus>
</clustering>
</event>
<event>
 6    1  0.1000035E-011  0.3000000E+03  0.7818608E-02  0.1093470E+00
          1   -1    0    0  502    0  0.00000000000E+00  0.00000000000E+00  0.23142521528E+03  0.23142521528E+03  0.00000000000E+00 0.  1.
         13   -1    0    0    0    0 -0.00000000000E+00 -0.00000000000E+00 -0.27500000000E+03  0.27500000000E+03  0.00000000000E+00 0.  1.
    9000005    2    1    2  501    0  0.13919935559E+02 -0.31769198191E+02 -0.69924514094E+02  0.46286657896E+03  0.45623786087E+03 0.  0.
         13    1    3    3    0    0 -0.87331440575E+02  0.17251523265E+03 -0.12248002356E+03  0.22888783756E+03  0.00000000000E+00 0.  1.
          3    1    3    3  501    0  0.10125137613E+03 -0.20428443084E+03  0.52555509469E+02  0.23397874141E+03  0.00000000000E+00 0.  1.
         21    1    1    2  502  501 -0.13919935559E+02  0.31769198191E+02  0.26349729377E+02  0.43558636318E+02  0.00000000000E+00 0.  1.
<scales pt_clust_4="550.00000" pt_clust_5="550.00000" pt_clust_6="34.68496"></scales>
<mgrwt>
<rscale>  0 0.30000000E+03</rscale>
<asrwt>  1 0.34684962E+02</asrwt>
<pdfrwt beam="1">  1        1 0.84154624E+00 0.30000000E+03</pdfrwt>
<pdfrwt beam="2">0</pdfrwt>
<totfact> 0.48410731E-04</totfact>
</mgrwt>
<clustering>
<clus scale="   34.685">  1  6  2 -1</clus>
<clus scale="  456.238">  4  5 -1 -1</clus>
<clus scale="  300.000">  1  4  2 -1</clus>
</clustering>
</event>
<event>
 6    1  0.1000035E-011  0.3000000E+03  0.7818608E-02  0.1093470E+00
          1   -1    0    0  502    0  0.00000000000E+00  0.00000000000E+00  0.24391661452E+03  0.24391661452E+03  0.00000000000E+00 0.  1.
         13   -1    0    0    0    0 -0.00000000000E+00 -0.00000000000E+00 -0.27500000000E+03  0.27500000000E+03  0.00000000000E+00 0.  1.
    9000005    2    1    2  501    0  0.29001871723E+02 -0.28640903455E+02 -0.66414954900E+02  0.46497470399E+03  0.45839842844E+03 0.  0.
         13    1    3    3    0    0  0.16658794360E+03 -0.18116673338E+03 -0.80852367334E+02  0.25905604324E+03  0.00000000000E+00 0.  1.
          3    1    3    3  501    0 -0.13758607187E+03  0.15252582992E+03  0.14437412434E+02  0.20591866075E+03  0.00000000000E+00 0.  1.
         21    1    1    2  502  501 -0.29001871723E+02  0.28640903455E+02  0.35331569418E+02  0.53941910531E+02  0.00000000000E+00 0. -1.
<scales pt_clust_4="550.00000" pt_clust_5="550.00000" pt_clust_6="40.76040"></scales>
<mgrwt>
<rscale>  0 0.30000000E+03</rscale>
<asrwt>  1 0.40760396E+02</asrwt>
<pdfrwt beam="1">  1        1 0.88696951E+00 0.30000000E+03</pdfrwt>
<pdfrwt beam="2">0</pdfrwt>
<totfact> 0.15500862E-04</totfact>
</mgrwt>
<clustering>
<clus scale="   40.760">  1  6  2 -1</clus>
<clus scale="  458.398">  4  5 -1 -1</clus>
<clus scale="  300.000">  1  4  2 -1</clus>
</clustering>
</event>
<event>
 6    1  0.1000035E-011  0.3000000E+03  0.7818608E-02  0.1093470E+00
          1   -1    0    0  502    0  0.00000000000E+00  0.00000000000E+00  0.24287999732E+03  0.24287999732E+03  0.00000000000E+00 0.  1.
         13   -1    0    0    0    0 -0.00000000000E+00 -0.00000000000E+00 -0.27500000000E+03  0.27500000000E+03  0.00000000000E+00 0.  1.
    9000005    2    1    2  501    0  0.94452748707E+01 -0.31783539256E+02 -0.61476840910E+02  0.47359421477E+03  0.46841506350E+03 0.  0.
         13    1    3    3    0    0  0.37448785035E+02  0.20432687349E+03  0.45846025632E+02  0.21272926643E+03  0.00000000000E+00 0.  1.
          1    1    3    3  501    0 -0.28003510164E+02 -0.23611041275E+03 -0.10732286654E+03  0.26086494834E+03  0.00000000000E+00 0.  1.
         21    1    1    2  502  501 -0.94452748707E+01  0.31783539256E+02  0.29356838226E+02  0.44285782546E+02  0.00000000000E+00 0. -1.
<scales pt_clust_4="550.00000" pt_clust_5="550.00000" pt_clust_6="33.15730"></scales>
<mgrwt>
<rscale>  0 0.30000000E+03</rscale>
<asrwt>  1 0.33157301E+02</asrwt>
<pdfrwt beam="1">  1        1 0.88319999E+00 0.30000000E+03</pdfrwt>
<pdfrwt beam="2">0</pdfrwt>
<totfact> 0.18134193E-04</totfact>
</mgrwt>
<clustering>
<clus scale="   33.157">  1  6  2 -1</clus>
<clus scale="  468.415">  4  5 -1 -1</clus>
<clus scale="  300.000">  1  4  2 -1</clus>
</clustering>
</event>
<event>
 6    1  0.1000035E-011  0.3000000E+03  0.7818608E-02  0.1093470E+00
          1   -1    0    0  502    0  0.00000000000E+00  0.00000000000E+00  0.25760446133E+03  0.25760446133E+03  0.00000000000E+00 0.  1.
         13   -1    0    0    0    0 -0.00000000000E+00 -0.00000000000E+00 -0.27500000000E+03  0.27500000000E+03  0.00000000000E+00 0.  1.
    9000005    2    1    2  501    0  0.28919233131E+02 -0.43992563039E+02 -0.48085374055E+02  0.47166569170E+03  0.46624527224E+03 0.  0.
         13    1    3    3    0    0  0.21617179288E+03  0.94836918919E+02 -0.27459208673E+02  0.23765162185E+03  0.00000000000E+00 0.  1.
          3    1    3    3  501    0 -0.18725255975E+03 -0.13882948196E+03 -0.20626165381E+02  0.23401406986E+03  0.00000000000E+00 0.  1.
         21    1    1    2  502  501 -0.28919233131E+02  0.43992563039E+02  0.30689835386E+02  0.60938769627E+02  0.00000000000E+00 0.  1.
<scales pt_clust_4="550.00000" pt_clust_5="550.00000" pt_clust_6="52.64663"></scales>
<mgrwt>
<rscale>  0 0.30000000E+03</rscale>
<asrwt>  1 0.52646630E+02</asrwt>
<pdfrwt beam="1">  1        1 0.93674350E+00 0.30000000E+03</pdfrwt>
<pdfrwt beam="2">0</pdfrwt>
<totfact> 0.19909774E-05</totfact>
</mgrwt>
<clustering>
<clus scale="   52.647">  1  6  2 -1</clus>
<clus scale="  466.245">  4  5 -1 -1</clus>
<clus scale="  300.000">  1  4  2 -1</clus>
</clustering>
</event>
<event>
 6    1  0.1000035E-011  0.3000000E+03  0.7818608E-02  0.1093470E+00
          1   -1    0    0  502    0  0.00000000000E+00  0.00000000000E+00  0.24154793412E+03  0.24154793412E+03  0.00000000000E+00 0.  1.
         13   -1    0    0    0    0 -0.00000000000E+00 -0.00000000000E+00 -0.27500000000E+03  0.27500000000E+03  0.00000000000E+00 0.  1.
    9000005    2    1    2  501    0 -0.43086504946E+02 -0.14795343411E+02 -0.44937742329E+02  0.46956634348E+03  0.46518577058E+03 0.  0.
         13    1    3    3    0    0 -0.45972414248E+02 -0.10369458259E+03 -0.23432351823E+03  0.26033351787E+03  0.00000000000E+00 0.  1.
          3    1    3    3  501    0  0.28859093027E+01  0.88899239176E+02  0.18938577591E+03  0.20923282561E+03  0.00000000000E+00 0.  1.
         21    1    1    2  502  501  0.43086504946E+02  0.14795343411E+02  0.11485676448E+02  0.46981590634E+02  0.00000000000E+00 0.  1.
<scales pt_clust_4="550.00000" pt_clust_5="550.00000" pt_clust_6="45.55600"></scales>
<mgrwt>
<rscale>  0 0.30000000E+03</rscale>
<asrwt>  1 0.45556000E+02</asrwt>
<pdfrwt beam="1">  1        1 0.87835612E+00 0.30000000E+03</pdfrwt>
<pdfrwt beam="2">0</pdfrwt>
<totfact> 0.19683073E-04</totfact>
</mgrwt>
<clustering>
<clus scale="   45.556">  1  6  2 -1</clus>
<clus scale="  465.186">  4  5 -1 -1</clus>
<clus scale="  300.000">  1  4  2 -1</clus>
</clustering>
</event>
<event>
 6    1  0.1000035E-011  0.3000000E+03  0.7818608E-02  0.1093470E+00
          1   -1    0    0  502    0  0.00000000000E+00  0.00000000000E+00  0.22534114372E+03  0.22534114372E+03  0.00000000000E+00 0.  1.
         13   -1    0    0    0    0 -0.00000000000E+00 -0.00000000000E+00 -0.27500000000E+03  0.27500000000E+03  0.00000000000E+00 0.  1.
    9000005    2    1    2  501    0 -0.32566158097E+02  0.83863015442E+01 -0.48206452606E+02  0.46668116476E+03  0.46296496926E+03 0.  0.
         13    1    3    3    0    0 -0.20135200322E+03  0.68436088543E+02  0.99218502237E+02  0.23467091554E+03  0.00000000000E+00 0.  1.
          3    1    3    3  501    0  0.16878584512E+03 -0.60049786999E+02 -0.14742495484E+03  0.23201024922E+03  0.00000000000E+00 0.  1.
         21    1    1    2  502  501  0.32566158097E+02 -0.83863015442E+01 -0.14524036778E+01  0.33659978955E+02  0.00000000000E+00 0.  1.
<scales pt_clust_4="550.00000" pt_clust_5="550.00000" pt_clust_6="33.62863"></scales>
<mgrwt>
<rscale>  0 0.30000000E+03</rscale>
<asrwt>  1 0.33628629E+02</asrwt>
<pdfrwt beam="1">  1        1 0.81942234E+00 0.30000000E+03</pdfrwt>
<pdfrwt beam="2">0</pdfrwt>
<totfact> 0.73714247E-04</totfact>
</mgrwt>
<clustering>
<clus scale="   33.629">  1  6  2 -1</clus>
<clus scale="  462.965">  4  5 -1 -1</clus>
<clus scale="  300.000">  1  4  2 -1</clus>
</clustering>
</event>
<event>
 6    1  0.1000035E-011  0.3000000E+03  0.7818608E-02  0.1093470E+00
          1   -1    0    0  502    0  0.00000000000E+00  0.00000000000E+00  0.23430825287E+03  0.23430825287E+03  0.00000000000E+00 0.  1.
         13   -1    0    0    0    0 -0.00000000000E+00 -0.00000000000E+00 -0.27500000000E+03  0.27500000000E+03  0.00000000000E+00 0.  1.
    9000005    2    1    2  501    0 -0.40787335880E+02  0.61647566535E+01 -0.19389482674E+02  0.46288199453E+03  0.46063236733E+03 0.  0.
         13    1    3    3    0    0  0.13087664377E+03 -0.12209118951E+03  0.11236590908E+03  0.21133161610E+03  0.00000000000E+00 0.  1.
          3    1    3    3  501    0 -0.17166397965E+03  0.12825594616E+03 -0.13175539175E+03  0.25155037843E+03  0.00000000000E+00 0.  1.
         21    1    1    2  502  501  0.40787335880E+02 -0.61647566535E+01 -0.21302264451E+02  0.46426258341E+02  0.00000000000E+00 0. -1.
<scales pt_clust_4="550.00000" pt_clust_5="550.00000" pt_clust_6="41.25061"></scales>
<mgrwt>
<rscale>  0 0.30000000E+03</rscale>
<asrwt>  1 0.41250608E+02</asrwt>
<pdfrwt beam="1">  1        1 0.85203001E+00 0.30000000E+03</pdfrwt>
<pdfrwt beam="2">0</pdfrwt>
<totfact> 0.37773021E-04</totfact>
</mgrwt>
<clustering>
<clus scale="   41.251">  1  6  2 -1</clus>
<clus scale="  460.632">  4  5 -1 -1</clus>
<clus scale="  300.000">  1  4  2 -1</clus>
</clustering>
</event>
<event>
 6    1  0.1000035E-011  0.3000000E+03  0.7818608E-02  0.1093470E+00
          1   -1    0    0  502    0  0.00000000000E+00  0.00000000000E+00  0.24388107704E+03  0.24388107704E+03  0.00000000000E+00 0.  1.
         13   -1    0    0    0    0 -0.00000000000E+00 -0.00000000000E+00 -0.27500000000E+03  0.27500000000E+03  0.00000000000E+00 0.  1.
    9000005    2    1    2  501    0 -0.27330141365E+02  0.34914643850E+02 -0.19432460966E+02  0.47302758888E+03  0.47054384527E+03 0.  0.
         13    1    3    3    0    0  0.18839104222E+03  0.12233966002E+03  0.50005483229E+02  0.23012762884E+03  0.00000000000E+00 0.  1.
          1    1    3    3  501    0 -0.21572118358E+03 -0.87425016167E+02 -0.69437944195E+02  0.24289996005E+03  0.00000000000E+00 0.  1.
         21    1    1    2  502  501  0.27330141365E+02 -0.34914643850E+02 -0.11686461993E+02  0.45853488157E+02  0.00000000000E+00 0.  1.
<scales pt_clust_4="550.00000" pt_clust_5="550.00000" pt_clust_6="44.33927"></scales>
<mgrwt>
<rscale>  0 0.30000000E+03</rscale>
<asrwt>  1 0.44339271E+02</asrwt>
<pdfrwt beam="1">  1        1 0.88684028E+00 0.30000000E+03</pdfrwt>
<pdfrwt beam="2">0</pdfrwt>
<totfact> 0.15330097E-04</totfact>
</mgrwt>
<clustering>
<clus scale="   44.339">  1  6  2 -1</clus>
<clus scale="  470.544">  4  5 -1 -1</clus>
<clus scale="  300.000">  1  4  2 -1</clus>
</clustering>
</event>
<event>
 6    1  0.1000035E-011  0.3000000E+03  0.7818608E-02  0.1093470E+00
          1   -1    0    0  502    0  0.00000000000E+00  0.00000000000E+00  0.24289091839E+03  0.24289091839E+03  0.00000000000E+00 0.  1.
         13   -1    0    0    0    0 -0.00000000000E+00 -0.00000000000E+00 -0.27500000000E+03  0.27500000000E+03  0.00000000000E+00 0.  1.
    9000005    2    1    2  501    0  0.38410707618E+02  0.13445754458E+02 -0.24055296248E+02  0.47640556880E+03  0.47405425631E+03 0.  0.
         13    1    3    3    0    0 -0.11733161756E+03  0.13894389768E+03 -0.15365085414E+03  0.23807708869E+03  0.00000000000E+00 0.  1.
          3    1    3    3  501    0  0.15574232518E+03 -0.12549814322E+03  0.12959555789E+03  0.23832848011E+03  0.00000000000E+00 0.  1.
         21    1    1    2  502  501 -0.38410707618E+02 -0.13445754458E+02 -0.80537853587E+01  0.41485349598E+02  0.00000000000E+00 0.  1.
<scales pt_clust_4="550.00000" pt_clust_5="550.00000" pt_clust_6="40.69610"></scales>
<mgrwt>
<rscale>  0 0.30000000E+03</rscale>
<asrwt>  1 0.40696098E+02</asrwt>
<pdfrwt beam="1">  1        1 0.88323970E+00 0.30000000E+03</pdfrwt>
<pdfrwt beam="2">0</pdfrwt>
<totfact> 0.17437067E-04</totfact>
</mgrwt>
<clustering>
<clus scale="   40.696">  1  6  2 -1</clus>
<clus scale="  474.054">  4  5 -1 -1</clus>
<clus scale="  300.000">  1  4  2 -1</clus>
</clustering>
</event>
<event>
 6    1  0.1000035E-011  0.3000000E+03  0.7818608E-02  0.1093470E+00
          1   -1    0    0  502    0  0.00000000000E+00  0.00000000000E+00  0.24464750896E+03  0.24464750896E+03  0.00000000000E+00 0.  1.
         13   -1    0    0    0    0 -0.00000000000E+00 -0.00000000000E+00 -0.27500000000E+03  0.27500000000E+03  0.00000000000E+00 0.  1.
    9000005    2    1    2  501    0  0.73724555462E+01 -0.48223662706E+02 -0.51955560793E+02  0.46629427692E+03  0.46081568729E+03 0.  0.
         13    1    3    3    0    0  0.18935093167E+03  0.98298410130E+02  0.36558175502E+02  0.21645519849E+03  0.00000000000E+00 0.  1.
          3    1    3    3  501    0 -0.18197847612E+03 -0.14652207284E+03 -0.88513736295E+02  0.24983907843E+03  0.00000000000E+00 0.  1.
         21    1    1    2  502  501 -0.73724555462E+01  0.48223662706E+02  0.21603069749E+02  0.53353232031E+02  0.00000000000E+00 0.  1.
<scales pt_clust_4="550.00000" pt_clust_5="550.00000" pt_clust_6="48.78396"></scales>
<mgrwt>
<rscale>  0 0.30000000E+03</rscale>
<asrwt>  1 0.48783960E+02</asrwt>
<pdfrwt beam="1">  1        1 0.88962731E+00 0.30000000E+03</pdfrwt>
<pdfrwt beam="2">0</pdfrwt>
<totfact> 0.13805323E-04</totfact>
</mgrwt>
<clustering>
<clus scale="   48.784">  1  6  2 -1</clus>
<clus scale="  460.816">  4  5 -1 -1</clus>
<clus scale="  300.000">  1  4  2 -1</clus>
</clustering>
</event>
<event>
 6    1  0.1000035E-011  0.3000000E+03  0.7818608E-02  0.1093470E+00
          1   -1    0    0  502    0  0.00000000000E+00  0.00000000000E+00  0.24585683232E+03  0.24585683232E+03  0.00000000000E+00 0.  1.
         13   -1    0    0    0    0 -0.00000000000E+00 -0.00000000000E+00 -0.27500000000E+03  0.27500000000E+03  0.00000000000E+00 0.  1.
    9000005    2    1    2  501    0 -0.26146825161E+02 -0.16695553081E+02 -0.33912913756E+02  0.48946975797E+03  0.48730704929E+03 0.  0.
         13    1    3    3    0    0  0.19456375125E+03  0.61239244822E+02 -0.12395235513E+03  0.23868281201E+03  0.00000000000E+00 0.  1.
          1    1    3    3  501    0 -0.22071057641E+03 -0.77934797902E+02  0.90039441372E+02  0.25078694596E+03  0.00000000000E+00 0.  1.
         21    1    1    2  502  501  0.26146825161E+02  0.16695553081E+02  0.47697460707E+01  0.31387074349E+02  0.00000000000E+00 0. -1.
<scales pt_clust_4="550.00000" pt_clust_5="550.00000" pt_clust_6="31.02254"></scales>
<mgrwt>
<rscale>  0 0.30000000E+03</rscale>
<asrwt>  1 0.31022540E+02</asrwt>
<pdfrwt beam="1">  1        1 0.89402484E+00 0.30000000E+03</pdfrwt>
<pdfrwt beam="2">0</pdfrwt>
<totfact> 0.13232188E-04</totfact>
</mgrwt>
<clustering>
<clus scale="   31.023">  1  6  2 -1</clus>
<clus scale="  487.307">  4  5 -1 -1</clus>
<clus scale="  300.000">  1  4  2 -1</clus>
</clustering>
</event>
<event>
 6    1  0.1000035E-011  0.3000000E+03  0.7818608E-02  0.1093470E+00
          1   -1    0    0  502    0  0.00000000000E+00  0.00000000000E+00  0.23498122884E+03  0.23498122884E+03  0.00000000000E+00 0.  1.
         13   -1    0    0    0    0 -0.00000000000E+00 -0.00000000000E+00 -0.27500000000E+03  0.27500000000E+03  0.00000000000E+00 0.  1.
    9000005    2    1    2  501    0  0.63607440786E+01  0.33127620076E+02 -0.46158126759E+02  0.47569435140E+03  0.47224638168E+03 0.  0.
         13    1    3    3    0    0 -0.15968416925E+03 -0.10235102980E+03  0.10181417681E+03  0.21526935176E+03  0.00000000000E+00 0.  1.
          3    1    3    3  501    0  0.16604491333E+03  0.13547864987E+03 -0.14797230357E+03  0.26042499964E+03  0.00000000000E+00 0.  1.
         21    1    1    2  502  501 -0.63607440786E+01 -0.33127620076E+02  0.61393555937E+01  0.34286877435E+02  0.00000000000E+00 0.  1.
<scales pt_clust_4="550.00000" pt_clust_5="550.00000" pt_clust_6="33.73275"></scales>
<mgrwt>
<rscale>  0 0.30000000E+03</rscale>
<asrwt>  1 0.33732748E+02</asrwt>
<pdfrwt beam="1">  1        1 0.85447720E+00 0.30000000E+03</pdfrwt>
<pdfrwt beam="2">0</pdfrwt>
<totfact> 0.37124861E-04</totfact>
</mgrwt>
<clustering>
<clus scale="   33.733">  1  6  2 -1</clus>
<clus scale="  472.246">  4  5 -1 -1</clus>
<clus scale="  300.000">  1  4  2 -1</clus>
</clustering>
</event>
<event>
 6    1  0.1000035E-011  0.3000000E+03  0.7818608E-02  0.1093470E+00
          1   -1    0    0  502    0  0.00000000000E+00  0.00000000000E+00  0.23199681713E+03  0.23199681713E+03  0.00000000000E+00 0.  1.
         13   -1    0    0    0    0 -0.00000000000E+00 -0.00000000000E+00 -0.27500000000E+03  0.27500000000E+03  0.00000000000E+00 0.  1.
    9000005    2    1    2  501    0  0.81102888296E+01  0.29309257876E+02 -0.70602267727E+02  0.46592956902E+03  0.45954420212E+03 0.  0.
         13    1    3    3    0    0 -0.11749181936E+03 -0.17715985670E+03  0.52170240536E+01  0.21264326884E+03  0.00000000000E+00 0.  1.
          3    1    3    3  501    0  0.12560210819E+03  0.20646911458E+03 -0.75819291780E+02  0.25328630018E+03  0.00000000000E+00 0.  1.
         21    1    1    2  502  501 -0.81102888296E+01 -0.29309257876E+02  0.27599084853E+02  0.41067248104E+02  0.00000000000E+00 0.  1.
<scales pt_clust_4="550.00000" pt_clust_5="550.00000" pt_clust_6="30.41068"></scales>
<mgrwt>
<rscale>  0 0.30000000E+03</rscale>
<asrwt>  1 0.30410679E+02</asrwt>
<pdfrwt beam="1">  1        1 0.84362479E+00 0.30000000E+03</pdfrwt>
<pdfrwt beam="2">0</pdfrwt>
<totfact> 0.47688289E-04</totfact>
</mgrwt>
<clustering>
<clus scale="   30.411">  1  6  2 -1</clus>
<clus scale="  459.544">  4  5 -1 -1</clus>
<clus scale="  300.000">  1  4  2 -1</clus>
</clustering>
</event>
<event>
 6    1  0.1000035E-011  0.3000000E+03  0.7818608E-02  0.1093470E+00
          1   -1    0    0  502    0  0.00000000000E+00  0.00000000000E+00  0.24129663474E+03  0.24129663474E+03  0.00000000000E+00 0.  1.
         13   -1    0    0    0    0 -0.00000000000E+00 -0.00000000000E+00 -0.27500000000E+03  0.27500000000E+03  0.00000000000E+00 0.  1.
    9000005    2    1    2  501    0  0.37372939990E+02  0.52708608451E+01 -0.38555823393E+02  0.47824318591E+03  0.47518993543E+03 0.  0.
         13    1    3    3    0    0 -0.17496833794E+03 -0.13238360708E+03  0.13751282843E+02  0.21983729548E+03  0.00000000000E+00 0.  1.
          3    1    3    3  501    0  0.21234127793E+03  0.13765446792E+03 -0.52307106236E+02  0.25840589044E+03  0.00000000000E+00 0.  1.
         21    1    1    2  502  501 -0.37372939990E+02 -0.52708608451E+01  0.48524581313E+01  0.38053448824E+02  0.00000000000E+00 0. -1.
<scales pt_clust_4="550.00000" pt_clust_5="550.00000" pt_clust_6="37.74280"></scales>
<mgrwt>
<rscale>  0 0.30000000E+03</rscale>
<asrwt>  1 0.37742796E+02</asrwt>
<pdfrwt beam="1">  1        1 0.87744231E+00 0.30000000E+03</pdfrwt>
<pdfrwt beam="2">0</pdfrwt>
<totfact> 0.20862268E-04</totfact>
</mgrwt>
<clustering>
<clus scale="   37.743">  1  6  2 -1</clus>
<clus scale="  475.190">  4  5 -1 -1</clus>
<clus scale="  300.000">  1  4  2 -1</clus>
</clustering>
</event>
<event>
 6    1  0.1000035E-011  0.3000000E+03  0.7818608E-02  0.1093470E+00
          1   -1    0    0  502    0  0.00000000000E+00  0.00000000000E+00  0.23449807453E+03  0.23449807453E+03  0.00000000000E+00 0.  1.
         13   -1    0    0    0    0 -0.00000000000E+00 -0.00000000000E+00 -0.27500000000E+03  0.27500000000E+03  0.00000000000E+00 0.  1.
    9000005    2    1    2  501    0  0.31013493097E+02  0.10953663823E+02 -0.33579948700E+02  0.47588656954E+03  0.47355949426E+03 0.  0.
         13    1    3    3    0    0 -0.36749086411E+01  0.23036094688E+03  0.54799928231E+02  0.23681786870E+03  0.00000000000E+00 0.  1.
          1    1    3    3  501    0  0.34688401738E+02 -0.21940728306E+03 -0.88379876931E+02  0.23906870084E+03  0.00000000000E+00 0.  1.
         21    1    1    2  502  501 -0.31013493097E+02 -0.10953663823E+02 -0.69219767713E+01  0.33611504989E+02  0.00000000000E+00 0. -1.
<scales pt_clust_4="550.00000" pt_clust_5="550.00000" pt_clust_6="32.89104"></scales>
<mgrwt>
<rscale>  0 0.30000000E+03</rscale>
<asrwt>  1 0.32891041E+02</asrwt>
<pdfrwt beam="1">  1        1 0.85272027E+00 0.30000000E+03</pdfrwt>
<pdfrwt beam="2">0</pdfrwt>
<totfact> 0.38794993E-04</totfact>
</mgrwt>
<clustering>
<clus scale="   32.891">  1  6  2 -1</clus>
<clus scale="  473.559">  4  5 -1 -1</clus>
<clus scale="  300.000">  1  4  2 -1</clus>
</clustering>
</event>
<event>
 6    1  0.1000035E-011  0.3000000E+03  0.7818608E-02  0.1093470E+00
          1   -1    0    0  502    0  0.00000000000E+00  0.00000000000E+00  0.23582188052E+03  0.23582188052E+03  0.00000000000E+00 0.  1.
         13   -1    0    0    0    0 -0.00000000000E+00 -0.00000000000E+00 -0.27500000000E+03  0.27500000000E+03  0.00000000000E+00 0.  1.
    9000005    2    1    2  501    0  0.24567533373E+02 -0.20414835701E+02 -0.53477489087E+02  0.47582472087E+03  0.47172978911E+03 0.  0.
         13    1    3    3    0    0 -0.68527356188E+01  0.13640378068E+03  0.15917771756E+03  0.20973911685E+03  0.00000000000E+00 0.  1.
          3    1    3    3  501    0  0.31420268992E+02 -0.15681861638E+03 -0.21265520665E+03  0.26608560401E+03  0.00000000000E+00 0.  1.
         21    1    1    2  502  501 -0.24567533373E+02  0.20414835701E+02  0.14299369606E+02  0.34997159654E+02  0.00000000000E+00 0. -1.
<scales pt_clust_4="550.00000" pt_clust_5="550.00000" pt_clust_6="31.94259"></scales>
<mgrwt>
<rscale>  0 0.30000000E+03</rscale>
<asrwt>  1 0.31942592E+02</asrwt>
<pdfrwt beam="1">  1        1 0.85753411E+00 0.30000000E+03</pdfrwt>
<pdfrwt beam="2">0</pdfrwt>
<totfact> 0.34935948E-04</totfact>
</mgrwt>
<clustering>
<clus scale="   31.943">  1  6  2 -1</clus>
<clus scale="  471.730">  4  5 -1 -1</clus>
<clus scale="  300.000">  1  4  2 -1</clus>
</clustering>
</event>
<event>
 6    1  0.1000035E-011  0.3000000E+03  0.7818608E-02  0.1093470E+00
          1   -1    0    0  502    0  0.00000000000E+00  0.00000000000E+00  0.24106796898E+03  0.24106796898E+03  0.00000000000E+00 0.  1.
         13   -1    0    0    0    0 -0.00000000000E+00 -0.00000000000E+00 -0.27500000000E+03  0.27500000000E+03  0.00000000000E+00 0.  1.
    9000005    2    1    2  501    0  0.22706818943E+02 -0.21499444385E+02 -0.50003381061E+02  0.48090955565E+03  0.47727962125E+03 0.  0.
         13    1    3    3    0    0 -0.14925053727E+03  0.80164009776E+02 -0.17635144276E+03  0.24454411198E+03  0.00000000000E+00 0.  1.
          1    1    3    3  501    0  0.17195735621E+03 -0.10166345416E+03  0.12634806170E+03  0.23636544367E+03  0.00000000000E+00 0.  1.
         21    1    1    2  502  501 -0.22706818943E+02  0.21499444385E+02  0.16071350037E+02  0.35158413323E+02  0.00000000000E+00 0.  1.
<scales pt_clust_4="550.00000" pt_clust_5="550.00000" pt_clust_6="31.27021"></scales>
<mgrwt>
<rscale>  0 0.30000000E+03</rscale>
<asrwt>  1 0.31270205E+02</asrwt>
<pdfrwt beam="1">  1        1 0.87661080E+00 0.30000000E+03</pdfrwt>
<pdfrwt beam="2">0</pdfrwt>
<totfact> 0.22077244E-04</totfact>
</mgrwt>
<clustering>
<clus scale="   31.270">  1  6  2 -1</clus>
<clus scale="  477.280">  4  5 -1 -1</clus>
<clus scale="  300.000">  1  4  2 -1</clus>
</clustering>
</event>
<event>
 6    1  0.1000035E-011  0.3000000E+03  0.7818608E-02  0.1093470E+00
          1   -1    0    0  502    0  0.00000000000E+00  0.00000000000E+00  0.23100755419E+03  0.23100755419E+03  0.00000000000E+00 0.  1.
         13   -1    0    0    0    0 -0.00000000000E+00 -0.00000000000E+00 -0.27500000000E+03  0.27500000000E+03  0.00000000000E+00 0.  1.
    9000005    2    1    2  501    0 -0.24614185993E+02 -0.19210332680E+02 -0.68677634394E+02  0.46620487125E+03  0.46006028896E+03 0.  0.
         13    1    3    3    0    0  0.52301441060E+02  0.18025031432E+03 -0.14713717817E+03  0.23848472854E+03  0.00000000000E+00 0.  1.
          3    1    3    3  501    0 -0.76915627053E+02 -0.19946064700E+03  0.78459543777E+02  0.22772014271E+03  0.00000000000E+00 0.  1.
         21    1    1    2  502  501  0.24614185993E+02  0.19210332680E+02  0.24685188583E+02  0.39802682939E+02  0.00000000000E+00 0. -1.
<scales pt_clust_4="550.00000" pt_clust_5="550.00000" pt_clust_6="31.22331"></scales>
<mgrwt>
<rscale>  0 0.30000000E+03</rscale>
<asrwt>  1 0.31223309E+02</asrwt>
<pdfrwt beam="1">  1        1 0.84002747E+00 0.30000000E+03</pdfrwt>
<pdfrwt beam="2">0</pdfrwt>
<totfact> 0.50764111E-04</totfact>
</mgrwt>
<clustering>
<clus scale="   31.223">  1  6  2 -1</clus>
<clus scale="  460.060">  4  5 -1 -1</clus>
<clus scale="  300.000">  1  4  2 -1</clus>
</clustering>
</event>
<event>
 6    1  0.1000035E-011  0.3000000E+03  0.7818608E-02  0.1093470E+00
          1   -1    0    0  502    0  0.00000000000E+00  0.00000000000E+00  0.23377401370E+03  0.23377401370E+03  0.00000000000E+00 0.  1.
         13   -1    0    0    0    0 -0.00000000000E+00 -0.00000000000E+00 -0.27500000000E+03  0.27500000000E+03  0.00000000000E+00 0.  1.
    9000005    2    1    2  501    0  0.31472652793E+02  0.13446501035E+02 -0.70387072452E+02  0.46381063739E+03  0.45715930606E+03 0.  0.
         13    1    3    3    0    0 -0.11131292337E+02  0.24990902883E+02 -0.26390663268E+03  0.26532086550E+03  0.00000000000E+00 0.  1.
          3    1    3    3  501    0  0.42603945130E+02 -0.11544401848E+02  0.19351956023E+03  0.19848977189E+03  0.00000000000E+00 0.  1.
         21    1    1    2  502  501 -0.31472652793E+02 -0.13446501035E+02  0.29161086155E+02  0.44963376315E+02  0.00000000000E+00 0.  1.
<scales pt_clust_4="550.00000" pt_clust_5="550.00000" pt_clust_6="34.22479"></scales>
<mgrwt>
<rscale>  0 0.30000000E+03</rscale>
<asrwt>  1 0.34224790E+02</asrwt>
<pdfrwt beam="1">  1        1 0.85008732E+00 0.30000000E+03</pdfrwt>
<pdfrwt beam="2">0</pdfrwt>
<totfact> 0.40792824E-04</totfact>
</mgrwt>
<clustering>
<clus scale="   34.225">  1  6  2 -1</clus>
<clus scale="  457.159">  4  5 -1 -1</clus>
<clus scale="  300.000">  1  4  2 -1</clus>
</clustering>
</event>
<event>
 6    1  0.1000035E-011  0.3000000E+03  0.7818608E-02  0.1093470E+00
          1   -1    0    0  502    0  0.00000000000E+00  0.00000000000E+00  0.24086348482E+03  0.24086348482E+03  0.00000000000E+00 0.  1.
         13   -1    0    0    0    0 -0.00000000000E+00 -0.00000000000E+00 -0.27500000000E+03  0.27500000000E+03  0.00000000000E+00 0.  1.
    9000005    2    1    2  501    0 -0.39196002626E+02  0.26155217036E+02 -0.53402665918E+02  0.46495566063E+03  0.45946871452E+03 0.  0.
         13    1    3    3    0    0  0.90972803543E+02  0.62328764983E+02 -0.22261131130E+03  0.24842850450E+03  0.00000000000E+00 0.  1.
          1    1    3    3  501    0 -0.13016880617E+03 -0.36173547947E+02  0.16920864538E+03  0.21652715613E+03  0.00000000000E+00 0.  1.
         21    1    1    2  502  501  0.39196002626E+02 -0.26155217036E+02  0.19266150741E+02  0.50907824196E+02  0.00000000000E+00 0.  1.
<scales pt_clust_4="550.00000" pt_clust_5="550.00000" pt_clust_6="47.12135"></scales>
<mgrwt>
<rscale>  0 0.30000000E+03</rscale>
<asrwt>  1 0.47121354E+02</asrwt>
<pdfrwt beam="1">  1        1 0.87586722E+00 0.30000000E+03</pdfrwt>
<pdfrwt beam="2">0</pdfrwt>
<totfact> 0.20858106E-04</totfact>
</mgrwt>
<clustering>
<clus scale="   47.121">  1  6  2 -1</clus>
<clus scale="  459.469">  4  5 -1 -1</clus>
<clus scale="  300.000">  1  4  2 -1</clus>
</clustering>
</event>
<event>
 6    1  0.1000035E-011  0.3000000E+03  0.7818608E-02  0.1093470E+00
          1   -1    0    0  502    0  0.00000000000E+00  0.00000000000E+00  0.22740783097E+03  0.22740783097E+03  0.00000000000E+00 0.  1.
         13   -1    0    0    0    0 -0.00000000000E+00 -0.00000000000E+00 -0.27500000000E+03  0.27500000000E+03  0.00000000000E+00 0.  1.
    9000005    2    1    2  501    0 -0.39135736306E+01 -0.30952510185E+02 -0.40253664674E+02  0.47035743953E+03  0.46759211868E+03 0.  0.
         13    1    3    3    0    0 -0.22229245519E+03 -0.27917589199E+02 -0.97873853987E+02  0.24448439361E+03  0.00000000000E+00 0.  1.
          3    1    3    3  501    0  0.21837888156E+03 -0.30349209854E+01  0.57620189313E+02  0.22587304592E+03  0.00000000000E+00 0.  1.
         21    1    1    2  502  501  0.39135736306E+01  0.30952510185E+02 -0.73385043585E+01  0.32050391441E+02  0.00000000000E+00 0.  1.
<scales pt_clust_4="550.00000" pt_clust_5="550.00000" pt_clust_6="31.19896"></scales>
<mgrwt>
<rscale>  0 0.30000000E+03</rscale>
<asrwt>  1 0.31198957E+02</asrwt>
<pdfrwt beam="1">  1        1 0.82693757E+00 0.30000000E+03</pdfrwt>
<pdfrwt beam="2">0</pdfrwt>
<totfact> 0.64161144E-04</totfact>
</mgrwt>
<clustering>
<clus scale="   31.199">  1  6  2 -1</clus>
<clus scale="  467.592">  4  5 -1 -1</clus>
<clus scale="  300.000">  1  4  2 -1</clus>
</clustering>
</event>
<event>
 6    1  0.1000035E-011  0.3000000E+03  0.7818608E-02  0.1093470E+00
          1   -1    0    0  502    0  0.00000000000E+00  0.00000000000E+00  0.23242442022E+03  0.23242442022E+03  0.00000000000E+00 0.  1.
         13   -1    0    0    0    0 -0.00000000000E+00 -0.00000000000E+00 -0.27500000000E+03  0.27500000000E+03  0.00000000000E+00 0.  1.
    9000005    2    1    2  501    0 -0.16998987948E+02 -0.25508607558E+02 -0.66675968664E+02  0.46843104392E+03  0.46264706144E+03 0.  0.
         13    1    3    3    0    0 -0.20424397503E+03 -0.11685137412E+03 -0.10315342678E+03  0.25692503659E+03  0.00000000000E+00 0.  1.
          1    1    3    3  501    0  0.18724498708E+03  0.91342766559E+02  0.36477458118E+02  0.21150600734E+03  0.00000000000E+00 0.  1.
         21    1    1    2  502  501  0.16998987948E+02  0.25508607558E+02  0.24100388884E+02  0.38993376299E+02  0.00000000000E+00 0.  1.
<scales pt_clust_4="550.00000" pt_clust_5="550.00000" pt_clust_6="30.65379"></scales>
<mgrwt>
<rscale>  0 0.30000000E+03</rscale>
<asrwt>  1 0.30653787E+02</asrwt>
<pdfrwt beam="1">  1        1 0.84517971E+00 0.30000000E+03</pdfrwt>
<pdfrwt beam="2">0</pdfrwt>
<totfact> 0.46163849E-04</totfact>
</mgrwt>
<clustering>
<clus scale="   30.654">  1  6  2 -1</clus>
<clus scale="  462.647">  4  5 -1 -1</clus>
<clus scale="  300.000">  1  4  2 -1</clus>
</clustering>
</event>
<event>
 6    1  0.1000035E-011  0.3000000E+03  0.7818608E-02  0.1093470E+00
          1   -1    0    0  502    0  0.00000000000E+00  0.00000000000E+00  0.23497850132E+03  0.23497850132E+03  0.00000000000E+00 0.  1.
         13   -1    0    0    0    0 -0.00000000000E+00 -0.00000000000E+00 -0.27500000000E+03  0.27500000000E+03  0.00000000000E+00 0.  1.
    9000005    2    1    2  501    0 -0.23295727816E+02  0.29784756553E+02 -0.51403433174E+02  0.47048962833E+03  0.46614198992E+03 0.  0.
         13    1    3    3    0    0  0.13794094763E+03 -0.60142965524E+02  0.13930152030E+03  0.20506046643E+03  0.00000000000E+00 0.  1.
          3    1    3    3  501    0 -0.16123667545E+03  0.89927722077E+02 -0.19070495347E+03  0.26542916190E+03  0.00000000000E+00 0.  1.
         21    1    1    2  502  501  0.23295727816E+02 -0.29784756553E+02  0.11381934497E+02  0.39488872993E+02  0.00000000000E+00 0.  1.
<scales pt_clust_4="550.00000" pt_clust_5="550.00000" pt_clust_6="37.81300"></scales>
<mgrwt>
<rscale>  0 0.30000000E+03</rscale>
<asrwt>  1 0.37812996E+02</asrwt>
<pdfrwt beam="1">  1        1 0.85446728E+00 0.30000000E+03</pdfrwt>
<pdfrwt beam="2">0</pdfrwt>
<totfact> 0.36351335E-04</totfact>
</mgrwt>
<clustering>
<clus scale="   37.813">  1  6  2 -1</clus>
<clus scale="  466.142">  4  5 -1 -1</clus>
<clus scale="  300.000">  1  4  2 -1</clus>
</clustering>
</event>
<event>
 6    1  0.1000035E-011  0.3000000E+03  0.7818608E-02  0.1093470E+00
          1   -1    0    0  502    0  0.00000000000E+00  0.00000000000E+00  0.24937505297E+03  0.24937505297E+03  0.00000000000E+00 0.  1.
         13   -1    0    0    0    0 -0.00000000000E+00 -0.00000000000E+00 -0.27500000000E+03  0.27500000000E+03  0.00000000000E+00 0.  1.
    9000005    2    1    2  501    0  0.16823747806E+02 -0.30937566966E+02 -0.58350526338E+02  0.47630078666E+03  0.47139949503E+03 0.  0.
         13    1    3    3    0    0 -0.13180126670E+03  0.10729919519E+03 -0.17355439691E+03  0.24291113577E+03  0.00000000000E+00 0.  1.
          1    1    3    3  501    0  0.14862501450E+03 -0.13823676216E+03  0.11520387058E+03  0.23338965089E+03  0.00000000000E+00 0.  1.
         21    1    1    2  502  501 -0.16823747806E+02  0.30937566966E+02  0.32725579305E+02  0.48074266305E+02  0.00000000000E+00 0.  1.
<scales pt_clust_4="550.00000" pt_clust_5="550.00000" pt_clust_6="35.21607"></scales>
<mgrwt>
<rscale>  0 0.30000000E+03</rscale>
<asrwt>  1 0.35216069E+02</asrwt>
<pdfrwt beam="1">  1        1 0.90681837E+00 0.30000000E+03</pdfrwt>
<pdfrwt beam="2">0</pdfrwt>
<totfact> 0.84901928E-05</totfact>
</mgrwt>
<clustering>
<clus scale="   35.216">  1  6  2 -1</clus>
<clus scale="  471.399">  4  5 -1 -1</clus>
<clus scale="  300.000">  1  4  2 -1</clus>
</clustering>
</event>
<event>
 6    1  0.1000035E-011  0.3000000E+03  0.7818608E-02  0.1093470E+00
          1   -1    0    0  502    0  0.00000000000E+00  0.00000000000E+00  0.23581657573E+03  0.23581657573E+03  0.00000000000E+00 0.  1.
         13   -1    0    0    0    0 -0.00000000000E+00 -0.00000000000E+00 -0.27500000000E+03  0.27500000000E+03  0.00000000000E+00 0.  1.
    9000005    2    1    2  501    0  0.66506212345E+01 -0.46338730691E+02 -0.44544333084E+02  0.46369706737E+03  0.45917236845E+03 0.  0.
         13    1    3    3    0    0 -0.14370646073E+03  0.36239476491E+02  0.14549513578E+03  0.20768649703E+03  0.00000000000E+00 0.  1.
          3    1    3    3  501    0  0.15035708196E+03 -0.82578207182E+02 -0.19003946887E+03  0.25601057034E+03  0.00000000000E+00 0.  1.
         21    1    1    2  502  501 -0.66506212345E+01  0.46338730691E+02  0.53609088133E+01  0.47119508360E+02  0.00000000000E+00 0.  1.
<scales pt_clust_4="550.00000" pt_clust_5="550.00000" pt_clust_6="46.81355"></scales>
<mgrwt>
<rscale>  0 0.30000000E+03</rscale>
<asrwt>  1 0.46813553E+02</asrwt>
<pdfrwt beam="1">  1        1 0.85751482E+00 0.30000000E+03</pdfrwt>
<pdfrwt beam="2">0</pdfrwt>
<totfact> 0.32582135E-04</totfact>
</mgrwt>
<clustering>
<clus scale="   46.814">  1  6  2 -1</clus>
<clus scale="  459.172">  4  5 -1 -1</clus>
<clus scale="  300.000">  1  4  2 -1</clus>
</clustering>
</event>
<event>
 6    1  0.1000035E-011  0.3000000E+03  0.7818608E-02  0.1093470E+00
          1   -1    0    0  502    0  0.00000000000E+00  0.00000000000E+00  0.26427811217E+03  0.26427811217E+03  0.00000000000E+00 0.  1.
         13   -1    0    0    0    0 -0.00000000000E+00 -0.00000000000E+00 -0.27500000000E+03  0.27500000000E+03  0.00000000000E+00 0.  1.
    9000005    2    1    2  501    0 -0.25998756065E+02 -0.29336378458E+02  0.14495024514E+02  0.49266855214E+03  0.49089269511E+03 0.  0.
         13    1    3    3    0    0  0.83428845554E+02 -0.23443539463E+03 -0.44615438073E+02  0.25280598062E+03  0.00000000000E+00 0.  1.
          1    1    3    3  501    0 -0.10942760162E+03  0.20509901617E+03  0.59110462587E+02  0.23986257152E+03  0.00000000000E+00 0.  1.
         21    1    1    2  502  501  0.25998756065E+02  0.29336378458E+02 -0.25216912343E+02  0.46609560029E+02  0.00000000000E+00 0.  1.
<scales pt_clust_4="550.00000" pt_clust_5="550.00000" pt_clust_6="39.19898"></scales>
<mgrwt>
<rscale>  0 0.30000000E+03</rscale>
<asrwt>  1 0.39198979E+02</asrwt>
<pdfrwt beam="1">  1        1 0.96101132E+00 0.30000000E+03</pdfrwt>
<pdfrwt beam="2">0</pdfrwt>
<totfact> 0.70637440E-06</totfact>
</mgrwt>
<clustering>
<clus scale="   39.199">  1  6  2 -1</clus>
<clus scale="  490.893">  4  5 -1 -1</clus>
<clus scale="  300.000">  1  4  2 -1</clus>
</clustering>
</event>
<event>
 6    1  0.1000035E-011  0.3000000E+03  0.7818608E-02  0.1093470E+00
          1   -1    0    0  502    0  0.00000000000E+00  0.00000000000E+00  0.23246621371E+03  0.23246621371E+03  0.00000000000E+00 0.  1.
         13   -1    0    0    0    0 -0.00000000000E+00 -0.00000000000E+00 -0.27500000000E+03  0.27500000000E+03  0.00000000000E+00 0.  1.
    9000005    2    1    2  501    0 -0.20841091184E+02  0.21914939801E+02 -0.52948185815E+02  0.47548066407E+03  0.47155459478E+03 0.  0.
         13    1    3    3    0    0  0.14363625538E+03  0.49821386928E+01  0.15396224408E+03  0.21061948668E+03  0.00000000000E+00 0.  1.
          3    1    3    3  501    0 -0.16447734657E+03  0.16932801108E+02 -0.20691042990E+03  0.26486117739E+03  0.00000000000E+00 0.  1.
         21    1    1    2  502  501  0.20841091184E+02 -0.21914939801E+02  0.10414399522E+02  0.31985549637E+02  0.00000000000E+00 0. -1.
<scales pt_clust_4="550.00000" pt_clust_5="550.00000" pt_clust_6="30.24261"></scales>
<mgrwt>
<rscale>  0 0.30000000E+03</rscale>
<asrwt>  1 0.30242613E+02</asrwt>
<pdfrwt beam="1">  1        1 0.84533169E+00 0.30000000E+03</pdfrwt>
<pdfrwt beam="2">0</pdfrwt>
<totfact> 0.46141863E-04</totfact>
</mgrwt>
<clustering>
<clus scale="   30.243">  1  6  2 -1</clus>
<clus scale="  471.555">  4  5 -1 -1</clus>
<clus scale="  300.000">  1  4  2 -1</clus>
</clustering>
</event>
<event>
 6    1  0.1000035E-011  0.3000000E+03  0.7818608E-02  0.1093470E+00
          1   -1    0    0  502    0  0.00000000000E+00  0.00000000000E+00  0.24087339862E+03  0.24087339862E+03  0.00000000000E+00 0.  1.
         13   -1    0    0    0    0 -0.00000000000E+00 -0.00000000000E+00 -0.27500000000E+03  0.27500000000E+03  0.00000000000E+00 0.  1.
    9000005    2    1    2  501    0  0.27787400861E+02 -0.21234112097E+02 -0.11778297961E+01  0.46782499894E+03  0.46651453910E+03 0.  0.
         13    1    3    3    0    0 -0.20544302916E+03  0.24997943604E+02  0.71880129452E+02  0.21908557329E+03  0.00000000000E+00 0.  1.
          3    1    3    3  501    0  0.23323043002E+03 -0.46232055701E+02 -0.73057959248E+02  0.24873942565E+03  0.00000000000E+00 0.  1.
         21    1    1    2  502  501 -0.27787400861E+02  0.21234112097E+02 -0.32948771582E+02  0.48048399681E+02  0.00000000000E+00 0.  1.
<scales pt_clust_4="550.00000" pt_clust_5="550.00000" pt_clust_6="34.97182"></scales>
<mgrwt>
<rscale>  0 0.30000000E+03</rscale>
<asrwt>  1 0.34971823E+02</asrwt>
<pdfrwt beam="1">  1        1 0.87590327E+00 0.30000000E+03</pdfrwt>
<pdfrwt beam="2">0</pdfrwt>
<totfact> 0.22001970E-04</totfact>
</mgrwt>
<clustering>
<clus scale="   34.972">  1  6  2 -1</clus>
<clus scale="  466.515">  4  5 -1 -1</clus>
<clus scale="  300.000">  1  4  2 -1</clus>
</clustering>
</event>
<event>
 6    1  0.1000035E-011  0.3000000E+03  0.7818608E-02  0.1093470E+00
          1   -1    0    0  502    0  0.00000000000E+00  0.00000000000E+00  0.23113754169E+03  0.23113754169E+03  0.00000000000E+00 0.  1.
         13   -1    0    0    0    0 -0.00000000000E+00 -0.00000000000E+00 -0.27500000000E+03  0.27500000000E+03  0.00000000000E+00 0.  1.
    9000005    2    1    2  501    0 -0.26076349558E+02 -0.31949080713E+02 -0.41882586883E+02  0.46485025968E+03  0.46111917448E+03 0.  0.
         13    1    3    3    0    0 -0.13823996903E+03  0.89007493370E+02  0.14240896668E+03  0.21751537119E+03  0.00000000000E+00 0.  1.
          3    1    3    3  501    0  0.11216361948E+03 -0.12095657408E+03 -0.18429155356E+03  0.24733488849E+03  0.00000000000E+00 0.  1.
         21    1    1    2  502  501  0.26076349558E+02  0.31949080713E+02 -0.19798714294E+01  0.41287282007E+02  0.00000000000E+00 0. -1.
<scales pt_clust_4="550.00000" pt_clust_5="550.00000" pt_clust_6="41.23978"></scales>
<mgrwt>
<rscale>  0 0.30000000E+03</rscale>
<asrwt>  1 0.41239784E+02</asrwt>
<pdfrwt beam="1">  1        1 0.84050015E+00 0.30000000E+03</pdfrwt>
<pdfrwt beam="2">0</pdfrwt>
<totfact> 0.47796871E-04</totfact>
</mgrwt>
<clustering>
<clus scale="   41.240">  1  6  2 -1</clus>
<clus scale="  461.119">  4  5 -1 -1</clus>
<clus scale="  300.000">  1  4  2 -1</clus>
</clustering>
</event>
<event>
 6    1  0.1000035E-011  0.3000000E+03  0.7818608E-02  0.1093470E+00
          1   -1    0    0  502    0  0.00000000000E+00  0.00000000000E+00  0.23743114047E+03  0.23743114047E+03  0.00000000000E+00 0.  1.
         13   -1    0    0    0    0 -0.00000000000E+00 -0.00000000000E+00 -0.27500000000E+03  0.27500000000E+03  0.00000000000E+00 0.  1.
    9000005    2    1    2  501    0  0.36873249822E+01 -0.31975510702E+02 -0.73227267830E+02  0.46439415750E+03  0.45745346334E+03 0.  0.
         13    1    3    3    0    0  0.20866211918E+03  0.10387813093E+02  0.58661379889E+02  0.21699987127E+03  0.00000000000E+00 0.  1.
          3    1    3    3  501    0 -0.20497479420E+03 -0.42363323795E+02 -0.13188864772E+03  0.24739428623E+03  0.00000000000E+00 0.  1.
         21    1    1    2  502  501 -0.36873249822E+01  0.31975510702E+02  0.35658408300E+02  0.48036982968E+02  0.00000000000E+00 0.  1.
<scales pt_clust_4="550.00000" pt_clust_5="550.00000" pt_clust_6="32.18741"></scales>
<mgrwt>
<rscale>  0 0.30000000E+03</rscale>
<asrwt>  1 0.32187414E+02</asrwt>
<pdfrwt beam="1">  1        1 0.86338597E+00 0.30000000E+03</pdfrwt>
<pdfrwt beam="2">0</pdfrwt>
<totfact> 0.30213465E-04</totfact>
</mgrwt>
<clustering>
<clus scale="   32.187">  1  6  2 -1</clus>
<clus scale="  457.453">  4  5 -1 -1</clus>
<clus scale="  300.000">  1  4  2 -1</clus>
</clustering>
</event>
<event>
 6    1  0.1000035E-011  0.3000000E+03  0.7818608E-02  0.1093470E+00
          1   -1    0    0  502    0  0.00000000000E+00  0.00000000000E+00  0.24667355145E+03  0.24667355145E+03  0.00000000000E+00 0.  1.
         13   -1    0    0    0    0 -0.00000000000E+00 -0.00000000000E+00 -0.27500000000E+03  0.27500000000E+03  0.00000000000E+00 0.  1.
    9000005    2    1    2  501    0  0.44988948717E+02  0.79867375407E+01 -0.52708010741E+02  0.46988306914E+03  0.46467641513E+03 0.  0.
         13    1    3    3    0    0 -0.40323216045E+02  0.22620299136E+03 -0.18877521614E+00  0.22976899419E+03  0.00000000000E+00 0.  1.
          3    1    3    3  501    0  0.85312164762E+02 -0.21821625382E+03 -0.52519235525E+02  0.24011407495E+03  0.00000000000E+00 0.  1.
         21    1    1    2  502  501 -0.44988948717E+02 -0.79867375407E+01  0.24381562188E+02  0.51790482310E+02  0.00000000000E+00 0.  1.
<scales pt_clust_4="550.00000" pt_clust_5="550.00000" pt_clust_6="45.69238"></scales>
<mgrwt>
<rscale>  0 0.30000000E+03</rscale>
<asrwt>  1 0.45692379E+02</asrwt>
<pdfrwt beam="1">  1        1 0.89699473E+00 0.30000000E+03</pdfrwt>
<pdfrwt beam="2">0</pdfrwt>
<totfact> 0.11409867E-04</totfact>
</mgrwt>
<clustering>
<clus scale="   45.692">  1  6  2 -1</clus>
<clus scale="  464.676">  4  5 -1 -1</clus>
<clus scale="  300.000">  1  4  2 -1</clus>
</clustering>
</event>
<event>
 6    1  0.1000035E-011  0.3000000E+03  0.7818608E-02  0.1093470E+00
          1   -1    0    0  502    0  0.00000000000E+00  0.00000000000E+00  0.22380038307E+03  0.22380038307E+03  0.00000000000E+00 0.  1.
         13   -1    0    0    0    0 -0.00000000000E+00 -0.00000000000E+00 -0.27500000000E+03  0.27500000000E+03  0.00000000000E+00 0.  1.
    9000005    2    1    2  501    0  0.16372255003E+01  0.33138508325E+02 -0.35327209804E+02  0.46202029947E+03  0.45947133113E+03 0.  0.
         13    1    3    3    0    0 -0.10427531724E+03 -0.14635229743E+03  0.10746828170E+03  0.20938425997E+03  0.00000000000E+00 0.  1.
          3    1    3    3  501    0  0.10591254274E+03  0.17949080576E+03 -0.14279549150E+03  0.25263603950E+03  0.00000000000E+00 0.  1.
         21    1    1    2  502  501 -0.16372255003E+01 -0.33138508325E+02 -0.15872407131E+02  0.36780083598E+02  0.00000000000E+00 0.  1.
<scales pt_clust_4="550.00000" pt_clust_5="550.00000" pt_clust_6="33.17894"></scales>
<mgrwt>
<rscale>  0 0.30000000E+03</rscale>
<asrwt>  1 0.33178944E+02</asrwt>
<pdfrwt beam="1">  1        1 0.81381957E+00 0.30000000E+03</pdfrwt>
<pdfrwt beam="2">0</pdfrwt>
<totfact> 0.82184907E-04</totfact>
</mgrwt>
<clustering>
<clus scale="   33.179">  1  6  2 -1</clus>
<clus scale="  459.471">  4  5 -1 -1</clus>
<clus scale="  300.000">  1  4  2 -1</clus>
</clustering>
</event>
<event>
 6    1  0.1000035E-011  0.3000000E+03  0.7818608E-02  0.1093470E+00
          1   -1    0    0  502    0  0.00000000000E+00  0.00000000000E+00  0.22401725133E+03  0.22401725133E+03  0.00000000000E+00 0.  1.
         13   -1    0    0    0    0 -0.00000000000E+00 -0.00000000000E+00 -0.27500000000E+03  0.27500000000E+03  0.00000000000E+00 0.  1.
    9000005    2    1    2  501    0 -0.26534837173E+02  0.14793500499E+02 -0.66728100879E+02  0.46479939989E+03  0.45898028002E+03 0.  0.
         13    1    3    3    0    0 -0.13391798738E+03 -0.15231058252E+03 -0.14708052201E+03  0.25052988015E+03  0.00000000000E+00 0.  1.
          3    1    3    3  501    0  0.10738315020E+03  0.16710408302E+03  0.80352421134E+02  0.21426951974E+03  0.00000000000E+00 0.  1.
         21    1    1    2  502  501  0.26534837173E+02 -0.14793500499E+02  0.15745352204E+02  0.34217851435E+02  0.00000000000E+00 0.  1.
<scales pt_clust_4="550.00000" pt_clust_5="550.00000" pt_clust_6="30.38001"></scales>
<mgrwt>
<rscale>  0 0.30000000E+03</rscale>
<asrwt>  1 0.30380014E+02</asrwt>
<pdfrwt beam="1">  1        1 0.81460819E+00 0.30000000E+03</pdfrwt>
<pdfrwt beam="2">0</pdfrwt>
<totfact> 0.82366588E-04</totfact>
</mgrwt>
<clustering>
<clus scale="   30.380">  1  6  2 -1</clus>
<clus scale="  458.980">  4  5 -1 -1</clus>
<clus scale="  300.000">  1  4  2 -1</clus>
</clustering>
</event>
<event>
 6    1  0.1000035E-011  0.3000000E+03  0.7818608E-02  0.1093470E+00
          1   -1    0    0  502    0  0.00000000000E+00  0.00000000000E+00  0.24175419888E+03  0.24175419888E+03  0.00000000000E+00 0.  1.
         13   -1    0    0    0    0 -0.00000000000E+00 -0.00000000000E+00 -0.27500000000E+03  0.27500000000E+03  0.00000000000E+00 0.  1.
    9000005    2    1    2  501    0 -0.29931882330E+02  0.58401045856E+01 -0.21203523766E+02  0.48396638338E+03  0.48253895845E+03 0.  0.
         13    1    3    3    0    0  0.72026378054E+02  0.21833607004E+03 -0.75711227080E+02  0.24205501136E+03  0.00000000000E+00 0.  1.
          3    1    3    3  501    0 -0.10195826038E+03 -0.21249596546E+03  0.54507703314E+02  0.24191137203E+03  0.00000000000E+00 0.  1.
         21    1    1    2  502  501  0.29931882330E+02 -0.58401045856E+01 -0.12042277352E+02  0.32787815499E+02  0.00000000000E+00 0.  1.
<scales pt_clust_4="550.00000" pt_clust_5="550.00000" pt_clust_6="30.49632"></scales>
<mgrwt>
<rscale>  0 0.30000000E+03</rscale>
<asrwt>  1 0.30496317E+02</asrwt>
<pdfrwt beam="1">  1        1 0.87910618E+00 0.30000000E+03</pdfrwt>
<pdfrwt beam="2">0</pdfrwt>
<totfact> 0.20772258E-04</totfact>
</mgrwt>
<clustering>
<clus scale="   30.496">  1  6  2 -1</clus>
<clus scale="  482.539">  4  5 -1 -1</clus>
<clus scale="  300.000">  1  4  2 -1</clus>
</clustering>
</event>
<event>
 6    1  0.1000035E-011  0.3000000E+03  0.7818608E-02  0.1093470E+00
          1   -1    0    0  502    0  0.00000000000E+00  0.00000000000E+00  0.23513806943E+03  0.23513806943E+03  0.00000000000E+00 0.  1.
         13   -1    0    0    0    0 -0.00000000000E+00 -0.00000000000E+00 -0.27500000000E+03  0.27500000000E+03  0.00000000000E+00 0.  1.
    9000005    2    1    2  501    0  0.30010223079E+02 -0.25878058430E+02 -0.43339255062E+02  0.47035893943E+03  0.46667864048E+03 0.  0.
         13    1    3    3    0    0  0.16812811497E+03 -0.31524404957E+02  0.15349820077E+03  0.22983156613E+03  0.00000000000E+00 0.  1.
          3    1    3    3  501    0 -0.13811789189E+03  0.56463465272E+01 -0.19683745583E+03  0.24052737330E+03  0.00000000000E+00 0.  1.
         21    1    1    2  502  501 -0.30010223079E+02  0.25878058430E+02  0.34773244873E+01  0.39779129992E+02  0.00000000000E+00 0. -1.
<scales pt_clust_4="550.00000" pt_clust_5="550.00000" pt_clust_6="39.62685"></scales>
<mgrwt>
<rscale>  0 0.30000000E+03</rscale>
<asrwt>  1 0.39626852E+02</asrwt>
<pdfrwt beam="1">  1        1 0.85504753E+00 0.30000000E+03</pdfrwt>
<pdfrwt beam="2">0</pdfrwt>
<totfact> 0.35568063E-04</totfact>
</mgrwt>
<clustering>
<clus scale="   39.627">  1  6  2 -1</clus>
<clus scale="  466.679">  4  5 -1 -1</clus>
<clus scale="  300.000">  1  4  2 -1</clus>
</clustering>
</event>
<event>
 6    1  0.1000035E-011  0.3000000E+03  0.7818608E-02  0.1093470E+00
          1   -1    0    0  502    0  0.00000000000E+00  0.00000000000E+00  0.23392623975E+03  0.23392623975E+03  0.00000000000E+00 0.  1.
         13   -1    0    0    0    0 -0.00000000000E+00 -0.00000000000E+00 -0.27500000000E+03  0.27500000000E+03  0.00000000000E+00 0.  1.
    9000005    2    1    2  501    0 -0.25780622210E+02  0.29130641765E+02 -0.54437997185E+02  0.46779428623E+03  0.46298462601E+03 0.  0.
         13    1    3    3    0    0  0.10942606867E+03 -0.10578050098E+03 -0.18265104353E+03  0.23774983195E+03  0.00000000000E+00 0.  1.
          1    1    3    3  501    0 -0.13520669088E+03  0.13491114274E+03  0.12821304634E+03  0.23004445428E+03  0.00000000000E+00 0.  1.
         21    1    1    2  502  501  0.25780622210E+02 -0.29130641765E+02  0.13364236935E+02  0.41131953516E+02  0.00000000000E+00 0.  1.
<scales pt_clust_4="550.00000" pt_clust_5="550.00000" pt_clust_6="38.90032"></scales>
<mgrwt>
<rscale>  0 0.30000000E+03</rscale>
<asrwt>  1 0.38900318E+02</asrwt>
<pdfrwt beam="1">  1        1 0.85064087E+00 0.30000000E+03</pdfrwt>
<pdfrwt beam="2">0</pdfrwt>
<totfact> 0.39359139E-04</totfact>
</mgrwt>
<clustering>
<clus scale="   38.900">  1  6  2 -1</clus>
<clus scale="  462.985">  4  5 -1 -1</clus>
<clus scale="  300.000">  1  4  2 -1</clus>
</clustering>
</event>
<event>
 6    1  0.1000035E-011  0.3000000E+03  0.7818608E-02  0.1093470E+00
          1   -1    0    0  502    0  0.00000000000E+00  0.00000000000E+00  0.22499219673E+03  0.22499219673E+03  0.00000000000E+00 0.  1.
         13   -1    0    0    0    0 -0.00000000000E+00 -0.00000000000E+00 -0.27500000000E+03  0.27500000000E+03  0.00000000000E+00 0.  1.
    9000005    2    1    2  501    0 -0.24796072380E+02 -0.19365596196E+02 -0.64823116757E+02  0.46521627064E+03  0.45960229600E+03 0.  0.
         13    1    3    3    0    0  0.37361856837E+02  0.19042518813E+03  0.72194961861E+02  0.20705017058E+03  0.00000000000E+00 0.  1.
          1    1    3    3  501    0 -0.62157929217E+02 -0.20979078433E+03 -0.13701807862E+03  0.25816610006E+03  0.00000000000E+00 0.  1.
         21    1    1    2  502  501  0.24796072380E+02  0.19365596196E+02  0.14815313489E+02  0.34775926087E+02  0.00000000000E+00 0. -1.
<scales pt_clust_4="550.00000" pt_clust_5="550.00000" pt_clust_6="31.46222"></scales>
<mgrwt>
<rscale>  0 0.30000000E+03</rscale>
<asrwt>  1 0.31462224E+02</asrwt>
<pdfrwt beam="1">  1        1 0.81815344E+00 0.30000000E+03</pdfrwt>
<pdfrwt beam="2">0</pdfrwt>
<totfact> 0.76524629E-04</totfact>
</mgrwt>
<clustering>
<clus scale="   31.462">  1  6  2 -1</clus>
<clus scale="  459.602">  4  5 -1 -1</clus>
<clus scale="  300.000">  1  4  2 -1</clus>
</clustering>
</event>
<event>
 6    1  0.1000035E-011  0.3000000E+03  0.7818608E-02  0.1093470E+00
          1   -1    0    0  502    0  0.00000000000E+00  0.00000000000E+00  0.24119449602E+03  0.24119449602E+03  0.00000000000E+00 0.  1.
         13   -1    0    0    0    0 -0.00000000000E+00 -0.00000000000E+00 -0.27500000000E+03  0.27500000000E+03  0.00000000000E+00 0.  1.
    9000005    2    1    2  501    0 -0.29633012908E+02 -0.16769610494E+02 -0.70239381256E+02  0.46632704468E+03  0.45974776414E+03 0.  0.
         13    1    3    3    0    0  0.21092306902E+03 -0.52051394964E+02 -0.45283040638E+02  0.22191990116E+03  0.00000000000E+00 0.  1.
          1    1    3    3  501    0 -0.24055608192E+03  0.35281784470E+02 -0.24956340617E+02  0.24440714352E+03  0.00000000000E+00 0.  1.
         21    1    1    2  502  501  0.29633012908E+02  0.16769610494E+02  0.36433877280E+02  0.49867451346E+02  0.00000000000E+00 0.  1.
<scales pt_clust_4="550.00000" pt_clust_5="550.00000" pt_clust_6="34.04901"></scales>
<mgrwt>
<rscale>  0 0.30000000E+03</rscale>
<asrwt>  1 0.34049013E+02</asrwt>
<pdfrwt beam="1">  1        1 0.87707089E+00 0.30000000E+03</pdfrwt>
<pdfrwt beam="2">0</pdfrwt>
<totfact> 0.21470930E-04</totfact>
</mgrwt>
<clustering>
<clus scale="   34.049">  1  6  2 -1</clus>
<clus scale="  459.748">  4  5 -1 -1</clus>
<clus scale="  300.000">  1  4  2 -1</clus>
</clustering>
</event>
<event>
 6    1  0.1000035E-011  0.3000000E+03  0.7818608E-02  0.1093470E+00
          1   -1    0    0  502    0  0.00000000000E+00  0.00000000000E+00  0.24920517521E+03  0.24920517521E+03  0.00000000000E+00 0.  1.
         13   -1    0    0    0    0 -0.00000000000E+00 -0.00000000000E+00 -0.27500000000E+03  0.27500000000E+03  0.00000000000E+00 0.  1.
    9000005    2    1    2  501    0 -0.51295054036E+02 -0.16242851636E+02 -0.53715248026E+02  0.46358700276E+03  0.45731014471E+03 0.  0.
         13    1    3    3    0    0 -0.16681050213E+03 -0.18913811356E+03 -0.38328474954E+02  0.25508438136E+03  0.00000000000E+00 0.  1.
          3    1    3    3  501    0  0.11551544810E+03  0.17289526192E+03 -0.15386773072E+02  0.20850262140E+03  0.00000000000E+00 0.  1.
         21    1    1    2  502  501  0.51295054036E+02  0.16242851636E+02  0.27920423233E+02  0.60618172451E+02  0.00000000000E+00 0.  1.
<scales pt_clust_4="550.00000" pt_clust_5="550.00000" pt_clust_6="53.80532"></scales>
<mgrwt>
<rscale>  0 0.30000000E+03</rscale>
<asrwt>  1 0.53805323E+02</asrwt>
<pdfrwt beam="1">  1        1 0.90620064E+00 0.30000000E+03</pdfrwt>
<pdfrwt beam="2">0</pdfrwt>
<totfact> 0.81043235E-05</totfact>
</mgrwt>
<clustering>
<clus scale="   53.805">  1  6  2 -1</clus>
<clus scale="  457.310">  4  5 -1 -1</clus>
<clus scale="  300.000">  1  4  2 -1</clus>
</clustering>
</event>
<event>
 6    1  0.1000035E-011  0.3000000E+03  0.7818608E-02  0.1093470E+00
          1   -1    0    0  502    0  0.00000000000E+00  0.00000000000E+00  0.23951481043E+03  0.23951481043E+03  0.00000000000E+00 0.  1.
         13   -1    0    0    0    0 -0.00000000000E+00 -0.00000000000E+00 -0.27500000000E+03  0.27500000000E+03  0.00000000000E+00 0.  1.
    9000005    2    1    2  501    0 -0.45220062943E+02 -0.10655620639E+02 -0.23228570697E+02  0.46646669860E+03  0.46356576455E+03 0.  0.
         13    1    3    3    0    0  0.25937602590E+02  0.80051188673E+02 -0.22159356018E+03  0.23703303135E+03  0.00000000000E+00 0.  1.
          3    1    3    3  501    0 -0.71157665533E+02 -0.90706809312E+02  0.19836498948E+03  0.22943366726E+03  0.00000000000E+00 0.  1.
         21    1    1    2  502  501  0.45220062943E+02  0.10655620639E+02 -0.12256618874E+02  0.48048111825E+02  0.00000000000E+00 0. -1.
<scales pt_clust_4="550.00000" pt_clust_5="550.00000" pt_clust_6="46.45857"></scales>
<mgrwt>
<rscale>  0 0.30000000E+03</rscale>
<asrwt>  1 0.46458568E+02</asrwt>
<pdfrwt beam="1">  1        1 0.87096295E+00 0.30000000E+03</pdfrwt>
<pdfrwt beam="2">0</pdfrwt>
<totfact> 0.23512503E-04</totfact>
</mgrwt>
<clustering>
<clus scale="   46.459">  1  6  2 -1</clus>
<clus scale="  463.566">  4  5 -1 -1</clus>
<clus scale="  300.000">  1  4  2 -1</clus>
</clustering>
</event>
<event>
 6    1  0.1000035E-011  0.3000000E+03  0.7818608E-02  0.1093470E+00
          1   -1    0    0  502    0  0.00000000000E+00  0.00000000000E+00  0.22277662136E+03  0.22277662136E+03  0.00000000000E+00 0.  1.
         13   -1    0    0    0    0 -0.00000000000E+00 -0.00000000000E+00 -0.27500000000E+03  0.27500000000E+03  0.00000000000E+00 0.  1.
    9000005    2    1    2  501    0 -0.19915702153E+02 -0.24567977344E+02 -0.43228578898E+02  0.46489612371E+03  0.46180025455E+03 0.  0.
         13    1    3    3    0    0  0.30580878034E+01 -0.10389826243E+03  0.19049570579E+03  0.21700878960E+03  0.00000000000E+00 0.  1.
          3    1    3    3  501    0 -0.22973789956E+02  0.79330285086E+02 -0.23372428469E+03  0.24788733411E+03  0.00000000000E+00 0.  1.
         21    1    1    2  502  501  0.19915702153E+02  0.24567977344E+02 -0.89947997460E+01  0.32880497647E+02  0.00000000000E+00 0. -1.
<scales pt_clust_4="550.00000" pt_clust_5="550.00000" pt_clust_6="31.62628"></scales>
<mgrwt>
<rscale>  0 0.30000000E+03</rscale>
<asrwt>  1 0.31626282E+02</asrwt>
<pdfrwt beam="1">  1        1 0.81009680E+00 0.30000000E+03</pdfrwt>
<pdfrwt beam="2">0</pdfrwt>
<totfact> 0.88745269E-04</totfact>
</mgrwt>
<clustering>
<clus scale="   31.626">  1  6  2 -1</clus>
<clus scale="  461.800">  4  5 -1 -1</clus>
<clus scale="  300.000">  1  4  2 -1</clus>
</clustering>
</event>
<event>
 6    1  0.1000035E-011  0.3000000E+03  0.7818608E-02  0.1093470E+00
          1   -1    0    0  502    0  0.00000000000E+00  0.00000000000E+00  0.23931931856E+03  0.23931931856E+03  0.00000000000E+00 0.  1.
         13   -1    0    0    0    0 -0.00000000000E+00 -0.00000000000E+00 -0.27500000000E+03  0.27500000000E+03  0.00000000000E+00 0.  1.
    9000005    2    1    2  501    0  0.32612089536E+02 -0.23270300701E+02 -0.40482624822E+02  0.47396942465E+03  0.47053492677E+03 0.  0.
         13    1    3    3    0    0  0.19733083117E+02 -0.24359713704E+03 -0.62242121301E+02  0.25219643417E+03  0.00000000000E+00 0.  1.
          3    1    3    3  501    0  0.12879006419E+02  0.22032683634E+03  0.21759496480E+02  0.22177299048E+03  0.00000000000E+00 0.  1.
         21    1    1    2  502  501 -0.32612089536E+02  0.23270300701E+02  0.48019433838E+01  0.40349893914E+02  0.00000000000E+00 0.  1.
<scales pt_clust_4="550.00000" pt_clust_5="550.00000" pt_clust_6="40.06314"></scales>
<mgrwt>
<rscale>  0 0.30000000E+03</rscale>
<asrwt>  1 0.40063141E+02</asrwt>
<pdfrwt beam="1">  1        1 0.87025207E+00 0.30000000E+03</pdfrwt>
<pdfrwt beam="2">0</pdfrwt>
<totfact> 0.24554733E-04</totfact>
</mgrwt>
<clustering>
<clus scale="   40.063">  1  6  2 -1</clus>
<clus scale="  470.535">  4  5 -1 -1</clus>
<clus scale="  300.000">  1  4  2 -1</clus>
</clustering>
</event>
<event>
 6    1  0.1000035E-011  0.3000000E+03  0.7818608E-02  0.1093470E+00
          1   -1    0    0  502    0  0.00000000000E+00  0.00000000000E+00  0.24042796060E+03  0.24042796060E+03  0.00000000000E+00 0.  1.
         13   -1    0    0    0    0 -0.00000000000E+00 -0.00000000000E+00 -0.27500000000E+03  0.27500000000E+03  0.00000000000E+00 0.  1.
    9000005    2    1    2  501    0  0.18072897297E+02  0.35145897894E+02 -0.42833690190E+02  0.47505323299E+03  0.47146472339E+03 0.  0.
         13    1    3    3    0    0 -0.20984019656E+03 -0.41234010746E+02 -0.86614459464E+02  0.23072758032E+03  0.00000000000E+00 0.  1.
          1    1    3    3  501    0  0.22791309385E+03  0.76379908640E+02  0.43780769274E+02  0.24432565267E+03  0.00000000000E+00 0.  1.
         21    1    1    2  502  501 -0.18072897297E+02 -0.35145897894E+02  0.82616507873E+01  0.40374727605E+02  0.00000000000E+00 0.  1.
<scales pt_clust_4="550.00000" pt_clust_5="550.00000" pt_clust_6="39.52042"></scales>
<mgrwt>
<rscale>  0 0.30000000E+03</rscale>
<asrwt>  1 0.39520422E+02</asrwt>
<pdfrwt beam="1">  1        1 0.87428349E+00 0.30000000E+03</pdfrwt>
<pdfrwt beam="2">0</pdfrwt>
<totfact> 0.22377776E-04</totfact>
</mgrwt>
<clustering>
<clus scale="   39.520">  1  6  2 -1</clus>
<clus scale="  471.465">  4  5 -1 -1</clus>
<clus scale="  300.000">  1  4  2 -1</clus>
</clustering>
</event>
