<event>
 6    1  0.7004824E-003  0.6550325E+03  0.7818608E-02  0.9797382E-01
          1   -1    0    0  502    0  0.00000000000E+00  0.00000000000E+00  0.10943205675E+03  0.10943205675E+03  0.00000000000E+00 0.  1.
         13   -1    0    0    0    0 -0.00000000000E+00 -0.00000000000E+00 -0.10000000000E+04  0.10000000000E+04  0.00000000000E+00 0.  1.
    9000005    2    1    2  501    0 -0.11394800276E+00 -0.67493037490E-01 -0.89273085329E+03  0.11072650959E+04  0.65503251726E+03 0.  0.
         13    1    3    3    0    0  0.15801853400E+03 -0.44929910173E+02  0.32568607526E+02  0.16747915724E+03  0.00000000000E+00 0.  1.
          1    1    3    3  501    0 -0.15813248200E+03  0.44862417136E+02 -0.92529946081E+03  0.93978593867E+03  0.00000000000E+00 0.  1.
         21    1    1    2  502  501  0.11394800276E+00  0.67493037490E-01  0.21629100337E+01  0.21669608375E+01  0.00000000000E+00 0.  1.
<mgrwt>
<rscale>  1 0.65503253E+03</rscale>
<asrwt>0</asrwt>
<pdfrwt beam="1">  1        1 0.39793559E+00 0.65503253E+03</pdfrwt>
<pdfrwt beam="2">0</pdfrwt>
<totfact> 0.13652068E+00</totfact>
</mgrwt>
</event>
<event>
 6    1  0.7004824E-003  0.6457325E+03  0.7818608E-02  0.9814820E-01
          1   -1    0    0  502    0  0.00000000000E+00  0.00000000000E+00  0.10893482798E+03  0.10893482798E+03  0.00000000000E+00 0.  1.
         13   -1    0    0    0    0 -0.00000000000E+00 -0.00000000000E+00 -0.10000000000E+04  0.10000000000E+04  0.00000000000E+00 0.  1.
    9000005    2    1    2  501    0 -0.15711315188E+01  0.12300184228E+01 -0.89552203385E+03  0.11040516920E+04  0.64572938923E+03 0.  0.
         13    1    3    3    0    0 -0.28110880048E+03  0.26465178256E+02 -0.71907406735E+03  0.77252189464E+03  0.00000000000E+00 0.  1.
          3    1    3    3  501    0  0.27953766896E+03 -0.25235159833E+02 -0.17644796650E+03  0.33152979736E+03  0.00000000000E+00 0.  1.
         21    1    1    2  502  501  0.15711315188E+01 -0.12300184228E+01  0.44568618254E+01  0.48831359699E+01  0.00000000000E+00 0. -1.
<mgrwt>
<rscale>  1 0.64573247E+03</rscale>
<asrwt>0</asrwt>
<pdfrwt beam="1">  1        1 0.39612748E+00 0.64573247E+03</pdfrwt>
<pdfrwt beam="2">0</pdfrwt>
<totfact> 0.13931849E+00</totfact>
</mgrwt>
</event>
<event>
 6    1  0.7004824E-003  0.6232691E+03  0.7818608E-02  0.9858272E-01
          1   -1    0    0  502    0  0.00000000000E+00  0.00000000000E+00  0.97116121448E+02  0.97116121448E+02  0.00000000000E+00 0.  1.
         13   -1    0    0    0    0 -0.00000000000E+00 -0.00000000000E+00 -0.10000000000E+04  0.10000000000E+04  0.00000000000E+00 0.  1.
    9000005    2    1    2  501    0  0.13775259902E-05 -0.13392244796E-04 -0.90288390330E+03  0.10971160933E+04  0.62326910662E+03 0.  0.
         13    1    3    3    0    0 -0.24228448990E+03  0.14612568272E+03 -0.68136732220E+03  0.73777768803E+03  0.00000000000E+00 0.  1.
          1    1    3    3  501    0  0.24228449128E+03 -0.14612569611E+03 -0.22151658111E+03  0.35933840524E+03  0.00000000000E+00 0.  1.
         21    1    1    2  502  501 -0.13775259935E-05  0.13392244802E-04  0.24752755150E-04  0.28177095064E-04  0.00000000000E+00 0. -1.
<mgrwt>
<rscale>  1 0.62326911E+03</rscale>
<asrwt>0</asrwt>
<pdfrwt beam="1">  1        1 0.35315028E+00 0.62326911E+03</pdfrwt>
<pdfrwt beam="2">0</pdfrwt>
<totfact> 0.21625878E+00</totfact>
</mgrwt>
</event>
<event>
 6    1  0.7004824E-003  0.6519642E+03  0.7818608E-02  0.9803101E-01
          1   -1    0    0  502    0  0.00000000000E+00  0.00000000000E+00  0.10626432488E+03  0.10626432488E+03  0.00000000000E+00 0.  1.
         13   -1    0    0    0    0 -0.00000000000E+00 -0.00000000000E+00 -0.10000000000E+04  0.10000000000E+04  0.00000000000E+00 0.  1.
    9000005    2    1    2  501    0  0.46849598334E-05  0.31164631906E-05 -0.89373567790E+03  0.11062643186E+04  0.65196417131E+03 0.  0.
         13    1    3    3    0    0  0.27610605790E+03 -0.12505667559E+03 -0.65041944616E+03  0.71757869482E+03  0.00000000000E+00 0.  1.
          3    1    3    3  501    0 -0.27610605321E+03  0.12505667871E+03 -0.24331623174E+03  0.38868562379E+03  0.00000000000E+00 0.  1.
         21    1    1    2  502  501 -0.46849598443E-05 -0.31164632023E-05  0.27793192313E-05  0.62758112641E-05  0.00000000000E+00 0. -1.
<mgrwt>
<rscale>  1 0.65196417E+03</rscale>
<asrwt>0</asrwt>
<pdfrwt beam="1">  1        1 0.38641654E+00 0.65196417E+03</pdfrwt>
<pdfrwt beam="2">0</pdfrwt>
<totfact> 0.15366915E+00</totfact>
</mgrwt>
</event>
<event>
 6    1  0.7004824E-003  0.6613080E+03  0.7818608E-02  0.9785789E-01
          1   -1    0    0  502    0  0.00000000000E+00  0.00000000000E+00  0.11002882743E+03  0.11002882743E+03  0.00000000000E+00 0.  1.
         13   -1    0    0    0    0 -0.00000000000E+00 -0.00000000000E+00 -0.10000000000E+04  0.10000000000E+04  0.00000000000E+00 0.  1.
    9000005    2    1    2  501    0  0.25261237089E+00 -0.69342083060E-01 -0.89064051878E+03  0.11093100467E+04  0.66130792941E+03 0.  0.
         13    1    3    3    0    0  0.55634085767E+02  0.32545490220E+03 -0.41588915401E+03  0.53101773349E+03  0.00000000000E+00 0.  1.
          1    1    3    3  501    0 -0.55381473396E+02 -0.32552424428E+03 -0.47475136477E+03  0.57829231325E+03  0.00000000000E+00 0.  1.
         21    1    1    2  502  501 -0.25261237089E+00  0.69342083060E-01  0.66934620782E+00  0.71878069001E+00  0.00000000000E+00 0.  1.
<mgrwt>
<rscale>  1 0.66130798E+03</rscale>
<asrwt>0</asrwt>
<pdfrwt beam="1">  1        1 0.40010567E+00 0.66130798E+03</pdfrwt>
<pdfrwt beam="2">0</pdfrwt>
<totfact> 0.13335708E+00</totfact>
</mgrwt>
</event>
<event>
 6    1  0.7004824E-003  0.6495190E+03  0.7818608E-02  0.9807682E-01
          1   -1    0    0  502    0  0.00000000000E+00  0.00000000000E+00  0.10611666184E+03  0.10611666184E+03  0.00000000000E+00 0.  1.
         13   -1    0    0    0    0 -0.00000000000E+00 -0.00000000000E+00 -0.10000000000E+04  0.10000000000E+04  0.00000000000E+00 0.  1.
    9000005    2    1    2  501    0 -0.36586527359E-02 -0.13241502759E-01 -0.89453119291E+03  0.11054686615E+04  0.64951898061E+03 0.  0.
         13    1    3    3    0    0  0.63225398015E+02 -0.25947332608E+03 -0.76178473100E+03  0.80724211628E+03  0.00000000000E+00 0.  1.
          1    1    3    3  501    0 -0.63229056668E+02  0.25946008458E+03 -0.13274646191E+03  0.29822654517E+03  0.00000000000E+00 0.  1.
         21    1    1    2  502  501  0.36586527359E-02  0.13241502759E-01  0.64785475355E+00  0.64800038953E+00  0.00000000000E+00 0.  1.
<mgrwt>
<rscale>  1 0.64951898E+03</rscale>
<asrwt>0</asrwt>
<pdfrwt beam="1">  1        1 0.38587958E+00 0.64951898E+03</pdfrwt>
<pdfrwt beam="2">0</pdfrwt>
<totfact> 0.15458223E+00</totfact>
</mgrwt>
</event>
<event>
 6    1  0.7004824E-003  0.6544114E+03  0.7818608E-02  0.9798537E-01
          1   -1    0    0  502    0  0.00000000000E+00  0.00000000000E+00  0.10724777821E+03  0.10724777821E+03  0.00000000000E+00 0.  1.
         13   -1    0    0    0    0 -0.00000000000E+00 -0.00000000000E+00 -0.10000000000E+04  0.10000000000E+04  0.00000000000E+00 0.  1.
    9000005    2    1    2  501    0 -0.11048306222E+00 -0.15759231941E+00 -0.89287904817E+03  0.11070172857E+04  0.65441136851E+03 0.  0.
         13    1    3    3    0    0 -0.14702935062E+03  0.23621216342E+03 -0.15521661036E+03  0.31860008196E+03  0.00000000000E+00 0.  1.
          1    1    3    3  501    0  0.14691886756E+03 -0.23636975574E+03 -0.73766243781E+03  0.78841720378E+03  0.00000000000E+00 0.  1.
         21    1    1    2  502  501  0.11048306222E+00  0.15759231941E+00  0.12682637511E+00  0.23049246321E+00  0.00000000000E+00 0. -1.
<mgrwt>
<rscale>  1 0.65441140E+03</rscale>
<asrwt>0</asrwt>
<pdfrwt beam="1">  1        1 0.38999274E+00 0.65441140E+03</pdfrwt>
<pdfrwt beam="2">0</pdfrwt>
<totfact> 0.14809666E+00</totfact>
</mgrwt>
</event>
<event>
 6    1  0.7004824E-003  0.6621736E+03  0.7818608E-02  0.9784201E-01
          1   -1    0    0  502    0  0.00000000000E+00  0.00000000000E+00  0.10962078150E+03  0.10962078150E+03  0.00000000000E+00 0.  1.
         13   -1    0    0    0    0 -0.00000000000E+00 -0.00000000000E+00 -0.10000000000E+04  0.10000000000E+04  0.00000000000E+00 0.  1.
    9000005    2    1    2  501    0  0.52433147218E-03 -0.11427028302E-02 -0.89038135758E+03  0.11096183003E+04  0.66217355009E+03 0.  0.
         13    1    3    3    0    0 -0.23992472712E+03  0.50666549154E+02 -0.72413708795E+02  0.25568480421E+03  0.00000000000E+00 0.  1.
          3    1    3    3  501    0  0.23992525145E+03 -0.50667691856E+02 -0.81796764878E+03  0.85393349609E+03  0.00000000000E+00 0.  1.
         21    1    1    2  502  501 -0.52433147216E-03  0.11427028302E-02  0.21390821305E-02  0.24812024528E-02  0.00000000000E+00 0.  1.
<mgrwt>
<rscale>  1 0.66217355E+03</rscale>
<asrwt>0</asrwt>
<pdfrwt beam="1">  1        1 0.39862186E+00 0.66217355E+03</pdfrwt>
<pdfrwt beam="2">0</pdfrwt>
<totfact> 0.13538169E+00</totfact>
</mgrwt>
</event>
<event>
 6    1  0.7004824E-003  0.6577935E+03  0.7818608E-02  0.9792264E-01
          1   -1    0    0  502    0  0.00000000000E+00  0.00000000000E+00  0.10819916528E+03  0.10819916528E+03  0.00000000000E+00 0.  1.
         13   -1    0    0    0    0 -0.00000000000E+00 -0.00000000000E+00 -0.10000000000E+04  0.10000000000E+04  0.00000000000E+00 0.  1.
    9000005    2    1    2  501    0 -0.52527892949E-01 -0.59272415556E-02 -0.89179290290E+03  0.11081457123E+04  0.65779353534E+03 0.  0.
         13    1    3    3    0    0 -0.18375606940E+02 -0.17935448279E+03  0.17511572825E+02  0.18114179146E+03  0.00000000000E+00 0.  1.
          3    1    3    3  501    0  0.18323079047E+02  0.17934855555E+03 -0.90930447573E+03  0.92700392080E+03  0.00000000000E+00 0.  1.
         21    1    1    2  502  501  0.52527892949E-01  0.59272415556E-02 -0.79318153654E-02  0.53453020730E-01  0.00000000000E+00 0. -1.
<mgrwt>
<rscale>  1 0.65779354E+03</rscale>
<asrwt>0</asrwt>
<pdfrwt beam="1">  1        1 0.39345234E+00 0.65779354E+03</pdfrwt>
<pdfrwt beam="2">0</pdfrwt>
<totfact> 0.14286169E+00</totfact>
</mgrwt>
</event>
<event>
 6    1  0.7004824E-003  0.6423465E+03  0.7818608E-02  0.9821247E-01
          1   -1    0    0  502    0  0.00000000000E+00  0.00000000000E+00  0.10315248701E+03  0.10315248701E+03  0.00000000000E+00 0.  1.
         13   -1    0    0    0    0 -0.00000000000E+00 -0.00000000000E+00 -0.10000000000E+04  0.10000000000E+04  0.00000000000E+00 0.  1.
    9000005    2    1    2  501    0 -0.50740664599E-03 -0.44380756094E-03 -0.89684685690E+03  0.11031515463E+04  0.64234651818E+03 0.  0.
         13    1    3    3    0    0  0.26821421923E+02  0.24799393299E+03 -0.79587611418E+03  0.83404985978E+03  0.00000000000E+00 0.  1.
          1    1    3    3  501    0 -0.26821929330E+02 -0.24799437679E+03 -0.10097074271E+03  0.26910168654E+03  0.00000000000E+00 0.  1.
         21    1    1    2  502  501  0.50740664599E-03  0.44380756094E-03 -0.65609764505E-03  0.94068633209E-03  0.00000000000E+00 0. -1.
<mgrwt>
<rscale>  1 0.64234652E+03</rscale>
<asrwt>0</asrwt>
<pdfrwt beam="1">  1        1 0.37510074E+00 0.64234652E+03</pdfrwt>
<pdfrwt beam="2">0</pdfrwt>
<totfact> 0.17270416E+00</totfact>
</mgrwt>
</event>
<event>
 6    1  0.7004824E-003  0.6527964E+03  0.7818608E-02  0.9801546E-01
          1   -1    0    0  502    0  0.00000000000E+00  0.00000000000E+00  0.10653765583E+03  0.10653765583E+03  0.00000000000E+00 0.  1.
         13   -1    0    0    0    0 -0.00000000000E+00 -0.00000000000E+00 -0.10000000000E+04  0.10000000000E+04  0.00000000000E+00 0.  1.
    9000005    2    1    2  501    0  0.10331030985E-02 -0.20222554696E-03 -0.89346405055E+03  0.11065356508E+04  0.65279639779E+03 0.  0.
         13    1    3    3    0    0  0.49983124486E+02 -0.26779936886E+03 -0.75147301831E+03  0.79932878839E+03  0.00000000000E+00 0.  1.
          3    1    3    3  501    0 -0.49982091382E+02  0.26779916663E+03 -0.14199103224E+03  0.30720686246E+03  0.00000000000E+00 0.  1.
         21    1    1    2  502  501 -0.10331030985E-02  0.20222554697E-03  0.17063821824E-02  0.20049781386E-02  0.00000000000E+00 0.  1.
<mgrwt>
<rscale>  1 0.65279640E+03</rscale>
<asrwt>0</asrwt>
<pdfrwt beam="1">  1        1 0.38741047E+00 0.65279640E+03</pdfrwt>
<pdfrwt beam="2">0</pdfrwt>
<totfact> 0.15209645E+00</totfact>
</mgrwt>
</event>
<event>
 6    1  0.7004824E-003  0.6670342E+03  0.7818608E-02  0.9775330E-01
          1   -1    0    0  502    0  0.00000000000E+00  0.00000000000E+00  0.12738915730E+03  0.12738915730E+03  0.00000000000E+00 0.  1.
         13   -1    0    0    0    0 -0.00000000000E+00 -0.00000000000E+00 -0.10000000000E+04  0.10000000000E+04  0.00000000000E+00 0.  1.
    9000005    2    1    2  501    0  0.22110687000E+02  0.12325841798E+02 -0.87684612788E+03  0.11017231000E+04  0.66655370999E+03 0.  0.
         13    1    3    3    0    0  0.89962313006E+02  0.10621859948E+03 -0.95298581497E+03  0.96309790373E+03  0.00000000000E+00 0.  1.
          3    1    3    3  501    0 -0.67851626005E+02 -0.93892757677E+02  0.76139687096E+02  0.13862519629E+03  0.00000000000E+00 0.  1.
         21    1    1    2  502  501 -0.22110687000E+02 -0.12325841798E+02  0.42352851829E+01  0.25666057279E+02  0.00000000000E+00 0. -1.
<mgrwt>
<rscale>  1 0.66703422E+03</rscale>
<asrwt>0</asrwt>
<pdfrwt beam="1">  1        1 0.46323428E+00 0.66703422E+03</pdfrwt>
<pdfrwt beam="2">0</pdfrwt>
<totfact> 0.68748460E-01</totfact>
</mgrwt>
</event>
<event>
 6    1  0.7004824E-003  0.6914389E+03  0.7818608E-02  0.9731986E-01
          1   -1    0    0  502    0  0.00000000000E+00  0.00000000000E+00  0.12549382065E+03  0.12549382065E+03  0.00000000000E+00 0.  1.
         13   -1    0    0    0    0 -0.00000000000E+00 -0.00000000000E+00 -0.10000000000E+04  0.10000000000E+04  0.00000000000E+00 0.  1.
    9000005    2    1    2  501    0  0.10911146805E+00  0.19063622854E-01 -0.88047749209E+03  0.11195214807E+04  0.69143887610E+03 0.  0.
         13    1    3    3    0    0 -0.31897013530E+03 -0.97875917296E+02 -0.58646299759E+03  0.67472993853E+03  0.00000000000E+00 0.  1.
          1    1    3    3  501    0  0.31907924676E+03  0.97894980919E+02 -0.29401449450E+03  0.44479154216E+03  0.00000000000E+00 0.  1.
         21    1    1    2  502  501 -0.10911146805E+00 -0.19063622854E-01  0.59713127441E+01  0.59723399620E+01  0.00000000000E+00 0.  1.
<mgrwt>
<rscale>  1 0.69143888E+03</rscale>
<asrwt>0</asrwt>
<pdfrwt beam="1">  1        1 0.45634213E+00 0.69143888E+03</pdfrwt>
<pdfrwt beam="2">0</pdfrwt>
<totfact> 0.73639233E-01</totfact>
</mgrwt>
</event>
<event>
 6    1  0.7004824E-003  0.6143819E+03  0.7818608E-02  0.9876009E-01
          3   -1    0    0  502    0  0.00000000000E+00  0.00000000000E+00  0.95605582297E+02  0.95605582297E+02  0.00000000000E+00 0.  1.
         13   -1    0    0    0    0 -0.00000000000E+00 -0.00000000000E+00 -0.10000000000E+04  0.10000000000E+04  0.00000000000E+00 0.  1.
    9000005    2    1    2  501    0  0.10103170848E-01  0.16075163476E-01 -0.90563362717E+03  0.10943662274E+04  0.61438194359E+03 0.  0.
         13    1    3    3    0    0  0.12185975222E+03 -0.12058137265E+03  0.12315113697E+01  0.17143856993E+03  0.00000000000E+00 0.  1.
          3    1    3    3  501    0 -0.12184964904E+03  0.12059744781E+03 -0.90686513854E+03  0.92292765746E+03  0.00000000000E+00 0.  1.
         21    1    1    2  502  501 -0.10103170848E-01 -0.16075163476E-01  0.12392094701E+01  0.12393549111E+01  0.00000000000E+00 0.  1.
<mgrwt>
<rscale>  1 0.61438194E+03</rscale>
<asrwt>0</asrwt>
<pdfrwt beam="1">  1        3 0.34765740E+00 0.61438194E+03</pdfrwt>
<pdfrwt beam="2">0</pdfrwt>
<totfact> 0.11270748E-01</totfact>
</mgrwt>
</event>
<event>
 6    1  0.7004824E-003  0.6497656E+03  0.7818608E-02  0.9807219E-01
          1   -1    0    0  502    0  0.00000000000E+00  0.00000000000E+00  0.10555112288E+03  0.10555112288E+03  0.00000000000E+00 0.  1.
         13   -1    0    0    0    0 -0.00000000000E+00 -0.00000000000E+00 -0.10000000000E+04  0.10000000000E+04  0.00000000000E+00 0.  1.
    9000005    2    1    2  501    0  0.57679560854E-04 -0.16802561977E-04 -0.89445115275E+03  0.11055488465E+04  0.64976564025E+03 0.  0.
         13    1    3    3    0    0 -0.71080925252E+02 -0.59688110678E+01 -0.98651180006E+03  0.98908728446E+03  0.00000000000E+00 0.  1.
          1    1    3    3  501    0  0.71080982931E+02  0.59687942653E+01  0.92060647308E+02  0.11646156199E+03  0.00000000000E+00 0.  1.
         21    1    1    2  502  501 -0.57679560842E-04  0.16802561977E-04  0.22756257427E-02  0.22764186299E-02  0.00000000000E+00 0. -1.
<mgrwt>
<rscale>  1 0.64976564E+03</rscale>
<asrwt>0</asrwt>
<pdfrwt beam="1">  1        1 0.38382307E+00 0.64976564E+03</pdfrwt>
<pdfrwt beam="2">0</pdfrwt>
<totfact> 0.15784662E+00</totfact>
</mgrwt>
</event>
<event>
 6    1  0.7004824E-003  0.6553676E+03  0.7818608E-02  0.9796759E-01
          1   -1    0    0  502    0  0.00000000000E+00  0.00000000000E+00  0.10738591031E+03  0.10738591031E+03  0.00000000000E+00 0.  1.
         13   -1    0    0    0    0 -0.00000000000E+00 -0.00000000000E+00 -0.10000000000E+04  0.10000000000E+04  0.00000000000E+00 0.  1.
    9000005    2    1    2  501    0 -0.28044211663E-01 -0.18193592479E-02 -0.89257927263E+03  0.11073411664E+04  0.65536760686E+03 0.  0.
         13    1    3    3    0    0  0.10461062362E+02  0.29795322409E+03 -0.67604462779E+03  0.73886527618E+03  0.00000000000E+00 0.  1.
          3    1    3    3  501    0 -0.10489106573E+02 -0.29795504345E+03 -0.21653464484E+03  0.36847589024E+03  0.00000000000E+00 0.  1.
         21    1    1    2  502  501  0.28044211663E-01  0.18193592479E-02 -0.34817059694E-01  0.44743888092E-01  0.00000000000E+00 0. -1.
<mgrwt>
<rscale>  1 0.65536761E+03</rscale>
<asrwt>0</asrwt>
<pdfrwt beam="1">  1        1 0.39049504E+00 0.65536761E+03</pdfrwt>
<pdfrwt beam="2">0</pdfrwt>
<totfact> 0.14731276E+00</totfact>
</mgrwt>
</event>
<event>
 6    1  0.7004824E-003  0.6484477E+03  0.7818608E-02  0.9809696E-01
          1   -1    0    0  502    0  0.00000000000E+00  0.00000000000E+00  0.10536879357E+03  0.10536879357E+03  0.00000000000E+00 0.  1.
         13   -1    0    0    0    0 -0.00000000000E+00 -0.00000000000E+00 -0.10000000000E+04  0.10000000000E+04  0.00000000000E+00 0.  1.
    9000005    2    1    2  501    0 -0.41925958632E-02  0.58376361179E-03 -0.89487888425E+03  0.11051210796E+04  0.64844767177E+03 0.  0.
         13    1    3    3    0    0 -0.20690451391E+03 -0.17432969977E+03 -0.75193374050E+03  0.79912744428E+03  0.00000000000E+00 0.  1.
          3    1    3    3  501    0  0.20690032132E+03  0.17433028353E+03 -0.14294514375E+03  0.30599363529E+03  0.00000000000E+00 0.  1.
         21    1    1    2  502  501  0.41925958632E-02 -0.58376361177E-03  0.24767781928E+00  0.24771398993E+00  0.00000000000E+00 0. -1.
<mgrwt>
<rscale>  1 0.64844767E+03</rscale>
<asrwt>0</asrwt>
<pdfrwt beam="1">  1        1 0.38316006E+00 0.64844767E+03</pdfrwt>
<pdfrwt beam="2">0</pdfrwt>
<totfact> 0.15895393E+00</totfact>
</mgrwt>
</event>
<event>
 6    1  0.7004824E-003  0.6559693E+03  0.7818608E-02  0.9795642E-01
          1   -1    0    0  502    0  0.00000000000E+00  0.00000000000E+00  0.10895439159E+03  0.10895439159E+03  0.00000000000E+00 0.  1.
         13   -1    0    0    0    0 -0.00000000000E+00 -0.00000000000E+00 -0.10000000000E+04  0.10000000000E+04  0.00000000000E+00 0.  1.
    9000005    2    1    2  501    0 -0.29277410514E+00  0.85918543460E-01 -0.89240737791E+03  0.11075588577E+04  0.65596920812E+03 0.  0.
         13    1    3    3    0    0  0.25258649825E+03 -0.13376399240E+03 -0.17484678356E+03  0.33505841652E+03  0.00000000000E+00 0.  1.
          1    1    3    3  501    0 -0.25287927236E+03  0.13384991094E+03 -0.71756059435E+03  0.77250044117E+03  0.00000000000E+00 0.  1.
         21    1    1    2  502  501  0.29277410514E+00 -0.85918543460E-01  0.13617694983E+01  0.13955338903E+01  0.00000000000E+00 0.  1.
<mgrwt>
<rscale>  1 0.65596928E+03</rscale>
<asrwt>0</asrwt>
<pdfrwt beam="1">  1        1 0.39619862E+00 0.65596928E+03</pdfrwt>
<pdfrwt beam="2">0</pdfrwt>
<totfact> 0.13894837E+00</totfact>
</mgrwt>
</event>
<event>
 6    1  0.7004824E-003  0.6581370E+03  0.7818608E-02  0.9791629E-01
          3   -1    0    0  502    0  0.00000000000E+00  0.00000000000E+00  0.10846840454E+03  0.10846840454E+03  0.00000000000E+00 0.  1.
         13   -1    0    0    0    0 -0.00000000000E+00 -0.00000000000E+00 -0.10000000000E+04  0.10000000000E+04  0.00000000000E+00 0.  1.
    9000005    2    1    2  501    0  0.41982714010E-02 -0.86456225507E-02 -0.89171378946E+03  0.11082859572E+04  0.65813697704E+03 0.  0.
         13    1    3    3    0    0 -0.21231978983E+01  0.27963594129E+03 -0.73792745694E+03  0.78913731336E+03  0.00000000000E+00 0.  1.
          1    1    3    3  501    0  0.21273961697E+01 -0.27964458691E+03 -0.15378633252E+03  0.31914864385E+03  0.00000000000E+00 0.  1.
         21    1    1    2  502  501 -0.41982714010E-02  0.86456225506E-02  0.18219400163E+00  0.18244732528E+00  0.00000000000E+00 0. -1.
<mgrwt>
<rscale>  1 0.65813698E+03</rscale>
<asrwt>0</asrwt>
<pdfrwt beam="1">  1        3 0.39443139E+00 0.65813698E+03</pdfrwt>
<pdfrwt beam="2">0</pdfrwt>
<totfact> 0.63273176E-02</totfact>
</mgrwt>
</event>
<event>
 6    1  0.7004824E-003  0.6402992E+03  0.7818608E-02  0.9825154E-01
          1   -1    0    0  502    0  0.00000000000E+00  0.00000000000E+00  0.10249718756E+03  0.10249718756E+03  0.00000000000E+00 0.  1.
         13   -1    0    0    0    0 -0.00000000000E+00 -0.00000000000E+00 -0.10000000000E+04  0.10000000000E+04  0.00000000000E+00 0.  1.
    9000005    2    1    2  501    0 -0.21349010484E-03 -0.12600134036E-03 -0.89750421698E+03  0.11024957613E+04  0.64029921460E+03 0.  0.
         13    1    3    3    0    0  0.17916629298E+03 -0.22610349706E+02  0.64274463179E+01  0.18070168931E+03  0.00000000000E+00 0.  1.
          1    1    3    3  501    0 -0.17916650647E+03  0.22610223704E+02 -0.90393166330E+03  0.92179407200E+03  0.00000000000E+00 0.  1.
         21    1    1    2  502  501  0.21349010485E-03  0.12600134036E-03  0.14045348323E-02  0.14262441789E-02  0.00000000000E+00 0.  1.
<mgrwt>
<rscale>  1 0.64029921E+03</rscale>
<asrwt>0</asrwt>
<pdfrwt beam="1">  1        1 0.37271783E+00 0.64029921E+03</pdfrwt>
<pdfrwt beam="2">0</pdfrwt>
<totfact> 0.17699020E+00</totfact>
</mgrwt>
</event>
<event>
 6    1  0.7004824E-003  0.6533943E+03  0.7818608E-02  0.9800431E-01
          1   -1    0    0  502    0  0.00000000000E+00  0.00000000000E+00  0.10687608728E+03  0.10687608728E+03  0.00000000000E+00 0.  1.
         13   -1    0    0    0    0 -0.00000000000E+00 -0.00000000000E+00 -0.10000000000E+04  0.10000000000E+04  0.00000000000E+00 0.  1.
    9000005    2    1    2  501    0 -0.24027310584E+00  0.97704388384E-01 -0.89312730358E+03  0.11066166864E+04  0.65339424773E+03 0.  0.
         13    1    3    3    0    0  0.29658101441E+03  0.12035455516E+03 -0.33633949150E+03  0.46429491770E+03  0.00000000000E+00 0.  1.
          1    1    3    3  501    0 -0.29682128752E+03 -0.12025685077E+03 -0.55678781208E+03  0.64232176871E+03  0.00000000000E+00 0.  1.
         21    1    1    2  502  501  0.24027310584E+00 -0.97704388384E-01  0.33908549597E-02  0.25940086892E+00  0.00000000000E+00 0.  1.
<mgrwt>
<rscale>  1 0.65339430E+03</rscale>
<asrwt>0</asrwt>
<pdfrwt beam="1">  1        1 0.38864114E+00 0.65339430E+03</pdfrwt>
<pdfrwt beam="2">0</pdfrwt>
<totfact> 0.15018238E+00</totfact>
</mgrwt>
</event>
<event>
 6    1  0.7004824E-003  0.6462683E+03  0.7818608E-02  0.9813807E-01
          1   -1    0    0  502    0  0.00000000000E+00  0.00000000000E+00  0.10453821948E+03  0.10453821948E+03  0.00000000000E+00 0.  1.
         13   -1    0    0    0    0 -0.00000000000E+00 -0.00000000000E+00 -0.10000000000E+04  0.10000000000E+04  0.00000000000E+00 0.  1.
    9000005    2    1    2  501    0 -0.18365465333E-02 -0.98243741317E-03 -0.89558430281E+03  0.11044156795E+04  0.64626832637E+03 0.  0.
         13    1    3    3    0    0  0.25965078224E+03  0.10336840091E+03 -0.17059109277E+03  0.32742155695E+03  0.00000000000E+00 0.  1.
          1    1    3    3  501    0 -0.25965261879E+03 -0.10336938335E+03 -0.72499321004E+03  0.77699412254E+03  0.00000000000E+00 0.  1.
         21    1    1    2  502  501  0.18365465333E-02  0.98243741318E-03  0.12252228328E+00  0.12253998525E+00  0.00000000000E+00 0. -1.
<mgrwt>
<rscale>  1 0.64626833E+03</rscale>
<asrwt>0</asrwt>
<pdfrwt beam="1">  1        1 0.38013978E+00 0.64626833E+03</pdfrwt>
<pdfrwt beam="2">0</pdfrwt>
<totfact> 0.16397679E+00</totfact>
</mgrwt>
</event>
<event>
 6    1  0.7004824E-003  0.6053722E+03  0.7818608E-02  0.9894323E-01
          1   -1    0    0  502    0  0.00000000000E+00  0.00000000000E+00  0.91619214636E+02  0.91619214636E+02  0.00000000000E+00 0.  1.
         13   -1    0    0    0    0 -0.00000000000E+00 -0.00000000000E+00 -0.10000000000E+04  0.10000000000E+04  0.00000000000E+00 0.  1.
    9000005    2    1    2  501    0 -0.12576457291E-03  0.71251011036E-04 -0.90838109684E+03  0.10916188713E+04  0.60537223507E+03 0.  0.
         13    1    3    3    0    0 -0.23718906608E+03  0.18654818082E+03 -0.41151671700E+03  0.51029881952E+03  0.00000000000E+00 0.  1.
          1    1    3    3  501    0  0.23718894032E+03 -0.18654810957E+03 -0.49686437984E+03  0.58132005173E+03  0.00000000000E+00 0.  1.
         21    1    1    2  502  501  0.12576457291E-03 -0.71251011037E-04  0.31147447584E-03  0.34337994040E-03  0.00000000000E+00 0.  1.
<mgrwt>
<rscale>  1 0.60537224E+03</rscale>
<asrwt>0</asrwt>
<pdfrwt beam="1">  1        1 0.33316148E+00 0.60537224E+03</pdfrwt>
<pdfrwt beam="2">0</pdfrwt>
<totfact> 0.26501200E+00</totfact>
</mgrwt>
</event>
<event>
 6    1  0.7004824E-003  0.6523922E+03  0.7818608E-02  0.9802301E-01
          1   -1    0    0  502    0  0.00000000000E+00  0.00000000000E+00  0.10640393006E+03  0.10640393006E+03  0.00000000000E+00 0.  1.
         13   -1    0    0    0    0 -0.00000000000E+00 -0.00000000000E+00 -0.10000000000E+04  0.10000000000E+04  0.00000000000E+00 0.  1.
    9000005    2    1    2  501    0 -0.66181774343E-04  0.10674131771E-03 -0.89359599861E+03  0.11064037856E+04  0.65239215823E+03 0.  0.
         13    1    3    3    0    0  0.31482724205E+03  0.79871018475E+02 -0.49790952316E+03  0.59448251882E+03  0.00000000000E+00 0.  1.
          1    1    3    3  501    0 -0.31482730824E+03 -0.79870911733E+02 -0.39568647545E+03  0.51192126680E+03  0.00000000000E+00 0.  1.
         21    1    1    2  502  501  0.66181774349E-04 -0.10674131771E-03 -0.71329771586E-04  0.14443570361E-03  0.00000000000E+00 0. -1.
<mgrwt>
<rscale>  1 0.65239216E+03</rscale>
<asrwt>0</asrwt>
<pdfrwt beam="1">  1        1 0.38692420E+00 0.65239216E+03</pdfrwt>
<pdfrwt beam="2">0</pdfrwt>
<totfact> 0.15286388E+00</totfact>
</mgrwt>
</event>
<event>
 6    1  0.7004824E-003  0.6464811E+03  0.7818608E-02  0.9813405E-01
          3   -1    0    0  502    0  0.00000000000E+00  0.00000000000E+00  0.10455818712E+03  0.10455818712E+03  0.00000000000E+00 0.  1.
         13   -1    0    0    0    0 -0.00000000000E+00 -0.00000000000E+00 -0.10000000000E+04  0.10000000000E+04  0.00000000000E+00 0.  1.
    9000005    2    1    2  501    0 -0.62788824579E-04  0.10305644576E-02 -0.89551555252E+03  0.11044844403E+04  0.64648107008E+03 0.  0.
         13    1    3    3    0    0 -0.16902549547E+03  0.26358898723E+03 -0.58481822606E+03  0.66337103482E+03  0.00000000000E+00 0.  1.
          1    1    3    3  501    0  0.16902543268E+03 -0.26358795666E+03 -0.31069732645E+03  0.44111340544E+03  0.00000000000E+00 0.  1.
         21    1    1    2  502  501  0.62788824593E-04 -0.10305644576E-02  0.73739635430E-01  0.73746863247E-01  0.00000000000E+00 0. -1.
<mgrwt>
<rscale>  1 0.64648107E+03</rscale>
<asrwt>0</asrwt>
<pdfrwt beam="1">  1        3 0.38021239E+00 0.64648107E+03</pdfrwt>
<pdfrwt beam="2">0</pdfrwt>
<totfact> 0.75328278E-02</totfact>
</mgrwt>
</event>
<event>
 6    1  0.7004824E-003  0.6520703E+03  0.7818608E-02  0.9802902E-01
          1   -1    0    0  502    0  0.00000000000E+00  0.00000000000E+00  0.11697245515E+03  0.11697245515E+03  0.00000000000E+00 0.  1.
         13   -1    0    0    0    0 -0.00000000000E+00 -0.00000000000E+00 -0.10000000000E+04  0.10000000000E+04  0.00000000000E+00 0.  1.
    9000005    2    1    2  501    0 -0.77854194509E+00 -0.51903613734E+01 -0.89298262239E+03  0.11057185870E+04  0.65204914220E+03 0.  0.
         13    1    3    3    0    0 -0.28359827334E+03 -0.86908440420E+02 -0.68146853256E+03  0.74322299381E+03  0.00000000000E+00 0.  1.
          1    1    3    3  501    0  0.28281973140E+03  0.81718079047E+02 -0.21151408984E+03  0.36249559323E+03  0.00000000000E+00 0.  1.
         21    1    1    2  502  501  0.77854194509E+00  0.51903613734E+01  0.99550775406E+01  0.11253868117E+02  0.00000000000E+00 0. -1.
<mgrwt>
<rscale>  1 0.65207026E+03</rscale>
<asrwt>0</asrwt>
<pdfrwt beam="1">  1        1 0.42535528E+00 0.65207026E+03</pdfrwt>
<pdfrwt beam="2">0</pdfrwt>
<totfact> 0.10289247E+00</totfact>
</mgrwt>
</event>
<event>
 6    1  0.7004824E-003  0.6482537E+03  0.7818608E-02  0.9810062E-01
          1   -1    0    0  502    0  0.00000000000E+00  0.00000000000E+00  0.10506210540E+03  0.10506210540E+03  0.00000000000E+00 0.  1.
         13   -1    0    0    0    0 -0.00000000000E+00 -0.00000000000E+00 -0.10000000000E+04  0.10000000000E+04  0.00000000000E+00 0.  1.
    9000005    2    1    2  501    0  0.12994584130E-02  0.27653358407E-02 -0.89494112757E+03  0.11050576571E+04  0.64825365684E+03 0.  0.
         13    1    3    3    0    0 -0.25037322864E+03 -0.12225581657E+03 -0.72976710576E+03  0.78114868428E+03  0.00000000000E+00 0.  1.
          1    1    3    3  501    0  0.25037452809E+03  0.12225858191E+03 -0.16517402181E+03  0.32390897278E+03  0.00000000000E+00 0.  1.
         21    1    1    2  502  501 -0.12994584130E-02 -0.27653358407E-02  0.32329689866E-02  0.44483438432E-02  0.00000000000E+00 0.  1.
<mgrwt>
<rscale>  1 0.64825366E+03</rscale>
<asrwt>0</asrwt>
<pdfrwt beam="1">  1        1 0.38204483E+00 0.64825366E+03</pdfrwt>
<pdfrwt beam="2">0</pdfrwt>
<totfact> 0.16077323E+00</totfact>
</mgrwt>
</event>
<event>
 6    1  0.7004824E-003  0.6496784E+03  0.7818608E-02  0.9807383E-01
          1   -1    0    0  502    0  0.00000000000E+00  0.00000000000E+00  0.11305875597E+03  0.11305875597E+03  0.00000000000E+00 0.  1.
         13   -1    0    0    0    0 -0.00000000000E+00 -0.00000000000E+00 -0.10000000000E+04  0.10000000000E+04  0.00000000000E+00 0.  1.
    9000005    2    1    2  501    0 -0.33465073576E+01  0.43399163708E+01 -0.89336241111E+03  0.11046168739E+04  0.64965529831E+03 0.  0.
         13    1    3    3    0    0 -0.12509521488E+03 -0.29222705449E+03 -0.54703886727E+03  0.63269027689E+03  0.00000000000E+00 0.  1.
          3    1    3    3  501    0  0.12174870752E+03  0.29656697086E+03 -0.34632354383E+03  0.47192659705E+03  0.00000000000E+00 0.  1.
         21    1    1    2  502  501  0.33465073576E+01 -0.43399163708E+01  0.64211670812E+01  0.84418820345E+01  0.00000000000E+00 0.  1.
<mgrwt>
<rscale>  1 0.64967841E+03</rscale>
<asrwt>0</asrwt>
<pdfrwt beam="1">  1        1 0.41112362E+00 0.64967841E+03</pdfrwt>
<pdfrwt beam="2">0</pdfrwt>
<totfact> 0.11931811E+00</totfact>
</mgrwt>
</event>
<event>
 6    1  0.7004824E-003  0.6296307E+03  0.7818608E-02  0.9845770E-01
          1   -1    0    0  502    0  0.00000000000E+00  0.00000000000E+00  0.99898832214E+02  0.99898832214E+02  0.00000000000E+00 0.  1.
         13   -1    0    0    0    0 -0.00000000000E+00 -0.00000000000E+00 -0.10000000000E+04  0.10000000000E+04  0.00000000000E+00 0.  1.
    9000005    2    1    2  501    0  0.17228605019E-01 -0.59462315268E-02 -0.90089117034E+03  0.10991086194E+04  0.62963073003E+03 0.  0.
         13    1    3    3    0    0  0.25850955507E+03  0.86978794700E+02 -0.17599378028E+03  0.32460177370E+03  0.00000000000E+00 0.  1.
          3    1    3    3  501    0 -0.25849232646E+03 -0.86984740932E+02 -0.72489739006E+03  0.77450684575E+03  0.00000000000E+00 0.  1.
         21    1    1    2  502  501 -0.17228605019E-01  0.59462315268E-02  0.79000255700E+00  0.79021277044E+00  0.00000000000E+00 0.  1.
<mgrwt>
<rscale>  1 0.62963073E+03</rscale>
<asrwt>0</asrwt>
<pdfrwt beam="1">  1        1 0.36326925E+00 0.62963073E+03</pdfrwt>
<pdfrwt beam="2">0</pdfrwt>
<totfact> 0.19509763E+00</totfact>
</mgrwt>
</event>
<event>
 6    1  0.7004824E-003  0.6496787E+03  0.7818608E-02  0.9807382E-01
          1   -1    0    0  502    0  0.00000000000E+00  0.00000000000E+00  0.10552652174E+03  0.10552652174E+03  0.00000000000E+00 0.  1.
         13   -1    0    0    0    0 -0.00000000000E+00 -0.00000000000E+00 -0.10000000000E+04  0.10000000000E+04  0.00000000000E+00 0.  1.
    9000005    2    1    2  501    0 -0.18022025435E-03 -0.40512292259E-04 -0.89447940235E+03  0.11055205948E+04  0.64967867769E+03 0.  0.
         13    1    3    3    0    0 -0.20886327396E+03 -0.15199240798E+03 -0.78240316745E+03  0.82394191283E+03  0.00000000000E+00 0.  1.
          3    1    3    3  501    0  0.20886309373E+03  0.15199236747E+03 -0.11207623490E+03  0.28157868194E+03  0.00000000000E+00 0.  1.
         21    1    1    2  502  501  0.18022025435E-03  0.40512292278E-04  0.59240923438E-02  0.59269714597E-02  0.00000000000E+00 0.  1.
<mgrwt>
<rscale>  1 0.64967868E+03</rscale>
<asrwt>0</asrwt>
<pdfrwt beam="1">  1        1 0.38373362E+00 0.64967868E+03</pdfrwt>
<pdfrwt beam="2">0</pdfrwt>
<totfact> 0.15799295E+00</totfact>
</mgrwt>
</event>
<event>
 6    1  0.7004824E-003  0.6536634E+03  0.7818608E-02  0.9799929E-01
          1   -1    0    0  502    0  0.00000000000E+00  0.00000000000E+00  0.10681911904E+03  0.10681911904E+03  0.00000000000E+00 0.  1.
         13   -1    0    0    0    0 -0.00000000000E+00 -0.00000000000E+00 -0.10000000000E+04  0.10000000000E+04  0.00000000000E+00 0.  1.
    9000005    2    1    2  501    0 -0.46767522835E-03 -0.57961593242E-04 -0.89318056679E+03  0.11068185527E+04  0.65366335650E+03 0.  0.
         13    1    3    3    0    0  0.19085616625E+03  0.10885676790E+03 -0.36895995895E+02  0.22279404531E+03  0.00000000000E+00 0.  1.
          3    1    3    3  501    0 -0.19085663392E+03 -0.10885682587E+03 -0.85628457089E+03  0.88402450735E+03  0.00000000000E+00 0.  1.
         21    1    1    2  502  501  0.46767522836E-03  0.57961593243E-04 -0.31417343021E-03  0.56637850397E-03  0.00000000000E+00 0.  1.
<mgrwt>
<rscale>  1 0.65366336E+03</rscale>
<asrwt>0</asrwt>
<pdfrwt beam="1">  1        1 0.38843398E+00 0.65366336E+03</pdfrwt>
<pdfrwt beam="2">0</pdfrwt>
<totfact> 0.15049267E+00</totfact>
</mgrwt>
</event>
<event>
 6    1  0.7004824E-003  0.6476374E+03  0.7818608E-02  0.9811223E-01
          1   -1    0    0  502    0  0.00000000000E+00  0.00000000000E+00  0.10486483427E+03  0.10486483427E+03  0.00000000000E+00 0.  1.
         13   -1    0    0    0    0 -0.00000000000E+00 -0.00000000000E+00 -0.10000000000E+04  0.10000000000E+04  0.00000000000E+00 0.  1.
    9000005    2    1    2  501    0 -0.66667528105E-03  0.48677664735E-02 -0.89514036710E+03  0.11048576793E+04  0.64763740983E+03 0.  0.
         13    1    3    3    0    0  0.21397146637E+03 -0.19131372742E+03 -0.19182562377E+03  0.34522717254E+03  0.00000000000E+00 0.  1.
          1    1    3    3  501    0 -0.21397213305E+03  0.19131859519E+03 -0.70331474333E+03  0.75963050674E+03  0.00000000000E+00 0.  1.
         21    1    1    2  502  501  0.66667528104E-03 -0.48677664735E-02  0.52013742226E-02  0.71549912770E-02  0.00000000000E+00 0. -1.
<mgrwt>
<rscale>  1 0.64763741E+03</rscale>
<asrwt>0</asrwt>
<pdfrwt beam="1">  1        1 0.38132747E+00 0.64763741E+03</pdfrwt>
<pdfrwt beam="2">0</pdfrwt>
<totfact> 0.16196858E+00</totfact>
</mgrwt>
</event>
<event>
 6    1  0.7004824E-003  0.6686537E+03  0.7818608E-02  0.9772393E-01
          1   -1    0    0  502    0  0.00000000000E+00  0.00000000000E+00  0.11177823555E+03  0.11177823555E+03  0.00000000000E+00 0.  1.
         13   -1    0    0    0    0 -0.00000000000E+00 -0.00000000000E+00 -0.10000000000E+04  0.10000000000E+04  0.00000000000E+00 0.  1.
    9000005    2    1    2  501    0  0.82915254083E-04 -0.95247978948E-04 -0.88822557023E+03  0.11117744277E+04  0.66865365804E+03 0.  0.
         13    1    3    3    0    0 -0.86859435159E+02 -0.21454201966E+03 -0.84524076283E+03  0.87635882310E+03  0.00000000000E+00 0.  1.
          3    1    3    3  501    0  0.86859518075E+02  0.21454192441E+03 -0.42984807406E+02  0.23541560458E+03  0.00000000000E+00 0.  1.
         21    1    1    2  502  501 -0.82915254080E-04  0.95247978939E-04  0.38057884425E-02  0.38078829796E-02  0.00000000000E+00 0. -1.
<mgrwt>
<rscale>  1 0.66865366E+03</rscale>
<asrwt>0</asrwt>
<pdfrwt beam="1">  1        1 0.40646717E+00 0.66865366E+03</pdfrwt>
<pdfrwt beam="2">0</pdfrwt>
<totfact> 0.12473706E+00</totfact>
</mgrwt>
</event>
<event>
 6    1  0.7004824E-003  0.6398944E+03  0.7818608E-02  0.9825929E-01
          1   -1    0    0  502    0  0.00000000000E+00  0.00000000000E+00  0.10236950279E+03  0.10236950279E+03  0.00000000000E+00 0.  1.
         13   -1    0    0    0    0 -0.00000000000E+00 -0.00000000000E+00 -0.10000000000E+04  0.10000000000E+04  0.00000000000E+00 0.  1.
    9000005    2    1    2  501    0 -0.26119487017E-02  0.28686879623E-02 -0.89763246713E+03  0.11023651517E+04  0.63989443001E+03 0.  0.
         13    1    3    3    0    0  0.26585580395E+03 -0.17520699437E+03 -0.39465782577E+03  0.50708145185E+03  0.00000000000E+00 0.  1.
          3    1    3    3  501    0 -0.26585841590E+03  0.17520986306E+03 -0.50297464136E+03  0.59528369982E+03  0.00000000000E+00 0.  1.
         21    1    1    2  502  501  0.26119487017E-02 -0.28686879623E-02  0.19699253768E-02  0.43511208482E-02  0.00000000000E+00 0. -1.
<mgrwt>
<rscale>  1 0.63989443E+03</rscale>
<asrwt>0</asrwt>
<pdfrwt beam="1">  1        1 0.37225352E+00 0.63989443E+03</pdfrwt>
<pdfrwt beam="2">0</pdfrwt>
<totfact> 0.17783726E+00</totfact>
</mgrwt>
</event>
<event>
 6    1  0.7004824E-003  0.6738566E+03  0.7818608E-02  0.9763016E-01
          1   -1    0    0  502    0  0.00000000000E+00  0.00000000000E+00  0.11395464706E+03  0.11395464706E+03  0.00000000000E+00 0.  1.
         13   -1    0    0    0    0 -0.00000000000E+00 -0.00000000000E+00 -0.10000000000E+04  0.10000000000E+04  0.00000000000E+00 0.  1.
    9000005    2    1    2  501    0  0.30249639955E-01 -0.94548804067E-01 -0.88647299130E+03  0.11135156378E+04  0.67385658828E+03 0.  0.
         13    1    3    3    0    0 -0.10742428595E+03 -0.19037469421E+03 -0.19538059387E+02  0.21946352128E+03  0.00000000000E+00 0.  1.
          1    1    3    3  501    0  0.10745453559E+03  0.19028014541E+03 -0.86693493192E+03  0.89405211656E+03  0.00000000000E+00 0.  1.
         21    1    1    2  502  501 -0.30249639955E-01  0.94548804067E-01  0.42763836172E+00  0.43900920888E+00  0.00000000000E+00 0. -1.
<mgrwt>
<rscale>  1 0.67385660E+03</rscale>
<asrwt>0</asrwt>
<pdfrwt beam="1">  1        1 0.41438141E+00 0.67385660E+03</pdfrwt>
<pdfrwt beam="2">0</pdfrwt>
<totfact> 0.11483042E+00</totfact>
</mgrwt>
</event>
<event>
 6    1  0.7004824E-003  0.5286419E+03  0.7818608E-02  0.1006562E+00
          1   -1    0    0  502    0  0.00000000000E+00  0.00000000000E+00  0.85245089549E+02  0.85245089549E+02  0.00000000000E+00 0.  1.
         13   -1    0    0    0    0 -0.00000000000E+00 -0.00000000000E+00 -0.10000000000E+04  0.10000000000E+04  0.00000000000E+00 0.  1.
    9000005    2    1    2  501    0  0.32850048143E+01  0.71251960935E+00 -0.92993777786E+03  0.10696945782E+04  0.52863117670E+03 0.  0.
         13    1    3    3    0    0 -0.63982182287E+02  0.10257591389E+03 -0.93950415551E+03  0.94725054552E+03  0.00000000000E+00 0.  1.
          3    1    3    3  501    0  0.67267187102E+02 -0.10186339428E+03  0.95663776560E+01  0.12244403267E+03  0.00000000000E+00 0.  1.
         21    1    1    2  502  501 -0.32850048143E+01 -0.71251960935E+00  0.15182867406E+02  0.15550511358E+02  0.00000000000E+00 0. -1.
<mgrwt>
<rscale>  1 0.52864186E+03</rscale>
<asrwt>0</asrwt>
<pdfrwt beam="1">  1        1 0.30998280E+00 0.52864186E+03</pdfrwt>
<pdfrwt beam="2">0</pdfrwt>
<totfact> 0.33856055E+00</totfact>
</mgrwt>
</event>
<event>
 6    1  0.7004824E-003  0.6417336E+03  0.7818608E-02  0.9822415E-01
          1   -1    0    0  502    0  0.00000000000E+00  0.00000000000E+00  0.10295763534E+03  0.10295763534E+03  0.00000000000E+00 0.  1.
         13   -1    0    0    0    0 -0.00000000000E+00 -0.00000000000E+00 -0.10000000000E+04  0.10000000000E+04  0.00000000000E+00 0.  1.
    9000005    2    1    2  501    0  0.47342280430E-03  0.44580877955E-03 -0.89704443342E+03  0.11029554668E+04  0.64173362555E+03 0.  0.
         13    1    3    3    0    0  0.17805353239E+03  0.26071680163E+03 -0.54694652518E+03  0.63152736477E+03  0.00000000000E+00 0.  1.
          1    1    3    3  501    0 -0.17805305897E+03 -0.26071635582E+03 -0.35009790825E+03  0.47142810201E+03  0.00000000000E+00 0.  1.
         21    1    1    2  502  501 -0.47342280431E-03 -0.44580877956E-03  0.20687624567E-02  0.21685600573E-02  0.00000000000E+00 0. -1.
<mgrwt>
<rscale>  1 0.64173363E+03</rscale>
<asrwt>0</asrwt>
<pdfrwt beam="1">  1        1 0.37439219E+00 0.64173363E+03</pdfrwt>
<pdfrwt beam="2">0</pdfrwt>
<totfact> 0.17396828E+00</totfact>
</mgrwt>
</event>
<event>
 6    1  0.7004824E-003  0.6482757E+03  0.7818608E-02  0.9810020E-01
          1   -1    0    0  502    0  0.00000000000E+00  0.00000000000E+00  0.10506717542E+03  0.10506717542E+03  0.00000000000E+00 0.  1.
         13   -1    0    0    0    0 -0.00000000000E+00 -0.00000000000E+00 -0.10000000000E+04  0.10000000000E+04  0.00000000000E+00 0.  1.
    9000005    2    1    2  501    0 -0.98834181902E-03  0.83152768553E-04 -0.89493449222E+03  0.11050652351E+04  0.64827573495E+03 0.  0.
         13    1    3    3    0    0  0.22860769960E+02  0.14741855758E+03 -0.93800319084E+03  0.94979199404E+03  0.00000000000E+00 0.  1.
          3    1    3    3  501    0 -0.22861758302E+02 -0.14741847443E+03  0.43068698622E+02  0.15527324108E+03  0.00000000000E+00 0.  1.
         21    1    1    2  502  501  0.98834181903E-03 -0.83152768572E-04  0.16676322244E-02  0.19402915167E-02  0.00000000000E+00 0.  1.
<mgrwt>
<rscale>  1 0.64827573E+03</rscale>
<asrwt>0</asrwt>
<pdfrwt beam="1">  1        1 0.38206326E+00 0.64827573E+03</pdfrwt>
<pdfrwt beam="2">0</pdfrwt>
<totfact> 0.16074244E+00</totfact>
</mgrwt>
</event>
<event>
 6    1  0.7004824E-003  0.6664506E+03  0.7818608E-02  0.9776391E-01
          1   -1    0    0  502    0  0.00000000000E+00  0.00000000000E+00  0.11103925363E+03  0.11103925363E+03  0.00000000000E+00 0.  1.
         13   -1    0    0    0    0 -0.00000000000E+00 -0.00000000000E+00 -0.10000000000E+04  0.10000000000E+04  0.00000000000E+00 0.  1.
    9000005    2    1    2  501    0 -0.22362892659E-03  0.15429422812E-03 -0.88896075802E+03  0.11110389817E+04  0.66645059045E+03 0.  0.
         13    1    3    3    0    0 -0.24843395755E+03  0.76640769660E+02 -0.79196535898E+03  0.83354806019E+03  0.00000000000E+00 0.  1.
          1    1    3    3  501    0  0.24843373392E+03 -0.76640615366E+02 -0.96995399048E+02  0.27749092149E+03  0.00000000000E+00 0.  1.
         21    1    1    2  502  501  0.22362892661E-03 -0.15429422812E-03  0.11648452627E-04  0.27194170716E-03  0.00000000000E+00 0.  1.
<mgrwt>
<rscale>  1 0.66645059E+03</rscale>
<asrwt>0</asrwt>
<pdfrwt beam="1">  1        1 0.40377996E+00 0.66645059E+03</pdfrwt>
<pdfrwt beam="2">0</pdfrwt>
<totfact> 0.12829047E+00</totfact>
</mgrwt>
</event>
<event>
 6    1  0.7004824E-003  0.6853495E+03  0.7818608E-02  0.9742620E-01
          1   -1    0    0  502    0  0.00000000000E+00  0.00000000000E+00  0.11742858268E+03  0.11742858268E+03  0.00000000000E+00 0.  1.
         13   -1    0    0    0    0 -0.00000000000E+00 -0.00000000000E+00 -0.10000000000E+04  0.10000000000E+04  0.00000000000E+00 0.  1.
    9000005    2    1    2  501    0 -0.10214503206E-04  0.22754219771E-03 -0.88257402726E+03  0.11174259628E+04  0.68534945014E+03 0.  0.
         13    1    3    3    0    0  0.68164739951E+02 -0.15454381619E+03  0.44837080598E+02  0.17475865269E+03  0.00000000000E+00 0.  1.
          1    1    3    3  501    0 -0.68164750166E+02  0.15454404373E+03 -0.92741110785E+03  0.94266731013E+03  0.00000000000E+00 0.  1.
         21    1    1    2  502  501  0.10214503209E-04 -0.22754219772E-03  0.26099329936E-02  0.26198530529E-02  0.00000000000E+00 0. -1.
<mgrwt>
<rscale>  1 0.68534945E+03</rscale>
<asrwt>0</asrwt>
<pdfrwt beam="1">  1        1 0.42701393E+00 0.68534945E+03</pdfrwt>
<pdfrwt beam="2">0</pdfrwt>
<totfact> 0.10047286E+00</totfact>
</mgrwt>
</event>
<event>
 6    1  0.7004824E-003  0.6560485E+03  0.7818608E-02  0.9795495E-01
          1   -1    0    0  502    0  0.00000000000E+00  0.00000000000E+00  0.10848125642E+03  0.10848125642E+03  0.00000000000E+00 0.  1.
         13   -1    0    0    0    0 -0.00000000000E+00 -0.00000000000E+00 -0.10000000000E+04  0.10000000000E+04  0.00000000000E+00 0.  1.
    9000005    2    1    2  501    0  0.13412370880E+00  0.26669489105E+01 -0.88829783870E+03  0.11042973786E+04  0.65604307743E+03 0.  0.
         13    1    3    3    0    0 -0.17222939754E+03 -0.23780845737E+03 -0.20046501241E+03  0.35553065827E+03  0.00000000000E+00 0.  1.
          1    1    3    3  501    0  0.17236352125E+03  0.24047540628E+03 -0.68783282629E+03  0.74876672029E+03  0.00000000000E+00 0.  1.
         21    1    1    2  502  501 -0.13412370880E+00 -0.26669489105E+01 -0.32209048828E+01  0.41838778573E+01  0.00000000000E+00 0. -1.
<mgrwt>
<rscale>  1 0.65604851E+03</rscale>
<asrwt>0</asrwt>
<pdfrwt beam="1">  1        1 0.39447813E+00 0.65604851E+03</pdfrwt>
<pdfrwt beam="2">0</pdfrwt>
<totfact> 0.14141592E+00</totfact>
</mgrwt>
</event>
<event>
 6    1  0.7004824E-003  0.6361037E+03  0.7818608E-02  0.9833210E-01
          1   -1    0    0  502    0  0.00000000000E+00  0.00000000000E+00  0.10115878474E+03  0.10115878474E+03  0.00000000000E+00 0.  1.
         13   -1    0    0    0    0 -0.00000000000E+00 -0.00000000000E+00 -0.10000000000E+04  0.10000000000E+04  0.00000000000E+00 0.  1.
    9000005    2    1    2  501    0 -0.11885173129E-02  0.14966466074E-03 -0.89884280302E+03  0.11011567958E+04  0.63610368995E+03 0.  0.
         13    1    3    3    0    0 -0.21700386118E+03  0.19484411269E+03 -0.66908963814E+03  0.72988755838E+03  0.00000000000E+00 0.  1.
          1    1    3    3  501    0  0.21700267267E+03 -0.19484396302E+03 -0.22975316488E+03  0.37126923740E+03  0.00000000000E+00 0.  1.
         21    1    1    2  502  501  0.11885173129E-02 -0.14966466074E-03  0.15877571894E-02  0.19889559589E-02  0.00000000000E+00 0.  1.
<mgrwt>
<rscale>  1 0.63610369E+03</rscale>
<asrwt>0</asrwt>
<pdfrwt beam="1">  1        1 0.36785090E+00 0.63610369E+03</pdfrwt>
<pdfrwt beam="2">0</pdfrwt>
<totfact> 0.18606247E+00</totfact>
</mgrwt>
</event>
<event>
 6    1  0.7004824E-003  0.6511157E+03  0.7818608E-02  0.9804688E-01
          1   -1    0    0  502    0  0.00000000000E+00  0.00000000000E+00  0.10599243397E+03  0.10599243397E+03  0.00000000000E+00 0.  1.
         13   -1    0    0    0    0 -0.00000000000E+00 -0.00000000000E+00 -0.10000000000E+04  0.10000000000E+04  0.00000000000E+00 0.  1.
    9000005    2    1    2  501    0  0.26780393437E-02 -0.93475474918E-03 -0.89401157219E+03  0.11059875253E+04  0.65111574617E+03 0.  0.
         13    1    3    3    0    0 -0.22252007953E+03  0.23750361114E+03 -0.46058861123E+03  0.56397253470E+03  0.00000000000E+00 0.  1.
          1    1    3    3  501    0  0.22252275757E+03 -0.23750454590E+03 -0.43342296096E+03  0.54201499061E+03  0.00000000000E+00 0.  1.
         21    1    1    2  502  501 -0.26780393437E-02  0.93475474916E-03  0.40061644345E-02  0.49086672981E-02  0.00000000000E+00 0. -1.
<mgrwt>
<rscale>  1 0.65111575E+03</rscale>
<asrwt>0</asrwt>
<pdfrwt beam="1">  1        1 0.38542785E+00 0.65111575E+03</pdfrwt>
<pdfrwt beam="2">0</pdfrwt>
<totfact> 0.15524946E+00</totfact>
</mgrwt>
</event>
<event>
 6    1  0.7004824E-003  0.6451818E+03  0.7818608E-02  0.9815863E-01
          1   -1    0    0  502    0  0.00000000000E+00  0.00000000000E+00  0.10406628946E+03  0.10406628946E+03  0.00000000000E+00 0.  1.
         13   -1    0    0    0    0 -0.00000000000E+00 -0.00000000000E+00 -0.10000000000E+04  0.10000000000E+04  0.00000000000E+00 0.  1.
    9000005    2    1    2  501    0 -0.31626797910E-03  0.33022481142E-03 -0.89593508635E+03  0.11040648397E+04  0.64518175052E+03 0.  0.
         13    1    3    3    0    0  0.49812077060E+02 -0.27565003320E+03 -0.72176982385E+03  0.77421951826E+03  0.00000000000E+00 0.  1.
          3    1    3    3  501    0 -0.49812393328E+02  0.27565036343E+03 -0.17416526250E+03  0.32984532140E+03  0.00000000000E+00 0.  1.
         21    1    1    2  502  501  0.31626797910E-03 -0.33022481144E-03  0.13758125645E-02  0.14498048397E-02  0.00000000000E+00 0.  1.
<mgrwt>
<rscale>  1 0.64518175E+03</rscale>
<asrwt>0</asrwt>
<pdfrwt beam="1">  1        1 0.37842367E+00 0.64518175E+03</pdfrwt>
<pdfrwt beam="2">0</pdfrwt>
<totfact> 0.16689307E+00</totfact>
</mgrwt>
</event>
<event>
 6    1  0.7004824E-003  0.6486928E+03  0.7818608E-02  0.9809235E-01
          1   -1    0    0  502    0  0.00000000000E+00  0.00000000000E+00  0.10521209406E+03  0.10521209406E+03  0.00000000000E+00 0.  1.
         13   -1    0    0    0    0 -0.00000000000E+00 -0.00000000000E+00 -0.10000000000E+04  0.10000000000E+04  0.00000000000E+00 0.  1.
    9000005    2    1    2  501    0 -0.21638620582E-02  0.14823561397E-02 -0.89479924444E+03  0.11052004561E+04  0.64869280896E+03 0.  0.
         13    1    3    3    0    0  0.25457443070E+03 -0.19792503620E+03 -0.38795518158E+03  0.50447168765E+03  0.00000000000E+00 0.  1.
          3    1    3    3  501    0 -0.25457659456E+03  0.19792651855E+03 -0.50684406285E+03  0.60072876849E+03  0.00000000000E+00 0.  1.
         21    1    1    2  502  501  0.21638620582E-02 -0.14823561397E-02  0.11338495275E-01  0.11637918793E-01  0.00000000000E+00 0. -1.
<mgrwt>
<rscale>  1 0.64869281E+03</rscale>
<asrwt>0</asrwt>
<pdfrwt beam="1">  1        1 0.38259024E+00 0.64869281E+03</pdfrwt>
<pdfrwt beam="2">0</pdfrwt>
<totfact> 0.15987088E+00</totfact>
</mgrwt>
</event>
<event>
 6    1  0.7004824E-003  0.6165488E+03  0.7818608E-02  0.9871655E-01
          1   -1    0    0  502    0  0.00000000000E+00  0.00000000000E+00  0.99476311032E+02  0.99476311032E+02  0.00000000000E+00 0.  1.
         13   -1    0    0    0    0 -0.00000000000E+00 -0.00000000000E+00 -0.10000000000E+04  0.10000000000E+04  0.00000000000E+00 0.  1.
    9000005    2    1    2  501    0 -0.18892929997E+00 -0.35927230393E+00 -0.90495674622E+03  0.10950247082E+04  0.61654864719E+03 0.  0.
         13    1    3    3    0    0  0.30574275627E+03  0.37280173425E+02 -0.43514167027E+03  0.53311979662E+03  0.00000000000E+00 0.  1.
          1    1    3    3  501    0 -0.30593168557E+03 -0.37639445729E+02 -0.46981507595E+03  0.56190491162E+03  0.00000000000E+00 0.  1.
         21    1    1    2  502  501  0.18892929997E+00  0.35927230393E+00  0.44330572500E+01  0.44516027957E+01  0.00000000000E+00 0. -1.
<mgrwt>
<rscale>  1 0.61654878E+03</rscale>
<asrwt>0</asrwt>
<pdfrwt beam="1">  1        1 0.36173280E+00 0.61654878E+03</pdfrwt>
<pdfrwt beam="2">0</pdfrwt>
<totfact> 0.19861680E+00</totfact>
</mgrwt>
</event>
<event>
 6    1  0.7004824E-003  0.6454561E+03  0.7818608E-02  0.9815343E-01
          1   -1    0    0  502    0  0.00000000000E+00  0.00000000000E+00  0.10518443843E+03  0.10518443843E+03  0.00000000000E+00 0.  1.
         13   -1    0    0    0    0 -0.00000000000E+00 -0.00000000000E+00 -0.10000000000E+04  0.10000000000E+04  0.00000000000E+00 0.  1.
    9000005    2    1    2  501    0  0.45521056040E-01 -0.64727589552E+00 -0.89573270641E+03  0.11040609648E+04  0.64545573956E+03 0.  0.
         13    1    3    3    0    0 -0.16979592115E+03 -0.10980954663E+03 -0.17551459367E+02  0.20297005961E+03  0.00000000000E+00 0.  1.
          1    1    3    3  501    0  0.16984144221E+03  0.10916227073E+03 -0.87818124704E+03  0.90109090523E+03  0.00000000000E+00 0.  1.
         21    1    1    2  502  501 -0.45521056040E-01  0.64727589552E+00  0.91714483865E+00  0.11234735896E+01  0.00000000000E+00 0. -1.
<mgrwt>
<rscale>  1 0.64545607E+03</rscale>
<asrwt>0</asrwt>
<pdfrwt beam="1">  1        1 0.38248967E+00 0.64545607E+03</pdfrwt>
<pdfrwt beam="2">0</pdfrwt>
<totfact> 0.16013013E+00</totfact>
</mgrwt>
</event>
<event>
 6    1  0.7004824E-003  0.6677807E+03  0.7818608E-02  0.9773975E-01
          1   -1    0    0  502    0  0.00000000000E+00  0.00000000000E+00  0.11154348446E+03  0.11154348446E+03  0.00000000000E+00 0.  1.
         13   -1    0    0    0    0 -0.00000000000E+00 -0.00000000000E+00 -0.10000000000E+04  0.10000000000E+04  0.00000000000E+00 0.  1.
    9000005    2    1    2  501    0 -0.24519065319E-02 -0.13901743526E-02 -0.88851718804E+03  0.11114827465E+04  0.66778072926E+03 0.  0.
         13    1    3    3    0    0 -0.14522290188E+03 -0.50626216933E+02  0.49018291650E+02  0.16141715518E+03  0.00000000000E+00 0.  1.
          1    1    3    3  501    0  0.14522044997E+03  0.50624826759E+02 -0.93753547969E+03  0.95006559134E+03  0.00000000000E+00 0.  1.
         21    1    1    2  502  501  0.24519065319E-02  0.13901743526E-02  0.60672497277E-01  0.60737931774E-01  0.00000000000E+00 0.  1.
<mgrwt>
<rscale>  1 0.66778073E+03</rscale>
<asrwt>0</asrwt>
<pdfrwt beam="1">  1        1 0.40561353E+00 0.66778073E+03</pdfrwt>
<pdfrwt beam="2">0</pdfrwt>
<totfact> 0.12585978E+00</totfact>
</mgrwt>
</event>
<event>
 6    1  0.7004824E-003  0.6308096E+03  0.7818608E-02  0.9843470E-01
          1   -1    0    0  502    0  0.00000000000E+00  0.00000000000E+00  0.99552130045E+02  0.99552130045E+02  0.00000000000E+00 0.  1.
         13   -1    0    0    0    0 -0.00000000000E+00 -0.00000000000E+00 -0.10000000000E+04  0.10000000000E+04  0.00000000000E+00 0.  1.
    9000005    2    1    2  501    0  0.30658861600E-02 -0.33687126604E-01 -0.90051540392E+03  0.10994765982E+04  0.63080963544E+03 0.  0.
         13    1    3    3    0    0 -0.13169243068E+03 -0.26145252784E+03 -0.65494132881E+03  0.71739003673E+03  0.00000000000E+00 0.  1.
          1    1    3    3  501    0  0.13169549657E+03  0.26141884071E+03 -0.24557407510E+03  0.38208656148E+03  0.00000000000E+00 0.  1.
         21    1    1    2  502  501 -0.30658861600E-02  0.33687126603E-01  0.67533964020E-01  0.75531837346E-01  0.00000000000E+00 0.  1.
<mgrwt>
<rscale>  1 0.63080964E+03</rscale>
<asrwt>0</asrwt>
<pdfrwt beam="1">  1        1 0.36200851E+00 0.63080964E+03</pdfrwt>
<pdfrwt beam="2">0</pdfrwt>
<totfact> 0.19755068E+00</totfact>
</mgrwt>
</event>
<event>
 6    1  0.7004824E-003  0.6344313E+03  0.7818608E-02  0.9836439E-01
          1   -1    0    0  502    0  0.00000000000E+00  0.00000000000E+00  0.10069006048E+03  0.10069006048E+03  0.00000000000E+00 0.  1.
         13   -1    0    0    0    0 -0.00000000000E+00 -0.00000000000E+00 -0.10000000000E+04  0.10000000000E+04  0.00000000000E+00 0.  1.
    9000005    2    1    2  501    0  0.76013844233E-02 -0.28280810891E-02 -0.89937395992E+03  0.11006255284E+04  0.63443126807E+03 0.  0.
         13    1    3    3    0    0 -0.48126891277E+01  0.23019228342E+03 -0.82823234732E+03  0.85963973295E+03  0.00000000000E+00 0.  1.
          1    1    3    3  501    0  0.48202905121E+01 -0.23019511150E+03 -0.71141612601E+02  0.24098579544E+03  0.00000000000E+00 0.  1.
         21    1    1    2  502  501 -0.76013844233E-02  0.28280810891E-02  0.64020403293E-01  0.64532093764E-01  0.00000000000E+00 0. -1.
<mgrwt>
<rscale>  1 0.63443127E+03</rscale>
<asrwt>0</asrwt>
<pdfrwt beam="1">  1        1 0.36614645E+00 0.63443127E+03</pdfrwt>
<pdfrwt beam="2">0</pdfrwt>
<totfact> 0.18935056E+00</totfact>
</mgrwt>
</event>
<event>
 6    1  0.7004824E-003  0.6505763E+03  0.7818608E-02  0.9805698E-01
          1   -1    0    0  502    0  0.00000000000E+00  0.00000000000E+00  0.10581519929E+03  0.10581519929E+03  0.00000000000E+00 0.  1.
         13   -1    0    0    0    0 -0.00000000000E+00 -0.00000000000E+00 -0.10000000000E+04  0.10000000000E+04  0.00000000000E+00 0.  1.
    9000005    2    1    2  501    0 -0.87680631054E-04 -0.33462909997E-04 -0.89418762552E+03  0.11058123729E+04  0.65057627875E+03 0.  0.
         13    1    3    3    0    0 -0.32440524717E+03  0.23694393332E+02 -0.45303388318E+03  0.55770950142E+03  0.00000000000E+00 0.  1.
          3    1    3    3  501    0  0.32440515949E+03 -0.23694426795E+02 -0.44115374234E+03  0.54810287150E+03  0.00000000000E+00 0.  1.
         21    1    1    2  502  501  0.87680631035E-04  0.33462909997E-04  0.28248075350E-02  0.28263660890E-02  0.00000000000E+00 0. -1.
<mgrwt>
<rscale>  1 0.65057628E+03</rscale>
<asrwt>0</asrwt>
<pdfrwt beam="1">  1        1 0.38478335E+00 0.65057628E+03</pdfrwt>
<pdfrwt beam="2">0</pdfrwt>
<totfact> 0.15628750E+00</totfact>
</mgrwt>
</event>
<event>
 6    1  0.7004824E-003  0.6524468E+03  0.7818608E-02  0.9802199E-01
          3   -1    0    0  502    0  0.00000000000E+00  0.00000000000E+00  0.10642172844E+03  0.10642172844E+03  0.00000000000E+00 0.  1.
         13   -1    0    0    0    0 -0.00000000000E+00 -0.00000000000E+00 -0.10000000000E+04  0.10000000000E+04  0.00000000000E+00 0.  1.
    9000005    2    1    2  501    0 -0.51268690413E-05  0.48972503635E-05 -0.89357827662E+03  0.11064217197E+04  0.65244684492E+03 0.  0.
         13    1    3    3    0    0  0.28293188843E+03 -0.16228452993E+03 -0.43675705827E+03  0.54510865898E+03  0.00000000000E+00 0.  1.
          1    1    3    3  501    0 -0.28293189356E+03  0.16228453482E+03 -0.45682121835E+03  0.56131306075E+03  0.00000000000E+00 0.  1.
         21    1    1    2  502  501  0.51268690342E-05 -0.48972503634E-05  0.50584523594E-05  0.87095228049E-05  0.00000000000E+00 0.  1.
<mgrwt>
<rscale>  1 0.65244684E+03</rscale>
<asrwt>0</asrwt>
<pdfrwt beam="1">  1        3 0.38698892E+00 0.65244684E+03</pdfrwt>
<pdfrwt beam="2">0</pdfrwt>
<totfact> 0.69307741E-02</totfact>
</mgrwt>
</event>
<event>
 6    1  0.1085242E-002  0.6605957E+03  0.7818608E-02  0.9787098E-01
          1   -1    0    0  502    0  0.00000000000E+00  0.00000000000E+00  0.10909666658E+03  0.10909666658E+03  0.00000000000E+00 0.  1.
         13   -1    0    0    0    0 -0.00000000000E+00 -0.00000000000E+00 -0.10000000000E+04  0.10000000000E+04  0.00000000000E+00 0.  1.
    9000005    2    1    2  501    0 -0.29044808798E-05  0.12972152518E-04 -0.89090331147E+03  0.11090966409E+04  0.66059567703E+03 0.  0.
         13    1    3    3    0    0  0.25934623458E+03  0.16365877295E+03 -0.65143436944E+03  0.72000791735E+03  0.00000000000E+00 0.  1.
          1    1    3    3  501    0 -0.25934623749E+03 -0.16365875998E+03 -0.23946894203E+03  0.38908872357E+03  0.00000000000E+00 0.  1.
         21    1    1    2  502  501  0.29044808926E-05 -0.12972152540E-04 -0.21949853392E-04  0.25661426591E-04  0.00000000000E+00 0.  1.
<mgrwt>
<rscale>  1 0.66059568E+03</rscale>
<asrwt>0</asrwt>
<pdfrwt beam="1">  1        1 0.39671599E+00 0.66059568E+03</pdfrwt>
<pdfrwt beam="2">0</pdfrwt>
<totfact> 0.13809425E+00</totfact>
</mgrwt>
</event>
<event>
 6    1  0.7004824E-003  0.6440592E+03  0.7818608E-02  0.9817991E-01
          1   -1    0    0  502    0  0.00000000000E+00  0.00000000000E+00  0.10410500100E+03  0.10410500100E+03  0.00000000000E+00 0.  1.
         13   -1    0    0    0    0 -0.00000000000E+00 -0.00000000000E+00 -0.10000000000E+04  0.10000000000E+04  0.00000000000E+00 0.  1.
    9000005    2    1    2  501    0  0.59214250956E-01 -0.77148838688E-01 -0.89629041826E+03  0.11036977975E+04  0.64405924025E+03 0.  0.
         13    1    3    3    0    0 -0.30233808793E+03  0.85207018261E+02 -0.32679669555E+03  0.45328207068E+03  0.00000000000E+00 0.  1.
          3    1    3    3  501    0  0.30239730219E+03 -0.85284167100E+02 -0.56949372272E+03  0.65041572685E+03  0.00000000000E+00 0.  1.
         21    1    1    2  502  501 -0.59214250956E-01  0.77148838688E-01  0.39541926207E+00  0.40720346713E+00  0.00000000000E+00 0.  1.
<mgrwt>
<rscale>  1 0.64405925E+03</rscale>
<asrwt>0</asrwt>
<pdfrwt beam="1">  1        1 0.37856444E+00 0.64405925E+03</pdfrwt>
<pdfrwt beam="2">0</pdfrwt>
<totfact> 0.16668910E+00</totfact>
</mgrwt>
</event>
<event>
 6    1  0.7004824E-003  0.6264648E+03  0.7818608E-02  0.9851972E-01
          1   -1    0    0  502    0  0.00000000000E+00  0.00000000000E+00  0.98119814873E+02  0.98119814873E+02  0.00000000000E+00 0.  1.
         13   -1    0    0    0    0 -0.00000000000E+00 -0.00000000000E+00 -0.10000000000E+04  0.10000000000E+04  0.00000000000E+00 0.  1.
    9000005    2    1    2  501    0 -0.81789605474E-04 -0.43165297181E-03 -0.90188545747E+03  0.10981145243E+04  0.62646478752E+03 0.  0.
         13    1    3    3    0    0  0.30328401101E+03 -0.78266707979E+02 -0.44608739006E+03  0.54506956297E+03  0.00000000000E+00 0.  1.
          3    1    3    3  501    0 -0.30328409280E+03  0.78266276326E+02 -0.45579806741E+03  0.55304496129E+03  0.00000000000E+00 0.  1.
         21    1    1    2  502  501  0.81789605510E-04  0.43165297182E-03  0.52723381740E-02  0.52906108956E-02  0.00000000000E+00 0.  1.
<mgrwt>
<rscale>  1 0.62646479E+03</rscale>
<asrwt>0</asrwt>
<pdfrwt beam="1">  1        1 0.35680008E+00 0.62646479E+03</pdfrwt>
<pdfrwt beam="2">0</pdfrwt>
<totfact> 0.20834949E+00</totfact>
</mgrwt>
</event>
<event>
 6    1  0.7004824E-003  0.6079220E+03  0.7818608E-02  0.9889105E-01
          1   -1    0    0  502    0  0.00000000000E+00  0.00000000000E+00  0.92392555554E+02  0.92392555554E+02  0.00000000000E+00 0.  1.
         13   -1    0    0    0    0 -0.00000000000E+00 -0.00000000000E+00 -0.10000000000E+04  0.10000000000E+04  0.00000000000E+00 0.  1.
    9000005    2    1    2  501    0 -0.71941857951E-03  0.28367053024E-03 -0.90760693522E+03  0.10923916296E+04  0.60792197165E+03 0.  0.
         13    1    3    3    0    0  0.16819479332E+03 -0.96516910042E+02 -0.87440361754E+03  0.89564875302E+03  0.00000000000E+00 0.  1.
          3    1    3    3  501    0 -0.16819551274E+03  0.96517193713E+02 -0.33203317679E+02  0.19674287660E+03  0.00000000000E+00 0.  1.
         21    1    1    2  502  501  0.71941857953E-03 -0.28367053024E-03 -0.50922895716E-03  0.92592990723E-03  0.00000000000E+00 0. -1.
<mgrwt>
<rscale>  1 0.60792197E+03</rscale>
<asrwt>0</asrwt>
<pdfrwt beam="1">  1        1 0.33597364E+00 0.60792197E+03</pdfrwt>
<pdfrwt beam="2">0</pdfrwt>
<totfact> 0.25755745E+00</totfact>
</mgrwt>
</event>
<event>
 6    1  0.7004824E-003  0.6225959E+03  0.7818608E-02  0.9859605E-01
          1   -1    0    0  502    0  0.00000000000E+00  0.00000000000E+00  0.96908345400E+02  0.96908345400E+02  0.00000000000E+00 0.  1.
         13   -1    0    0    0    0 -0.00000000000E+00 -0.00000000000E+00 -0.10000000000E+04  0.10000000000E+04  0.00000000000E+00 0.  1.
    9000005    2    1    2  501    0 -0.13972910835E-02 -0.10459857777E-02 -0.90309315849E+03  0.10969060414E+04  0.62259586479E+03 0.  0.
         13    1    3    3    0    0  0.11429103172E+03 -0.27186814984E+03 -0.27596603712E+03  0.40389600700E+03  0.00000000000E+00 0.  1.
          1    1    3    3  501    0 -0.11429242902E+03  0.27186710385E+03 -0.62712712137E+03  0.69301003445E+03  0.00000000000E+00 0.  1.
         21    1    1    2  502  501  0.13972910835E-02  0.10459857776E-02  0.15038899106E-02  0.23039517101E-02  0.00000000000E+00 0.  1.
<mgrwt>
<rscale>  1 0.62259586E+03</rscale>
<asrwt>0</asrwt>
<pdfrwt beam="1">  1        1 0.35239473E+00 0.62259586E+03</pdfrwt>
<pdfrwt beam="2">0</pdfrwt>
<totfact> 0.21793231E+00</totfact>
</mgrwt>
</event>
<event>
 6    1  0.7004824E-003  0.6162999E+03  0.7818608E-02  0.9872154E-01
          1   -1    0    0  502    0  0.00000000000E+00  0.00000000000E+00  0.94956625007E+02  0.94956625007E+02  0.00000000000E+00 0.  1.
         13   -1    0    0    0    0 -0.00000000000E+00 -0.00000000000E+00 -0.10000000000E+04  0.10000000000E+04  0.00000000000E+00 0.  1.
    9000005    2    1    2  501    0 -0.30815434457E-04 -0.57311403566E-04 -0.90504360185E+03  0.10949563890E+04  0.61629990474E+03 0.  0.
         13    1    3    3    0    0  0.17220334791E+03  0.19885455990E+03 -0.73767040250E+03  0.78316968260E+03  0.00000000000E+00 0.  1.
          3    1    3    3  501    0 -0.17220337872E+03 -0.19885461721E+03 -0.16737319934E+03  0.31178670640E+03  0.00000000000E+00 0.  1.
         21    1    1    2  502  501  0.30815434474E-04  0.57311403539E-04  0.22685343909E-03  0.23600142119E-03  0.00000000000E+00 0.  1.
<mgrwt>
<rscale>  1 0.61629990E+03</rscale>
<asrwt>0</asrwt>
<pdfrwt beam="1">  1        1 0.34529755E+00 0.61629990E+03</pdfrwt>
<pdfrwt beam="2">0</pdfrwt>
<totfact> 0.23427340E+00</totfact>
</mgrwt>
</event>
<event>
 6    1  0.7004824E-003  0.6038328E+03  0.7818608E-02  0.9897486E-01
          1   -1    0    0  502    0  0.00000000000E+00  0.00000000000E+00  0.91153815692E+02  0.91153815692E+02  0.00000000000E+00 0.  1.
         13   -1    0    0    0    0 -0.00000000000E+00 -0.00000000000E+00 -0.10000000000E+04  0.10000000000E+04  0.00000000000E+00 0.  1.
    9000005    2    1    2  501    0 -0.16082913740E-03 -0.81400470478E-04 -0.90884645710E+03  0.10911534887E+04  0.60383280250E+03 0.  0.
         13    1    3    3    0    0 -0.23057590867E+03 -0.72180460459E+02 -0.12726177170E+03  0.27307659560E+03  0.00000000000E+00 0.  1.
          3    1    3    3  501    0  0.23057574784E+03  0.72180379058E+02 -0.78158468540E+03  0.81807689312E+03  0.00000000000E+00 0.  1.
         21    1    1    2  502  501  0.16082913739E-03  0.81400470480E-04  0.27279327872E-03  0.32696822620E-03  0.00000000000E+00 0. -1.
<mgrwt>
<rscale>  1 0.60383280E+03</rscale>
<asrwt>0</asrwt>
<pdfrwt beam="1">  1        1 0.33146912E+00 0.60383280E+03</pdfrwt>
<pdfrwt beam="2">0</pdfrwt>
<totfact> 0.26959919E+00</totfact>
</mgrwt>
</event>
<event>
 6    1  0.7004824E-003  0.6488614E+03  0.7818608E-02  0.9808918E-01
          1   -1    0    0  502    0  0.00000000000E+00  0.00000000000E+00  0.10529895706E+03  0.10529895706E+03  0.00000000000E+00 0.  1.
         13   -1    0    0    0    0 -0.00000000000E+00 -0.00000000000E+00 -0.10000000000E+04  0.10000000000E+04  0.00000000000E+00 0.  1.
    9000005    2    1    2  501    0  0.86441433724E-02 -0.48456492361E-03 -0.89474426061E+03  0.11052548807E+04  0.64886135606E+03 0.  0.
         13    1    3    3    0    0  0.45809988067E+01 -0.43256112643E+02  0.10026577996E+03  0.10929457197E+03  0.00000000000E+00 0.  1.
          1    1    3    3  501    0 -0.45723546633E+01  0.43255628078E+02 -0.99501004057E+03  0.99596030876E+03  0.00000000000E+00 0.  1.
         21    1    1    2  502  501 -0.86441433724E-02  0.48456492361E-03  0.43217671151E-01  0.44076332850E-01  0.00000000000E+00 0.  1.
<mgrwt>
<rscale>  1 0.64886136E+03</rscale>
<asrwt>0</asrwt>
<pdfrwt beam="1">  1        1 0.38290611E+00 0.64886136E+03</pdfrwt>
<pdfrwt beam="2">0</pdfrwt>
<totfact> 0.15935302E+00</totfact>
</mgrwt>
</event>
<event>
 6    1  0.7004824E-003  0.6362523E+03  0.7818608E-02  0.9832923E-01
          1   -1    0    0  502    0  0.00000000000E+00  0.00000000000E+00  0.10137160482E+03  0.10137160482E+03  0.00000000000E+00 0.  1.
         13   -1    0    0    0    0 -0.00000000000E+00 -0.00000000000E+00 -0.10000000000E+04  0.10000000000E+04  0.00000000000E+00 0.  1.
    9000005    2    1    2  501    0  0.38744432479E-01 -0.10976871472E+00 -0.89877318480E+03  0.11011858245E+04  0.63625228390E+03 0.  0.
         13    1    3    3    0    0  0.13080622395E+03 -0.70410657447E+02 -0.93633123014E+03  0.94804224666E+03  0.00000000000E+00 0.  1.
          1    1    3    3  501    0 -0.13076747952E+03  0.70300888732E+02  0.37558045346E+02  0.15314357782E+03  0.00000000000E+00 0.  1.
         21    1    1    2  502  501 -0.38744432479E-01  0.10976871472E+00  0.14478961822E+00  0.18578034159E+00  0.00000000000E+00 0.  1.
<mgrwt>
<rscale>  1 0.63625229E+03</rscale>
<asrwt>0</asrwt>
<pdfrwt beam="1">  1        1 0.36862479E+00 0.63625229E+03</pdfrwt>
<pdfrwt beam="2">0</pdfrwt>
<totfact> 0.18460815E+00</totfact>
</mgrwt>
</event>
<event>
 6    1  0.7004824E-003  0.6446008E+03  0.7818608E-02  0.9816964E-01
          1   -1    0    0  502    0  0.00000000000E+00  0.00000000000E+00  0.10388279085E+03  0.10388279085E+03  0.00000000000E+00 0.  1.
         13   -1    0    0    0    0 -0.00000000000E+00 -0.00000000000E+00 -0.10000000000E+04  0.10000000000E+04  0.00000000000E+00 0.  1.
    9000005    2    1    2  501    0  0.62585052518E-03 -0.51987261085E-03 -0.89612242592E+03  0.11038775110E+04  0.64460077342E+03 0.  0.
         13    1    3    3    0    0  0.25141468661E+03 -0.12574324395E+03 -0.71805617683E+03  0.77111956345E+03  0.00000000000E+00 0.  1.
          1    1    3    3  501    0 -0.25141406076E+03  0.12574272408E+03 -0.17806624909E+03  0.33275794757E+03  0.00000000000E+00 0.  1.
         21    1    1    2  502  501 -0.62585052516E-03  0.51987261086E-03  0.52167669233E-02  0.52798308253E-02  0.00000000000E+00 0.  1.
<mgrwt>
<rscale>  1 0.64460077E+03</rscale>
<asrwt>0</asrwt>
<pdfrwt beam="1">  1        1 0.37775640E+00 0.64460077E+03</pdfrwt>
<pdfrwt beam="2">0</pdfrwt>
<totfact> 0.16804517E+00</totfact>
</mgrwt>
</event>
<event>
 6    1  0.7004824E-003  0.6462761E+03  0.7818608E-02  0.9813792E-01
          1   -1    0    0  502    0  0.00000000000E+00  0.00000000000E+00  0.10441896575E+03  0.10441896575E+03  0.00000000000E+00 0.  1.
         13   -1    0    0    0    0 -0.00000000000E+00 -0.00000000000E+00 -0.10000000000E+04  0.10000000000E+04  0.00000000000E+00 0.  1.
    9000005    2    1    2  501    0 -0.42036990590E-03  0.17972370128E-03 -0.89558173477E+03  0.11044181292E+04  0.64627607148E+03 0.  0.
         13    1    3    3    0    0  0.24395994982E+03 -0.18683531358E+03 -0.27695093302E+03  0.41367343499E+03  0.00000000000E+00 0.  1.
          1    1    3    3  501    0 -0.24396037019E+03  0.18683549330E+03 -0.61863080174E+03  0.69074469426E+03  0.00000000000E+00 0.  1.
         21    1    1    2  502  501  0.42036990591E-03 -0.17972370129E-03  0.70051368844E-03  0.83649918965E-03  0.00000000000E+00 0. -1.
<mgrwt>
<rscale>  1 0.64627607E+03</rscale>
<asrwt>0</asrwt>
<pdfrwt beam="1">  1        1 0.37970613E+00 0.64627607E+03</pdfrwt>
<pdfrwt beam="2">0</pdfrwt>
<totfact> 0.16470055E+00</totfact>
</mgrwt>
</event>
<event>
 6    1  0.7004824E-003  0.6523201E+03  0.7818608E-02  0.9802435E-01
          1   -1    0    0  502    0  0.00000000000E+00  0.00000000000E+00  0.10638075013E+03  0.10638075013E+03  0.00000000000E+00 0.  1.
         13   -1    0    0    0    0 -0.00000000000E+00 -0.00000000000E+00 -0.10000000000E+04  0.10000000000E+04  0.00000000000E+00 0.  1.
    9000005    2    1    2  501    0  0.22662422992E-04 -0.12879438390E-03 -0.89361962373E+03  0.11063803541E+04  0.65232005636E+03 0.  0.
         13    1    3    3    0    0  0.87876149679E+02  0.14646959941E+03 -0.91807548014E+03  0.93382982843E+03  0.00000000000E+00 0.  1.
          3    1    3    3  501    0 -0.87876127017E+02 -0.14646972820E+03  0.24455856413E+02  0.17255052562E+03  0.00000000000E+00 0.  1.
         21    1    1    2  502  501 -0.22662422993E-04  0.12879438390E-03  0.37386214700E-03  0.39607383618E-03  0.00000000000E+00 0.  1.
<mgrwt>
<rscale>  1 0.65232006E+03</rscale>
<asrwt>0</asrwt>
<pdfrwt beam="1">  1        1 0.38683991E+00 0.65232006E+03</pdfrwt>
<pdfrwt beam="2">0</pdfrwt>
<totfact> 0.15299734E+00</totfact>
</mgrwt>
</event>
<event>
 6    1  0.7004824E-003  0.6413419E+03  0.7818608E-02  0.9823162E-01
          1   -1    0    0  502    0  0.00000000000E+00  0.00000000000E+00  0.10562920377E+03  0.10562920377E+03  0.00000000000E+00 0.  1.
         13   -1    0    0    0    0 -0.00000000000E+00 -0.00000000000E+00 -0.10000000000E+04  0.10000000000E+04  0.00000000000E+00 0.  1.
    9000005    2    1    2  501    0  0.23592733899E-01  0.35167599836E-01 -0.89716995296E+03  0.11028297267E+04  0.64134193676E+03 0.  0.
         13    1    3    3    0    0 -0.21237946124E+03  0.32214263633E+02 -0.39178254613E+02  0.21835230700E+03  0.00000000000E+00 0.  1.
          3    1    3    3  501    0  0.21240305397E+03 -0.32179096033E+02 -0.85799169835E+03  0.88447741972E+03  0.00000000000E+00 0.  1.
         21    1    1    2  502  501 -0.23592733899E-01 -0.35167599836E-01  0.27991567234E+01  0.27994770474E+01  0.00000000000E+00 0.  1.
<mgrwt>
<rscale>  1 0.64134194E+03</rscale>
<asrwt>0</asrwt>
<pdfrwt beam="1">  1        1 0.38410701E+00 0.64134194E+03</pdfrwt>
<pdfrwt beam="2">0</pdfrwt>
<totfact> 0.15763723E+00</totfact>
</mgrwt>
</event>
<event>
 6    1  0.7004824E-003  0.6698500E+03  0.7818608E-02  0.9770229E-01
          1   -1    0    0  502    0  0.00000000000E+00  0.00000000000E+00  0.15114476370E+03  0.15114476370E+03  0.00000000000E+00 0.  1.
         13   -1    0    0    0    0 -0.00000000000E+00 -0.00000000000E+00 -0.10000000000E+04  0.10000000000E+04  0.00000000000E+00 0.  1.
    9000005    2    1    2  501    0 -0.82394062358E+02  0.64056516996E+02 -0.76831058543E+03  0.10193135850E+04  0.66166986488E+03 0.  0.
         13    1    3    3    0    0 -0.25912547803E+03 -0.12075145474E+03 -0.69775373051E+03  0.75404721048E+03  0.00000000000E+00 0.  1.
          3    1    3    3  501    0  0.17673141567E+03  0.18480797174E+03 -0.70556854919E+02  0.26526637457E+03  0.00000000000E+00 0.  1.
         21    1    1    2  502  501  0.82394062358E+02 -0.64056516996E+02 -0.80544650867E+02  0.13183117865E+03  0.00000000000E+00 0. -1.
<mgrwt>
<rscale>  1 0.66985000E+03</rscale>
<asrwt>0</asrwt>
<pdfrwt beam="1">  1        1 0.54961848E+00 0.66985000E+03</pdfrwt>
<pdfrwt beam="2">0</pdfrwt>
<totfact> 0.26173147E-01</totfact>
</mgrwt>
</event>
<event>
 6    1  0.7004824E-003  0.6519864E+03  0.7818608E-02  0.9803059E-01
          1   -1    0    0  502    0  0.00000000000E+00  0.00000000000E+00  0.10629878614E+03  0.10629878614E+03  0.00000000000E+00 0.  1.
         13   -1    0    0    0    0 -0.00000000000E+00 -0.00000000000E+00 -0.10000000000E+04  0.10000000000E+04  0.00000000000E+00 0.  1.
    9000005    2    1    2  501    0 -0.24015028292E-02 -0.45956407715E-03 -0.89372838218E+03  0.11062715080E+04  0.65198637126E+03 0.  0.
         13    1    3    3    0    0  0.11874056322E+02  0.13229094677E+03  0.58276921748E+02  0.14504512201E+03  0.00000000000E+00 0.  1.
          3    1    3    3  501    0 -0.11876457825E+02 -0.13229140633E+03 -0.95200530393E+03  0.96122638601E+03  0.00000000000E+00 0.  1.
         21    1    1    2  502  501  0.24015028292E-02  0.45956407714E-03  0.27168325351E-01  0.27278128920E-01  0.00000000000E+00 0. -1.
<mgrwt>
<rscale>  1 0.65198637E+03</rscale>
<asrwt>0</asrwt>
<pdfrwt beam="1">  1        1 0.38654186E+00 0.65198637E+03</pdfrwt>
<pdfrwt beam="2">0</pdfrwt>
<totfact> 0.15347236E+00</totfact>
</mgrwt>
</event>
<event>
 6    1  0.7004824E-003  0.6424795E+03  0.7818608E-02  0.9820994E-01
          1   -1    0    0  502    0  0.00000000000E+00  0.00000000000E+00  0.10319497031E+03  0.10319497031E+03  0.00000000000E+00 0.  1.
         13   -1    0    0    0    0 -0.00000000000E+00 -0.00000000000E+00 -0.10000000000E+04  0.10000000000E+04  0.00000000000E+00 0.  1.
    9000005    2    1    2  501    0  0.75712159742E-06 -0.10081170103E-05 -0.89680502980E+03  0.11031949690E+04  0.64247947691E+03 0.  0.
         13    1    3    3    0    0  0.31651425083E+03  0.33772057732E+02 -0.37408709592E+03  0.49118527888E+03  0.00000000000E+00 0.  1.
          1    1    3    3  501    0 -0.31651425007E+03 -0.33772058740E+02 -0.52271793388E+03  0.61200969016E+03  0.00000000000E+00 0.  1.
         21    1    1    2  502  501 -0.75712155682E-06  0.10081170038E-05  0.10999258772E-06  0.12655557335E-05  0.00000000000E+00 0. -1.
<mgrwt>
<rscale>  1 0.64247948E+03</rscale>
<asrwt>0</asrwt>
<pdfrwt beam="1">  1        1 0.37525523E+00 0.64247948E+03</pdfrwt>
<pdfrwt beam="2">0</pdfrwt>
<totfact> 0.17242974E+00</totfact>
</mgrwt>
</event>
<event>
 6    1  0.7004824E-003  0.6523223E+03  0.7818608E-02  0.9802431E-01
          1   -1    0    0  502    0  0.00000000000E+00  0.00000000000E+00  0.10638112667E+03  0.10638112667E+03  0.00000000000E+00 0.  1.
         13   -1    0    0    0    0 -0.00000000000E+00 -0.00000000000E+00 -0.10000000000E+04  0.10000000000E+04  0.00000000000E+00 0.  1.
    9000005    2    1    2  501    0 -0.31039074997E-04  0.91174174628E-05 -0.89361889871E+03  0.11063810855E+04  0.65232229022E+03 0.  0.
         13    1    3    3    0    0  0.12163578421E+03 -0.65547214127E+02  0.54289224367E+02  0.14845545178E+03  0.00000000000E+00 0.  1.
          3    1    3    3  501    0 -0.12163581525E+03  0.65547223245E+02 -0.94790812308E+03  0.95792563377E+03  0.00000000000E+00 0.  1.
         21    1    1    2  502  501  0.31039075005E-04 -0.91174174699E-05  0.25386848679E-04  0.41122300086E-04  0.00000000000E+00 0. -1.
<mgrwt>
<rscale>  1 0.65232229E+03</rscale>
<asrwt>0</asrwt>
<pdfrwt beam="1">  1        1 0.38684128E+00 0.65232229E+03</pdfrwt>
<pdfrwt beam="2">0</pdfrwt>
<totfact> 0.15299514E+00</totfact>
</mgrwt>
</event>
<event>
 6    1  0.7004824E-003  0.6504737E+03  0.7818608E-02  0.9805891E-01
          1   -1    0    0  502    0  0.00000000000E+00  0.00000000000E+00  0.10755936368E+03  0.10755936368E+03  0.00000000000E+00 0.  1.
         13   -1    0    0    0    0 -0.00000000000E+00 -0.00000000000E+00 -0.10000000000E+04  0.10000000000E+04  0.00000000000E+00 0.  1.
    9000005    2    1    2  501    0 -0.40156742986E-01  0.49810722854E-01 -0.89422035255E+03  0.11057784977E+04  0.65047370664E+03 0.  0.
         13    1    3    3    0    0  0.99285547992E+02  0.29076037901E+03 -0.62856095214E+03  0.69963425345E+03  0.00000000000E+00 0.  1.
          3    1    3    3  501    0 -0.99325704735E+02 -0.29071056829E+03 -0.26565940041E+03  0.40614424428E+03  0.00000000000E+00 0.  1.
         21    1    1    2  502  501  0.40156742986E-01 -0.49810722854E-01  0.17797162345E+01  0.17808659544E+01  0.00000000000E+00 0.  1.
<mgrwt>
<rscale>  1 0.65047371E+03</rscale>
<asrwt>0</asrwt>
<pdfrwt beam="1">  1        1 0.39112578E+00 0.65047371E+03</pdfrwt>
<pdfrwt beam="2">0</pdfrwt>
<totfact> 0.14650009E+00</totfact>
</mgrwt>
</event>
<event>
 6    1  0.7004824E-003  0.6381205E+03  0.7818608E-02  0.9829329E-01
          1   -1    0    0  502    0  0.00000000000E+00  0.00000000000E+00  0.10179944433E+03  0.10179944433E+03  0.00000000000E+00 0.  1.
         13   -1    0    0    0    0 -0.00000000000E+00 -0.00000000000E+00 -0.10000000000E+04  0.10000000000E+04  0.00000000000E+00 0.  1.
    9000005    2    1    2  501    0 -0.28154382960E-04 -0.42105790214E-04 -0.89820050542E+03  0.11017993730E+04  0.63812045130E+03 0.  0.
         13    1    3    3    0    0  0.21948613843E+03 -0.22719787834E+03 -0.37175965880E+03  0.48785067879E+03  0.00000000000E+00 0.  1.
          1    1    3    3  501    0 -0.21948616658E+03  0.22719783624E+03 -0.52644084662E+03  0.61394869419E+03  0.00000000000E+00 0.  1.
         21    1    1    2  502  501  0.28154382961E-04  0.42105790229E-04 -0.50254017215E-04  0.71351475787E-04  0.00000000000E+00 0. -1.
<mgrwt>
<rscale>  1 0.63812045E+03</rscale>
<asrwt>0</asrwt>
<pdfrwt beam="1">  1        1 0.37018058E+00 0.63812045E+03</pdfrwt>
<pdfrwt beam="2">0</pdfrwt>
<totfact> 0.18166541E+00</totfact>
</mgrwt>
</event>
<event>
 6    1  0.7004824E-003  0.6319446E+03  0.7818608E-02  0.9841261E-01
          1   -1    0    0  502    0  0.00000000000E+00  0.00000000000E+00  0.10026967288E+03  0.10026967288E+03  0.00000000000E+00 0.  1.
         13   -1    0    0    0    0 -0.00000000000E+00 -0.00000000000E+00 -0.10000000000E+04  0.10000000000E+04  0.00000000000E+00 0.  1.
    9000005    2    1    2  501    0 -0.49640543186E-02 -0.10544655650E-01 -0.90016142396E+03  0.10998384185E+04  0.63194458424E+03 0.  0.
         13    1    3    3    0    0 -0.16390951137E+02  0.73774516435E+02  0.83877176580E+02  0.11290138753E+03  0.00000000000E+00 0.  1.
          1    1    3    3  501    0  0.16385987083E+02 -0.73785061091E+02 -0.98403860054E+03  0.98693703100E+03  0.00000000000E+00 0.  1.
         21    1    1    2  502  501  0.49640543186E-02  0.10544655650E-01  0.43109684017E+00  0.43125435325E+00  0.00000000000E+00 0. -1.
<mgrwt>
<rscale>  1 0.63194458E+03</rscale>
<asrwt>0</asrwt>
<pdfrwt beam="1">  1        1 0.36461776E+00 0.63194458E+03</pdfrwt>
<pdfrwt beam="2">0</pdfrwt>
<totfact> 0.19238129E+00</totfact>
</mgrwt>
</event>
<event>
 6    1  0.7004824E-003  0.6465677E+03  0.7818608E-02  0.9813241E-01
          3   -1    0    0  502    0  0.00000000000E+00  0.00000000000E+00  0.10543420500E+03  0.10543420500E+03  0.00000000000E+00 0.  1.
         13   -1    0    0    0    0 -0.00000000000E+00 -0.00000000000E+00 -0.10000000000E+04  0.10000000000E+04  0.00000000000E+00 0.  1.
    9000005    2    1    2  501    0 -0.83511208419E+00  0.80823834188E+00 -0.89506454588E+03  0.11041695257E+04  0.64656666278E+03 0.  0.
         13    1    3    3    0    0  0.10392913819E+03  0.30182882231E+03 -0.53769973386E+03  0.62531824500E+03  0.00000000000E+00 0.  1.
          3    1    3    3  501    0 -0.10476425027E+03 -0.30102058397E+03 -0.35736481202E+03  0.47885128065E+03  0.00000000000E+00 0.  1.
         21    1    1    2  502  501  0.83511208419E+00 -0.80823834188E+00  0.49875088092E+00  0.12646793474E+01  0.00000000000E+00 0.  1.
<mgrwt>
<rscale>  1 0.64656771E+03</rscale>
<asrwt>0</asrwt>
<pdfrwt beam="1">  1        3 0.38339792E+00 0.64656771E+03</pdfrwt>
<pdfrwt beam="2">0</pdfrwt>
<totfact> 0.72466521E-02</totfact>
</mgrwt>
</event>
<event>
 6    1  0.7004824E-003  0.6291684E+03  0.7818608E-02  0.9846673E-01
          1   -1    0    0  502    0  0.00000000000E+00  0.00000000000E+00  0.99510959499E+02  0.99510959499E+02  0.00000000000E+00 0.  1.
         13   -1    0    0    0    0 -0.00000000000E+00 -0.00000000000E+00 -0.10000000000E+04  0.10000000000E+04  0.00000000000E+00 0.  1.
    9000005    2    1    2  501    0  0.10079805338E+00  0.92467240507E+00 -0.90056641891E+03  0.10985775964E+04  0.62916770038E+03 0.  0.
         13    1    3    3    0    0  0.10796162223E+03  0.53905143685E+02 -0.95787198766E+03  0.96544301807E+03  0.00000000000E+00 0.  1.
          1    1    3    3  501    0 -0.10786082418E+03 -0.52980471280E+02  0.57305568752E+02  0.13313457830E+03  0.00000000000E+00 0.  1.
         21    1    1    2  502  501 -0.10079805338E+00 -0.92467240507E+00  0.77378411231E-01  0.93336312483E+00  0.00000000000E+00 0.  1.
<mgrwt>
<rscale>  1 0.62916839E+03</rscale>
<asrwt>0</asrwt>
<pdfrwt beam="1">  1        1 0.36185880E+00 0.62916839E+03</pdfrwt>
<pdfrwt beam="2">0</pdfrwt>
<totfact> 0.19790775E+00</totfact>
</mgrwt>
</event>
<event>
 6    1  0.7004824E-003  0.6465391E+03  0.7818608E-02  0.9813295E-01
          1   -1    0    0  502    0  0.00000000000E+00  0.00000000000E+00  0.10453147683E+03  0.10453147683E+03  0.00000000000E+00 0.  1.
         13   -1    0    0    0    0 -0.00000000000E+00 -0.00000000000E+00 -0.10000000000E+04  0.10000000000E+04  0.00000000000E+00 0.  1.
    9000005    2    1    2  501    0  0.27729904659E-02 -0.21742247180E-02 -0.89549668765E+03  0.11045030928E+04  0.64653906637E+03 0.  0.
         13    1    3    3    0    0  0.19371413199E+03 -0.10085015101E+03 -0.85492114152E+03  0.88237524677E+03  0.00000000000E+00 0.  1.
          1    1    3    3  501    0 -0.19371135900E+03  0.10084797679E+03 -0.40575546130E+02  0.22212784601E+03  0.00000000000E+00 0.  1.
         21    1    1    2  502  501 -0.27729904659E-02  0.21742247180E-02  0.28164474915E-01  0.28384051446E-01  0.00000000000E+00 0.  1.
<mgrwt>
<rscale>  1 0.64653907E+03</rscale>
<asrwt>0</asrwt>
<pdfrwt beam="1">  1        1 0.38011526E+00 0.64653907E+03</pdfrwt>
<pdfrwt beam="2">0</pdfrwt>
<totfact> 0.16400948E+00</totfact>
</mgrwt>
</event>
<event>
 6    1  0.7004824E-003  0.6483503E+03  0.7818608E-02  0.9809880E-01
          1   -1    0    0  502    0  0.00000000000E+00  0.00000000000E+00  0.10508990821E+03  0.10508990821E+03  0.00000000000E+00 0.  1.
         13   -1    0    0    0    0 -0.00000000000E+00 -0.00000000000E+00 -0.10000000000E+04  0.10000000000E+04  0.00000000000E+00 0.  1.
    9000005    2    1    2  501    0  0.17460805878E-04  0.12376130996E-04 -0.89491047253E+03  0.11050895269E+04  0.64835029773E+03 0.  0.
         13    1    3    3    0    0  0.14779770799E+03 -0.16144546739E+03 -0.85503497204E+03  0.88260614367E+03  0.00000000000E+00 0.  1.
          1    1    3    3  501    0 -0.14779769053E+03  0.16144547977E+03 -0.39875500490E+02  0.22248338321E+03  0.00000000000E+00 0.  1.
         21    1    1    2  502  501 -0.17460805889E-04 -0.12376130995E-04  0.38073304653E-03  0.38133410690E-03  0.00000000000E+00 0.  1.
<mgrwt>
<rscale>  1 0.64835030E+03</rscale>
<asrwt>0</asrwt>
<pdfrwt beam="1">  1        1 0.38214593E+00 0.64835030E+03</pdfrwt>
<pdfrwt beam="2">0</pdfrwt>
<totfact> 0.16060515E+00</totfact>
</mgrwt>
</event>
<event>
 6    1  0.7004824E-003  0.4864794E+03  0.7818608E-02  0.1017369E+00
          1   -1    0    0  502    0  0.00000000000E+00  0.00000000000E+00  0.59166525135E+02  0.59166525135E+02  0.00000000000E+00 0.  1.
         13   -1    0    0    0    0 -0.00000000000E+00 -0.00000000000E+00 -0.10000000000E+04  0.10000000000E+04  0.00000000000E+00 0.  1.
    9000005    2    1    2  501    0 -0.18999718847E-03 -0.82606092732E-03 -0.94083424507E+03  0.10591653798E+04  0.48647941907E+03 0.  0.
         13    1    3    3    0    0 -0.11521866755E+03 -0.12807549634E+03 -0.96552748269E+02  0.19748698011E+03  0.00000000000E+00 0.  1.
          3    1    3    3  501    0  0.11521847755E+03  0.12807467028E+03 -0.84428149680E+03  0.86167839974E+03  0.00000000000E+00 0.  1.
         21    1    1    2  502  501  0.18999718847E-03  0.82606092732E-03  0.77020037144E-03  0.11452878238E-02  0.00000000000E+00 0. -1.
<mgrwt>
<rscale>  1 0.48647942E+03</rscale>
<asrwt>0</asrwt>
<pdfrwt beam="1">  1        1 0.21515145E+00 0.48647942E+03</pdfrwt>
<pdfrwt beam="2">0</pdfrwt>
<totfact> 0.88074932E+00</totfact>
</mgrwt>
</event>
<event>
 6    1  0.7004824E-003  0.6380243E+03  0.7818608E-02  0.9829514E-01
          1   -1    0    0  502    0  0.00000000000E+00  0.00000000000E+00  0.10184722847E+03  0.10184722847E+03  0.00000000000E+00 0.  1.
         13   -1    0    0    0    0 -0.00000000000E+00 -0.00000000000E+00 -0.10000000000E+04  0.10000000000E+04  0.00000000000E+00 0.  1.
    9000005    2    1    2  501    0  0.36144130495E-01 -0.10219579063E+00 -0.89818778691E+03  0.11017333142E+04  0.63802428118E+03 0.  0.
         13    1    3    3    0    0  0.78517873695E+02  0.30557389036E+03 -0.53002289797E+03  0.61681823200E+03  0.00000000000E+00 0.  1.
          1    1    3    3  501    0 -0.78481729564E+02 -0.30567608615E+03 -0.36816488894E+03  0.48491508223E+03  0.00000000000E+00 0.  1.
         21    1    1    2  502  501 -0.36144130495E-01  0.10219579063E+00  0.35015384069E-01  0.11391424368E+00  0.00000000000E+00 0.  1.
<mgrwt>
<rscale>  1 0.63802429E+03</rscale>
<asrwt>0</asrwt>
<pdfrwt beam="1">  1        1 0.37035434E+00 0.63802429E+03</pdfrwt>
<pdfrwt beam="2">0</pdfrwt>
<totfact> 0.18134961E+00</totfact>
</mgrwt>
</event>
<event>
 6    1  0.7004824E-003  0.6494002E+03  0.7818608E-02  0.9807905E-01
          1   -1    0    0  502    0  0.00000000000E+00  0.00000000000E+00  0.10585167246E+03  0.10585167246E+03  0.00000000000E+00 0.  1.
         13   -1    0    0    0    0 -0.00000000000E+00 -0.00000000000E+00 -0.10000000000E+04  0.10000000000E+04  0.00000000000E+00 0.  1.
    9000005    2    1    2  501    0  0.52999991727E-01 -0.21718266340E-01 -0.89456768199E+03  0.11054284245E+04  0.64940023155E+03 0.  0.
         13    1    3    3    0    0 -0.26471670818E+03  0.16787897002E+03 -0.30326743485E+03  0.43615297913E+03  0.00000000000E+00 0.  1.
          3    1    3    3  501    0  0.26476970818E+03 -0.16790068828E+03 -0.59130024715E+03  0.66927544537E+03  0.00000000000E+00 0.  1.
         21    1    1    2  502  501 -0.52999991727E-01  0.21718266340E-01  0.41935445807E+00  0.42324796954E+00  0.00000000000E+00 0. -1.
<mgrwt>
<rscale>  1 0.64940023E+03</rscale>
<asrwt>0</asrwt>
<pdfrwt beam="1">  1        1 0.38491598E+00 0.64940023E+03</pdfrwt>
<pdfrwt beam="2">0</pdfrwt>
<totfact> 0.15611045E+00</totfact>
</mgrwt>
</event>
