<event>
 6    1  0.1200055E-002  0.5684711E+03  0.7818608E-02  0.9973068E-01
          1   -1    0    0  502    0  0.00000000000E+00  0.00000000000E+00  0.80810523987E+02  0.80810523987E+02  0.00000000000E+00 0.  1.
         13   -1    0    0    0    0 -0.00000000000E+00 -0.00000000000E+00 -0.10000000000E+04  0.10000000000E+04  0.00000000000E+00 0.  1.
    9000005    2    1    2  501    0 -0.60393493727E-03  0.40073237472E-03 -0.91921015256E+03  0.10807898347E+04  0.56847107428E+03 0.  0.
         13    1    3    3    0    0 -0.78939169779E+02  0.21864410331E+02  0.57864185399E+02  0.10028812949E+03  0.00000000000E+00 0.  1.
          3    1    3    3  501    0  0.78938565844E+02 -0.21864009599E+02 -0.97707433796E+03  0.98050170525E+03  0.00000000000E+00 0.  1.
         21    1    1    2  502  501  0.60393493727E-03 -0.40073237472E-03  0.20676549934E-01  0.20689249407E-01  0.00000000000E+00 0. -1.
<mgrwt>
<rscale>  1 0.56847107E+03</rscale>
<asrwt>0</asrwt>
<pdfrwt beam="1">  1        1 0.29385707E+00 0.56847107E+03</pdfrwt>
<pdfrwt beam="2">0</pdfrwt>
<totfact> 0.39439002E+00</totfact>
</mgrwt>
</event>
<event>
 6    1  0.1200055E-002  0.6412588E+03  0.7818608E-02  0.9823321E-01
          1   -1    0    0  502    0  0.00000000000E+00  0.00000000000E+00  0.10280326385E+03  0.10280326385E+03  0.00000000000E+00 0.  1.
         13   -1    0    0    0    0 -0.00000000000E+00 -0.00000000000E+00 -0.10000000000E+04  0.10000000000E+04  0.00000000000E+00 0.  1.
    9000005    2    1    2  501    0  0.56663612327E-05 -0.11793787650E-04 -0.89719677742E+03  0.11028032206E+04  0.64125882908E+03 0.  0.
         13    1    3    3    0    0 -0.28226652446E+03  0.93220419449E+02 -0.65524577917E+03  0.71952169429E+03  0.00000000000E+00 0.  1.
          1    1    3    3  501    0  0.28226653012E+03 -0.93220431243E+02 -0.24195099824E+03  0.38328152627E+03  0.00000000000E+00 0.  1.
         21    1    1    2  502  501 -0.56663612136E-05  0.11793787645E-04  0.41264675853E-04  0.43289427689E-04  0.00000000000E+00 0. -1.
<mgrwt>
<rscale>  1 0.64125883E+03</rscale>
<asrwt>0</asrwt>
<pdfrwt beam="1">  1        1 0.37383084E+00 0.64125883E+03</pdfrwt>
<pdfrwt beam="2">0</pdfrwt>
<totfact> 0.17497569E+00</totfact>
</mgrwt>
</event>
<event>
 6    1  0.1200055E-002  0.6501294E+03  0.7818608E-02  0.9806536E-01
          1   -1    0    0  502    0  0.00000000000E+00  0.00000000000E+00  0.11218662431E+03  0.11218662431E+03  0.00000000000E+00 0.  1.
         13   -1    0    0    0    0 -0.00000000000E+00 -0.00000000000E+00 -0.10000000000E+04  0.10000000000E+04  0.00000000000E+00 0.  1.
    9000005    2    1    2  501    0 -0.66389408553E+01  0.42250437176E+01 -0.89159675463E+03  0.11034550445E+04  0.65008179162E+03 0.  0.
         13    1    3    3    0    0 -0.46269841875E+02 -0.27374300349E+03 -0.72648915045E+03  0.77772914048E+03  0.00000000000E+00 0.  1.
          1    1    3    3  501    0  0.39630901019E+02  0.27796804720E+03 -0.16510760418E+03  0.32572590401E+03  0.00000000000E+00 0.  1.
         21    1    1    2  502  501  0.66389408553E+01 -0.42250437176E+01  0.37833789361E+01  0.87315798268E+01  0.00000000000E+00 0.  1.
<mgrwt>
<rscale>  1 0.65012942E+03</rscale>
<asrwt>0</asrwt>
<pdfrwt beam="1">  1        1 0.40795222E+00 0.65012942E+03</pdfrwt>
<pdfrwt beam="2">0</pdfrwt>
<totfact> 0.12327655E+00</totfact>
</mgrwt>
</event>
<event>
 6    1  0.1200055E-002  0.6580307E+03  0.7818608E-02  0.9791826E-01
          1   -1    0    0  502    0  0.00000000000E+00  0.00000000000E+00  0.10948037379E+03  0.10948037379E+03  0.00000000000E+00 0.  1.
         13   -1    0    0    0    0 -0.00000000000E+00 -0.00000000000E+00 -0.10000000000E+04  0.10000000000E+04  0.00000000000E+00 0.  1.
    9000005    2    1    2  501    0  0.57364197668E-01 -0.13098047141E+00 -0.89174428447E+03  0.11082473959E+04  0.65803069934E+03 0.  0.
         13    1    3    3    0    0 -0.11615429122E+03  0.16520561806E+03 -0.84497161464E+01  0.20212895219E+03  0.00000000000E+00 0.  1.
          3    1    3    3  501    0  0.11621165542E+03 -0.16533659854E+03 -0.88329456832E+03  0.90611844375E+03  0.00000000000E+00 0.  1.
         21    1    1    2  502  501 -0.57364197668E-01  0.13098047141E+00  0.12246582547E+01  0.12329778489E+01  0.00000000000E+00 0.  1.
<mgrwt>
<rscale>  1 0.65803071E+03</rscale>
<asrwt>0</asrwt>
<pdfrwt beam="1">  1        1 0.39811129E+00 0.65803071E+03</pdfrwt>
<pdfrwt beam="2">0</pdfrwt>
<totfact> 0.13619817E+00</totfact>
</mgrwt>
</event>
<event>
 6    1  0.1200055E-002  0.6540660E+03  0.7818608E-02  0.9799179E-01
          1   -1    0    0  502    0  0.00000000000E+00  0.00000000000E+00  0.10695078974E+03  0.10695078974E+03  0.00000000000E+00 0.  1.
         13   -1    0    0    0    0 -0.00000000000E+00 -0.00000000000E+00 -0.10000000000E+04  0.10000000000E+04  0.00000000000E+00 0.  1.
    9000005    2    1    2  501    0  0.19017078196E-03 -0.50950313815E-03 -0.89304896744E+03  0.11069501942E+04  0.65406595545E+03 0.  0.
         13    1    3    3    0    0 -0.22904390544E+03  0.23225053543E+03 -0.48617811805E+03  0.58546612566E+03  0.00000000000E+00 0.  1.
          1    1    3    3  501    0  0.22904409561E+03 -0.23225104493E+03 -0.40687084939E+03  0.52148406849E+03  0.00000000000E+00 0.  1.
         21    1    1    2  502  501 -0.19017078196E-03  0.50950313816E-03 -0.24281998103E-03  0.59558367783E-03  0.00000000000E+00 0. -1.
<mgrwt>
<rscale>  1 0.65406596E+03</rscale>
<asrwt>0</asrwt>
<pdfrwt beam="1">  1        1 0.38891278E+00 0.65406596E+03</pdfrwt>
<pdfrwt beam="2">0</pdfrwt>
<totfact> 0.14974801E+00</totfact>
</mgrwt>
</event>
<event>
 6    1  0.1200055E-002  0.6371516E+03  0.7818608E-02  0.9831191E-01
          1   -1    0    0  502    0  0.00000000000E+00  0.00000000000E+00  0.10222161389E+03  0.10222161389E+03  0.00000000000E+00 0.  1.
         13   -1    0    0    0    0 -0.00000000000E+00 -0.00000000000E+00 -0.10000000000E+04  0.10000000000E+04  0.00000000000E+00 0.  1.
    9000005    2    1    2  501    0  0.62004216779E+00  0.84649632903E-01 -0.89835909364E+03  0.11013678932E+04  0.63715130334E+03 0.  0.
         13    1    3    3    0    0  0.25522607720E+03  0.17730078729E+03 -0.57285965949E+03  0.65172395164E+03  0.00000000000E+00 0.  1.
          1    1    3    3  501    0 -0.25460603504E+03 -0.17721613766E+03 -0.32549943414E+03  0.44964394153E+03  0.00000000000E+00 0.  1.
         21    1    1    2  502  501 -0.62004216779E+00 -0.84649632903E-01  0.58070752239E+00  0.85372072526E+00  0.00000000000E+00 0.  1.
<mgrwt>
<rscale>  1 0.63715161E+03</rscale>
<asrwt>0</asrwt>
<pdfrwt beam="1">  1        1 0.37171574E+00 0.63715161E+03</pdfrwt>
<pdfrwt beam="2">0</pdfrwt>
<totfact> 0.17889750E+00</totfact>
</mgrwt>
</event>
<event>
 6    1  0.1200055E-002  0.4740009E+03  0.7818608E-02  0.1020797E+00
          1   -1    0    0  502    0  0.00000000000E+00  0.00000000000E+00  0.56169218355E+02  0.56169218355E+02  0.00000000000E+00 0.  1.
         13   -1    0    0    0    0 -0.00000000000E+00 -0.00000000000E+00 -0.10000000000E+04  0.10000000000E+04  0.00000000000E+00 0.  1.
    9000005    2    1    2  501    0  0.11873262622E-04 -0.72219718774E-05 -0.94383077914E+03  0.10561692042E+04  0.47400089485E+03 0.  0.
         13    1    3    3    0    0  0.13193885351E+03  0.33797668587E+02 -0.39741663859E+02  0.14187862176E+03  0.00000000000E+00 0.  1.
          1    1    3    3  501    0 -0.13193884164E+03 -0.33797675809E+02 -0.90408911528E+03  0.91429058247E+03  0.00000000000E+00 0.  1.
         21    1    1    2  502  501 -0.11873262625E-04  0.72219718767E-05 -0.25043277177E-05  0.14121009187E-04  0.00000000000E+00 0. -1.
<mgrwt>
<rscale>  1 0.47400089E+03</rscale>
<asrwt>0</asrwt>
<pdfrwt beam="1">  1        1 0.20425213E+00 0.47400089E+03</pdfrwt>
<pdfrwt beam="2">0</pdfrwt>
<totfact> 0.98756949E+00</totfact>
</mgrwt>
</event>
<event>
 6    1  0.1200055E-002  0.6495198E+03  0.7818608E-02  0.9807681E-01
          1   -1    0    0  502    0  0.00000000000E+00  0.00000000000E+00  0.10547438928E+03  0.10547438928E+03  0.00000000000E+00 0.  1.
         13   -1    0    0    0    0 -0.00000000000E+00 -0.00000000000E+00 -0.10000000000E+04  0.10000000000E+04  0.00000000000E+00 0.  1.
    9000005    2    1    2  501    0 -0.22760877452E-02 -0.24247759291E-02 -0.89453045129E+03  0.11054685164E+04  0.64951975516E+03 0.  0.
         13    1    3    3    0    0  0.10717586796E+03 -0.28463590956E+03 -0.64106131901E+03  0.70955188846E+03  0.00000000000E+00 0.  1.
          3    1    3    3  501    0 -0.10717814404E+03  0.28463348479E+03 -0.25346913228E+03  0.39591662789E+03  0.00000000000E+00 0.  1.
         21    1    1    2  502  501  0.22760877452E-02  0.24247759291E-02  0.48405692211E-02  0.58729229618E-02  0.00000000000E+00 0. -1.
<mgrwt>
<rscale>  1 0.64951976E+03</rscale>
<asrwt>0</asrwt>
<pdfrwt beam="1">  1        1 0.38354404E+00 0.64951976E+03</pdfrwt>
<pdfrwt beam="2">0</pdfrwt>
<totfact> 0.15830272E+00</totfact>
</mgrwt>
</event>
<event>
 6    1  0.1200055E-002  0.6536701E+03  0.7818608E-02  0.9799917E-01
          1   -1    0    0  502    0  0.00000000000E+00  0.00000000000E+00  0.11166950885E+03  0.11166950885E+03  0.00000000000E+00 0.  1.
         13   -1    0    0    0    0 -0.00000000000E+00 -0.00000000000E+00 -0.10000000000E+04  0.10000000000E+04  0.00000000000E+00 0.  1.
    9000005    2    1    2  501    0 -0.10920992362E+01 -0.60878710041E+00 -0.89308945643E+03  0.11067490360E+04  0.65366894389E+03 0.  0.
         13    1    3    3    0    0  0.22832052277E+03 -0.13371945277E+03 -0.77028999872E+03  0.81446782336E+03  0.00000000000E+00 0.  1.
          1    1    3    3  501    0 -0.22941262200E+03  0.13311066567E+03 -0.12279945771E+03  0.29228121264E+03  0.00000000000E+00 0.  1.
         21    1    1    2  502  501  0.10920992362E+01  0.60878710041E+00  0.47589652816E+01  0.49204728459E+01  0.00000000000E+00 0.  1.
<mgrwt>
<rscale>  1 0.65367014E+03</rscale>
<asrwt>0</asrwt>
<pdfrwt beam="1">  1        1 0.40607180E+00 0.65367014E+03</pdfrwt>
<pdfrwt beam="2">0</pdfrwt>
<totfact> 0.12560289E+00</totfact>
</mgrwt>
</event>
<event>
 6    1  0.1200055E-002  0.6370323E+03  0.7818608E-02  0.9831421E-01
          1   -1    0    0  502    0  0.00000000000E+00  0.00000000000E+00  0.10161199805E+03  0.10161199805E+03  0.00000000000E+00 0.  1.
         13   -1    0    0    0    0 -0.00000000000E+00 -0.00000000000E+00 -0.10000000000E+04  0.10000000000E+04  0.00000000000E+00 0.  1.
    9000005    2    1    2  501    0 -0.24113378080E-02  0.25803358312E-01 -0.89854628972E+03  0.11014516028E+04  0.63703233653E+03 0.  0.
         13    1    3    3    0    0  0.37162643007E+02  0.31540579947E+03 -0.49159824469E+03  0.58526123617E+03  0.00000000000E+00 0.  1.
          1    1    3    3  501    0 -0.37165054344E+02 -0.31537999611E+03 -0.40694804503E+03  0.51619036660E+03  0.00000000000E+00 0.  1.
         21    1    1    2  502  501  0.24113378080E-02 -0.25803358312E-01  0.15828777587E+00  0.16039528622E+00  0.00000000000E+00 0.  1.
<mgrwt>
<rscale>  1 0.63703234E+03</rscale>
<asrwt>0</asrwt>
<pdfrwt beam="1">  1        1 0.36949895E+00 0.63703234E+03</pdfrwt>
<pdfrwt beam="2">0</pdfrwt>
<totfact> 0.18295811E+00</totfact>
</mgrwt>
</event>
<event>
 6    1  0.1200055E-002  0.5694356E+03  0.7818608E-02  0.9970928E-01
          1   -1    0    0  502    0  0.00000000000E+00  0.00000000000E+00  0.81613043535E+02  0.81613043535E+02  0.00000000000E+00 0.  1.
         13   -1    0    0    0    0 -0.00000000000E+00 -0.00000000000E+00 -0.10000000000E+04  0.10000000000E+04  0.00000000000E+00 0.  1.
    9000005    2    1    2  501    0 -0.79178022509E-01 -0.72768244109E+00 -0.91866165295E+03  0.10808312194E+04  0.56943512038E+03 0.  0.
         13    1    3    3    0    0  0.11492229859E+02  0.27331502928E+03 -0.60616885567E+03  0.66503673444E+03  0.00000000000E+00 0.  1.
          3    1    3    3  501    0 -0.11571407881E+02 -0.27404271172E+03 -0.31249279728E+03  0.41579448491E+03  0.00000000000E+00 0.  1.
         21    1    1    2  502  501  0.79178022509E-01  0.72768244109E+00  0.27469648822E+00  0.78182418417E+00  0.00000000000E+00 0. -1.
<mgrwt>
<rscale>  1 0.56943559E+03</rscale>
<asrwt>0</asrwt>
<pdfrwt beam="1">  1        1 0.29677533E+00 0.56943559E+03</pdfrwt>
<pdfrwt beam="2">0</pdfrwt>
<totfact> 0.38305869E+00</totfact>
</mgrwt>
</event>
<event>
 6    1  0.1200055E-002  0.6304079E+03  0.7818608E-02  0.9844253E-01
          1   -1    0    0  502    0  0.00000000000E+00  0.00000000000E+00  0.10134520873E+03  0.10134520873E+03  0.00000000000E+00 0.  1.
         13   -1    0    0    0    0 -0.00000000000E+00 -0.00000000000E+00 -0.10000000000E+04  0.10000000000E+04  0.00000000000E+00 0.  1.
    9000005    2    1    2  501    0  0.36425822381E+00  0.56035649580E-01 -0.90062772106E+03  0.10993381522E+04  0.63040776094E+03 0.  0.
         13    1    3    3    0    0 -0.28613388264E+03  0.66685834172E+02 -0.64840566644E+03  0.71186340512E+03  0.00000000000E+00 0.  1.
          1    1    3    3  501    0  0.28649814086E+03 -0.66629798522E+02 -0.25222205462E+03  0.38747474705E+03  0.00000000000E+00 0.  1.
         21    1    1    2  502  501 -0.36425822381E+00 -0.56035649580E-01  0.19729297931E+01  0.20070565552E+01  0.00000000000E+00 0. -1.
<mgrwt>
<rscale>  1 0.63040787E+03</rscale>
<asrwt>0</asrwt>
<pdfrwt beam="1">  1        1 0.36852881E+00 0.63040787E+03</pdfrwt>
<pdfrwt beam="2">0</pdfrwt>
<totfact> 0.18498476E+00</totfact>
</mgrwt>
</event>
<event>
 6    1  0.1200055E-002  0.6408409E+03  0.7818608E-02  0.9824119E-01
          1   -1    0    0  502    0  0.00000000000E+00  0.00000000000E+00  0.10267336421E+03  0.10267336421E+03  0.00000000000E+00 0.  1.
         13   -1    0    0    0    0 -0.00000000000E+00 -0.00000000000E+00 -0.10000000000E+04  0.10000000000E+04  0.00000000000E+00 0.  1.
    9000005    2    1    2  501    0 -0.12109189125E-02 -0.22289168072E-03 -0.89733064290E+03  0.11026691722E+04  0.64084086997E+03 0.  0.
         13    1    3    3    0    0  0.30221992705E+03  0.22532719050E+02 -0.62768159092E+03  0.69701419449E+03  0.00000000000E+00 0.  1.
          1    1    3    3  501    0 -0.30222113797E+03 -0.22532941942E+02 -0.26964905198E+03  0.40565497771E+03  0.00000000000E+00 0.  1.
         21    1    1    2  502  501  0.12109189125E-02  0.22289168072E-03  0.40071141011E-02  0.41920124920E-02  0.00000000000E+00 0. -1.
<mgrwt>
<rscale>  1 0.64084087E+03</rscale>
<asrwt>0</asrwt>
<pdfrwt beam="1">  1        1 0.37335848E+00 0.64084087E+03</pdfrwt>
<pdfrwt beam="2">0</pdfrwt>
<totfact> 0.17582831E+00</totfact>
</mgrwt>
</event>
<event>
 6    1  0.1200055E-002  0.6484638E+03  0.7818608E-02  0.9809666E-01
          1   -1    0    0  502    0  0.00000000000E+00  0.00000000000E+00  0.10523354636E+03  0.10523354636E+03  0.00000000000E+00 0.  1.
         13   -1    0    0    0    0 -0.00000000000E+00 -0.00000000000E+00 -0.10000000000E+04  0.10000000000E+04  0.00000000000E+00 0.  1.
    9000005    2    1    2  501    0 -0.57088272414E-02 -0.12694543314E-02 -0.89487358045E+03  0.11051262600E+04  0.64846381981E+03 0.  0.
         13    1    3    3    0    0 -0.13885544498E+02 -0.32351256333E+03 -0.41924676875E+03  0.52973676490E+03  0.00000000000E+00 0.  1.
          3    1    3    3  501    0  0.13879835670E+02  0.32351129388E+03 -0.47562681170E+03  0.57538949513E+03  0.00000000000E+00 0.  1.
         21    1    1    2  502  501  0.57088272414E-02  0.12694543314E-02  0.10712681043E+00  0.10728632594E+00  0.00000000000E+00 0. -1.
<mgrwt>
<rscale>  1 0.64846382E+03</rscale>
<asrwt>0</asrwt>
<pdfrwt beam="1">  1        1 0.38266825E+00 0.64846382E+03</pdfrwt>
<pdfrwt beam="2">0</pdfrwt>
<totfact> 0.15975080E+00</totfact>
</mgrwt>
</event>
<event>
 6    1  0.1200055E-002  0.6552498E+03  0.7818608E-02  0.9796978E-01
          3   -1    0    0  502    0  0.00000000000E+00  0.00000000000E+00  0.12280325774E+03  0.12280325774E+03  0.00000000000E+00 0.  1.
         13   -1    0    0    0    0 -0.00000000000E+00 -0.00000000000E+00 -0.10000000000E+04  0.10000000000E+04  0.00000000000E+00 0.  1.
    9000005    2    1    2  501    0  0.96486937918E+01  0.46778941171E+01 -0.89057602819E+03  0.11056572589E+04  0.65516206555E+03 0.  0.
         13    1    3    3    0    0 -0.12293418779E+03 -0.27174436297E+03 -0.22743358258E+03  0.37507845555E+03  0.00000000000E+00 0.  1.
          3    1    3    3  501    0  0.13258288158E+03  0.27642225709E+03 -0.66314244561E+03  0.73057880332E+03  0.00000000000E+00 0.  1.
         21    1    1    2  502  501 -0.96486937918E+01 -0.46778941171E+01  0.13379285926E+02  0.17145998867E+02  0.00000000000E+00 0. -1.
<mgrwt>
<rscale>  1 0.65524981E+03</rscale>
<asrwt>0</asrwt>
<pdfrwt beam="1">  1        3 0.44655824E+00 0.65524981E+03</pdfrwt>
<pdfrwt beam="2">0</pdfrwt>
<totfact> 0.34006918E-02</totfact>
</mgrwt>
</event>
<event>
 6    1  0.1200055E-002  0.6677690E+03  0.7818608E-02  0.9773997E-01
          1   -1    0    0  502    0  0.00000000000E+00  0.00000000000E+00  0.11147908742E+03  0.11147908742E+03  0.00000000000E+00 0.  1.
         13   -1    0    0    0    0 -0.00000000000E+00 -0.00000000000E+00 -0.10000000000E+04  0.10000000000E+04  0.00000000000E+00 0.  1.
    9000005    2    1    2  501    0  0.20465549039E-03 -0.32761830271E-03 -0.88852097373E+03  0.11114786963E+04  0.66776895078E+03 0.  0.
         13    1    3    3    0    0 -0.42241227985E+02 -0.18335258803E+02  0.10616796470E+03  0.11572441309E+03  0.00000000000E+00 0.  1.
          1    1    3    3  501    0  0.42241432640E+02  0.18334931184E+02 -0.99468893843E+03  0.99575428323E+03  0.00000000000E+00 0.  1.
         21    1    1    2  502  501 -0.20465549039E-03  0.32761830271E-03  0.61157088483E-04  0.39109821208E-03  0.00000000000E+00 0.  1.
<mgrwt>
<rscale>  1 0.66776895E+03</rscale>
<asrwt>0</asrwt>
<pdfrwt beam="1">  1        1 0.40537935E+00 0.66776895E+03</pdfrwt>
<pdfrwt beam="2">0</pdfrwt>
<totfact> 0.12616403E+00</totfact>
</mgrwt>
</event>
<event>
 6    1  0.1200055E-002  0.6553847E+03  0.7818608E-02  0.9796727E-01
          1   -1    0    0  502    0  0.00000000000E+00  0.00000000000E+00  0.10738348528E+03  0.10738348528E+03  0.00000000000E+00 0.  1.
         13   -1    0    0    0    0 -0.00000000000E+00 -0.00000000000E+00 -0.10000000000E+04  0.10000000000E+04  0.00000000000E+00 0.  1.
    9000005    2    1    2  501    0 -0.74642490330E-03  0.28785119609E-03 -0.89261756574E+03  0.11073821644E+04  0.65538472627E+03 0.  0.
         13    1    3    3    0    0  0.26887953779E+03  0.11547977558E+03 -0.69550047383E+03  0.75455463256E+03  0.00000000000E+00 0.  1.
          1    1    3    3  501    0 -0.26888028421E+03 -0.11547948773E+03 -0.19711709191E+03  0.35282753187E+03  0.00000000000E+00 0.  1.
         21    1    1    2  502  501  0.74642490331E-03 -0.28785119609E-03  0.10510215907E-02  0.13208538267E-02  0.00000000000E+00 0. -1.
<mgrwt>
<rscale>  1 0.65538473E+03</rscale>
<asrwt>0</asrwt>
<pdfrwt beam="1">  1        1 0.39048622E+00 0.65538473E+03</pdfrwt>
<pdfrwt beam="2">0</pdfrwt>
<totfact> 0.14732556E+00</totfact>
</mgrwt>
</event>
<event>
 6    1  0.1200055E-002  0.6474421E+03  0.7818608E-02  0.9811591E-01
          1   -1    0    0  502    0  0.00000000000E+00  0.00000000000E+00  0.10479961782E+03  0.10479961782E+03  0.00000000000E+00 0.  1.
         13   -1    0    0    0    0 -0.00000000000E+00 -0.00000000000E+00 -0.10000000000E+04  0.10000000000E+04  0.00000000000E+00 0.  1.
    9000005    2    1    2  501    0  0.11149693122E-02  0.17238023708E-02 -0.89520440050E+03  0.11047951054E+04  0.64744212586E+03 0.  0.
         13    1    3    3    0    0  0.68927029396E+02 -0.34552325811E+02 -0.98410297403E+03  0.98711876798E+03  0.00000000000E+00 0.  1.
          3    1    3    3  501    0 -0.68925914427E+02  0.34554049614E+02  0.88898573529E+02  0.11767633747E+03  0.00000000000E+00 0.  1.
         21    1    1    2  502  501 -0.11149693122E-02 -0.17238023708E-02  0.40183218291E-02  0.45123786968E-02  0.00000000000E+00 0.  1.
<mgrwt>
<rscale>  1 0.64744213E+03</rscale>
<asrwt>0</asrwt>
<pdfrwt beam="1">  1        1 0.38109032E+00 0.64744213E+03</pdfrwt>
<pdfrwt beam="2">0</pdfrwt>
<totfact> 0.16236535E+00</totfact>
</mgrwt>
</event>
<event>
 6    1  0.1200055E-002  0.6461891E+03  0.7818608E-02  0.9813956E-01
          1   -1    0    0  502    0  0.00000000000E+00  0.00000000000E+00  0.10439159811E+03  0.10439159811E+03  0.00000000000E+00 0.  1.
         13   -1    0    0    0    0 -0.00000000000E+00 -0.00000000000E+00 -0.10000000000E+04  0.10000000000E+04  0.00000000000E+00 0.  1.
    9000005    2    1    2  501    0 -0.10652112493E-03 -0.75973979116E-03 -0.89560978724E+03  0.11043900145E+04  0.64618914659E+03 0.  0.
         13    1    3    3    0    0  0.17749090234E+03 -0.23658164651E+03 -0.67009342227E+03  0.73246098220E+03  0.00000000000E+00 0.  1.
          1    1    3    3  501    0 -0.17749100886E+03  0.23658088677E+03 -0.22551636497E+03  0.37192903232E+03  0.00000000000E+00 0.  1.
         21    1    1    2  502  501  0.10652112493E-03  0.75973979116E-03  0.13853531350E-02  0.15835891541E-02  0.00000000000E+00 0. -1.
<mgrwt>
<rscale>  1 0.64618915E+03</rscale>
<asrwt>0</asrwt>
<pdfrwt beam="1">  1        1 0.37960661E+00 0.64618915E+03</pdfrwt>
<pdfrwt beam="2">0</pdfrwt>
<totfact> 0.16486977E+00</totfact>
</mgrwt>
</event>
<event>
 6    1  0.1200055E-002  0.6769033E+03  0.7818608E-02  0.9757567E-01
          1   -1    0    0  502    0  0.00000000000E+00  0.00000000000E+00  0.12828521668E+03  0.12828521668E+03  0.00000000000E+00 0.  1.
         13   -1    0    0    0    0 -0.00000000000E+00 -0.00000000000E+00 -0.10000000000E+04  0.10000000000E+04  0.00000000000E+00 0.  1.
    9000005    2    1    2  501    0  0.18244711876E+02  0.77623509959E+01 -0.87692133907E+03  0.11077856599E+04  0.67661282121E+03 0.  0.
         13    1    3    3    0    0 -0.86843183074E+02 -0.24249029475E+03 -0.85939153330E+02  0.27153051315E+03  0.00000000000E+00 0.  1.
          1    1    3    3  501    0  0.10508789495E+03  0.25025264575E+03 -0.79098218573E+03  0.83625514678E+03  0.00000000000E+00 0.  1.
         21    1    1    2  502  501 -0.18244711876E+02 -0.77623509959E+01  0.52065557466E+01  0.20499556755E+02  0.00000000000E+00 0. -1.
<mgrwt>
<rscale>  1 0.67690327E+03</rscale>
<asrwt>0</asrwt>
<pdfrwt beam="1">  1        1 0.46649268E+00 0.67690327E+03</pdfrwt>
<pdfrwt beam="2">0</pdfrwt>
<totfact> 0.66248919E-01</totfact>
</mgrwt>
</event>
<event>
 6    1  0.1200055E-002  0.6503172E+03  0.7818608E-02  0.9806184E-01
          1   -1    0    0  502    0  0.00000000000E+00  0.00000000000E+00  0.10572826938E+03  0.10572826938E+03  0.00000000000E+00 0.  1.
         13   -1    0    0    0    0 -0.00000000000E+00 -0.00000000000E+00 -0.10000000000E+04  0.10000000000E+04  0.00000000000E+00 0.  1.
    9000005    2    1    2  501    0  0.21020916279E-04 -0.30763930212E-04 -0.89427187574E+03  0.11057281196E+04  0.65031721999E+03 0.  0.
         13    1    3    3    0    0  0.30349393631E+03 -0.11453213477E+03 -0.40904215687E+03  0.52205523210E+03  0.00000000000E+00 0.  1.
          1    1    3    3  501    0 -0.30349391529E+03  0.11453210401E+03 -0.48522971888E+03  0.58367288745E+03  0.00000000000E+00 0.  1.
         21    1    1    2  502  501 -0.21020916264E-04  0.30763930217E-04  0.14511873515E-03  0.14982571747E-03  0.00000000000E+00 0. -1.
<mgrwt>
<rscale>  1 0.65031722E+03</rscale>
<asrwt>0</asrwt>
<pdfrwt beam="1">  1        1 0.38446724E+00 0.65031722E+03</pdfrwt>
<pdfrwt beam="2">0</pdfrwt>
<totfact> 0.15679889E+00</totfact>
</mgrwt>
</event>
<event>
 6    1  0.1200055E-002  0.6310803E+03  0.7818608E-02  0.9842943E-01
          1   -1    0    0  502    0  0.00000000000E+00  0.00000000000E+00  0.99961350332E+02  0.99961350332E+02  0.00000000000E+00 0.  1.
         13   -1    0    0    0    0 -0.00000000000E+00 -0.00000000000E+00 -0.10000000000E+04  0.10000000000E+04  0.00000000000E+00 0.  1.
    9000005    2    1    2  501    0  0.13222924737E-01  0.19324482578E-01 -0.90043402791E+03  0.10995652793E+04  0.63108031530E+03 0.  0.
         13    1    3    3    0    0  0.47498128244E+01 -0.11463162311E+03 -0.96235891125E+03  0.96917369125E+03  0.00000000000E+00 0.  1.
          3    1    3    3  501    0 -0.47365898996E+01  0.11465094759E+03  0.61924883342E+02  0.13039158809E+03  0.00000000000E+00 0.  1.
         21    1    1    2  502  501 -0.13222924737E-01 -0.19324482578E-01  0.39537824140E+00  0.39607099759E+00  0.00000000000E+00 0. -1.
<mgrwt>
<rscale>  1 0.63108032E+03</rscale>
<asrwt>0</asrwt>
<pdfrwt beam="1">  1        1 0.36349659E+00 0.63108032E+03</pdfrwt>
<pdfrwt beam="2">0</pdfrwt>
<totfact> 0.19459971E+00</totfact>
</mgrwt>
</event>
<event>
 6    1  0.1200055E-002  0.6507754E+03  0.7818608E-02  0.9805325E-01
          1   -1    0    0  502    0  0.00000000000E+00  0.00000000000E+00  0.10587782577E+03  0.10587782577E+03  0.00000000000E+00 0.  1.
         13   -1    0    0    0    0 -0.00000000000E+00 -0.00000000000E+00 -0.10000000000E+04  0.10000000000E+04  0.00000000000E+00 0.  1.
    9000005    2    1    2  501    0  0.25776904124E-04  0.79100488676E-04 -0.89412285600E+03  0.11058771389E+04  0.65077535663E+03 0.  0.
         13    1    3    3    0    0 -0.99747358072E+02 -0.30475688088E+03 -0.35320056957E+03  0.47705024288E+03  0.00000000000E+00 0.  1.
          1    1    3    3  501    0  0.99747383849E+02  0.30475695998E+03 -0.54092228644E+03  0.62882689606E+03  0.00000000000E+00 0.  1.
         21    1    1    2  502  501 -0.25776904131E-04 -0.79100488631E-04  0.68177223444E-03  0.68682946628E-03  0.00000000000E+00 0. -1.
<mgrwt>
<rscale>  1 0.65077536E+03</rscale>
<asrwt>0</asrwt>
<pdfrwt beam="1">  1        1 0.38501109E+00 0.65077536E+03</pdfrwt>
<pdfrwt beam="2">0</pdfrwt>
<totfact> 0.15591971E+00</totfact>
</mgrwt>
</event>
<event>
 6    1  0.1200055E-002  0.6502041E+03  0.7818608E-02  0.9806396E-01
          1   -1    0    0  502    0  0.00000000000E+00  0.00000000000E+00  0.10569286839E+03  0.10569286839E+03  0.00000000000E+00 0.  1.
         13   -1    0    0    0    0 -0.00000000000E+00 -0.00000000000E+00 -0.10000000000E+04  0.10000000000E+04  0.00000000000E+00 0.  1.
    9000005    2    1    2  501    0 -0.13236693650E-03  0.10795184499E-02 -0.89430844703E+03  0.11056911616E+04  0.65020408056E+03 0.  0.
         13    1    3    3    0    0 -0.24444393289E+03 -0.20566195851E+03 -0.54977157076E+03  0.63584468034E+03  0.00000000000E+00 0.  1.
          1    1    3    3  501    0  0.24444380052E+03  0.20566303803E+03 -0.34453687627E+03  0.46984648124E+03  0.00000000000E+00 0.  1.
         21    1    1    2  502  501  0.13236693650E-03 -0.10795184499E-02  0.13154188167E-02  0.17068121610E-02  0.00000000000E+00 0.  1.
<mgrwt>
<rscale>  1 0.65020408E+03</rscale>
<asrwt>0</asrwt>
<pdfrwt beam="1">  1        1 0.38433851E+00 0.65020408E+03</pdfrwt>
<pdfrwt beam="2">0</pdfrwt>
<totfact> 0.15700782E+00</totfact>
</mgrwt>
</event>
<event>
 6    1  0.1200055E-002  0.6650829E+03  0.7818608E-02  0.9778882E-01
          1   -1    0    0  502    0  0.00000000000E+00  0.00000000000E+00  0.11061521349E+03  0.11061521349E+03  0.00000000000E+00 0.  1.
         13   -1    0    0    0    0 -0.00000000000E+00 -0.00000000000E+00 -0.10000000000E+04  0.10000000000E+04  0.00000000000E+00 0.  1.
    9000005    2    1    2  501    0 -0.13203191624E-01 -0.69338615157E-01 -0.88915396348E+03  0.11103738394E+04  0.66508291779E+03 0.  0.
         13    1    3    3    0    0 -0.15092498388E+03  0.19882615501E+03 -0.81132457275E+03  0.84885673292E+03  0.00000000000E+00 0.  1.
          3    1    3    3  501    0  0.15091178068E+03 -0.19889549363E+03 -0.77829390732E+02  0.26151710651E+03  0.00000000000E+00 0.  1.
         21    1    1    2  502  501  0.13203191624E-01  0.69338615157E-01 -0.23082302787E+00  0.24137406244E+00  0.00000000000E+00 0.  1.
<mgrwt>
<rscale>  1 0.66508292E+03</rscale>
<asrwt>0</asrwt>
<pdfrwt beam="1">  1        1 0.40223799E+00 0.66508292E+03</pdfrwt>
<pdfrwt beam="2">0</pdfrwt>
<totfact> 0.13037489E+00</totfact>
</mgrwt>
</event>
<event>
 6    1  0.1200055E-002  0.6342041E+03  0.7818608E-02  0.9836879E-01
          3   -1    0    0  502    0  0.00000000000E+00  0.00000000000E+00  0.11908399982E+03  0.11908399982E+03  0.00000000000E+00 0.  1.
         13   -1    0    0    0    0 -0.00000000000E+00 -0.00000000000E+00 -0.10000000000E+04  0.10000000000E+04  0.00000000000E+00 0.  1.
    9000005    2    1    2  501    0 -0.16158951906E+02 -0.45824140346E+02 -0.85337204438E+03  0.10632303243E+04  0.63234002947E+03 0.  0.
         13    1    3    3    0    0 -0.10977347685E+03 -0.15480260278E+03  0.80168449678E+01  0.18994296999E+03  0.00000000000E+00 0.  1.
          3    1    3    3  501    0  0.93614524944E+02  0.10897846243E+03 -0.86138888934E+03  0.87328735433E+03  0.00000000000E+00 0.  1.
         21    1    1    2  502  501  0.16158951906E+02  0.45824140346E+02 -0.27543955803E+02  0.55853675496E+02  0.00000000000E+00 0. -1.
<mgrwt>
<rscale>  1 0.63420413E+03</rscale>
<asrwt>0</asrwt>
<pdfrwt beam="1">  1        3 0.43303364E+00 0.63420413E+03</pdfrwt>
<pdfrwt beam="2">0</pdfrwt>
<totfact> 0.40032190E-02</totfact>
</mgrwt>
</event>
<event>
 6    1  0.1200055E-002  0.5971439E+03  0.7818608E-02  0.9911349E-01
          1   -1    0    0  502    0  0.00000000000E+00  0.00000000000E+00  0.90001092310E+02  0.90001092310E+02  0.00000000000E+00 0.  1.
         13   -1    0    0    0    0 -0.00000000000E+00 -0.00000000000E+00 -0.10000000000E+04  0.10000000000E+04  0.00000000000E+00 0.  1.
    9000005    2    1    2  501    0  0.24272134953E+00 -0.15977223523E-01 -0.91083594413E+03  0.10891294279E+04  0.59714381377E+03 0.  0.
         13    1    3    3    0    0  0.60837177166E+02 -0.20673828976E+03 -0.78479949428E+02  0.22934904630E+03  0.00000000000E+00 0.  1.
          3    1    3    3  501    0 -0.60594455817E+02  0.20672231254E+03 -0.83235599470E+03  0.85978038155E+03  0.00000000000E+00 0.  1.
         21    1    1    2  502  501 -0.24272134953E+00  0.15977223523E-01  0.83703644167E+00  0.87166445945E+00  0.00000000000E+00 0.  1.
<mgrwt>
<rscale>  1 0.59714386E+03</rscale>
<asrwt>0</asrwt>
<pdfrwt beam="1">  1        1 0.32727739E+00 0.59714386E+03</pdfrwt>
<pdfrwt beam="2">0</pdfrwt>
<totfact> 0.28143864E+00</totfact>
</mgrwt>
</event>
<event>
 6    1  0.1200055E-002  0.6548787E+03  0.7818608E-02  0.9797668E-01
          1   -1    0    0  502    0  0.00000000000E+00  0.00000000000E+00  0.10858282831E+03  0.10858282831E+03  0.00000000000E+00 0.  1.
         13   -1    0    0    0    0 -0.00000000000E+00 -0.00000000000E+00 -0.10000000000E+04  0.10000000000E+04  0.00000000000E+00 0.  1.
    9000005    2    1    2  501    0  0.96310480387E+00 -0.12805267396E+01 -0.89224259353E+03  0.11067804297E+04  0.65487671092E+03 0.  0.
         13    1    3    3    0    0 -0.10008370205E+03 -0.19318968257E+03 -0.86050389796E+03  0.88758433925E+03  0.00000000000E+00 0.  1.
          3    1    3    3  501    0  0.10104680685E+03  0.19190915583E+03 -0.31738695564E+02  0.21919609044E+03  0.00000000000E+00 0.  1.
         21    1    1    2  502  501 -0.96310480387E+00  0.12805267396E+01  0.82542183682E+00  0.18023986248E+01  0.00000000000E+00 0. -1.
<mgrwt>
<rscale>  1 0.65487867E+03</rscale>
<asrwt>0</asrwt>
<pdfrwt beam="1">  1        1 0.39484748E+00 0.65487867E+03</pdfrwt>
<pdfrwt beam="2">0</pdfrwt>
<totfact> 0.14091309E+00</totfact>
</mgrwt>
</event>
<event>
 6    1  0.1200055E-002  0.6117833E+03  0.7818608E-02  0.9881257E-01
          1   -1    0    0  502    0  0.00000000000E+00  0.00000000000E+00  0.93591491415E+02  0.93591491415E+02  0.00000000000E+00 0.  1.
         13   -1    0    0    0    0 -0.00000000000E+00 -0.00000000000E+00 -0.10000000000E+04  0.10000000000E+04  0.00000000000E+00 0.  1.
    9000005    2    1    2  501    0  0.28643281804E-02 -0.81733889849E-03 -0.90643019126E+03  0.10935696051E+04  0.61178328645E+03 0.  0.
         13    1    3    3    0    0 -0.21228711799E+03  0.17326990177E+03 -0.69621405567E+03  0.74819936557E+03  0.00000000000E+00 0.  1.
          3    1    3    3  501    0  0.21228998232E+03 -0.17327071911E+03 -0.21021613559E+03  0.34537023954E+03  0.00000000000E+00 0.  1.
         21    1    1    2  502  501 -0.28643281804E-02  0.81733889849E-03  0.21682671067E-01  0.21886311781E-01  0.00000000000E+00 0.  1.
<mgrwt>
<rscale>  1 0.61178329E+03</rscale>
<asrwt>0</asrwt>
<pdfrwt beam="1">  1        1 0.34033341E+00 0.61178329E+03</pdfrwt>
<pdfrwt beam="2">0</pdfrwt>
<totfact> 0.24640579E+00</totfact>
</mgrwt>
</event>
<event>
 6    1  0.1200055E-002  0.6551038E+03  0.7818608E-02  0.9797249E-01
          1   -1    0    0  502    0  0.00000000000E+00  0.00000000000E+00  0.11064618037E+03  0.11064618037E+03  0.00000000000E+00 0.  1.
         13   -1    0    0    0    0 -0.00000000000E+00 -0.00000000000E+00 -0.10000000000E+04  0.10000000000E+04  0.00000000000E+00 0.  1.
    9000005    2    1    2  501    0  0.16101914197E+00  0.92164017337E-01 -0.89270692593E+03  0.11072879452E+04  0.65510373501E+03 0.  0.
         13    1    3    3    0    0 -0.10320836065E+03 -0.25812218127E+03 -0.73888637199E+03  0.78945050313E+03  0.00000000000E+00 0.  1.
          1    1    3    3  501    0  0.10336937979E+03  0.25821434528E+03 -0.15382055394E+03  0.31783744210E+03  0.00000000000E+00 0.  1.
         21    1    1    2  502  501 -0.16101914197E+00 -0.92164017337E-01  0.33531062971E+01  0.33582351332E+01  0.00000000000E+00 0.  1.
<mgrwt>
<rscale>  1 0.65510376E+03</rscale>
<asrwt>0</asrwt>
<pdfrwt beam="1">  1        1 0.40235060E+00 0.65510376E+03</pdfrwt>
<pdfrwt beam="2">0</pdfrwt>
<totfact> 0.13046938E+00</totfact>
</mgrwt>
</event>
<event>
 6    1  0.1200055E-002  0.6569427E+03  0.7818608E-02  0.9793838E-01
          1   -1    0    0  502    0  0.00000000000E+00  0.00000000000E+00  0.10821929100E+03  0.10821929100E+03  0.00000000000E+00 0.  1.
         13   -1    0    0    0    0 -0.00000000000E+00 -0.00000000000E+00 -0.10000000000E+04  0.10000000000E+04  0.00000000000E+00 0.  1.
    9000005    2    1    2  501    0 -0.53993230283E-01 -0.24871346054E-01 -0.89210358134E+03  0.11078909917E+04  0.65694265063E+03 0.  0.
         13    1    3    3    0    0  0.28669094177E+03 -0.87977874032E+02 -0.22009039055E+03  0.37198330934E+03  0.00000000000E+00 0.  1.
          1    1    3    3  501    0 -0.28674493500E+03  0.87953002685E+02 -0.67201319079E+03  0.73590768240E+03  0.00000000000E+00 0.  1.
         21    1    1    2  502  501  0.53993230283E-01  0.24871346054E-01  0.32287233652E+00  0.32829925139E+00  0.00000000000E+00 0.  1.
<mgrwt>
<rscale>  1 0.65694265E+03</rscale>
<asrwt>0</asrwt>
<pdfrwt beam="1">  1        1 0.39352552E+00 0.65694265E+03</pdfrwt>
<pdfrwt beam="2">0</pdfrwt>
<totfact> 0.14277737E+00</totfact>
</mgrwt>
</event>
<event>
 6    1  0.1201695E-002  0.6588218E+03  0.7818608E-02  0.9790365E-01
          1   -1    0    0  502    0  0.00000000000E+00  0.00000000000E+00  0.10851153542E+03  0.10851153542E+03  0.00000000000E+00 0.  1.
         13   -1    0    0    0    0 -0.00000000000E+00 -0.00000000000E+00 -0.10000000000E+04  0.10000000000E+04  0.00000000000E+00 0.  1.
    9000005    2    1    2  501    0  0.11278984488E-04 -0.42836472858E-06 -0.89148845947E+03  0.11085115230E+04  0.65882176900E+03 0.  0.
         13    1    3    3    0    0 -0.13753545881E+03  0.12523105927E+03  0.11693342506E+02  0.18637477001E+03  0.00000000000E+00 0.  1.
          3    1    3    3  501    0  0.13753547009E+03 -0.12523105970E+03 -0.90318180198E+03  0.92213675302E+03  0.00000000000E+00 0.  1.
         21    1    1    2  502  501 -0.11278984468E-04  0.42836472375E-06 -0.51141654706E-05  0.12391677668E-04  0.00000000000E+00 0.  1.
<mgrwt>
<rscale>  1 0.65882177E+03</rscale>
<asrwt>0</asrwt>
<pdfrwt beam="1">  1        1 0.39458823E+00 0.65882177E+03</pdfrwt>
<pdfrwt beam="2">0</pdfrwt>
<totfact> 0.14118362E+00</totfact>
</mgrwt>
</event>
<event>
 6    1  0.1200055E-002  0.6627703E+03  0.7818608E-02  0.9783107E-01
          1   -1    0    0  502    0  0.00000000000E+00  0.00000000000E+00  0.10981612309E+03  0.10981612309E+03  0.00000000000E+00 0.  1.
         13   -1    0    0    0    0 -0.00000000000E+00 -0.00000000000E+00 -0.10000000000E+04  0.10000000000E+04  0.00000000000E+00 0.  1.
    9000005    2    1    2  501    0  0.19037421325E-04 -0.34958874835E-05 -0.89018385889E+03  0.11098160966E+04  0.66277029637E+03 0.  0.
         13    1    3    3    0    0 -0.77602776519E+02  0.28131577997E+03 -0.18215982253E+03  0.34401011602E+03  0.00000000000E+00 0.  1.
          3    1    3    3  501    0  0.77602795557E+02 -0.28131578346E+03 -0.70802403636E+03  0.76580598063E+03  0.00000000000E+00 0.  1.
         21    1    1    2  502  501 -0.19037421330E-04  0.34958874602E-05 -0.18018894654E-04  0.26444757601E-04  0.00000000000E+00 0.  1.
<mgrwt>
<rscale>  1 0.66277030E+03</rscale>
<asrwt>0</asrwt>
<pdfrwt beam="1">  1        1 0.39933220E+00 0.66277030E+03</pdfrwt>
<pdfrwt beam="2">0</pdfrwt>
<totfact> 0.13438343E+00</totfact>
</mgrwt>
</event>
<event>
 6    1  0.1200055E-002  0.5344458E+03  0.7818608E-02  0.1005160E+00
          1   -1    0    0  502    0  0.00000000000E+00  0.00000000000E+00  0.71420258846E+02  0.71420258846E+02  0.00000000000E+00 0.  1.
         13   -1    0    0    0    0 -0.00000000000E+00 -0.00000000000E+00 -0.10000000000E+04  0.10000000000E+04  0.00000000000E+00 0.  1.
    9000005    2    1    2  501    0  0.27946169977E-01  0.21829526347E-01 -0.92855800474E+03  0.10713786657E+04  0.53444576519E+03 0.  0.
         13    1    3    3    0    0  0.21290209065E+03  0.10676837668E+03 -0.22134087801E+03  0.32514392312E+03  0.00000000000E+00 0.  1.
          3    1    3    3  501    0 -0.21287414448E+03 -0.10674654716E+03 -0.70721712674E+03  0.74623474260E+03  0.00000000000E+00 0.  1.
         21    1    1    2  502  501 -0.27946169977E-01 -0.21829526347E-01 -0.21736409270E-01  0.41593125933E-01  0.00000000000E+00 0. -1.
<mgrwt>
<rscale>  1 0.53444577E+03</rscale>
<asrwt>0</asrwt>
<pdfrwt beam="1">  1        1 0.25971058E+00 0.53444577E+03</pdfrwt>
<pdfrwt beam="2">0</pdfrwt>
<totfact> 0.55719581E+00</totfact>
</mgrwt>
</event>
<event>
 6    1  0.1200055E-002  0.6572555E+03  0.7818608E-02  0.9793259E-01
          1   -1    0    0  502    0  0.00000000000E+00  0.00000000000E+00  0.10799627813E+03  0.10799627813E+03  0.00000000000E+00 0.  1.
         13   -1    0    0    0    0 -0.00000000000E+00 -0.00000000000E+00 -0.10000000000E+04  0.10000000000E+04  0.00000000000E+00 0.  1.
    9000005    2    1    2  501    0  0.14491383183E-04 -0.10267892414E-04 -0.89200378531E+03  0.11079962122E+04  0.65725554645E+03 0.  0.
         13    1    3    3    0    0 -0.29586134515E+03  0.37527915677E+02 -0.21330193655E+03  0.36666060076E+03  0.00000000000E+00 0.  1.
          1    1    3    3  501    0  0.29586135964E+03 -0.37527925945E+02 -0.67870184876E+03  0.74133561149E+03  0.00000000000E+00 0.  1.
         21    1    1    2  502  501 -0.14491383223E-04  0.10267892414E-04  0.63445869179E-04  0.65884809465E-04  0.00000000000E+00 0. -1.
<mgrwt>
<rscale>  1 0.65725555E+03</rscale>
<asrwt>0</asrwt>
<pdfrwt beam="1">  1        1 0.39271457E+00 0.65725555E+03</pdfrwt>
<pdfrwt beam="2">0</pdfrwt>
<totfact> 0.14395824E+00</totfact>
</mgrwt>
</event>
<event>
 6    1  0.1200055E-002  0.6510939E+03  0.7818608E-02  0.9804729E-01
          1   -1    0    0  502    0  0.00000000000E+00  0.00000000000E+00  0.11425197674E+03  0.11425197674E+03  0.00000000000E+00 0.  1.
         13   -1    0    0    0    0 -0.00000000000E+00 -0.00000000000E+00 -0.10000000000E+04  0.10000000000E+04  0.00000000000E+00 0.  1.
    9000005    2    1    2  501    0  0.10748766932E+01  0.66140199583E+01 -0.89249093132E+03  0.11047457983E+04  0.65105937954E+03 0.  0.
         13    1    3    3    0    0  0.16807190887E+03  0.21656882251E+03 -0.75513772692E+03  0.80335745969E+03  0.00000000000E+00 0.  1.
          1    1    3    3  501    0 -0.16699703217E+03 -0.20995480255E+03 -0.13735320441E+03  0.30138833858E+03  0.00000000000E+00 0.  1.
         21    1    1    2  502  501 -0.10748766932E+01 -0.66140199583E+01  0.67429080627E+01  0.95061784676E+01  0.00000000000E+00 0.  1.
<mgrwt>
<rscale>  1 0.65109386E+03</rscale>
<asrwt>0</asrwt>
<pdfrwt beam="1">  1        1 0.41546261E+00 0.65109386E+03</pdfrwt>
<pdfrwt beam="2">0</pdfrwt>
<totfact> 0.11405070E+00</totfact>
</mgrwt>
</event>
<event>
 6    1  0.1200055E-002  0.6542857E+03  0.7818608E-02  0.9798770E-01
          1   -1    0    0  502    0  0.00000000000E+00  0.00000000000E+00  0.10706116631E+03  0.10706116631E+03  0.00000000000E+00 0.  1.
         13   -1    0    0    0    0 -0.00000000000E+00 -0.00000000000E+00 -0.10000000000E+04  0.10000000000E+04  0.00000000000E+00 0.  1.
    9000005    2    1    2  501    0 -0.49430032290E-02  0.13580123117E-02 -0.89297735219E+03  0.11070223082E+04  0.65428574746E+03 0.  0.
         13    1    3    3    0    0  0.29673640857E+03 -0.13642165455E+03 -0.47847365054E+03  0.57931027805E+03  0.00000000000E+00 0.  1.
          1    1    3    3  501    0 -0.29674135157E+03  0.13642301256E+03 -0.41450370165E+03  0.52771203016E+03  0.00000000000E+00 0.  1.
         21    1    1    2  502  501  0.49430032290E-02 -0.13580123117E-02  0.38518499650E-01  0.38858104607E-01  0.00000000000E+00 0.  1.
<mgrwt>
<rscale>  1 0.65428575E+03</rscale>
<asrwt>0</asrwt>
<pdfrwt beam="1">  1        1 0.38931415E+00 0.65428575E+03</pdfrwt>
<pdfrwt beam="2">0</pdfrwt>
<totfact> 0.14912972E+00</totfact>
</mgrwt>
</event>
<event>
 6    1  0.1200055E-002  0.6598162E+03  0.7818608E-02  0.9788532E-01
          1   -1    0    0  502    0  0.00000000000E+00  0.00000000000E+00  0.11560684086E+03  0.11560684086E+03  0.00000000000E+00 0.  1.
         13   -1    0    0    0    0 -0.00000000000E+00 -0.00000000000E+00 -0.10000000000E+04  0.10000000000E+04  0.00000000000E+00 0.  1.
    9000005    2    1    2  501    0  0.37113737158E+00 -0.32778585195E+00 -0.89115059503E+03  0.11088312873E+04  0.65981603151E+03 0.  0.
         13    1    3    3    0    0 -0.13002976702E+03  0.13913229425E+03  0.70468357922E+01  0.19056545728E+03  0.00000000000E+00 0.  1.
          1    1    3    3  501    0  0.13040090439E+03 -0.13946008010E+03 -0.89819743082E+03  0.91826583000E+03  0.00000000000E+00 0.  1.
         21    1    1    2  502  501 -0.37113737158E+00  0.32778585195E+00  0.67574358886E+01  0.67755535790E+01  0.00000000000E+00 0. -1.
<mgrwt>
<rscale>  1 0.65981622E+03</rscale>
<asrwt>0</asrwt>
<pdfrwt beam="1">  1        1 0.42038940E+00 0.65981622E+03</pdfrwt>
<pdfrwt beam="2">0</pdfrwt>
<totfact> 0.10818376E+00</totfact>
</mgrwt>
</event>
<event>
 6    1  0.1200055E-002  0.6513634E+03  0.7818608E-02  0.9804224E-01
          1   -1    0    0  502    0  0.00000000000E+00  0.00000000000E+00  0.10839221292E+03  0.10839221292E+03  0.00000000000E+00 0.  1.
         13   -1    0    0    0    0 -0.00000000000E+00 -0.00000000000E+00 -0.10000000000E+04  0.10000000000E+04  0.00000000000E+00 0.  1.
    9000005    2    1    2  501    0 -0.54443254446E-01  0.34633877994E-01 -0.89393092945E+03  0.11060681746E+04  0.65136341323E+03 0.  0.
         13    1    3    3    0    0 -0.25343933089E+03 -0.16316843307E+03 -0.65648272615E+03  0.72237455778E+03  0.00000000000E+00 0.  1.
          1    1    3    3  501    0  0.25338488764E+03  0.16320306695E+03 -0.23744820330E+03  0.38369361683E+03  0.00000000000E+00 0.  1.
         21    1    1    2  502  501  0.54443254446E-01 -0.34633877994E-01  0.23231423767E+01  0.23240383121E+01  0.00000000000E+00 0.  1.
<mgrwt>
<rscale>  1 0.65136342E+03</rscale>
<asrwt>0</asrwt>
<pdfrwt beam="1">  1        1 0.39415433E+00 0.65136342E+03</pdfrwt>
<pdfrwt beam="2">0</pdfrwt>
<totfact> 0.14200984E+00</totfact>
</mgrwt>
</event>
<event>
 6    1  0.1200055E-002  0.5752240E+03  0.7818608E-02  0.9958185E-01
          1   -1    0    0  502    0  0.00000000000E+00  0.00000000000E+00  0.82732866718E+02  0.82732866718E+02  0.00000000000E+00 0.  1.
         13   -1    0    0    0    0 -0.00000000000E+00 -0.00000000000E+00 -0.10000000000E+04  0.10000000000E+04  0.00000000000E+00 0.  1.
    9000005    2    1    2  501    0 -0.77932301573E-03 -0.22683642082E-02 -0.91727921543E+03  0.10827205488E+04  0.57522398049E+03 0.  0.
         13    1    3    3    0    0 -0.19881115675E+01 -0.25903154655E+03 -0.22339687284E+03  0.34206352844E+03  0.00000000000E+00 0.  1.
          3    1    3    3  501    0  0.19873322445E+01  0.25902927819E+03 -0.69388234259E+03  0.74065702036E+03  0.00000000000E+00 0.  1.
         21    1    1    2  502  501  0.77932301573E-03  0.22683642082E-02  0.12082147879E-01  0.12317918571E-01  0.00000000000E+00 0. -1.
<mgrwt>
<rscale>  1 0.57522398E+03</rscale>
<asrwt>0</asrwt>
<pdfrwt beam="1">  1        1 0.30084742E+00 0.57522398E+03</pdfrwt>
<pdfrwt beam="2">0</pdfrwt>
<totfact> 0.36750017E+00</totfact>
</mgrwt>
</event>
<event>
 6    1  0.1200055E-002  0.6493324E+03  0.7818608E-02  0.9808033E-01
          1   -1    0    0  502    0  0.00000000000E+00  0.00000000000E+00  0.10541145930E+03  0.10541145930E+03  0.00000000000E+00 0.  1.
         13   -1    0    0    0    0 -0.00000000000E+00 -0.00000000000E+00 -0.10000000000E+04  0.10000000000E+04  0.00000000000E+00 0.  1.
    9000005    2    1    2  501    0 -0.25056715352E-02  0.94733329526E-02 -0.89457924511E+03  0.11053979526E+04  0.64933243240E+03 0.  0.
         13    1    3    3    0    0  0.31641477701E+03  0.47493441363E+02 -0.35352187568E+03  0.47681406719E+03  0.00000000000E+00 0.  1.
          1    1    3    3  501    0 -0.31641728269E+03 -0.47483968030E+02 -0.54105736943E+03  0.62858388543E+03  0.00000000000E+00 0.  1.
         21    1    1    2  502  501  0.25056715352E-02 -0.94733329526E-02 -0.92955900167E-02  0.13506680600E-01  0.00000000000E+00 0.  1.
<mgrwt>
<rscale>  1 0.64933243E+03</rscale>
<asrwt>0</asrwt>
<pdfrwt beam="1">  1        1 0.38331521E+00 0.64933243E+03</pdfrwt>
<pdfrwt beam="2">0</pdfrwt>
<totfact> 0.15867729E+00</totfact>
</mgrwt>
</event>
<event>
 6    1  0.1200055E-002  0.6589279E+03  0.7818608E-02  0.9790169E-01
          1   -1    0    0  502    0  0.00000000000E+00  0.00000000000E+00  0.11278067286E+03  0.11278067286E+03  0.00000000000E+00 0.  1.
         13   -1    0    0    0    0 -0.00000000000E+00 -0.00000000000E+00 -0.10000000000E+04  0.10000000000E+04  0.00000000000E+00 0.  1.
    9000005    2    1    2  501    0  0.29649890859E+01  0.39808463519E+01 -0.88977544219E+03  0.11071974818E+04  0.65890916517E+03 0.  0.
         13    1    3    3    0    0 -0.10945972164E+03 -0.22032719217E+03 -0.80594522414E+03  0.84265841631E+03  0.00000000000E+00 0.  1.
          3    1    3    3  501    0  0.11242471072E+03  0.22430803852E+03 -0.83830218047E+02  0.26453906551E+03  0.00000000000E+00 0.  1.
         21    1    1    2  502  501 -0.29649890859E+01 -0.39808463519E+01  0.25561150420E+01  0.55831910288E+01  0.00000000000E+00 0.  1.
<mgrwt>
<rscale>  1 0.65892786E+03</rscale>
<asrwt>0</asrwt>
<pdfrwt beam="1">  1        1 0.41011240E+00 0.65892786E+03</pdfrwt>
<pdfrwt beam="2">0</pdfrwt>
<totfact> 0.12035546E+00</totfact>
</mgrwt>
</event>
<event>
 6    1  0.1200055E-002  0.6221095E+03  0.7818608E-02  0.9860569E-01
          1   -1    0    0  502    0  0.00000000000E+00  0.00000000000E+00  0.96886121749E+02  0.96886121749E+02  0.00000000000E+00 0.  1.
         13   -1    0    0    0    0 -0.00000000000E+00 -0.00000000000E+00 -0.10000000000E+04  0.10000000000E+04  0.00000000000E+00 0.  1.
    9000005    2    1    2  501    0 -0.65288729253E-02 -0.19802632228E-02 -0.90324483224E+03  0.10967549902E+04  0.62210954135E+03 0.  0.
         13    1    3    3    0    0  0.11585653960E+03  0.13718529286E+03 -0.89939654686E+03  0.91714594850E+03  0.00000000000E+00 0.  1.
          3    1    3    3  501    0 -0.11586306847E+03 -0.13718727313E+03 -0.38482853714E+01  0.17960904166E+03  0.00000000000E+00 0.  1.
         21    1    1    2  502  501  0.65288729253E-02  0.19802632228E-02  0.13095398462E+00  0.13113158929E+00  0.00000000000E+00 0. -1.
<mgrwt>
<rscale>  1 0.62210954E+03</rscale>
<asrwt>0</asrwt>
<pdfrwt beam="1">  1        1 0.35231391E+00 0.62210954E+03</pdfrwt>
<pdfrwt beam="2">0</pdfrwt>
<totfact> 0.21812824E+00</totfact>
</mgrwt>
</event>
<event>
 6    1  0.1200055E-002  0.6447758E+03  0.7818608E-02  0.9816632E-01
          1   -1    0    0  502    0  0.00000000000E+00  0.00000000000E+00  0.10484370797E+03  0.10484370797E+03  0.00000000000E+00 0.  1.
         13   -1    0    0    0    0 -0.00000000000E+00 -0.00000000000E+00 -0.10000000000E+04  0.10000000000E+04  0.00000000000E+00 0.  1.
    9000005    2    1    2  501    0 -0.24970307829E+01  0.12667751267E+01 -0.89177116097E+03  0.11004506459E+04  0.64476971136E+03 0.  0.
         13    1    3    3    0    0  0.13357848988E+03 -0.16530660519E+03 -0.32907474169E+02  0.21506368484E+03  0.00000000000E+00 0.  1.
          3    1    3    3  501    0 -0.13607552067E+03  0.16657338032E+03 -0.85886368680E+03  0.88538696108E+03  0.00000000000E+00 0.  1.
         21    1    1    2  502  501  0.24970307829E+01 -0.12667751267E+01 -0.33851310602E+01  0.43930620582E+01  0.00000000000E+00 0.  1.
<mgrwt>
<rscale>  1 0.64477579E+03</rscale>
<asrwt>0</asrwt>
<pdfrwt beam="1">  1        1 0.38125065E+00 0.64477579E+03</pdfrwt>
<pdfrwt beam="2">0</pdfrwt>
<totfact> 0.16218063E+00</totfact>
</mgrwt>
</event>
<event>
 6    1  0.1200055E-002  0.6439056E+03  0.7818608E-02  0.9818283E-01
          1   -1    0    0  502    0  0.00000000000E+00  0.00000000000E+00  0.11066822781E+03  0.11066822781E+03  0.00000000000E+00 0.  1.
         13   -1    0    0    0    0 -0.00000000000E+00 -0.00000000000E+00 -0.10000000000E+04  0.10000000000E+04  0.00000000000E+00 0.  1.
    9000005    2    1    2  501    0  0.13012824036E+02  0.95597148970E-01 -0.88894288865E+03  0.10976492433E+04  0.64377407468E+03 0.  0.
         13    1    3    3    0    0  0.14274606384E+03 -0.27142752404E+03 -0.62989492158E+03  0.70058329397E+03  0.00000000000E+00 0.  1.
          3    1    3    3  501    0 -0.12973323981E+03  0.27152312119E+03 -0.25904796706E+03  0.39706594930E+03  0.00000000000E+00 0.  1.
         21    1    1    2  502  501 -0.13012824036E+02 -0.95597148970E-01 -0.38888354291E+00  0.13018984546E+02  0.00000000000E+00 0.  1.
<mgrwt>
<rscale>  1 0.64390558E+03</rscale>
<asrwt>0</asrwt>
<pdfrwt beam="1">  1        1 0.40243077E+00 0.64390558E+03</pdfrwt>
<pdfrwt beam="2">0</pdfrwt>
<totfact> 0.13064153E+00</totfact>
</mgrwt>
</event>
<event>
 6    1  0.1200055E-002  0.6536879E+03  0.7818608E-02  0.9799884E-01
          1   -1    0    0  502    0  0.00000000000E+00  0.00000000000E+00  0.10907794656E+03  0.10907794656E+03  0.00000000000E+00 0.  1.
         13   -1    0    0    0    0 -0.00000000000E+00 -0.00000000000E+00 -0.10000000000E+04  0.10000000000E+04  0.00000000000E+00 0.  1.
    9000005    2    1    2  501    0 -0.16674389991E+00  0.14576533612E+00 -0.89316700986E+03  0.11068220919E+04  0.65368783568E+03 0.  0.
         13    1    3    3    0    0 -0.21185996054E+03  0.23805852454E+03 -0.32299353701E+03  0.45374147809E+03  0.00000000000E+00 0.  1.
          3    1    3    3  501    0  0.21169321664E+03 -0.23791275921E+03 -0.57017347285E+03  0.65308061378E+03  0.00000000000E+00 0.  1.
         21    1    1    2  502  501  0.16674389991E+00 -0.14576533612E+00  0.22449564155E+01  0.22558546870E+01  0.00000000000E+00 0.  1.
<mgrwt>
<rscale>  1 0.65368787E+03</rscale>
<asrwt>0</asrwt>
<pdfrwt beam="1">  1        1 0.39664791E+00 0.65368787E+03</pdfrwt>
<pdfrwt beam="2">0</pdfrwt>
<totfact> 0.13836951E+00</totfact>
</mgrwt>
</event>
<event>
 6    1  0.1200055E-002  0.4799104E+03  0.7818608E-02  0.1019160E+00
          1   -1    0    0  502    0  0.00000000000E+00  0.00000000000E+00  0.57632158257E+02  0.57632158257E+02  0.00000000000E+00 0.  1.
         13   -1    0    0    0    0 -0.00000000000E+00 -0.00000000000E+00 -0.10000000000E+04  0.10000000000E+04  0.00000000000E+00 0.  1.
    9000005    2    1    2  501    0 -0.18846306418E-01 -0.24130524179E-01 -0.94241686981E+03  0.10575743550E+04  0.47991036550E+03 0.  0.
         13    1    3    3    0    0  0.10715948983E+03  0.14922246755E+03 -0.81131410919E+03  0.83185400453E+03  0.00000000000E+00 0.  1.
          1    1    3    3  501    0 -0.10717833614E+03 -0.14924659807E+03 -0.13110276062E+03  0.22572035047E+03  0.00000000000E+00 0.  1.
         21    1    1    2  502  501  0.18846306418E-01  0.24130524179E-01  0.49028065817E-01  0.57803258563E-01  0.00000000000E+00 0. -1.
<mgrwt>
<rscale>  1 0.47991037E+03</rscale>
<asrwt>0</asrwt>
<pdfrwt beam="1">  1        1 0.20957193E+00 0.47991037E+03</pdfrwt>
<pdfrwt beam="2">0</pdfrwt>
<totfact> 0.93378325E+00</totfact>
</mgrwt>
</event>
