<event>
 6    1  0.9254630E-012  0.3000000E+03  0.7818608E-02  0.1093470E+00
          1   -1    0    0  502    0  0.00000000000E+00  0.00000000000E+00  0.22336099754E+03  0.22336099754E+03  0.00000000000E+00 0.  1.
         13   -1    0    0    0    0 -0.00000000000E+00 -0.00000000000E+00 -0.27500000000E+03  0.27500000000E+03  0.00000000000E+00 0.  1.
    9000005    2    1    2  501    0 -0.27554635759E+02  0.12680326525E+02 -0.48873699837E+02  0.46790290286E+03  0.46435378682E+03 0.  0.
         13    1    3    3    0    0 -0.14296387771E+03 -0.34954481410E+02 -0.21471757484E+03  0.26031542990E+03  0.00000000000E+00 0.  1.
          1    1    3    3  501    0  0.11540924195E+03  0.47634807935E+02  0.16584387500E+03  0.20758747296E+03  0.00000000000E+00 0.  1.
         21    1    1    2  502  501  0.27554635759E+02 -0.12680326525E+02 -0.27653026277E+01  0.30458094675E+02  0.00000000000E+00 0. -1.
<scales pt_clust_4="550.00000" pt_clust_5="550.00000" pt_clust_6="30.33230"></scales>
<mgrwt>
<rscale>  0 0.30000000E+03</rscale>
<asrwt>  1 0.30332303E+02</asrwt>
<pdfrwt beam="1">  1        1 0.81222181E+00 0.30000000E+03</pdfrwt>
<pdfrwt beam="2">0</pdfrwt>
<totfact> 0.86085069E-04</totfact>
</mgrwt>
<clustering>
<clus scale="   30.332">  1  6  2 -1</clus>
<clus scale="  464.354">  4  5 -1 -1</clus>
<clus scale="  300.000">  1  4  2 -1</clus>
</clustering>
</event>
<event>
 6    1  0.9254630E-012  0.3000000E+03  0.7818608E-02  0.1093470E+00
          1   -1    0    0  502    0  0.00000000000E+00  0.00000000000E+00  0.22093937775E+03  0.22093937775E+03  0.00000000000E+00 0.  1.
         13   -1    0    0    0    0 -0.00000000000E+00 -0.00000000000E+00 -0.27500000000E+03  0.27500000000E+03  0.00000000000E+00 0.  1.
    9000005    2    1    2  501    0 -0.29725136278E+02 -0.17802526379E+02 -0.51830892749E+02  0.46121927744E+03  0.45698606846E+03 0.  0.
         13    1    3    3    0    0  0.38753249173E+02 -0.16725431424E+02 -0.24897008193E+03  0.25252258528E+03  0.00000000000E+00 0.  1.
          1    1    3    3  501    0 -0.68478385452E+02 -0.10770949543E+01  0.19713918918E+03  0.20869669216E+03  0.00000000000E+00 0.  1.
         21    1    1    2  502  501  0.29725136278E+02  0.17802526379E+02 -0.22297294994E+01  0.34720100315E+02  0.00000000000E+00 0.  1.
<scales pt_clust_4="550.00000" pt_clust_5="550.00000" pt_clust_6="34.64843"></scales>
<mgrwt>
<rscale>  0 0.30000000E+03</rscale>
<asrwt>  1 0.34648430E+02</asrwt>
<pdfrwt beam="1">  1        1 0.80341592E+00 0.30000000E+03</pdfrwt>
<pdfrwt beam="2">0</pdfrwt>
<totfact> 0.98112669E-04</totfact>
</mgrwt>
<clustering>
<clus scale="   34.648">  1  6  2 -1</clus>
<clus scale="  456.986">  4  5 -1 -1</clus>
<clus scale="  300.000">  1  4  2 -1</clus>
</clustering>
</event>
<event>
 6    1  0.9254630E-012  0.3000000E+03  0.7818608E-02  0.1093470E+00
          1   -1    0    0  502    0  0.00000000000E+00  0.00000000000E+00  0.24678661858E+03  0.24678661858E+03  0.00000000000E+00 0.  1.
         13   -1    0    0    0    0 -0.00000000000E+00 -0.00000000000E+00 -0.27500000000E+03  0.27500000000E+03  0.00000000000E+00 0.  1.
    9000005    2    1    2  501    0 -0.22729863736E+01  0.35665496610E+02 -0.74305414989E+02  0.46346278405E+03  0.45606936247E+03 0.  0.
         13    1    3    3    0    0 -0.15391994933E+03  0.15179796576E+03  0.66487247180E+02  0.22617366613E+03  0.00000000000E+00 0.  1.
          3    1    3    3  501    0  0.15164696296E+03 -0.11613246915E+03 -0.14079266217E+03  0.23728911793E+03  0.00000000000E+00 0.  1.
         21    1    1    2  502  501  0.22729863736E+01 -0.35665496610E+02  0.46092033565E+02  0.58323834525E+02  0.00000000000E+00 0.  1.
<scales pt_clust_4="550.00000" pt_clust_5="550.00000" pt_clust_6="35.73785"></scales>
<mgrwt>
<rscale>  0 0.30000000E+03</rscale>
<asrwt>  1 0.35737853E+02</asrwt>
<pdfrwt beam="1">  1        1 0.89740589E+00 0.30000000E+03</pdfrwt>
<pdfrwt beam="2">0</pdfrwt>
<totfact> 0.11805768E-04</totfact>
</mgrwt>
<clustering>
<clus scale="   35.738">  1  6  2 -1</clus>
<clus scale="  456.069">  4  5 -1 -1</clus>
<clus scale="  300.000">  1  4  2 -1</clus>
</clustering>
</event>
<event>
 6    1  0.9254630E-012  0.3000000E+03  0.7818608E-02  0.1093470E+00
          1   -1    0    0  502    0  0.00000000000E+00  0.00000000000E+00  0.22912815404E+03  0.22912815404E+03  0.00000000000E+00 0.  1.
         13   -1    0    0    0    0 -0.00000000000E+00 -0.00000000000E+00 -0.27500000000E+03  0.27500000000E+03  0.00000000000E+00 0.  1.
    9000005    2    1    2  501    0  0.23233487002E+02  0.25578341841E+02 -0.62141690713E+02  0.46593451140E+03  0.46047728793E+03 0.  0.
         13    1    3    3    0    0 -0.65982469186E+02 -0.57780591751E+02 -0.23697593643E+03  0.25268533292E+03  0.00000000000E+00 0.  1.
          3    1    3    3  501    0  0.89215956188E+02  0.83358933591E+02  0.17483424572E+03  0.21324917849E+03  0.00000000000E+00 0.  1.
         21    1    1    2  502  501 -0.23233487002E+02 -0.25578341841E+02  0.16269844752E+02  0.38193642637E+02  0.00000000000E+00 0. -1.
<scales pt_clust_4="550.00000" pt_clust_5="550.00000" pt_clust_6="34.55498"></scales>
<mgrwt>
<rscale>  0 0.30000000E+03</rscale>
<asrwt>  1 0.34554978E+02</asrwt>
<pdfrwt beam="1">  1        1 0.83319329E+00 0.30000000E+03</pdfrwt>
<pdfrwt beam="2">0</pdfrwt>
<totfact> 0.55922287E-04</totfact>
</mgrwt>
<clustering>
<clus scale="   34.555">  1  6  2 -1</clus>
<clus scale="  460.477">  4  5 -1 -1</clus>
<clus scale="  300.000">  1  4  2 -1</clus>
</clustering>
</event>
<event>
 6    1  0.9254630E-012  0.3000000E+03  0.7818608E-02  0.1093470E+00
          1   -1    0    0  502    0  0.00000000000E+00  0.00000000000E+00  0.24833504371E+03  0.24833504371E+03  0.00000000000E+00 0.  1.
         13   -1    0    0    0    0 -0.00000000000E+00 -0.00000000000E+00 -0.27500000000E+03  0.27500000000E+03  0.00000000000E+00 0.  1.
    9000005    2    1    2  501    0  0.46180459162E+00  0.41492208368E+02 -0.43913675229E+01  0.47624014616E+03  0.47440865937E+03 0.  0.
         13    1    3    3    0    0  0.15231813358E+03 -0.16056921120E+03 -0.24525716512E+02  0.22267643830E+03  0.00000000000E+00 0.  1.
          1    1    3    3  501    0 -0.15185632899E+03  0.20206141957E+03  0.20134348989E+02  0.25356370786E+03  0.00000000000E+00 0.  1.
         21    1    1    2  502  501 -0.46180459162E+00 -0.41492208368E+02 -0.22273588767E+02  0.47094897550E+02  0.00000000000E+00 0.  1.
<scales pt_clust_4="550.00000" pt_clust_5="550.00000" pt_clust_6="41.49480"></scales>
<mgrwt>
<rscale>  0 0.30000000E+03</rscale>
<asrwt>  1 0.41494799E+02</asrwt>
<pdfrwt beam="1">  1        1 0.90303652E+00 0.30000000E+03</pdfrwt>
<pdfrwt beam="2">0</pdfrwt>
<totfact> 0.96990250E-05</totfact>
</mgrwt>
<clustering>
<clus scale="   41.495">  1  6  2 -1</clus>
<clus scale="  474.409">  4  5 -1 -1</clus>
<clus scale="  300.000">  1  4  2 -1</clus>
</clustering>
</event>
<event>
 6    1  0.9254630E-012  0.3000000E+03  0.7818608E-02  0.1093470E+00
          1   -1    0    0  502    0  0.00000000000E+00  0.00000000000E+00  0.22565724134E+03  0.22565724134E+03  0.00000000000E+00 0.  1.
         13   -1    0    0    0    0 -0.00000000000E+00 -0.00000000000E+00 -0.27500000000E+03  0.27500000000E+03  0.00000000000E+00 0.  1.
    9000005    2    1    2  501    0 -0.34889186326E+02  0.43126980546E+01 -0.42984508498E+02  0.46493215167E+03  0.46160414101E+03 0.  0.
         13    1    3    3    0    0  0.51726502252E+02 -0.16075057815E+03  0.12806618864E+03  0.21193708521E+03  0.00000000000E+00 0.  1.
          3    1    3    3  501    0 -0.86615688577E+02  0.16506327621E+03 -0.17105069714E+03  0.25299506646E+03  0.00000000000E+00 0.  1.
         21    1    1    2  502  501  0.34889186326E+02 -0.43126980546E+01 -0.63582501636E+01  0.35725089673E+02  0.00000000000E+00 0.  1.
<scales pt_clust_4="550.00000" pt_clust_5="550.00000" pt_clust_6="35.15474"></scales>
<mgrwt>
<rscale>  0 0.30000000E+03</rscale>
<asrwt>  1 0.35154743E+02</asrwt>
<pdfrwt beam="1">  1        1 0.82057179E+00 0.30000000E+03</pdfrwt>
<pdfrwt beam="2">0</pdfrwt>
<totfact> 0.71447049E-04</totfact>
</mgrwt>
<clustering>
<clus scale="   35.155">  1  6  2 -1</clus>
<clus scale="  461.604">  4  5 -1 -1</clus>
<clus scale="  300.000">  1  4  2 -1</clus>
</clustering>
</event>
<event>
 6    1  0.9254630E-012  0.3000000E+03  0.7818608E-02  0.1093470E+00
          1   -1    0    0  502    0  0.00000000000E+00  0.00000000000E+00  0.24577655206E+03  0.24577655206E+03  0.00000000000E+00 0.  1.
         13   -1    0    0    0    0 -0.00000000000E+00 -0.00000000000E+00 -0.27500000000E+03  0.27500000000E+03  0.00000000000E+00 0.  1.
    9000005    2    1    2  501    0  0.27859320739E+02 -0.46302052291E+02 -0.30377194726E+02  0.46672701062E+03  0.46259194403E+03 0.  0.
         13    1    3    3    0    0  0.31080060486E+02 -0.15764238231E+03 -0.20447115766E+03  0.26004912070E+03  0.00000000000E+00 0.  1.
          1    1    3    3  501    0 -0.32207397477E+01  0.11134033002E+03  0.17409396293E+03  0.20667788992E+03  0.00000000000E+00 0.  1.
         21    1    1    2  502  501 -0.27859320739E+02  0.46302052291E+02  0.11537467861E+01  0.54049541441E+02  0.00000000000E+00 0. -1.
<scales pt_clust_4="550.00000" pt_clust_5="550.00000" pt_clust_6="54.03723"></scales>
<mgrwt>
<rscale>  0 0.30000000E+03</rscale>
<asrwt>  1 0.54037226E+02</asrwt>
<pdfrwt beam="1">  1        1 0.89373292E+00 0.30000000E+03</pdfrwt>
<pdfrwt beam="2">0</pdfrwt>
<totfact> 0.12054562E-04</totfact>
</mgrwt>
<clustering>
<clus scale="   54.037">  1  6  2 -1</clus>
<clus scale="  462.592">  4  5 -1 -1</clus>
<clus scale="  300.000">  1  4  2 -1</clus>
</clustering>
</event>
<event>
 6    1  0.9254630E-012  0.3000000E+03  0.7818608E-02  0.1093470E+00
          1   -1    0    0  502    0  0.00000000000E+00  0.00000000000E+00  0.22869336199E+03  0.22869336199E+03  0.00000000000E+00 0.  1.
         13   -1    0    0    0    0 -0.00000000000E+00 -0.00000000000E+00 -0.27500000000E+03  0.27500000000E+03  0.00000000000E+00 0.  1.
    9000005    2    1    2  501    0 -0.32263830594E+02  0.24285534224E+02 -0.55965466112E+02  0.46217186277E+03  0.45699010427E+03 0.  0.
         13    1    3    3    0    0 -0.74331288332E+02 -0.12877292965E+03  0.14391598174E+03  0.20692853268E+03  0.00000000000E+00 0.  1.
          3    1    3    3  501    0  0.42067457739E+02  0.15305846387E+03 -0.19988144785E+03  0.25524333010E+03  0.00000000000E+00 0.  1.
         21    1    1    2  502  501  0.32263830594E+02 -0.24285534224E+02  0.96588281038E+01  0.41521499220E+02  0.00000000000E+00 0.  1.
<scales pt_clust_4="550.00000" pt_clust_5="550.00000" pt_clust_6="40.38245"></scales>
<mgrwt>
<rscale>  0 0.30000000E+03</rscale>
<asrwt>  1 0.40382446E+02</asrwt>
<pdfrwt beam="1">  1        1 0.83161223E+00 0.30000000E+03</pdfrwt>
<pdfrwt beam="2">0</pdfrwt>
<totfact> 0.55870669E-04</totfact>
</mgrwt>
<clustering>
<clus scale="   40.382">  1  6  2 -1</clus>
<clus scale="  456.990">  4  5 -1 -1</clus>
<clus scale="  300.000">  1  4  2 -1</clus>
</clustering>
</event>
<event>
 6    1  0.9254630E-012  0.3000000E+03  0.7818608E-02  0.1093470E+00
          1   -1    0    0  502    0  0.00000000000E+00  0.00000000000E+00  0.22527218678E+03  0.22527218678E+03  0.00000000000E+00 0.  1.
         13   -1    0    0    0    0 -0.00000000000E+00 -0.00000000000E+00 -0.27500000000E+03  0.27500000000E+03  0.00000000000E+00 0.  1.
    9000005    2    1    2  501    0 -0.32199203065E+02 -0.41016916932E+01 -0.50434623712E+02  0.46780509368E+03  0.46394433056E+03 0.  0.
         13    1    3    3    0    0 -0.15143378219E+03  0.11434228252E+03 -0.17537663726E+03  0.25838597651E+03  0.00000000000E+00 0.  1.
          1    1    3    3  501    0  0.11923457913E+03 -0.11844397422E+03  0.12494201355E+03  0.20941911717E+03  0.00000000000E+00 0.  1.
         21    1    1    2  502  501  0.32199203065E+02  0.41016916932E+01  0.70681048737E+00  0.32467093092E+02  0.00000000000E+00 0.  1.
<scales pt_clust_4="550.00000" pt_clust_5="550.00000" pt_clust_6="32.45940"></scales>
<mgrwt>
<rscale>  0 0.30000000E+03</rscale>
<asrwt>  1 0.32459399E+02</asrwt>
<pdfrwt beam="1">  1        1 0.81917159E+00 0.30000000E+03</pdfrwt>
<pdfrwt beam="2">0</pdfrwt>
<totfact> 0.74576800E-04</totfact>
</mgrwt>
<clustering>
<clus scale="   32.459">  1  6  2 -1</clus>
<clus scale="  463.944">  4  5 -1 -1</clus>
<clus scale="  300.000">  1  4  2 -1</clus>
</clustering>
</event>
<event>
 6    1  0.9254630E-012  0.3000000E+03  0.7818608E-02  0.1093470E+00
          1   -1    0    0  502    0  0.00000000000E+00  0.00000000000E+00  0.23310773906E+03  0.23310773906E+03  0.00000000000E+00 0.  1.
         13   -1    0    0    0    0 -0.00000000000E+00 -0.00000000000E+00 -0.27500000000E+03  0.27500000000E+03  0.00000000000E+00 0.  1.
    9000005    2    1    2  501    0 -0.12569940347E+02  0.30440401420E+02 -0.67929031540E+02  0.46612518480E+03  0.45997142644E+03 0.  0.
         13    1    3    3    0    0  0.70770558618E+02  0.23223329475E+03 -0.32469276990E+02  0.24493882727E+03  0.00000000000E+00 0.  1.
          1    1    3    3  501    0 -0.83340498965E+02 -0.20179289333E+03 -0.35459754551E+02  0.22118635753E+03  0.00000000000E+00 0.  1.
         21    1    1    2  502  501  0.12569940347E+02 -0.30440401420E+02  0.26036770600E+02  0.41982554260E+02  0.00000000000E+00 0.  1.
<scales pt_clust_4="550.00000" pt_clust_5="550.00000" pt_clust_6="32.93359"></scales>
<mgrwt>
<rscale>  0 0.30000000E+03</rscale>
<asrwt>  1 0.32933591E+02</asrwt>
<pdfrwt beam="1">  1        1 0.84766451E+00 0.30000000E+03</pdfrwt>
<pdfrwt beam="2">0</pdfrwt>
<totfact> 0.43266662E-04</totfact>
</mgrwt>
<clustering>
<clus scale="   32.934">  1  6  2 -1</clus>
<clus scale="  459.971">  4  5 -1 -1</clus>
<clus scale="  300.000">  1  4  2 -1</clus>
</clustering>
</event>
<event>
 6    1  0.9254630E-012  0.3000000E+03  0.7818608E-02  0.1093470E+00
          1   -1    0    0  502    0  0.00000000000E+00  0.00000000000E+00  0.23508459034E+03  0.23508459034E+03  0.00000000000E+00 0.  1.
         13   -1    0    0    0    0 -0.00000000000E+00 -0.00000000000E+00 -0.27500000000E+03  0.27500000000E+03  0.00000000000E+00 0.  1.
    9000005    2    1    2  501    0 -0.20237442772E+02 -0.23419063691E+02 -0.26016655289E+02  0.47615551716E+03  0.47443566849E+03 0.  0.
         13    1    3    3    0    0 -0.16215495593E+03 -0.17796021710E+03  0.62018793916E+02  0.24861697328E+03  0.00000000000E+00 0.  1.
          3    1    3    3  501    0  0.14191751316E+03  0.15454115341E+03 -0.88035449205E+02  0.22753854389E+03  0.00000000000E+00 0.  1.
         21    1    1    2  502  501  0.20237442772E+02  0.23419063691E+02 -0.13898754366E+02  0.33929073183E+02  0.00000000000E+00 0. -1.
<scales pt_clust_4="550.00000" pt_clust_5="550.00000" pt_clust_6="30.95170"></scales>
<mgrwt>
<rscale>  0 0.30000000E+03</rscale>
<asrwt>  1 0.30951698E+02</asrwt>
<pdfrwt beam="1">  1        1 0.85485306E+00 0.30000000E+03</pdfrwt>
<pdfrwt beam="2">0</pdfrwt>
<totfact> 0.37416029E-04</totfact>
</mgrwt>
<clustering>
<clus scale="   30.952">  1  6  2 -1</clus>
<clus scale="  474.436">  4  5 -1 -1</clus>
<clus scale="  300.000">  1  4  2 -1</clus>
</clustering>
</event>
<event>
 6    1  0.9254630E-012  0.3000000E+03  0.7818608E-02  0.1093470E+00
          1   -1    0    0  502    0  0.00000000000E+00  0.00000000000E+00  0.24381165931E+03  0.24381165931E+03  0.00000000000E+00 0.  1.
         13   -1    0    0    0    0 -0.00000000000E+00 -0.00000000000E+00 -0.27500000000E+03  0.27500000000E+03  0.00000000000E+00 0.  1.
    9000005    2    1    2  501    0  0.58303906539E+01 -0.36340408628E+02 -0.24907766248E+02  0.48147448789E+03  0.47941909319E+03 0.  0.
         13    1    3    3    0    0 -0.10220663049E+02  0.70451388140E+02 -0.23484096281E+03  0.24539384234E+03  0.00000000000E+00 0.  1.
          1    1    3    3  501    0  0.16051053703E+02 -0.10679179677E+03  0.20993319657E+03  0.23608064555E+03  0.00000000000E+00 0.  1.
         21    1    1    2  502  501 -0.58303906539E+01  0.36340408628E+02 -0.62805744422E+01  0.37337171422E+02  0.00000000000E+00 0. -1.
<scales pt_clust_4="550.00000" pt_clust_5="550.00000" pt_clust_6="36.80516"></scales>
<mgrwt>
<rscale>  0 0.30000000E+03</rscale>
<asrwt>  1 0.36805164E+02</asrwt>
<pdfrwt beam="1">  1        1 0.88658785E+00 0.30000000E+03</pdfrwt>
<pdfrwt beam="2">0</pdfrwt>
<totfact> 0.15986951E-04</totfact>
</mgrwt>
<clustering>
<clus scale="   36.805">  1  6  2 -1</clus>
<clus scale="  479.419">  4  5 -1 -1</clus>
<clus scale="  300.000">  1  4  2 -1</clus>
</clustering>
</event>
<event>
 6    1  0.9254630E-012  0.3000000E+03  0.7818608E-02  0.1093470E+00
          1   -1    0    0  502    0  0.00000000000E+00  0.00000000000E+00  0.22693217379E+03  0.22693217379E+03  0.00000000000E+00 0.  1.
         13   -1    0    0    0    0 -0.00000000000E+00 -0.00000000000E+00 -0.27500000000E+03  0.27500000000E+03  0.00000000000E+00 0.  1.
    9000005    2    1    2  501    0 -0.10374953531E+02 -0.39444059505E+02 -0.47172100460E+02  0.46113663707E+03  0.45690077424E+03 0.  0.
         13    1    3    3    0    0  0.14973214299E+03 -0.13598872032E+03  0.97685966887E+02  0.22462233822E+03  0.00000000000E+00 0.  1.
          1    1    3    3  501    0 -0.16010709652E+03  0.96544660815E+02 -0.14485806735E+03  0.23651429886E+03  0.00000000000E+00 0.  1.
         21    1    1    2  502  501  0.10374953531E+02  0.39444059505E+02 -0.89572575424E+00  0.40795536713E+02  0.00000000000E+00 0. -1.
<scales pt_clust_4="550.00000" pt_clust_5="550.00000" pt_clust_6="40.78570"></scales>
<mgrwt>
<rscale>  0 0.30000000E+03</rscale>
<asrwt>  1 0.40785702E+02</asrwt>
<pdfrwt beam="1">  1        1 0.82520790E+00 0.30000000E+03</pdfrwt>
<pdfrwt beam="2">0</pdfrwt>
<totfact> 0.63229498E-04</totfact>
</mgrwt>
<clustering>
<clus scale="   40.786">  1  6  2 -1</clus>
<clus scale="  456.901">  4  5 -1 -1</clus>
<clus scale="  300.000">  1  4  2 -1</clus>
</clustering>
</event>
<event>
 6    1  0.9254630E-012  0.3000000E+03  0.7818608E-02  0.1093470E+00
          1   -1    0    0  502    0  0.00000000000E+00  0.00000000000E+00  0.24932753582E+03  0.24932753582E+03  0.00000000000E+00 0.  1.
         13   -1    0    0    0    0 -0.00000000000E+00 -0.00000000000E+00 -0.27500000000E+03  0.27500000000E+03  0.00000000000E+00 0.  1.
    9000005    2    1    2  501    0 -0.28787007361E+02 -0.20399563418E+02 -0.69168680635E+02  0.46832079670E+03  0.46183896356E+03 0.  0.
         13    1    3    3    0    0 -0.14284146548E+03  0.97589920916E+02  0.12549122425E+03  0.21371832932E+03  0.00000000000E+00 0.  1.
          3    1    3    3  501    0  0.11405445811E+03 -0.11798948433E+03 -0.19465990488E+03  0.25460246738E+03  0.00000000000E+00 0.  1.
         21    1    1    2  502  501  0.28787007361E+02  0.20399563418E+02  0.43496216453E+02  0.56006739115E+02  0.00000000000E+00 0.  1.
<scales pt_clust_4="550.00000" pt_clust_5="550.00000" pt_clust_6="35.28220"></scales>
<mgrwt>
<rscale>  0 0.30000000E+03</rscale>
<asrwt>  1 0.35282205E+02</asrwt>
<pdfrwt beam="1">  1        1 0.90664558E+00 0.30000000E+03</pdfrwt>
<pdfrwt beam="2">0</pdfrwt>
<totfact> 0.85589401E-05</totfact>
</mgrwt>
<clustering>
<clus scale="   35.282">  1  6  2 -1</clus>
<clus scale="  461.839">  4  5 -1 -1</clus>
<clus scale="  300.000">  1  4  2 -1</clus>
</clustering>
</event>
<event>
 6    1  0.9254630E-012  0.3000000E+03  0.7818608E-02  0.1093470E+00
          1   -1    0    0  502    0  0.00000000000E+00  0.00000000000E+00  0.23466266410E+03  0.23466266410E+03  0.00000000000E+00 0.  1.
         13   -1    0    0    0    0 -0.00000000000E+00 -0.00000000000E+00 -0.27500000000E+03  0.27500000000E+03  0.00000000000E+00 0.  1.
    9000005    2    1    2  501    0 -0.33095631355E+02 -0.83836663495E+01 -0.56605164021E+02  0.47184403234E+03  0.46719058166E+03 0.  0.
         13    1    3    3    0    0  0.45890489605E+02  0.20272911253E+03 -0.11695127218E+03  0.23850079700E+03  0.00000000000E+00 0.  1.
          1    1    3    3  501    0 -0.78986120960E+02 -0.21111277888E+03  0.60346108160E+02  0.23334323535E+03  0.00000000000E+00 0.  1.
         21    1    1    2  502  501  0.33095631355E+02  0.83836663495E+01  0.16267828125E+02  0.37818631760E+02  0.00000000000E+00 0.  1.
<scales pt_clust_4="550.00000" pt_clust_5="550.00000" pt_clust_6="34.14098"></scales>
<mgrwt>
<rscale>  0 0.30000000E+03</rscale>
<asrwt>  1 0.34140982E+02</asrwt>
<pdfrwt beam="1">  1        1 0.85331878E+00 0.30000000E+03</pdfrwt>
<pdfrwt beam="2">0</pdfrwt>
<totfact> 0.38014079E-04</totfact>
</mgrwt>
<clustering>
<clus scale="   34.141">  1  6  2 -1</clus>
<clus scale="  467.191">  4  5 -1 -1</clus>
<clus scale="  300.000">  1  4  2 -1</clus>
</clustering>
</event>
<event>
 6    1  0.9254630E-012  0.3000000E+03  0.7818608E-02  0.1093470E+00
          1   -1    0    0  502    0  0.00000000000E+00  0.00000000000E+00  0.23115112924E+03  0.23115112924E+03  0.00000000000E+00 0.  1.
         13   -1    0    0    0    0 -0.00000000000E+00 -0.00000000000E+00 -0.27500000000E+03  0.27500000000E+03  0.00000000000E+00 0.  1.
    9000005    2    1    2  501    0 -0.10126856424E+01  0.42090731682E+02 -0.41280660100E+02  0.46396996127E+03  0.46020797129E+03 0.  0.
         13    1    3    3    0    0  0.22035430176E+03 -0.40292748944E+02  0.10311272751E+01  0.22401023893E+03  0.00000000000E+00 0.  1.
          1    1    3    3  501    0 -0.22136698740E+03  0.82383480627E+02 -0.42311787375E+02  0.23995972234E+03  0.00000000000E+00 0.  1.
         21    1    1    2  502  501  0.10126856424E+01 -0.42090731682E+02 -0.25682106571E+01  0.42181167975E+02  0.00000000000E+00 0.  1.
<scales pt_clust_4="550.00000" pt_clust_5="550.00000" pt_clust_6="42.10291"></scales>
<mgrwt>
<rscale>  0 0.30000000E+03</rscale>
<asrwt>  1 0.42102912E+02</asrwt>
<pdfrwt beam="1">  1        1 0.84054956E+00 0.30000000E+03</pdfrwt>
<pdfrwt beam="2">0</pdfrwt>
<totfact> 0.47575661E-04</totfact>
</mgrwt>
<clustering>
<clus scale="   42.103">  1  6  2 -1</clus>
<clus scale="  460.208">  4  5 -1 -1</clus>
<clus scale="  300.000">  1  4  2 -1</clus>
</clustering>
</event>
<event>
 6    1  0.9254630E-012  0.3000000E+03  0.7818608E-02  0.1093470E+00
          1   -1    0    0  502    0  0.00000000000E+00  0.00000000000E+00  0.23252913005E+03  0.23252913005E+03  0.00000000000E+00 0.  1.
         13   -1    0    0    0    0 -0.00000000000E+00 -0.00000000000E+00 -0.27500000000E+03  0.27500000000E+03  0.00000000000E+00 0.  1.
    9000005    2    1    2  501    0  0.25187356521E+02  0.23709798500E+02 -0.54107800128E+02  0.47103288891E+03  0.46663451536E+03 0.  0.
         13    1    3    3    0    0  0.24519421151E+03  0.16486718908E+02 -0.65850047852E+01  0.24583607454E+03  0.00000000000E+00 0.  1.
          3    1    3    3  501    0 -0.22000685499E+03  0.72230795917E+01 -0.47522795343E+02  0.22519681436E+03  0.00000000000E+00 0.  1.
         21    1    1    2  502  501 -0.25187356521E+02 -0.23709798500E+02  0.11636930175E+02  0.36496241140E+02  0.00000000000E+00 0.  1.
<scales pt_clust_4="550.00000" pt_clust_5="550.00000" pt_clust_6="34.59129"></scales>
<mgrwt>
<rscale>  0 0.30000000E+03</rscale>
<asrwt>  1 0.34591292E+02</asrwt>
<pdfrwt beam="1">  1        1 0.84556047E+00 0.30000000E+03</pdfrwt>
<pdfrwt beam="2">0</pdfrwt>
<totfact> 0.44771802E-04</totfact>
</mgrwt>
<clustering>
<clus scale="   34.591">  1  6  2 -1</clus>
<clus scale="  466.635">  4  5 -1 -1</clus>
<clus scale="  300.000">  1  4  2 -1</clus>
</clustering>
</event>
<event>
 6    1  0.9254630E-012  0.3000000E+03  0.7818608E-02  0.1093470E+00
          1   -1    0    0  502    0  0.00000000000E+00  0.00000000000E+00  0.23392308508E+03  0.23392308508E+03  0.00000000000E+00 0.  1.
         13   -1    0    0    0    0 -0.00000000000E+00 -0.00000000000E+00 -0.27500000000E+03  0.27500000000E+03  0.00000000000E+00 0.  1.
    9000005    2    1    2  501    0  0.38508645037E+02 -0.72526799459E+01 -0.56693668364E+02  0.46674014899E+03  0.46162395685E+03 0.  0.
         13    1    3    3    0    0  0.17335236857E+03 -0.42913291829E+02  0.13908578365E+03  0.22635690738E+03  0.00000000000E+00 0.  1.
          3    1    3    3  501    0 -0.13484372353E+03  0.35660611883E+02 -0.19577945201E+03  0.24038324161E+03  0.00000000000E+00 0.  1.
         21    1    1    2  502  501 -0.38508645037E+02  0.72526799459E+01  0.15616753440E+02  0.42182936088E+02  0.00000000000E+00 0. -1.
<scales pt_clust_4="550.00000" pt_clust_5="550.00000" pt_clust_6="39.18567"></scales>
<mgrwt>
<rscale>  0 0.30000000E+03</rscale>
<asrwt>  1 0.39185675E+02</asrwt>
<pdfrwt beam="1">  1        1 0.85062940E+00 0.30000000E+03</pdfrwt>
<pdfrwt beam="2">0</pdfrwt>
<totfact> 0.39316268E-04</totfact>
</mgrwt>
<clustering>
<clus scale="   39.186">  1  6  2 -1</clus>
<clus scale="  461.624">  4  5 -1 -1</clus>
<clus scale="  300.000">  1  4  2 -1</clus>
</clustering>
</event>
<event>
 6    1  0.9254630E-012  0.3000000E+03  0.7818608E-02  0.1093470E+00
          1   -1    0    0  502    0  0.00000000000E+00  0.00000000000E+00  0.23130831838E+03  0.23130831838E+03  0.00000000000E+00 0.  1.
         13   -1    0    0    0    0 -0.00000000000E+00 -0.00000000000E+00 -0.27500000000E+03  0.27500000000E+03  0.00000000000E+00 0.  1.
    9000005    2    1    2  501    0 -0.25772306510E+02 -0.18025645957E+02 -0.66948791751E+02  0.46719273495E+03  0.46130009233E+03 0.  0.
         13    1    3    3    0    0  0.14786315887E+03 -0.15379637874E+03  0.47889318500E+02  0.21865549774E+03  0.00000000000E+00 0.  1.
          3    1    3    3  501    0 -0.17363546538E+03  0.13577073278E+03 -0.11483811025E+03  0.24853723722E+03  0.00000000000E+00 0.  1.
         21    1    1    2  502  501  0.25772306510E+02  0.18025645957E+02  0.23257110129E+02  0.39115583423E+02  0.00000000000E+00 0.  1.
<scales pt_clust_4="550.00000" pt_clust_5="550.00000" pt_clust_6="31.45053"></scales>
<mgrwt>
<rscale>  0 0.30000000E+03</rscale>
<asrwt>  1 0.31450528E+02</asrwt>
<pdfrwt beam="1">  1        1 0.84112116E+00 0.30000000E+03</pdfrwt>
<pdfrwt beam="2">0</pdfrwt>
<totfact> 0.49705038E-04</totfact>
</mgrwt>
<clustering>
<clus scale="   31.451">  1  6  2 -1</clus>
<clus scale="  461.300">  4  5 -1 -1</clus>
<clus scale="  300.000">  1  4  2 -1</clus>
</clustering>
</event>
<event>
 6    1  0.9254630E-012  0.3000000E+03  0.7818608E-02  0.1093470E+00
          1   -1    0    0  502    0  0.00000000000E+00  0.00000000000E+00  0.25068506429E+03  0.25068506429E+03  0.00000000000E+00 0.  1.
         13   -1    0    0    0    0 -0.00000000000E+00 -0.00000000000E+00 -0.27500000000E+03  0.27500000000E+03  0.00000000000E+00 0.  1.
    9000005    2    1    2  501    0 -0.28450392953E+02  0.12827705431E+02 -0.34503593016E+02  0.49285544926E+03  0.49065468615E+03 0.  0.
         13    1    3    3    0    0 -0.11943949765E+03  0.22807829607E+03 -0.29124575154E+02  0.25910180164E+03  0.00000000000E+00 0.  1.
          3    1    3    3  501    0  0.90989104693E+02 -0.21525059063E+03 -0.53790178626E+01  0.23375364762E+03  0.00000000000E+00 0.  1.
         21    1    1    2  502  501  0.28450392953E+02 -0.12827705431E+02  0.10188657310E+02  0.32829615038E+02  0.00000000000E+00 0. -1.
<scales pt_clust_4="550.00000" pt_clust_5="550.00000" pt_clust_6="31.20857"></scales>
<mgrwt>
<rscale>  0 0.30000000E+03</rscale>
<asrwt>  1 0.31208571E+02</asrwt>
<pdfrwt beam="1">  1        1 0.91158205E+00 0.30000000E+03</pdfrwt>
<pdfrwt beam="2">0</pdfrwt>
<totfact> 0.67110296E-05</totfact>
</mgrwt>
<clustering>
<clus scale="   31.209">  1  6  2 -1</clus>
<clus scale="  490.655">  4  5 -1 -1</clus>
<clus scale="  300.000">  1  4  2 -1</clus>
</clustering>
</event>
<event>
 6    1  0.9254630E-012  0.3000000E+03  0.7818608E-02  0.1093470E+00
          1   -1    0    0  502    0  0.00000000000E+00  0.00000000000E+00  0.22890428141E+03  0.22890428141E+03  0.00000000000E+00 0.  1.
         13   -1    0    0    0    0 -0.00000000000E+00 -0.00000000000E+00 -0.27500000000E+03  0.27500000000E+03  0.00000000000E+00 0.  1.
    9000005    2    1    2  501    0  0.30504214799E+02  0.30867137242E+01 -0.68491913597E+02  0.46593555121E+03  0.45985297730E+03 0.  0.
         13    1    3    3    0    0  0.12336804941E+03 -0.15515254211E+03 -0.16564785033E+03  0.25832382248E+03  0.00000000000E+00 0.  1.
          3    1    3    3  501    0 -0.92863834612E+02  0.15823925584E+03  0.97155936732E+02  0.20761172874E+03  0.00000000000E+00 0.  1.
         21    1    1    2  502  501 -0.30504214799E+02 -0.30867137242E+01  0.22396195009E+02  0.37968730200E+02  0.00000000000E+00 0. -1.
<scales pt_clust_4="550.00000" pt_clust_5="550.00000" pt_clust_6="30.65999"></scales>
<mgrwt>
<rscale>  0 0.30000000E+03</rscale>
<asrwt>  1 0.30659989E+02</asrwt>
<pdfrwt beam="1">  1        1 0.83237921E+00 0.30000000E+03</pdfrwt>
<pdfrwt beam="2">0</pdfrwt>
<totfact> 0.58023574E-04</totfact>
</mgrwt>
<clustering>
<clus scale="   30.660">  1  6  2 -1</clus>
<clus scale="  459.853">  4  5 -1 -1</clus>
<clus scale="  300.000">  1  4  2 -1</clus>
</clustering>
</event>
<event>
 6    1  0.9254630E-012  0.3000000E+03  0.7818608E-02  0.1093470E+00
          1   -1    0    0  502    0  0.00000000000E+00  0.00000000000E+00  0.26675489067E+03  0.26675489067E+03  0.00000000000E+00 0.  1.
         13   -1    0    0    0    0 -0.00000000000E+00 -0.00000000000E+00 -0.27500000000E+03  0.27500000000E+03  0.00000000000E+00 0.  1.
    9000005    2    1    2  501    0 -0.50785570675E+02  0.50215250112E+02 -0.20631451848E+02  0.46926925751E+03  0.46334353746E+03 0.  0.
         13    1    3    3    0    0 -0.10554530177E+03  0.19400898334E+01  0.20583604962E+03  0.23132672565E+03  0.00000000000E+00 0.  1.
          1    1    3    3  501    0  0.54759731098E+02  0.48275160279E+02 -0.22646750147E+03  0.23794253187E+03  0.00000000000E+00 0.  1.
         21    1    1    2  502  501  0.50785570675E+02 -0.50215250112E+02  0.12386342514E+02  0.72485633152E+02  0.00000000000E+00 0. -1.
<scales pt_clust_4="550.00000" pt_clust_5="550.00000" pt_clust_6="71.41950"></scales>
<mgrwt>
<rscale>  0 0.30000000E+03</rscale>
<asrwt>  1 0.71419504E+02</asrwt>
<pdfrwt beam="1">  1        1 0.97001778E+00 0.30000000E+03</pdfrwt>
<pdfrwt beam="2">0</pdfrwt>
<totfact> 0.43670983E-06</totfact>
</mgrwt>
<clustering>
<clus scale="   71.420">  1  6  2 -1</clus>
<clus scale="  463.344">  4  5 -1 -1</clus>
<clus scale="  300.000">  1  4  2 -1</clus>
</clustering>
</event>
<event>
 6    1  0.9254630E-012  0.3000000E+03  0.7818608E-02  0.1093470E+00
          1   -1    0    0  502    0  0.00000000000E+00  0.00000000000E+00  0.22592825316E+03  0.22592825316E+03  0.00000000000E+00 0.  1.
         13   -1    0    0    0    0 -0.00000000000E+00 -0.00000000000E+00 -0.27500000000E+03  0.27500000000E+03  0.00000000000E+00 0.  1.
    9000005    2    1    2  501    0 -0.24281510368E+02 -0.19655772429E+02 -0.62174513786E+02  0.46705165892E+03  0.46183941019E+03 0.  0.
         13    1    3    3    0    0  0.31582008960E+02  0.98648123975E+01 -0.25860312552E+03  0.26071117034E+03  0.00000000000E+00 0.  1.
          1    1    3    3  501    0 -0.55863519328E+02 -0.29520584827E+02  0.19642861173E+03  0.20634048858E+03  0.00000000000E+00 0.  1.
         21    1    1    2  502  501  0.24281510368E+02  0.19655772429E+02  0.13102766950E+02  0.33876594240E+02  0.00000000000E+00 0.  1.
<scales pt_clust_4="550.00000" pt_clust_5="550.00000" pt_clust_6="31.24006"></scales>
<mgrwt>
<rscale>  0 0.30000000E+03</rscale>
<asrwt>  1 0.31240057E+02</asrwt>
<pdfrwt beam="1">  1        1 0.82155728E+00 0.30000000E+03</pdfrwt>
<pdfrwt beam="2">0</pdfrwt>
<totfact> 0.71617905E-04</totfact>
</mgrwt>
<clustering>
<clus scale="   31.240">  1  6  2 -1</clus>
<clus scale="  461.839">  4  5 -1 -1</clus>
<clus scale="  300.000">  1  4  2 -1</clus>
</clustering>
</event>
<event>
 6    1  0.9254630E-012  0.3000000E+03  0.7818608E-02  0.1093470E+00
          1   -1    0    0  502    0  0.00000000000E+00  0.00000000000E+00  0.24962171347E+03  0.24962171347E+03  0.00000000000E+00 0.  1.
         13   -1    0    0    0    0 -0.00000000000E+00 -0.00000000000E+00 -0.27500000000E+03  0.27500000000E+03  0.00000000000E+00 0.  1.
    9000005    2    1    2  501    0 -0.22588455569E+02  0.20852119151E+02 -0.17879534008E+02  0.49297869706E+03  0.49169428390E+03 0.  0.
         13    1    3    3    0    0  0.24228942099E+02  0.95592867136E+02  0.21901886509E+03  0.24019638038E+03  0.00000000000E+00 0.  1.
          3    1    3    3  501    0 -0.46817397669E+02 -0.74740747985E+02 -0.23689839909E+03  0.25278231668E+03  0.00000000000E+00 0.  1.
         21    1    1    2  502  501  0.22588455569E+02 -0.20852119151E+02 -0.74987525245E+01  0.31643016410E+02  0.00000000000E+00 0.  1.
<scales pt_clust_4="550.00000" pt_clust_5="550.00000" pt_clust_6="30.74167"></scales>
<mgrwt>
<rscale>  0 0.30000000E+03</rscale>
<asrwt>  1 0.30741668E+02</asrwt>
<pdfrwt beam="1">  1        1 0.90771532E+00 0.30000000E+03</pdfrwt>
<pdfrwt beam="2">0</pdfrwt>
<totfact> 0.83281993E-05</totfact>
</mgrwt>
<clustering>
<clus scale="   30.742">  1  6  2 -1</clus>
<clus scale="  491.694">  4  5 -1 -1</clus>
<clus scale="  300.000">  1  4  2 -1</clus>
</clustering>
</event>
<event>
 6    1  0.9254630E-012  0.3000000E+03  0.7818608E-02  0.1093470E+00
          1   -1    0    0  502    0  0.00000000000E+00  0.00000000000E+00  0.23643983196E+03  0.23643983196E+03  0.00000000000E+00 0.  1.
         13   -1    0    0    0    0 -0.00000000000E+00 -0.00000000000E+00 -0.27500000000E+03  0.27500000000E+03  0.00000000000E+00 0.  1.
    9000005    2    1    2  501    0  0.27216932456E+02  0.30323697930E+02 -0.57813866245E+02  0.46637329268E+03  0.46097865127E+03 0.  0.
         13    1    3    3    0    0  0.11916803821E+01 -0.12300086889E+03 -0.21344860849E+03  0.24635531721E+03  0.00000000000E+00 0.  1.
          3    1    3    3  501    0  0.26025252073E+02  0.15332456682E+03  0.15563474225E+03  0.22001797547E+03  0.00000000000E+00 0.  1.
         21    1    1    2  502  501 -0.27216932456E+02 -0.30323697930E+02  0.19253698204E+02  0.45066539283E+02  0.00000000000E+00 0.  1.
<scales pt_clust_4="550.00000" pt_clust_5="550.00000" pt_clust_6="40.74663"></scales>
<mgrwt>
<rscale>  0 0.30000000E+03</rscale>
<asrwt>  1 0.40746633E+02</asrwt>
<pdfrwt beam="1">  1        1 0.85978121E+00 0.30000000E+03</pdfrwt>
<pdfrwt beam="2">0</pdfrwt>
<totfact> 0.31621335E-04</totfact>
</mgrwt>
<clustering>
<clus scale="   40.747">  1  6  2 -1</clus>
<clus scale="  460.979">  4  5 -1 -1</clus>
<clus scale="  300.000">  1  4  2 -1</clus>
</clustering>
</event>
<event>
 6    1  0.9254630E-012  0.3000000E+03  0.7818608E-02  0.1093470E+00
          1   -1    0    0  502    0  0.00000000000E+00  0.00000000000E+00  0.25075879675E+03  0.25075879675E+03  0.00000000000E+00 0.  1.
         13   -1    0    0    0    0 -0.00000000000E+00 -0.00000000000E+00 -0.27500000000E+03  0.27500000000E+03  0.00000000000E+00 0.  1.
    9000005    2    1    2  501    0  0.17192789030E+02  0.27026920582E+02 -0.53074496237E+02  0.48266117251E+03  0.47866361765E+03 0.  0.
         13    1    3    3    0    0  0.20017653591E+03 -0.91939037374E+02  0.71202874191E+02  0.23150222767E+03  0.00000000000E+00 0.  1.
          3    1    3    3  501    0 -0.18298374688E+03  0.11896595796E+03 -0.12427737043E+03  0.25115894484E+03  0.00000000000E+00 0.  1.
         21    1    1    2  502  501 -0.17192789030E+02 -0.27026920582E+02  0.28833292984E+02  0.43097624240E+02  0.00000000000E+00 0.  1.
<scales pt_clust_4="550.00000" pt_clust_5="550.00000" pt_clust_6="32.03196"></scales>
<mgrwt>
<rscale>  0 0.30000000E+03</rscale>
<asrwt>  1 0.32031960E+02</asrwt>
<pdfrwt beam="1">  1        1 0.91185017E+00 0.30000000E+03</pdfrwt>
<pdfrwt beam="2">0</pdfrwt>
<totfact> 0.65754286E-05</totfact>
</mgrwt>
<clustering>
<clus scale="   32.032">  1  6  2 -1</clus>
<clus scale="  478.664">  4  5 -1 -1</clus>
<clus scale="  300.000">  1  4  2 -1</clus>
</clustering>
</event>
<event>
 6    1  0.9254630E-012  0.3000000E+03  0.7818608E-02  0.1093470E+00
          1   -1    0    0  502    0  0.00000000000E+00  0.00000000000E+00  0.22862897185E+03  0.22862897185E+03  0.00000000000E+00 0.  1.
         13   -1    0    0    0    0 -0.00000000000E+00 -0.00000000000E+00 -0.27500000000E+03  0.27500000000E+03  0.00000000000E+00 0.  1.
    9000005    2    1    2  501    0 -0.31999823894E+02  0.25837603822E+02 -0.44976626148E+02  0.46247663465E+03  0.45844320280E+03 0.  0.
         13    1    3    3    0    0  0.19599523801E+03  0.99399598940E+02 -0.36403862387E+02  0.22275469645E+03  0.00000000000E+00 0.  1.
          3    1    3    3  501    0 -0.22799506190E+03 -0.73561995118E+02 -0.85727637607E+01  0.23972193820E+03  0.00000000000E+00 0.  1.
         21    1    1    2  502  501  0.31999823894E+02 -0.25837603822E+02 -0.13944019977E+01  0.41152337205E+02  0.00000000000E+00 0.  1.
<scales pt_clust_4="550.00000" pt_clust_5="550.00000" pt_clust_6="41.12871"></scales>
<mgrwt>
<rscale>  0 0.30000000E+03</rscale>
<asrwt>  1 0.41128707E+02</asrwt>
<pdfrwt beam="1">  1        1 0.83137808E+00 0.30000000E+03</pdfrwt>
<pdfrwt beam="2">0</pdfrwt>
<totfact> 0.55921183E-04</totfact>
</mgrwt>
<clustering>
<clus scale="   41.129">  1  6  2 -1</clus>
<clus scale="  458.443">  4  5 -1 -1</clus>
<clus scale="  300.000">  1  4  2 -1</clus>
</clustering>
</event>
<event>
 6    1  0.9254630E-012  0.3000000E+03  0.7818608E-02  0.1093470E+00
          1   -1    0    0  502    0  0.00000000000E+00  0.00000000000E+00  0.27116112067E+03  0.27116112067E+03  0.00000000000E+00 0.  1.
         13   -1    0    0    0    0 -0.00000000000E+00 -0.00000000000E+00 -0.27500000000E+03  0.27500000000E+03  0.00000000000E+00 0.  1.
    9000005    2    1    2  501    0 -0.39782072672E+02  0.32601485375E+02 -0.17356374460E+02  0.49298036447E+03  0.48998257711E+03 0.  0.
         13    1    3    3    0    0 -0.64760882809E+02  0.12643172516E+03 -0.22366620883E+03  0.26496325413E+03  0.00000000000E+00 0.  1.
          3    1    3    3  501    0  0.24978810137E+02 -0.93830239783E+02  0.20630983437E+03  0.22801711034E+03  0.00000000000E+00 0.  1.
         21    1    1    2  502  501  0.39782072672E+02 -0.32601485375E+02  0.13517495126E+02  0.53180756193E+02  0.00000000000E+00 0.  1.
<scales pt_clust_4="550.00000" pt_clust_5="550.00000" pt_clust_6="51.43413"></scales>
<mgrwt>
<rscale>  0 0.30000000E+03</rscale>
<asrwt>  1 0.51434134E+02</asrwt>
<pdfrwt beam="1">  1        1 0.98604044E+00 0.30000000E+03</pdfrwt>
<pdfrwt beam="2">0</pdfrwt>
<totfact> 0.12821564E-06</totfact>
</mgrwt>
<clustering>
<clus scale="   51.434">  1  6  2 -1</clus>
<clus scale="  489.983">  4  5 -1 -1</clus>
<clus scale="  300.000">  1  4  2 -1</clus>
</clustering>
</event>
<event>
 6    1  0.9254630E-012  0.3000000E+03  0.7818608E-02  0.1093470E+00
          1   -1    0    0  502    0  0.00000000000E+00  0.00000000000E+00  0.22892284878E+03  0.22892284878E+03  0.00000000000E+00 0.  1.
         13   -1    0    0    0    0 -0.00000000000E+00 -0.00000000000E+00 -0.27500000000E+03  0.27500000000E+03  0.00000000000E+00 0.  1.
    9000005    2    1    2  501    0  0.30289019036E+02  0.12761001349E+02 -0.37500287075E+02  0.46995476924E+03  0.46730177163E+03 0.  0.
         13    1    3    3    0    0  0.24471283369E+03  0.52080136707E+02 -0.12171281225E+02  0.25048922471E+03  0.00000000000E+00 0.  1.
          3    1    3    3  501    0 -0.21442381465E+03 -0.39319135358E+02 -0.25329005849E+02  0.21946554452E+03  0.00000000000E+00 0.  1.
         21    1    1    2  502  501 -0.30289019036E+02 -0.12761001349E+02 -0.85768641423E+01  0.33968079547E+02  0.00000000000E+00 0.  1.
<scales pt_clust_4="550.00000" pt_clust_5="550.00000" pt_clust_6="32.86744"></scales>
<mgrwt>
<rscale>  0 0.30000000E+03</rscale>
<asrwt>  1 0.32867445E+02</asrwt>
<pdfrwt beam="1">  1        1 0.83244672E+00 0.30000000E+03</pdfrwt>
<pdfrwt beam="2">0</pdfrwt>
<totfact> 0.57192041E-04</totfact>
</mgrwt>
<clustering>
<clus scale="   32.867">  1  6  2 -1</clus>
<clus scale="  467.302">  4  5 -1 -1</clus>
<clus scale="  300.000">  1  4  2 -1</clus>
</clustering>
</event>
<event>
 6    1  0.9254630E-012  0.3000000E+03  0.7818608E-02  0.1093470E+00
          1   -1    0    0  502    0  0.00000000000E+00  0.00000000000E+00  0.23545561868E+03  0.23545561868E+03  0.00000000000E+00 0.  1.
         13   -1    0    0    0    0 -0.00000000000E+00 -0.00000000000E+00 -0.27500000000E+03  0.27500000000E+03  0.00000000000E+00 0.  1.
    9000005    2    1    2  501    0  0.12531269946E+02 -0.29533251812E+02 -0.61043037542E+02  0.47183647953E+03  0.46676992759E+03 0.  0.
         13    1    3    3    0    0 -0.10729327835E+03 -0.21874613424E+03 -0.39744449931E+02  0.24686299869E+03  0.00000000000E+00 0.  1.
          1    1    3    3  501    0  0.11982454829E+03  0.18921288242E+03 -0.21298587611E+02  0.22497348084E+03  0.00000000000E+00 0.  1.
         21    1    1    2  502  501 -0.12531269946E+02  0.29533251812E+02  0.21498656224E+02  0.38619139147E+02  0.00000000000E+00 0. -1.
<scales pt_clust_4="550.00000" pt_clust_5="550.00000" pt_clust_6="32.08186"></scales>
<mgrwt>
<rscale>  0 0.30000000E+03</rscale>
<asrwt>  1 0.32081859E+02</asrwt>
<pdfrwt beam="1">  1        1 0.85620225E+00 0.30000000E+03</pdfrwt>
<pdfrwt beam="2">0</pdfrwt>
<totfact> 0.36022324E-04</totfact>
</mgrwt>
<clustering>
<clus scale="   32.082">  1  6  2 -1</clus>
<clus scale="  466.770">  4  5 -1 -1</clus>
<clus scale="  300.000">  1  4  2 -1</clus>
</clustering>
</event>
<event>
 6    1  0.9254630E-012  0.3000000E+03  0.7818608E-02  0.1093470E+00
          1   -1    0    0  502    0  0.00000000000E+00  0.00000000000E+00  0.23965274983E+03  0.23965274983E+03  0.00000000000E+00 0.  1.
         13   -1    0    0    0    0 -0.00000000000E+00 -0.00000000000E+00 -0.27500000000E+03  0.27500000000E+03  0.00000000000E+00 0.  1.
    9000005    2    1    2  501    0  0.25031224722E+02  0.30164881637E+02 -0.17081339616E+02  0.47140779887E+03  0.46946465083E+03 0.  0.
         13    1    3    3    0    0 -0.18737763514E+03  0.13603541821E+03 -0.31268137304E+02  0.23365296824E+03  0.00000000000E+00 0.  1.
          3    1    3    3  501    0  0.21240885986E+03 -0.10587053657E+03  0.14186797688E+02  0.23775483063E+03  0.00000000000E+00 0.  1.
         21    1    1    2  502  501 -0.25031224722E+02 -0.30164881637E+02 -0.18265910550E+02  0.43244950959E+02  0.00000000000E+00 0. -1.
<scales pt_clust_4="550.00000" pt_clust_5="550.00000" pt_clust_6="39.19801"></scales>
<mgrwt>
<rscale>  0 0.30000000E+03</rscale>
<asrwt>  1 0.39198008E+02</asrwt>
<pdfrwt beam="1">  1        1 0.87146454E+00 0.30000000E+03</pdfrwt>
<pdfrwt beam="2">0</pdfrwt>
<totfact> 0.23960259E-04</totfact>
</mgrwt>
<clustering>
<clus scale="   39.198">  1  6  2 -1</clus>
<clus scale="  469.465">  4  5 -1 -1</clus>
<clus scale="  300.000">  1  4  2 -1</clus>
</clustering>
</event>
<event>
 6    1  0.9254630E-012  0.3000000E+03  0.7818608E-02  0.1093470E+00
          1   -1    0    0  502    0  0.00000000000E+00  0.00000000000E+00  0.23755677117E+03  0.23755677117E+03  0.00000000000E+00 0.  1.
         13   -1    0    0    0    0 -0.00000000000E+00 -0.00000000000E+00 -0.27500000000E+03  0.27500000000E+03  0.00000000000E+00 0.  1.
    9000005    2    1    2  501    0  0.25159472309E+02  0.26526521015E+02 -0.42848791661E+02  0.47559901862E+03  0.47225178899E+03 0.  0.
         13    1    3    3    0    0  0.18848488757E+03  0.58545201513E+02 -0.17445596906E+03  0.26341787829E+03  0.00000000000E+00 0.  1.
          1    1    3    3  501    0 -0.16332541526E+03 -0.32018680498E+02  0.13160717740E+03  0.21218114033E+03  0.00000000000E+00 0.  1.
         21    1    1    2  502  501 -0.25159472309E+02 -0.26526521015E+02  0.54055628310E+01  0.36957752550E+02  0.00000000000E+00 0. -1.
<scales pt_clust_4="550.00000" pt_clust_5="550.00000" pt_clust_6="36.56030"></scales>
<mgrwt>
<rscale>  0 0.30000000E+03</rscale>
<asrwt>  1 0.36560298E+02</asrwt>
<pdfrwt beam="1">  1        1 0.86384280E+00 0.30000000E+03</pdfrwt>
<pdfrwt beam="2">0</pdfrwt>
<totfact> 0.29165652E-04</totfact>
</mgrwt>
<clustering>
<clus scale="   36.560">  1  6  2 -1</clus>
<clus scale="  472.252">  4  5 -1 -1</clus>
<clus scale="  300.000">  1  4  2 -1</clus>
</clustering>
</event>
<event>
 6    1  0.9254630E-012  0.3000000E+03  0.7818608E-02  0.1093470E+00
          1   -1    0    0  502    0  0.00000000000E+00  0.00000000000E+00  0.26281911122E+03  0.26281911122E+03  0.00000000000E+00 0.  1.
         13   -1    0    0    0    0 -0.00000000000E+00 -0.00000000000E+00 -0.27500000000E+03  0.27500000000E+03  0.00000000000E+00 0.  1.
    9000005    2    1    2  501    0  0.43259939261E+02  0.17035448425E+02 -0.31727693778E+02  0.48738394062E+03  0.48412274288E+03 0.  0.
         13    1    3    3    0    0  0.16748174230E+02  0.15170199383E+03  0.17941650486E+03  0.23555101038E+03  0.00000000000E+00 0.  1.
          1    1    3    3  501    0  0.26511765032E+02 -0.13466654541E+03 -0.21114419864E+03  0.25183293024E+03  0.00000000000E+00 0.  1.
         21    1    1    2  502  501 -0.43259939261E+02 -0.17035448425E+02  0.19546804999E+02  0.50435170602E+02  0.00000000000E+00 0. -1.
<scales pt_clust_4="550.00000" pt_clust_5="550.00000" pt_clust_6="46.49332"></scales>
<mgrwt>
<rscale>  0 0.30000000E+03</rscale>
<asrwt>  1 0.46493320E+02</asrwt>
<pdfrwt beam="1">  1        1 0.95570586E+00 0.30000000E+03</pdfrwt>
<pdfrwt beam="2">0</pdfrwt>
<totfact> 0.89051762E-06</totfact>
</mgrwt>
<clustering>
<clus scale="   46.493">  1  6  2 -1</clus>
<clus scale="  484.123">  4  5 -1 -1</clus>
<clus scale="  300.000">  1  4  2 -1</clus>
</clustering>
</event>
<event>
 6    1  0.9254630E-012  0.3000000E+03  0.7818608E-02  0.1093470E+00
          1   -1    0    0  502    0  0.00000000000E+00  0.00000000000E+00  0.23279570584E+03  0.23279570584E+03  0.00000000000E+00 0.  1.
         13   -1    0    0    0    0 -0.00000000000E+00 -0.00000000000E+00 -0.27500000000E+03  0.27500000000E+03  0.00000000000E+00 0.  1.
    9000005    2    1    2  501    0  0.23086705540E+02 -0.31200152909E+02 -0.59723018263E+02  0.46521224416E+03  0.45972725359E+03 0.  0.
         13    1    3    3    0    0  0.36136183225E+02  0.20287105316E+03 -0.97135858613E+02  0.22781102470E+03  0.00000000000E+00 0.  1.
          1    1    3    3  501    0 -0.13049477685E+02 -0.23407120607E+03  0.37412840350E+02  0.23740121946E+03  0.00000000000E+00 0.  1.
         21    1    1    2  502  501 -0.23086705540E+02  0.31200152909E+02  0.17518724100E+02  0.42583461677E+02  0.00000000000E+00 0. -1.
<scales pt_clust_4="550.00000" pt_clust_5="550.00000" pt_clust_6="38.81296"></scales>
<mgrwt>
<rscale>  0 0.30000000E+03</rscale>
<asrwt>  1 0.38812955E+02</asrwt>
<pdfrwt beam="1">  1        1 0.84652984E+00 0.30000000E+03</pdfrwt>
<pdfrwt beam="2">0</pdfrwt>
<totfact> 0.42964668E-04</totfact>
</mgrwt>
<clustering>
<clus scale="   38.813">  1  6  2 -1</clus>
<clus scale="  459.727">  4  5 -1 -1</clus>
<clus scale="  300.000">  1  4  2 -1</clus>
</clustering>
</event>
<event>
 6    1  0.9254630E-012  0.3000000E+03  0.7818608E-02  0.1093470E+00
          1   -1    0    0  502    0  0.00000000000E+00  0.00000000000E+00  0.22433002760E+03  0.22433002760E+03  0.00000000000E+00 0.  1.
         13   -1    0    0    0    0 -0.00000000000E+00 -0.00000000000E+00 -0.27500000000E+03  0.27500000000E+03  0.00000000000E+00 0.  1.
    9000005    2    1    2  501    0  0.16726396357E+02  0.29536122640E+02 -0.63506604517E+02  0.46304044232E+03  0.45740704797E+03 0.  0.
         13    1    3    3    0    0  0.23575743208E+03  0.39118255741E+02 -0.43287582674E+02  0.24286955249E+03  0.00000000000E+00 0.  1.
          1    1    3    3  501    0 -0.21903103572E+03 -0.95821331006E+01 -0.20219021843E+02  0.22017088983E+03  0.00000000000E+00 0.  1.
         21    1    1    2  502  501 -0.16726396357E+02 -0.29536122640E+02  0.12836632114E+02  0.36289585279E+02  0.00000000000E+00 0.  1.
<scales pt_clust_4="550.00000" pt_clust_5="550.00000" pt_clust_6="33.94341"></scales>
<mgrwt>
<rscale>  0 0.30000000E+03</rscale>
<asrwt>  1 0.33943407E+02</asrwt>
<pdfrwt beam="1">  1        1 0.81574555E+00 0.30000000E+03</pdfrwt>
<pdfrwt beam="2">0</pdfrwt>
<totfact> 0.78956413E-04</totfact>
</mgrwt>
<clustering>
<clus scale="   33.943">  1  6  2 -1</clus>
<clus scale="  457.407">  4  5 -1 -1</clus>
<clus scale="  300.000">  1  4  2 -1</clus>
</clustering>
</event>
<event>
 6    1  0.9254630E-012  0.3000000E+03  0.7818608E-02  0.1093470E+00
          1   -1    0    0  502    0  0.00000000000E+00  0.00000000000E+00  0.24655218080E+03  0.24655218080E+03  0.00000000000E+00 0.  1.
         13   -1    0    0    0    0 -0.00000000000E+00 -0.00000000000E+00 -0.27500000000E+03  0.27500000000E+03  0.00000000000E+00 0.  1.
    9000005    2    1    2  501    0  0.15529411880E+02 -0.47777414207E+02 -0.18127828272E+02  0.47026528039E+03  0.46722261486E+03 0.  0.
         13    1    3    3    0    0 -0.86392328177E+01 -0.21801244402E+03 -0.14024539742E+03  0.25937007073E+03  0.00000000000E+00 0.  1.
          3    1    3    3  501    0  0.24168644698E+02  0.17023502981E+03  0.12211756915E+03  0.21089520966E+03  0.00000000000E+00 0.  1.
         21    1    1    2  502  501 -0.15529411880E+02  0.47777414207E+02 -0.10319990925E+02  0.51286900417E+02  0.00000000000E+00 0. -1.
<scales pt_clust_4="550.00000" pt_clust_5="550.00000" pt_clust_6="50.23790"></scales>
<mgrwt>
<rscale>  0 0.30000000E+03</rscale>
<asrwt>  1 0.50237899E+02</asrwt>
<pdfrwt beam="1">  1        1 0.89655338E+00 0.30000000E+03</pdfrwt>
<pdfrwt beam="2">0</pdfrwt>
<totfact> 0.11348624E-04</totfact>
</mgrwt>
<clustering>
<clus scale="   50.238">  1  6  2 -1</clus>
<clus scale="  467.223">  4  5 -1 -1</clus>
<clus scale="  300.000">  1  4  2 -1</clus>
</clustering>
</event>
<event>
 6    1  0.9254630E-012  0.3000000E+03  0.7818608E-02  0.1093470E+00
          1   -1    0    0  502    0  0.00000000000E+00  0.00000000000E+00  0.24062152658E+03  0.24062152658E+03  0.00000000000E+00 0.  1.
         13   -1    0    0    0    0 -0.00000000000E+00 -0.00000000000E+00 -0.27500000000E+03  0.27500000000E+03  0.00000000000E+00 0.  1.
    9000005    2    1    2  501    0  0.32278768306E+02 -0.24737991963E+02 -0.47476966987E+02  0.47289615164E+03  0.46874600875E+03 0.  0.
         13    1    3    3    0    0  0.52547396637E+02 -0.22317758221E+03 -0.12229203408E+03  0.25985535148E+03  0.00000000000E+00 0.  1.
          3    1    3    3  501    0 -0.20268628330E+02  0.19843959025E+03  0.74815067088E+02  0.21304080016E+03  0.00000000000E+00 0.  1.
         21    1    1    2  502  501 -0.32278768306E+02  0.24737991963E+02  0.13098493567E+02  0.42725374937E+02  0.00000000000E+00 0.  1.
<scales pt_clust_4="550.00000" pt_clust_5="550.00000" pt_clust_6="40.66801"></scales>
<mgrwt>
<rscale>  0 0.30000000E+03</rscale>
<asrwt>  1 0.40668011E+02</asrwt>
<pdfrwt beam="1">  1        1 0.87498737E+00 0.30000000E+03</pdfrwt>
<pdfrwt beam="2">0</pdfrwt>
<totfact> 0.21885228E-04</totfact>
</mgrwt>
<clustering>
<clus scale="   40.668">  1  6  2 -1</clus>
<clus scale="  468.746">  4  5 -1 -1</clus>
<clus scale="  300.000">  1  4  2 -1</clus>
</clustering>
</event>
<event>
 6    1  0.9254630E-012  0.3000000E+03  0.7818608E-02  0.1093470E+00
          1   -1    0    0  502    0  0.00000000000E+00  0.00000000000E+00  0.22193374225E+03  0.22193374225E+03  0.00000000000E+00 0.  1.
         13   -1    0    0    0    0 -0.00000000000E+00 -0.00000000000E+00 -0.27500000000E+03  0.27500000000E+03  0.00000000000E+00 0.  1.
    9000005    2    1    2  501    0 -0.60786142071E+01  0.32515887136E+02 -0.48513126530E+02  0.46354267352E+03  0.45980871486E+03 0.  0.
         13    1    3    3    0    0 -0.13922201347E+03 -0.25322211608E+02  0.15736655455E+03  0.21163226580E+03  0.00000000000E+00 0.  1.
          1    1    3    3  501    0  0.13314339927E+03  0.57838098745E+02 -0.20587968108E+03  0.25191040772E+03  0.00000000000E+00 0.  1.
         21    1    1    2  502  501  0.60786142071E+01 -0.32515887136E+02 -0.45531312208E+01  0.33391068729E+02  0.00000000000E+00 0. -1.
<scales pt_clust_4="550.00000" pt_clust_5="550.00000" pt_clust_6="33.07920"></scales>
<mgrwt>
<rscale>  0 0.30000000E+03</rscale>
<asrwt>  1 0.33079201E+02</asrwt>
<pdfrwt beam="1">  1        1 0.80703179E+00 0.30000000E+03</pdfrwt>
<pdfrwt beam="2">0</pdfrwt>
<totfact> 0.92930019E-04</totfact>
</mgrwt>
<clustering>
<clus scale="   33.079">  1  6  2 -1</clus>
<clus scale="  459.809">  4  5 -1 -1</clus>
<clus scale="  300.000">  1  4  2 -1</clus>
</clustering>
</event>
<event>
 6    1  0.9254630E-012  0.3000000E+03  0.7818608E-02  0.1093470E+00
          1   -1    0    0  502    0  0.00000000000E+00  0.00000000000E+00  0.23461642404E+03  0.23461642404E+03  0.00000000000E+00 0.  1.
         13   -1    0    0    0    0 -0.00000000000E+00 -0.00000000000E+00 -0.27500000000E+03  0.27500000000E+03  0.00000000000E+00 0.  1.
    9000005    2    1    2  501    0  0.44086566747E+02  0.31937913453E+01 -0.33397767191E+02  0.46486570119E+03  0.46155268781E+03 0.  0.
         13    1    3    3    0    0  0.19795544853E+03  0.13134248564E+03 -0.94251806838E+02  0.25557897259E+03  0.00000000000E+00 0.  1.
          1    1    3    3  501    0 -0.15386888178E+03 -0.12814869430E+03  0.60854039647E+02  0.20928672861E+03  0.00000000000E+00 0.  1.
         21    1    1    2  502  501 -0.44086566747E+02 -0.31937913453E+01 -0.69858087735E+01  0.44750722842E+02  0.00000000000E+00 0.  1.
<scales pt_clust_4="550.00000" pt_clust_5="550.00000" pt_clust_6="44.20212"></scales>
<mgrwt>
<rscale>  0 0.30000000E+03</rscale>
<asrwt>  1 0.44202122E+02</asrwt>
<pdfrwt beam="1">  1        1 0.85315063E+00 0.30000000E+03</pdfrwt>
<pdfrwt beam="2">0</pdfrwt>
<totfact> 0.36390507E-04</totfact>
</mgrwt>
<clustering>
<clus scale="   44.202">  1  6  2 -1</clus>
<clus scale="  461.553">  4  5 -1 -1</clus>
<clus scale="  300.000">  1  4  2 -1</clus>
</clustering>
</event>
<event>
 6    1  0.9254630E-012  0.3000000E+03  0.7818608E-02  0.1093470E+00
          1   -1    0    0  502    0  0.00000000000E+00  0.00000000000E+00  0.25396791340E+03  0.25396791340E+03  0.00000000000E+00 0.  1.
         13   -1    0    0    0    0 -0.00000000000E+00 -0.00000000000E+00 -0.27500000000E+03  0.27500000000E+03  0.00000000000E+00 0.  1.
    9000005    2    1    2  501    0 -0.36555445825E+02  0.31870653480E+02 -0.55879488864E+02  0.46924873208E+03  0.46337869622E+03 0.  0.
         13    1    3    3    0    0 -0.24290306156E+03 -0.63890450684E+01  0.25148499606E+02  0.24428500618E+03  0.00000000000E+00 0.  1.
          3    1    3    3  501    0  0.20634761574E+03  0.38259698548E+02 -0.81027988470E+02  0.22496372590E+03  0.00000000000E+00 0.  1.
         21    1    1    2  502  501  0.36555445825E+02 -0.31870653480E+02  0.34847402259E+02  0.59719181315E+02  0.00000000000E+00 0. -1.
<scales pt_clust_4="550.00000" pt_clust_5="550.00000" pt_clust_6="48.49783"></scales>
<mgrwt>
<rscale>  0 0.30000000E+03</rscale>
<asrwt>  1 0.48497826E+02</asrwt>
<pdfrwt beam="1">  1        1 0.92351969E+00 0.30000000E+03</pdfrwt>
<pdfrwt beam="2">0</pdfrwt>
<totfact> 0.33169742E-05</totfact>
</mgrwt>
<clustering>
<clus scale="   48.498">  1  6  2 -1</clus>
<clus scale="  463.379">  4  5 -1 -1</clus>
<clus scale="  300.000">  1  4  2 -1</clus>
</clustering>
</event>
<event>
 6    1  0.9254630E-012  0.3000000E+03  0.7818608E-02  0.1093470E+00
          1   -1    0    0  502    0  0.00000000000E+00  0.00000000000E+00  0.24317178726E+03  0.24317178726E+03  0.00000000000E+00 0.  1.
         13   -1    0    0    0    0 -0.00000000000E+00 -0.00000000000E+00 -0.27500000000E+03  0.27500000000E+03  0.00000000000E+00 0.  1.
    9000005    2    1    2  501    0  0.44530798612E+02  0.21127866879E+02 -0.27118211740E+02  0.46865852749E+03  0.46526985632E+03 0.  0.
         13    1    3    3    0    0  0.16860170879E+03 -0.16862581742E+03 -0.39035069093E+02  0.24162975630E+03  0.00000000000E+00 0.  1.
          3    1    3    3  501    0 -0.12407091018E+03  0.18975368430E+03  0.11916857353E+02  0.22702877119E+03  0.00000000000E+00 0.  1.
         21    1    1    2  502  501 -0.44530798612E+02 -0.21127866879E+02 -0.47100009986E+01  0.49513259772E+02  0.00000000000E+00 0. -1.
<scales pt_clust_4="550.00000" pt_clust_5="550.00000" pt_clust_6="49.28875"></scales>
<mgrwt>
<rscale>  0 0.30000000E+03</rscale>
<asrwt>  1 0.49288753E+02</asrwt>
<pdfrwt beam="1">  1        1 0.88426104E+00 0.30000000E+03</pdfrwt>
<pdfrwt beam="2">0</pdfrwt>
<totfact> 0.16324095E-04</totfact>
</mgrwt>
<clustering>
<clus scale="   49.289">  1  6  2 -1</clus>
<clus scale="  465.270">  4  5 -1 -1</clus>
<clus scale="  300.000">  1  4  2 -1</clus>
</clustering>
</event>
<event>
 6    1  0.9254630E-012  0.3000000E+03  0.7818608E-02  0.1093470E+00
          1   -1    0    0  502    0  0.00000000000E+00  0.00000000000E+00  0.24805536953E+03  0.24805536953E+03  0.00000000000E+00 0.  1.
         13   -1    0    0    0    0 -0.00000000000E+00 -0.00000000000E+00 -0.27500000000E+03  0.27500000000E+03  0.00000000000E+00 0.  1.
    9000005    2    1    2  501    0  0.30163019734E+02  0.13643310706E+02 -0.75270805445E+02  0.46447749935E+03  0.45714079403E+03 0.  0.
         13    1    3    3    0    0 -0.10154226499E+03  0.20331323667E+03 -0.43558986451E+02  0.23139682168E+03  0.00000000000E+00 0.  1.
          3    1    3    3  501    0  0.13170528472E+03 -0.18966992597E+03 -0.31711818994E+02  0.23308067767E+03  0.00000000000E+00 0.  1.
         21    1    1    2  502  501 -0.30163019734E+02 -0.13643310706E+02  0.48326174972E+02  0.58577870172E+02  0.00000000000E+00 0.  1.
<scales pt_clust_4="550.00000" pt_clust_5="550.00000" pt_clust_6="33.10510"></scales>
<mgrwt>
<rscale>  0 0.30000000E+03</rscale>
<asrwt>  1 0.33105101E+02</asrwt>
<pdfrwt beam="1">  1        1 0.90201953E+00 0.30000000E+03</pdfrwt>
<pdfrwt beam="2">0</pdfrwt>
<totfact> 0.10481952E-04</totfact>
</mgrwt>
<clustering>
<clus scale="   33.105">  1  6  2 -1</clus>
<clus scale="  457.141">  4  5 -1 -1</clus>
<clus scale="  300.000">  1  4  2 -1</clus>
</clustering>
</event>
<event>
 6    1  0.9254630E-012  0.3000000E+03  0.7818608E-02  0.1093470E+00
          1   -1    0    0  502    0  0.00000000000E+00  0.00000000000E+00  0.23857215299E+03  0.23857215299E+03  0.00000000000E+00 0.  1.
         13   -1    0    0    0    0 -0.00000000000E+00 -0.00000000000E+00 -0.27500000000E+03  0.27500000000E+03  0.00000000000E+00 0.  1.
    9000005    2    1    2  501    0  0.31597497294E+02  0.67758045335E+01 -0.21628943845E+02  0.47802892724E+03  0.47644467748E+03 0.  0.
         13    1    3    3    0    0  0.18525729558E+03  0.10461529715E+02  0.15651025660E+03  0.24274507120E+03  0.00000000000E+00 0.  1.
          3    1    3    3  501    0 -0.15365979829E+03 -0.36857251818E+01 -0.17813920044E+03  0.23528385604E+03  0.00000000000E+00 0.  1.
         21    1    1    2  502  501 -0.31597497294E+02 -0.67758045335E+01 -0.14798903161E+02  0.35543225755E+02  0.00000000000E+00 0.  1.
<scales pt_clust_4="550.00000" pt_clust_5="550.00000" pt_clust_6="32.31585"></scales>
<mgrwt>
<rscale>  0 0.30000000E+03</rscale>
<asrwt>  1 0.32315854E+02</asrwt>
<pdfrwt beam="1">  1        1 0.86753510E+00 0.30000000E+03</pdfrwt>
<pdfrwt beam="2">0</pdfrwt>
<totfact> 0.27259358E-04</totfact>
</mgrwt>
<clustering>
<clus scale="   32.316">  1  6  2 -1</clus>
<clus scale="  476.445">  4  5 -1 -1</clus>
<clus scale="  300.000">  1  4  2 -1</clus>
</clustering>
</event>
<event>
 6    1  0.9254630E-012  0.3000000E+03  0.7818608E-02  0.1093470E+00
          1   -1    0    0  502    0  0.00000000000E+00  0.00000000000E+00  0.22361929688E+03  0.22361929688E+03  0.00000000000E+00 0.  1.
         13   -1    0    0    0    0 -0.00000000000E+00 -0.00000000000E+00 -0.27500000000E+03  0.27500000000E+03  0.00000000000E+00 0.  1.
    9000005    2    1    2  501    0 -0.13583570656E+02  0.29075912496E+02 -0.63568478892E+02  0.46429053405E+03  0.45879715171E+03 0.  0.
         13    1    3    3    0    0 -0.14711430148E+03 -0.59794725301E+02  0.13542074222E+03  0.20870266960E+03  0.00000000000E+00 0.  1.
          3    1    3    3  501    0  0.13353073083E+03  0.88870637796E+02 -0.19898922111E+03  0.25558786445E+03  0.00000000000E+00 0.  1.
         21    1    1    2  502  501  0.13583570656E+02 -0.29075912496E+02  0.12187775771E+02  0.34328762831E+02  0.00000000000E+00 0. -1.
<scales pt_clust_4="550.00000" pt_clust_5="550.00000" pt_clust_6="32.09240"></scales>
<mgrwt>
<rscale>  0 0.30000000E+03</rscale>
<asrwt>  1 0.32092399E+02</asrwt>
<pdfrwt beam="1">  1        1 0.81316108E+00 0.30000000E+03</pdfrwt>
<pdfrwt beam="2">0</pdfrwt>
<totfact> 0.83712383E-04</totfact>
</mgrwt>
<clustering>
<clus scale="   32.092">  1  6  2 -1</clus>
<clus scale="  458.797">  4  5 -1 -1</clus>
<clus scale="  300.000">  1  4  2 -1</clus>
</clustering>
</event>
<event>
 6    1  0.9254630E-012  0.3000000E+03  0.7818608E-02  0.1093470E+00
          1   -1    0    0  502    0  0.00000000000E+00  0.00000000000E+00  0.22594424474E+03  0.22594424474E+03  0.00000000000E+00 0.  1.
         13   -1    0    0    0    0 -0.00000000000E+00 -0.00000000000E+00 -0.27500000000E+03  0.27500000000E+03  0.00000000000E+00 0.  1.
    9000005    2    1    2  501    0 -0.47124181207E+01 -0.30356827338E+02 -0.66641569253E+02  0.46554643825E+03  0.45972670530E+03 0.  0.
         13    1    3    3    0    0  0.13941937222E+03  0.16568428983E+03 -0.16949535242E+02  0.21720113257E+03  0.00000000000E+00 0.  1.
          1    1    3    3  501    0 -0.14413179034E+03 -0.19604111716E+03 -0.49692034011E+02  0.24834530568E+03  0.00000000000E+00 0.  1.
         21    1    1    2  502  501  0.47124181207E+01  0.30356827338E+02  0.17585813992E+02  0.35397806491E+02  0.00000000000E+00 0.  1.
<scales pt_clust_4="550.00000" pt_clust_5="550.00000" pt_clust_6="30.72041"></scales>
<mgrwt>
<rscale>  0 0.30000000E+03</rscale>
<asrwt>  1 0.30720414E+02</asrwt>
<pdfrwt beam="1">  1        1 0.82161544E+00 0.30000000E+03</pdfrwt>
<pdfrwt beam="2">0</pdfrwt>
<totfact> 0.71763400E-04</totfact>
</mgrwt>
<clustering>
<clus scale="   30.720">  1  6  2 -1</clus>
<clus scale="  459.727">  4  5 -1 -1</clus>
<clus scale="  300.000">  1  4  2 -1</clus>
</clustering>
</event>
<event>
 6    1  0.9254630E-012  0.3000000E+03  0.7818608E-02  0.1093470E+00
          1   -1    0    0  502    0  0.00000000000E+00  0.00000000000E+00  0.23789333743E+03  0.23789333743E+03  0.00000000000E+00 0.  1.
         13   -1    0    0    0    0 -0.00000000000E+00 -0.00000000000E+00 -0.27500000000E+03  0.27500000000E+03  0.00000000000E+00 0.  1.
    9000005    2    1    2  501    0  0.10975795621E+02 -0.40990865885E+02 -0.44720754797E+02  0.46978076877E+03  0.46571805379E+03 0.  0.
         13    1    3    3    0    0 -0.98669278002E+02  0.52672494900E+02 -0.21759477090E+03  0.24465792949E+03  0.00000000000E+00 0.  1.
          1    1    3    3  501    0  0.10964507362E+03 -0.93663360784E+02  0.17287401610E+03  0.22512283928E+03  0.00000000000E+00 0.  1.
         21    1    1    2  502  501 -0.10975795621E+02  0.40990865885E+02  0.76140922229E+01  0.43112568653E+02  0.00000000000E+00 0.  1.
<scales pt_clust_4="550.00000" pt_clust_5="550.00000" pt_clust_6="42.43488"></scales>
<mgrwt>
<rscale>  0 0.30000000E+03</rscale>
<asrwt>  1 0.42434882E+02</asrwt>
<pdfrwt beam="1">  1        1 0.86506668E+00 0.30000000E+03</pdfrwt>
<pdfrwt beam="2">0</pdfrwt>
<totfact> 0.27531136E-04</totfact>
</mgrwt>
<clustering>
<clus scale="   42.435">  1  6  2 -1</clus>
<clus scale="  465.718">  4  5 -1 -1</clus>
<clus scale="  300.000">  1  4  2 -1</clus>
</clustering>
</event>
<event>
 6    1  0.9254630E-012  0.3000000E+03  0.7818608E-02  0.1093470E+00
          1   -1    0    0  502    0  0.00000000000E+00  0.00000000000E+00  0.24075028837E+03  0.24075028837E+03  0.00000000000E+00 0.  1.
         13   -1    0    0    0    0 -0.00000000000E+00 -0.00000000000E+00 -0.27500000000E+03  0.27500000000E+03  0.00000000000E+00 0.  1.
    9000005    2    1    2  501    0  0.45664267997E+02  0.80343862897E+01 -0.47773142427E+02  0.46745267026E+03  0.46268774466E+03 0.  0.
         13    1    3    3    0    0  0.17300508270E+03 -0.35383652580E+02  0.14765983919E+03  0.23018729248E+03  0.00000000000E+00 0.  1.
          1    1    3    3  501    0 -0.12734081470E+03  0.43418038870E+02 -0.19543298161E+03  0.23726537778E+03  0.00000000000E+00 0.  1.
         21    1    1    2  502  501 -0.45664267997E+02 -0.80343862897E+01  0.13523430795E+02  0.48297618111E+02  0.00000000000E+00 0.  1.
<scales pt_clust_4="550.00000" pt_clust_5="550.00000" pt_clust_6="46.36568"></scales>
<mgrwt>
<rscale>  0 0.30000000E+03</rscale>
<asrwt>  1 0.46365685E+02</asrwt>
<pdfrwt beam="1">  1        1 0.87545559E+00 0.30000000E+03</pdfrwt>
<pdfrwt beam="2">0</pdfrwt>
<totfact> 0.21131787E-04</totfact>
</mgrwt>
<clustering>
<clus scale="   46.366">  1  6  2 -1</clus>
<clus scale="  462.688">  4  5 -1 -1</clus>
<clus scale="  300.000">  1  4  2 -1</clus>
</clustering>
</event>
<event>
 6    1  0.9254630E-012  0.3000000E+03  0.7818608E-02  0.1093470E+00
          1   -1    0    0  502    0  0.00000000000E+00  0.00000000000E+00  0.24515970578E+03  0.24515970578E+03  0.00000000000E+00 0.  1.
         13   -1    0    0    0    0 -0.00000000000E+00 -0.00000000000E+00 -0.27500000000E+03  0.27500000000E+03  0.00000000000E+00 0.  1.
    9000005    2    1    2  501    0 -0.27010362804E+02  0.16398184897E+02 -0.47471238790E+02  0.48397531173E+03  0.48060391559E+03 0.  0.
         13    1    3    3    0    0 -0.19479297211E+03  0.16234108262E+02  0.13387436323E+03  0.23691811536E+03  0.00000000000E+00 0.  1.
          3    1    3    3  501    0  0.16778260930E+03  0.16407663546E+00 -0.18134560202E+03  0.24705719637E+03  0.00000000000E+00 0.  1.
         21    1    1    2  502  501  0.27010362804E+02 -0.16398184897E+02  0.17630944572E+02  0.36184394056E+02  0.00000000000E+00 0.  1.
<scales pt_clust_4="550.00000" pt_clust_5="550.00000" pt_clust_6="31.59842"></scales>
<mgrwt>
<rscale>  0 0.30000000E+03</rscale>
<asrwt>  1 0.31598420E+02</asrwt>
<pdfrwt beam="1">  1        1 0.89148984E+00 0.30000000E+03</pdfrwt>
<pdfrwt beam="2">0</pdfrwt>
<totfact> 0.14135854E-04</totfact>
</mgrwt>
<clustering>
<clus scale="   31.598">  1  6  2 -1</clus>
<clus scale="  480.604">  4  5 -1 -1</clus>
<clus scale="  300.000">  1  4  2 -1</clus>
</clustering>
</event>
<event>
 6    1  0.9254630E-012  0.3000000E+03  0.7818608E-02  0.1093470E+00
          1   -1    0    0  502    0  0.00000000000E+00  0.00000000000E+00  0.22774147504E+03  0.22774147504E+03  0.00000000000E+00 0.  1.
         13   -1    0    0    0    0 -0.00000000000E+00 -0.00000000000E+00 -0.27500000000E+03  0.27500000000E+03  0.00000000000E+00 0.  1.
    9000005    2    1    2  501    0  0.61678406862E+01  0.33663929413E+02 -0.51207428479E+02  0.46829011453E+03  0.46422206780E+03 0.  0.
         13    1    3    3    0    0  0.23329847150E+03  0.19550010810E+02 -0.55803789020E+02  0.24067497293E+03  0.00000000000E+00 0.  1.
          1    1    3    3  501    0 -0.22713063081E+03  0.14113918604E+02  0.45963605411E+01  0.22761514159E+03  0.00000000000E+00 0.  1.
         21    1    1    2  502  501 -0.61678406862E+01 -0.33663929413E+02  0.39489035198E+01  0.34451360514E+02  0.00000000000E+00 0.  1.
<scales pt_clust_4="550.00000" pt_clust_5="550.00000" pt_clust_6="34.22430"></scales>
<mgrwt>
<rscale>  0 0.30000000E+03</rscale>
<asrwt>  1 0.34224295E+02</asrwt>
<pdfrwt beam="1">  1        1 0.82815082E+00 0.30000000E+03</pdfrwt>
<pdfrwt beam="2">0</pdfrwt>
<totfact> 0.61528136E-04</totfact>
</mgrwt>
<clustering>
<clus scale="   34.224">  1  6  2 -1</clus>
<clus scale="  464.222">  4  5 -1 -1</clus>
<clus scale="  300.000">  1  4  2 -1</clus>
</clustering>
</event>
<event>
 6    1  0.9254630E-012  0.3000000E+03  0.7818608E-02  0.1093470E+00
          1   -1    0    0  502    0  0.00000000000E+00  0.00000000000E+00  0.23586969321E+03  0.23586969321E+03  0.00000000000E+00 0.  1.
         13   -1    0    0    0    0 -0.00000000000E+00 -0.00000000000E+00 -0.27500000000E+03  0.27500000000E+03  0.00000000000E+00 0.  1.
    9000005    2    1    2  501    0 -0.27050563656E+02  0.18188748648E+02 -0.67005873069E+02  0.46797900929E+03  0.46200866068E+03 0.  0.
         13    1    3    3    0    0  0.81496011519E+02  0.21616548636E+03 -0.72513030546E+02  0.24213066097E+03  0.00000000000E+00 0.  1.
          1    1    3    3  501    0 -0.10854657517E+03 -0.19797673771E+03  0.55071574770E+01  0.22584834832E+03  0.00000000000E+00 0.  1.
         21    1    1    2  502  501  0.27050563656E+02 -0.18188748648E+02  0.27875566282E+02  0.42890683919E+02  0.00000000000E+00 0.  1.
<scales pt_clust_4="550.00000" pt_clust_5="550.00000" pt_clust_6="32.59699"></scales>
<mgrwt>
<rscale>  0 0.30000000E+03</rscale>
<asrwt>  1 0.32596987E+02</asrwt>
<pdfrwt beam="1">  1        1 0.85770798E+00 0.30000000E+03</pdfrwt>
<pdfrwt beam="2">0</pdfrwt>
<totfact> 0.34657419E-04</totfact>
</mgrwt>
<clustering>
<clus scale="   32.597">  1  6  2 -1</clus>
<clus scale="  462.009">  4  5 -1 -1</clus>
<clus scale="  300.000">  1  4  2 -1</clus>
</clustering>
</event>
<event>
 6    1  0.9254630E-012  0.3000000E+03  0.7818608E-02  0.1093470E+00
          1   -1    0    0  502    0  0.00000000000E+00  0.00000000000E+00  0.23189532880E+03  0.23189532880E+03  0.00000000000E+00 0.  1.
         13   -1    0    0    0    0 -0.00000000000E+00 -0.00000000000E+00 -0.27500000000E+03  0.27500000000E+03  0.00000000000E+00 0.  1.
    9000005    2    1    2  501    0  0.88826339491E+01  0.41724586639E+02 -0.44625412955E+02  0.46420862160E+03  0.46008518187E+03 0.  0.
         13    1    3    3    0    0  0.73109423515E+02  0.25975143972E+02  0.19803898388E+03  0.21269493423E+03  0.00000000000E+00 0.  1.
          1    1    3    3  501    0 -0.64226789565E+02  0.15749442667E+02 -0.24266439684E+03  0.25151368737E+03  0.00000000000E+00 0.  1.
         21    1    1    2  502  501 -0.88826339491E+01 -0.41724586639E+02  0.15207417571E+01  0.42686707199E+02  0.00000000000E+00 0.  1.
<scales pt_clust_4="550.00000" pt_clust_5="550.00000" pt_clust_6="42.65961"></scales>
<mgrwt>
<rscale>  0 0.30000000E+03</rscale>
<asrwt>  1 0.42659610E+02</asrwt>
<pdfrwt beam="1">  1        1 0.84325574E+00 0.30000000E+03</pdfrwt>
<pdfrwt beam="2">0</pdfrwt>
<totfact> 0.45101801E-04</totfact>
</mgrwt>
<clustering>
<clus scale="   42.660">  1  6  2 -1</clus>
<clus scale="  460.085">  4  5 -1 -1</clus>
<clus scale="  300.000">  1  4  2 -1</clus>
</clustering>
</event>
<event>
 6    1  0.9254630E-012  0.3000000E+03  0.7818608E-02  0.1093470E+00
          1   -1    0    0  502    0  0.00000000000E+00  0.00000000000E+00  0.25438734278E+03  0.25438734278E+03  0.00000000000E+00 0.  1.
         13   -1    0    0    0    0 -0.00000000000E+00 -0.00000000000E+00 -0.27500000000E+03  0.27500000000E+03  0.00000000000E+00 0.  1.
    9000005    2    1    2  501    0 -0.31216387385E+02  0.28825771561E+02 -0.39772965191E+02  0.48277720066E+03  0.47925624541E+03 0.  0.
         13    1    3    3    0    0 -0.12466663176E+03 -0.19575348148E+03  0.17958009132E+02  0.23277389174E+03  0.00000000000E+00 0.  1.
          1    1    3    3  501    0  0.93450244371E+02  0.22457925304E+03 -0.57730974323E+02  0.25000330891E+03  0.00000000000E+00 0.  1.
         21    1    1    2  502  501  0.31216387385E+02 -0.28825771561E+02  0.19160307974E+02  0.46610142128E+02  0.00000000000E+00 0. -1.
<scales pt_clust_4="550.00000" pt_clust_5="550.00000" pt_clust_6="42.48986"></scales>
<mgrwt>
<rscale>  0 0.30000000E+03</rscale>
<asrwt>  1 0.42489857E+02</asrwt>
<pdfrwt beam="1">  1        1 0.92504488E+00 0.30000000E+03</pdfrwt>
<pdfrwt beam="2">0</pdfrwt>
<totfact> 0.31579056E-05</totfact>
</mgrwt>
<clustering>
<clus scale="   42.490">  1  6  2 -1</clus>
<clus scale="  479.256">  4  5 -1 -1</clus>
<clus scale="  300.000">  1  4  2 -1</clus>
</clustering>
</event>
<event>
 6    1  0.9254630E-012  0.3000000E+03  0.7818608E-02  0.1093470E+00
          1   -1    0    0  502    0  0.00000000000E+00  0.00000000000E+00  0.25359522694E+03  0.25359522694E+03  0.00000000000E+00 0.  1.
         13   -1    0    0    0    0 -0.00000000000E+00 -0.00000000000E+00 -0.27500000000E+03  0.27500000000E+03  0.00000000000E+00 0.  1.
    9000005    2    1    2  501    0 -0.18454457396E+02 -0.26840225757E+02 -0.47637400400E+02  0.48677279930E+03  0.48333991301E+03 0.  0.
         13    1    3    3    0    0  0.34665462560E+02 -0.20039028712E+03 -0.17233554565E+03  0.26656613018E+03  0.00000000000E+00 0.  1.
          1    1    3    3  501    0 -0.53119919956E+02  0.17355006136E+03  0.12469814525E+03  0.22020666912E+03  0.00000000000E+00 0.  1.
         21    1    1    2  502  501  0.18454457396E+02  0.26840225757E+02  0.26232627340E+02  0.41822427640E+02  0.00000000000E+00 0. -1.
<scales pt_clust_4="550.00000" pt_clust_5="550.00000" pt_clust_6="32.57245"></scales>
<mgrwt>
<rscale>  0 0.30000000E+03</rscale>
<asrwt>  1 0.32572453E+02</asrwt>
<pdfrwt beam="1">  1        1 0.92216446E+00 0.30000000E+03</pdfrwt>
<pdfrwt beam="2">0</pdfrwt>
<totfact> 0.38083922E-05</totfact>
</mgrwt>
<clustering>
<clus scale="   32.572">  1  6  2 -1</clus>
<clus scale="  483.340">  4  5 -1 -1</clus>
<clus scale="  300.000">  1  4  2 -1</clus>
</clustering>
</event>
<event>
 6    1  0.9254630E-012  0.3000000E+03  0.7818608E-02  0.1093470E+00
          1   -1    0    0  502    0  0.00000000000E+00  0.00000000000E+00  0.23379368560E+03  0.23379368560E+03  0.00000000000E+00 0.  1.
         13   -1    0    0    0    0 -0.00000000000E+00 -0.00000000000E+00 -0.27500000000E+03  0.27500000000E+03  0.00000000000E+00 0.  1.
    9000005    2    1    2  501    0  0.32609792072E+02  0.23659241167E+01 -0.32114371882E+02  0.47485757570E+03  0.47264086597E+03 0.  0.
         13    1    3    3    0    0 -0.19054712975E+03 -0.52111594078E+02 -0.11743400058E+03  0.22981421058E+03  0.00000000000E+00 0.  1.
          1    1    3    3  501    0  0.22315692182E+03  0.54477518195E+02  0.85319628700E+02  0.24504336512E+03  0.00000000000E+00 0.  1.
         21    1    1    2  502  501 -0.32609792072E+02 -0.23659241167E+01 -0.90919425225E+01  0.33936109894E+02  0.00000000000E+00 0. -1.
<scales pt_clust_4="550.00000" pt_clust_5="550.00000" pt_clust_6="32.69552"></scales>
<mgrwt>
<rscale>  0 0.30000000E+03</rscale>
<asrwt>  1 0.32695523E+02</asrwt>
<pdfrwt beam="1">  1        1 0.85015886E+00 0.30000000E+03</pdfrwt>
<pdfrwt beam="2">0</pdfrwt>
<totfact> 0.41082368E-04</totfact>
</mgrwt>
<clustering>
<clus scale="   32.696">  1  6  2 -1</clus>
<clus scale="  472.641">  4  5 -1 -1</clus>
<clus scale="  300.000">  1  4  2 -1</clus>
</clustering>
</event>
<event>
 6    1  0.9254630E-012  0.3000000E+03  0.7818608E-02  0.1093470E+00
          1   -1    0    0  502    0  0.00000000000E+00  0.00000000000E+00  0.23346358966E+03  0.23346358966E+03  0.00000000000E+00 0.  1.
         13   -1    0    0    0    0 -0.00000000000E+00 -0.00000000000E+00 -0.27500000000E+03  0.27500000000E+03  0.00000000000E+00 0.  1.
    9000005    2    1    2  501    0  0.27243645773E+02 -0.30522942608E+02 -0.38699644000E+02  0.46745245089E+03  0.46404769705E+03 0.  0.
         13    1    3    3    0    0  0.61998004140E+02 -0.22522273177E+03 -0.10870053299E+03  0.25765255150E+03  0.00000000000E+00 0.  1.
          3    1    3    3  501    0 -0.34754358368E+02  0.19469978916E+03  0.70000888992E+02  0.20979989939E+03  0.00000000000E+00 0.  1.
         21    1    1    2  502  501 -0.27243645773E+02  0.30522942608E+02 -0.28367663378E+01  0.41011138776E+02  0.00000000000E+00 0. -1.
<scales pt_clust_4="550.00000" pt_clust_5="550.00000" pt_clust_6="40.91291"></scales>
<mgrwt>
<rscale>  0 0.30000000E+03</rscale>
<asrwt>  1 0.40912911E+02</asrwt>
<pdfrwt beam="1">  1        1 0.84895851E+00 0.30000000E+03</pdfrwt>
<pdfrwt beam="2">0</pdfrwt>
<totfact> 0.40438425E-04</totfact>
</mgrwt>
<clustering>
<clus scale="   40.913">  1  6  2 -1</clus>
<clus scale="  464.048">  4  5 -1 -1</clus>
<clus scale="  300.000">  1  4  2 -1</clus>
</clustering>
</event>
<event>
 6    1  0.9254630E-012  0.3000000E+03  0.7818608E-02  0.1093470E+00
          1   -1    0    0  502    0  0.00000000000E+00  0.00000000000E+00  0.23248173845E+03  0.23248173845E+03  0.00000000000E+00 0.  1.
         13   -1    0    0    0    0 -0.00000000000E+00 -0.00000000000E+00 -0.27500000000E+03  0.27500000000E+03  0.00000000000E+00 0.  1.
    9000005    2    1    2  501    0  0.49102367456E+01 -0.31490105225E+02 -0.52018060410E+02  0.47422541078E+03  0.47028515229E+03 0.  0.
         13    1    3    3    0    0 -0.35130524643E+02  0.15414129027E+03  0.13485544418E+03  0.20779721354E+03  0.00000000000E+00 0.  1.
          1    1    3    3  501    0  0.40040761389E+02 -0.18563139550E+03 -0.18687350459E+03  0.26642819724E+03  0.00000000000E+00 0.  1.
         21    1    1    2  502  501 -0.49102367456E+01  0.31490105225E+02  0.94997988600E+01  0.33256327674E+02  0.00000000000E+00 0. -1.
<scales pt_clust_4="550.00000" pt_clust_5="550.00000" pt_clust_6="31.87063"></scales>
<mgrwt>
<rscale>  0 0.30000000E+03</rscale>
<asrwt>  1 0.31870631E+02</asrwt>
<pdfrwt beam="1">  1        1 0.84538814E+00 0.30000000E+03</pdfrwt>
<pdfrwt beam="2">0</pdfrwt>
<totfact> 0.45629027E-04</totfact>
</mgrwt>
<clustering>
<clus scale="   31.871">  1  6  2 -1</clus>
<clus scale="  470.285">  4  5 -1 -1</clus>
<clus scale="  300.000">  1  4  2 -1</clus>
</clustering>
</event>
<event>
 6    1  0.9254630E-012  0.3000000E+03  0.7818608E-02  0.1093470E+00
          1   -1    0    0  502    0  0.00000000000E+00  0.00000000000E+00  0.22531209510E+03  0.22531209510E+03  0.00000000000E+00 0.  1.
         13   -1    0    0    0    0 -0.00000000000E+00 -0.00000000000E+00 -0.27500000000E+03  0.27500000000E+03  0.00000000000E+00 0.  1.
    9000005    2    1    2  501    0  0.14990895378E+02 -0.29810258924E+02 -0.50864232780E+02  0.46692403992E+03  0.46294439234E+03 0.  0.
         13    1    3    3    0    0 -0.57782734932E+02  0.62804598265E+02 -0.23405826305E+03  0.24913155665E+03  0.00000000000E+00 0.  1.
          1    1    3    3  501    0  0.72773630309E+02 -0.92614857189E+02  0.18319403027E+03  0.21779248327E+03  0.00000000000E+00 0.  1.
         21    1    1    2  502  501 -0.14990895378E+02  0.29810258924E+02  0.11763278794E+01  0.33388055179E+02  0.00000000000E+00 0.  1.
<scales pt_clust_4="550.00000" pt_clust_5="550.00000" pt_clust_6="33.36733"></scales>
<mgrwt>
<rscale>  0 0.30000000E+03</rscale>
<asrwt>  1 0.33367327E+02</asrwt>
<pdfrwt beam="1">  1        1 0.81931671E+00 0.30000000E+03</pdfrwt>
<pdfrwt beam="2">0</pdfrwt>
<totfact> 0.73976840E-04</totfact>
</mgrwt>
<clustering>
<clus scale="   33.367">  1  6  2 -1</clus>
<clus scale="  462.944">  4  5 -1 -1</clus>
<clus scale="  300.000">  1  4  2 -1</clus>
</clustering>
</event>
<event>
 6    1  0.9254630E-012  0.3000000E+03  0.7818608E-02  0.1093470E+00
          1   -1    0    0  502    0  0.00000000000E+00  0.00000000000E+00  0.23558841615E+03  0.23558841615E+03  0.00000000000E+00 0.  1.
         13   -1    0    0    0    0 -0.00000000000E+00 -0.00000000000E+00 -0.27500000000E+03  0.27500000000E+03  0.00000000000E+00 0.  1.
    9000005    2    1    2  501    0 -0.28153433406E+02 -0.40716229143E+02 -0.40585794779E+02  0.46107270249E+03  0.45660749349E+03 0.  0.
         13    1    3    3    0    0  0.18949194754E+03 -0.10351749908E+03  0.41985585691E+02  0.21996786175E+03  0.00000000000E+00 0.  1.
          1    1    3    3  501    0 -0.21764538095E+03  0.62801269935E+02 -0.82571380470E+02  0.24110484073E+03  0.00000000000E+00 0.  1.
         21    1    1    2  502  501  0.28153433406E+02  0.40716229143E+02  0.11742109267E+01  0.49515713662E+02  0.00000000000E+00 0.  1.
<scales pt_clust_4="550.00000" pt_clust_5="550.00000" pt_clust_6="49.50179"></scales>
<mgrwt>
<rscale>  0 0.30000000E+03</rscale>
<asrwt>  1 0.49501789E+02</asrwt>
<pdfrwt beam="1">  1        1 0.85668515E+00 0.30000000E+03</pdfrwt>
<pdfrwt beam="2">0</pdfrwt>
<totfact> 0.32903379E-04</totfact>
</mgrwt>
<clustering>
<clus scale="   49.502">  1  6  2 -1</clus>
<clus scale="  456.607">  4  5 -1 -1</clus>
<clus scale="  300.000">  1  4  2 -1</clus>
</clustering>
</event>
<event>
 6    1  0.9254630E-012  0.3000000E+03  0.7818608E-02  0.1093470E+00
          1   -1    0    0  502    0  0.00000000000E+00  0.00000000000E+00  0.23229204054E+03  0.23229204054E+03  0.00000000000E+00 0.  1.
         13   -1    0    0    0    0 -0.00000000000E+00 -0.00000000000E+00 -0.27500000000E+03  0.27500000000E+03  0.00000000000E+00 0.  1.
    9000005    2    1    2  501    0  0.25528166373E+02  0.16159021092E+02 -0.60966919020E+02  0.47199061217E+03  0.46706035104E+03 0.  0.
         13    1    3    3    0    0  0.13710014150E+03 -0.52878241609E+02 -0.22078532401E+03  0.26521447271E+03  0.00000000000E+00 0.  1.
          1    1    3    3  501    0 -0.11157197513E+03  0.69037262701E+02  0.15981840499E+03  0.20677613946E+03  0.00000000000E+00 0.  1.
         21    1    1    2  502  501 -0.25528166373E+02 -0.16159021092E+02  0.18258959558E+02  0.35301428373E+02  0.00000000000E+00 0. -1.
<scales pt_clust_4="550.00000" pt_clust_5="550.00000" pt_clust_6="30.21260"></scales>
<mgrwt>
<rscale>  0 0.30000000E+03</rscale>
<asrwt>  1 0.30212601E+02</asrwt>
<pdfrwt beam="1">  1        1 0.84469833E+00 0.30000000E+03</pdfrwt>
<pdfrwt beam="2">0</pdfrwt>
<totfact> 0.46742684E-04</totfact>
</mgrwt>
<clustering>
<clus scale="   30.213">  1  6  2 -1</clus>
<clus scale="  467.060">  4  5 -1 -1</clus>
<clus scale="  300.000">  1  4  2 -1</clus>
</clustering>
</event>
<event>
 6    1  0.9254630E-012  0.3000000E+03  0.7818608E-02  0.1093470E+00
          1   -1    0    0  502    0  0.00000000000E+00  0.00000000000E+00  0.25174106252E+03  0.25174106252E+03  0.00000000000E+00 0.  1.
         13   -1    0    0    0    0 -0.00000000000E+00 -0.00000000000E+00 -0.27500000000E+03  0.27500000000E+03  0.00000000000E+00 0.  1.
    9000005    2    1    2  501    0 -0.29797526318E+02  0.23433000465E+02 -0.63703266160E+02  0.47130874516E+03  0.46544261629E+03 0.  0.
         13    1    3    3    0    0  0.58343071388E+02  0.15613607816E+03  0.13651145913E+03  0.21544782978E+03  0.00000000000E+00 0.  1.
          1    1    3    3  501    0 -0.88140597706E+02 -0.13270307770E+03 -0.20021472529E+03  0.25586091538E+03  0.00000000000E+00 0.  1.
         21    1    1    2  502  501  0.29797526318E+02 -0.23433000465E+02  0.40444328676E+02  0.55432317356E+02  0.00000000000E+00 0.  1.
<scales pt_clust_4="550.00000" pt_clust_5="550.00000" pt_clust_6="37.90776"></scales>
<mgrwt>
<rscale>  0 0.30000000E+03</rscale>
<asrwt>  1 0.37907758E+02</asrwt>
<pdfrwt beam="1">  1        1 0.91542205E+00 0.30000000E+03</pdfrwt>
<pdfrwt beam="2">0</pdfrwt>
<totfact> 0.52161886E-05</totfact>
</mgrwt>
<clustering>
<clus scale="   37.908">  1  6  2 -1</clus>
<clus scale="  465.443">  4  5 -1 -1</clus>
<clus scale="  300.000">  1  4  2 -1</clus>
</clustering>
</event>
<event>
 6    1  0.9254630E-012  0.3000000E+03  0.7818608E-02  0.1093470E+00
          1   -1    0    0  502    0  0.00000000000E+00  0.00000000000E+00  0.22552880207E+03  0.22552880207E+03  0.00000000000E+00 0.  1.
         13   -1    0    0    0    0 -0.00000000000E+00 -0.00000000000E+00 -0.27500000000E+03  0.27500000000E+03  0.00000000000E+00 0.  1.
    9000005    2    1    2  501    0 -0.19813528745E+02 -0.25076718611E+02 -0.61707854964E+02  0.46630668184E+03  0.46109938672E+03 0.  0.
         13    1    3    3    0    0  0.99283300094E+02 -0.20557237275E+03  0.32196311346E+02  0.23055102814E+03  0.00000000000E+00 0.  1.
          3    1    3    3  501    0 -0.11909682884E+03  0.18049565414E+03 -0.93904166310E+02  0.23575565370E+03  0.00000000000E+00 0.  1.
         21    1    1    2  502  501  0.19813528745E+02  0.25076718611E+02  0.12236657039E+02  0.34222120231E+02  0.00000000000E+00 0. -1.
<scales pt_clust_4="550.00000" pt_clust_5="550.00000" pt_clust_6="31.95963"></scales>
<mgrwt>
<rscale>  0 0.30000000E+03</rscale>
<asrwt>  1 0.31959627E+02</asrwt>
<pdfrwt beam="1">  1        1 0.82010473E+00 0.30000000E+03</pdfrwt>
<pdfrwt beam="2">0</pdfrwt>
<totfact> 0.73425880E-04</totfact>
</mgrwt>
<clustering>
<clus scale="   31.960">  1  6  2 -1</clus>
<clus scale="  461.099">  4  5 -1 -1</clus>
<clus scale="  300.000">  1  4  2 -1</clus>
</clustering>
</event>
<event>
 6    1  0.9254630E-012  0.3000000E+03  0.7818608E-02  0.1093470E+00
          1   -1    0    0  502    0  0.00000000000E+00  0.00000000000E+00  0.22715051018E+03  0.22715051018E+03  0.00000000000E+00 0.  1.
         13   -1    0    0    0    0 -0.00000000000E+00 -0.00000000000E+00 -0.27500000000E+03  0.27500000000E+03  0.00000000000E+00 0.  1.
    9000005    2    1    2  501    0 -0.26636263526E+02  0.14634638555E+02 -0.25794831294E+02  0.46459959618E+03  0.46288632326E+03 0.  0.
         13    1    3    3    0    0 -0.84664560486E+02  0.12688286782E+03 -0.19866575335E+03  0.25047042041E+03  0.00000000000E+00 0.  1.
          3    1    3    3  501    0  0.58028296960E+02 -0.11224822926E+03  0.17287092206E+03  0.21412917576E+03  0.00000000000E+00 0.  1.
         21    1    1    2  502  501  0.26636263526E+02 -0.14634638555E+02 -0.22054658523E+02  0.37550914008E+02  0.00000000000E+00 0.  1.
<scales pt_clust_4="550.00000" pt_clust_5="550.00000" pt_clust_6="30.39184"></scales>
<mgrwt>
<rscale>  0 0.30000000E+03</rscale>
<asrwt>  1 0.30391843E+02</asrwt>
<pdfrwt beam="1">  1        1 0.82600186E+00 0.30000000E+03</pdfrwt>
<pdfrwt beam="2">0</pdfrwt>
<totfact> 0.65724395E-04</totfact>
</mgrwt>
<clustering>
<clus scale="   30.392">  1  6  2 -1</clus>
<clus scale="  462.886">  4  5 -1 -1</clus>
<clus scale="  300.000">  1  4  2 -1</clus>
</clustering>
</event>
<event>
 6    1  0.9254630E-012  0.3000000E+03  0.7818608E-02  0.1093470E+00
          1   -1    0    0  502    0  0.00000000000E+00  0.00000000000E+00  0.23765658542E+03  0.23765658542E+03  0.00000000000E+00 0.  1.
         13   -1    0    0    0    0 -0.00000000000E+00 -0.00000000000E+00 -0.27500000000E+03  0.27500000000E+03  0.00000000000E+00 0.  1.
    9000005    2    1    2  501    0  0.30891752580E+02  0.30221007114E+02 -0.47144086358E+02  0.46834335020E+03  0.46395616081E+03 0.  0.
         13    1    3    3    0    0 -0.11718813623E+03  0.19917841652E+03 -0.72624282082E+02  0.24223828605E+03  0.00000000000E+00 0.  1.
          1    1    3    3  501    0  0.14807988881E+03 -0.16895740940E+03  0.25480195724E+02  0.22610506415E+03  0.00000000000E+00 0.  1.
         21    1    1    2  502  501 -0.30891752580E+02 -0.30221007114E+02  0.98006717808E+01  0.44313235221E+02  0.00000000000E+00 0. -1.
<scales pt_clust_4="550.00000" pt_clust_5="550.00000" pt_clust_6="43.21585"></scales>
<mgrwt>
<rscale>  0 0.30000000E+03</rscale>
<asrwt>  1 0.43215850E+02</asrwt>
<pdfrwt beam="1">  1        1 0.86420577E+00 0.30000000E+03</pdfrwt>
<pdfrwt beam="2">0</pdfrwt>
<totfact> 0.28033592E-04</totfact>
</mgrwt>
<clustering>
<clus scale="   43.216">  1  6  2 -1</clus>
<clus scale="  463.956">  4  5 -1 -1</clus>
<clus scale="  300.000">  1  4  2 -1</clus>
</clustering>
</event>
<event>
 6    1  0.9254630E-012  0.3000000E+03  0.7818608E-02  0.1093470E+00
          1   -1    0    0  502    0  0.00000000000E+00  0.00000000000E+00  0.24166699567E+03  0.24166699567E+03  0.00000000000E+00 0.  1.
         13   -1    0    0    0    0 -0.00000000000E+00 -0.00000000000E+00 -0.27500000000E+03  0.27500000000E+03  0.00000000000E+00 0.  1.
    9000005    2    1    2  501    0 -0.17026574186E+02  0.27139283880E+02 -0.67642293103E+02  0.46972477316E+03  0.46372344964E+03 0.  0.
         13    1    3    3    0    0  0.92947362000E+02 -0.56621611447E+02  0.16585383886E+03  0.19837518708E+03  0.00000000000E+00 0.  1.
          3    1    3    3  501    0 -0.10997393619E+03  0.83760895328E+02 -0.23349613196E+03  0.27134958608E+03  0.00000000000E+00 0.  1.
         21    1    1    2  502  501  0.17026574186E+02 -0.27139283880E+02  0.34309288773E+02  0.46942222510E+02  0.00000000000E+00 0.  1.
<scales pt_clust_4="550.00000" pt_clust_5="550.00000" pt_clust_6="32.03818"></scales>
<mgrwt>
<rscale>  0 0.30000000E+03</rscale>
<asrwt>  1 0.32038180E+02</asrwt>
<pdfrwt beam="1">  1        1 0.87878908E+00 0.30000000E+03</pdfrwt>
<pdfrwt beam="2">0</pdfrwt>
<totfact> 0.20756778E-04</totfact>
</mgrwt>
<clustering>
<clus scale="   32.038">  1  6  2 -1</clus>
<clus scale="  463.723">  4  5 -1 -1</clus>
<clus scale="  300.000">  1  4  2 -1</clus>
</clustering>
</event>
<event>
 6    1  0.9254630E-012  0.3000000E+03  0.7818608E-02  0.1093470E+00
          1   -1    0    0  502    0  0.00000000000E+00  0.00000000000E+00  0.22246593090E+03  0.22246593090E+03  0.00000000000E+00 0.  1.
         13   -1    0    0    0    0 -0.00000000000E+00 -0.00000000000E+00 -0.27500000000E+03  0.27500000000E+03  0.00000000000E+00 0.  1.
    9000005    2    1    2  501    0 -0.12543287840E+02  0.29001626400E+02 -0.32247175716E+02  0.45991614466E+03  0.45769482341E+03 0.  0.
         13    1    3    3    0    0  0.71851733834E+02 -0.16983114705E+03  0.96833855426E+02  0.20828366647E+03  0.00000000000E+00 0.  1.
          3    1    3    3  501    0 -0.84395021673E+02  0.19883277345E+03 -0.12908103114E+03  0.25163247819E+03  0.00000000000E+00 0.  1.
         21    1    1    2  502  501  0.12543287840E+02 -0.29001626400E+02 -0.20286893381E+02  0.37549786240E+02  0.00000000000E+00 0.  1.
<scales pt_clust_4="550.00000" pt_clust_5="550.00000" pt_clust_6="31.59793"></scales>
<mgrwt>
<rscale>  0 0.30000000E+03</rscale>
<asrwt>  1 0.31597934E+02</asrwt>
<pdfrwt beam="1">  1        1 0.80896702E+00 0.30000000E+03</pdfrwt>
<pdfrwt beam="2">0</pdfrwt>
<totfact> 0.90574365E-04</totfact>
</mgrwt>
<clustering>
<clus scale="   31.598">  1  6  2 -1</clus>
<clus scale="  457.695">  4  5 -1 -1</clus>
<clus scale="  300.000">  1  4  2 -1</clus>
</clustering>
</event>
<event>
 6    1  0.9254630E-012  0.3000000E+03  0.7818608E-02  0.1093470E+00
          1   -1    0    0  502    0  0.00000000000E+00  0.00000000000E+00  0.23645686163E+03  0.23645686163E+03  0.00000000000E+00 0.  1.
         13   -1    0    0    0    0 -0.00000000000E+00 -0.00000000000E+00 -0.27500000000E+03  0.27500000000E+03  0.00000000000E+00 0.  1.
    9000005    2    1    2  501    0  0.34877471753E+02  0.19663267093E+02 -0.41412372115E+02  0.47131567815E+03  0.46778242998E+03 0.  0.
         13    1    3    3    0    0  0.66423850447E+02 -0.89306172138E+02 -0.22756189438E+03  0.25332219812E+03  0.00000000000E+00 0.  1.
          3    1    3    3  501    0 -0.31546378694E+02  0.10896943923E+03  0.18614952226E+03  0.21799348003E+03  0.00000000000E+00 0.  1.
         21    1    1    2  502  501 -0.34877471753E+02 -0.19663267093E+02  0.28692337420E+01  0.40141183477E+02  0.00000000000E+00 0. -1.
<scales pt_clust_4="550.00000" pt_clust_5="550.00000" pt_clust_6="40.03851"></scales>
<mgrwt>
<rscale>  0 0.30000000E+03</rscale>
<asrwt>  1 0.40038508E+02</asrwt>
<pdfrwt beam="1">  1        1 0.85984313E+00 0.30000000E+03</pdfrwt>
<pdfrwt beam="2">0</pdfrwt>
<totfact> 0.31674309E-04</totfact>
</mgrwt>
<clustering>
<clus scale="   40.039">  1  6  2 -1</clus>
<clus scale="  467.782">  4  5 -1 -1</clus>
<clus scale="  300.000">  1  4  2 -1</clus>
</clustering>
</event>
<event>
 6    1  0.9254630E-012  0.3000000E+03  0.7818608E-02  0.1093470E+00
          1   -1    0    0  502    0  0.00000000000E+00  0.00000000000E+00  0.23418163854E+03  0.23418163854E+03  0.00000000000E+00 0.  1.
         13   -1    0    0    0    0 -0.00000000000E+00 -0.00000000000E+00 -0.27500000000E+03  0.27500000000E+03  0.00000000000E+00 0.  1.
    9000005    2    1    2  501    0  0.16100077472E+02 -0.26844014974E+02 -0.48391868836E+02  0.47697648913E+03  0.47348176795E+03 0.  0.
         13    1    3    3    0    0 -0.22012484157E+03  0.25784061446E+02  0.27524971425E+02  0.22333246015E+03  0.00000000000E+00 0.  1.
          3    1    3    3  501    0  0.23622491905E+03 -0.52628076421E+02 -0.75916840262E+02  0.25364402899E+03  0.00000000000E+00 0.  1.
         21    1    1    2  502  501 -0.16100077472E+02  0.26844014974E+02  0.75735073805E+01  0.32205149411E+02  0.00000000000E+00 0.  1.
<scales pt_clust_4="550.00000" pt_clust_5="550.00000" pt_clust_6="31.30197"></scales>
<mgrwt>
<rscale>  0 0.30000000E+03</rscale>
<asrwt>  1 0.31301975E+02</asrwt>
<pdfrwt beam="1">  1        1 0.85156959E+00 0.30000000E+03</pdfrwt>
<pdfrwt beam="2">0</pdfrwt>
<totfact> 0.40169259E-04</totfact>
</mgrwt>
<clustering>
<clus scale="   31.302">  1  6  2 -1</clus>
<clus scale="  473.482">  4  5 -1 -1</clus>
<clus scale="  300.000">  1  4  2 -1</clus>
</clustering>
</event>
<event>
 6    1  0.9254630E-012  0.3000000E+03  0.7818608E-02  0.1093470E+00
          1   -1    0    0  502    0  0.00000000000E+00  0.00000000000E+00  0.24231852316E+03  0.24231852316E+03  0.00000000000E+00 0.  1.
         13   -1    0    0    0    0 -0.00000000000E+00 -0.00000000000E+00 -0.27500000000E+03  0.27500000000E+03  0.00000000000E+00 0.  1.
    9000005    2    1    2  501    0 -0.59733591814E+01  0.35537609252E+02 -0.60630314505E+02  0.47171435429E+03  0.46641161469E+03 0.  0.
         13    1    3    3    0    0  0.80458712869E+02  0.12103229231E+03 -0.22464315854E+03  0.26755741241E+03  0.00000000000E+00 0.  1.
          3    1    3    3  501    0 -0.86432072051E+02 -0.85494683055E+02  0.16401284403E+03  0.20415694188E+03  0.00000000000E+00 0.  1.
         21    1    1    2  502  501  0.59733591814E+01 -0.35537609252E+02  0.27948837663E+02  0.45604168866E+02  0.00000000000E+00 0. -1.
<scales pt_clust_4="550.00000" pt_clust_5="550.00000" pt_clust_6="36.03613"></scales>
<mgrwt>
<rscale>  0 0.30000000E+03</rscale>
<asrwt>  1 0.36036130E+02</asrwt>
<pdfrwt beam="1">  1        1 0.88115827E+00 0.30000000E+03</pdfrwt>
<pdfrwt beam="2">0</pdfrwt>
<totfact> 0.18984865E-04</totfact>
</mgrwt>
<clustering>
<clus scale="   36.036">  1  6  2 -1</clus>
<clus scale="  466.412">  4  5 -1 -1</clus>
<clus scale="  300.000">  1  4  2 -1</clus>
</clustering>
</event>
<event>
 6    1  0.9254630E-012  0.3000000E+03  0.7818608E-02  0.1093470E+00
          1   -1    0    0  502    0  0.00000000000E+00  0.00000000000E+00  0.23750336548E+03  0.23750336548E+03  0.00000000000E+00 0.  1.
         13   -1    0    0    0    0 -0.00000000000E+00 -0.00000000000E+00 -0.27500000000E+03  0.27500000000E+03  0.00000000000E+00 0.  1.
    9000005    2    1    2  501    0 -0.36144841343E+02  0.31712911672E-01 -0.50201224191E+02  0.47419074145E+03  0.47013853895E+03 0.  0.
         13    1    3    3    0    0  0.20581469265E+03 -0.15203425885E+02  0.49210821802E+02  0.21216158194E+03  0.00000000000E+00 0.  1.
          1    1    3    3  501    0 -0.24195953399E+03  0.15235138797E+02 -0.99412045993E+02  0.26202915951E+03  0.00000000000E+00 0.  1.
         21    1    1    2  502  501  0.36144841343E+02 -0.31712911672E-01  0.12704589668E+02  0.38312624030E+02  0.00000000000E+00 0.  1.
<scales pt_clust_4="550.00000" pt_clust_5="550.00000" pt_clust_6="36.14486"></scales>
<mgrwt>
<rscale>  0 0.30000000E+03</rscale>
<asrwt>  1 0.36144855E+02</asrwt>
<pdfrwt beam="1">  1        1 0.86364860E+00 0.30000000E+03</pdfrwt>
<pdfrwt beam="2">0</pdfrwt>
<totfact> 0.29369365E-04</totfact>
</mgrwt>
<clustering>
<clus scale="   36.145">  1  6  2 -1</clus>
<clus scale="  470.139">  4  5 -1 -1</clus>
<clus scale="  300.000">  1  4  2 -1</clus>
</clustering>
</event>
<event>
 6    1  0.9254630E-012  0.3000000E+03  0.7818608E-02  0.1093470E+00
          1   -1    0    0  502    0  0.00000000000E+00  0.00000000000E+00  0.23876561275E+03  0.23876561275E+03  0.00000000000E+00 0.  1.
         13   -1    0    0    0    0 -0.00000000000E+00 -0.00000000000E+00 -0.27500000000E+03  0.27500000000E+03  0.00000000000E+00 0.  1.
    9000005    2    1    2  501    0  0.95215733570E+01 -0.29492724472E+02 -0.66570306441E+02  0.47039800791E+03  0.46463125056E+03 0.  0.
         13    1    3    3    0    0 -0.49037944747E+02 -0.18419006396E+03  0.11672094099E+03  0.22350498373E+03  0.00000000000E+00 0.  1.
          3    1    3    3  501    0  0.58559518104E+02  0.15469733949E+03 -0.18329124743E+03  0.24689302418E+03  0.00000000000E+00 0.  1.
         21    1    1    2  502  501 -0.95215733570E+01  0.29492724472E+02  0.30335919188E+02  0.43367604833E+02  0.00000000000E+00 0.  1.
<scales pt_clust_4="550.00000" pt_clust_5="550.00000" pt_clust_6="30.99163"></scales>
<mgrwt>
<rscale>  0 0.30000000E+03</rscale>
<asrwt>  1 0.30991630E+02</asrwt>
<pdfrwt beam="1">  1        1 0.86823859E+00 0.30000000E+03</pdfrwt>
<pdfrwt beam="2">0</pdfrwt>
<totfact> 0.27018484E-04</totfact>
</mgrwt>
<clustering>
<clus scale="   30.992">  1  6  2 -1</clus>
<clus scale="  464.631">  4  5 -1 -1</clus>
<clus scale="  300.000">  1  4  2 -1</clus>
</clustering>
</event>
<event>
 6    1  0.9254630E-012  0.3000000E+03  0.7818608E-02  0.1093470E+00
          1   -1    0    0  502    0  0.00000000000E+00  0.00000000000E+00  0.22978376619E+03  0.22978376619E+03  0.00000000000E+00 0.  1.
         13   -1    0    0    0    0 -0.00000000000E+00 -0.00000000000E+00 -0.27500000000E+03  0.27500000000E+03  0.00000000000E+00 0.  1.
    9000005    2    1    2  501    0 -0.30257716777E+02  0.20623148413E+02 -0.64387023279E+02  0.46345141997E+03  0.45749391934E+03 0.  0.
         13    1    3    3    0    0  0.18470841371E+03 -0.18620105076E+02 -0.13968096549E+03  0.23232451125E+03  0.00000000000E+00 0.  1.
          3    1    3    3  501    0 -0.21496613048E+03  0.39243253490E+02  0.75293942216E+02  0.23112690872E+03  0.00000000000E+00 0.  1.
         21    1    1    2  502  501  0.30257716777E+02 -0.20623148413E+02  0.19170789465E+02  0.41332346217E+02  0.00000000000E+00 0. -1.
<scales pt_clust_4="550.00000" pt_clust_5="550.00000" pt_clust_6="36.61753"></scales>
<mgrwt>
<rscale>  0 0.30000000E+03</rscale>
<asrwt>  1 0.36617532E+02</asrwt>
<pdfrwt beam="1">  1        1 0.83557733E+00 0.30000000E+03</pdfrwt>
<pdfrwt beam="2">0</pdfrwt>
<totfact> 0.53128809E-04</totfact>
</mgrwt>
<clustering>
<clus scale="   36.618">  1  6  2 -1</clus>
<clus scale="  457.494">  4  5 -1 -1</clus>
<clus scale="  300.000">  1  4  2 -1</clus>
</clustering>
</event>
<event>
 6    1  0.9254630E-012  0.3000000E+03  0.7818608E-02  0.1093470E+00
          1   -1    0    0  502    0  0.00000000000E+00  0.00000000000E+00  0.23155704367E+03  0.23155704367E+03  0.00000000000E+00 0.  1.
         13   -1    0    0    0    0 -0.00000000000E+00 -0.00000000000E+00 -0.27500000000E+03  0.27500000000E+03  0.00000000000E+00 0.  1.
    9000005    2    1    2  501    0  0.54933677718E+01 -0.35247602027E+02 -0.59370888756E+02  0.46748954350E+03  0.46232996908E+03 0.  0.
         13    1    3    3    0    0  0.16728505612E+03 -0.95490486459E+02  0.11317124530E+03  0.22340647656E+03  0.00000000000E+00 0.  1.
          3    1    3    3  501    0 -0.16179168835E+03  0.60242884432E+02 -0.17254213406E+03  0.24408306694E+03  0.00000000000E+00 0.  1.
         21    1    1    2  502  501 -0.54933677718E+01  0.35247602027E+02  0.15927932426E+02  0.39067500169E+02  0.00000000000E+00 0. -1.
<scales pt_clust_4="550.00000" pt_clust_5="550.00000" pt_clust_6="35.67311"></scales>
<mgrwt>
<rscale>  0 0.30000000E+03</rscale>
<asrwt>  1 0.35673107E+02</asrwt>
<pdfrwt beam="1">  1        1 0.84202561E+00 0.30000000E+03</pdfrwt>
<pdfrwt beam="2">0</pdfrwt>
<totfact> 0.47723202E-04</totfact>
</mgrwt>
<clustering>
<clus scale="   35.673">  1  6  2 -1</clus>
<clus scale="  462.330">  4  5 -1 -1</clus>
<clus scale="  300.000">  1  4  2 -1</clus>
</clustering>
</event>
<event>
 6    1  0.9254630E-012  0.3000000E+03  0.7818608E-02  0.1093470E+00
          1   -1    0    0  502    0  0.00000000000E+00  0.00000000000E+00  0.24592249608E+03  0.24592249608E+03  0.00000000000E+00 0.  1.
         13   -1    0    0    0    0 -0.00000000000E+00 -0.00000000000E+00 -0.27500000000E+03  0.27500000000E+03  0.00000000000E+00 0.  1.
    9000005    2    1    2  501    0 -0.40250227347E+02  0.40469557349E+01 -0.67211211894E+02  0.46532898624E+03  0.45866900896E+03 0.  0.
         13    1    3    3    0    0 -0.18023635696E+03 -0.15988011931E+03 -0.65826341372E+02  0.24975969278E+03  0.00000000000E+00 0.  1.
          3    1    3    3  501    0  0.13998612961E+03  0.16392707504E+03 -0.13848705226E+01  0.21556929346E+03  0.00000000000E+00 0.  1.
         21    1    1    2  502  501  0.40250227347E+02 -0.40469557349E+01  0.38133707971E+02  0.55593509836E+02  0.00000000000E+00 0.  1.
<scales pt_clust_4="550.00000" pt_clust_5="550.00000" pt_clust_6="40.45317"></scales>
<mgrwt>
<rscale>  0 0.30000000E+03</rscale>
<asrwt>  1 0.40453166E+02</asrwt>
<pdfrwt beam="1">  1        1 0.89426362E+00 0.30000000E+03</pdfrwt>
<pdfrwt beam="2">0</pdfrwt>
<totfact> 0.12513937E-04</totfact>
</mgrwt>
<clustering>
<clus scale="   40.453">  1  6  2 -1</clus>
<clus scale="  458.669">  4  5 -1 -1</clus>
<clus scale="  300.000">  1  4  2 -1</clus>
</clustering>
</event>
<event>
 6    1  0.9254630E-012  0.3000000E+03  0.7818608E-02  0.1093470E+00
          1   -1    0    0  502    0  0.00000000000E+00  0.00000000000E+00  0.23902312708E+03  0.23902312708E+03  0.00000000000E+00 0.  1.
         13   -1    0    0    0    0 -0.00000000000E+00 -0.00000000000E+00 -0.27500000000E+03  0.27500000000E+03  0.00000000000E+00 0.  1.
    9000005    2    1    2  501    0 -0.19861608042E+02 -0.25192102007E+02 -0.71130715806E+02  0.46643197089E+03  0.45985876012E+03 0.  0.
         13    1    3    3    0    0 -0.11991578649E+03 -0.14321819993E+03  0.11886326951E+03  0.22140398704E+03  0.00000000000E+00 0.  1.
          1    1    3    3  501    0  0.10005417845E+03  0.11802609792E+03 -0.18999398531E+03  0.24502798385E+03  0.00000000000E+00 0.  1.
         21    1    1    2  502  501  0.19861608042E+02  0.25192102007E+02  0.35153842887E+02  0.47591156188E+02  0.00000000000E+00 0. -1.
<scales pt_clust_4="550.00000" pt_clust_5="550.00000" pt_clust_6="32.07999"></scales>
<mgrwt>
<rscale>  0 0.30000000E+03</rscale>
<asrwt>  1 0.32079986E+02</asrwt>
<pdfrwt beam="1">  1        1 0.86917501E+00 0.30000000E+03</pdfrwt>
<pdfrwt beam="2">0</pdfrwt>
<totfact> 0.26250683E-04</totfact>
</mgrwt>
<clustering>
<clus scale="   32.080">  1  6  2 -1</clus>
<clus scale="  459.859">  4  5 -1 -1</clus>
<clus scale="  300.000">  1  4  2 -1</clus>
</clustering>
</event>
<event>
 6    1  0.9254630E-012  0.3000000E+03  0.7818608E-02  0.1093470E+00
          1   -1    0    0  502    0  0.00000000000E+00  0.00000000000E+00  0.23322829447E+03  0.23322829447E+03  0.00000000000E+00 0.  1.
         13   -1    0    0    0    0 -0.00000000000E+00 -0.00000000000E+00 -0.27500000000E+03  0.27500000000E+03  0.00000000000E+00 0.  1.
    9000005    2    1    2  501    0 -0.30722696258E+02  0.67641560028E+01 -0.49187448043E+02  0.47590754094E+03  0.47231233798E+03 0.  0.
         13    1    3    3    0    0  0.13319116625E+03 -0.17921868919E+03 -0.63974481191E+00  0.22329271058E+03  0.00000000000E+00 0.  1.
          1    1    3    3  501    0 -0.16391386251E+03  0.18598284519E+03 -0.48547703231E+02  0.25261483036E+03  0.00000000000E+00 0.  1.
         21    1    1    2  502  501  0.30722696258E+02 -0.67641560028E+01  0.74157425110E+01  0.32320753531E+02  0.00000000000E+00 0. -1.
<scales pt_clust_4="550.00000" pt_clust_5="550.00000" pt_clust_6="31.45851"></scales>
<mgrwt>
<rscale>  0 0.30000000E+03</rscale>
<asrwt>  1 0.31458510E+02</asrwt>
<pdfrwt beam="1">  1        1 0.84810289E+00 0.30000000E+03</pdfrwt>
<pdfrwt beam="2">0</pdfrwt>
<totfact> 0.43244343E-04</totfact>
</mgrwt>
<clustering>
<clus scale="   31.459">  1  6  2 -1</clus>
<clus scale="  472.312">  4  5 -1 -1</clus>
<clus scale="  300.000">  1  4  2 -1</clus>
</clustering>
</event>
<event>
 6    1  0.9254630E-012  0.3000000E+03  0.7818608E-02  0.1093470E+00
          1   -1    0    0  502    0  0.00000000000E+00  0.00000000000E+00  0.22624982041E+03  0.22624982041E+03  0.00000000000E+00 0.  1.
         13   -1    0    0    0    0 -0.00000000000E+00 -0.00000000000E+00 -0.27500000000E+03  0.27500000000E+03  0.00000000000E+00 0.  1.
    9000005    2    1    2  501    0  0.16944750139E+02 -0.25669678919E+02 -0.70880868725E+02  0.46335754713E+03  0.45686985232E+03 0.  0.
         13    1    3    3    0    0 -0.19189715342E+03  0.18296888736E+02 -0.14087026583E+03  0.23875452964E+03  0.00000000000E+00 0.  1.
          3    1    3    3  501    0  0.20884190356E+03 -0.43966567655E+02  0.69989397107E+02  0.22460301748E+03  0.00000000000E+00 0.  1.
         21    1    1    2  502  501 -0.16944750139E+02  0.25669678919E+02  0.22130689136E+02  0.37892273285E+02  0.00000000000E+00 0. -1.
<scales pt_clust_4="550.00000" pt_clust_5="550.00000" pt_clust_6="30.75804"></scales>
<mgrwt>
<rscale>  0 0.30000000E+03</rscale>
<asrwt>  1 0.30758039E+02</asrwt>
<pdfrwt beam="1">  1        1 0.82272662E+00 0.30000000E+03</pdfrwt>
<pdfrwt beam="2">0</pdfrwt>
<totfact> 0.70137018E-04</totfact>
</mgrwt>
<clustering>
<clus scale="   30.758">  1  6  2 -1</clus>
<clus scale="  456.870">  4  5 -1 -1</clus>
<clus scale="  300.000">  1  4  2 -1</clus>
</clustering>
</event>
<event>
 6    1  0.9254630E-012  0.3000000E+03  0.7818608E-02  0.1093470E+00
          1   -1    0    0  502    0  0.00000000000E+00  0.00000000000E+00  0.25162492077E+03  0.25162492077E+03  0.00000000000E+00 0.  1.
         13   -1    0    0    0    0 -0.00000000000E+00 -0.00000000000E+00 -0.27500000000E+03  0.27500000000E+03  0.00000000000E+00 0.  1.
    9000005    2    1    2  501    0 -0.22401799603E+02  0.24297222446E+02 -0.32708259855E+02  0.49228392625E+03  0.49008309310E+03 0.  0.
         13    1    3    3    0    0  0.20284382170E+03 -0.85633591338E+02 -0.85407917381E+02  0.23616358805E+03  0.00000000000E+00 0.  1.
          1    1    3    3  501    0 -0.22524562131E+03  0.10993081378E+03  0.52699657526E+02  0.25612033820E+03  0.00000000000E+00 0.  1.
         21    1    1    2  502  501  0.22401799603E+02 -0.24297222446E+02  0.93331806279E+01  0.34340994521E+02  0.00000000000E+00 0.  1.
<scales pt_clust_4="550.00000" pt_clust_5="550.00000" pt_clust_6="33.04838"></scales>
<mgrwt>
<rscale>  0 0.30000000E+03</rscale>
<asrwt>  1 0.33048383E+02</asrwt>
<pdfrwt beam="1">  1        1 0.91499971E+00 0.30000000E+03</pdfrwt>
<pdfrwt beam="2">0</pdfrwt>
<totfact> 0.54734475E-05</totfact>
</mgrwt>
<clustering>
<clus scale="   33.048">  1  6  2 -1</clus>
<clus scale="  490.083">  4  5 -1 -1</clus>
<clus scale="  300.000">  1  4  2 -1</clus>
</clustering>
</event>
<event>
 6    1  0.9254630E-012  0.3000000E+03  0.7818608E-02  0.1093470E+00
          1   -1    0    0  502    0  0.00000000000E+00  0.00000000000E+00  0.24199867588E+03  0.24199867588E+03  0.00000000000E+00 0.  1.
         13   -1    0    0    0    0 -0.00000000000E+00 -0.00000000000E+00 -0.27500000000E+03  0.27500000000E+03  0.00000000000E+00 0.  1.
    9000005    2    1    2  501    0  0.28424818805E+02  0.12246621166E+02 -0.57281446527E+02  0.47766072476E+03  0.47320255051E+03 0.  0.
         13    1    3    3    0    0  0.18866241472E+03 -0.11273040720E+03  0.78370447188E+02  0.23333147757E+03  0.00000000000E+00 0.  1.
          1    1    3    3  501    0 -0.16023759591E+03  0.12497702836E+03 -0.13565189372E+03  0.24432924719E+03  0.00000000000E+00 0.  1.
         21    1    1    2  502  501 -0.28424818805E+02 -0.12246621166E+02  0.24280122408E+02  0.39337951119E+02  0.00000000000E+00 0. -1.
<scales pt_clust_4="550.00000" pt_clust_5="550.00000" pt_clust_6="30.95077"></scales>
<mgrwt>
<rscale>  0 0.30000000E+03</rscale>
<asrwt>  1 0.30950768E+02</asrwt>
<pdfrwt beam="1">  1        1 0.87999519E+00 0.30000000E+03</pdfrwt>
<pdfrwt beam="2">0</pdfrwt>
<totfact> 0.20204989E-04</totfact>
</mgrwt>
<clustering>
<clus scale="   30.951">  1  6  2 -1</clus>
<clus scale="  473.203">  4  5 -1 -1</clus>
<clus scale="  300.000">  1  4  2 -1</clus>
</clustering>
</event>
<event>
 6    1  0.9254630E-012  0.3000000E+03  0.7818608E-02  0.1093470E+00
          1   -1    0    0  502    0  0.00000000000E+00  0.00000000000E+00  0.22666895719E+03  0.22666895719E+03  0.00000000000E+00 0.  1.
         13   -1    0    0    0    0 -0.00000000000E+00 -0.00000000000E+00 -0.27500000000E+03  0.27500000000E+03  0.00000000000E+00 0.  1.
    9000005    2    1    2  501    0 -0.30867509786E+02  0.14596077060E+02 -0.46658673303E+02  0.46748350055E+03  0.46389432295E+03 0.  0.
         13    1    3    3    0    0  0.12535895930E+03  0.18035716842E+03 -0.86838519383E+02  0.23618743685E+03  0.00000000000E+00 0.  1.
          1    1    3    3  501    0 -0.15622646909E+03 -0.16576109136E+03  0.40179846080E+02  0.23129606370E+03  0.00000000000E+00 0.  1.
         21    1    1    2  502  501  0.30867509786E+02 -0.14596077060E+02 -0.16723695069E+01  0.34185456640E+02  0.00000000000E+00 0.  1.
<scales pt_clust_4="550.00000" pt_clust_5="550.00000" pt_clust_6="34.14453"></scales>
<mgrwt>
<rscale>  0 0.30000000E+03</rscale>
<asrwt>  1 0.34144526E+02</asrwt>
<pdfrwt beam="1">  1        1 0.82425075E+00 0.30000000E+03</pdfrwt>
<pdfrwt beam="2">0</pdfrwt>
<totfact> 0.66640116E-04</totfact>
</mgrwt>
<clustering>
<clus scale="   34.145">  1  6  2 -1</clus>
<clus scale="  463.894">  4  5 -1 -1</clus>
<clus scale="  300.000">  1  4  2 -1</clus>
</clustering>
</event>
<event>
 6    1  0.9254630E-012  0.3000000E+03  0.7818608E-02  0.1093470E+00
          1   -1    0    0  502    0  0.00000000000E+00  0.00000000000E+00  0.26349122837E+03  0.26349122837E+03  0.00000000000E+00 0.  1.
         13   -1    0    0    0    0 -0.00000000000E+00 -0.00000000000E+00 -0.27500000000E+03  0.27500000000E+03  0.00000000000E+00 0.  1.
    9000005    2    1    2  501    0  0.49580756544E+02 -0.37948574899E+02 -0.45415528400E+02  0.46744185180E+03  0.46102165766E+03 0.  0.
         13    1    3    3    0    0  0.42944075365E+02  0.11360454127E+03  0.16695486182E+03  0.20645607594E+03  0.00000000000E+00 0.  1.
          1    1    3    3  501    0  0.66366811791E+01 -0.15155311616E+03 -0.21237039023E+03  0.26098577586E+03  0.00000000000E+00 0.  1.
         21    1    1    2  502  501 -0.49580756544E+02  0.37948574899E+02  0.33906756767E+02  0.71049376569E+02  0.00000000000E+00 0.  1.
<scales pt_clust_4="550.00000" pt_clust_5="550.00000" pt_clust_6="62.43673"></scales>
<mgrwt>
<rscale>  0 0.30000000E+03</rscale>
<asrwt>  1 0.62436734E+02</asrwt>
<pdfrwt beam="1">  1        1 0.95814992E+00 0.30000000E+03</pdfrwt>
<pdfrwt beam="2">0</pdfrwt>
<totfact> 0.75016008E-06</totfact>
</mgrwt>
<clustering>
<clus scale="   62.437">  1  6  2 -1</clus>
<clus scale="  461.022">  4  5 -1 -1</clus>
<clus scale="  300.000">  1  4  2 -1</clus>
</clustering>
</event>
<event>
 6    1  0.9254630E-012  0.3000000E+03  0.7818608E-02  0.1093470E+00
          1   -1    0    0  502    0  0.00000000000E+00  0.00000000000E+00  0.23730256654E+03  0.23730256654E+03  0.00000000000E+00 0.  1.
         13   -1    0    0    0    0 -0.00000000000E+00 -0.00000000000E+00 -0.27500000000E+03  0.27500000000E+03  0.00000000000E+00 0.  1.
    9000005    2    1    2  501    0 -0.95752077772E+01 -0.30758385698E+02 -0.37756810550E+02  0.48008818434E+03  0.47751578519E+03 0.  0.
         13    1    3    3    0    0 -0.40991799369E+02 -0.21707350438E+03  0.10371854709E+03  0.24404665728E+03  0.00000000000E+00 0.  1.
          3    1    3    3  501    0  0.31416591592E+02  0.18631511868E+03 -0.14147535764E+03  0.23604152706E+03  0.00000000000E+00 0.  1.
         21    1    1    2  502  501  0.95752077772E+01  0.30758385698E+02  0.59377087005E-01  0.32214382198E+02  0.00000000000E+00 0.  1.
<scales pt_clust_4="550.00000" pt_clust_5="550.00000" pt_clust_6="32.21433"></scales>
<mgrwt>
<rscale>  0 0.30000000E+03</rscale>
<asrwt>  1 0.32214327E+02</asrwt>
<pdfrwt beam="1">  1        1 0.86291842E+00 0.30000000E+03</pdfrwt>
<pdfrwt beam="2">0</pdfrwt>
<totfact> 0.30562706E-04</totfact>
</mgrwt>
<clustering>
<clus scale="   32.214">  1  6  2 -1</clus>
<clus scale="  477.516">  4  5 -1 -1</clus>
<clus scale="  300.000">  1  4  2 -1</clus>
</clustering>
</event>
<event>
 6    1  0.9254630E-012  0.3000000E+03  0.7818608E-02  0.1093470E+00
          1   -1    0    0  502    0  0.00000000000E+00  0.00000000000E+00  0.24519281926E+03  0.24519281926E+03  0.00000000000E+00 0.  1.
         13   -1    0    0    0    0 -0.00000000000E+00 -0.00000000000E+00 -0.27500000000E+03  0.27500000000E+03  0.00000000000E+00 0.  1.
    9000005    2    1    2  501    0  0.40597573578E+02 -0.42815894580E+01 -0.31307106534E+02  0.47934254673E+03  0.47657386332E+03 0.  0.
         13    1    3    3    0    0 -0.71873512707E+02  0.17294353791E+03  0.11835706715E+03  0.22154833441E+03  0.00000000000E+00 0.  1.
          1    1    3    3  501    0  0.11247108628E+03 -0.17722512737E+03 -0.14966417368E+03  0.25779421232E+03  0.00000000000E+00 0.  1.
         21    1    1    2  502  501 -0.40597573578E+02  0.42815894580E+01  0.14999257962E+01  0.40850272534E+02  0.00000000000E+00 0.  1.
<scales pt_clust_4="550.00000" pt_clust_5="550.00000" pt_clust_6="40.82273"></scales>
<mgrwt>
<rscale>  0 0.30000000E+03</rscale>
<asrwt>  1 0.40822726E+02</asrwt>
<pdfrwt beam="1">  1        1 0.89161025E+00 0.30000000E+03</pdfrwt>
<pdfrwt beam="2">0</pdfrwt>
<totfact> 0.13431030E-04</totfact>
</mgrwt>
<clustering>
<clus scale="   40.823">  1  6  2 -1</clus>
<clus scale="  476.574">  4  5 -1 -1</clus>
<clus scale="  300.000">  1  4  2 -1</clus>
</clustering>
</event>
<event>
 6    1  0.9254630E-012  0.3000000E+03  0.7818608E-02  0.1093470E+00
          1   -1    0    0  502    0  0.00000000000E+00  0.00000000000E+00  0.23688858167E+03  0.23688858167E+03  0.00000000000E+00 0.  1.
         13   -1    0    0    0    0 -0.00000000000E+00 -0.00000000000E+00 -0.27500000000E+03  0.27500000000E+03  0.00000000000E+00 0.  1.
    9000005    2    1    2  501    0  0.31240773930E+02  0.54472435219E+01 -0.54577461071E+02  0.47615639756E+03  0.47195397791E+03 0.  0.
         13    1    3    3    0    0  0.42204944488E+02 -0.17844656967E+03  0.12258541693E+03  0.22057112234E+03  0.00000000000E+00 0.  1.
          1    1    3    3  501    0 -0.10964170558E+02  0.18389381319E+03 -0.17716287800E+03  0.25558527522E+03  0.00000000000E+00 0.  1.
         21    1    1    2  502  501 -0.31240773930E+02 -0.54472435219E+01  0.16466042741E+02  0.35732184110E+02  0.00000000000E+00 0.  1.
<scales pt_clust_4="550.00000" pt_clust_5="550.00000" pt_clust_6="31.71212"></scales>
<mgrwt>
<rscale>  0 0.30000000E+03</rscale>
<asrwt>  1 0.31712118E+02</asrwt>
<pdfrwt beam="1">  1        1 0.86141302E+00 0.30000000E+03</pdfrwt>
<pdfrwt beam="2">0</pdfrwt>
<totfact> 0.31824043E-04</totfact>
</mgrwt>
<clustering>
<clus scale="   31.712">  1  6  2 -1</clus>
<clus scale="  471.954">  4  5 -1 -1</clus>
<clus scale="  300.000">  1  4  2 -1</clus>
</clustering>
</event>
<event>
 6    1  0.9254630E-012  0.3000000E+03  0.7818608E-02  0.1093470E+00
          1   -1    0    0  502    0  0.00000000000E+00  0.00000000000E+00  0.22335298239E+03  0.22335298239E+03  0.00000000000E+00 0.  1.
         13   -1    0    0    0    0 -0.00000000000E+00 -0.00000000000E+00 -0.27500000000E+03  0.27500000000E+03  0.00000000000E+00 0.  1.
    9000005    2    1    2  501    0 -0.25923973072E+02  0.15181514910E+02 -0.47559241055E+02  0.46803400002E+03  0.46464116584E+03 0.  0.
         13    1    3    3    0    0  0.10783262276E+03  0.20559575028E+03 -0.37072879925E+02  0.23509973520E+03  0.00000000000E+00 0.  1.
          1    1    3    3  501    0 -0.13375659583E+03 -0.19041423537E+03 -0.10486361129E+02  0.23293426483E+03  0.00000000000E+00 0.  1.
         21    1    1    2  502  501  0.25923973072E+02 -0.15181514910E+02 -0.40877765508E+01  0.30318982369E+02  0.00000000000E+00 0.  1.
<scales pt_clust_4="550.00000" pt_clust_5="550.00000" pt_clust_6="30.04216"></scales>
<mgrwt>
<rscale>  0 0.30000000E+03</rscale>
<asrwt>  1 0.30042165E+02</asrwt>
<pdfrwt beam="1">  1        1 0.81219266E+00 0.30000000E+03</pdfrwt>
<pdfrwt beam="2">0</pdfrwt>
<totfact> 0.86290257E-04</totfact>
</mgrwt>
<clustering>
<clus scale="   30.042">  1  6  2 -1</clus>
<clus scale="  464.641">  4  5 -1 -1</clus>
<clus scale="  300.000">  1  4  2 -1</clus>
</clustering>
</event>
<event>
 6    1  0.9254630E-012  0.3000000E+03  0.7818608E-02  0.1093470E+00
          1   -1    0    0  502    0  0.00000000000E+00  0.00000000000E+00  0.22073176830E+03  0.22073176830E+03  0.00000000000E+00 0.  1.
         13   -1    0    0    0    0 -0.00000000000E+00 -0.00000000000E+00 -0.27500000000E+03  0.27500000000E+03  0.00000000000E+00 0.  1.
    9000005    2    1    2  501    0  0.30260076875E+02  0.43776950649E+01 -0.46093972081E+02  0.46408283488E+03  0.46077476808E+03 0.  0.
         13    1    3    3    0    0  0.14684496299E+03 -0.18343582710E+03  0.12782543147E+02  0.23532007825E+03  0.00000000000E+00 0.  1.
          3    1    3    3  501    0 -0.11658488611E+03  0.18781352216E+03 -0.58876515227E+02  0.22876275663E+03  0.00000000000E+00 0.  1.
         21    1    1    2  502  501 -0.30260076875E+02 -0.43776950649E+01 -0.81742596154E+01  0.31648933423E+02  0.00000000000E+00 0. -1.
<scales pt_clust_4="550.00000" pt_clust_5="550.00000" pt_clust_6="30.57511"></scales>
<mgrwt>
<rscale>  0 0.30000000E+03</rscale>
<asrwt>  1 0.30575111E+02</asrwt>
<pdfrwt beam="1">  1        1 0.80266098E+00 0.30000000E+03</pdfrwt>
<pdfrwt beam="2">0</pdfrwt>
<totfact> 0.10175996E-03</totfact>
</mgrwt>
<clustering>
<clus scale="   30.575">  1  6  2 -1</clus>
<clus scale="  460.775">  4  5 -1 -1</clus>
<clus scale="  300.000">  1  4  2 -1</clus>
</clustering>
</event>
<event>
 6    1  0.9254630E-012  0.3000000E+03  0.7818608E-02  0.1093470E+00
          1   -1    0    0  502    0  0.00000000000E+00  0.00000000000E+00  0.25255296163E+03  0.25255296163E+03  0.00000000000E+00 0.  1.
         13   -1    0    0    0    0 -0.00000000000E+00 -0.00000000000E+00 -0.27500000000E+03  0.27500000000E+03  0.00000000000E+00 0.  1.
    9000005    2    1    2  501    0  0.36965109634E+02  0.28952049981E+02 -0.52012872409E+02  0.47206621483E+03  0.46683672923E+03 0.  0.
         13    1    3    3    0    0 -0.58170433430E+02  0.12813144749E+02 -0.24722915572E+03  0.25430342396E+03  0.00000000000E+00 0.  1.
          1    1    3    3  501    0  0.95135543064E+02  0.16138905232E+02  0.19521628331E+03  0.21776279086E+03  0.00000000000E+00 0.  1.
         21    1    1    2  502  501 -0.36965109634E+02 -0.28952049981E+02  0.29565834039E+02  0.55486746803E+02  0.00000000000E+00 0.  1.
<scales pt_clust_4="550.00000" pt_clust_5="550.00000" pt_clust_6="46.95360"></scales>
<mgrwt>
<rscale>  0 0.30000000E+03</rscale>
<asrwt>  1 0.46953600E+02</asrwt>
<pdfrwt beam="1">  1        1 0.91837441E+00 0.30000000E+03</pdfrwt>
<pdfrwt beam="2">0</pdfrwt>
<totfact> 0.43016453E-05</totfact>
</mgrwt>
<clustering>
<clus scale="   46.954">  1  6  2 -1</clus>
<clus scale="  466.837">  4  5 -1 -1</clus>
<clus scale="  300.000">  1  4  2 -1</clus>
</clustering>
</event>
<event>
 6    1  0.9254630E-012  0.3000000E+03  0.7818608E-02  0.1093470E+00
          1   -1    0    0  502    0  0.00000000000E+00  0.00000000000E+00  0.24344156762E+03  0.24344156762E+03  0.00000000000E+00 0.  1.
         13   -1    0    0    0    0 -0.00000000000E+00 -0.00000000000E+00 -0.27500000000E+03  0.27500000000E+03  0.00000000000E+00 0.  1.
    9000005    2    1    2  501    0  0.22441812410E+02 -0.28514215893E+02 -0.33423370943E+02  0.48210737645E+03  0.47957658955E+03 0.  0.
         13    1    3    3    0    0 -0.15109988819E+02  0.21757111691E+03  0.41781859310E+02  0.22206131235E+03  0.00000000000E+00 0.  1.
          1    1    3    3  501    0  0.37551801229E+02 -0.24608533280E+03 -0.75205230253E+02  0.26004606410E+03  0.00000000000E+00 0.  1.
         21    1    1    2  502  501 -0.22441812410E+02  0.28514215893E+02  0.18649385598E+01  0.36334191171E+02  0.00000000000E+00 0.  1.
<scales pt_clust_4="550.00000" pt_clust_5="550.00000" pt_clust_6="36.28630"></scales>
<mgrwt>
<rscale>  0 0.30000000E+03</rscale>
<asrwt>  1 0.36286298E+02</asrwt>
<pdfrwt beam="1">  1        1 0.88524206E+00 0.30000000E+03</pdfrwt>
<pdfrwt beam="2">0</pdfrwt>
<totfact> 0.16728633E-04</totfact>
</mgrwt>
<clustering>
<clus scale="   36.286">  1  6  2 -1</clus>
<clus scale="  479.577">  4  5 -1 -1</clus>
<clus scale="  300.000">  1  4  2 -1</clus>
</clustering>
</event>
<event>
 6    1  0.9254630E-012  0.3000000E+03  0.7818608E-02  0.1093470E+00
          1   -1    0    0  502    0  0.00000000000E+00  0.00000000000E+00  0.22455335131E+03  0.22455335131E+03  0.00000000000E+00 0.  1.
         13   -1    0    0    0    0 -0.00000000000E+00 -0.00000000000E+00 -0.27500000000E+03  0.27500000000E+03  0.00000000000E+00 0.  1.
    9000005    2    1    2  501    0  0.32557341616E+02 -0.13274299545E+02 -0.47769821750E+02  0.46429214141E+03  0.46048783826E+03 0.  0.
         13    1    3    3    0    0  0.18044474186E+03 -0.15003619885E+03 -0.10170721044E+03  0.25576458411E+03  0.00000000000E+00 0.  1.
          1    1    3    3  501    0 -0.14788740024E+03  0.13676189931E+03  0.53937388695E+02  0.20852755730E+03  0.00000000000E+00 0.  1.
         21    1    1    2  502  501 -0.32557341616E+02  0.13274299545E+02 -0.26768269362E+01  0.35261209905E+02  0.00000000000E+00 0.  1.
<scales pt_clust_4="550.00000" pt_clust_5="550.00000" pt_clust_6="35.15946"></scales>
<mgrwt>
<rscale>  0 0.30000000E+03</rscale>
<asrwt>  1 0.35159458E+02</asrwt>
<pdfrwt beam="1">  1        1 0.81655764E+00 0.30000000E+03</pdfrwt>
<pdfrwt beam="2">0</pdfrwt>
<totfact> 0.77248527E-04</totfact>
</mgrwt>
<clustering>
<clus scale="   35.159">  1  6  2 -1</clus>
<clus scale="  460.488">  4  5 -1 -1</clus>
<clus scale="  300.000">  1  4  2 -1</clus>
</clustering>
</event>
<event>
 6    1  0.9254630E-012  0.3000000E+03  0.7818608E-02  0.1093470E+00
          1   -1    0    0  502    0  0.00000000000E+00  0.00000000000E+00  0.23174860347E+03  0.23174860347E+03  0.00000000000E+00 0.  1.
         13   -1    0    0    0    0 -0.00000000000E+00 -0.00000000000E+00 -0.27500000000E+03  0.27500000000E+03  0.00000000000E+00 0.  1.
    9000005    2    1    2  501    0  0.20158032176E+02  0.36117125075E+02 -0.55677425366E+02  0.46356065171E+03  0.45834234927E+03 0.  0.
         13    1    3    3    0    0  0.12162594425E+03 -0.26044803100E+02  0.16869122797E+03  0.20958991502E+03  0.00000000000E+00 0.  1.
          3    1    3    3  501    0 -0.10146791207E+03  0.62161928175E+02 -0.22436865334E+03  0.25397073669E+03  0.00000000000E+00 0.  1.
         21    1    1    2  502  501 -0.20158032176E+02 -0.36117125075E+02  0.12426028838E+02  0.43187951764E+02  0.00000000000E+00 0.  1.
<scales pt_clust_4="550.00000" pt_clust_5="550.00000" pt_clust_6="41.36173"></scales>
<mgrwt>
<rscale>  0 0.30000000E+03</rscale>
<asrwt>  1 0.41361733E+02</asrwt>
<pdfrwt beam="1">  1        1 0.84272219E+00 0.30000000E+03</pdfrwt>
<pdfrwt beam="2">0</pdfrwt>
<totfact> 0.45826418E-04</totfact>
</mgrwt>
<clustering>
<clus scale="   41.362">  1  6  2 -1</clus>
<clus scale="  458.342">  4  5 -1 -1</clus>
<clus scale="  300.000">  1  4  2 -1</clus>
</clustering>
</event>
<event>
 6    1  0.9254630E-012  0.3000000E+03  0.7818608E-02  0.1093470E+00
          1   -1    0    0  502    0  0.00000000000E+00  0.00000000000E+00  0.23031006871E+03  0.23031006871E+03  0.00000000000E+00 0.  1.
         13   -1    0    0    0    0 -0.00000000000E+00 -0.00000000000E+00 -0.27500000000E+03  0.27500000000E+03  0.00000000000E+00 0.  1.
    9000005    2    1    2  501    0  0.30979153572E+02  0.40432565521E+01 -0.40103288465E+02  0.47373328654E+03  0.47099776767E+03 0.  0.
         13    1    3    3    0    0 -0.16285630996E+03  0.11381838384E+03  0.87401535015E+02  0.21706181266E+03  0.00000000000E+00 0.  1.
          1    1    3    3  501    0  0.19383546353E+03 -0.10977512729E+03 -0.12750482348E+03  0.25667147388E+03  0.00000000000E+00 0.  1.
         21    1    1    2  502  501 -0.30979153572E+02 -0.40432565521E+01 -0.45866428283E+01  0.31576782167E+02  0.00000000000E+00 0.  1.
<scales pt_clust_4="550.00000" pt_clust_5="550.00000" pt_clust_6="31.24191"></scales>
<mgrwt>
<rscale>  0 0.30000000E+03</rscale>
<asrwt>  1 0.31241909E+02</asrwt>
<pdfrwt beam="1">  1        1 0.83749116E+00 0.30000000E+03</pdfrwt>
<pdfrwt beam="2">0</pdfrwt>
<totfact> 0.53016133E-04</totfact>
</mgrwt>
<clustering>
<clus scale="   31.242">  1  6  2 -1</clus>
<clus scale="  470.998">  4  5 -1 -1</clus>
<clus scale="  300.000">  1  4  2 -1</clus>
</clustering>
</event>
<event>
 6    1  0.9254630E-012  0.3000000E+03  0.7818608E-02  0.1093470E+00
          1   -1    0    0  502    0  0.00000000000E+00  0.00000000000E+00  0.22651901585E+03  0.22651901585E+03  0.00000000000E+00 0.  1.
         13   -1    0    0    0    0 -0.00000000000E+00 -0.00000000000E+00 -0.27500000000E+03  0.27500000000E+03  0.00000000000E+00 0.  1.
    9000005    2    1    2  501    0  0.31418948765E+02 -0.96565162353E+01 -0.42421801168E+02  0.46809578522E+03  0.46500930774E+03 0.  0.
         13    1    3    3    0    0  0.22735164702E+03  0.72334719785E+02  0.36806240645E+02  0.24140377470E+03  0.00000000000E+00 0.  1.
          3    1    3    3  501    0 -0.19593269825E+03 -0.81991236020E+02 -0.79228041813E+02  0.22669201053E+03  0.00000000000E+00 0.  1.
         21    1    1    2  502  501 -0.31418948765E+02  0.96565162353E+01 -0.60591829801E+01  0.33423230629E+02  0.00000000000E+00 0. -1.
<scales pt_clust_4="550.00000" pt_clust_5="550.00000" pt_clust_6="32.86943"></scales>
<mgrwt>
<rscale>  0 0.30000000E+03</rscale>
<asrwt>  1 0.32869435E+02</asrwt>
<pdfrwt beam="1">  1        1 0.82370551E+00 0.30000000E+03</pdfrwt>
<pdfrwt beam="2">0</pdfrwt>
<totfact> 0.67877266E-04</totfact>
</mgrwt>
<clustering>
<clus scale="   32.869">  1  6  2 -1</clus>
<clus scale="  465.009">  4  5 -1 -1</clus>
<clus scale="  300.000">  1  4  2 -1</clus>
</clustering>
</event>
<event>
 6    1  0.9254630E-012  0.3000000E+03  0.7818608E-02  0.1093470E+00
          1   -1    0    0  502    0  0.00000000000E+00  0.00000000000E+00  0.23622921864E+03  0.23622921864E+03  0.00000000000E+00 0.  1.
         13   -1    0    0    0    0 -0.00000000000E+00 -0.00000000000E+00 -0.27500000000E+03  0.27500000000E+03  0.00000000000E+00 0.  1.
    9000005    2    1    2  501    0 -0.17247013846E+02 -0.35997251121E+02 -0.63248817984E+02  0.46440576456E+03  0.45834380066E+03 0.  0.
         13    1    3    3    0    0  0.37854687134E+02  0.73817987197E+02 -0.23728579554E+03  0.25136949166E+03  0.00000000000E+00 0.  1.
          1    1    3    3  501    0 -0.55101700980E+02 -0.10981523832E+03  0.17403697755E+03  0.21303627291E+03  0.00000000000E+00 0.  1.
         21    1    1    2  502  501  0.17247013846E+02  0.35997251121E+02  0.24478036622E+02  0.46823454077E+02  0.00000000000E+00 0.  1.
<scales pt_clust_4="550.00000" pt_clust_5="550.00000" pt_clust_6="39.91568"></scales>
<mgrwt>
<rscale>  0 0.30000000E+03</rscale>
<asrwt>  1 0.39915681E+02</asrwt>
<pdfrwt beam="1">  1        1 0.85901534E+00 0.30000000E+03</pdfrwt>
<pdfrwt beam="2">0</pdfrwt>
<totfact> 0.32339512E-04</totfact>
</mgrwt>
<clustering>
<clus scale="   39.916">  1  6  2 -1</clus>
<clus scale="  458.344">  4  5 -1 -1</clus>
<clus scale="  300.000">  1  4  2 -1</clus>
</clustering>
</event>
<event>
 6    1  0.9254630E-012  0.3000000E+03  0.7818608E-02  0.1093470E+00
          1   -1    0    0  502    0  0.00000000000E+00  0.00000000000E+00  0.22256422401E+03  0.22256422401E+03  0.00000000000E+00 0.  1.
         13   -1    0    0    0    0 -0.00000000000E+00 -0.00000000000E+00 -0.27500000000E+03  0.27500000000E+03  0.00000000000E+00 0.  1.
    9000005    2    1    2  501    0 -0.82147643411E+01 -0.29122330657E+02 -0.65057221136E+02  0.46477865746E+03  0.45920710569E+03 0.  0.
         13    1    3    3    0    0 -0.53234949936E+02  0.18011603555E+03 -0.14398850617E+03  0.23666101509E+03  0.00000000000E+00 0.  1.
          3    1    3    3  501    0  0.45020185595E+02 -0.20923836620E+03  0.78931285034E+02  0.22811764237E+03  0.00000000000E+00 0.  1.
         21    1    1    2  502  501  0.82147643411E+01  0.29122330657E+02  0.12621445143E+02  0.32785566543E+02  0.00000000000E+00 0.  1.
<scales pt_clust_4="550.00000" pt_clust_5="550.00000" pt_clust_6="30.25876"></scales>
<mgrwt>
<rscale>  0 0.30000000E+03</rscale>
<asrwt>  1 0.30258759E+02</asrwt>
<pdfrwt beam="1">  1        1 0.80932445E+00 0.30000000E+03</pdfrwt>
<pdfrwt beam="2">0</pdfrwt>
<totfact> 0.90747328E-04</totfact>
</mgrwt>
<clustering>
<clus scale="   30.259">  1  6  2 -1</clus>
<clus scale="  459.207">  4  5 -1 -1</clus>
<clus scale="  300.000">  1  4  2 -1</clus>
</clustering>
</event>
<event>
 6    1  0.9254630E-012  0.3000000E+03  0.7818608E-02  0.1093470E+00
          1   -1    0    0  502    0  0.00000000000E+00  0.00000000000E+00  0.23082663212E+03  0.23082663212E+03  0.00000000000E+00 0.  1.
         13   -1    0    0    0    0 -0.00000000000E+00 -0.00000000000E+00 -0.27500000000E+03  0.27500000000E+03  0.00000000000E+00 0.  1.
    9000005    2    1    2  501    0  0.25696050310E+02  0.18793402570E+02 -0.65015028253E+02  0.46777595816E+03  0.46214057835E+03 0.  0.
         13    1    3    3    0    0  0.37344528672E+02 -0.79635891899E+02 -0.24609676852E+03  0.26134289464E+03  0.00000000000E+00 0.  1.
          3    1    3    3  501    0 -0.11648478362E+02  0.98429294469E+02  0.18108174027E+03  0.20643306353E+03  0.00000000000E+00 0.  1.
         21    1    1    2  502  501 -0.25696050310E+02 -0.18793402570E+02  0.20841660377E+02  0.38050673962E+02  0.00000000000E+00 0.  1.
<scales pt_clust_4="550.00000" pt_clust_5="550.00000" pt_clust_6="31.83518"></scales>
<mgrwt>
<rscale>  0 0.30000000E+03</rscale>
<asrwt>  1 0.31835185E+02</asrwt>
<pdfrwt beam="1">  1        1 0.83936957E+00 0.30000000E+03</pdfrwt>
<pdfrwt beam="2">0</pdfrwt>
<totfact> 0.51162653E-04</totfact>
</mgrwt>
<clustering>
<clus scale="   31.835">  1  6  2 -1</clus>
<clus scale="  462.141">  4  5 -1 -1</clus>
<clus scale="  300.000">  1  4  2 -1</clus>
</clustering>
</event>
<event>
 6    1  0.9254630E-012  0.3000000E+03  0.7818608E-02  0.1093470E+00
          1   -1    0    0  502    0  0.00000000000E+00  0.00000000000E+00  0.24634634311E+03  0.24634634311E+03  0.00000000000E+00 0.  1.
         13   -1    0    0    0    0 -0.00000000000E+00 -0.00000000000E+00 -0.27500000000E+03  0.27500000000E+03  0.00000000000E+00 0.  1.
    9000005    2    1    2  501    0 -0.41589687792E+02  0.58827450559E+01 -0.51895215625E+02  0.47334135511E+03  0.46860923618E+03 0.  0.
         13    1    3    3    0    0  0.98939646326E+02 -0.19732859530E+03  0.65867424564E+00  0.22074433626E+03  0.00000000000E+00 0.  1.
          3    1    3    3  501    0 -0.14052933412E+03  0.20321134035E+03 -0.52553889871E+02  0.25259701886E+03  0.00000000000E+00 0.  1.
         21    1    1    2  502  501  0.41589687792E+02 -0.58827450559E+01  0.23241558736E+02  0.48004987997E+02  0.00000000000E+00 0.  1.
<scales pt_clust_4="550.00000" pt_clust_5="550.00000" pt_clust_6="42.00368"></scales>
<mgrwt>
<rscale>  0 0.30000000E+03</rscale>
<asrwt>  1 0.42003676E+02</asrwt>
<pdfrwt beam="1">  1        1 0.89580488E+00 0.30000000E+03</pdfrwt>
<pdfrwt beam="2">0</pdfrwt>
<totfact> 0.11943338E-04</totfact>
</mgrwt>
<clustering>
<clus scale="   42.004">  1  6  2 -1</clus>
<clus scale="  468.609">  4  5 -1 -1</clus>
<clus scale="  300.000">  1  4  2 -1</clus>
</clustering>
</event>
<event>
 6    1  0.9254630E-012  0.3000000E+03  0.7818608E-02  0.1093470E+00
          1   -1    0    0  502    0  0.00000000000E+00  0.00000000000E+00  0.23669086431E+03  0.23669086431E+03  0.00000000000E+00 0.  1.
         13   -1    0    0    0    0 -0.00000000000E+00 -0.00000000000E+00 -0.27500000000E+03  0.27500000000E+03  0.00000000000E+00 0.  1.
    9000005    2    1    2  501    0 -0.31260301158E+02 -0.70570121283E+01 -0.32607746423E+02  0.47914069244E+03  0.47695443198E+03 0.  0.
         13    1    3    3    0    0  0.17727334748E+03  0.13585723207E+03 -0.36483142199E+02  0.22630520740E+03  0.00000000000E+00 0.  1.
          3    1    3    3  501    0 -0.20853364863E+03 -0.14291424420E+03  0.38753957763E+01  0.25283548505E+03  0.00000000000E+00 0.  1.
         21    1    1    2  502  501  0.31260301158E+02  0.70570121283E+01 -0.57013892702E+01  0.32550171862E+02  0.00000000000E+00 0. -1.
<scales pt_clust_4="550.00000" pt_clust_5="550.00000" pt_clust_6="32.04698"></scales>
<mgrwt>
<rscale>  0 0.30000000E+03</rscale>
<asrwt>  1 0.32046979E+02</asrwt>
<pdfrwt beam="1">  1        1 0.86069405E+00 0.30000000E+03</pdfrwt>
<pdfrwt beam="2">0</pdfrwt>
<totfact> 0.32330902E-04</totfact>
</mgrwt>
<clustering>
<clus scale="   32.047">  1  6  2 -1</clus>
<clus scale="  476.954">  4  5 -1 -1</clus>
<clus scale="  300.000">  1  4  2 -1</clus>
</clustering>
</event>
<event>
 6    1  0.9254630E-012  0.3000000E+03  0.7818608E-02  0.1093470E+00
          1   -1    0    0  502    0  0.00000000000E+00  0.00000000000E+00  0.23757423347E+03  0.23757423347E+03  0.00000000000E+00 0.  1.
         13   -1    0    0    0    0 -0.00000000000E+00 -0.00000000000E+00 -0.27500000000E+03  0.27500000000E+03  0.00000000000E+00 0.  1.
    9000005    2    1    2  501    0 -0.17622344999E+02  0.33221620322E+02 -0.32208481627E+02  0.47460789098E+03  0.47201805134E+03 0.  0.
         13    1    3    3    0    0  0.41359706217E+02  0.24724427596E+03 -0.30369816121E+01  0.25069818617E+03  0.00000000000E+00 0.  1.
          1    1    3    3  501    0 -0.58982051216E+02 -0.21402265564E+03 -0.29171500015E+02  0.22390970480E+03  0.00000000000E+00 0.  1.
         21    1    1    2  502  501  0.17622344999E+02 -0.33221620322E+02 -0.52172849059E+01  0.37966342488E+02  0.00000000000E+00 0. -1.
<scales pt_clust_4="550.00000" pt_clust_5="550.00000" pt_clust_6="37.60618"></scales>
<mgrwt>
<rscale>  0 0.30000000E+03</rscale>
<asrwt>  1 0.37606177E+02</asrwt>
<pdfrwt beam="1">  1        1 0.86390630E+00 0.30000000E+03</pdfrwt>
<pdfrwt beam="2">0</pdfrwt>
<totfact> 0.28967929E-04</totfact>
</mgrwt>
<clustering>
<clus scale="   37.606">  1  6  2 -1</clus>
<clus scale="  472.018">  4  5 -1 -1</clus>
<clus scale="  300.000">  1  4  2 -1</clus>
</clustering>
</event>
<event>
 6    1  0.9254630E-012  0.3000000E+03  0.7818608E-02  0.1093470E+00
          1   -1    0    0  502    0  0.00000000000E+00  0.00000000000E+00  0.24087074723E+03  0.24087074723E+03  0.00000000000E+00 0.  1.
         13   -1    0    0    0    0 -0.00000000000E+00 -0.00000000000E+00 -0.27500000000E+03  0.27500000000E+03  0.00000000000E+00 0.  1.
    9000005    2    1    2  501    0 -0.82942963142E+01 -0.36778018912E+02 -0.52652980086E+02  0.47386424178E+03  0.46941832655E+03 0.  0.
         13    1    3    3    0    0 -0.39914648514E+02 -0.93547049819E+02  0.19386570720E+03  0.21892496916E+03  0.00000000000E+00 0.  1.
          1    1    3    3  501    0  0.31620352200E+02  0.56769030907E+02 -0.24651868728E+03  0.25493927262E+03  0.00000000000E+00 0.  1.
         21    1    1    2  502  501  0.82942963142E+01  0.36778018912E+02  0.18523727315E+02  0.42006505450E+02  0.00000000000E+00 0.  1.
<scales pt_clust_4="550.00000" pt_clust_5="550.00000" pt_clust_6="37.70170"></scales>
<mgrwt>
<rscale>  0 0.30000000E+03</rscale>
<asrwt>  1 0.37701698E+02</asrwt>
<pdfrwt beam="1">  1        1 0.87589363E+00 0.30000000E+03</pdfrwt>
<pdfrwt beam="2">0</pdfrwt>
<totfact> 0.21702010E-04</totfact>
</mgrwt>
<clustering>
<clus scale="   37.702">  1  6  2 -1</clus>
<clus scale="  469.418">  4  5 -1 -1</clus>
<clus scale="  300.000">  1  4  2 -1</clus>
</clustering>
</event>
<event>
 6    1  0.9254630E-012  0.3000000E+03  0.7818608E-02  0.1093470E+00
          1   -1    0    0  502    0  0.00000000000E+00  0.00000000000E+00  0.23851471645E+03  0.23851471645E+03  0.00000000000E+00 0.  1.
         13   -1    0    0    0    0 -0.00000000000E+00 -0.00000000000E+00 -0.27500000000E+03  0.27500000000E+03  0.00000000000E+00 0.  1.
    9000005    2    1    2  501    0 -0.26902381443E+02 -0.24054616179E+02 -0.69739397582E+02  0.46444131442E+03  0.45775516193E+03 0.  0.
         13    1    3    3    0    0  0.82252213289E+02  0.12537168319E+03 -0.19128113541E+03  0.24304723471E+03  0.00000000000E+00 0.  1.
          1    1    3    3  501    0 -0.10915459473E+03 -0.14942629937E+03  0.12154173783E+03  0.22139407971E+03  0.00000000000E+00 0.  1.
         21    1    1    2  502  501  0.26902381443E+02  0.24054616179E+02  0.33254114030E+02  0.49073402030E+02  0.00000000000E+00 0. -1.
<scales pt_clust_4="550.00000" pt_clust_5="550.00000" pt_clust_6="36.08826"></scales>
<mgrwt>
<rscale>  0 0.30000000E+03</rscale>
<asrwt>  1 0.36088262E+02</asrwt>
<pdfrwt beam="1">  1        1 0.86732624E+00 0.30000000E+03</pdfrwt>
<pdfrwt beam="2">0</pdfrwt>
<totfact> 0.26834366E-04</totfact>
</mgrwt>
<clustering>
<clus scale="   36.088">  1  6  2 -1</clus>
<clus scale="  457.755">  4  5 -1 -1</clus>
<clus scale="  300.000">  1  4  2 -1</clus>
</clustering>
</event>
<event>
 6    1  0.9254630E-012  0.3000000E+03  0.7818608E-02  0.1093470E+00
          1   -1    0    0  502    0  0.00000000000E+00  0.00000000000E+00  0.24461127390E+03  0.24461127390E+03  0.00000000000E+00 0.  1.
         13   -1    0    0    0    0 -0.00000000000E+00 -0.00000000000E+00 -0.27500000000E+03  0.27500000000E+03  0.00000000000E+00 0.  1.
    9000005    2    1    2  501    0  0.39159146101E+02  0.72705315422E+01 -0.13480786422E+02  0.47634260421E+03  0.47448313525E+03 0.  0.
         13    1    3    3    0    0  0.17783035798E+03  0.16132949494E+03  0.74161363025E+02  0.25129812957E+03  0.00000000000E+00 0.  1.
          1    1    3    3  501    0 -0.13867121188E+03 -0.15405896340E+03 -0.87642149447E+02  0.22504447465E+03  0.00000000000E+00 0.  1.
         21    1    1    2  502  501 -0.39159146101E+02 -0.72705315422E+01 -0.16907939678E+02  0.43268669686E+02  0.00000000000E+00 0. -1.
<scales pt_clust_4="550.00000" pt_clust_5="550.00000" pt_clust_6="39.82839"></scales>
<mgrwt>
<rscale>  0 0.30000000E+03</rscale>
<asrwt>  1 0.39828394E+02</asrwt>
<pdfrwt beam="1">  1        1 0.88949554E+00 0.30000000E+03</pdfrwt>
<pdfrwt beam="2">0</pdfrwt>
<totfact> 0.14375155E-04</totfact>
</mgrwt>
<clustering>
<clus scale="   39.828">  1  6  2 -1</clus>
<clus scale="  474.483">  4  5 -1 -1</clus>
<clus scale="  300.000">  1  4  2 -1</clus>
</clustering>
</event>
<event>
 6    1  0.9254630E-012  0.3000000E+03  0.7818608E-02  0.1093470E+00
          1   -1    0    0  502    0  0.00000000000E+00  0.00000000000E+00  0.24236218897E+03  0.24236218897E+03  0.00000000000E+00 0.  1.
         13   -1    0    0    0    0 -0.00000000000E+00 -0.00000000000E+00 -0.27500000000E+03  0.27500000000E+03  0.00000000000E+00 0.  1.
    9000005    2    1    2  501    0  0.99296153004E+01  0.38453316194E+02 -0.58533844184E+02  0.46995059419E+03  0.46459670175E+03 0.  0.
         13    1    3    3    0    0 -0.11208953434E+03 -0.18013868270E+03 -0.56664312053E+02  0.21960157780E+03  0.00000000000E+00 0.  1.
          1    1    3    3  501    0  0.12201914964E+03  0.21859199889E+03 -0.18695321306E+01  0.25034901639E+03  0.00000000000E+00 0.  1.
         21    1    1    2  502  501 -0.99296153004E+01 -0.38453316194E+02  0.25896033150E+02  0.47411594776E+02  0.00000000000E+00 0.  1.
<scales pt_clust_4="550.00000" pt_clust_5="550.00000" pt_clust_6="39.71467"></scales>
<mgrwt>
<rscale>  0 0.30000000E+03</rscale>
<asrwt>  1 0.39714667E+02</asrwt>
<pdfrwt beam="1">  1        1 0.88131705E+00 0.30000000E+03</pdfrwt>
<pdfrwt beam="2">0</pdfrwt>
<totfact> 0.18560728E-04</totfact>
</mgrwt>
<clustering>
<clus scale="   39.715">  1  6  2 -1</clus>
<clus scale="  464.597">  4  5 -1 -1</clus>
<clus scale="  300.000">  1  4  2 -1</clus>
</clustering>
</event>
<event>
 6    1  0.9254630E-012  0.3000000E+03  0.7818608E-02  0.1093470E+00
          1   -1    0    0  502    0  0.00000000000E+00  0.00000000000E+00  0.23210002780E+03  0.23210002780E+03  0.00000000000E+00 0.  1.
         13   -1    0    0    0    0 -0.00000000000E+00 -0.00000000000E+00 -0.27500000000E+03  0.27500000000E+03  0.00000000000E+00 0.  1.
    9000005    2    1    2  501    0 -0.42971661698E+02 -0.69745351633E+01 -0.49750328429E+02  0.46303036443E+03  0.45828682651E+03 0.  0.
         13    1    3    3    0    0  0.16806493467E+03  0.12658457078E+03 -0.15986550848E+02  0.21100958659E+03  0.00000000000E+00 0.  1.
          1    1    3    3  501    0 -0.21103659637E+03 -0.13355910594E+03 -0.33763777581E+02  0.25202077784E+03  0.00000000000E+00 0.  1.
         21    1    1    2  502  501  0.42971661698E+02  0.69745351633E+01  0.68503562335E+01  0.44069663379E+02  0.00000000000E+00 0. -1.
<scales pt_clust_4="550.00000" pt_clust_5="550.00000" pt_clust_6="43.53398"></scales>
<mgrwt>
<rscale>  0 0.30000000E+03</rscale>
<asrwt>  1 0.43533985E+02</asrwt>
<pdfrwt beam="1">  1        1 0.84400010E+00 0.30000000E+03</pdfrwt>
<pdfrwt beam="2">0</pdfrwt>
<totfact> 0.44285323E-04</totfact>
</mgrwt>
<clustering>
<clus scale="   43.534">  1  6  2 -1</clus>
<clus scale="  458.287">  4  5 -1 -1</clus>
<clus scale="  300.000">  1  4  2 -1</clus>
</clustering>
</event>
<event>
 6    1  0.9254630E-012  0.3000000E+03  0.7818608E-02  0.1093470E+00
          1   -1    0    0  502    0  0.00000000000E+00  0.00000000000E+00  0.23692022936E+03  0.23692022936E+03  0.00000000000E+00 0.  1.
         13   -1    0    0    0    0 -0.00000000000E+00 -0.00000000000E+00 -0.27500000000E+03  0.27500000000E+03  0.00000000000E+00 0.  1.
    9000005    2    1    2  501    0  0.30196109928E+02 -0.32710690968E+02 -0.31414066108E+02  0.46690660948E+03  0.46371666356E+03 0.  0.
         13    1    3    3    0    0 -0.20060097252E+03  0.44178713786E+02  0.48116256762E+02  0.21096844099E+03  0.00000000000E+00 0.  1.
          1    1    3    3  501    0  0.23079708245E+03 -0.76889404754E+02 -0.79530322871E+02  0.25593816849E+03  0.00000000000E+00 0.  1.
         21    1    1    2  502  501 -0.30196109928E+02  0.32710690968E+02 -0.66657045278E+01  0.45013619886E+02  0.00000000000E+00 0. -1.
<scales pt_clust_4="550.00000" pt_clust_5="550.00000" pt_clust_6="44.51737"></scales>
<mgrwt>
<rscale>  0 0.30000000E+03</rscale>
<asrwt>  1 0.44517371E+02</asrwt>
<pdfrwt beam="1">  1        1 0.86152811E+00 0.30000000E+03</pdfrwt>
<pdfrwt beam="2">0</pdfrwt>
<totfact> 0.29806882E-04</totfact>
</mgrwt>
<clustering>
<clus scale="   44.517">  1  6  2 -1</clus>
<clus scale="  463.717">  4  5 -1 -1</clus>
<clus scale="  300.000">  1  4  2 -1</clus>
</clustering>
</event>
<event>
 6    1  0.9254630E-012  0.3000000E+03  0.7818608E-02  0.1093470E+00
          1   -1    0    0  502    0  0.00000000000E+00  0.00000000000E+00  0.23621856316E+03  0.23621856316E+03  0.00000000000E+00 0.  1.
         13   -1    0    0    0    0 -0.00000000000E+00 -0.00000000000E+00 -0.27500000000E+03  0.27500000000E+03  0.00000000000E+00 0.  1.
    9000005    2    1    2  501    0 -0.43910370259E+01 -0.35026722164E+02 -0.19378234758E+02  0.47093659793E+03  0.46921169083E+03 0.  0.
         13    1    3    3    0    0 -0.13490681252E+03 -0.10461441813E+03  0.16305748904E+03  0.23607577020E+03  0.00000000000E+00 0.  1.
          3    1    3    3  501    0  0.13051577549E+03  0.69587695964E+02 -0.18243572380E+03  0.23486082773E+03  0.00000000000E+00 0.  1.
         21    1    1    2  502  501  0.43910370259E+01  0.35026722164E+02 -0.19403202083E+02  0.40281965230E+02  0.00000000000E+00 0.  1.
<scales pt_clust_4="550.00000" pt_clust_5="550.00000" pt_clust_6="35.30090"></scales>
<mgrwt>
<rscale>  0 0.30000000E+03</rscale>
<asrwt>  1 0.35300903E+02</asrwt>
<pdfrwt beam="1">  1        1 0.85897659E+00 0.30000000E+03</pdfrwt>
<pdfrwt beam="2">0</pdfrwt>
<totfact> 0.33112763E-04</totfact>
</mgrwt>
<clustering>
<clus scale="   35.301">  1  6  2 -1</clus>
<clus scale="  469.212">  4  5 -1 -1</clus>
<clus scale="  300.000">  1  4  2 -1</clus>
</clustering>
</event>
<event>
 6    1  0.9254630E-012  0.3000000E+03  0.7818608E-02  0.1093470E+00
          1   -1    0    0  502    0  0.00000000000E+00  0.00000000000E+00  0.25179132151E+03  0.25179132151E+03  0.00000000000E+00 0.  1.
         13   -1    0    0    0    0 -0.00000000000E+00 -0.00000000000E+00 -0.27500000000E+03  0.27500000000E+03  0.00000000000E+00 0.  1.
    9000005    2    1    2  501    0 -0.23059087882E+02  0.32618326885E+02 -0.33730494273E+02  0.48548290360E+03  0.48265953493E+03 0.  0.
         13    1    3    3    0    0 -0.61013442283E+02 -0.84122890290E+02  0.19779200110E+03  0.22343002598E+03  0.00000000000E+00 0.  1.
          1    1    3    3  501    0  0.37954354401E+02  0.11674121717E+03 -0.23152249537E+03  0.26205287762E+03  0.00000000000E+00 0.  1.
         21    1    1    2  502  501  0.23059087882E+02 -0.32618326885E+02  0.10521815784E+02  0.41308417908E+02  0.00000000000E+00 0. -1.
<scales pt_clust_4="550.00000" pt_clust_5="550.00000" pt_clust_6="39.94592"></scales>
<mgrwt>
<rscale>  0 0.30000000E+03</rscale>
<asrwt>  1 0.39945923E+02</asrwt>
<pdfrwt beam="1">  1        1 0.91560481E+00 0.30000000E+03</pdfrwt>
<pdfrwt beam="2">0</pdfrwt>
<totfact> 0.51163872E-05</totfact>
</mgrwt>
<clustering>
<clus scale="   39.946">  1  6  2 -1</clus>
<clus scale="  482.660">  4  5 -1 -1</clus>
<clus scale="  300.000">  1  4  2 -1</clus>
</clustering>
</event>
<event>
 6    1  0.9254630E-012  0.3000000E+03  0.7818608E-02  0.1093470E+00
          1   -1    0    0  502    0  0.00000000000E+00  0.00000000000E+00  0.24626681124E+03  0.24626681124E+03  0.00000000000E+00 0.  1.
         13   -1    0    0    0    0 -0.00000000000E+00 -0.00000000000E+00 -0.27500000000E+03  0.27500000000E+03  0.00000000000E+00 0.  1.
    9000005    2    1    2  501    0 -0.34877783353E+02 -0.13993663703E+02 -0.35292852650E+02  0.48311826493E+03  0.48035964658E+03 0.  0.
         13    1    3    3    0    0  0.12999796282E+03  0.16525549617E+02 -0.20579868889E+03  0.24397881973E+03  0.00000000000E+00 0.  1.
          3    1    3    3  501    0 -0.16487574617E+03 -0.30519213319E+02  0.17050583624E+03  0.23913944520E+03  0.00000000000E+00 0.  1.
         21    1    1    2  502  501  0.34877783353E+02  0.13993663703E+02  0.65596638889E+01  0.38148546313E+02  0.00000000000E+00 0.  1.
<scales pt_clust_4="550.00000" pt_clust_5="550.00000" pt_clust_6="37.58035"></scales>
<mgrwt>
<rscale>  0 0.30000000E+03</rscale>
<asrwt>  1 0.37580346E+02</asrwt>
<pdfrwt beam="1">  1        1 0.89551568E+00 0.30000000E+03</pdfrwt>
<pdfrwt beam="2">0</pdfrwt>
<totfact> 0.12279451E-04</totfact>
</mgrwt>
<clustering>
<clus scale="   37.580">  1  6  2 -1</clus>
<clus scale="  480.360">  4  5 -1 -1</clus>
<clus scale="  300.000">  1  4  2 -1</clus>
</clustering>
</event>
<event>
 6    1  0.9254630E-012  0.3000000E+03  0.7818608E-02  0.1093470E+00
          1   -1    0    0  502    0  0.00000000000E+00  0.00000000000E+00  0.23862212222E+03  0.23862212222E+03  0.00000000000E+00 0.  1.
         13   -1    0    0    0    0 -0.00000000000E+00 -0.00000000000E+00 -0.27500000000E+03  0.27500000000E+03  0.00000000000E+00 0.  1.
    9000005    2    1    2  501    0  0.43030530673E+02  0.10944372808E+02 -0.40869725078E+02  0.46899497176E+03  0.46509627309E+03 0.  0.
         13    1    3    3    0    0  0.24577731238E+03 -0.57109209785E+02 -0.37565309941E+02  0.25510605958E+03  0.00000000000E+00 0.  1.
          1    1    3    3  501    0 -0.20274678170E+03  0.68053582594E+02 -0.33044151374E+01  0.21388891218E+03  0.00000000000E+00 0.  1.
         21    1    1    2  502  501 -0.43030530673E+02 -0.10944372808E+02  0.44918472998E+01  0.44627150462E+02  0.00000000000E+00 0.  1.
<scales pt_clust_4="550.00000" pt_clust_5="550.00000" pt_clust_6="44.40052"></scales>
<mgrwt>
<rscale>  0 0.30000000E+03</rscale>
<asrwt>  1 0.44400517E+02</asrwt>
<pdfrwt beam="1">  1        1 0.86771681E+00 0.30000000E+03</pdfrwt>
<pdfrwt beam="2">0</pdfrwt>
<totfact> 0.25596657E-04</totfact>
</mgrwt>
<clustering>
<clus scale="   44.401">  1  6  2 -1</clus>
<clus scale="  465.096">  4  5 -1 -1</clus>
<clus scale="  300.000">  1  4  2 -1</clus>
</clustering>
</event>
<event>
 6    1  0.9254630E-012  0.3000000E+03  0.7818608E-02  0.1093470E+00
          1   -1    0    0  502    0  0.00000000000E+00  0.00000000000E+00  0.24003183857E+03  0.24003183857E+03  0.00000000000E+00 0.  1.
         13   -1    0    0    0    0 -0.00000000000E+00 -0.00000000000E+00 -0.27500000000E+03  0.27500000000E+03  0.00000000000E+00 0.  1.
    9000005    2    1    2  501    0  0.38127256539E+01  0.37904769890E+02 -0.45854277572E+02  0.47541093523E+03  0.47165838708E+03 0.  0.
         13    1    3    3    0    0  0.74287521548E+02  0.13518122100E+02 -0.24837358997E+03  0.25959741077E+03  0.00000000000E+00 0.  1.
          1    1    3    3  501    0 -0.70474795894E+02  0.24386647789E+02  0.20251931240E+03  0.21581352446E+03  0.00000000000E+00 0.  1.
         21    1    1    2  502  501 -0.38127256539E+01 -0.37904769890E+02  0.10886116145E+02  0.39620903347E+02  0.00000000000E+00 0. -1.
<scales pt_clust_4="550.00000" pt_clust_5="550.00000" pt_clust_6="38.09604"></scales>
<mgrwt>
<rscale>  0 0.30000000E+03</rscale>
<asrwt>  1 0.38096043E+02</asrwt>
<pdfrwt beam="1">  1        1 0.87284305E+00 0.30000000E+03</pdfrwt>
<pdfrwt beam="2">0</pdfrwt>
<totfact> 0.23316157E-04</totfact>
</mgrwt>
<clustering>
<clus scale="   38.096">  1  6  2 -1</clus>
<clus scale="  471.658">  4  5 -1 -1</clus>
<clus scale="  300.000">  1  4  2 -1</clus>
</clustering>
</event>
<event>
 6    1  0.9254630E-012  0.3000000E+03  0.7818608E-02  0.1093470E+00
          1   -1    0    0  502    0  0.00000000000E+00  0.00000000000E+00  0.23390178474E+03  0.23390178474E+03  0.00000000000E+00 0.  1.
         13   -1    0    0    0    0 -0.00000000000E+00 -0.00000000000E+00 -0.27500000000E+03  0.27500000000E+03  0.00000000000E+00 0.  1.
    9000005    2    1    2  501    0 -0.22669764476E+02  0.21562580412E+02 -0.59301073653E+02  0.47270500106E+03  0.46792578214E+03 0.  0.
         13    1    3    3    0    0 -0.97089274964E+02 -0.20679406370E+03 -0.37931183253E+02  0.23157911554E+03  0.00000000000E+00 0.  1.
          1    1    3    3  501    0  0.74419510488E+02  0.22835664411E+03 -0.21369890400E+02  0.24112588551E+03  0.00000000000E+00 0.  1.
         21    1    1    2  502  501  0.22669764476E+02 -0.21562580412E+02  0.18202858395E+02  0.36196783685E+02  0.00000000000E+00 0.  1.
<scales pt_clust_4="550.00000" pt_clust_5="550.00000" pt_clust_6="31.28679"></scales>
<mgrwt>
<rscale>  0 0.30000000E+03</rscale>
<asrwt>  1 0.31286788E+02</asrwt>
<pdfrwt beam="1">  1        1 0.85055194E+00 0.30000000E+03</pdfrwt>
<pdfrwt beam="2">0</pdfrwt>
<totfact> 0.41076270E-04</totfact>
</mgrwt>
<clustering>
<clus scale="   31.287">  1  6  2 -1</clus>
<clus scale="  467.926">  4  5 -1 -1</clus>
<clus scale="  300.000">  1  4  2 -1</clus>
</clustering>
</event>
<event>
 6    1  0.9254630E-012  0.3000000E+03  0.7818608E-02  0.1093470E+00
          1   -1    0    0  502    0  0.00000000000E+00  0.00000000000E+00  0.24324268516E+03  0.24324268516E+03  0.00000000000E+00 0.  1.
         13   -1    0    0    0    0 -0.00000000000E+00 -0.00000000000E+00 -0.27500000000E+03  0.27500000000E+03  0.00000000000E+00 0.  1.
    9000005    2    1    2  501    0 -0.32356097840E+02  0.15925645018E+02 -0.33688863938E+02  0.48212794968E+03  0.47959553488E+03 0.  0.
         13    1    3    3    0    0 -0.24696773049E+03 -0.20837125344E+02 -0.78195914875E+02  0.25988814286E+03  0.00000000000E+00 0.  1.
          3    1    3    3  501    0  0.21461163265E+03  0.36762770362E+02  0.44507050937E+02  0.22223980682E+03  0.00000000000E+00 0.  1.
         21    1    1    2  502  501  0.32356097840E+02 -0.15925645018E+02  0.19315490965E+01  0.36114735477E+02  0.00000000000E+00 0. -1.
<scales pt_clust_4="550.00000" pt_clust_5="550.00000" pt_clust_6="36.06305"></scales>
<mgrwt>
<rscale>  0 0.30000000E+03</rscale>
<asrwt>  1 0.36063045E+02</asrwt>
<pdfrwt beam="1">  1        1 0.88451886E+00 0.30000000E+03</pdfrwt>
<pdfrwt beam="2">0</pdfrwt>
<totfact> 0.17133787E-04</totfact>
</mgrwt>
<clustering>
<clus scale="   36.063">  1  6  2 -1</clus>
<clus scale="  479.596">  4  5 -1 -1</clus>
<clus scale="  300.000">  1  4  2 -1</clus>
</clustering>
</event>
<event>
 6    1  0.9254630E-012  0.3000000E+03  0.7818608E-02  0.1093470E+00
          1   -1    0    0  502    0  0.00000000000E+00  0.00000000000E+00  0.23728408996E+03  0.23728408996E+03  0.00000000000E+00 0.  1.
         13   -1    0    0    0    0 -0.00000000000E+00 -0.00000000000E+00 -0.27500000000E+03  0.27500000000E+03  0.00000000000E+00 0.  1.
    9000005    2    1    2  501    0  0.42576002253E+02  0.30475941695E+00 -0.57029489790E+02  0.46553130171E+03  0.46005893244E+03 0.  0.
         13    1    3    3    0    0 -0.13830716819E+03 -0.15724119226E+03  0.27475935031E+02  0.21120746275E+03  0.00000000000E+00 0.  1.
          3    1    3    3  501    0  0.18088317044E+03  0.15754595168E+03 -0.84505424821E+02  0.25432383896E+03  0.00000000000E+00 0.  1.
         21    1    1    2  502  501 -0.42576002253E+02 -0.30475941695E+00  0.19313579748E+02  0.46752788246E+02  0.00000000000E+00 0. -1.
<scales pt_clust_4="550.00000" pt_clust_5="550.00000" pt_clust_6="42.57709"></scales>
<mgrwt>
<rscale>  0 0.30000000E+03</rscale>
<asrwt>  1 0.42577093E+02</asrwt>
<pdfrwt beam="1">  1        1 0.86285124E+00 0.30000000E+03</pdfrwt>
<pdfrwt beam="2">0</pdfrwt>
<totfact> 0.29073490E-04</totfact>
</mgrwt>
<clustering>
<clus scale="   42.577">  1  6  2 -1</clus>
<clus scale="  460.059">  4  5 -1 -1</clus>
<clus scale="  300.000">  1  4  2 -1</clus>
</clustering>
</event>
<event>
 6    1  0.9254630E-012  0.3000000E+03  0.7818608E-02  0.1093470E+00
          1   -1    0    0  502    0  0.00000000000E+00  0.00000000000E+00  0.23227734937E+03  0.23227734937E+03  0.00000000000E+00 0.  1.
         13   -1    0    0    0    0 -0.00000000000E+00 -0.00000000000E+00 -0.27500000000E+03  0.27500000000E+03  0.00000000000E+00 0.  1.
    9000005    2    1    2  501    0  0.24334790285E+00  0.37915516374E+02 -0.37531999311E+02  0.46900740736E+03  0.46596314403E+03 0.  0.
         13    1    3    3    0    0  0.21900511483E+03 -0.11232648899E+02 -0.92738275255E+02  0.23809619992E+03  0.00000000000E+00 0.  1.
          1    1    3    3  501    0 -0.21876176692E+03  0.49148165273E+02  0.55206275944E+02  0.23091120744E+03  0.00000000000E+00 0.  1.
         21    1    1    2  502  501 -0.24334790285E+00 -0.37915516374E+02 -0.51906513183E+01  0.38269942007E+02  0.00000000000E+00 0.  1.
<scales pt_clust_4="550.00000" pt_clust_5="550.00000" pt_clust_6="37.91632"></scales>
<mgrwt>
<rscale>  0 0.30000000E+03</rscale>
<asrwt>  1 0.37916316E+02</asrwt>
<pdfrwt beam="1">  1        1 0.84464491E+00 0.30000000E+03</pdfrwt>
<pdfrwt beam="2">0</pdfrwt>
<totfact> 0.44834112E-04</totfact>
</mgrwt>
<clustering>
<clus scale="   37.916">  1  6  2 -1</clus>
<clus scale="  465.963">  4  5 -1 -1</clus>
<clus scale="  300.000">  1  4  2 -1</clus>
</clustering>
</event>
<event>
 6    1  0.9254630E-012  0.3000000E+03  0.7818608E-02  0.1093470E+00
          1   -1    0    0  502    0  0.00000000000E+00  0.00000000000E+00  0.25538424136E+03  0.25538424136E+03  0.00000000000E+00 0.  1.
         13   -1    0    0    0    0 -0.00000000000E+00 -0.00000000000E+00 -0.27500000000E+03  0.27500000000E+03  0.00000000000E+00 0.  1.
    9000005    2    1    2  501    0  0.29073793369E+02 -0.37480739869E+02  0.18966121375E+02  0.46923971759E+03  0.46645054131E+03 0.  0.
         13    1    3    3    0    0 -0.22913274272E+02 -0.23358861442E+03  0.94130842315E+02  0.25288193767E+03  0.00000000000E+00 0.  1.
          3    1    3    3  501    0  0.51987067641E+02  0.19610787455E+03 -0.75164720939E+02  0.21635777993E+03  0.00000000000E+00 0.  1.
         21    1    1    2  502  501 -0.29073793369E+02  0.37480739869E+02 -0.38581880011E+02  0.61144523771E+02  0.00000000000E+00 0.  1.
<scales pt_clust_4="550.00000" pt_clust_5="550.00000" pt_clust_6="47.43515"></scales>
<mgrwt>
<rscale>  0 0.30000000E+03</rscale>
<asrwt>  1 0.47435151E+02</asrwt>
<pdfrwt beam="1">  1        1 0.92866997E+00 0.30000000E+03</pdfrwt>
<pdfrwt beam="2">0</pdfrwt>
<totfact> 0.26199783E-05</totfact>
</mgrwt>
<clustering>
<clus scale="   47.435">  1  6  2 -1</clus>
<clus scale="  466.451">  4  5 -1 -1</clus>
<clus scale="  300.000">  1  4  2 -1</clus>
</clustering>
</event>
<event>
 6    1  0.9254630E-012  0.3000000E+03  0.7818608E-02  0.1093470E+00
          1   -1    0    0  502    0  0.00000000000E+00  0.00000000000E+00  0.24576869764E+03  0.24576869764E+03  0.00000000000E+00 0.  1.
         13   -1    0    0    0    0 -0.00000000000E+00 -0.00000000000E+00 -0.27500000000E+03  0.27500000000E+03  0.00000000000E+00 0.  1.
    9000005    2    1    2  501    0  0.32074413637E+02  0.63356847690E+01 -0.52004177979E+02  0.48092509369E+03  0.47698595609E+03 0.  0.
         13    1    3    3    0    0 -0.21659872040E+03 -0.15424202375E+02  0.27651210629E+02  0.21890066503E+03  0.00000000000E+00 0.  1.
          3    1    3    3  501    0  0.24867313404E+03  0.21759887144E+02 -0.79655388608E+02  0.26202442866E+03  0.00000000000E+00 0.  1.
         21    1    1    2  502  501 -0.32074413637E+02 -0.63356847690E+01  0.22772875619E+02  0.39843603948E+02  0.00000000000E+00 0. -1.
<scales pt_clust_4="550.00000" pt_clust_5="550.00000" pt_clust_6="32.69417"></scales>
<mgrwt>
<rscale>  0 0.30000000E+03</rscale>
<asrwt>  1 0.32694172E+02</asrwt>
<pdfrwt beam="1">  1        1 0.89370436E+00 0.30000000E+03</pdfrwt>
<pdfrwt beam="2">0</pdfrwt>
<totfact> 0.13212079E-04</totfact>
</mgrwt>
<clustering>
<clus scale="   32.694">  1  6  2 -1</clus>
<clus scale="  476.986">  4  5 -1 -1</clus>
<clus scale="  300.000">  1  4  2 -1</clus>
</clustering>
</event>
<event>
 6    1  0.9254630E-012  0.3000000E+03  0.7818608E-02  0.1093470E+00
          1   -1    0    0  502    0  0.00000000000E+00  0.00000000000E+00  0.23482821683E+03  0.23482821683E+03  0.00000000000E+00 0.  1.
         13   -1    0    0    0    0 -0.00000000000E+00 -0.00000000000E+00 -0.27500000000E+03  0.27500000000E+03  0.00000000000E+00 0.  1.
    9000005    2    1    2  501    0  0.72781971217E+01  0.40210660632E+02 -0.51088913297E+02  0.46753101702E+03  0.46293121026E+03 0.  0.
         13    1    3    3    0    0  0.11096773368E+03  0.90698789466E+02 -0.22026378419E+03  0.26278554555E+03  0.00000000000E+00 0.  1.
          3    1    3    3  501    0 -0.10368953656E+03 -0.50488128834E+02  0.16917487089E+03  0.20474547146E+03  0.00000000000E+00 0.  1.
         21    1    1    2  502  501 -0.72781971217E+01 -0.40210660632E+02  0.10917130130E+02  0.42297199814E+02  0.00000000000E+00 0.  1.
<scales pt_clust_4="550.00000" pt_clust_5="550.00000" pt_clust_6="40.86404"></scales>
<mgrwt>
<rscale>  0 0.30000000E+03</rscale>
<asrwt>  1 0.40864035E+02</asrwt>
<pdfrwt beam="1">  1        1 0.85392079E+00 0.30000000E+03</pdfrwt>
<pdfrwt beam="2">0</pdfrwt>
<totfact> 0.36281180E-04</totfact>
</mgrwt>
<clustering>
<clus scale="   40.864">  1  6  2 -1</clus>
<clus scale="  462.931">  4  5 -1 -1</clus>
<clus scale="  300.000">  1  4  2 -1</clus>
</clustering>
</event>
<event>
 6    1  0.9254630E-012  0.3000000E+03  0.7818608E-02  0.1093470E+00
          1   -1    0    0  502    0  0.00000000000E+00  0.00000000000E+00  0.22169498730E+03  0.22169498730E+03  0.00000000000E+00 0.  1.
         13   -1    0    0    0    0 -0.00000000000E+00 -0.00000000000E+00 -0.27500000000E+03  0.27500000000E+03  0.00000000000E+00 0.  1.
    9000005    2    1    2  501    0  0.20221635889E+02  0.22355940436E+02 -0.49103935449E+02  0.46625896127E+03  0.46268511955E+03 0.  0.
         13    1    3    3    0    0  0.73020153139E+02 -0.10475486177E+03  0.16688994084E+03  0.21013751731E+03  0.00000000000E+00 0.  1.
          1    1    3    3  501    0 -0.52798517250E+02  0.12711080220E+03 -0.21599387629E+03  0.25612144396E+03  0.00000000000E+00 0.  1.
         21    1    1    2  502  501 -0.20221635889E+02 -0.22355940436E+02 -0.42010772467E+01  0.30436026035E+02  0.00000000000E+00 0. -1.
<scales pt_clust_4="550.00000" pt_clust_5="550.00000" pt_clust_6="30.14471"></scales>
<mgrwt>
<rscale>  0 0.30000000E+03</rscale>
<asrwt>  1 0.30144710E+02</asrwt>
<pdfrwt beam="1">  1        1 0.80616359E+00 0.30000000E+03</pdfrwt>
<pdfrwt beam="2">0</pdfrwt>
<totfact> 0.96051236E-04</totfact>
</mgrwt>
<clustering>
<clus scale="   30.145">  1  6  2 -1</clus>
<clus scale="  462.685">  4  5 -1 -1</clus>
<clus scale="  300.000">  1  4  2 -1</clus>
</clustering>
</event>
<event>
 6    1  0.9254630E-012  0.3000000E+03  0.7818608E-02  0.1093470E+00
          1   -1    0    0  502    0  0.00000000000E+00  0.00000000000E+00  0.24824612320E+03  0.24824612320E+03  0.00000000000E+00 0.  1.
         13   -1    0    0    0    0 -0.00000000000E+00 -0.00000000000E+00 -0.27500000000E+03  0.27500000000E+03  0.00000000000E+00 0.  1.
    9000005    2    1    2  501    0 -0.90286215570E+01 -0.34675764397E+02 -0.45052597107E+02  0.48301220954E+03  0.47956973780E+03 0.  0.
         13    1    3    3    0    0 -0.11793697136E+03 -0.34758168772E+02 -0.23433631442E+03  0.26463327033E+03  0.00000000000E+00 0.  1.
          3    1    3    3  501    0  0.10890834981E+03  0.82404374623E-01  0.18928371731E+03  0.21837893920E+03  0.00000000000E+00 0.  1.
         21    1    1    2  502  501  0.90286215570E+01  0.34675764397E+02  0.18298720303E+02  0.40233913661E+02  0.00000000000E+00 0. -1.
<scales pt_clust_4="550.00000" pt_clust_5="550.00000" pt_clust_6="35.83189"></scales>
<mgrwt>
<rscale>  0 0.30000000E+03</rscale>
<asrwt>  1 0.35831894E+02</asrwt>
<pdfrwt beam="1">  1        1 0.90271318E+00 0.30000000E+03</pdfrwt>
<pdfrwt beam="2">0</pdfrwt>
<totfact> 0.10081988E-04</totfact>
</mgrwt>
<clustering>
<clus scale="   35.832">  1  6  2 -1</clus>
<clus scale="  479.570">  4  5 -1 -1</clus>
<clus scale="  300.000">  1  4  2 -1</clus>
</clustering>
</event>
<event>
 6    1  0.9254630E-012  0.3000000E+03  0.7818608E-02  0.1093470E+00
          1   -1    0    0  502    0  0.00000000000E+00  0.00000000000E+00  0.24121923484E+03  0.24121923484E+03  0.00000000000E+00 0.  1.
         13   -1    0    0    0    0 -0.00000000000E+00 -0.00000000000E+00 -0.27500000000E+03  0.27500000000E+03  0.00000000000E+00 0.  1.
    9000005    2    1    2  501    0 -0.35370340929E+02  0.86653300290E+01 -0.51240510413E+02  0.47583369700E+03  0.47166298173E+03 0.  0.
         13    1    3    3    0    0  0.17884094366E+03  0.78393090560E+02  0.84562738671E+02  0.21279195602E+03  0.00000000000E+00 0.  1.
          1    1    3    3  501    0 -0.21421128459E+03 -0.69727760531E+02 -0.13580324908E+03  0.26304174098E+03  0.00000000000E+00 0.  1.
         21    1    1    2  502  501  0.35370340929E+02 -0.86653300290E+01  0.17459745249E+02  0.40385537834E+02  0.00000000000E+00 0.  1.
<scales pt_clust_4="550.00000" pt_clust_5="550.00000" pt_clust_6="36.41633"></scales>
<mgrwt>
<rscale>  0 0.30000000E+03</rscale>
<asrwt>  1 0.36416328E+02</asrwt>
<pdfrwt beam="1">  1        1 0.87716085E+00 0.30000000E+03</pdfrwt>
<pdfrwt beam="2">0</pdfrwt>
<totfact> 0.21154066E-04</totfact>
</mgrwt>
<clustering>
<clus scale="   36.416">  1  6  2 -1</clus>
<clus scale="  471.663">  4  5 -1 -1</clus>
<clus scale="  300.000">  1  4  2 -1</clus>
</clustering>
</event>
<event>
 6    1  0.9254630E-012  0.3000000E+03  0.7818608E-02  0.1093470E+00
          1   -1    0    0  502    0  0.00000000000E+00  0.00000000000E+00  0.24481022931E+03  0.24481022931E+03  0.00000000000E+00 0.  1.
         13   -1    0    0    0    0 -0.00000000000E+00 -0.00000000000E+00 -0.27500000000E+03  0.27500000000E+03  0.00000000000E+00 0.  1.
    9000005    2    1    2  501    0  0.34863254712E+02  0.34822933657E+01 -0.34406100934E+02  0.48452070768E+03  0.48202589504E+03 0.  0.
         13    1    3    3    0    0  0.51942906774E+02  0.20738202112E+03 -0.13872077421E+03  0.25485058652E+03  0.00000000000E+00 0.  1.
          3    1    3    3  501    0 -0.17079652063E+02 -0.20389972776E+03  0.10431467328E+03  0.22967012116E+03  0.00000000000E+00 0.  1.
         21    1    1    2  502  501 -0.34863254712E+02 -0.34822933657E+01  0.42163302427E+01  0.35289521630E+02  0.00000000000E+00 0. -1.
<scales pt_clust_4="550.00000" pt_clust_5="550.00000" pt_clust_6="35.03674"></scales>
<mgrwt>
<rscale>  0 0.30000000E+03</rscale>
<asrwt>  1 0.35036736E+02</asrwt>
<pdfrwt beam="1">  1        1 0.89021902E+00 0.30000000E+03</pdfrwt>
<pdfrwt beam="2">0</pdfrwt>
<totfact> 0.14396152E-04</totfact>
</mgrwt>
<clustering>
<clus scale="   35.037">  1  6  2 -1</clus>
<clus scale="  482.026">  4  5 -1 -1</clus>
<clus scale="  300.000">  1  4  2 -1</clus>
</clustering>
</event>
<event>
 6    1  0.9254630E-012  0.3000000E+03  0.7818608E-02  0.1093470E+00
          1   -1    0    0  502    0  0.00000000000E+00  0.00000000000E+00  0.22961834802E+03  0.22961834802E+03  0.00000000000E+00 0.  1.
         13   -1    0    0    0    0 -0.00000000000E+00 -0.00000000000E+00 -0.27500000000E+03  0.27500000000E+03  0.00000000000E+00 0.  1.
    9000005    2    1    2  501    0 -0.88327171641E+01 -0.31292667165E+02 -0.70124426143E+02  0.46375941039E+03  0.45727246547E+03 0.  0.
         13    1    3    3    0    0 -0.59437808939E+02 -0.14010649789E+03  0.14959472870E+03  0.21340399888E+03  0.00000000000E+00 0.  1.
          3    1    3    3  501    0  0.50605091774E+02  0.10881383072E+03 -0.21971915484E+03  0.25035541151E+03  0.00000000000E+00 0.  1.
         21    1    1    2  502  501  0.88327171641E+01  0.31292667165E+02  0.24742774162E+02  0.40858937628E+02  0.00000000000E+00 0.  1.
<scales pt_clust_4="550.00000" pt_clust_5="550.00000" pt_clust_6="32.51535"></scales>
<mgrwt>
<rscale>  0 0.30000000E+03</rscale>
<asrwt>  1 0.32515349E+02</asrwt>
<pdfrwt beam="1">  1        1 0.83497581E+00 0.30000000E+03</pdfrwt>
<pdfrwt beam="2">0</pdfrwt>
<totfact> 0.54876674E-04</totfact>
</mgrwt>
<clustering>
<clus scale="   32.515">  1  6  2 -1</clus>
<clus scale="  457.272">  4  5 -1 -1</clus>
<clus scale="  300.000">  1  4  2 -1</clus>
</clustering>
</event>
<event>
 6    1  0.9254630E-012  0.3000000E+03  0.7818608E-02  0.1093470E+00
          1   -1    0    0  502    0  0.00000000000E+00  0.00000000000E+00  0.23954154381E+03  0.23954154381E+03  0.00000000000E+00 0.  1.
         13   -1    0    0    0    0 -0.00000000000E+00 -0.00000000000E+00 -0.27500000000E+03  0.27500000000E+03  0.00000000000E+00 0.  1.
    9000005    2    1    2  501    0 -0.34469386713E+02  0.96223653639E+01 -0.58648357691E+02  0.47189766890E+03  0.46686941592E+03 0.  0.
         13    1    3    3    0    0  0.18354733853E+02 -0.21971102359E+03  0.25547113774E+02  0.22195153787E+03  0.00000000000E+00 0.  1.
          3    1    3    3  501    0 -0.52824120565E+02  0.22933338895E+03 -0.84195471465E+02  0.24994613103E+03  0.00000000000E+00 0.  1.
         21    1    1    2  502  501  0.34469386713E+02 -0.96223653639E+01  0.23189901498E+02  0.42643874907E+02  0.00000000000E+00 0.  1.
<scales pt_clust_4="550.00000" pt_clust_5="550.00000" pt_clust_6="35.78727"></scales>
<mgrwt>
<rscale>  0 0.30000000E+03</rscale>
<asrwt>  1 0.35787268E+02</asrwt>
<pdfrwt beam="1">  1        1 0.87106016E+00 0.30000000E+03</pdfrwt>
<pdfrwt beam="2">0</pdfrwt>
<totfact> 0.24599268E-04</totfact>
</mgrwt>
<clustering>
<clus scale="   35.787">  1  6  2 -1</clus>
<clus scale="  466.869">  4  5 -1 -1</clus>
<clus scale="  300.000">  1  4  2 -1</clus>
</clustering>
</event>
<event>
 6    1  0.9254630E-012  0.3000000E+03  0.7818608E-02  0.1093470E+00
          1   -1    0    0  502    0  0.00000000000E+00  0.00000000000E+00  0.22440856683E+03  0.22440856683E+03  0.00000000000E+00 0.  1.
         13   -1    0    0    0    0 -0.00000000000E+00 -0.00000000000E+00 -0.27500000000E+03  0.27500000000E+03  0.00000000000E+00 0.  1.
    9000005    2    1    2  501    0  0.29363340675E+02  0.16675975960E+02 -0.46801970468E+02  0.46542836704E+03  0.46183638494E+03 0.  0.
         13    1    3    3    0    0  0.75707801489E+02 -0.44684732649E+02 -0.24101444226E+03  0.25654698968E+03  0.00000000000E+00 0.  1.
          3    1    3    3  501    0 -0.46344460814E+02  0.61360708609E+02  0.19421247179E+03  0.20888137736E+03  0.00000000000E+00 0.  1.
         21    1    1    2  502  501 -0.29363340675E+02 -0.16675975960E+02 -0.37894627052E+01  0.33980199785E+02  0.00000000000E+00 0.  1.
<scales pt_clust_4="550.00000" pt_clust_5="550.00000" pt_clust_6="33.76826"></scales>
<mgrwt>
<rscale>  0 0.30000000E+03</rscale>
<asrwt>  1 0.33768256E+02</asrwt>
<pdfrwt beam="1">  1        1 0.81603115E+00 0.30000000E+03</pdfrwt>
<pdfrwt beam="2">0</pdfrwt>
<totfact> 0.78611055E-04</totfact>
</mgrwt>
<clustering>
<clus scale="   33.768">  1  6  2 -1</clus>
<clus scale="  461.836">  4  5 -1 -1</clus>
<clus scale="  300.000">  1  4  2 -1</clus>
</clustering>
</event>
<event>
 6    1  0.9254630E-012  0.3000000E+03  0.7818608E-02  0.1093470E+00
          1   -1    0    0  502    0  0.00000000000E+00  0.00000000000E+00  0.22635022082E+03  0.22635022082E+03  0.00000000000E+00 0.  1.
         13   -1    0    0    0    0 -0.00000000000E+00 -0.00000000000E+00 -0.27500000000E+03  0.27500000000E+03  0.00000000000E+00 0.  1.
    9000005    2    1    2  501    0 -0.21438374904E+02  0.22267034122E+02 -0.55398943430E+02  0.46971201694E+03  0.46540832738E+03 0.  0.
         13    1    3    3    0    0  0.12399406986E+03  0.78315596648E+02 -0.20607212457E+03  0.25292999538E+03  0.00000000000E+00 0.  1.
          3    1    3    3  501    0 -0.14543244477E+03 -0.56048562526E+02  0.15067318114E+03  0.21678202155E+03  0.00000000000E+00 0.  1.
         21    1    1    2  502  501  0.21438374904E+02 -0.22267034122E+02  0.67491642530E+01  0.31638203887E+02  0.00000000000E+00 0.  1.
<scales pt_clust_4="550.00000" pt_clust_5="550.00000" pt_clust_6="30.90995"></scales>
<mgrwt>
<rscale>  0 0.30000000E+03</rscale>
<asrwt>  1 0.30909945E+02</asrwt>
<pdfrwt beam="1">  1        1 0.82309171E+00 0.30000000E+03</pdfrwt>
<pdfrwt beam="2">0</pdfrwt>
<totfact> 0.69547983E-04</totfact>
</mgrwt>
<clustering>
<clus scale="   30.910">  1  6  2 -1</clus>
<clus scale="  465.408">  4  5 -1 -1</clus>
<clus scale="  300.000">  1  4  2 -1</clus>
</clustering>
</event>
<event>
 6    1  0.9254630E-012  0.3000000E+03  0.7818608E-02  0.1093470E+00
          1   -1    0    0  502    0  0.00000000000E+00  0.00000000000E+00  0.22193983162E+03  0.22193983162E+03  0.00000000000E+00 0.  1.
         13   -1    0    0    0    0 -0.00000000000E+00 -0.00000000000E+00 -0.27500000000E+03  0.27500000000E+03  0.00000000000E+00 0.  1.
    9000005    2    1    2  501    0  0.26461459314E+02  0.18005863685E+02 -0.52950779990E+02  0.46493308355E+03  0.46079775078E+03 0.  0.
         13    1    3    3    0    0 -0.18579426917E+03  0.11321625310E+03 -0.77606894354E+02  0.23099839929E+03  0.00000000000E+00 0.  1.
          3    1    3    3  501    0  0.21225572849E+03 -0.95210389412E+02  0.24656114365E+02  0.23393468427E+03  0.00000000000E+00 0.  1.
         21    1    1    2  502  501 -0.26461459314E+02 -0.18005863685E+02 -0.10938838867E+00  0.32006748067E+02  0.00000000000E+00 0.  1.
<scales pt_clust_4="550.00000" pt_clust_5="550.00000" pt_clust_6="32.00656"></scales>
<mgrwt>
<rscale>  0 0.30000000E+03</rscale>
<asrwt>  1 0.32006561E+02</asrwt>
<pdfrwt beam="1">  1        1 0.80705393E+00 0.30000000E+03</pdfrwt>
<pdfrwt beam="2">0</pdfrwt>
<totfact> 0.93475982E-04</totfact>
</mgrwt>
<clustering>
<clus scale="   32.007">  1  6  2 -1</clus>
<clus scale="  460.798">  4  5 -1 -1</clus>
<clus scale="  300.000">  1  4  2 -1</clus>
</clustering>
</event>
<event>
 6    1  0.9254630E-012  0.3000000E+03  0.7818608E-02  0.1093470E+00
          1   -1    0    0  502    0  0.00000000000E+00  0.00000000000E+00  0.22446733216E+03  0.22446733216E+03  0.00000000000E+00 0.  1.
         13   -1    0    0    0    0 -0.00000000000E+00 -0.00000000000E+00 -0.27500000000E+03  0.27500000000E+03  0.00000000000E+00 0.  1.
    9000005    2    1    2  501    0 -0.25785440649E+02 -0.15475107043E+02 -0.37466956870E+02  0.46667890905E+03  0.46419937893E+03 0.  0.
         13    1    3    3    0    0 -0.68097480011E+02 -0.23337933292E+03 -0.15082085157E+02  0.24357883551E+03  0.00000000000E+00 0.  1.
          3    1    3    3  501    0  0.42312039362E+02  0.21790422587E+03 -0.22384871713E+02  0.22310007353E+03  0.00000000000E+00 0.  1.
         21    1    1    2  502  501  0.25785440649E+02  0.15475107043E+02 -0.13065710967E+02  0.32788423118E+02  0.00000000000E+00 0. -1.
<scales pt_clust_4="550.00000" pt_clust_5="550.00000" pt_clust_6="30.07273"></scales>
<mgrwt>
<rscale>  0 0.30000000E+03</rscale>
<asrwt>  1 0.30072725E+02</asrwt>
<pdfrwt beam="1">  1        1 0.81624484E+00 0.30000000E+03</pdfrwt>
<pdfrwt beam="2">0</pdfrwt>
<totfact> 0.80042737E-04</totfact>
</mgrwt>
<clustering>
<clus scale="   30.073">  1  6  2 -1</clus>
<clus scale="  464.199">  4  5 -1 -1</clus>
<clus scale="  300.000">  1  4  2 -1</clus>
</clustering>
</event>
<event>
 6    1  0.9254630E-012  0.3000000E+03  0.7818608E-02  0.1093470E+00
          1   -1    0    0  502    0  0.00000000000E+00  0.00000000000E+00  0.22715410370E+03  0.22715410370E+03  0.00000000000E+00 0.  1.
         13   -1    0    0    0    0 -0.00000000000E+00 -0.00000000000E+00 -0.27500000000E+03  0.27500000000E+03  0.00000000000E+00 0.  1.
    9000005    2    1    2  501    0 -0.28027173000E+02 -0.20315383826E+02 -0.43334106276E+02  0.46724574517E+03  0.46394235026E+03 0.  0.
         13    1    3    3    0    0 -0.86308521411E+02 -0.44723048318E+01  0.19928723270E+03  0.21722008078E+03  0.00000000000E+00 0.  1.
          3    1    3    3  501    0  0.58281348411E+02 -0.15843078994E+02 -0.24262133898E+03  0.25002566439E+03  0.00000000000E+00 0.  1.
         21    1    1    2  502  501  0.28027173000E+02  0.20315383826E+02 -0.45117900200E+01  0.34908358534E+02  0.00000000000E+00 0.  1.
<scales pt_clust_4="550.00000" pt_clust_5="550.00000" pt_clust_6="34.61558"></scales>
<mgrwt>
<rscale>  0 0.30000000E+03</rscale>
<asrwt>  1 0.34615581E+02</asrwt>
<pdfrwt beam="1">  1        1 0.82601492E+00 0.30000000E+03</pdfrwt>
<pdfrwt beam="2">0</pdfrwt>
<totfact> 0.64104439E-04</totfact>
</mgrwt>
<clustering>
<clus scale="   34.616">  1  6  2 -1</clus>
<clus scale="  463.942">  4  5 -1 -1</clus>
<clus scale="  300.000">  1  4  2 -1</clus>
</clustering>
</event>
<event>
 6    1  0.9254630E-012  0.3000000E+03  0.7818608E-02  0.1093470E+00
          1   -1    0    0  502    0  0.00000000000E+00  0.00000000000E+00  0.23391688255E+03  0.23391688255E+03  0.00000000000E+00 0.  1.
         13   -1    0    0    0    0 -0.00000000000E+00 -0.00000000000E+00 -0.27500000000E+03  0.27500000000E+03  0.00000000000E+00 0.  1.
    9000005    2    1    2  501    0  0.36270792903E+02 -0.20897008566E+02 -0.23018090490E+02  0.46332521024E+03  0.46085590218E+03 0.  0.
         13    1    3    3    0    0 -0.79617660048E+02 -0.18424121751E+02  0.19775315540E+03  0.21397366783E+03  0.00000000000E+00 0.  1.
          3    1    3    3  501    0  0.11588845295E+03 -0.24728868150E+01 -0.22077124589E+03  0.24935154242E+03  0.00000000000E+00 0.  1.
         21    1    1    2  502  501 -0.36270792903E+02  0.20897008566E+02 -0.18065026958E+02  0.45591672308E+02  0.00000000000E+00 0. -1.
<scales pt_clust_4="550.00000" pt_clust_5="550.00000" pt_clust_6="41.85997"></scales>
<mgrwt>
<rscale>  0 0.30000000E+03</rscale>
<asrwt>  1 0.41859971E+02</asrwt>
<pdfrwt beam="1">  1        1 0.85060685E+00 0.30000000E+03</pdfrwt>
<pdfrwt beam="2">0</pdfrwt>
<totfact> 0.38865707E-04</totfact>
</mgrwt>
<clustering>
<clus scale="   41.860">  1  6  2 -1</clus>
<clus scale="  460.856">  4  5 -1 -1</clus>
<clus scale="  300.000">  1  4  2 -1</clus>
</clustering>
</event>
<event>
 6    1  0.9254630E-012  0.3000000E+03  0.7818608E-02  0.1093470E+00
          1   -1    0    0  502    0  0.00000000000E+00  0.00000000000E+00  0.23923311008E+03  0.23923311008E+03  0.00000000000E+00 0.  1.
         13   -1    0    0    0    0 -0.00000000000E+00 -0.00000000000E+00 -0.27500000000E+03  0.27500000000E+03  0.00000000000E+00 0.  1.
    9000005    2    1    2  501    0 -0.24570349948E+02  0.28595335865E+02 -0.58684891456E+02  0.47011247858E+03  0.46490905638E+03 0.  0.
         13    1    3    3    0    0  0.49011102213E+02 -0.12379659570E+03  0.15056884367E+03  0.20099418382E+03  0.00000000000E+00 0.  1.
          3    1    3    3  501    0 -0.73581452161E+02  0.15239193156E+03 -0.20925373513E+03  0.26911829476E+03  0.00000000000E+00 0.  1.
         21    1    1    2  502  501  0.24570349948E+02 -0.28595335865E+02  0.22918001538E+02  0.44120631504E+02  0.00000000000E+00 0.  1.
<scales pt_clust_4="550.00000" pt_clust_5="550.00000" pt_clust_6="37.70140"></scales>
<mgrwt>
<rscale>  0 0.30000000E+03</rscale>
<asrwt>  1 0.37701397E+02</asrwt>
<pdfrwt beam="1">  1        1 0.86993858E+00 0.30000000E+03</pdfrwt>
<pdfrwt beam="2">0</pdfrwt>
<totfact> 0.25013837E-04</totfact>
</mgrwt>
<clustering>
<clus scale="   37.701">  1  6  2 -1</clus>
<clus scale="  464.909">  4  5 -1 -1</clus>
<clus scale="  300.000">  1  4  2 -1</clus>
</clustering>
</event>
<event>
 6    1  0.9254630E-012  0.3000000E+03  0.7818608E-02  0.1093470E+00
          1   -1    0    0  502    0  0.00000000000E+00  0.00000000000E+00  0.23189673036E+03  0.23189673036E+03  0.00000000000E+00 0.  1.
         13   -1    0    0    0    0 -0.00000000000E+00 -0.00000000000E+00 -0.27500000000E+03  0.27500000000E+03  0.00000000000E+00 0.  1.
    9000005    2    1    2  501    0 -0.42586296872E+02  0.86641394175E+01 -0.22999441571E+02  0.45901328963E+03  0.45637217899E+03 0.  0.
         13    1    3    3    0    0  0.19729843450E+03  0.44310758611E+02  0.44963201918E+02  0.20715164762E+03  0.00000000000E+00 0.  1.
          3    1    3    3  501    0 -0.23988473137E+03 -0.35646619193E+02 -0.67962643489E+02  0.25186164201E+03  0.00000000000E+00 0.  1.
         21    1    1    2  502  501  0.42586296872E+02 -0.86641394175E+01 -0.20103828069E+02  0.47883440730E+02  0.00000000000E+00 0. -1.
<scales pt_clust_4="550.00000" pt_clust_5="550.00000" pt_clust_6="43.45874"></scales>
<mgrwt>
<rscale>  0 0.30000000E+03</rscale>
<asrwt>  1 0.43458738E+02</asrwt>
<pdfrwt beam="1">  1        1 0.84326084E+00 0.30000000E+03</pdfrwt>
<pdfrwt beam="2">0</pdfrwt>
<totfact> 0.44946860E-04</totfact>
</mgrwt>
<clustering>
<clus scale="   43.459">  1  6  2 -1</clus>
<clus scale="  456.372">  4  5 -1 -1</clus>
<clus scale="  300.000">  1  4  2 -1</clus>
</clustering>
</event>
<event>
 6    1  0.9254630E-012  0.3000000E+03  0.7818608E-02  0.1093470E+00
          1   -1    0    0  502    0  0.00000000000E+00  0.00000000000E+00  0.22463941924E+03  0.22463941924E+03  0.00000000000E+00 0.  1.
         13   -1    0    0    0    0 -0.00000000000E+00 -0.00000000000E+00 -0.27500000000E+03  0.27500000000E+03  0.00000000000E+00 0.  1.
    9000005    2    1    2  501    0 -0.34905970007E+02  0.57330748046E+01 -0.52981405170E+02  0.46416881720E+03  0.45977643119E+03 0.  0.
         13    1    3    3    0    0 -0.19633609712E+03 -0.51445291499E+02  0.10732208064E+03  0.22959205135E+03  0.00000000000E+00 0.  1.
          1    1    3    3  501    0  0.16143012711E+03  0.57178366303E+02 -0.16030348581E+03  0.23457676585E+03  0.00000000000E+00 0.  1.
         21    1    1    2  502  501  0.34905970007E+02 -0.57330748046E+01  0.26208244128E+01  0.35470602046E+02  0.00000000000E+00 0. -1.
<scales pt_clust_4="550.00000" pt_clust_5="550.00000" pt_clust_6="35.37365"></scales>
<mgrwt>
<rscale>  0 0.30000000E+03</rscale>
<asrwt>  1 0.35373647E+02</asrwt>
<pdfrwt beam="1">  1        1 0.81687062E+00 0.30000000E+03</pdfrwt>
<pdfrwt beam="2">0</pdfrwt>
<totfact> 0.76705824E-04</totfact>
</mgrwt>
<clustering>
<clus scale="   35.374">  1  6  2 -1</clus>
<clus scale="  459.776">  4  5 -1 -1</clus>
<clus scale="  300.000">  1  4  2 -1</clus>
</clustering>
</event>
<event>
 6    1  0.9254630E-012  0.3000000E+03  0.7818608E-02  0.1093470E+00
          1   -1    0    0  502    0  0.00000000000E+00  0.00000000000E+00  0.26299738309E+03  0.26299738309E+03  0.00000000000E+00 0.  1.
         13   -1    0    0    0    0 -0.00000000000E+00 -0.00000000000E+00 -0.27500000000E+03  0.27500000000E+03  0.00000000000E+00 0.  1.
    9000005    2    1    2  501    0  0.97056758540E+01 -0.36568869896E+02 -0.29504457375E+02  0.49631049296E+03  0.49398594112E+03 0.  0.
         13    1    3    3    0    0  0.67207470706E+02  0.19349432216E+03 -0.12578276656E+03  0.24037096578E+03  0.00000000000E+00 0.  1.
          1    1    3    3  501    0 -0.57501794852E+02 -0.23006319205E+03  0.96278309189E+02  0.25593952717E+03  0.00000000000E+00 0.  1.
         21    1    1    2  502  501 -0.97056758540E+01  0.36568869896E+02  0.17501840460E+02  0.41686890130E+02  0.00000000000E+00 0.  1.
<scales pt_clust_4="550.00000" pt_clust_5="550.00000" pt_clust_6="37.83494"></scales>
<mgrwt>
<rscale>  0 0.30000000E+03</rscale>
<asrwt>  1 0.37834936E+02</asrwt>
<pdfrwt beam="1">  1        1 0.95635412E+00 0.30000000E+03</pdfrwt>
<pdfrwt beam="2">0</pdfrwt>
<totfact> 0.89539782E-06</totfact>
</mgrwt>
<clustering>
<clus scale="   37.835">  1  6  2 -1</clus>
<clus scale="  493.986">  4  5 -1 -1</clus>
<clus scale="  300.000">  1  4  2 -1</clus>
</clustering>
</event>
<event>
 6    1  0.9254630E-012  0.3000000E+03  0.7818608E-02  0.1093470E+00
          1   -1    0    0  502    0  0.00000000000E+00  0.00000000000E+00  0.23955365690E+03  0.23955365690E+03  0.00000000000E+00 0.  1.
         13   -1    0    0    0    0 -0.00000000000E+00 -0.00000000000E+00 -0.27500000000E+03  0.27500000000E+03  0.00000000000E+00 0.  1.
    9000005    2    1    2  501    0  0.47340305899E+01  0.29981183618E+02 -0.64845310512E+02  0.47229751295E+03  0.46683909865E+03 0.  0.
         13    1    3    3    0    0 -0.20859394084E+03 -0.52891657722E+02 -0.10580861159E+03  0.23980079628E+03  0.00000000000E+00 0.  1.
          3    1    3    3  501    0  0.21332797143E+03  0.82872841340E+02  0.40963301079E+02  0.23249671667E+03  0.00000000000E+00 0.  1.
         21    1    1    2  502  501 -0.47340305899E+01 -0.29981183618E+02  0.29398967408E+02  0.42256143948E+02  0.00000000000E+00 0.  1.
<scales pt_clust_4="550.00000" pt_clust_5="550.00000" pt_clust_6="30.35263"></scales>
<mgrwt>
<rscale>  0 0.30000000E+03</rscale>
<asrwt>  1 0.30352634E+02</asrwt>
<pdfrwt beam="1">  1        1 0.87110421E+00 0.30000000E+03</pdfrwt>
<pdfrwt beam="2">0</pdfrwt>
<totfact> 0.25351530E-04</totfact>
</mgrwt>
<clustering>
<clus scale="   30.353">  1  6  2 -1</clus>
<clus scale="  466.839">  4  5 -1 -1</clus>
<clus scale="  300.000">  1  4  2 -1</clus>
</clustering>
</event>
<event>
 6    1  0.9254630E-012  0.3000000E+03  0.7818608E-02  0.1093470E+00
          1   -1    0    0  502    0  0.00000000000E+00  0.00000000000E+00  0.24909908110E+03  0.24909908110E+03  0.00000000000E+00 0.  1.
         13   -1    0    0    0    0 -0.00000000000E+00 -0.00000000000E+00 -0.27500000000E+03  0.27500000000E+03  0.00000000000E+00 0.  1.
    9000005    2    1    2  501    0  0.52398686323E+01  0.39458446735E+02 -0.59649969281E+02  0.47191264949E+03  0.46643220802E+03 0.  0.
         13    1    3    3    0    0  0.27897532059E+01  0.17117733519E+02  0.20528990763E+03  0.20602122633E+03  0.00000000000E+00 0.  1.
          1    1    3    3  501    0  0.24501154264E+01  0.22340713217E+02 -0.26493987691E+03  0.26589142316E+03  0.00000000000E+00 0.  1.
         21    1    1    2  502  501 -0.52398686323E+01 -0.39458446735E+02  0.33749050377E+02  0.52186431602E+02  0.00000000000E+00 0.  1.
<scales pt_clust_4="550.00000" pt_clust_5="550.00000" pt_clust_6="39.80484"></scales>
<mgrwt>
<rscale>  0 0.30000000E+03</rscale>
<asrwt>  1 0.39804839E+02</asrwt>
<pdfrwt beam="1">  1        1 0.90581484E+00 0.30000000E+03</pdfrwt>
<pdfrwt beam="2">0</pdfrwt>
<totfact> 0.87055786E-05</totfact>
</mgrwt>
<clustering>
<clus scale="   39.805">  1  6  2 -1</clus>
<clus scale="  466.432">  4  5 -1 -1</clus>
<clus scale="  300.000">  1  4  2 -1</clus>
</clustering>
</event>
<event>
 6    1  0.9254630E-012  0.3000000E+03  0.7818608E-02  0.1093470E+00
          1   -1    0    0  502    0  0.00000000000E+00  0.00000000000E+00  0.26883915750E+03  0.26883915750E+03  0.00000000000E+00 0.  1.
         13   -1    0    0    0    0 -0.00000000000E+00 -0.00000000000E+00 -0.27500000000E+03  0.27500000000E+03  0.00000000000E+00 0.  1.
    9000005    2    1    2  501    0 -0.28874307657E+02  0.10560832623E+02 -0.61351295982E+02  0.48066287252E+03  0.47573896064E+03 0.  0.
         13    1    3    3    0    0 -0.17648717718E+03  0.15046628515E+03  0.65465756993E+02  0.24098463024E+03  0.00000000000E+00 0.  1.
          3    1    3    3  501    0  0.14761286953E+03 -0.13990545252E+03 -0.12681705297E+03  0.23967824228E+03  0.00000000000E+00 0.  1.
         21    1    1    2  502  501  0.28874307657E+02 -0.10560832623E+02  0.55190453483E+02  0.63176284981E+02  0.00000000000E+00 0. -1.
<scales pt_clust_4="550.00000" pt_clust_5="550.00000" pt_clust_6="30.74503"></scales>
<mgrwt>
<rscale>  0 0.30000000E+03</rscale>
<asrwt>  1 0.30745029E+02</asrwt>
<pdfrwt beam="1">  1        1 0.97759694E+00 0.30000000E+03</pdfrwt>
<pdfrwt beam="2">0</pdfrwt>
<totfact> 0.35717576E-06</totfact>
</mgrwt>
<clustering>
<clus scale="   30.745">  1  6  2 -1</clus>
<clus scale="  475.739">  4  5 -1 -1</clus>
<clus scale="  300.000">  1  4  2 -1</clus>
</clustering>
</event>
<event>
 6    1  0.9254630E-012  0.3000000E+03  0.7818608E-02  0.1093470E+00
          1   -1    0    0  502    0  0.00000000000E+00  0.00000000000E+00  0.24585155480E+03  0.24585155480E+03  0.00000000000E+00 0.  1.
         13   -1    0    0    0    0 -0.00000000000E+00 -0.00000000000E+00 -0.27500000000E+03  0.27500000000E+03  0.00000000000E+00 0.  1.
    9000005    2    1    2  501    0 -0.29143608371E+02  0.14663112523E+02 -0.33958895250E+02  0.48787433224E+03  0.48559633516E+03 0.  0.
         13    1    3    3    0    0 -0.56569330986E+02  0.67506490505E+02 -0.24932828385E+03  0.26442732196E+03  0.00000000000E+00 0.  1.
          3    1    3    3  501    0  0.27425722615E+02 -0.52843377983E+02  0.21536938860E+03  0.22344701028E+03  0.00000000000E+00 0.  1.
         21    1    1    2  502  501  0.29143608371E+02 -0.14663112523E+02  0.48104500464E+01  0.32977222554E+02  0.00000000000E+00 0.  1.
<scales pt_clust_4="550.00000" pt_clust_5="550.00000" pt_clust_6="32.62448"></scales>
<mgrwt>
<rscale>  0 0.30000000E+03</rscale>
<asrwt>  1 0.32624481E+02</asrwt>
<pdfrwt beam="1">  1        1 0.89400565E+00 0.30000000E+03</pdfrwt>
<pdfrwt beam="2">0</pdfrwt>
<totfact> 0.13112552E-04</totfact>
</mgrwt>
<clustering>
<clus scale="   32.624">  1  6  2 -1</clus>
<clus scale="  485.596">  4  5 -1 -1</clus>
<clus scale="  300.000">  1  4  2 -1</clus>
</clustering>
</event>
<event>
 6    1  0.9254630E-012  0.3000000E+03  0.7818608E-02  0.1093470E+00
          1   -1    0    0  502    0  0.00000000000E+00  0.00000000000E+00  0.22162280776E+03  0.22162280776E+03  0.00000000000E+00 0.  1.
         13   -1    0    0    0    0 -0.00000000000E+00 -0.00000000000E+00 -0.27500000000E+03  0.27500000000E+03  0.00000000000E+00 0.  1.
    9000005    2    1    2  501    0 -0.49681375001E+01  0.30181623320E+02 -0.66513135635E+02  0.46333368363E+03  0.45751337947E+03 0.  0.
         13    1    3    3    0    0  0.21167072900E+03 -0.65406934770E+02 -0.38967768921E+02  0.22494677514E+03  0.00000000000E+00 0.  1.
          3    1    3    3  501    0 -0.21663886650E+03  0.95588558090E+02 -0.27545366714E+02  0.23838690849E+03  0.00000000000E+00 0.  1.
         21    1    1    2  502  501  0.49681375001E+01 -0.30181623320E+02  0.13135943395E+02  0.33289124130E+02  0.00000000000E+00 0.  1.
<scales pt_clust_4="550.00000" pt_clust_5="550.00000" pt_clust_6="30.58779"></scales>
<mgrwt>
<rscale>  0 0.30000000E+03</rscale>
<asrwt>  1 0.30587788E+02</asrwt>
<pdfrwt beam="1">  1        1 0.80590112E+00 0.30000000E+03</pdfrwt>
<pdfrwt beam="2">0</pdfrwt>
<totfact> 0.96225693E-04</totfact>
</mgrwt>
<clustering>
<clus scale="   30.588">  1  6  2 -1</clus>
<clus scale="  457.513">  4  5 -1 -1</clus>
<clus scale="  300.000">  1  4  2 -1</clus>
</clustering>
</event>
<event>
 6    1  0.9254630E-012  0.3000000E+03  0.7818608E-02  0.1093470E+00
          1   -1    0    0  502    0  0.00000000000E+00  0.00000000000E+00  0.24991100832E+03  0.24991100832E+03  0.00000000000E+00 0.  1.
         13   -1    0    0    0    0 -0.00000000000E+00 -0.00000000000E+00 -0.27500000000E+03  0.27500000000E+03  0.00000000000E+00 0.  1.
    9000005    2    1    2  501    0  0.12940002497E+02  0.55789016163E+02 -0.11178434368E+02  0.46597577613E+03  0.46230791531E+03 0.  0.
         13    1    3    3    0    0  0.11569898732E+03  0.19394505586E+03 -0.12639751446E+03  0.25879967547E+03  0.00000000000E+00 0.  1.
          1    1    3    3  501    0 -0.10275898482E+03 -0.13815603970E+03  0.11521908009E+03  0.20717610066E+03  0.00000000000E+00 0.  1.
         21    1    1    2  502  501 -0.12940002497E+02 -0.55789016163E+02 -0.13910557310E+02  0.58935232194E+02  0.00000000000E+00 0.  1.
<scales pt_clust_4="550.00000" pt_clust_5="550.00000" pt_clust_6="57.27007"></scales>
<mgrwt>
<rscale>  0 0.30000000E+03</rscale>
<asrwt>  1 0.57270073E+02</asrwt>
<pdfrwt beam="1">  1        1 0.90876730E+00 0.30000000E+03</pdfrwt>
<pdfrwt beam="2">0</pdfrwt>
<totfact> 0.70406110E-05</totfact>
</mgrwt>
<clustering>
<clus scale="   57.270">  1  6  2 -1</clus>
<clus scale="  462.308">  4  5 -1 -1</clus>
<clus scale="  300.000">  1  4  2 -1</clus>
</clustering>
</event>
<event>
 6    1  0.9254630E-012  0.3000000E+03  0.7818608E-02  0.1093470E+00
          1   -1    0    0  502    0  0.00000000000E+00  0.00000000000E+00  0.24079685694E+03  0.24079685694E+03  0.00000000000E+00 0.  1.
         13   -1    0    0    0    0 -0.00000000000E+00 -0.00000000000E+00 -0.27500000000E+03  0.27500000000E+03  0.00000000000E+00 0.  1.
    9000005    2    1    2  501    0 -0.12175002468E+02 -0.29511681294E+02 -0.22890926406E+02  0.48192745683E+03  0.48032375448E+03 0.  0.
         13    1    3    3    0    0 -0.11772872809E+03 -0.19133621665E+03  0.10728633048E+03  0.24895774325E+03  0.00000000000E+00 0.  1.
          3    1    3    3  501    0  0.10555372563E+03  0.16182453535E+03 -0.13017725688E+03  0.23296971358E+03  0.00000000000E+00 0.  1.
         21    1    1    2  502  501  0.12175002468E+02  0.29511681294E+02 -0.11312216655E+02  0.33869400106E+02  0.00000000000E+00 0.  1.
<scales pt_clust_4="550.00000" pt_clust_5="550.00000" pt_clust_6="31.92446"></scales>
<mgrwt>
<rscale>  0 0.30000000E+03</rscale>
<asrwt>  1 0.31924458E+02</asrwt>
<pdfrwt beam="1">  1        1 0.87562493E+00 0.30000000E+03</pdfrwt>
<pdfrwt beam="2">0</pdfrwt>
<totfact> 0.22538405E-04</totfact>
</mgrwt>
<clustering>
<clus scale="   31.924">  1  6  2 -1</clus>
<clus scale="  480.324">  4  5 -1 -1</clus>
<clus scale="  300.000">  1  4  2 -1</clus>
</clustering>
</event>
<event>
 6    1  0.9254630E-012  0.3000000E+03  0.7818608E-02  0.1093470E+00
          1   -1    0    0  502    0  0.00000000000E+00  0.00000000000E+00  0.24238847771E+03  0.24238847771E+03  0.00000000000E+00 0.  1.
         13   -1    0    0    0    0 -0.00000000000E+00 -0.00000000000E+00 -0.27500000000E+03  0.27500000000E+03  0.00000000000E+00 0.  1.
    9000005    2    1    2  501    0 -0.17537851147E+02  0.25453109847E+02 -0.66288977720E+02  0.47167624709E+03  0.46597083222E+03 0.  0.
         13    1    3    3    0    0  0.10072979946E+03 -0.87505630860E+02  0.14984344551E+03  0.20064093823E+03  0.00000000000E+00 0.  1.
          1    1    3    3  501    0 -0.11826765061E+03  0.11295874071E+03 -0.21613242323E+03  0.27103530887E+03  0.00000000000E+00 0.  1.
         21    1    1    2  502  501  0.17537851147E+02 -0.25453109847E+02  0.33677455432E+02  0.45712230619E+02  0.00000000000E+00 0.  1.
<scales pt_clust_4="550.00000" pt_clust_5="550.00000" pt_clust_6="30.91014"></scales>
<mgrwt>
<rscale>  0 0.30000000E+03</rscale>
<asrwt>  1 0.30910144E+02</asrwt>
<pdfrwt beam="1">  1        1 0.88141265E+00 0.30000000E+03</pdfrwt>
<pdfrwt beam="2">0</pdfrwt>
<totfact> 0.19396703E-04</totfact>
</mgrwt>
<clustering>
<clus scale="   30.910">  1  6  2 -1</clus>
<clus scale="  465.971">  4  5 -1 -1</clus>
<clus scale="  300.000">  1  4  2 -1</clus>
</clustering>
</event>
<event>
 6    1  0.9254630E-012  0.3000000E+03  0.7818608E-02  0.1093470E+00
          1   -1    0    0  502    0  0.00000000000E+00  0.00000000000E+00  0.22236495220E+03  0.22236495220E+03  0.00000000000E+00 0.  1.
         13   -1    0    0    0    0 -0.00000000000E+00 -0.00000000000E+00 -0.27500000000E+03  0.27500000000E+03  0.00000000000E+00 0.  1.
    9000005    2    1    2  501    0 -0.10459839046E+02  0.30234924835E+02 -0.42087495034E+02  0.46367801434E+03  0.46065430079E+03 0.  0.
         13    1    3    3    0    0 -0.14867063038E+03  0.17805316345E+03  0.56248966349E+02  0.23868353853E+03  0.00000000000E+00 0.  1.
          1    1    3    3  501    0  0.13821079133E+03 -0.14781823862E+03 -0.98336461383E+02  0.22499447581E+03  0.00000000000E+00 0.  1.
         21    1    1    2  502  501  0.10459839046E+02 -0.30234924835E+02 -0.10547552767E+02  0.33686937855E+02  0.00000000000E+00 0.  1.
<scales pt_clust_4="550.00000" pt_clust_5="550.00000" pt_clust_6="31.99312"></scales>
<mgrwt>
<rscale>  0 0.30000000E+03</rscale>
<asrwt>  1 0.31993123E+02</asrwt>
<pdfrwt beam="1">  1        1 0.80859983E+00 0.30000000E+03</pdfrwt>
<pdfrwt beam="2">0</pdfrwt>
<totfact> 0.90953827E-04</totfact>
</mgrwt>
<clustering>
<clus scale="   31.993">  1  6  2 -1</clus>
<clus scale="  460.654">  4  5 -1 -1</clus>
<clus scale="  300.000">  1  4  2 -1</clus>
</clustering>
</event>
<event>
 6    1  0.9254630E-012  0.3000000E+03  0.7818608E-02  0.1093470E+00
          1   -1    0    0  502    0  0.00000000000E+00  0.00000000000E+00  0.22532290501E+03  0.22532290501E+03  0.00000000000E+00 0.  1.
         13   -1    0    0    0    0 -0.00000000000E+00 -0.00000000000E+00 -0.27500000000E+03  0.27500000000E+03  0.00000000000E+00 0.  1.
    9000005    2    1    2  501    0  0.13215581595E+02  0.31154300036E+02 -0.66158790365E+02  0.46268132839E+03  0.45667470271E+03 0.  0.
         13    1    3    3    0    0 -0.14226387993E+03  0.18448864033E+03 -0.73196723071E+02  0.24419834195E+03  0.00000000000E+00 0.  1.
          1    1    3    3  501    0  0.15547946152E+03 -0.15333434029E+03  0.70379327068E+01  0.21848298644E+03  0.00000000000E+00 0.  1.
         21    1    1    2  502  501 -0.13215581595E+02 -0.31154300036E+02  0.16481695370E+02  0.37641576613E+02  0.00000000000E+00 0. -1.
<scales pt_clust_4="550.00000" pt_clust_5="550.00000" pt_clust_6="33.84142"></scales>
<mgrwt>
<rscale>  0 0.30000000E+03</rscale>
<asrwt>  1 0.33841424E+02</asrwt>
<pdfrwt beam="1">  1        1 0.81935602E+00 0.30000000E+03</pdfrwt>
<pdfrwt beam="2">0</pdfrwt>
<totfact> 0.73723248E-04</totfact>
</mgrwt>
<clustering>
<clus scale="   33.841">  1  6  2 -1</clus>
<clus scale="  456.675">  4  5 -1 -1</clus>
<clus scale="  300.000">  1  4  2 -1</clus>
</clustering>
</event>
<event>
 6    1  0.9254630E-012  0.3000000E+03  0.7818608E-02  0.1093470E+00
          1   -1    0    0  502    0  0.00000000000E+00  0.00000000000E+00  0.22617581616E+03  0.22617581616E+03  0.00000000000E+00 0.  1.
         13   -1    0    0    0    0 -0.00000000000E+00 -0.00000000000E+00 -0.27500000000E+03  0.27500000000E+03  0.00000000000E+00 0.  1.
    9000005    2    1    2  501    0  0.13136521297E+02 -0.27047696571E+02 -0.63243785877E+02  0.46782808753E+03  0.46255723640E+03 0.  0.
         13    1    3    3    0    0  0.54055658988E+02  0.21017459067E+03  0.67937423437E+01  0.21712099798E+03  0.00000000000E+00 0.  1.
          3    1    3    3  501    0 -0.40919137691E+02 -0.23722228724E+03 -0.70037528221E+02  0.25070708955E+03  0.00000000000E+00 0.  1.
         21    1    1    2  502  501 -0.13136521297E+02  0.27047696571E+02  0.14419602033E+02  0.33347728624E+02  0.00000000000E+00 0.  1.
<scales pt_clust_4="550.00000" pt_clust_5="550.00000" pt_clust_6="30.06902"></scales>
<mgrwt>
<rscale>  0 0.30000000E+03</rscale>
<asrwt>  1 0.30069022E+02</asrwt>
<pdfrwt beam="1">  1        1 0.82245751E+00 0.30000000E+03</pdfrwt>
<pdfrwt beam="2">0</pdfrwt>
<totfact> 0.70832357E-04</totfact>
</mgrwt>
<clustering>
<clus scale="   30.069">  1  6  2 -1</clus>
<clus scale="  462.557">  4  5 -1 -1</clus>
<clus scale="  300.000">  1  4  2 -1</clus>
</clustering>
</event>
<event>
 6    1  0.9254630E-012  0.3000000E+03  0.7818608E-02  0.1093470E+00
          1   -1    0    0  502    0  0.00000000000E+00  0.00000000000E+00  0.24588077709E+03  0.24588077709E+03  0.00000000000E+00 0.  1.
         13   -1    0    0    0    0 -0.00000000000E+00 -0.00000000000E+00 -0.27500000000E+03  0.27500000000E+03  0.00000000000E+00 0.  1.
    9000005    2    1    2  501    0 -0.20101562225E+02  0.33118590341E+02 -0.64626831937E+02  0.46832885868E+03  0.46222762643E+03 0.  0.
         13    1    3    3    0    0  0.47026465427E+02 -0.51509132189E+02  0.18425646146E+03  0.19701553934E+03  0.00000000000E+00 0.  1.
          3    1    3    3  501    0 -0.67128027652E+02  0.84627722530E+02 -0.24888329340E+03  0.27131331934E+03  0.00000000000E+00 0.  1.
         21    1    1    2  502  501  0.20101562225E+02 -0.33118590341E+02  0.35507609026E+02  0.52551918412E+02  0.00000000000E+00 0.  1.
<scales pt_clust_4="550.00000" pt_clust_5="550.00000" pt_clust_6="38.74163"></scales>
<mgrwt>
<rscale>  0 0.30000000E+03</rscale>
<asrwt>  1 0.38741629E+02</asrwt>
<pdfrwt beam="1">  1        1 0.89411192E+00 0.30000000E+03</pdfrwt>
<pdfrwt beam="2">0</pdfrwt>
<totfact> 0.12663482E-04</totfact>
</mgrwt>
<clustering>
<clus scale="   38.742">  1  6  2 -1</clus>
<clus scale="  462.228">  4  5 -1 -1</clus>
<clus scale="  300.000">  1  4  2 -1</clus>
</clustering>
</event>
<event>
 6    1  0.9254630E-012  0.3000000E+03  0.7818608E-02  0.1093470E+00
          1   -1    0    0  502    0  0.00000000000E+00  0.00000000000E+00  0.24608810192E+03  0.24608810192E+03  0.00000000000E+00 0.  1.
         13   -1    0    0    0    0 -0.00000000000E+00 -0.00000000000E+00 -0.27500000000E+03  0.27500000000E+03  0.00000000000E+00 0.  1.
    9000005    2    1    2  501    0  0.16168836064E+02  0.25311407672E+02 -0.64379915680E+02  0.47461145305E+03  0.46926448747E+03 0.  0.
         13    1    3    3    0    0  0.26821016788E+02 -0.13461294390E+03  0.15234477103E+03  0.20505838404E+03  0.00000000000E+00 0.  1.
          3    1    3    3  501    0 -0.10652180724E+02  0.15992435157E+03 -0.21672468671E+03  0.26955306900E+03  0.00000000000E+00 0.  1.
         21    1    1    2  502  501 -0.16168836064E+02 -0.25311407672E+02  0.35468017603E+02  0.46476648875E+02  0.00000000000E+00 0. -1.
<scales pt_clust_4="550.00000" pt_clust_5="550.00000" pt_clust_6="30.03496"></scales>
<mgrwt>
<rscale>  0 0.30000000E+03</rscale>
<asrwt>  1 0.30034957E+02</asrwt>
<pdfrwt beam="1">  1        1 0.89486583E+00 0.30000000E+03</pdfrwt>
<pdfrwt beam="2">0</pdfrwt>
<totfact> 0.13025766E-04</totfact>
</mgrwt>
<clustering>
<clus scale="   30.035">  1  6  2 -1</clus>
<clus scale="  469.264">  4  5 -1 -1</clus>
<clus scale="  300.000">  1  4  2 -1</clus>
</clustering>
</event>
<event>
 6    1  0.9254630E-012  0.3000000E+03  0.7818608E-02  0.1093470E+00
          1   -1    0    0  502    0  0.00000000000E+00  0.00000000000E+00  0.23940634091E+03  0.23940634091E+03  0.00000000000E+00 0.  1.
         13   -1    0    0    0    0 -0.00000000000E+00 -0.00000000000E+00 -0.27500000000E+03  0.27500000000E+03  0.00000000000E+00 0.  1.
    9000005    2    1    2  501    0  0.25963125935E+02 -0.23633458507E+02 -0.58440997841E+02  0.47251809486E+03  0.46757392514E+03 0.  0.
         13    1    3    3    0    0  0.10726949430E+03  0.14748748437E+03  0.11504975913E+03  0.21562873076E+03  0.00000000000E+00 0.  1.
          1    1    3    3  501    0 -0.81306368366E+02 -0.17112094288E+03 -0.17349075697E+03  0.25688936409E+03  0.00000000000E+00 0.  1.
         21    1    1    2  502  501 -0.25963125935E+02  0.23633458507E+02  0.22847338754E+02  0.41888246054E+02  0.00000000000E+00 0. -1.
<scales pt_clust_4="550.00000" pt_clust_5="550.00000" pt_clust_6="35.10875"></scales>
<mgrwt>
<rscale>  0 0.30000000E+03</rscale>
<asrwt>  1 0.35108749E+02</asrwt>
<pdfrwt beam="1">  1        1 0.87056851E+00 0.30000000E+03</pdfrwt>
<pdfrwt beam="2">0</pdfrwt>
<totfact> 0.24974174E-04</totfact>
</mgrwt>
<clustering>
<clus scale="   35.109">  1  6  2 -1</clus>
<clus scale="  467.574">  4  5 -1 -1</clus>
<clus scale="  300.000">  1  4  2 -1</clus>
</clustering>
</event>
<event>
 6    1  0.9254630E-012  0.3000000E+03  0.7818608E-02  0.1093470E+00
          1   -1    0    0  502    0  0.00000000000E+00  0.00000000000E+00  0.22949988332E+03  0.22949988332E+03  0.00000000000E+00 0.  1.
         13   -1    0    0    0    0 -0.00000000000E+00 -0.00000000000E+00 -0.27500000000E+03  0.27500000000E+03  0.00000000000E+00 0.  1.
    9000005    2    1    2  501    0  0.32128195007E+02  0.84239528609E+01 -0.48285194728E+02  0.47116910841E+03  0.46751009058E+03 0.  0.
         13    1    3    3    0    0 -0.13744595347E+03  0.17897883538E+03 -0.47740949099E+02  0.23065994853E+03  0.00000000000E+00 0.  1.
          1    1    3    3  501    0  0.16957414847E+03 -0.17055488252E+03 -0.54424562935E+00  0.24050915988E+03  0.00000000000E+00 0.  1.
         21    1    1    2  502  501 -0.32128195007E+02 -0.84239528609E+01  0.27850780466E+01  0.33330774908E+02  0.00000000000E+00 0. -1.
<scales pt_clust_4="550.00000" pt_clust_5="550.00000" pt_clust_6="33.21421"></scales>
<mgrwt>
<rscale>  0 0.30000000E+03</rscale>
<asrwt>  1 0.33214212E+02</asrwt>
<pdfrwt beam="1">  1        1 0.83454503E+00 0.30000000E+03</pdfrwt>
<pdfrwt beam="2">0</pdfrwt>
<totfact> 0.55054518E-04</totfact>
</mgrwt>
<clustering>
<clus scale="   33.214">  1  6  2 -1</clus>
<clus scale="  467.510">  4  5 -1 -1</clus>
<clus scale="  300.000">  1  4  2 -1</clus>
</clustering>
</event>
<event>
 6    1  0.9254630E-012  0.3000000E+03  0.7818608E-02  0.1093470E+00
          1   -1    0    0  502    0  0.00000000000E+00  0.00000000000E+00  0.23190731902E+03  0.23190731902E+03  0.00000000000E+00 0.  1.
         13   -1    0    0    0    0 -0.00000000000E+00 -0.00000000000E+00 -0.27500000000E+03  0.27500000000E+03  0.00000000000E+00 0.  1.
    9000005    2    1    2  501    0  0.35714364649E+02  0.29015438568E+02 -0.33351874853E+02  0.45987228079E+03  0.45634718753E+03 0.  0.
         13    1    3    3    0    0  0.24036427900E+03  0.64108882979E+02 -0.40857059144E+02  0.25209965248E+03  0.00000000000E+00 0.  1.
          3    1    3    3  501    0 -0.20464991435E+03 -0.35093444412E+02  0.75051842910E+01  0.20777262831E+03  0.00000000000E+00 0.  1.
         21    1    1    2  502  501 -0.35714364649E+02 -0.29015438568E+02 -0.97408061254E+01  0.47035038232E+02  0.00000000000E+00 0.  1.
<scales pt_clust_4="550.00000" pt_clust_5="550.00000" pt_clust_6="46.01536"></scales>
<mgrwt>
<rscale>  0 0.30000000E+03</rscale>
<asrwt>  1 0.46015363E+02</asrwt>
<pdfrwt beam="1">  1        1 0.84329934E+00 0.30000000E+03</pdfrwt>
<pdfrwt beam="2">0</pdfrwt>
<totfact> 0.44456115E-04</totfact>
</mgrwt>
<clustering>
<clus scale="   46.015">  1  6  2 -1</clus>
<clus scale="  456.347">  4  5 -1 -1</clus>
<clus scale="  300.000">  1  4  2 -1</clus>
</clustering>
</event>
<event>
 6    1  0.9254630E-012  0.3000000E+03  0.7818608E-02  0.1093470E+00
          1   -1    0    0  502    0  0.00000000000E+00  0.00000000000E+00  0.24070961602E+03  0.24070961602E+03  0.00000000000E+00 0.  1.
         13   -1    0    0    0    0 -0.00000000000E+00 -0.00000000000E+00 -0.27500000000E+03  0.27500000000E+03  0.00000000000E+00 0.  1.
    9000005    2    1    2  501    0 -0.32828618148E+02  0.79920973846E+01 -0.53813003839E+02  0.47668751361E+03  0.47243365086E+03 0.  0.
         13    1    3    3    0    0  0.17646910740E+02  0.19551979906E+03 -0.16187368298E+03  0.25444546474E+03  0.00000000000E+00 0.  1.
          1    1    3    3  501    0 -0.50475528887E+02 -0.18752770168E+03  0.10806067914E+03  0.22224204888E+03  0.00000000000E+00 0.  1.
         21    1    1    2  502  501  0.32828618148E+02 -0.79920973846E+01  0.19522619858E+02  0.39022102407E+02  0.00000000000E+00 0. -1.
<scales pt_clust_4="550.00000" pt_clust_5="550.00000" pt_clust_6="33.78745"></scales>
<mgrwt>
<rscale>  0 0.30000000E+03</rscale>
<asrwt>  1 0.33787450E+02</asrwt>
<pdfrwt beam="1">  1        1 0.87530769E+00 0.30000000E+03</pdfrwt>
<pdfrwt beam="2">0</pdfrwt>
<totfact> 0.22472435E-04</totfact>
</mgrwt>
<clustering>
<clus scale="   33.787">  1  6  2 -1</clus>
<clus scale="  472.434">  4  5 -1 -1</clus>
<clus scale="  300.000">  1  4  2 -1</clus>
</clustering>
</event>
<event>
 6    1  0.9254630E-012  0.3000000E+03  0.7818608E-02  0.1093470E+00
          1   -1    0    0  502    0  0.00000000000E+00  0.00000000000E+00  0.22864960746E+03  0.22864960746E+03  0.00000000000E+00 0.  1.
         13   -1    0    0    0    0 -0.00000000000E+00 -0.00000000000E+00 -0.27500000000E+03  0.27500000000E+03  0.00000000000E+00 0.  1.
    9000005    2    1    2  501    0  0.28527332894E+02  0.17237450424E+02 -0.67847615874E+02  0.46398767319E+03  0.45778851391E+03 0.  0.
         13    1    3    3    0    0  0.42838914933E+02 -0.22417440181E+02  0.19340416891E+03  0.19935618076E+03  0.00000000000E+00 0.  1.
          1    1    3    3  501    0 -0.14311582039E+02  0.39654890605E+02 -0.26125178478E+03  0.26463149242E+03  0.00000000000E+00 0.  1.
         21    1    1    2  502  501 -0.28527332894E+02 -0.17237450424E+02  0.21497223330E+02  0.39661934270E+02  0.00000000000E+00 0.  1.
<scales pt_clust_4="550.00000" pt_clust_5="550.00000" pt_clust_6="33.33074"></scales>
<mgrwt>
<rscale>  0 0.30000000E+03</rscale>
<asrwt>  1 0.33330743E+02</asrwt>
<pdfrwt beam="1">  1        1 0.83145312E+00 0.30000000E+03</pdfrwt>
<pdfrwt beam="2">0</pdfrwt>
<totfact> 0.58061264E-04</totfact>
</mgrwt>
<clustering>
<clus scale="   33.331">  1  6  2 -1</clus>
<clus scale="  457.789">  4  5 -1 -1</clus>
<clus scale="  300.000">  1  4  2 -1</clus>
</clustering>
</event>
<event>
 6    1  0.9254630E-012  0.3000000E+03  0.7818608E-02  0.1093470E+00
          1   -1    0    0  502    0  0.00000000000E+00  0.00000000000E+00  0.23635480776E+03  0.23635480776E+03  0.00000000000E+00 0.  1.
         13   -1    0    0    0    0 -0.00000000000E+00 -0.00000000000E+00 -0.27500000000E+03  0.27500000000E+03  0.00000000000E+00 0.  1.
    9000005    2    1    2  501    0  0.64149076014E+01  0.31026931290E+02 -0.51553017138E+02  0.47714320960E+03  0.47329072185E+03 0.  0.
         13    1    3    3    0    0 -0.11168757427E+03 -0.19189908903E+03 -0.27120778615E+02  0.22368484805E+03  0.00000000000E+00 0.  1.
          3    1    3    3  501    0  0.11810248187E+03  0.22292602032E+03 -0.24432238523E+02  0.25345836155E+03  0.00000000000E+00 0.  1.
         21    1    1    2  502  501 -0.64149076014E+01 -0.31026931290E+02  0.12907824897E+02  0.34211598156E+02  0.00000000000E+00 0.  1.
<scales pt_clust_4="550.00000" pt_clust_5="550.00000" pt_clust_6="31.68314"></scales>
<mgrwt>
<rscale>  0 0.30000000E+03</rscale>
<asrwt>  1 0.31683142E+02</asrwt>
<pdfrwt beam="1">  1        1 0.85947203E+00 0.30000000E+03</pdfrwt>
<pdfrwt beam="2">0</pdfrwt>
<totfact> 0.33389250E-04</totfact>
</mgrwt>
<clustering>
<clus scale="   31.683">  1  6  2 -1</clus>
<clus scale="  473.291">  4  5 -1 -1</clus>
<clus scale="  300.000">  1  4  2 -1</clus>
</clustering>
</event>
<event>
 6    1  0.9254630E-012  0.3000000E+03  0.7818608E-02  0.1093470E+00
          1   -1    0    0  502    0  0.00000000000E+00  0.00000000000E+00  0.24425718843E+03  0.24425718843E+03  0.00000000000E+00 0.  1.
         13   -1    0    0    0    0 -0.00000000000E+00 -0.00000000000E+00 -0.27500000000E+03  0.27500000000E+03  0.00000000000E+00 0.  1.
    9000005    2    1    2  501    0  0.12517106813E+02 -0.27448188389E+02 -0.78391447498E+01  0.48138029623E+03  0.48037012438E+03 0.  0.
         13    1    3    3    0    0  0.21703030751E+03  0.10134093793E+03 -0.89362970302E+01  0.23969146310E+03  0.00000000000E+00 0.  1.
          3    1    3    3  501    0 -0.20451320069E+03 -0.12878912632E+03  0.10971522804E+01  0.24168883313E+03  0.00000000000E+00 0.  1.
         21    1    1    2  502  501 -0.12517106813E+02  0.27448188389E+02 -0.22903666823E+02  0.37876892200E+02  0.00000000000E+00 0.  1.
<scales pt_clust_4="550.00000" pt_clust_5="550.00000" pt_clust_6="30.16756"></scales>
<mgrwt>
<rscale>  0 0.30000000E+03</rscale>
<asrwt>  1 0.30167564E+02</asrwt>
<pdfrwt beam="1">  1        1 0.88820796E+00 0.30000000E+03</pdfrwt>
<pdfrwt beam="2">0</pdfrwt>
<totfact> 0.15766564E-04</totfact>
</mgrwt>
<clustering>
<clus scale="   30.168">  1  6  2 -1</clus>
<clus scale="  480.370">  4  5 -1 -1</clus>
<clus scale="  300.000">  1  4  2 -1</clus>
</clustering>
</event>
<event>
 6    1  0.9254630E-012  0.3000000E+03  0.7818608E-02  0.1093470E+00
          1   -1    0    0  502    0  0.00000000000E+00  0.00000000000E+00  0.22279606670E+03  0.22279606670E+03  0.00000000000E+00 0.  1.
         13   -1    0    0    0    0 -0.00000000000E+00 -0.00000000000E+00 -0.27500000000E+03  0.27500000000E+03  0.00000000000E+00 0.  1.
    9000005    2    1    2  501    0 -0.21229842944E+02  0.21388718044E+02 -0.44651338869E+02  0.46672799349E+03  0.46360877294E+03 0.  0.
         13    1    3    3    0    0  0.13796573329E+03 -0.16531251881E+03  0.92511011490E+01  0.21551880501E+03  0.00000000000E+00 0.  1.
          1    1    3    3  501    0 -0.15919557623E+03  0.18670123686E+03 -0.53902440018E+02  0.25120918848E+03  0.00000000000E+00 0.  1.
         21    1    1    2  502  501  0.21229842944E+02 -0.21388718044E+02 -0.75525944269E+01  0.31068073219E+02  0.00000000000E+00 0.  1.
<scales pt_clust_4="550.00000" pt_clust_5="550.00000" pt_clust_6="30.13610"></scales>
<mgrwt>
<rscale>  0 0.30000000E+03</rscale>
<asrwt>  1 0.30136098E+02</asrwt>
<pdfrwt beam="1">  1        1 0.81016752E+00 0.30000000E+03</pdfrwt>
<pdfrwt beam="2">0</pdfrwt>
<totfact> 0.89455949E-04</totfact>
</mgrwt>
<clustering>
<clus scale="   30.136">  1  6  2 -1</clus>
<clus scale="  463.609">  4  5 -1 -1</clus>
<clus scale="  300.000">  1  4  2 -1</clus>
</clustering>
</event>
<event>
 6    1  0.9254630E-012  0.3000000E+03  0.7818608E-02  0.1093470E+00
          1   -1    0    0  502    0  0.00000000000E+00  0.00000000000E+00  0.23481450786E+03  0.23481450786E+03  0.00000000000E+00 0.  1.
         13   -1    0    0    0    0 -0.00000000000E+00 -0.00000000000E+00 -0.27500000000E+03  0.27500000000E+03  0.00000000000E+00 0.  1.
    9000005    2    1    2  501    0  0.28905320131E+02 -0.16165505635E+02 -0.31273929973E+02  0.47551790388E+03  0.47333114952E+03 0.  0.
         13    1    3    3    0    0 -0.15933139695E+02  0.42095848094E+02 -0.24520766134E+03  0.24930447759E+03  0.00000000000E+00 0.  1.
          3    1    3    3  501    0  0.44838459826E+02 -0.58261353730E+02  0.21393373137E+03  0.22621342629E+03  0.00000000000E+00 0.  1.
         21    1    1    2  502  501 -0.28905320131E+02  0.16165505635E+02 -0.89115621675E+01  0.34296603980E+02  0.00000000000E+00 0. -1.
<scales pt_clust_4="550.00000" pt_clust_5="550.00000" pt_clust_6="33.11861"></scales>
<mgrwt>
<rscale>  0 0.30000000E+03</rscale>
<asrwt>  1 0.33118608E+02</asrwt>
<pdfrwt beam="1">  1        1 0.85387094E+00 0.30000000E+03</pdfrwt>
<pdfrwt beam="2">0</pdfrwt>
<totfact> 0.37764222E-04</totfact>
</mgrwt>
<clustering>
<clus scale="   33.119">  1  6  2 -1</clus>
<clus scale="  473.331">  4  5 -1 -1</clus>
<clus scale="  300.000">  1  4  2 -1</clus>
</clustering>
</event>
<event>
 6    1  0.9254630E-012  0.3000000E+03  0.7818608E-02  0.1093470E+00
          1   -1    0    0  502    0  0.00000000000E+00  0.00000000000E+00  0.24539077030E+03  0.24539077030E+03  0.00000000000E+00 0.  1.
         13   -1    0    0    0    0 -0.00000000000E+00 -0.00000000000E+00 -0.27500000000E+03  0.27500000000E+03  0.00000000000E+00 0.  1.
    9000005    2    1    2  501    0 -0.32445677191E+02  0.18768247709E+02 -0.40959256354E+02  0.48122711118E+03  0.47801349642E+03 0.  0.
         13    1    3    3    0    0 -0.24268883715E+03 -0.40435302637E+02 -0.81288456578E+02  0.25911522254E+03  0.00000000000E+00 0.  1.
          1    1    3    3  501    0  0.21024315996E+03  0.59203550347E+02  0.40329200224E+02  0.22211188864E+03  0.00000000000E+00 0.  1.
         21    1    1    2  502  501  0.32445677191E+02 -0.18768247709E+02  0.11350026650E+02  0.39163659117E+02  0.00000000000E+00 0. -1.
<scales pt_clust_4="550.00000" pt_clust_5="550.00000" pt_clust_6="37.48292"></scales>
<mgrwt>
<rscale>  0 0.30000000E+03</rscale>
<asrwt>  1 0.37482917E+02</asrwt>
<pdfrwt beam="1">  1        1 0.89233007E+00 0.30000000E+03</pdfrwt>
<pdfrwt beam="2">0</pdfrwt>
<totfact> 0.13368089E-04</totfact>
</mgrwt>
<clustering>
<clus scale="   37.483">  1  6  2 -1</clus>
<clus scale="  478.013">  4  5 -1 -1</clus>
<clus scale="  300.000">  1  4  2 -1</clus>
</clustering>
</event>
<event>
 6    1  0.9254630E-012  0.3000000E+03  0.7818608E-02  0.1093470E+00
          1   -1    0    0  502    0  0.00000000000E+00  0.00000000000E+00  0.26391526877E+03  0.26391526877E+03  0.00000000000E+00 0.  1.
         13   -1    0    0    0    0 -0.00000000000E+00 -0.00000000000E+00 -0.27500000000E+03  0.27500000000E+03  0.00000000000E+00 0.  1.
    9000005    2    1    2  501    0  0.59943599209E+02  0.23466524067E+02 -0.25647042828E+02  0.47291546758E+03  0.46781123953E+03 0.  0.
         13    1    3    3    0    0 -0.72827433112E+02 -0.15074183891E+03  0.12340095957E+03  0.20797772437E+03  0.00000000000E+00 0.  1.
          3    1    3    3  501    0  0.13277103232E+03  0.17420836298E+03 -0.14904800240E+03  0.26493774321E+03  0.00000000000E+00 0.  1.
         21    1    1    2  502  501 -0.59943599209E+02 -0.23466524067E+02  0.14562311595E+02  0.65999801188E+02  0.00000000000E+00 0.  1.
<scales pt_clust_4="550.00000" pt_clust_5="550.00000" pt_clust_6="64.37323"></scales>
<mgrwt>
<rscale>  0 0.30000000E+03</rscale>
<asrwt>  1 0.64373231E+02</asrwt>
<pdfrwt beam="1">  1        1 0.95969189E+00 0.30000000E+03</pdfrwt>
<pdfrwt beam="2">0</pdfrwt>
<totfact> 0.69135977E-06</totfact>
</mgrwt>
<clustering>
<clus scale="   64.373">  1  6  2 -1</clus>
<clus scale="  467.811">  4  5 -1 -1</clus>
<clus scale="  300.000">  1  4  2 -1</clus>
</clustering>
</event>
<event>
 6    1  0.9254630E-012  0.3000000E+03  0.7818608E-02  0.1093470E+00
          1   -1    0    0  502    0  0.00000000000E+00  0.00000000000E+00  0.22170009146E+03  0.22170009146E+03  0.00000000000E+00 0.  1.
         13   -1    0    0    0    0 -0.00000000000E+00 -0.00000000000E+00 -0.27500000000E+03  0.27500000000E+03  0.00000000000E+00 0.  1.
    9000005    2    1    2  501    0 -0.23743730549E+02  0.25518006973E+02 -0.43907827384E+02  0.46060099716E+03  0.45717660467E+03 0.  0.
         13    1    3    3    0    0 -0.21315510780E+03  0.11311671846E+03 -0.67531405658E+02  0.25058128966E+03  0.00000000000E+00 0.  1.
          1    1    3    3  501    0  0.18941137725E+03 -0.87598711490E+02  0.23623578273E+02  0.21001970750E+03  0.00000000000E+00 0.  1.
         21    1    1    2  502  501  0.23743730549E+02 -0.25518006973E+02 -0.93920811602E+01  0.36099094293E+02  0.00000000000E+00 0.  1.
<scales pt_clust_4="550.00000" pt_clust_5="550.00000" pt_clust_6="34.85591"></scales>
<mgrwt>
<rscale>  0 0.30000000E+03</rscale>
<asrwt>  1 0.34855912E+02</asrwt>
<pdfrwt beam="1">  1        1 0.80618215E+00 0.30000000E+03</pdfrwt>
<pdfrwt beam="2">0</pdfrwt>
<totfact> 0.93410062E-04</totfact>
</mgrwt>
<clustering>
<clus scale="   34.856">  1  6  2 -1</clus>
<clus scale="  457.177">  4  5 -1 -1</clus>
<clus scale="  300.000">  1  4  2 -1</clus>
</clustering>
</event>
<event>
 6    1  0.9254630E-012  0.3000000E+03  0.7818608E-02  0.1093470E+00
          1   -1    0    0  502    0  0.00000000000E+00  0.00000000000E+00  0.24004668660E+03  0.24004668660E+03  0.00000000000E+00 0.  1.
         13   -1    0    0    0    0 -0.00000000000E+00 -0.00000000000E+00 -0.27500000000E+03  0.27500000000E+03  0.00000000000E+00 0.  1.
    9000005    2    1    2  501    0 -0.25902524040E+02 -0.20821234767E+02 -0.73026836383E+02  0.46450900045E+03  0.45752729766E+03 0.  0.
         13    1    3    3    0    0 -0.19833248807E+03  0.80129383262E+00  0.97528360890E+02  0.22101628690E+03  0.00000000000E+00 0.  1.
          3    1    3    3  501    0  0.17242996403E+03 -0.21622528599E+02 -0.17055519727E+03  0.24349271356E+03  0.00000000000E+00 0.  1.
         21    1    1    2  502  501  0.25902524040E+02  0.20821234767E+02  0.38073522986E+02  0.50537686150E+02  0.00000000000E+00 0. -1.
<scales pt_clust_4="550.00000" pt_clust_5="550.00000" pt_clust_6="33.23349"></scales>
<mgrwt>
<rscale>  0 0.30000000E+03</rscale>
<asrwt>  1 0.33233486E+02</asrwt>
<pdfrwt beam="1">  1        1 0.87289704E+00 0.30000000E+03</pdfrwt>
<pdfrwt beam="2">0</pdfrwt>
<totfact> 0.23886994E-04</totfact>
</mgrwt>
<clustering>
<clus scale="   33.233">  1  6  2 -1</clus>
<clus scale="  457.527">  4  5 -1 -1</clus>
<clus scale="  300.000">  1  4  2 -1</clus>
</clustering>
</event>
<event>
 6    1  0.9254630E-012  0.3000000E+03  0.7818608E-02  0.1093470E+00
          1   -1    0    0  502    0  0.00000000000E+00  0.00000000000E+00  0.23752617416E+03  0.23752617416E+03  0.00000000000E+00 0.  1.
         13   -1    0    0    0    0 -0.00000000000E+00 -0.00000000000E+00 -0.27500000000E+03  0.27500000000E+03  0.00000000000E+00 0.  1.
    9000005    2    1    2  501    0 -0.41711833368E+02  0.15862078525E+02 -0.52674735529E+02  0.46538224312E+03  0.46023311688E+03 0.  0.
         13    1    3    3    0    0  0.49648332274E+02 -0.82400215089E+01 -0.24552465826E+03  0.25062963246E+03  0.00000000000E+00 0.  1.
          1    1    3    3  501    0 -0.91360165642E+02  0.24102100034E+02  0.19284992273E+03  0.21475261067E+03  0.00000000000E+00 0.  1.
         21    1    1    2  502  501  0.41711833368E+02 -0.15862078525E+02  0.15200909687E+02  0.47143931034E+02  0.00000000000E+00 0. -1.
<scales pt_clust_4="550.00000" pt_clust_5="550.00000" pt_clust_6="44.62603"></scales>
<mgrwt>
<rscale>  0 0.30000000E+03</rscale>
<asrwt>  1 0.44626030E+02</asrwt>
<pdfrwt beam="1">  1        1 0.86373154E+00 0.30000000E+03</pdfrwt>
<pdfrwt beam="2">0</pdfrwt>
<totfact> 0.28203474E-04</totfact>
</mgrwt>
<clustering>
<clus scale="   44.626">  1  6  2 -1</clus>
<clus scale="  460.233">  4  5 -1 -1</clus>
<clus scale="  300.000">  1  4  2 -1</clus>
</clustering>
</event>
<event>
 6    1  0.9254630E-012  0.3000000E+03  0.7818608E-02  0.1093470E+00
          1   -1    0    0  502    0  0.00000000000E+00  0.00000000000E+00  0.25409076852E+03  0.25409076852E+03  0.00000000000E+00 0.  1.
         13   -1    0    0    0    0 -0.00000000000E+00 -0.00000000000E+00 -0.27500000000E+03  0.27500000000E+03  0.00000000000E+00 0.  1.
    9000005    2    1    2  501    0 -0.50152316031E+02 -0.77625273853E+01 -0.10643838468E+02  0.47731345758E+03  0.47448849707E+03 0.  0.
         13    1    3    3    0    0 -0.13137523248E+03  0.10255209968E+03  0.17821514052E+03  0.24400209255E+03  0.00000000000E+00 0.  1.
          3    1    3    3  501    0  0.81222916453E+02 -0.11031462707E+03 -0.18885897899E+03  0.23331136502E+03  0.00000000000E+00 0.  1.
         21    1    1    2  502  501  0.50152316031E+02  0.77625273853E+01 -0.10265393015E+02  0.51777310942E+02  0.00000000000E+00 0.  1.
<scales pt_clust_4="550.00000" pt_clust_5="550.00000" pt_clust_6="50.74952"></scales>
<mgrwt>
<rscale>  0 0.30000000E+03</rscale>
<asrwt>  1 0.50749524E+02</asrwt>
<pdfrwt beam="1">  1        1 0.92396643E+00 0.30000000E+03</pdfrwt>
<pdfrwt beam="2">0</pdfrwt>
<totfact> 0.32210470E-05</totfact>
</mgrwt>
<clustering>
<clus scale="   50.750">  1  6  2 -1</clus>
<clus scale="  474.488">  4  5 -1 -1</clus>
<clus scale="  300.000">  1  4  2 -1</clus>
</clustering>
</event>
<event>
 6    1  0.9254630E-012  0.3000000E+03  0.7818608E-02  0.1093470E+00
          1   -1    0    0  502    0  0.00000000000E+00  0.00000000000E+00  0.24964825408E+03  0.24964825408E+03  0.00000000000E+00 0.  1.
         13   -1    0    0    0    0 -0.00000000000E+00 -0.00000000000E+00 -0.27500000000E+03  0.27500000000E+03  0.00000000000E+00 0.  1.
    9000005    2    1    2  501    0  0.25430563387E+02 -0.30752414844E+02 -0.55691726711E+02  0.47451903099E+03  0.46954692820E+03 0.  0.
         13    1    3    3    0    0 -0.34593095419E+02  0.12545830772E+03 -0.20989060070E+03  0.24696261557E+03  0.00000000000E+00 0.  1.
          3    1    3    3  501    0  0.60023658806E+02 -0.15621072256E+03  0.15419887399E+03  0.22755641542E+03  0.00000000000E+00 0.  1.
         21    1    1    2  502  501 -0.25430563387E+02  0.30752414844E+02  0.30339980795E+02  0.50129223090E+02  0.00000000000E+00 0.  1.
<scales pt_clust_4="550.00000" pt_clust_5="550.00000" pt_clust_6="39.90519"></scales>
<mgrwt>
<rscale>  0 0.30000000E+03</rscale>
<asrwt>  1 0.39905195E+02</asrwt>
<pdfrwt beam="1">  1        1 0.90781183E+00 0.30000000E+03</pdfrwt>
<pdfrwt beam="2">0</pdfrwt>
<totfact> 0.78922859E-05</totfact>
</mgrwt>
<clustering>
<clus scale="   39.905">  1  6  2 -1</clus>
<clus scale="  469.547">  4  5 -1 -1</clus>
<clus scale="  300.000">  1  4  2 -1</clus>
</clustering>
</event>
<event>
 6    1  0.9254630E-012  0.3000000E+03  0.7818608E-02  0.1093470E+00
          1   -1    0    0  502    0  0.00000000000E+00  0.00000000000E+00  0.22823234120E+03  0.22823234120E+03  0.00000000000E+00 0.  1.
         13   -1    0    0    0    0 -0.00000000000E+00 -0.00000000000E+00 -0.27500000000E+03  0.27500000000E+03  0.00000000000E+00 0.  1.
    9000005    2    1    2  501    0  0.26306520309E+02  0.27735765226E+02 -0.60237203024E+02  0.46270168237E+03  0.45716848159E+03 0.  0.
         13    1    3    3    0    0  0.11374406214E+03 -0.90029859317E+02 -0.20859545059E+03  0.25407705376E+03  0.00000000000E+00 0.  1.
          1    1    3    3  501    0 -0.87437541831E+02  0.11776562454E+03  0.14835824756E+03  0.20862462862E+03  0.00000000000E+00 0.  1.
         21    1    1    2  502  501 -0.26306520309E+02 -0.27735765226E+02  0.13469544228E+02  0.40530658830E+02  0.00000000000E+00 0. -1.
<scales pt_clust_4="550.00000" pt_clust_5="550.00000" pt_clust_6="38.22703"></scales>
<mgrwt>
<rscale>  0 0.30000000E+03</rscale>
<asrwt>  1 0.38227028E+02</asrwt>
<pdfrwt beam="1">  1        1 0.82993579E+00 0.30000000E+03</pdfrwt>
<pdfrwt beam="2">0</pdfrwt>
<totfact> 0.58212805E-04</totfact>
</mgrwt>
<clustering>
<clus scale="   38.227">  1  6  2 -1</clus>
<clus scale="  457.168">  4  5 -1 -1</clus>
<clus scale="  300.000">  1  4  2 -1</clus>
</clustering>
</event>
<event>
 6    1  0.9254630E-012  0.3000000E+03  0.7818608E-02  0.1093470E+00
          1   -1    0    0  502    0  0.00000000000E+00  0.00000000000E+00  0.24381782223E+03  0.24381782223E+03  0.00000000000E+00 0.  1.
         13   -1    0    0    0    0 -0.00000000000E+00 -0.00000000000E+00 -0.27500000000E+03  0.27500000000E+03  0.00000000000E+00 0.  1.
    9000005    2    1    2  501    0 -0.29856782659E+02 -0.37540070459E+01 -0.35980611549E+02  0.48834578577E+03  0.48608793652E+03 0.  0.
         13    1    3    3    0    0  0.14680242302E+03 -0.17443596592E+03 -0.74172805656E+02  0.23975083464E+03  0.00000000000E+00 0.  1.
          1    1    3    3  501    0 -0.17665920568E+03  0.17068195887E+03  0.38192194107E+02  0.24859495113E+03  0.00000000000E+00 0.  1.
         21    1    1    2  502  501  0.29856782659E+02  0.37540070459E+01  0.47984337797E+01  0.30472036466E+02  0.00000000000E+00 0.  1.
<scales pt_clust_4="550.00000" pt_clust_5="550.00000" pt_clust_6="30.09186"></scales>
<mgrwt>
<rscale>  0 0.30000000E+03</rscale>
<asrwt>  1 0.30091860E+02</asrwt>
<pdfrwt beam="1">  1        1 0.88661026E+00 0.30000000E+03</pdfrwt>
<pdfrwt beam="2">0</pdfrwt>
<totfact> 0.16594814E-04</totfact>
</mgrwt>
<clustering>
<clus scale="   30.092">  1  6  2 -1</clus>
<clus scale="  486.088">  4  5 -1 -1</clus>
<clus scale="  300.000">  1  4  2 -1</clus>
</clustering>
</event>
<event>
 6    1  0.9254630E-012  0.3000000E+03  0.7818608E-02  0.1093470E+00
          1   -1    0    0  502    0  0.00000000000E+00  0.00000000000E+00  0.25819120170E+03  0.25819120170E+03  0.00000000000E+00 0.  1.
         13   -1    0    0    0    0 -0.00000000000E+00 -0.00000000000E+00 -0.27500000000E+03  0.27500000000E+03  0.00000000000E+00 0.  1.
    9000005    2    1    2  501    0 -0.38989661395E+02  0.13507845404E+02 -0.21767831721E+02  0.49163103332E+03  0.48941248334E+03 0.  0.
         13    1    3    3    0    0 -0.44237072714E+02 -0.15389332857E+03  0.17234554293E+03  0.23525106025E+03  0.00000000000E+00 0.  1.
          3    1    3    3  501    0  0.52474113190E+01  0.16740117398E+03 -0.19411337465E+03  0.25637997307E+03  0.00000000000E+00 0.  1.
         21    1    1    2  502  501  0.38989661395E+02 -0.13507845404E+02  0.49590334241E+01  0.41560168378E+02  0.00000000000E+00 0.  1.
<scales pt_clust_4="550.00000" pt_clust_5="550.00000" pt_clust_6="41.26325"></scales>
<mgrwt>
<rscale>  0 0.30000000E+03</rscale>
<asrwt>  1 0.41263247E+02</asrwt>
<pdfrwt beam="1">  1        1 0.93887710E+00 0.30000000E+03</pdfrwt>
<pdfrwt beam="2">0</pdfrwt>
<totfact> 0.19395065E-05</totfact>
</mgrwt>
<clustering>
<clus scale="   41.263">  1  6  2 -1</clus>
<clus scale="  489.412">  4  5 -1 -1</clus>
<clus scale="  300.000">  1  4  2 -1</clus>
</clustering>
</event>
<event>
 6    1  0.9254630E-012  0.3000000E+03  0.7818608E-02  0.1093470E+00
          1   -1    0    0  502    0  0.00000000000E+00  0.00000000000E+00  0.25511138866E+03  0.25511138866E+03  0.00000000000E+00 0.  1.
         13   -1    0    0    0    0 -0.00000000000E+00 -0.00000000000E+00 -0.27500000000E+03  0.27500000000E+03  0.00000000000E+00 0.  1.
    9000005    2    1    2  501    0  0.46401206663E+02  0.32968859248E+01 -0.28933501099E+02  0.48272202839E+03  0.47960344845E+03 0.  0.
         13    1    3    3    0    0  0.33504507693E+02  0.23116475631E+03  0.54260218607E+02  0.23979964120E+03  0.00000000000E+00 0.  1.
          1    1    3    3  501    0  0.12896698970E+02 -0.22786787038E+03 -0.83193719706E+02  0.24292238719E+03  0.00000000000E+00 0.  1.
         21    1    1    2  502  501 -0.46401206663E+02 -0.32968859248E+01  0.90448897599E+01  0.47389360275E+02  0.00000000000E+00 0.  1.
<scales pt_clust_4="550.00000" pt_clust_5="550.00000" pt_clust_6="46.51818"></scales>
<mgrwt>
<rscale>  0 0.30000000E+03</rscale>
<asrwt>  1 0.46518184E+02</asrwt>
<pdfrwt beam="1">  1        1 0.92767778E+00 0.30000000E+03</pdfrwt>
<pdfrwt beam="2">0</pdfrwt>
<totfact> 0.27440643E-05</totfact>
</mgrwt>
<clustering>
<clus scale="   46.518">  1  6  2 -1</clus>
<clus scale="  479.603">  4  5 -1 -1</clus>
<clus scale="  300.000">  1  4  2 -1</clus>
</clustering>
</event>
<event>
 6    1  0.9254630E-012  0.3000000E+03  0.7818608E-02  0.1093470E+00
          1   -1    0    0  502    0  0.00000000000E+00  0.00000000000E+00  0.23621622135E+03  0.23621622135E+03  0.00000000000E+00 0.  1.
         13   -1    0    0    0    0 -0.00000000000E+00 -0.00000000000E+00 -0.27500000000E+03  0.27500000000E+03  0.00000000000E+00 0.  1.
    9000005    2    1    2  501    0 -0.33033542410E+02 -0.45740680313E+01 -0.66042489229E+02  0.46814448671E+03  0.46226130384E+03 0.  0.
         13    1    3    3    0    0 -0.21368102526E+03 -0.12386122673E+03 -0.35195646260E+02  0.24947929284E+03  0.00000000000E+00 0.  1.
          3    1    3    3  501    0  0.18064748285E+03  0.11928715870E+03 -0.30846842968E+02  0.21866519387E+03  0.00000000000E+00 0.  1.
         21    1    1    2  502  501  0.33033542410E+02  0.45740680313E+01  0.27258710576E+02  0.43071734638E+02  0.00000000000E+00 0.  1.
<scales pt_clust_4="550.00000" pt_clust_5="550.00000" pt_clust_6="33.34872"></scales>
<mgrwt>
<rscale>  0 0.30000000E+03</rscale>
<asrwt>  1 0.33348718E+02</asrwt>
<pdfrwt beam="1">  1        1 0.85896808E+00 0.30000000E+03</pdfrwt>
<pdfrwt beam="2">0</pdfrwt>
<totfact> 0.33475173E-04</totfact>
</mgrwt>
<clustering>
<clus scale="   33.349">  1  6  2 -1</clus>
<clus scale="  462.261">  4  5 -1 -1</clus>
<clus scale="  300.000">  1  4  2 -1</clus>
</clustering>
</event>
<event>
 6    1  0.9254630E-012  0.3000000E+03  0.7818608E-02  0.1093470E+00
          1   -1    0    0  502    0  0.00000000000E+00  0.00000000000E+00  0.22736445515E+03  0.22736445515E+03  0.00000000000E+00 0.  1.
         13   -1    0    0    0    0 -0.00000000000E+00 -0.00000000000E+00 -0.27500000000E+03  0.27500000000E+03  0.00000000000E+00 0.  1.
    9000005    2    1    2  501    0 -0.20410401022E+02 -0.31985343040E+02 -0.58097821450E+02  0.46300577287E+03  0.45777651994E+03 0.  0.
         13    1    3    3    0    0 -0.23794356942E+03  0.64520336965E+01 -0.20331658935E+02  0.23889777588E+03  0.00000000000E+00 0.  1.
          1    1    3    3  501    0  0.21753316840E+03 -0.38437376737E+02 -0.37766162514E+02  0.22410799699E+03  0.00000000000E+00 0.  1.
         21    1    1    2  502  501  0.20410401022E+02  0.31985343040E+02  0.10462276599E+02  0.39358682281E+02  0.00000000000E+00 0.  1.
<scales pt_clust_4="550.00000" pt_clust_5="550.00000" pt_clust_6="37.94268"></scales>
<mgrwt>
<rscale>  0 0.30000000E+03</rscale>
<asrwt>  1 0.37942676E+02</asrwt>
<pdfrwt beam="1">  1        1 0.82677984E+00 0.30000000E+03</pdfrwt>
<pdfrwt beam="2">0</pdfrwt>
<totfact> 0.62045770E-04</totfact>
</mgrwt>
<clustering>
<clus scale="   37.943">  1  6  2 -1</clus>
<clus scale="  457.777">  4  5 -1 -1</clus>
<clus scale="  300.000">  1  4  2 -1</clus>
</clustering>
</event>
<event>
 6    1  0.9254630E-012  0.3000000E+03  0.7818608E-02  0.1093470E+00
          1   -1    0    0  502    0  0.00000000000E+00  0.00000000000E+00  0.23013282814E+03  0.23013282814E+03  0.00000000000E+00 0.  1.
         13   -1    0    0    0    0 -0.00000000000E+00 -0.00000000000E+00 -0.27500000000E+03  0.27500000000E+03  0.00000000000E+00 0.  1.
    9000005    2    1    2  501    0 -0.33039190808E+02 -0.15474093708E+02 -0.44190824621E+02  0.46864319741E+03  0.46512641485E+03 0.  0.
         13    1    3    3    0    0 -0.11257935383E+03 -0.30996537402E+02  0.18878264209E+03  0.22197698573E+03  0.00000000000E+00 0.  1.
          1    1    3    3  501    0  0.79540163021E+02  0.15522443695E+02 -0.23297346671E+03  0.24666621168E+03  0.00000000000E+00 0.  1.
         21    1    1    2  502  501  0.33039190808E+02  0.15474093708E+02 -0.67634723457E+00  0.36489630732E+02  0.00000000000E+00 0.  1.
<scales pt_clust_4="550.00000" pt_clust_5="550.00000" pt_clust_6="36.48336"></scales>
<mgrwt>
<rscale>  0 0.30000000E+03</rscale>
<asrwt>  1 0.36483362E+02</asrwt>
<pdfrwt beam="1">  1        1 0.83684665E+00 0.30000000E+03</pdfrwt>
<pdfrwt beam="2">0</pdfrwt>
<totfact> 0.52049218E-04</totfact>
</mgrwt>
<clustering>
<clus scale="   36.483">  1  6  2 -1</clus>
<clus scale="  465.126">  4  5 -1 -1</clus>
<clus scale="  300.000">  1  4  2 -1</clus>
</clustering>
</event>
<event>
 6    1  0.9254630E-012  0.3000000E+03  0.7818608E-02  0.1093470E+00
          1   -1    0    0  502    0  0.00000000000E+00  0.00000000000E+00  0.24151631135E+03  0.24151631135E+03  0.00000000000E+00 0.  1.
         13   -1    0    0    0    0 -0.00000000000E+00 -0.00000000000E+00 -0.27500000000E+03  0.27500000000E+03  0.00000000000E+00 0.  1.
    9000005    2    1    2  501    0 -0.25587594445E+02 -0.21695583186E+02 -0.55808783935E+02  0.47621949760E+03  0.47174671828E+03 0.  0.
         13    1    3    3    0    0  0.30020839599E+02 -0.55865489075E+02 -0.25699831002E+03  0.26470801845E+03  0.00000000000E+00 0.  1.
          3    1    3    3  501    0 -0.55608434044E+02  0.34169905890E+02  0.20118952608E+03  0.21151147915E+03  0.00000000000E+00 0.  1.
         21    1    1    2  502  501  0.25587594445E+02  0.21695583186E+02  0.22325095285E+02  0.40296813754E+02  0.00000000000E+00 0. -1.
<scales pt_clust_4="550.00000" pt_clust_5="550.00000" pt_clust_6="33.54733"></scales>
<mgrwt>
<rscale>  0 0.30000000E+03</rscale>
<asrwt>  1 0.33547330E+02</asrwt>
<pdfrwt beam="1">  1        1 0.87824113E+00 0.30000000E+03</pdfrwt>
<pdfrwt beam="2">0</pdfrwt>
<totfact> 0.20882650E-04</totfact>
</mgrwt>
<clustering>
<clus scale="   33.547">  1  6  2 -1</clus>
<clus scale="  471.747">  4  5 -1 -1</clus>
<clus scale="  300.000">  1  4  2 -1</clus>
</clustering>
</event>
<event>
 6    1  0.9254630E-012  0.3000000E+03  0.7818608E-02  0.1093470E+00
          1   -1    0    0  502    0  0.00000000000E+00  0.00000000000E+00  0.24696736110E+03  0.24696736110E+03  0.00000000000E+00 0.  1.
         13   -1    0    0    0    0 -0.00000000000E+00 -0.00000000000E+00 -0.27500000000E+03  0.27500000000E+03  0.00000000000E+00 0.  1.
    9000005    2    1    2  501    0  0.18643448488E+02 -0.34921506699E+02 -0.55477819312E+02  0.47379758085E+03  0.46887020526E+03 0.  0.
         13    1    3    3    0    0  0.10868701186E+03 -0.23047217679E+03 -0.19878122235E+02  0.25558840068E+03  0.00000000000E+00 0.  1.
          1    1    3    3  501    0 -0.90043563371E+02  0.19555067009E+03 -0.35599697077E+02  0.21820918017E+03  0.00000000000E+00 0.  1.
         21    1    1    2  502  501 -0.18643448488E+02  0.34921506699E+02  0.27445180415E+02  0.48169780253E+02  0.00000000000E+00 0. -1.
<scales pt_clust_4="550.00000" pt_clust_5="550.00000" pt_clust_6="39.58649"></scales>
<mgrwt>
<rscale>  0 0.30000000E+03</rscale>
<asrwt>  1 0.39586485E+02</asrwt>
<pdfrwt beam="1">  1        1 0.89806313E+00 0.30000000E+03</pdfrwt>
<pdfrwt beam="2">0</pdfrwt>
<totfact> 0.11386994E-04</totfact>
</mgrwt>
<clustering>
<clus scale="   39.586">  1  6  2 -1</clus>
<clus scale="  468.870">  4  5 -1 -1</clus>
<clus scale="  300.000">  1  4  2 -1</clus>
</clustering>
</event>
<event>
 6    1  0.9254630E-012  0.3000000E+03  0.7818608E-02  0.1093470E+00
          1   -1    0    0  502    0  0.00000000000E+00  0.00000000000E+00  0.23460392133E+03  0.23460392133E+03  0.00000000000E+00 0.  1.
         13   -1    0    0    0    0 -0.00000000000E+00 -0.00000000000E+00 -0.27500000000E+03  0.27500000000E+03  0.00000000000E+00 0.  1.
    9000005    2    1    2  501    0  0.31448432626E+02 -0.51225654961E+00 -0.64595029057E+02  0.46991947197E+03  0.46439479544E+03 0.  0.
         13    1    3    3    0    0  0.11064949880E+03 -0.11352446673E+03 -0.21413694368E+03  0.26643150485E+03  0.00000000000E+00 0.  1.
          1    1    3    3  501    0 -0.79201066173E+02  0.11301221018E+03  0.14954191462E+03  0.20348796712E+03  0.00000000000E+00 0.  1.
         21    1    1    2  502  501 -0.31448432626E+02  0.51225654961E+00  0.24198950391E+02  0.39684449366E+02  0.00000000000E+00 0.  1.
<scales pt_clust_4="550.00000" pt_clust_5="550.00000" pt_clust_6="31.45260"></scales>
<mgrwt>
<rscale>  0 0.30000000E+03</rscale>
<asrwt>  1 0.31452604E+02</asrwt>
<pdfrwt beam="1">  1        1 0.85310517E+00 0.30000000E+03</pdfrwt>
<pdfrwt beam="2">0</pdfrwt>
<totfact> 0.38792994E-04</totfact>
</mgrwt>
<clustering>
<clus scale="   31.453">  1  6  2 -1</clus>
<clus scale="  464.395">  4  5 -1 -1</clus>
<clus scale="  300.000">  1  4  2 -1</clus>
</clustering>
</event>
<event>
 6    1  0.9254630E-012  0.3000000E+03  0.7818608E-02  0.1093470E+00
          1   -1    0    0  502    0  0.00000000000E+00  0.00000000000E+00  0.22949875539E+03  0.22949875539E+03  0.00000000000E+00 0.  1.
         13   -1    0    0    0    0 -0.00000000000E+00 -0.00000000000E+00 -0.27500000000E+03  0.27500000000E+03  0.00000000000E+00 0.  1.
    9000005    2    1    2  501    0  0.38594232890E+02 -0.12726592321E+01 -0.48149718903E+02  0.46579282703E+03  0.46168542083E+03 0.  0.
         13    1    3    3    0    0  0.71961511507E+02 -0.35127064845E+02 -0.24787510476E+03  0.26048884310E+03  0.00000000000E+00 0.  1.
          1    1    3    3  501    0 -0.33367278618E+02  0.33854405613E+02  0.19972538586E+03  0.20530398393E+03  0.00000000000E+00 0.  1.
         21    1    1    2  502  501 -0.38594232890E+02  0.12726592321E+01  0.26484742925E+01  0.38705928357E+02  0.00000000000E+00 0. -1.
<scales pt_clust_4="550.00000" pt_clust_5="550.00000" pt_clust_6="38.61521"></scales>
<mgrwt>
<rscale>  0 0.30000000E+03</rscale>
<asrwt>  1 0.38615210E+02</asrwt>
<pdfrwt beam="1">  1        1 0.83454093E+00 0.30000000E+03</pdfrwt>
<pdfrwt beam="2">0</pdfrwt>
<totfact> 0.53534651E-04</totfact>
</mgrwt>
<clustering>
<clus scale="   38.615">  1  6  2 -1</clus>
<clus scale="  461.685">  4  5 -1 -1</clus>
<clus scale="  300.000">  1  4  2 -1</clus>
</clustering>
</event>
<event>
 6    1  0.9254630E-012  0.3000000E+03  0.7818608E-02  0.1093470E+00
          1   -1    0    0  502    0  0.00000000000E+00  0.00000000000E+00  0.24684087483E+03  0.24684087483E+03  0.00000000000E+00 0.  1.
         13   -1    0    0    0    0 -0.00000000000E+00 -0.00000000000E+00 -0.27500000000E+03  0.27500000000E+03  0.00000000000E+00 0.  1.
    9000005    2    1    2  501    0  0.44087836599E+02 -0.40745348796E+01 -0.33952804590E+02  0.47718770146E+03  0.47391451794E+03 0.  0.
         13    1    3    3    0    0 -0.21353939573E+03  0.25071853920E+02  0.46645944340E+01  0.21505680606E+03  0.00000000000E+00 0.  1.
          3    1    3    3  501    0  0.25762723233E+03 -0.29146388800E+02 -0.38617399024E+02  0.26213089541E+03  0.00000000000E+00 0.  1.
         21    1    1    2  502  501 -0.44087836599E+02  0.40745348796E+01  0.57936794172E+01  0.44653173366E+02  0.00000000000E+00 0.  1.
<scales pt_clust_4="550.00000" pt_clust_5="550.00000" pt_clust_6="44.27572"></scales>
<mgrwt>
<rscale>  0 0.30000000E+03</rscale>
<asrwt>  1 0.44275718E+02</asrwt>
<pdfrwt beam="1">  1        1 0.89760318E+00 0.30000000E+03</pdfrwt>
<pdfrwt beam="2">0</pdfrwt>
<totfact> 0.11294390E-04</totfact>
</mgrwt>
<clustering>
<clus scale="   44.276">  1  6  2 -1</clus>
<clus scale="  473.915">  4  5 -1 -1</clus>
<clus scale="  300.000">  1  4  2 -1</clus>
</clustering>
</event>
<event>
 6    1  0.9254630E-012  0.3000000E+03  0.7818608E-02  0.1093470E+00
          1   -1    0    0  502    0  0.00000000000E+00  0.00000000000E+00  0.24702481826E+03  0.24702481826E+03  0.00000000000E+00 0.  1.
         13   -1    0    0    0    0 -0.00000000000E+00 -0.00000000000E+00 -0.27500000000E+03  0.27500000000E+03  0.00000000000E+00 0.  1.
    9000005    2    1    2  501    0 -0.24452915751E+02  0.30281361349E+02 -0.61134590185E+02  0.47089310303E+03  0.46528267798E+03 0.  0.
         13    1    3    3    0    0  0.27213301251E+02  0.24418702058E+03 -0.48747310735E+02  0.25048785417E+03  0.00000000000E+00 0.  1.
          3    1    3    3  501    0 -0.51666217002E+02 -0.21390565923E+03 -0.12387279450E+02  0.22040524885E+03  0.00000000000E+00 0.  1.
         21    1    1    2  502  501  0.24452915751E+02 -0.30281361349E+02  0.33159408441E+02  0.51131715227E+02  0.00000000000E+00 0.  1.
<scales pt_clust_4="550.00000" pt_clust_5="550.00000" pt_clust_6="38.92179"></scales>
<mgrwt>
<rscale>  0 0.30000000E+03</rscale>
<asrwt>  1 0.38921793E+02</asrwt>
<pdfrwt beam="1">  1        1 0.89827207E+00 0.30000000E+03</pdfrwt>
<pdfrwt beam="2">0</pdfrwt>
<totfact> 0.11359159E-04</totfact>
</mgrwt>
<clustering>
<clus scale="   38.922">  1  6  2 -1</clus>
<clus scale="  465.283">  4  5 -1 -1</clus>
<clus scale="  300.000">  1  4  2 -1</clus>
</clustering>
</event>
<event>
 6    1  0.9254630E-012  0.3000000E+03  0.7818608E-02  0.1093470E+00
          1   -1    0    0  502    0  0.00000000000E+00  0.00000000000E+00  0.23631847891E+03  0.23631847891E+03  0.00000000000E+00 0.  1.
         13   -1    0    0    0    0 -0.00000000000E+00 -0.00000000000E+00 -0.27500000000E+03  0.27500000000E+03  0.00000000000E+00 0.  1.
    9000005    2    1    2  501    0  0.30521341137E+02  0.65348864280E+01 -0.55706961039E+02  0.47576397693E+03  0.47145926572E+03 0.  0.
         13    1    3    3    0    0  0.13967719958E+03 -0.14104106699E+03  0.11132288928E+03  0.22758534297E+03  0.00000000000E+00 0.  1.
          3    1    3    3  501    0 -0.10915585844E+03  0.14757595342E+03 -0.16702985032E+03  0.24817863396E+03  0.00000000000E+00 0.  1.
         21    1    1    2  502  501 -0.30521341137E+02 -0.65348864280E+01  0.17025439950E+02  0.35554501979E+02  0.00000000000E+00 0. -1.
<scales pt_clust_4="550.00000" pt_clust_5="550.00000" pt_clust_6="31.21309"></scales>
<mgrwt>
<rscale>  0 0.30000000E+03</rscale>
<asrwt>  1 0.31213090E+02</asrwt>
<pdfrwt beam="1">  1        1 0.85933992E+00 0.30000000E+03</pdfrwt>
<pdfrwt beam="2">0</pdfrwt>
<totfact> 0.33592863E-04</totfact>
</mgrwt>
<clustering>
<clus scale="   31.213">  1  6  2 -1</clus>
<clus scale="  471.459">  4  5 -1 -1</clus>
<clus scale="  300.000">  1  4  2 -1</clus>
</clustering>
</event>
<event>
 6    1  0.9254630E-012  0.3000000E+03  0.7818608E-02  0.1093470E+00
          1   -1    0    0  502    0  0.00000000000E+00  0.00000000000E+00  0.22260173615E+03  0.22260173615E+03  0.00000000000E+00 0.  1.
         13   -1    0    0    0    0 -0.00000000000E+00 -0.00000000000E+00 -0.27500000000E+03  0.27500000000E+03  0.00000000000E+00 0.  1.
    9000005    2    1    2  501    0 -0.18872204839E+02 -0.27154241304E+02 -0.65346180305E+02  0.46208890077E+03  0.45624830520E+03 0.  0.
         13    1    3    3    0    0  0.10944257666E+03 -0.95023650114E+02  0.14597941414E+03  0.20571135365E+03  0.00000000000E+00 0.  1.
          3    1    3    3  501    0 -0.12831478150E+03  0.67869408810E+02 -0.21132559444E+03  0.25637754712E+03  0.00000000000E+00 0.  1.
         21    1    1    2  502  501  0.18872204839E+02  0.27154241304E+02  0.12947916456E+02  0.35512835381E+02  0.00000000000E+00 0.  1.
<scales pt_clust_4="550.00000" pt_clust_5="550.00000" pt_clust_6="33.06831"></scales>
<mgrwt>
<rscale>  0 0.30000000E+03</rscale>
<asrwt>  1 0.33068307E+02</asrwt>
<pdfrwt beam="1">  1        1 0.80946086E+00 0.30000000E+03</pdfrwt>
<pdfrwt beam="2">0</pdfrwt>
<totfact> 0.89006600E-04</totfact>
</mgrwt>
<clustering>
<clus scale="   33.068">  1  6  2 -1</clus>
<clus scale="  456.248">  4  5 -1 -1</clus>
<clus scale="  300.000">  1  4  2 -1</clus>
</clustering>
</event>
<event>
 6    1  0.9254630E-012  0.3000000E+03  0.7818608E-02  0.1093470E+00
          1   -1    0    0  502    0  0.00000000000E+00  0.00000000000E+00  0.22697571318E+03  0.22697571318E+03  0.00000000000E+00 0.  1.
         13   -1    0    0    0    0 -0.00000000000E+00 -0.00000000000E+00 -0.27500000000E+03  0.27500000000E+03  0.00000000000E+00 0.  1.
    9000005    2    1    2  501    0 -0.27017921049E+02 -0.24515136547E+02 -0.34525066117E+02  0.46307598391E+03  0.46034381359E+03 0.  0.
         13    1    3    3    0    0 -0.45436567861E+02  0.10561830367E+03  0.17876226692E+03  0.21254565591E+03  0.00000000000E+00 0.  1.
          3    1    3    3  501    0  0.18418646812E+02 -0.13013344022E+03 -0.21328733304E+03  0.25053032800E+03  0.00000000000E+00 0.  1.
         21    1    1    2  502  501  0.27017921049E+02  0.24515136547E+02 -0.13499220701E+02  0.38899729270E+02  0.00000000000E+00 0.  1.
<scales pt_clust_4="550.00000" pt_clust_5="550.00000" pt_clust_6="36.48234"></scales>
<mgrwt>
<rscale>  0 0.30000000E+03</rscale>
<asrwt>  1 0.36482342E+02</asrwt>
<pdfrwt beam="1">  1        1 0.82536623E+00 0.30000000E+03</pdfrwt>
<pdfrwt beam="2">0</pdfrwt>
<totfact> 0.64328597E-04</totfact>
</mgrwt>
<clustering>
<clus scale="   36.482">  1  6  2 -1</clus>
<clus scale="  460.344">  4  5 -1 -1</clus>
<clus scale="  300.000">  1  4  2 -1</clus>
</clustering>
</event>
<event>
 6    1  0.9254630E-012  0.3000000E+03  0.7818608E-02  0.1093470E+00
          1   -1    0    0  502    0  0.00000000000E+00  0.00000000000E+00  0.26472151523E+03  0.26472151523E+03  0.00000000000E+00 0.  1.
         13   -1    0    0    0    0 -0.00000000000E+00 -0.00000000000E+00 -0.27500000000E+03  0.27500000000E+03  0.00000000000E+00 0.  1.
    9000005    2    1    2  501    0 -0.59535347070E+02 -0.23634674901E+02 -0.36755503505E+02  0.47040998712E+03  0.46457672513E+03 0.  0.
         13    1    3    3    0    0  0.17490671975E+02 -0.16918607248E+03 -0.18323787107E+03  0.25001193596E+03  0.00000000000E+00 0.  1.
          1    1    3    3  501    0 -0.77026019045E+02  0.14555139758E+03  0.14648236757E+03  0.22039805116E+03  0.00000000000E+00 0.  1.
         21    1    1    2  502  501  0.59535347070E+02  0.23634674901E+02  0.26477018739E+02  0.69311528116E+02  0.00000000000E+00 0. -1.
<scales pt_clust_4="550.00000" pt_clust_5="550.00000" pt_clust_6="64.05510"></scales>
<mgrwt>
<rscale>  0 0.30000000E+03</rscale>
<asrwt>  1 0.64055097E+02</asrwt>
<pdfrwt beam="1">  1        1 0.96262369E+00 0.30000000E+03</pdfrwt>
<pdfrwt beam="2">0</pdfrwt>
<totfact> 0.59844625E-06</totfact>
</mgrwt>
<clustering>
<clus scale="   64.055">  1  6  2 -1</clus>
<clus scale="  464.577">  4  5 -1 -1</clus>
<clus scale="  300.000">  1  4  2 -1</clus>
</clustering>
</event>
<event>
 6    1  0.9254630E-012  0.3000000E+03  0.7818608E-02  0.1093470E+00
          1   -1    0    0  502    0  0.00000000000E+00  0.00000000000E+00  0.22363987148E+03  0.22363987148E+03  0.00000000000E+00 0.  1.
         13   -1    0    0    0    0 -0.00000000000E+00 -0.00000000000E+00 -0.27500000000E+03  0.27500000000E+03  0.00000000000E+00 0.  1.
    9000005    2    1    2  501    0  0.17744554646E+02  0.26449582083E+02 -0.49747959696E+02  0.46674867049E+03  0.46299569361E+03 0.  0.
         13    1    3    3    0    0 -0.56879663397E+02  0.23527224459E+03 -0.34113218293E+02  0.24444229758E+03  0.00000000000E+00 0.  1.
          3    1    3    3  501    0  0.74624218044E+02 -0.20882266251E+03 -0.15634741404E+02  0.22230637291E+03  0.00000000000E+00 0.  1.
         21    1    1    2  502  501 -0.17744554646E+02 -0.26449582083E+02 -0.16121688279E+01  0.31891200986E+02  0.00000000000E+00 0. -1.
<scales pt_clust_4="550.00000" pt_clust_5="550.00000" pt_clust_6="31.85043"></scales>
<mgrwt>
<rscale>  0 0.30000000E+03</rscale>
<asrwt>  1 0.31850426E+02</asrwt>
<pdfrwt beam="1">  1        1 0.81323590E+00 0.30000000E+03</pdfrwt>
<pdfrwt beam="2">0</pdfrwt>
<totfact> 0.83718020E-04</totfact>
</mgrwt>
<clustering>
<clus scale="   31.850">  1  6  2 -1</clus>
<clus scale="  462.996">  4  5 -1 -1</clus>
<clus scale="  300.000">  1  4  2 -1</clus>
</clustering>
</event>
<event>
 6    1  0.9254630E-012  0.3000000E+03  0.7818608E-02  0.1093470E+00
          1   -1    0    0  502    0  0.00000000000E+00  0.00000000000E+00  0.22750517076E+03  0.22750517076E+03  0.00000000000E+00 0.  1.
         13   -1    0    0    0    0 -0.00000000000E+00 -0.00000000000E+00 -0.27500000000E+03  0.27500000000E+03  0.00000000000E+00 0.  1.
    9000005    2    1    2  501    0 -0.21348709422E+02 -0.24170992259E+02 -0.42254374924E+02  0.46983306305E+03  0.46681652785E+03 0.  0.
         13    1    3    3    0    0  0.21631504006E+03 -0.54481380235E+02  0.14745564896E+02  0.22355726120E+03  0.00000000000E+00 0.  1.
          1    1    3    3  501    0 -0.23766374949E+03  0.30310387975E+02 -0.56999939820E+02  0.24627580185E+03  0.00000000000E+00 0.  1.
         21    1    1    2  502  501  0.21348709422E+02  0.24170992259E+02 -0.52404543166E+01  0.32672107710E+02  0.00000000000E+00 0. -1.
<scales pt_clust_4="550.00000" pt_clust_5="550.00000" pt_clust_6="32.24911"></scales>
<mgrwt>
<rscale>  0 0.30000000E+03</rscale>
<asrwt>  1 0.32249113E+02</asrwt>
<pdfrwt beam="1">  1        1 0.82729153E+00 0.30000000E+03</pdfrwt>
<pdfrwt beam="2">0</pdfrwt>
<totfact> 0.63303171E-04</totfact>
</mgrwt>
<clustering>
<clus scale="   32.249">  1  6  2 -1</clus>
<clus scale="  466.817">  4  5 -1 -1</clus>
<clus scale="  300.000">  1  4  2 -1</clus>
</clustering>
</event>
<event>
 6    1  0.9254630E-012  0.3000000E+03  0.7818608E-02  0.1093470E+00
          1   -1    0    0  502    0  0.00000000000E+00  0.00000000000E+00  0.24896446348E+03  0.24896446348E+03  0.00000000000E+00 0.  1.
         13   -1    0    0    0    0 -0.00000000000E+00 -0.00000000000E+00 -0.27500000000E+03  0.27500000000E+03  0.00000000000E+00 0.  1.
    9000005    2    1    2  501    0  0.34906227882E+02 -0.45451750173E+01 -0.22059693015E+02  0.48853974481E+03  0.48677032453E+03 0.  0.
         13    1    3    3    0    0  0.15453331034E+03  0.18069502080E+03 -0.95349538036E+02  0.25616941455E+03  0.00000000000E+00 0.  1.
          1    1    3    3  501    0 -0.11962708246E+03 -0.18524019582E+03  0.73289845021E+02  0.23237033027E+03  0.00000000000E+00 0.  1.
         21    1    1    2  502  501 -0.34906227882E+02  0.45451750173E+01 -0.39758435056E+01  0.35424718665E+02  0.00000000000E+00 0.  1.
<scales pt_clust_4="550.00000" pt_clust_5="550.00000" pt_clust_6="35.20092"></scales>
<mgrwt>
<rscale>  0 0.30000000E+03</rscale>
<asrwt>  1 0.35200918E+02</asrwt>
<pdfrwt beam="1">  1        1 0.90532532E+00 0.30000000E+03</pdfrwt>
<pdfrwt beam="2">0</pdfrwt>
<totfact> 0.91052217E-05</totfact>
</mgrwt>
<clustering>
<clus scale="   35.201">  1  6  2 -1</clus>
<clus scale="  486.770">  4  5 -1 -1</clus>
<clus scale="  300.000">  1  4  2 -1</clus>
</clustering>
</event>
<event>
 6    1  0.9254630E-012  0.3000000E+03  0.7818608E-02  0.1093470E+00
          1   -1    0    0  502    0  0.00000000000E+00  0.00000000000E+00  0.22916912439E+03  0.22916912439E+03  0.00000000000E+00 0.  1.
         13   -1    0    0    0    0 -0.00000000000E+00 -0.00000000000E+00 -0.27500000000E+03  0.27500000000E+03  0.00000000000E+00 0.  1.
    9000005    2    1    2  501    0  0.11735786990E+02 -0.40137610084E+02 -0.53338493634E+02  0.46168241155E+03  0.45668030152E+03 0.  0.
         13    1    3    3    0    0 -0.16810957266E+03  0.94756613127E+02  0.69974614937E+02  0.20527077456E+03  0.00000000000E+00 0.  1.
          3    1    3    3  501    0  0.17984535965E+03 -0.13489422321E+03 -0.12331310857E+03  0.25641163700E+03  0.00000000000E+00 0.  1.
         21    1    1    2  502  501 -0.11735786990E+02  0.40137610084E+02  0.75076180290E+01  0.42486712841E+02  0.00000000000E+00 0. -1.
<scales pt_clust_4="550.00000" pt_clust_5="550.00000" pt_clust_6="41.81814"></scales>
<mgrwt>
<rscale>  0 0.30000000E+03</rscale>
<asrwt>  1 0.41818135E+02</asrwt>
<pdfrwt beam="1">  1        1 0.83334227E+00 0.30000000E+03</pdfrwt>
<pdfrwt beam="2">0</pdfrwt>
<totfact> 0.53852372E-04</totfact>
</mgrwt>
<clustering>
<clus scale="   41.818">  1  6  2 -1</clus>
<clus scale="  456.680">  4  5 -1 -1</clus>
<clus scale="  300.000">  1  4  2 -1</clus>
</clustering>
</event>
<event>
 6    1  0.9254630E-012  0.3000000E+03  0.7818608E-02  0.1093470E+00
          1   -1    0    0  502    0  0.00000000000E+00  0.00000000000E+00  0.24179369837E+03  0.24179369837E+03  0.00000000000E+00 0.  1.
         13   -1    0    0    0    0 -0.00000000000E+00 -0.00000000000E+00 -0.27500000000E+03  0.27500000000E+03  0.00000000000E+00 0.  1.
    9000005    2    1    2  501    0  0.28056729478E+01  0.39391693232E+02 -0.46943222555E+02  0.47498125653E+03  0.47100313227E+03 0.  0.
         13    1    3    3    0    0  0.80076215580E+02  0.18579310398E+03 -0.17356649940E+03  0.26656445282E+03  0.00000000000E+00 0.  1.
          3    1    3    3  501    0 -0.77270542632E+02 -0.14640141075E+03  0.12662327685E+03  0.20841680371E+03  0.00000000000E+00 0.  1.
         21    1    1    2  502  501 -0.28056729478E+01 -0.39391693232E+02  0.13736920922E+02  0.41812441842E+02  0.00000000000E+00 0.  1.
<scales pt_clust_4="550.00000" pt_clust_5="550.00000" pt_clust_6="39.49148"></scales>
<mgrwt>
<rscale>  0 0.30000000E+03</rscale>
<asrwt>  1 0.39491484E+02</asrwt>
<pdfrwt beam="1">  1        1 0.87924981E+00 0.30000000E+03</pdfrwt>
<pdfrwt beam="2">0</pdfrwt>
<totfact> 0.19711881E-04</totfact>
</mgrwt>
<clustering>
<clus scale="   39.491">  1  6  2 -1</clus>
<clus scale="  471.003">  4  5 -1 -1</clus>
<clus scale="  300.000">  1  4  2 -1</clus>
</clustering>
</event>
<event>
 6    1  0.9254630E-012  0.3000000E+03  0.7818608E-02  0.1093470E+00
          1   -1    0    0  502    0  0.00000000000E+00  0.00000000000E+00  0.24068736430E+03  0.24068736430E+03  0.00000000000E+00 0.  1.
         13   -1    0    0    0    0 -0.00000000000E+00 -0.00000000000E+00 -0.27500000000E+03  0.27500000000E+03  0.00000000000E+00 0.  1.
    9000005    2    1    2  501    0  0.32966499138E+02  0.25683349241E+02 -0.95817969242E+01  0.46712772179E+03  0.46515596646E+03 0.  0.
         13    1    3    3    0    0 -0.14013872626E+03  0.39681755078E+02 -0.17472851797E+03  0.22747210659E+03  0.00000000000E+00 0.  1.
          3    1    3    3  501    0  0.17310522540E+03 -0.13998405836E+02  0.16514672105E+03  0.23965561520E+03  0.00000000000E+00 0.  1.
         21    1    1    2  502  501 -0.32966499138E+02 -0.25683349241E+02 -0.24730838780E+02  0.48559642507E+02  0.00000000000E+00 0.  1.
<scales pt_clust_4="550.00000" pt_clust_5="550.00000" pt_clust_6="41.79026"></scales>
<mgrwt>
<rscale>  0 0.30000000E+03</rscale>
<asrwt>  1 0.41790265E+02</asrwt>
<pdfrwt beam="1">  1        1 0.87522678E+00 0.30000000E+03</pdfrwt>
<pdfrwt beam="2">0</pdfrwt>
<totfact> 0.21650499E-04</totfact>
</mgrwt>
<clustering>
<clus scale="   41.790">  1  6  2 -1</clus>
<clus scale="  465.156">  4  5 -1 -1</clus>
<clus scale="  300.000">  1  4  2 -1</clus>
</clustering>
</event>
<event>
 6    1  0.9254630E-012  0.3000000E+03  0.7818608E-02  0.1093470E+00
          1   -1    0    0  502    0  0.00000000000E+00  0.00000000000E+00  0.24247804471E+03  0.24247804471E+03  0.00000000000E+00 0.  1.
         13   -1    0    0    0    0 -0.00000000000E+00 -0.00000000000E+00 -0.27500000000E+03  0.27500000000E+03  0.00000000000E+00 0.  1.
    9000005    2    1    2  501    0 -0.29981337176E+02  0.10200388272E+02 -0.62976049222E+02  0.47354195093E+03  0.46826602270E+03 0.  0.
         13    1    3    3    0    0  0.10959242531E+03  0.19476464502E+03  0.27332466811E+02  0.22514624220E+03  0.00000000000E+00 0.  1.
          1    1    3    3  501    0 -0.13957376249E+03 -0.18456425675E+03 -0.90308516033E+02  0.24839570872E+03  0.00000000000E+00 0.  1.
         21    1    1    2  502  501  0.29981337176E+02 -0.10200388272E+02  0.30454093935E+02  0.43936093786E+02  0.00000000000E+00 0.  1.
<scales pt_clust_4="550.00000" pt_clust_5="550.00000" pt_clust_6="31.66905"></scales>
<mgrwt>
<rscale>  0 0.30000000E+03</rscale>
<asrwt>  1 0.31669046E+02</asrwt>
<pdfrwt beam="1">  1        1 0.88173834E+00 0.30000000E+03</pdfrwt>
<pdfrwt beam="2">0</pdfrwt>
<totfact> 0.19121272E-04</totfact>
</mgrwt>
<clustering>
<clus scale="   31.669">  1  6  2 -1</clus>
<clus scale="  468.266">  4  5 -1 -1</clus>
<clus scale="  300.000">  1  4  2 -1</clus>
</clustering>
</event>
<event>
 6    1  0.9254630E-012  0.3000000E+03  0.7818608E-02  0.1093470E+00
          1   -1    0    0  502    0  0.00000000000E+00  0.00000000000E+00  0.23977840801E+03  0.23977840801E+03  0.00000000000E+00 0.  1.
         13   -1    0    0    0    0 -0.00000000000E+00 -0.00000000000E+00 -0.27500000000E+03  0.27500000000E+03  0.00000000000E+00 0.  1.
    9000005    2    1    2  501    0 -0.25517575688E+02  0.18073049938E+02 -0.64000679855E+02  0.47228114102E+03  0.46687857880E+03 0.  0.
         13    1    3    3    0    0 -0.20292116323E+03  0.14532517275E+03 -0.32709174934E+02  0.25172662641E+03  0.00000000000E+00 0.  1.
          3    1    3    3  501    0  0.17740358755E+03 -0.12725212281E+03 -0.31291504922E+02  0.22055451461E+03  0.00000000000E+00 0.  1.
         21    1    1    2  502  501  0.25517575688E+02 -0.18073049938E+02  0.28779087861E+02  0.42497266985E+02  0.00000000000E+00 0.  1.
<scales pt_clust_4="550.00000" pt_clust_5="550.00000" pt_clust_6="31.26950"></scales>
<mgrwt>
<rscale>  0 0.30000000E+03</rscale>
<asrwt>  1 0.31269503E+02</asrwt>
<pdfrwt beam="1">  1        1 0.87192148E+00 0.30000000E+03</pdfrwt>
<pdfrwt beam="2">0</pdfrwt>
<totfact> 0.24727643E-04</totfact>
</mgrwt>
<clustering>
<clus scale="   31.270">  1  6  2 -1</clus>
<clus scale="  466.879">  4  5 -1 -1</clus>
<clus scale="  300.000">  1  4  2 -1</clus>
</clustering>
</event>
<event>
 6    1  0.9254630E-012  0.3000000E+03  0.7818608E-02  0.1093470E+00
          1   -1    0    0  502    0  0.00000000000E+00  0.00000000000E+00  0.26097293737E+03  0.26097293737E+03  0.00000000000E+00 0.  1.
         13   -1    0    0    0    0 -0.00000000000E+00 -0.00000000000E+00 -0.27500000000E+03  0.27500000000E+03  0.00000000000E+00 0.  1.
    9000005    2    1    2  501    0 -0.93652194777E+01  0.29446014126E+02 -0.29525429781E+02  0.50140453463E+03  0.49957980469E+03 0.  0.
         13    1    3    3    0    0 -0.77124125523E+02 -0.16653837942E+03  0.14219285735E+03  0.23216798065E+03  0.00000000000E+00 0.  1.
          3    1    3    3  501    0  0.67758906045E+02  0.19598439355E+03 -0.17171828713E+03  0.26923655398E+03  0.00000000000E+00 0.  1.
         21    1    1    2  502  501  0.93652194777E+01 -0.29446014126E+02  0.15498367148E+02  0.34568402740E+02  0.00000000000E+00 0.  1.
<scales pt_clust_4="550.00000" pt_clust_5="550.00000" pt_clust_6="30.89944"></scales>
<mgrwt>
<rscale>  0 0.30000000E+03</rscale>
<asrwt>  1 0.30899435E+02</asrwt>
<pdfrwt beam="1">  1        1 0.94899250E+00 0.30000000E+03</pdfrwt>
<pdfrwt beam="2">0</pdfrwt>
<totfact> 0.13247496E-05</totfact>
</mgrwt>
<clustering>
<clus scale="   30.899">  1  6  2 -1</clus>
<clus scale="  499.580">  4  5 -1 -1</clus>
<clus scale="  300.000">  1  4  2 -1</clus>
</clustering>
</event>
<event>
 6    1  0.9254630E-012  0.3000000E+03  0.7818608E-02  0.1093470E+00
          1   -1    0    0  502    0  0.00000000000E+00  0.00000000000E+00  0.26120550164E+03  0.26120550164E+03  0.00000000000E+00 0.  1.
         13   -1    0    0    0    0 -0.00000000000E+00 -0.00000000000E+00 -0.27500000000E+03  0.27500000000E+03  0.00000000000E+00 0.  1.
    9000005    2    1    2  501    0 -0.14264498380E+02 -0.27411919436E+02 -0.45129359160E+02  0.49219683496E+03  0.48914841924E+03 0.  0.
         13    1    3    3    0    0  0.23089699895E+03  0.17870791048E+02  0.25733972298E+02  0.23301293232E+03  0.00000000000E+00 0.  1.
          1    1    3    3  501    0 -0.24516149733E+03 -0.45282710484E+02 -0.70863331457E+02  0.25918390264E+03  0.00000000000E+00 0.  1.
         21    1    1    2  502  501  0.14264498380E+02  0.27411919436E+02  0.31334860800E+02  0.44008666676E+02  0.00000000000E+00 0.  1.
<scales pt_clust_4="550.00000" pt_clust_5="550.00000" pt_clust_6="30.90128"></scales>
<mgrwt>
<rscale>  0 0.30000000E+03</rscale>
<asrwt>  1 0.30901282E+02</asrwt>
<pdfrwt beam="1">  1        1 0.94983819E+00 0.30000000E+03</pdfrwt>
<pdfrwt beam="2">0</pdfrwt>
<totfact> 0.12727713E-05</totfact>
</mgrwt>
<clustering>
<clus scale="   30.901">  1  6  2 -1</clus>
<clus scale="  489.148">  4  5 -1 -1</clus>
<clus scale="  300.000">  1  4  2 -1</clus>
</clustering>
</event>
<event>
 6    1  0.9254630E-012  0.3000000E+03  0.7818608E-02  0.1093470E+00
          1   -1    0    0  502    0  0.00000000000E+00  0.00000000000E+00  0.23924774535E+03  0.23924774535E+03  0.00000000000E+00 0.  1.
         13   -1    0    0    0    0 -0.00000000000E+00 -0.00000000000E+00 -0.27500000000E+03  0.27500000000E+03  0.00000000000E+00 0.  1.
    9000005    2    1    2  501    0  0.23745568544E+02  0.21435273943E+02 -0.54348414961E+02  0.47724585117E+03  0.47306080926E+03 0.  0.
         13    1    3    3    0    0  0.59043351159E+02 -0.27784478727E+02 -0.25730179869E+03  0.26544737743E+03  0.00000000000E+00 0.  1.
          3    1    3    3  501    0 -0.35297782615E+02  0.49219752670E+02  0.20295338373E+03  0.21179847374E+03  0.00000000000E+00 0.  1.
         21    1    1    2  502  501 -0.23745568544E+02 -0.21435273943E+02  0.18596160314E+02  0.37001894180E+02  0.00000000000E+00 0.  1.
<scales pt_clust_4="550.00000" pt_clust_5="550.00000" pt_clust_6="31.98942"></scales>
<mgrwt>
<rscale>  0 0.30000000E+03</rscale>
<asrwt>  1 0.31989420E+02</asrwt>
<pdfrwt beam="1">  1        1 0.86999180E+00 0.30000000E+03</pdfrwt>
<pdfrwt beam="2">0</pdfrwt>
<totfact> 0.25763325E-04</totfact>
</mgrwt>
<clustering>
<clus scale="   31.989">  1  6  2 -1</clus>
<clus scale="  473.061">  4  5 -1 -1</clus>
<clus scale="  300.000">  1  4  2 -1</clus>
</clustering>
</event>
<event>
 6    1  0.9254630E-012  0.3000000E+03  0.7818608E-02  0.1093470E+00
          1   -1    0    0  502    0  0.00000000000E+00  0.00000000000E+00  0.22665110346E+03  0.22665110346E+03  0.00000000000E+00 0.  1.
         13   -1    0    0    0    0 -0.00000000000E+00 -0.00000000000E+00 -0.27500000000E+03  0.27500000000E+03  0.00000000000E+00 0.  1.
    9000005    2    1    2  501    0  0.34725303722E+02  0.53333365496E+01 -0.57770366062E+02  0.46527727653E+03  0.46033817750E+03 0.  0.
         13    1    3    3    0    0 -0.90383839712E+01 -0.10339877768E+03  0.17568284426E+03  0.20405259463E+03  0.00000000000E+00 0.  1.
          1    1    3    3  501    0  0.43763687693E+02  0.10873211423E+03 -0.23345321032E+03  0.26122468190E+03  0.00000000000E+00 0.  1.
         21    1    1    2  502  501 -0.34725303722E+02 -0.53333365496E+01  0.94214695216E+01  0.36373826927E+02  0.00000000000E+00 0.  1.
<scales pt_clust_4="550.00000" pt_clust_5="550.00000" pt_clust_6="35.13248"></scales>
<mgrwt>
<rscale>  0 0.30000000E+03</rscale>
<asrwt>  1 0.35132481E+02</asrwt>
<pdfrwt beam="1">  1        1 0.82418583E+00 0.30000000E+03</pdfrwt>
<pdfrwt beam="2">0</pdfrwt>
<totfact> 0.66373511E-04</totfact>
</mgrwt>
<clustering>
<clus scale="   35.132">  1  6  2 -1</clus>
<clus scale="  460.338">  4  5 -1 -1</clus>
<clus scale="  300.000">  1  4  2 -1</clus>
</clustering>
</event>
<event>
 6    1  0.9254630E-012  0.3000000E+03  0.7818608E-02  0.1093470E+00
          1   -1    0    0  502    0  0.00000000000E+00  0.00000000000E+00  0.23718293030E+03  0.23718293030E+03  0.00000000000E+00 0.  1.
         13   -1    0    0    0    0 -0.00000000000E+00 -0.00000000000E+00 -0.27500000000E+03  0.27500000000E+03  0.00000000000E+00 0.  1.
    9000005    2    1    2  501    0 -0.14919204509E+02 -0.26756325624E+02 -0.50823396528E+02  0.47890158174E+03  0.47521071509E+03 0.  0.
         13    1    3    3    0    0 -0.82784378786E+02 -0.14413037642E+03 -0.21128636183E+03  0.26882846849E+03  0.00000000000E+00 0.  1.
          3    1    3    3  501    0  0.67865174277E+02  0.11737405079E+03  0.16046296530E+03  0.21007311325E+03  0.00000000000E+00 0.  1.
         21    1    1    2  502  501  0.14919204509E+02  0.26756325624E+02  0.13006326827E+02  0.33281348554E+02  0.00000000000E+00 0.  1.
<scales pt_clust_4="550.00000" pt_clust_5="550.00000" pt_clust_6="30.63468"></scales>
<mgrwt>
<rscale>  0 0.30000000E+03</rscale>
<asrwt>  1 0.30634680E+02</asrwt>
<pdfrwt beam="1">  1        1 0.86248338E+00 0.30000000E+03</pdfrwt>
<pdfrwt beam="2">0</pdfrwt>
<totfact> 0.31193743E-04</totfact>
</mgrwt>
<clustering>
<clus scale="   30.635">  1  6  2 -1</clus>
<clus scale="  475.211">  4  5 -1 -1</clus>
<clus scale="  300.000">  1  4  2 -1</clus>
</clustering>
</event>
<event>
 6    1  0.9254630E-012  0.3000000E+03  0.7818608E-02  0.1093470E+00
          1   -1    0    0  502    0  0.00000000000E+00  0.00000000000E+00  0.24166353241E+03  0.24166353241E+03  0.00000000000E+00 0.  1.
         13   -1    0    0    0    0 -0.00000000000E+00 -0.00000000000E+00 -0.27500000000E+03  0.27500000000E+03  0.00000000000E+00 0.  1.
    9000005    2    1    2  501    0 -0.27768551117E+02  0.19012624269E+02 -0.19519791216E+02  0.48028396591E+03  0.47870564374E+03 0.  0.
         13    1    3    3    0    0  0.24324084348E+00 -0.95098240091E+01  0.22868374784E+03  0.22888152491E+03  0.00000000000E+00 0.  1.
          3    1    3    3  501    0 -0.28011791961E+02  0.28522448278E+02 -0.24820353905E+03  0.25140244101E+03  0.00000000000E+00 0.  1.
         21    1    1    2  502  501  0.27768551117E+02 -0.19012624269E+02 -0.13816676372E+02  0.36379566500E+02  0.00000000000E+00 0. -1.
<scales pt_clust_4="550.00000" pt_clust_5="550.00000" pt_clust_6="33.65373"></scales>
<mgrwt>
<rscale>  0 0.30000000E+03</rscale>
<asrwt>  1 0.33653729E+02</asrwt>
<pdfrwt beam="1">  1        1 0.87877648E+00 0.30000000E+03</pdfrwt>
<pdfrwt beam="2">0</pdfrwt>
<totfact> 0.20571473E-04</totfact>
</mgrwt>
<clustering>
<clus scale="   33.654">  1  6  2 -1</clus>
<clus scale="  478.706">  4  5 -1 -1</clus>
<clus scale="  300.000">  1  4  2 -1</clus>
</clustering>
</event>
<event>
 6    1  0.9254630E-012  0.3000000E+03  0.7818608E-02  0.1093470E+00
          1   -1    0    0  502    0  0.00000000000E+00  0.00000000000E+00  0.24707686925E+03  0.24707686925E+03  0.00000000000E+00 0.  1.
         13   -1    0    0    0    0 -0.00000000000E+00 -0.00000000000E+00 -0.27500000000E+03  0.27500000000E+03  0.00000000000E+00 0.  1.
    9000005    2    1    2  501    0 -0.34543298671E+02  0.44209770441E+02 -0.34666797204E+02  0.46556828297E+03  0.46087340561E+03 0.  0.
         13    1    3    3    0    0  0.15405012365E+03 -0.13394249841E+03 -0.28005241242E+02  0.20604933151E+03  0.00000000000E+00 0.  1.
          3    1    3    3  501    0 -0.18859342232E+03  0.17815226885E+03 -0.66615559626E+01  0.25951895146E+03  0.00000000000E+00 0.  1.
         21    1    1    2  502  501  0.34543298671E+02 -0.44209770441E+02  0.67436664529E+01  0.56508586275E+02  0.00000000000E+00 0.  1.
<scales pt_clust_4="550.00000" pt_clust_5="550.00000" pt_clust_6="56.10475"></scales>
<mgrwt>
<rscale>  0 0.30000000E+03</rscale>
<asrwt>  1 0.56104753E+02</asrwt>
<pdfrwt beam="1">  1        1 0.89846134E+00 0.30000000E+03</pdfrwt>
<pdfrwt beam="2">0</pdfrwt>
<totfact> 0.10591553E-04</totfact>
</mgrwt>
<clustering>
<clus scale="   56.105">  1  6  2 -1</clus>
<clus scale="  460.873">  4  5 -1 -1</clus>
<clus scale="  300.000">  1  4  2 -1</clus>
</clustering>
</event>
<event>
 6    1  0.9254630E-012  0.3000000E+03  0.7818608E-02  0.1093470E+00
          1   -1    0    0  502    0  0.00000000000E+00  0.00000000000E+00  0.22571259983E+03  0.22571259983E+03  0.00000000000E+00 0.  1.
         13   -1    0    0    0    0 -0.00000000000E+00 -0.00000000000E+00 -0.27500000000E+03  0.27500000000E+03  0.00000000000E+00 0.  1.
    9000005    2    1    2  501    0 -0.23214822104E+02 -0.30472648903E+02 -0.57069340498E+02  0.46162207807E+03  0.45647620205E+03 0.  0.
         13    1    3    3    0    0 -0.33208016216E+02 -0.22980951195E+03 -0.10733190580E+03  0.25580328795E+03  0.00000000000E+00 0.  1.
          3    1    3    3  501    0  0.99931941123E+01  0.19933686304E+03  0.50262565302E+02  0.20581879012E+03  0.00000000000E+00 0.  1.
         21    1    1    2  502  501  0.23214822104E+02  0.30472648903E+02  0.77819403307E+01  0.39090521764E+02  0.00000000000E+00 0. -1.
<scales pt_clust_4="550.00000" pt_clust_5="550.00000" pt_clust_6="38.30810"></scales>
<mgrwt>
<rscale>  0 0.30000000E+03</rscale>
<asrwt>  1 0.38308097E+02</asrwt>
<pdfrwt beam="1">  1        1 0.82077309E+00 0.30000000E+03</pdfrwt>
<pdfrwt beam="2">0</pdfrwt>
<totfact> 0.70033653E-04</totfact>
</mgrwt>
<clustering>
<clus scale="   38.308">  1  6  2 -1</clus>
<clus scale="  456.476">  4  5 -1 -1</clus>
<clus scale="  300.000">  1  4  2 -1</clus>
</clustering>
</event>
<event>
 6    1  0.9254630E-012  0.3000000E+03  0.7818608E-02  0.1093470E+00
          1   -1    0    0  502    0  0.00000000000E+00  0.00000000000E+00  0.23508347505E+03  0.23508347505E+03  0.00000000000E+00 0.  1.
         13   -1    0    0    0    0 -0.00000000000E+00 -0.00000000000E+00 -0.27500000000E+03  0.27500000000E+03  0.00000000000E+00 0.  1.
    9000005    2    1    2  501    0 -0.34639145860E+02  0.13869521760E+02 -0.48708564412E+02  0.47174897339E+03  0.46774174026E+03 0.  0.
         13    1    3    3    0    0 -0.71751199330E+02  0.10171283288E+03 -0.23304674098E+03  0.26420544744E+03  0.00000000000E+00 0.  1.
          3    1    3    3  501    0  0.37112053470E+02 -0.87843311122E+02  0.18433817657E+03  0.20754352594E+03  0.00000000000E+00 0.  1.
         21    1    1    2  502  501  0.34639145860E+02 -0.13869521760E+02  0.87920394608E+01  0.38334501662E+02  0.00000000000E+00 0.  1.
<scales pt_clust_4="550.00000" pt_clust_5="550.00000" pt_clust_6="37.31265"></scales>
<mgrwt>
<rscale>  0 0.30000000E+03</rscale>
<asrwt>  1 0.37312653E+02</asrwt>
<pdfrwt beam="1">  1        1 0.85484900E+00 0.30000000E+03</pdfrwt>
<pdfrwt beam="2">0</pdfrwt>
<totfact> 0.36126841E-04</totfact>
</mgrwt>
<clustering>
<clus scale="   37.313">  1  6  2 -1</clus>
<clus scale="  467.742">  4  5 -1 -1</clus>
<clus scale="  300.000">  1  4  2 -1</clus>
</clustering>
</event>
<event>
 6    1  0.9254630E-012  0.3000000E+03  0.7818608E-02  0.1093470E+00
          1   -1    0    0  502    0  0.00000000000E+00  0.00000000000E+00  0.24046753415E+03  0.24046753415E+03  0.00000000000E+00 0.  1.
         13   -1    0    0    0    0 -0.00000000000E+00 -0.00000000000E+00 -0.27500000000E+03  0.27500000000E+03  0.00000000000E+00 0.  1.
    9000005    2    1    2  501    0 -0.14875118112E+02 -0.44904772723E+02 -0.57906053881E+02  0.46270360358E+03  0.45662216978E+03 0.  0.
         13    1    3    3    0    0  0.16446933670E+03 -0.16940458239E+03  0.26984038796E+01  0.23612572209E+03  0.00000000000E+00 0.  1.
          3    1    3    3  501    0 -0.17934445481E+03  0.12449980967E+03 -0.60604457760E+02  0.22657788149E+03  0.00000000000E+00 0.  1.
         21    1    1    2  502  501  0.14875118112E+02  0.44904772723E+02  0.23373588032E+02  0.52763930575E+02  0.00000000000E+00 0.  1.
<scales pt_clust_4="550.00000" pt_clust_5="550.00000" pt_clust_6="47.30442"></scales>
<mgrwt>
<rscale>  0 0.30000000E+03</rscale>
<asrwt>  1 0.47304416E+02</asrwt>
<pdfrwt beam="1">  1        1 0.87442740E+00 0.30000000E+03</pdfrwt>
<pdfrwt beam="2">0</pdfrwt>
<totfact> 0.21590425E-04</totfact>
</mgrwt>
<clustering>
<clus scale="   47.304">  1  6  2 -1</clus>
<clus scale="  456.622">  4  5 -1 -1</clus>
<clus scale="  300.000">  1  4  2 -1</clus>
</clustering>
</event>
<event>
 6    1  0.9254630E-012  0.3000000E+03  0.7818608E-02  0.1093470E+00
          1   -1    0    0  502    0  0.00000000000E+00  0.00000000000E+00  0.24372328768E+03  0.24372328768E+03  0.00000000000E+00 0.  1.
         13   -1    0    0    0    0 -0.00000000000E+00 -0.00000000000E+00 -0.27500000000E+03  0.27500000000E+03  0.00000000000E+00 0.  1.
    9000005    2    1    2  501    0 -0.43289724402E+02  0.37639834850E+01 -0.31240911396E+02  0.47527021999E+03  0.47224741360E+03 0.  0.
         13    1    3    3    0    0  0.11273469572E+03  0.19199569083E+03 -0.55854293988E+02  0.22954554901E+03  0.00000000000E+00 0.  1.
          3    1    3    3  501    0 -0.15602442012E+03 -0.18823170734E+03  0.24613382592E+02  0.24572467097E+03  0.00000000000E+00 0.  1.
         21    1    1    2  502  501  0.43289724402E+02 -0.37639834850E+01 -0.35800921383E-01  0.43453067695E+02  0.00000000000E+00 0. -1.
<scales pt_clust_4="550.00000" pt_clust_5="550.00000" pt_clust_6="43.45305"></scales>
<mgrwt>
<rscale>  0 0.30000000E+03</rscale>
<asrwt>  1 0.43453053E+02</asrwt>
<pdfrwt beam="1">  1        1 0.88626650E+00 0.30000000E+03</pdfrwt>
<pdfrwt beam="2">0</pdfrwt>
<totfact> 0.15669127E-04</totfact>
</mgrwt>
<clustering>
<clus scale="   43.453">  1  6  2 -1</clus>
<clus scale="  472.247">  4  5 -1 -1</clus>
<clus scale="  300.000">  1  4  2 -1</clus>
</clustering>
</event>
<event>
 6    1  0.9254630E-012  0.3000000E+03  0.7818608E-02  0.1093470E+00
          1   -1    0    0  502    0  0.00000000000E+00  0.00000000000E+00  0.22599850124E+03  0.22599850124E+03  0.00000000000E+00 0.  1.
         13   -1    0    0    0    0 -0.00000000000E+00 -0.00000000000E+00 -0.27500000000E+03  0.27500000000E+03  0.00000000000E+00 0.  1.
    9000005    2    1    2  501    0 -0.32150442821E+02 -0.52829322968E+01 -0.61970450586E+02  0.46593065188E+03  0.46064028837E+03 0.  0.
         13    1    3    3    0    0 -0.19149549654E+03 -0.16120437106E+02 -0.18313399760E+03  0.26545895119E+03  0.00000000000E+00 0.  1.
          3    1    3    3  501    0  0.15934505372E+03  0.10837504809E+02  0.12116354702E+03  0.20047170070E+03  0.00000000000E+00 0.  1.
         21    1    1    2  502  501  0.32150442821E+02  0.52829322968E+01  0.12968951830E+02  0.35067849361E+02  0.00000000000E+00 0. -1.
<scales pt_clust_4="550.00000" pt_clust_5="550.00000" pt_clust_6="32.58160"></scales>
<mgrwt>
<rscale>  0 0.30000000E+03</rscale>
<asrwt>  1 0.32581595E+02</asrwt>
<pdfrwt beam="1">  1        1 0.82181273E+00 0.30000000E+03</pdfrwt>
<pdfrwt beam="2">0</pdfrwt>
<totfact> 0.70678901E-04</totfact>
</mgrwt>
<clustering>
<clus scale="   32.582">  1  6  2 -1</clus>
<clus scale="  460.640">  4  5 -1 -1</clus>
<clus scale="  300.000">  1  4  2 -1</clus>
</clustering>
</event>
<event>
 6    1  0.9254630E-012  0.3000000E+03  0.7818608E-02  0.1093470E+00
          1   -1    0    0  502    0  0.00000000000E+00  0.00000000000E+00  0.23162049850E+03  0.23162049850E+03  0.00000000000E+00 0.  1.
         13   -1    0    0    0    0 -0.00000000000E+00 -0.00000000000E+00 -0.27500000000E+03  0.27500000000E+03  0.00000000000E+00 0.  1.
    9000005    2    1    2  501    0  0.32751231877E+02 -0.34219901834E+01 -0.48054209350E+02  0.47336082172E+03  0.46976260739E+03 0.  0.
         13    1    3    3    0    0  0.22790206118E+03 -0.10243316922E+03 -0.48510029525E+02  0.25452922546E+03  0.00000000000E+00 0.  1.
          3    1    3    3  501    0 -0.19515082930E+03  0.99011179038E+02  0.45582017511E+00  0.21883159627E+03  0.00000000000E+00 0.  1.
         21    1    1    2  502  501 -0.32751231877E+02  0.34219901834E+01  0.46747078550E+01  0.33259676784E+02  0.00000000000E+00 0.  1.
<scales pt_clust_4="550.00000" pt_clust_5="550.00000" pt_clust_6="32.92952"></scales>
<mgrwt>
<rscale>  0 0.30000000E+03</rscale>
<asrwt>  1 0.32929519E+02</asrwt>
<pdfrwt beam="1">  1        1 0.84225636E+00 0.30000000E+03</pdfrwt>
<pdfrwt beam="2">0</pdfrwt>
<totfact> 0.48232812E-04</totfact>
</mgrwt>
<clustering>
<clus scale="   32.930">  1  6  2 -1</clus>
<clus scale="  469.763">  4  5 -1 -1</clus>
<clus scale="  300.000">  1  4  2 -1</clus>
</clustering>
</event>
<event>
 6    1  0.9254630E-012  0.3000000E+03  0.7818608E-02  0.1093470E+00
          1   -1    0    0  502    0  0.00000000000E+00  0.00000000000E+00  0.24323251890E+03  0.24323251890E+03  0.00000000000E+00 0.  1.
         13   -1    0    0    0    0 -0.00000000000E+00 -0.00000000000E+00 -0.27500000000E+03  0.27500000000E+03  0.00000000000E+00 0.  1.
    9000005    2    1    2  501    0  0.43966808305E+02  0.17915453529E+02 -0.22444316573E+02  0.46984899789E+03  0.46690501150E+03 0.  0.
         13    1    3    3    0    0 -0.20294107462E+03  0.56556882768E+02  0.34628837874E+02  0.21350156245E+03  0.00000000000E+00 0.  1.
          3    1    3    3  501    0  0.24690788292E+03 -0.38641429238E+02 -0.57073154448E+02  0.25634743545E+03  0.00000000000E+00 0.  1.
         21    1    1    2  502  501 -0.43966808305E+02 -0.17915453529E+02 -0.93231645313E+01  0.48383521002E+02  0.00000000000E+00 0. -1.
<scales pt_clust_4="550.00000" pt_clust_5="550.00000" pt_clust_6="47.47679"></scales>
<mgrwt>
<rscale>  0 0.30000000E+03</rscale>
<asrwt>  1 0.47476794E+02</asrwt>
<pdfrwt beam="1">  1        1 0.88448189E+00 0.30000000E+03</pdfrwt>
<pdfrwt beam="2">0</pdfrwt>
<totfact> 0.16318988E-04</totfact>
</mgrwt>
<clustering>
<clus scale="   47.477">  1  6  2 -1</clus>
<clus scale="  466.905">  4  5 -1 -1</clus>
<clus scale="  300.000">  1  4  2 -1</clus>
</clustering>
</event>
<event>
 6    1  0.9254630E-012  0.3000000E+03  0.7818608E-02  0.1093470E+00
          1   -1    0    0  502    0  0.00000000000E+00  0.00000000000E+00  0.24157393934E+03  0.24157393934E+03  0.00000000000E+00 0.  1.
         13   -1    0    0    0    0 -0.00000000000E+00 -0.00000000000E+00 -0.27500000000E+03  0.27500000000E+03  0.00000000000E+00 0.  1.
    9000005    2    1    2  501    0  0.26830551689E+02 -0.13950479187E+02 -0.44624844352E+02  0.48432634827E+03  0.48131708938E+03 0.  0.
         13    1    3    3    0    0 -0.16469484618E+03 -0.10199974152E+03 -0.15341606145E+03  0.24711298537E+03  0.00000000000E+00 0.  1.
          3    1    3    3  501    0  0.19152539787E+03  0.88049262330E+02  0.10879121709E+03  0.23721336291E+03  0.00000000000E+00 0.  1.
         21    1    1    2  502  501 -0.26830551689E+02  0.13950479187E+02  0.11198783694E+02  0.32247591069E+02  0.00000000000E+00 0.  1.
<scales pt_clust_4="550.00000" pt_clust_5="550.00000" pt_clust_6="30.24061"></scales>
<mgrwt>
<rscale>  0 0.30000000E+03</rscale>
<asrwt>  1 0.30240608E+02</asrwt>
<pdfrwt beam="1">  1        1 0.87845069E+00 0.30000000E+03</pdfrwt>
<pdfrwt beam="2">0</pdfrwt>
<totfact> 0.21180226E-04</totfact>
</mgrwt>
<clustering>
<clus scale="   30.241">  1  6  2 -1</clus>
<clus scale="  481.317">  4  5 -1 -1</clus>
<clus scale="  300.000">  1  4  2 -1</clus>
</clustering>
</event>
<event>
 6    1  0.9254630E-012  0.3000000E+03  0.7818608E-02  0.1093470E+00
          1   -1    0    0  502    0  0.00000000000E+00  0.00000000000E+00  0.23001419951E+03  0.23001419951E+03  0.00000000000E+00 0.  1.
         13   -1    0    0    0    0 -0.00000000000E+00 -0.00000000000E+00 -0.27500000000E+03  0.27500000000E+03  0.00000000000E+00 0.  1.
    9000005    2    1    2  501    0 -0.19984898722E+02  0.27862398844E+02 -0.46477981479E+02  0.47069312653E+03  0.46713606921E+03 0.  0.
         13    1    3    3    0    0  0.17135817926E+03  0.38302076642E+02  0.12339675981E+03  0.21460996017E+03  0.00000000000E+00 0.  1.
          1    1    3    3  501    0 -0.19134307798E+03 -0.10439677798E+02 -0.16987474129E+03  0.25608316636E+03  0.00000000000E+00 0.  1.
         21    1    1    2  502  501  0.19984898722E+02 -0.27862398844E+02  0.14921809898E+01  0.34321072978E+02  0.00000000000E+00 0. -1.
<scales pt_clust_4="550.00000" pt_clust_5="550.00000" pt_clust_6="34.28862"></scales>
<mgrwt>
<rscale>  0 0.30000000E+03</rscale>
<asrwt>  1 0.34288620E+02</asrwt>
<pdfrwt beam="1">  1        1 0.83641527E+00 0.30000000E+03</pdfrwt>
<pdfrwt beam="2">0</pdfrwt>
<totfact> 0.53036534E-04</totfact>
</mgrwt>
<clustering>
<clus scale="   34.289">  1  6  2 -1</clus>
<clus scale="  467.136">  4  5 -1 -1</clus>
<clus scale="  300.000">  1  4  2 -1</clus>
</clustering>
</event>
<event>
 6    1  0.9254630E-012  0.3000000E+03  0.7818608E-02  0.1093470E+00
          1   -1    0    0  502    0  0.00000000000E+00  0.00000000000E+00  0.23265340051E+03  0.23265340051E+03  0.00000000000E+00 0.  1.
         13   -1    0    0    0    0 -0.00000000000E+00 -0.00000000000E+00 -0.27500000000E+03  0.27500000000E+03  0.00000000000E+00 0.  1.
    9000005    2    1    2  501    0  0.19097751077E+02  0.35101663164E+02 -0.31923568627E+02  0.46635581673E+03  0.46354264390E+03 0.  0.
         13    1    3    3    0    0  0.16245793446E+03  0.19146135584E+03 -0.38980246777E+02  0.25410527521E+03  0.00000000000E+00 0.  1.
          3    1    3    3  501    0 -0.14336018338E+03 -0.15635969268E+03  0.70566781497E+01  0.21225054153E+03  0.00000000000E+00 0.  1.
         21    1    1    2  502  501 -0.19097751077E+02 -0.35101663164E+02 -0.10423030866E+02  0.41297583773E+02  0.00000000000E+00 0. -1.
<scales pt_clust_4="550.00000" pt_clust_5="550.00000" pt_clust_6="39.96064"></scales>
<mgrwt>
<rscale>  0 0.30000000E+03</rscale>
<asrwt>  1 0.39960636E+02</asrwt>
<pdfrwt beam="1">  1        1 0.84601237E+00 0.30000000E+03</pdfrwt>
<pdfrwt beam="2">0</pdfrwt>
<totfact> 0.43192899E-04</totfact>
</mgrwt>
<clustering>
<clus scale="   39.961">  1  6  2 -1</clus>
<clus scale="  463.543">  4  5 -1 -1</clus>
<clus scale="  300.000">  1  4  2 -1</clus>
</clustering>
</event>
<event>
 6    1  0.9254630E-012  0.3000000E+03  0.7818608E-02  0.1093470E+00
          1   -1    0    0  502    0  0.00000000000E+00  0.00000000000E+00  0.23501098965E+03  0.23501098965E+03  0.00000000000E+00 0.  1.
         13   -1    0    0    0    0 -0.00000000000E+00 -0.00000000000E+00 -0.27500000000E+03  0.27500000000E+03  0.00000000000E+00 0.  1.
    9000005    2    1    2  501    0  0.63408819254E+00 -0.31824295525E+02 -0.62955196021E+02  0.47076008472E+03  0.46544442505E+03 0.  0.
         13    1    3    3    0    0  0.20273353142E+03  0.74834427075E+02  0.40581099374E+02  0.21988156327E+03  0.00000000000E+00 0.  1.
          3    1    3    3  501    0 -0.20209944323E+03 -0.10665872260E+03 -0.10353629540E+03  0.25087852145E+03  0.00000000000E+00 0.  1.
         21    1    1    2  502  501 -0.63408819254E+00  0.31824295525E+02  0.22966185675E+02  0.39250904932E+02  0.00000000000E+00 0.  1.
<scales pt_clust_4="550.00000" pt_clust_5="550.00000" pt_clust_6="31.83061"></scales>
<mgrwt>
<rscale>  0 0.30000000E+03</rscale>
<asrwt>  1 0.31830612E+02</asrwt>
<pdfrwt beam="1">  1        1 0.85458542E+00 0.30000000E+03</pdfrwt>
<pdfrwt beam="2">0</pdfrwt>
<totfact> 0.37443324E-04</totfact>
</mgrwt>
<clustering>
<clus scale="   31.831">  1  6  2 -1</clus>
<clus scale="  465.444">  4  5 -1 -1</clus>
<clus scale="  300.000">  1  4  2 -1</clus>
</clustering>
</event>
<event>
 6    1  0.9254630E-012  0.3000000E+03  0.7818608E-02  0.1093470E+00
          1   -1    0    0  502    0  0.00000000000E+00  0.00000000000E+00  0.23762913128E+03  0.23762913128E+03  0.00000000000E+00 0.  1.
         13   -1    0    0    0    0 -0.00000000000E+00 -0.00000000000E+00 -0.27500000000E+03  0.27500000000E+03  0.00000000000E+00 0.  1.
    9000005    2    1    2  501    0 -0.85901769317E+01 -0.41964334805E+02 -0.44392413557E+02  0.46922292634E+03  0.46515016036E+03 0.  0.
         13    1    3    3    0    0 -0.22109183843E+03 -0.80711116386E+02  0.37271147397E+02  0.23829608422E+03  0.00000000000E+00 0.  1.
          1    1    3    3  501    0  0.21250166150E+03  0.38746781581E+02 -0.81663560955E+02  0.23092684212E+03  0.00000000000E+00 0.  1.
         21    1    1    2  502  501  0.85901769317E+01  0.41964334805E+02  0.70215448375E+01  0.43406204939E+02  0.00000000000E+00 0. -1.
<scales pt_clust_4="550.00000" pt_clust_5="550.00000" pt_clust_6="42.83453"></scales>
<mgrwt>
<rscale>  0 0.30000000E+03</rscale>
<asrwt>  1 0.42834525E+02</asrwt>
<pdfrwt beam="1">  1        1 0.86410593E+00 0.30000000E+03</pdfrwt>
<pdfrwt beam="2">0</pdfrwt>
<totfact> 0.28148199E-04</totfact>
</mgrwt>
<clustering>
<clus scale="   42.835">  1  6  2 -1</clus>
<clus scale="  465.150">  4  5 -1 -1</clus>
<clus scale="  300.000">  1  4  2 -1</clus>
</clustering>
</event>
<event>
 6    1  0.9254630E-012  0.3000000E+03  0.7818608E-02  0.1093470E+00
          1   -1    0    0  502    0  0.00000000000E+00  0.00000000000E+00  0.23764599379E+03  0.23764599379E+03  0.00000000000E+00 0.  1.
         13   -1    0    0    0    0 -0.00000000000E+00 -0.00000000000E+00 -0.27500000000E+03  0.27500000000E+03  0.00000000000E+00 0.  1.
    9000005    2    1    2  501    0  0.27600421266E+02 -0.11939345971E+02 -0.48936957803E+02  0.48042028970E+03  0.47697431554E+03 0.  0.
         13    1    3    3    0    0 -0.16544622262E+03 -0.15031731827E+03 -0.87004178976E+02  0.23986970612E+03  0.00000000000E+00 0.  1.
          1    1    3    3  501    0  0.19304664389E+03  0.13837797230E+03  0.38067221173E+02  0.24055058359E+03  0.00000000000E+00 0.  1.
         21    1    1    2  502  501 -0.27600421266E+02  0.11939345971E+02  0.11582951593E+02  0.32225704086E+02  0.00000000000E+00 0. -1.
<scales pt_clust_4="550.00000" pt_clust_5="550.00000" pt_clust_6="30.07210"></scales>
<mgrwt>
<rscale>  0 0.30000000E+03</rscale>
<asrwt>  1 0.30072101E+02</asrwt>
<pdfrwt beam="1">  1        1 0.86416725E+00 0.30000000E+03</pdfrwt>
<pdfrwt beam="2">0</pdfrwt>
<totfact> 0.30019123E-04</totfact>
</mgrwt>
<clustering>
<clus scale="   30.072">  1  6  2 -1</clus>
<clus scale="  476.974">  4  5 -1 -1</clus>
<clus scale="  300.000">  1  4  2 -1</clus>
</clustering>
</event>
<event>
 6    1  0.9254630E-012  0.3000000E+03  0.7818608E-02  0.1093470E+00
          1   -1    0    0  502    0  0.00000000000E+00  0.00000000000E+00  0.22700428529E+03  0.22700428529E+03  0.00000000000E+00 0.  1.
         13   -1    0    0    0    0 -0.00000000000E+00 -0.00000000000E+00 -0.27500000000E+03  0.27500000000E+03  0.00000000000E+00 0.  1.
    9000005    2    1    2  501    0 -0.19940569706E+02  0.23644641245E+02 -0.45624588342E+02  0.47098304064E+03  0.46774643358E+03 0.  0.
         13    1    3    3    0    0 -0.15501579213E+03  0.19282684328E+03  0.94718658117E+01  0.24759201025E+03  0.00000000000E+00 0.  1.
          3    1    3    3  501    0  0.13507522242E+03 -0.16918220203E+03 -0.55096454154E+02  0.22339103039E+03  0.00000000000E+00 0.  1.
         21    1    1    2  502  501  0.19940569706E+02 -0.23644641245E+02 -0.23711263651E+01  0.31021244657E+02  0.00000000000E+00 0.  1.
<scales pt_clust_4="550.00000" pt_clust_5="550.00000" pt_clust_6="30.93049"></scales>
<mgrwt>
<rscale>  0 0.30000000E+03</rscale>
<asrwt>  1 0.30930493E+02</asrwt>
<pdfrwt beam="1">  1        1 0.82547013E+00 0.30000000E+03</pdfrwt>
<pdfrwt beam="2">0</pdfrwt>
<totfact> 0.66220439E-04</totfact>
</mgrwt>
<clustering>
<clus scale="   30.930">  1  6  2 -1</clus>
<clus scale="  467.746">  4  5 -1 -1</clus>
<clus scale="  300.000">  1  4  2 -1</clus>
</clustering>
</event>
<event>
 6    1  0.9254630E-012  0.3000000E+03  0.7818608E-02  0.1093470E+00
          1   -1    0    0  502    0  0.00000000000E+00  0.00000000000E+00  0.24640754434E+03  0.24640754434E+03  0.00000000000E+00 0.  1.
         13   -1    0    0    0    0 -0.00000000000E+00 -0.00000000000E+00 -0.27500000000E+03  0.27500000000E+03  0.00000000000E+00 0.  1.
    9000005    2    1    2  501    0 -0.34607123487E+02 -0.33609499815E+02 -0.26947012329E+02  0.47313789593E+03  0.46990006982E+03 0.  0.
         13    1    3    3    0    0 -0.53295620396E+02  0.17920429101E+03 -0.13798929133E+03  0.23236963139E+03  0.00000000000E+00 0.  1.
          1    1    3    3  501    0  0.18688496908E+02 -0.21281379083E+03  0.11104227900E+03  0.24076826454E+03  0.00000000000E+00 0.  1.
         21    1    1    2  502  501  0.34607123487E+02  0.33609499815E+02 -0.16454433306E+01  0.48269648410E+02  0.00000000000E+00 0.  1.
<scales pt_clust_4="550.00000" pt_clust_5="550.00000" pt_clust_6="48.24159"></scales>
<mgrwt>
<rscale>  0 0.30000000E+03</rscale>
<asrwt>  1 0.48241595E+02</asrwt>
<pdfrwt beam="1">  1        1 0.89602743E+00 0.30000000E+03</pdfrwt>
<pdfrwt beam="2">0</pdfrwt>
<totfact> 0.11585166E-04</totfact>
</mgrwt>
<clustering>
<clus scale="   48.242">  1  6  2 -1</clus>
<clus scale="  469.900">  4  5 -1 -1</clus>
<clus scale="  300.000">  1  4  2 -1</clus>
</clustering>
</event>
<event>
 6    1  0.9254630E-012  0.3000000E+03  0.7818608E-02  0.1093470E+00
          1   -1    0    0  502    0  0.00000000000E+00  0.00000000000E+00  0.23964633585E+03  0.23964633585E+03  0.00000000000E+00 0.  1.
         13   -1    0    0    0    0 -0.00000000000E+00 -0.00000000000E+00 -0.27500000000E+03  0.27500000000E+03  0.00000000000E+00 0.  1.
    9000005    2    1    2  501    0  0.29437985544E+02  0.17572233209E+02 -0.62103270458E+02  0.47116162807E+03  0.46579081699E+03 0.  0.
         13    1    3    3    0    0 -0.70362830964E+02  0.21279210903E+03 -0.10541001026E+03  0.24767454433E+03  0.00000000000E+00 0.  1.
          1    1    3    3  501    0  0.99800816509E+02 -0.19521987582E+03  0.43306739799E+02  0.22348708375E+03  0.00000000000E+00 0.  1.
         21    1    1    2  502  501 -0.29437985544E+02 -0.17572233209E+02  0.26749606308E+02  0.43484707778E+02  0.00000000000E+00 0.  1.
<scales pt_clust_4="550.00000" pt_clust_5="550.00000" pt_clust_6="34.28379"></scales>
<mgrwt>
<rscale>  0 0.30000000E+03</rscale>
<asrwt>  1 0.34283792E+02</asrwt>
<pdfrwt beam="1">  1        1 0.87144122E+00 0.30000000E+03</pdfrwt>
<pdfrwt beam="2">0</pdfrwt>
<totfact> 0.24576448E-04</totfact>
</mgrwt>
<clustering>
<clus scale="   34.284">  1  6  2 -1</clus>
<clus scale="  465.791">  4  5 -1 -1</clus>
<clus scale="  300.000">  1  4  2 -1</clus>
</clustering>
</event>
<event>
 6    1  0.9254630E-012  0.3000000E+03  0.7818608E-02  0.1093470E+00
          1   -1    0    0  502    0  0.00000000000E+00  0.00000000000E+00  0.24336314097E+03  0.24336314097E+03  0.00000000000E+00 0.  1.
         13   -1    0    0    0    0 -0.00000000000E+00 -0.00000000000E+00 -0.27500000000E+03  0.27500000000E+03  0.00000000000E+00 0.  1.
    9000005    2    1    2  501    0 -0.31715166072E+02 -0.89031370895E+01 -0.54956319346E+02  0.47800332385E+03  0.47368962725E+03 0.  0.
         13    1    3    3    0    0  0.60144202505E+02 -0.14214906164E+03  0.15109391324E+03  0.21599317452E+03  0.00000000000E+00 0.  1.
          3    1    3    3  501    0 -0.91859368577E+02  0.13324592455E+03 -0.20605023258E+03  0.26201014933E+03  0.00000000000E+00 0.  1.
         21    1    1    2  502  501  0.31715166072E+02  0.89031370895E+01  0.23319460320E+02  0.40359817128E+02  0.00000000000E+00 0.  1.
<scales pt_clust_4="550.00000" pt_clust_5="550.00000" pt_clust_6="32.94112"></scales>
<mgrwt>
<rscale>  0 0.30000000E+03</rscale>
<asrwt>  1 0.32941123E+02</asrwt>
<pdfrwt beam="1">  1        1 0.88495688E+00 0.30000000E+03</pdfrwt>
<pdfrwt beam="2">0</pdfrwt>
<totfact> 0.17188772E-04</totfact>
</mgrwt>
<clustering>
<clus scale="   32.941">  1  6  2 -1</clus>
<clus scale="  473.690">  4  5 -1 -1</clus>
<clus scale="  300.000">  1  4  2 -1</clus>
</clustering>
</event>
<event>
 6    1  0.9254630E-012  0.3000000E+03  0.7818608E-02  0.1093470E+00
          1   -1    0    0  502    0  0.00000000000E+00  0.00000000000E+00  0.22481541768E+03  0.22481541768E+03  0.00000000000E+00 0.  1.
         13   -1    0    0    0    0 -0.00000000000E+00 -0.00000000000E+00 -0.27500000000E+03  0.27500000000E+03  0.00000000000E+00 0.  1.
    9000005    2    1    2  501    0  0.30570682601E+02  0.44585721785E+00 -0.65386332172E+02  0.46567074574E+03  0.46004250410E+03 0.  0.
         13    1    3    3    0    0 -0.75973420877E+02  0.13567201991E+03 -0.19555626695E+03  0.24984217260E+03  0.00000000000E+00 0.  1.
          1    1    3    3  501    0  0.10654410348E+03 -0.13522616269E+03  0.13016993478E+03  0.21582857314E+03  0.00000000000E+00 0.  1.
         21    1    1    2  502  501 -0.30570682601E+02 -0.44585721785E+00  0.15201749849E+02  0.34144671939E+02  0.00000000000E+00 0.  1.
<scales pt_clust_4="550.00000" pt_clust_5="550.00000" pt_clust_6="30.57393"></scales>
<mgrwt>
<rscale>  0 0.30000000E+03</rscale>
<asrwt>  1 0.30573934E+02</asrwt>
<pdfrwt beam="1">  1        1 0.81751061E+00 0.30000000E+03</pdfrwt>
<pdfrwt beam="2">0</pdfrwt>
<totfact> 0.77899394E-04</totfact>
</mgrwt>
<clustering>
<clus scale="   30.574">  1  6  2 -1</clus>
<clus scale="  460.043">  4  5 -1 -1</clus>
<clus scale="  300.000">  1  4  2 -1</clus>
</clustering>
</event>
<event>
 6    1  0.9254630E-012  0.3000000E+03  0.7818608E-02  0.1093470E+00
          1   -1    0    0  502    0  0.00000000000E+00  0.00000000000E+00  0.22935113396E+03  0.22935113396E+03  0.00000000000E+00 0.  1.
         13   -1    0    0    0    0 -0.00000000000E+00 -0.00000000000E+00 -0.27500000000E+03  0.27500000000E+03  0.00000000000E+00 0.  1.
    9000005    2    1    2  501    0  0.17261350444E+02 -0.33909074283E+02 -0.42038485506E+02  0.46613053237E+03  0.46266906035E+03 0.  0.
         13    1    3    3    0    0  0.21629917392E+03  0.28082682509E+02  0.70500443370E+02  0.22922539609E+03  0.00000000000E+00 0.  1.
          3    1    3    3  501    0 -0.19903782348E+03 -0.61991756792E+02 -0.11253892888E+03  0.23690513628E+03  0.00000000000E+00 0.  1.
         21    1    1    2  502  501 -0.17261350444E+02  0.33909074283E+02 -0.36103805379E+01  0.38220601585E+02  0.00000000000E+00 0.  1.
<scales pt_clust_4="550.00000" pt_clust_5="550.00000" pt_clust_6="38.04972"></scales>
<mgrwt>
<rscale>  0 0.30000000E+03</rscale>
<asrwt>  1 0.38049717E+02</asrwt>
<pdfrwt beam="1">  1        1 0.83400412E+00 0.30000000E+03</pdfrwt>
<pdfrwt beam="2">0</pdfrwt>
<totfact> 0.54171040E-04</totfact>
</mgrwt>
<clustering>
<clus scale="   38.050">  1  6  2 -1</clus>
<clus scale="  462.669">  4  5 -1 -1</clus>
<clus scale="  300.000">  1  4  2 -1</clus>
</clustering>
</event>
<event>
 6    1  0.9254630E-012  0.3000000E+03  0.7818608E-02  0.1093470E+00
          1   -1    0    0  502    0  0.00000000000E+00  0.00000000000E+00  0.23582855280E+03  0.23582855280E+03  0.00000000000E+00 0.  1.
         13   -1    0    0    0    0 -0.00000000000E+00 -0.00000000000E+00 -0.27500000000E+03  0.27500000000E+03  0.00000000000E+00 0.  1.
    9000005    2    1    2  501    0 -0.15211572327E+02 -0.29578423283E+02 -0.49749272029E+02  0.47592632602E+03  0.47214892001E+03 0.  0.
         13    1    3    3    0    0 -0.19580051931E+03 -0.54363790180E+02 -0.16371330699E+03  0.26095078450E+03  0.00000000000E+00 0.  1.
          1    1    3    3  501    0  0.18058894699E+03  0.24785366897E+02  0.11396403496E+03  0.21497554152E+03  0.00000000000E+00 0.  1.
         21    1    1    2  502  501  0.15211572327E+02  0.29578423283E+02  0.10577824833E+02  0.34902226788E+02  0.00000000000E+00 0. -1.
<scales pt_clust_4="550.00000" pt_clust_5="550.00000" pt_clust_6="33.26071"></scales>
<mgrwt>
<rscale>  0 0.30000000E+03</rscale>
<asrwt>  1 0.33260713E+02</asrwt>
<pdfrwt beam="1">  1        1 0.85755837E+00 0.30000000E+03</pdfrwt>
<pdfrwt beam="2">0</pdfrwt>
<totfact> 0.34649174E-04</totfact>
</mgrwt>
<clustering>
<clus scale="   33.261">  1  6  2 -1</clus>
<clus scale="  472.149">  4  5 -1 -1</clus>
<clus scale="  300.000">  1  4  2 -1</clus>
</clustering>
</event>
<event>
 6    1  0.9254630E-012  0.3000000E+03  0.7818608E-02  0.1093470E+00
          1   -1    0    0  502    0  0.00000000000E+00  0.00000000000E+00  0.24357415222E+03  0.24357415222E+03  0.00000000000E+00 0.  1.
         13   -1    0    0    0    0 -0.00000000000E+00 -0.00000000000E+00 -0.27500000000E+03  0.27500000000E+03  0.00000000000E+00 0.  1.
    9000005    2    1    2  501    0  0.13803796311E+01  0.51901486404E+02 -0.35011090271E+02  0.46653067326E+03  0.46230879605E+03 0.  0.
         13    1    3    3    0    0  0.21280107866E+03  0.92525467588E+02  0.45896856373E+02  0.23654129165E+03  0.00000000000E+00 0.  1.
          3    1    3    3  501    0 -0.21142069902E+03 -0.40623981185E+02 -0.80907946644E+02  0.22998938161E+03  0.00000000000E+00 0.  1.
         21    1    1    2  502  501 -0.13803796311E+01 -0.51901486404E+02  0.35852424913E+01  0.52043478963E+02  0.00000000000E+00 0.  1.
<scales pt_clust_4="550.00000" pt_clust_5="550.00000" pt_clust_6="51.91984"></scales>
<mgrwt>
<rscale>  0 0.30000000E+03</rscale>
<asrwt>  1 0.51919840E+02</asrwt>
<pdfrwt beam="1">  1        1 0.88572419E+00 0.30000000E+03</pdfrwt>
<pdfrwt beam="2">0</pdfrwt>
<totfact> 0.15447023E-04</totfact>
</mgrwt>
<clustering>
<clus scale="   51.920">  1  6  2 -1</clus>
<clus scale="  462.309">  4  5 -1 -1</clus>
<clus scale="  300.000">  1  4  2 -1</clus>
</clustering>
</event>
<event>
 6    1  0.9254630E-012  0.3000000E+03  0.7818608E-02  0.1093470E+00
          1   -1    0    0  502    0  0.00000000000E+00  0.00000000000E+00  0.23697028372E+03  0.23697028372E+03  0.00000000000E+00 0.  1.
         13   -1    0    0    0    0 -0.00000000000E+00 -0.00000000000E+00 -0.27500000000E+03  0.27500000000E+03  0.00000000000E+00 0.  1.
    9000005    2    1    2  501    0 -0.26068439831E+02 -0.16964715579E+02 -0.64081233686E+02  0.47139878277E+03  0.46598609717E+03 0.  0.
         13    1    3    3    0    0  0.99410263211E+02  0.18621032075E+03 -0.93364813994E+02  0.23081090199E+03  0.00000000000E+00 0.  1.
          1    1    3    3  501    0 -0.12547870304E+03 -0.20317503633E+03  0.29283580308E+02  0.24058788078E+03  0.00000000000E+00 0.  1.
         21    1    1    2  502  501  0.26068439831E+02  0.16964715579E+02  0.26051517409E+02  0.40571500948E+02  0.00000000000E+00 0. -1.
<scales pt_clust_4="550.00000" pt_clust_5="550.00000" pt_clust_6="31.10249"></scales>
<mgrwt>
<rscale>  0 0.30000000E+03</rscale>
<asrwt>  1 0.31102494E+02</asrwt>
<pdfrwt beam="1">  1        1 0.86171012E+00 0.30000000E+03</pdfrwt>
<pdfrwt beam="2">0</pdfrwt>
<totfact> 0.31707447E-04</totfact>
</mgrwt>
<clustering>
<clus scale="   31.102">  1  6  2 -1</clus>
<clus scale="  465.986">  4  5 -1 -1</clus>
<clus scale="  300.000">  1  4  2 -1</clus>
</clustering>
</event>
<event>
 6    1  0.9254630E-012  0.3000000E+03  0.7818608E-02  0.1093470E+00
          1   -1    0    0  502    0  0.00000000000E+00  0.00000000000E+00  0.23440348216E+03  0.23440348216E+03  0.00000000000E+00 0.  1.
         13   -1    0    0    0    0 -0.00000000000E+00 -0.00000000000E+00 -0.27500000000E+03  0.27500000000E+03  0.00000000000E+00 0.  1.
    9000005    2    1    2  501    0 -0.11196599537E+02 -0.35971967334E+02 -0.42239652644E+02  0.47169345475E+03  0.46828536249E+03 0.  0.
         13    1    3    3    0    0 -0.41244394521E+02 -0.67177976621E+02 -0.24861882319E+03  0.26081660198E+03  0.00000000000E+00 0.  1.
          3    1    3    3  501    0  0.30047794984E+02  0.31206009287E+02  0.20637917055E+03  0.21087685277E+03  0.00000000000E+00 0.  1.
         21    1    1    2  502  501  0.11196599537E+02  0.35971967334E+02  0.16431348003E+01  0.37710027407E+02  0.00000000000E+00 0. -1.
<scales pt_clust_4="550.00000" pt_clust_5="550.00000" pt_clust_6="37.67421"></scales>
<mgrwt>
<rscale>  0 0.30000000E+03</rscale>
<asrwt>  1 0.37674212E+02</asrwt>
<pdfrwt beam="1">  1        1 0.85237630E+00 0.30000000E+03</pdfrwt>
<pdfrwt beam="2">0</pdfrwt>
<totfact> 0.38112356E-04</totfact>
</mgrwt>
<clustering>
<clus scale="   37.674">  1  6  2 -1</clus>
<clus scale="  468.285">  4  5 -1 -1</clus>
<clus scale="  300.000">  1  4  2 -1</clus>
</clustering>
</event>
<event>
 6    1  0.9254630E-012  0.3000000E+03  0.7818608E-02  0.1093470E+00
          1   -1    0    0  502    0  0.00000000000E+00  0.00000000000E+00  0.25995902609E+03  0.25995902609E+03  0.00000000000E+00 0.  1.
         13   -1    0    0    0    0 -0.00000000000E+00 -0.00000000000E+00 -0.27500000000E+03  0.27500000000E+03  0.00000000000E+00 0.  1.
    9000005    2    1    2  501    0  0.29800608979E+02 -0.11325289792E+02 -0.22210993238E+02  0.50228261776E+03  0.50077755680E+03 0.  0.
         13    1    3    3    0    0  0.26343638087E+03 -0.46113315125E+01  0.22045339415E+02  0.26439740569E+03  0.00000000000E+00 0.  1.
          3    1    3    3  501    0 -0.23363577189E+03 -0.67139582797E+01 -0.44256332653E+02  0.23788521207E+03  0.00000000000E+00 0.  1.
         21    1    1    2  502  501 -0.29800608979E+02  0.11325289792E+02  0.71700193295E+01  0.32676408333E+02  0.00000000000E+00 0. -1.
<scales pt_clust_4="550.00000" pt_clust_5="550.00000" pt_clust_6="31.88006"></scales>
<mgrwt>
<rscale>  0 0.30000000E+03</rscale>
<asrwt>  1 0.31880064E+02</asrwt>
<pdfrwt beam="1">  1        1 0.94530555E+00 0.30000000E+03</pdfrwt>
<pdfrwt beam="2">0</pdfrwt>
<totfact> 0.15610035E-05</totfact>
</mgrwt>
<clustering>
<clus scale="   31.880">  1  6  2 -1</clus>
<clus scale="  500.778">  4  5 -1 -1</clus>
<clus scale="  300.000">  1  4  2 -1</clus>
</clustering>
</event>
<event>
 6    1  0.9254630E-012  0.3000000E+03  0.7818608E-02  0.1093470E+00
          1   -1    0    0  502    0  0.00000000000E+00  0.00000000000E+00  0.23459050003E+03  0.23459050003E+03  0.00000000000E+00 0.  1.
         13   -1    0    0    0    0 -0.00000000000E+00 -0.00000000000E+00 -0.27500000000E+03  0.27500000000E+03  0.00000000000E+00 0.  1.
    9000005    2    1    2  501    0  0.27029217614E+02 -0.17890313320E+02 -0.37849655105E+02  0.47707596911E+03  0.47446627066E+03 0.  0.
         13    1    3    3    0    0  0.19270942670E+03 -0.91513307035E+02 -0.15279428899E+03  0.26240751371E+03  0.00000000000E+00 0.  1.
          3    1    3    3  501    0 -0.16568020909E+03  0.73622993715E+02  0.11494463388E+03  0.21466845540E+03  0.00000000000E+00 0.  1.
         21    1    1    2  502  501 -0.27029217614E+02  0.17890313320E+02 -0.25598448609E+01  0.32514530924E+02  0.00000000000E+00 0.  1.
<scales pt_clust_4="550.00000" pt_clust_5="550.00000" pt_clust_6="32.41361"></scales>
<mgrwt>
<rscale>  0 0.30000000E+03</rscale>
<asrwt>  1 0.32413607E+02</asrwt>
<pdfrwt beam="1">  1        1 0.85305636E+00 0.30000000E+03</pdfrwt>
<pdfrwt beam="2">0</pdfrwt>
<totfact> 0.38613352E-04</totfact>
</mgrwt>
<clustering>
<clus scale="   32.414">  1  6  2 -1</clus>
<clus scale="  474.466">  4  5 -1 -1</clus>
<clus scale="  300.000">  1  4  2 -1</clus>
</clustering>
</event>
<event>
 6    1  0.9254630E-012  0.3000000E+03  0.7818608E-02  0.1093470E+00
          1   -1    0    0  502    0  0.00000000000E+00  0.00000000000E+00  0.24050069279E+03  0.24050069279E+03  0.00000000000E+00 0.  1.
         13   -1    0    0    0    0 -0.00000000000E+00 -0.00000000000E+00 -0.27500000000E+03  0.27500000000E+03  0.00000000000E+00 0.  1.
    9000005    2    1    2  501    0 -0.19404291148E+02 -0.28662013093E+02 -0.58679659018E+02  0.47327834180E+03  0.46834928091E+03 0.  0.
         13    1    3    3    0    0  0.56874895318E+02 -0.17635911346E+03  0.12655148519E+03  0.22439378115E+03  0.00000000000E+00 0.  1.
          3    1    3    3  501    0 -0.76279186466E+02  0.14769710037E+03 -0.18523114421E+03  0.24888456065E+03  0.00000000000E+00 0.  1.
         21    1    1    2  502  501  0.19404291148E+02  0.28662013093E+02  0.24180351810E+02  0.42222350990E+02  0.00000000000E+00 0.  1.
<scales pt_clust_4="550.00000" pt_clust_5="550.00000" pt_clust_6="34.61268"></scales>
<mgrwt>
<rscale>  0 0.30000000E+03</rscale>
<asrwt>  1 0.34612678E+02</asrwt>
<pdfrwt beam="1">  1        1 0.87454797E+00 0.30000000E+03</pdfrwt>
<pdfrwt beam="2">0</pdfrwt>
<totfact> 0.22788197E-04</totfact>
</mgrwt>
<clustering>
<clus scale="   34.613">  1  6  2 -1</clus>
<clus scale="  468.349">  4  5 -1 -1</clus>
<clus scale="  300.000">  1  4  2 -1</clus>
</clustering>
</event>
<event>
 6    1  0.9254630E-012  0.3000000E+03  0.7818608E-02  0.1093470E+00
          1   -1    0    0  502    0  0.00000000000E+00  0.00000000000E+00  0.24922542892E+03  0.24922542892E+03  0.00000000000E+00 0.  1.
         13   -1    0    0    0    0 -0.00000000000E+00 -0.00000000000E+00 -0.27500000000E+03  0.27500000000E+03  0.00000000000E+00 0.  1.
    9000005    2    1    2  501    0 -0.31417302557E+01  0.38256934528E+02 -0.59401223139E+02  0.47319391672E+03  0.46787873857E+03 0.  0.
         13    1    3    3    0    0  0.21366543572E+03  0.82965375369E+02 -0.96580295270E+02  0.24872459743E+03  0.00000000000E+00 0.  1.
          1    1    3    3  501    0 -0.21680716598E+03 -0.44708440841E+02  0.37179072131E+02  0.22446931930E+03  0.00000000000E+00 0.  1.
         21    1    1    2  502  501  0.31417302557E+01 -0.38256934528E+02  0.33626652064E+02  0.51031512201E+02  0.00000000000E+00 0. -1.
<scales pt_clust_4="550.00000" pt_clust_5="550.00000" pt_clust_6="38.38572"></scales>
<mgrwt>
<rscale>  0 0.30000000E+03</rscale>
<asrwt>  1 0.38385720E+02</asrwt>
<pdfrwt beam="1">  1        1 0.90627429E+00 0.30000000E+03</pdfrwt>
<pdfrwt beam="2">0</pdfrwt>
<totfact> 0.85775409E-05</totfact>
</mgrwt>
<clustering>
<clus scale="   38.386">  1  6  2 -1</clus>
<clus scale="  467.879">  4  5 -1 -1</clus>
<clus scale="  300.000">  1  4  2 -1</clus>
</clustering>
</event>
<event>
 6    1  0.9254630E-012  0.3000000E+03  0.7818608E-02  0.1093470E+00
          1   -1    0    0  502    0  0.00000000000E+00  0.00000000000E+00  0.22097775183E+03  0.22097775183E+03  0.00000000000E+00 0.  1.
         13   -1    0    0    0    0 -0.00000000000E+00 -0.00000000000E+00 -0.27500000000E+03  0.27500000000E+03  0.00000000000E+00 0.  1.
    9000005    2    1    2  501    0  0.25395292038E+02  0.16931945473E+02 -0.62690226799E+02  0.46424849895E+03  0.45898256242E+03 0.  0.
         13    1    3    3    0    0 -0.90349527274E+02  0.92823032391E+02 -0.21963816425E+03  0.25499034416E+03  0.00000000000E+00 0.  1.
          3    1    3    3  501    0  0.11574481931E+03 -0.75891086917E+02  0.15694793745E+03  0.20925815478E+03  0.00000000000E+00 0.  1.
         21    1    1    2  502  501 -0.25395292038E+02 -0.16931945473E+02  0.86679786314E+01  0.31729252887E+02  0.00000000000E+00 0.  1.
<scales pt_clust_4="550.00000" pt_clust_5="550.00000" pt_clust_6="30.52231"></scales>
<mgrwt>
<rscale>  0 0.30000000E+03</rscale>
<asrwt>  1 0.30522314E+02</asrwt>
<pdfrwt beam="1">  1        1 0.80355546E+00 0.30000000E+03</pdfrwt>
<pdfrwt beam="2">0</pdfrwt>
<totfact> 0.10026181E-03</totfact>
</mgrwt>
<clustering>
<clus scale="   30.522">  1  6  2 -1</clus>
<clus scale="  458.983">  4  5 -1 -1</clus>
<clus scale="  300.000">  1  4  2 -1</clus>
</clustering>
</event>
<event>
 6    1  0.9254630E-012  0.3000000E+03  0.7818608E-02  0.1093470E+00
          1   -1    0    0  502    0  0.00000000000E+00  0.00000000000E+00  0.22727369674E+03  0.22727369674E+03  0.00000000000E+00 0.  1.
         13   -1    0    0    0    0 -0.00000000000E+00 -0.00000000000E+00 -0.27500000000E+03  0.27500000000E+03  0.00000000000E+00 0.  1.
    9000005    2    1    2  501    0 -0.54133460387E+01  0.30118078836E+02 -0.67934173633E+02  0.46560271348E+03  0.45960247156E+03 0.  0.
         13    1    3    3    0    0 -0.67602462254E+02  0.35423453462E+02  0.18761357215E+03  0.20254324578E+03  0.00000000000E+00 0.  1.
          1    1    3    3  501    0  0.62189116215E+02 -0.53053746267E+01 -0.25554774578E+03  0.26305946770E+03  0.00000000000E+00 0.  1.
         21    1    1    2  502  501  0.54133460387E+01 -0.30118078836E+02  0.20207870378E+02  0.36670983260E+02  0.00000000000E+00 0.  1.
<scales pt_clust_4="550.00000" pt_clust_5="550.00000" pt_clust_6="30.60070"></scales>
<mgrwt>
<rscale>  0 0.30000000E+03</rscale>
<asrwt>  1 0.30600702E+02</asrwt>
<pdfrwt beam="1">  1        1 0.82644981E+00 0.30000000E+03</pdfrwt>
<pdfrwt beam="2">0</pdfrwt>
<totfact> 0.65040769E-04</totfact>
</mgrwt>
<clustering>
<clus scale="   30.601">  1  6  2 -1</clus>
<clus scale="  459.602">  4  5 -1 -1</clus>
<clus scale="  300.000">  1  4  2 -1</clus>
</clustering>
</event>
<event>
 6    1  0.9254630E-012  0.3000000E+03  0.7818608E-02  0.1093470E+00
          1   -1    0    0  502    0  0.00000000000E+00  0.00000000000E+00  0.24047796844E+03  0.24047796844E+03  0.00000000000E+00 0.  1.
         13   -1    0    0    0    0 -0.00000000000E+00 -0.00000000000E+00 -0.27500000000E+03  0.27500000000E+03  0.00000000000E+00 0.  1.
    9000005    2    1    2  501    0  0.36151963872E+02  0.49256429992E+01 -0.39002847684E+02  0.47871787916E+03  0.47572929199E+03 0.  0.
         13    1    3    3    0    0 -0.74426358126E+00 -0.19573635374E+03 -0.14986148323E+03  0.24651924521E+03  0.00000000000E+00 0.  1.
          1    1    3    3  501    0  0.36896227453E+02  0.20066199674E+03  0.11085863554E+03  0.23219863395E+03  0.00000000000E+00 0.  1.
         21    1    1    2  502  501 -0.36151963872E+02 -0.49256429992E+01  0.44808161277E+01  0.36760089280E+02  0.00000000000E+00 0.  1.
<scales pt_clust_4="550.00000" pt_clust_5="550.00000" pt_clust_6="36.48598"></scales>
<mgrwt>
<rscale>  0 0.30000000E+03</rscale>
<asrwt>  1 0.36485976E+02</asrwt>
<pdfrwt beam="1">  1        1 0.87446534E+00 0.30000000E+03</pdfrwt>
<pdfrwt beam="2">0</pdfrwt>
<totfact> 0.22610317E-04</totfact>
</mgrwt>
<clustering>
<clus scale="   36.486">  1  6  2 -1</clus>
<clus scale="  475.729">  4  5 -1 -1</clus>
<clus scale="  300.000">  1  4  2 -1</clus>
</clustering>
</event>
<event>
 6    1  0.9254630E-012  0.3000000E+03  0.7818608E-02  0.1093470E+00
          1   -1    0    0  502    0  0.00000000000E+00  0.00000000000E+00  0.24192006276E+03  0.24192006276E+03  0.00000000000E+00 0.  1.
         13   -1    0    0    0    0 -0.00000000000E+00 -0.00000000000E+00 -0.27500000000E+03  0.27500000000E+03  0.00000000000E+00 0.  1.
    9000005    2    1    2  501    0  0.20861406046E+02 -0.25190096971E+02 -0.46065002790E+02  0.48172984856E+03  0.47840560539E+03 0.  0.
         13    1    3    3    0    0  0.25646597030E+02  0.20543949047E+03 -0.12024099126E+03  0.23941810324E+03  0.00000000000E+00 0.  1.
          3    1    3    3  501    0 -0.47851909843E+01 -0.23062958744E+03  0.74175988466E+02  0.24231174532E+03  0.00000000000E+00 0.  1.
         21    1    1    2  502  501 -0.20861406046E+02  0.25190096971E+02  0.12985065547E+02  0.35190214192E+02  0.00000000000E+00 0.  1.
<scales pt_clust_4="550.00000" pt_clust_5="550.00000" pt_clust_6="32.70687"></scales>
<mgrwt>
<rscale>  0 0.30000000E+03</rscale>
<asrwt>  1 0.32706869E+02</asrwt>
<pdfrwt beam="1">  1        1 0.87970932E+00 0.30000000E+03</pdfrwt>
<pdfrwt beam="2">0</pdfrwt>
<totfact> 0.20155819E-04</totfact>
</mgrwt>
<clustering>
<clus scale="   32.707">  1  6  2 -1</clus>
<clus scale="  478.406">  4  5 -1 -1</clus>
<clus scale="  300.000">  1  4  2 -1</clus>
</clustering>
</event>
<event>
 6    1  0.9254630E-012  0.3000000E+03  0.7818608E-02  0.1093470E+00
          1   -1    0    0  502    0  0.00000000000E+00  0.00000000000E+00  0.24553190172E+03  0.24553190172E+03  0.00000000000E+00 0.  1.
         13   -1    0    0    0    0 -0.00000000000E+00 -0.00000000000E+00 -0.27500000000E+03  0.27500000000E+03  0.00000000000E+00 0.  1.
    9000005    2    1    2  501    0  0.30280995085E+02  0.37858412410E+02 -0.41460197913E+02  0.47059185259E+03  0.46624837336E+03 0.  0.
         13    1    3    3    0    0  0.18878797388E+03  0.16270659383E+03 -0.86579444927E+02  0.26383770588E+03  0.00000000000E+00 0.  1.
          1    1    3    3  501    0 -0.15850697880E+03 -0.12484818142E+03  0.45119247014E+02  0.20675414671E+03  0.00000000000E+00 0.  1.
         21    1    1    2  502  501 -0.30280995085E+02 -0.37858412410E+02  0.11992099634E+02  0.49940049131E+02  0.00000000000E+00 0.  1.
<scales pt_clust_4="550.00000" pt_clust_5="550.00000" pt_clust_6="48.47884"></scales>
<mgrwt>
<rscale>  0 0.30000000E+03</rscale>
<asrwt>  1 0.48478841E+02</asrwt>
<pdfrwt beam="1">  1        1 0.89284328E+00 0.30000000E+03</pdfrwt>
<pdfrwt beam="2">0</pdfrwt>
<totfact> 0.12582640E-04</totfact>
</mgrwt>
<clustering>
<clus scale="   48.479">  1  6  2 -1</clus>
<clus scale="  466.248">  4  5 -1 -1</clus>
<clus scale="  300.000">  1  4  2 -1</clus>
</clustering>
</event>
<event>
 6    1  0.9254630E-012  0.3000000E+03  0.7818608E-02  0.1093470E+00
          1   -1    0    0  502    0  0.00000000000E+00  0.00000000000E+00  0.23983688209E+03  0.23983688209E+03  0.00000000000E+00 0.  1.
         13   -1    0    0    0    0 -0.00000000000E+00 -0.00000000000E+00 -0.27500000000E+03  0.27500000000E+03  0.00000000000E+00 0.  1.
    9000005    2    1    2  501    0 -0.23503764125E+02  0.22582714885E+02 -0.21927126741E+02  0.47965737952E+03  0.47804601964E+03 0.  0.
         13    1    3    3    0    0 -0.12059267452E+03 -0.88886547830E+02  0.17695569725E+03  0.23185497692E+03  0.00000000000E+00 0.  1.
          3    1    3    3  501    0  0.97088910395E+02  0.11146926271E+03 -0.19888282399E+03  0.24780240259E+03  0.00000000000E+00 0.  1.
         21    1    1    2  502  501  0.23503764125E+02 -0.22582714885E+02 -0.13235991164E+02  0.35179502579E+02  0.00000000000E+00 0. -1.
<scales pt_clust_4="550.00000" pt_clust_5="550.00000" pt_clust_6="32.59459"></scales>
<mgrwt>
<rscale>  0 0.30000000E+03</rscale>
<asrwt>  1 0.32594585E+02</asrwt>
<pdfrwt beam="1">  1        1 0.87213412E+00 0.30000000E+03</pdfrwt>
<pdfrwt beam="2">0</pdfrwt>
<totfact> 0.24410611E-04</totfact>
</mgrwt>
<clustering>
<clus scale="   32.595">  1  6  2 -1</clus>
<clus scale="  478.046">  4  5 -1 -1</clus>
<clus scale="  300.000">  1  4  2 -1</clus>
</clustering>
</event>
<event>
 6    1  0.9254630E-012  0.3000000E+03  0.7818608E-02  0.1093470E+00
          1   -1    0    0  502    0  0.00000000000E+00  0.00000000000E+00  0.22422526791E+03  0.22422526791E+03  0.00000000000E+00 0.  1.
         13   -1    0    0    0    0 -0.00000000000E+00 -0.00000000000E+00 -0.27500000000E+03  0.27500000000E+03  0.00000000000E+00 0.  1.
    9000005    2    1    2  501    0  0.14955648764E+02  0.26875918648E+02 -0.47593318237E+02  0.46830427460E+03  0.46486318765E+03 0.  0.
         13    1    3    3    0    0  0.66925096635E+02 -0.20604806075E+03 -0.72269998225E+02  0.22838065711E+03  0.00000000000E+00 0.  1.
          3    1    3    3  501    0 -0.51969447871E+02  0.23292397940E+03  0.24676679988E+02  0.23992361749E+03  0.00000000000E+00 0.  1.
         21    1    1    2  502  501 -0.14955648764E+02 -0.26875918648E+02 -0.31814138537E+01  0.30920993309E+02  0.00000000000E+00 0.  1.
<scales pt_clust_4="550.00000" pt_clust_5="550.00000" pt_clust_6="30.75691"></scales>
<mgrwt>
<rscale>  0 0.30000000E+03</rscale>
<asrwt>  1 0.30756908E+02</asrwt>
<pdfrwt beam="1">  1        1 0.81536461E+00 0.30000000E+03</pdfrwt>
<pdfrwt beam="2">0</pdfrwt>
<totfact> 0.81023259E-04</totfact>
</mgrwt>
<clustering>
<clus scale="   30.757">  1  6  2 -1</clus>
<clus scale="  464.863">  4  5 -1 -1</clus>
<clus scale="  300.000">  1  4  2 -1</clus>
</clustering>
</event>
<event>
 6    1  0.9254630E-012  0.3000000E+03  0.7818608E-02  0.1093470E+00
          1   -1    0    0  502    0  0.00000000000E+00  0.00000000000E+00  0.24881576016E+03  0.24881576016E+03  0.00000000000E+00 0.  1.
         13   -1    0    0    0    0 -0.00000000000E+00 -0.00000000000E+00 -0.27500000000E+03  0.27500000000E+03  0.00000000000E+00 0.  1.
    9000005    2    1    2  501    0 -0.39480932351E-01 -0.35925844698E+02 -0.40953919368E+02  0.48497233975E+03  0.48190276917E+03 0.  0.
         13    1    3    3    0    0 -0.23320062179E+03  0.42871427792E+02 -0.22028472739E+02  0.23812967672E+03  0.00000000000E+00 0.  1.
          1    1    3    3  501    0  0.23316114086E+03 -0.78797272491E+02 -0.18925446629E+02  0.24684266302E+03  0.00000000000E+00 0.  1.
         21    1    1    2  502  501  0.39480932351E-01  0.35925844698E+02  0.14769679527E+02  0.38843420413E+02  0.00000000000E+00 0.  1.
<scales pt_clust_4="550.00000" pt_clust_5="550.00000" pt_clust_6="35.92587"></scales>
<mgrwt>
<rscale>  0 0.30000000E+03</rscale>
<asrwt>  1 0.35925866E+02</asrwt>
<pdfrwt beam="1">  1        1 0.90478458E+00 0.30000000E+03</pdfrwt>
<pdfrwt beam="2">0</pdfrwt>
<totfact> 0.92875510E-05</totfact>
</mgrwt>
<clustering>
<clus scale="   35.926">  1  6  2 -1</clus>
<clus scale="  481.903">  4  5 -1 -1</clus>
<clus scale="  300.000">  1  4  2 -1</clus>
</clustering>
</event>
<event>
 6    1  0.9254630E-012  0.3000000E+03  0.7818608E-02  0.1093470E+00
          1   -1    0    0  502    0  0.00000000000E+00  0.00000000000E+00  0.24308529888E+03  0.24308529888E+03  0.00000000000E+00 0.  1.
         13   -1    0    0    0    0 -0.00000000000E+00 -0.00000000000E+00 -0.27500000000E+03  0.27500000000E+03  0.00000000000E+00 0.  1.
    9000005    2    1    2  501    0 -0.28416186611E+01  0.41943357746E+02 -0.28831663872E+02  0.47593289474E+03  0.47319502892E+03 0.  0.
         13    1    3    3    0    0 -0.50601179408E+02 -0.20916950982E+03  0.18412548546E+02  0.21598931719E+03  0.00000000000E+00 0.  1.
          1    1    3    3  501    0  0.47759560747E+02  0.25111286757E+03 -0.47244212418E+02  0.25994357755E+03  0.00000000000E+00 0.  1.
         21    1    1    2  502  501  0.28416186611E+01 -0.41943357746E+02 -0.30830372523E+01  0.42152404135E+02  0.00000000000E+00 0.  1.
<scales pt_clust_4="550.00000" pt_clust_5="550.00000" pt_clust_6="42.03953"></scales>
<mgrwt>
<rscale>  0 0.30000000E+03</rscale>
<asrwt>  1 0.42039527E+02</asrwt>
<pdfrwt beam="1">  1        1 0.88394654E+00 0.30000000E+03</pdfrwt>
<pdfrwt beam="2">0</pdfrwt>
<totfact> 0.16959409E-04</totfact>
</mgrwt>
<clustering>
<clus scale="   42.040">  1  6  2 -1</clus>
<clus scale="  473.195">  4  5 -1 -1</clus>
<clus scale="  300.000">  1  4  2 -1</clus>
</clustering>
</event>
<event>
 6    1  0.9254630E-012  0.3000000E+03  0.7818608E-02  0.1093470E+00
          1   -1    0    0  502    0  0.00000000000E+00  0.00000000000E+00  0.26420246875E+03  0.26420246875E+03  0.00000000000E+00 0.  1.
         13   -1    0    0    0    0 -0.00000000000E+00 -0.00000000000E+00 -0.27500000000E+03  0.27500000000E+03  0.00000000000E+00 0.  1.
    9000005    2    1    2  501    0  0.36862405000E+02  0.60688874281E+01 -0.40688042253E+01  0.50124269972E+03  0.49983199233E+03 0.  0.
         13    1    3    3    0    0 -0.14219871155E+03 -0.18887738026E+03  0.31545695572E+01  0.23644257156E+03  0.00000000000E+00 0.  1.
          1    1    3    3  501    0  0.17906111655E+03  0.19494626769E+03 -0.72233737825E+01  0.26480012816E+03  0.00000000000E+00 0.  1.
         21    1    1    2  502  501 -0.36862405000E+02 -0.60688874281E+01 -0.67287270283E+01  0.37959769025E+02  0.00000000000E+00 0.  1.
<scales pt_clust_4="550.00000" pt_clust_5="550.00000" pt_clust_6="37.35866"></scales>
<mgrwt>
<rscale>  0 0.30000000E+03</rscale>
<asrwt>  1 0.37358663E+02</asrwt>
<pdfrwt beam="1">  1        1 0.96073625E+00 0.30000000E+03</pdfrwt>
<pdfrwt beam="2">0</pdfrwt>
<totfact> 0.72243779E-06</totfact>
</mgrwt>
<clustering>
<clus scale="   37.359">  1  6  2 -1</clus>
<clus scale="  499.832">  4  5 -1 -1</clus>
<clus scale="  300.000">  1  4  2 -1</clus>
</clustering>
</event>
<event>
 6    1  0.9254630E-012  0.3000000E+03  0.7818608E-02  0.1093470E+00
          1   -1    0    0  502    0  0.00000000000E+00  0.00000000000E+00  0.24624472554E+03  0.24624472554E+03  0.00000000000E+00 0.  1.
         13   -1    0    0    0    0 -0.00000000000E+00 -0.00000000000E+00 -0.27500000000E+03  0.27500000000E+03  0.00000000000E+00 0.  1.
    9000005    2    1    2  501    0  0.37219440717E+02  0.27353835631E+02 -0.43281800721E+02  0.47282428506E+03  0.46856800059E+03 0.  0.
         13    1    3    3    0    0  0.31854740008E+02 -0.15798711467E+03  0.13898791957E+03  0.21281986432E+03  0.00000000000E+00 0.  1.
          3    1    3    3  501    0  0.53647007087E+01  0.18534095030E+03 -0.18226972029E+03  0.26000442074E+03  0.00000000000E+00 0.  1.
         21    1    1    2  502  501 -0.37219440717E+02 -0.27353835631E+02  0.14526526261E+02  0.48420440479E+02  0.00000000000E+00 0.  1.
<scales pt_clust_4="550.00000" pt_clust_5="550.00000" pt_clust_6="46.19003"></scales>
<mgrwt>
<rscale>  0 0.30000000E+03</rscale>
<asrwt>  1 0.46190032E+02</asrwt>
<pdfrwt beam="1">  1        1 0.89543537E+00 0.30000000E+03</pdfrwt>
<pdfrwt beam="2">0</pdfrwt>
<totfact> 0.11853488E-04</totfact>
</mgrwt>
<clustering>
<clus scale="   46.190">  1  6  2 -1</clus>
<clus scale="  468.568">  4  5 -1 -1</clus>
<clus scale="  300.000">  1  4  2 -1</clus>
</clustering>
</event>
<event>
 6    1  0.9254630E-012  0.3000000E+03  0.7818608E-02  0.1093470E+00
          1   -1    0    0  502    0  0.00000000000E+00  0.00000000000E+00  0.22296987839E+03  0.22296987839E+03  0.00000000000E+00 0.  1.
         13   -1    0    0    0    0 -0.00000000000E+00 -0.00000000000E+00 -0.27500000000E+03  0.27500000000E+03  0.00000000000E+00 0.  1.
    9000005    2    1    2  501    0 -0.31561140604E+02  0.60671596215E+01 -0.64096955325E+02  0.46364023379E+03  0.45806214719E+03 0.  0.
         13    1    3    3    0    0 -0.24454141181E+03  0.11430307693E+02 -0.16656179171E+02  0.24537437178E+03  0.00000000000E+00 0.  1.
          1    1    3    3  501    0  0.21298027120E+03 -0.53631480720E+01 -0.47440776154E+02  0.21826586201E+03  0.00000000000E+00 0.  1.
         21    1    1    2  502  501  0.31561140604E+02 -0.60671596215E+01  0.12066833713E+02  0.34329644595E+02  0.00000000000E+00 0. -1.
<scales pt_clust_4="550.00000" pt_clust_5="550.00000" pt_clust_6="32.13901"></scales>
<mgrwt>
<rscale>  0 0.30000000E+03</rscale>
<asrwt>  1 0.32139011E+02</asrwt>
<pdfrwt beam="1">  1        1 0.81079956E+00 0.30000000E+03</pdfrwt>
<pdfrwt beam="2">0</pdfrwt>
<totfact> 0.87361728E-04</totfact>
</mgrwt>
<clustering>
<clus scale="   32.139">  1  6  2 -1</clus>
<clus scale="  458.062">  4  5 -1 -1</clus>
<clus scale="  300.000">  1  4  2 -1</clus>
</clustering>
</event>
<event>
 6    1  0.9254630E-012  0.3000000E+03  0.7818608E-02  0.1093470E+00
          1   -1    0    0  502    0  0.00000000000E+00  0.00000000000E+00  0.24520687250E+03  0.24520687250E+03  0.00000000000E+00 0.  1.
         13   -1    0    0    0    0 -0.00000000000E+00 -0.00000000000E+00 -0.27500000000E+03  0.27500000000E+03  0.00000000000E+00 0.  1.
    9000005    2    1    2  501    0  0.20387001723E+02  0.23902006998E+02 -0.32143376850E+02  0.48870354807E+03  0.48663233087E+03 0.  0.
         13    1    3    3    0    0  0.24477884027E+02 -0.17998893403E+03  0.13394807051E+03  0.22569286381E+03  0.00000000000E+00 0.  1.
          1    1    3    3  501    0 -0.40908823047E+01  0.20389094103E+03 -0.16609144736E+03  0.26301068427E+03  0.00000000000E+00 0.  1.
         21    1    1    2  502  501 -0.20387001723E+02 -0.23902006998E+02  0.23502493458E+01  0.31503324424E+02  0.00000000000E+00 0.  1.
<scales pt_clust_4="550.00000" pt_clust_5="550.00000" pt_clust_6="31.41553"></scales>
<mgrwt>
<rscale>  0 0.30000000E+03</rscale>
<asrwt>  1 0.31415534E+02</asrwt>
<pdfrwt beam="1">  1        1 0.89166135E+00 0.30000000E+03</pdfrwt>
<pdfrwt beam="2">0</pdfrwt>
<totfact> 0.14081945E-04</totfact>
</mgrwt>
<clustering>
<clus scale="   31.416">  1  6  2 -1</clus>
<clus scale="  486.632">  4  5 -1 -1</clus>
<clus scale="  300.000">  1  4  2 -1</clus>
</clustering>
</event>
<event>
 6    1  0.9254630E-012  0.3000000E+03  0.7818608E-02  0.1093470E+00
          1   -1    0    0  502    0  0.00000000000E+00  0.00000000000E+00  0.25926488191E+03  0.25926488191E+03  0.00000000000E+00 0.  1.
         13   -1    0    0    0    0 -0.00000000000E+00 -0.00000000000E+00 -0.27500000000E+03  0.27500000000E+03  0.00000000000E+00 0.  1.
    9000005    2    1    2  501    0 -0.21843572796E+01  0.36111525668E+02 -0.52943818018E+02  0.48236785836E+03  0.47808669634E+03 0.  0.
         13    1    3    3    0    0  0.45820517049E+02 -0.11204308757E+03  0.17105223934E+03  0.20955200271E+03  0.00000000000E+00 0.  1.
          3    1    3    3  501    0 -0.48004874329E+02  0.14815461324E+03 -0.22399605736E+03  0.27281585565E+03  0.00000000000E+00 0.  1.
         21    1    1    2  502  501  0.21843572796E+01 -0.36111525668E+02  0.37208699932E+02  0.51897023551E+02  0.00000000000E+00 0.  1.
<scales pt_clust_4="550.00000" pt_clust_5="550.00000" pt_clust_6="36.17753"></scales>
<mgrwt>
<rscale>  0 0.30000000E+03</rscale>
<asrwt>  1 0.36177530E+02</asrwt>
<pdfrwt beam="1">  1        1 0.94278139E+00 0.30000000E+03</pdfrwt>
<pdfrwt beam="2">0</pdfrwt>
<totfact> 0.17010849E-05</totfact>
</mgrwt>
<clustering>
<clus scale="   36.178">  1  6  2 -1</clus>
<clus scale="  478.087">  4  5 -1 -1</clus>
<clus scale="  300.000">  1  4  2 -1</clus>
</clustering>
</event>
<event>
 6    1  0.9254630E-012  0.3000000E+03  0.7818608E-02  0.1093470E+00
          1   -1    0    0  502    0  0.00000000000E+00  0.00000000000E+00  0.24448610941E+03  0.24448610941E+03  0.00000000000E+00 0.  1.
         13   -1    0    0    0    0 -0.00000000000E+00 -0.00000000000E+00 -0.27500000000E+03  0.27500000000E+03  0.00000000000E+00 0.  1.
    9000005    2    1    2  501    0  0.31375309564E+02 -0.10816400507E+02 -0.22477948143E+02  0.48533964632E+03  0.48368162004E+03 0.  0.
         13    1    3    3    0    0  0.12059740240E+03 -0.21824789968E+03  0.36374589036E+02  0.25199005915E+03  0.00000000000E+00 0.  1.
          3    1    3    3  501    0 -0.89222092840E+02  0.20743149918E+03 -0.58852537179E+02  0.23334958717E+03  0.00000000000E+00 0.  1.
         21    1    1    2  502  501 -0.31375309564E+02  0.10816400507E+02 -0.80359424518E+01  0.34146463086E+02  0.00000000000E+00 0.  1.
<scales pt_clust_4="550.00000" pt_clust_5="550.00000" pt_clust_6="33.18743"></scales>
<mgrwt>
<rscale>  0 0.30000000E+03</rscale>
<asrwt>  1 0.33187432E+02</asrwt>
<pdfrwt beam="1">  1        1 0.88904040E+00 0.30000000E+03</pdfrwt>
<pdfrwt beam="2">0</pdfrwt>
<totfact> 0.15082623E-04</totfact>
</mgrwt>
<clustering>
<clus scale="   33.187">  1  6  2 -1</clus>
<clus scale="  483.682">  4  5 -1 -1</clus>
<clus scale="  300.000">  1  4  2 -1</clus>
</clustering>
</event>
<event>
 6    1  0.9254630E-012  0.3000000E+03  0.7818608E-02  0.1093470E+00
          1   -1    0    0  502    0  0.00000000000E+00  0.00000000000E+00  0.25749765137E+03  0.25749765137E+03  0.00000000000E+00 0.  1.
         13   -1    0    0    0    0 -0.00000000000E+00 -0.00000000000E+00 -0.27500000000E+03  0.27500000000E+03  0.00000000000E+00 0.  1.
    9000005    2    1    2  501    0 -0.20403194286E+02  0.26398206541E+02 -0.53232837303E+02  0.48361183066E+03  0.47951382894E+03 0.  0.
         13    1    3    3    0    0  0.64943956282E+02  0.11815817432E+03  0.17639006227E+03  0.22201920116E+03  0.00000000000E+00 0.  1.
          3    1    3    3  501    0 -0.85347150569E+02 -0.91759967782E+02 -0.22962289958E+03  0.26159262950E+03  0.00000000000E+00 0.  1.
         21    1    1    2  502  501  0.20403194286E+02 -0.26398206541E+02  0.35730488677E+02  0.48885820713E+02  0.00000000000E+00 0. -1.
<scales pt_clust_4="550.00000" pt_clust_5="550.00000" pt_clust_6="33.36399"></scales>
<mgrwt>
<rscale>  0 0.30000000E+03</rscale>
<asrwt>  1 0.33363987E+02</asrwt>
<pdfrwt beam="1">  1        1 0.93635510E+00 0.30000000E+03</pdfrwt>
<pdfrwt beam="2">0</pdfrwt>
<totfact> 0.21871583E-05</totfact>
</mgrwt>
<clustering>
<clus scale="   33.364">  1  6  2 -1</clus>
<clus scale="  479.514">  4  5 -1 -1</clus>
<clus scale="  300.000">  1  4  2 -1</clus>
</clustering>
</event>
<event>
 6    1  0.9254630E-012  0.3000000E+03  0.7818608E-02  0.1093470E+00
          1   -1    0    0  502    0  0.00000000000E+00  0.00000000000E+00  0.22314446605E+03  0.22314446605E+03  0.00000000000E+00 0.  1.
         13   -1    0    0    0    0 -0.00000000000E+00 -0.00000000000E+00 -0.27500000000E+03  0.27500000000E+03  0.00000000000E+00 0.  1.
    9000005    2    1    2  501    0  0.84888231590E+01  0.32765000517E+02 -0.60966768112E+02  0.46309279040E+03  0.45781260395E+03 0.  0.
         13    1    3    3    0    0 -0.92703595877E+02  0.19667372049E+03  0.71988872249E+02  0.22903472826E+03  0.00000000000E+00 0.  1.
          3    1    3    3  501    0  0.10119241904E+03 -0.16390871997E+03 -0.13295564036E+03  0.23405806215E+03  0.00000000000E+00 0.  1.
         21    1    1    2  502  501 -0.84888231590E+01 -0.32765000517E+02  0.91112341589E+01  0.35051675643E+02  0.00000000000E+00 0. -1.
<scales pt_clust_4="550.00000" pt_clust_5="550.00000" pt_clust_6="33.84679"></scales>
<mgrwt>
<rscale>  0 0.30000000E+03</rscale>
<asrwt>  1 0.33846793E+02</asrwt>
<pdfrwt beam="1">  1        1 0.81143442E+00 0.30000000E+03</pdfrwt>
<pdfrwt beam="2">0</pdfrwt>
<totfact> 0.85523372E-04</totfact>
</mgrwt>
<clustering>
<clus scale="   33.847">  1  6  2 -1</clus>
<clus scale="  457.813">  4  5 -1 -1</clus>
<clus scale="  300.000">  1  4  2 -1</clus>
</clustering>
</event>
<event>
 6    1  0.9254630E-012  0.3000000E+03  0.7818608E-02  0.1093470E+00
          1   -1    0    0  502    0  0.00000000000E+00  0.00000000000E+00  0.24459779229E+03  0.24459779229E+03  0.00000000000E+00 0.  1.
         13   -1    0    0    0    0 -0.00000000000E+00 -0.00000000000E+00 -0.27500000000E+03  0.27500000000E+03  0.00000000000E+00 0.  1.
    9000005    2    1    2  501    0  0.18227647879E+02  0.30842264849E+02 -0.62731230805E+02  0.47134161981E+03  0.46577271582E+03 0.  0.
         13    1    3    3    0    0  0.17362528058E+02  0.14290140661E+03  0.16412885768E+03  0.21831296643E+03  0.00000000000E+00 0.  1.
          1    1    3    3  501    0  0.86511982162E+00 -0.11205914176E+03 -0.22686008848E+03  0.25302865338E+03  0.00000000000E+00 0.  1.
         21    1    1    2  502  501 -0.18227647879E+02 -0.30842264849E+02  0.32329023098E+02  0.48256172483E+02  0.00000000000E+00 0.  1.
<scales pt_clust_4="550.00000" pt_clust_5="550.00000" pt_clust_6="35.82586"></scales>
<mgrwt>
<rscale>  0 0.30000000E+03</rscale>
<asrwt>  1 0.35825863E+02</asrwt>
<pdfrwt beam="1">  1        1 0.88944652E+00 0.30000000E+03</pdfrwt>
<pdfrwt beam="2">0</pdfrwt>
<totfact> 0.14681011E-04</totfact>
</mgrwt>
<clustering>
<clus scale="   35.826">  1  6  2 -1</clus>
<clus scale="  465.773">  4  5 -1 -1</clus>
<clus scale="  300.000">  1  4  2 -1</clus>
</clustering>
</event>
<event>
 6    1  0.9254630E-012  0.3000000E+03  0.7818608E-02  0.1093470E+00
          1   -1    0    0  502    0  0.00000000000E+00  0.00000000000E+00  0.23731063841E+03  0.23731063841E+03  0.00000000000E+00 0.  1.
         13   -1    0    0    0    0 -0.00000000000E+00 -0.00000000000E+00 -0.27500000000E+03  0.27500000000E+03  0.00000000000E+00 0.  1.
    9000005    2    1    2  501    0 -0.28142676007E+02 -0.23532683544E+02 -0.60590378932E+02  0.46906420500E+03  0.46368549361E+03 0.  0.
         13    1    3    3    0    0  0.18806204211E+03 -0.10233255346E+03  0.40199257245E+02  0.21784229035E+03  0.00000000000E+00 0.  1.
          1    1    3    3  501    0 -0.21620471812E+03  0.78799869920E+02 -0.10078963618E+03  0.25122191464E+03  0.00000000000E+00 0.  1.
         21    1    1    2  502  501  0.28142676007E+02  0.23532683544E+02  0.22901017340E+02  0.43246433411E+02  0.00000000000E+00 0. -1.
<scales pt_clust_4="550.00000" pt_clust_5="550.00000" pt_clust_6="36.68511"></scales>
<mgrwt>
<rscale>  0 0.30000000E+03</rscale>
<asrwt>  1 0.36685112E+02</asrwt>
<pdfrwt beam="1">  1        1 0.86294778E+00 0.30000000E+03</pdfrwt>
<pdfrwt beam="2">0</pdfrwt>
<totfact> 0.29804518E-04</totfact>
</mgrwt>
<clustering>
<clus scale="   36.685">  1  6  2 -1</clus>
<clus scale="  463.685">  4  5 -1 -1</clus>
<clus scale="  300.000">  1  4  2 -1</clus>
</clustering>
</event>
<event>
 6    1  0.9254630E-012  0.3000000E+03  0.7818608E-02  0.1093470E+00
          1   -1    0    0  502    0  0.00000000000E+00  0.00000000000E+00  0.22825305567E+03  0.22825305567E+03  0.00000000000E+00 0.  1.
         13   -1    0    0    0    0 -0.00000000000E+00 -0.00000000000E+00 -0.27500000000E+03  0.27500000000E+03  0.00000000000E+00 0.  1.
    9000005    2    1    2  501    0  0.27461124285E+02  0.12343907990E+02 -0.51259285632E+02  0.47280889965E+03  0.46905677248E+03 0.  0.
         13    1    3    3    0    0  0.13036434599E+03 -0.93227983920E+02  0.15255270507E+03  0.22126601076E+03  0.00000000000E+00 0.  1.
          1    1    3    3  501    0 -0.10290322170E+03  0.10557189191E+03 -0.20381199071E+03  0.25154288889E+03  0.00000000000E+00 0.  1.
         21    1    1    2  502  501 -0.27461124285E+02 -0.12343907990E+02  0.45123412976E+01  0.30444156015E+02  0.00000000000E+00 0.  1.
<scales pt_clust_4="550.00000" pt_clust_5="550.00000" pt_clust_6="30.10790"></scales>
<mgrwt>
<rscale>  0 0.30000000E+03</rscale>
<asrwt>  1 0.30107896E+02</asrwt>
<pdfrwt beam="1">  1        1 0.83001111E+00 0.30000000E+03</pdfrwt>
<pdfrwt beam="2">0</pdfrwt>
<totfact> 0.60800708E-04</totfact>
</mgrwt>
<clustering>
<clus scale="   30.108">  1  6  2 -1</clus>
<clus scale="  469.057">  4  5 -1 -1</clus>
<clus scale="  300.000">  1  4  2 -1</clus>
</clustering>
</event>
<event>
 6    1  0.9254630E-012  0.3000000E+03  0.7818608E-02  0.1093470E+00
          1   -1    0    0  502    0  0.00000000000E+00  0.00000000000E+00  0.24316564974E+03  0.24316564974E+03  0.00000000000E+00 0.  1.
         13   -1    0    0    0    0 -0.00000000000E+00 -0.00000000000E+00 -0.27500000000E+03  0.27500000000E+03  0.00000000000E+00 0.  1.
    9000005    2    1    2  501    0  0.16458182305E+02 -0.28700172576E+02 -0.73398421115E+02  0.46504179769E+03  0.45801962153E+03 0.  0.
         13    1    3    3    0    0 -0.21278276975E+03  0.40288657717E+02 -0.72951873241E+01  0.21668618507E+03  0.00000000000E+00 0.  1.
          3    1    3    3  501    0  0.22924095205E+03 -0.68988830293E+02 -0.66103233791E+02  0.24835561262E+03  0.00000000000E+00 0.  1.
         21    1    1    2  502  501 -0.16458182305E+02  0.28700172576E+02  0.41564070850E+02  0.53123852047E+02  0.00000000000E+00 0.  1.
<scales pt_clust_4="550.00000" pt_clust_5="550.00000" pt_clust_6="33.08431"></scales>
<mgrwt>
<rscale>  0 0.30000000E+03</rscale>
<asrwt>  1 0.33084312E+02</asrwt>
<pdfrwt beam="1">  1        1 0.88423873E+00 0.30000000E+03</pdfrwt>
<pdfrwt beam="2">0</pdfrwt>
<totfact> 0.17566437E-04</totfact>
</mgrwt>
<clustering>
<clus scale="   33.084">  1  6  2 -1</clus>
<clus scale="  458.020">  4  5 -1 -1</clus>
<clus scale="  300.000">  1  4  2 -1</clus>
</clustering>
</event>
<event>
 6    1  0.9254630E-012  0.3000000E+03  0.7818608E-02  0.1093470E+00
          1   -1    0    0  502    0  0.00000000000E+00  0.00000000000E+00  0.23432620171E+03  0.23432620171E+03  0.00000000000E+00 0.  1.
         13   -1    0    0    0    0 -0.00000000000E+00 -0.00000000000E+00 -0.27500000000E+03  0.27500000000E+03  0.00000000000E+00 0.  1.
    9000005    2    1    2  501    0 -0.35171899637E+02 -0.18281472114E+02 -0.46319619746E+02  0.46928684549E+03  0.46530996274E+03 0.  0.
         13    1    3    3    0    0  0.28165350778E+02 -0.21119897108E+03  0.82877511661E+02  0.22861971549E+03  0.00000000000E+00 0.  1.
          3    1    3    3  501    0 -0.63337250415E+02  0.19291749897E+03 -0.12919713141E+03  0.24066713000E+03  0.00000000000E+00 0.  1.
         21    1    1    2  502  501  0.35171899637E+02  0.18281472114E+02  0.56458214528E+01  0.40039356221E+02  0.00000000000E+00 0.  1.
<scales pt_clust_4="550.00000" pt_clust_5="550.00000" pt_clust_6="39.63931"></scales>
<mgrwt>
<rscale>  0 0.30000000E+03</rscale>
<asrwt>  1 0.39639308E+02</asrwt>
<pdfrwt beam="1">  1        1 0.85209528E+00 0.30000000E+03</pdfrwt>
<pdfrwt beam="2">0</pdfrwt>
<totfact> 0.37993301E-04</totfact>
</mgrwt>
<clustering>
<clus scale="   39.639">  1  6  2 -1</clus>
<clus scale="  465.310">  4  5 -1 -1</clus>
<clus scale="  300.000">  1  4  2 -1</clus>
</clustering>
</event>
<event>
 6    1  0.9254630E-012  0.3000000E+03  0.7818608E-02  0.1093470E+00
          1   -1    0    0  502    0  0.00000000000E+00  0.00000000000E+00  0.22554128628E+03  0.22554128628E+03  0.00000000000E+00 0.  1.
         13   -1    0    0    0    0 -0.00000000000E+00 -0.00000000000E+00 -0.27500000000E+03  0.27500000000E+03  0.00000000000E+00 0.  1.
    9000005    2    1    2  501    0  0.58556887327E+01 -0.34799403706E+02 -0.63507938880E+02  0.46255881247E+03  0.45681736953E+03 0.  0.
         13    1    3    3    0    0 -0.66938330855E+02  0.12200917130E+03  0.13872770055E+03  0.19650026188E+03  0.00000000000E+00 0.  1.
          3    1    3    3  501    0  0.72794019588E+02 -0.15680857501E+03 -0.20223563943E+03  0.26605855059E+03  0.00000000000E+00 0.  1.
         21    1    1    2  502  501 -0.58556887327E+01  0.34799403706E+02  0.14049225158E+02  0.37982473805E+02  0.00000000000E+00 0. -1.
<scales pt_clust_4="550.00000" pt_clust_5="550.00000" pt_clust_6="35.28863"></scales>
<mgrwt>
<rscale>  0 0.30000000E+03</rscale>
<asrwt>  1 0.35288633E+02</asrwt>
<pdfrwt beam="1">  1        1 0.82015013E+00 0.30000000E+03</pdfrwt>
<pdfrwt beam="2">0</pdfrwt>
<totfact> 0.72002130E-04</totfact>
</mgrwt>
<clustering>
<clus scale="   35.289">  1  6  2 -1</clus>
<clus scale="  456.817">  4  5 -1 -1</clus>
<clus scale="  300.000">  1  4  2 -1</clus>
</clustering>
</event>
<event>
 6    1  0.9254630E-012  0.3000000E+03  0.7818608E-02  0.1093470E+00
          1   -1    0    0  502    0  0.00000000000E+00  0.00000000000E+00  0.22304505325E+03  0.22304505325E+03  0.00000000000E+00 0.  1.
         13   -1    0    0    0    0 -0.00000000000E+00 -0.00000000000E+00 -0.27500000000E+03  0.27500000000E+03  0.00000000000E+00 0.  1.
    9000005    2    1    2  501    0 -0.13446775511E+02  0.31639503679E+02 -0.63004533185E+02  0.46193456550E+03  0.45632455297E+03 0.  0.
         13    1    3    3    0    0  0.82047520988E+02 -0.18847023775E+02 -0.24013616271E+03  0.25446489472E+03  0.00000000000E+00 0.  1.
          3    1    3    3  501    0 -0.95494296498E+02  0.50486527454E+02  0.17713162952E+03  0.20746967078E+03  0.00000000000E+00 0.  1.
         21    1    1    2  502  501  0.13446775511E+02 -0.31639503679E+02  0.11049586432E+02  0.36110487743E+02  0.00000000000E+00 0. -1.
<scales pt_clust_4="550.00000" pt_clust_5="550.00000" pt_clust_6="34.37839"></scales>
<mgrwt>
<rscale>  0 0.30000000E+03</rscale>
<asrwt>  1 0.34378394E+02</asrwt>
<pdfrwt beam="1">  1        1 0.81107292E+00 0.30000000E+03</pdfrwt>
<pdfrwt beam="2">0</pdfrwt>
<totfact> 0.85832945E-04</totfact>
</mgrwt>
<clustering>
<clus scale="   34.378">  1  6  2 -1</clus>
<clus scale="  456.325">  4  5 -1 -1</clus>
<clus scale="  300.000">  1  4  2 -1</clus>
</clustering>
</event>
<event>
 6    1  0.9254630E-012  0.3000000E+03  0.7818608E-02  0.1093470E+00
          1   -1    0    0  502    0  0.00000000000E+00  0.00000000000E+00  0.25412546972E+03  0.25412546972E+03  0.00000000000E+00 0.  1.
         13   -1    0    0    0    0 -0.00000000000E+00 -0.00000000000E+00 -0.27500000000E+03  0.27500000000E+03  0.00000000000E+00 0.  1.
    9000005    2    1    2  501    0 -0.39157341288E+02  0.18682785789E+02 -0.26897428511E+02  0.48532342451E+03  0.48263134052E+03 0.  0.
         13    1    3    3    0    0 -0.12311083147E+03 -0.20673633610E+03  0.15312179890E+02  0.24110299115E+03  0.00000000000E+00 0.  1.
          1    1    3    3  501    0  0.83953490183E+02  0.22541912189E+03 -0.42209608401E+02  0.24422043336E+03  0.00000000000E+00 0.  1.
         21    1    1    2  502  501  0.39157341288E+02 -0.18682785789E+02  0.60228982288E+01  0.43802045211E+02  0.00000000000E+00 0.  1.
<scales pt_clust_4="550.00000" pt_clust_5="550.00000" pt_clust_6="43.38599"></scales>
<mgrwt>
<rscale>  0 0.30000000E+03</rscale>
<asrwt>  1 0.43385987E+02</asrwt>
<pdfrwt beam="1">  1        1 0.92409262E+00 0.30000000E+03</pdfrwt>
<pdfrwt beam="2">0</pdfrwt>
<totfact> 0.32919508E-05</totfact>
</mgrwt>
<clustering>
<clus scale="   43.386">  1  6  2 -1</clus>
<clus scale="  482.631">  4  5 -1 -1</clus>
<clus scale="  300.000">  1  4  2 -1</clus>
</clustering>
</event>
<event>
 6    1  0.9254630E-012  0.3000000E+03  0.7818608E-02  0.1093470E+00
          1   -1    0    0  502    0  0.00000000000E+00  0.00000000000E+00  0.23479306813E+03  0.23479306813E+03  0.00000000000E+00 0.  1.
         13   -1    0    0    0    0 -0.00000000000E+00 -0.00000000000E+00 -0.27500000000E+03  0.27500000000E+03  0.00000000000E+00 0.  1.
    9000005    2    1    2  501    0 -0.22526669876E+02 -0.20353739168E+02 -0.47908478807E+02  0.47847151997E+03  0.47509793467E+03 0.  0.
         13    1    3    3    0    0  0.22557602446E+03 -0.12629077553E+02 -0.14251606410E+01  0.22593376794E+03  0.00000000000E+00 0.  1.
          1    1    3    3  501    0 -0.24810269434E+03 -0.77246616142E+01 -0.46483318166E+02  0.25253775203E+03  0.00000000000E+00 0.  1.
         21    1    1    2  502  501  0.22526669876E+02  0.20353739168E+02  0.77015469350E+01  0.31321548158E+02  0.00000000000E+00 0. -1.
<scales pt_clust_4="550.00000" pt_clust_5="550.00000" pt_clust_6="30.35993"></scales>
<mgrwt>
<rscale>  0 0.30000000E+03</rscale>
<asrwt>  1 0.30359933E+02</asrwt>
<pdfrwt beam="1">  1        1 0.85379298E+00 0.30000000E+03</pdfrwt>
<pdfrwt beam="2">0</pdfrwt>
<totfact> 0.38462275E-04</totfact>
</mgrwt>
<clustering>
<clus scale="   30.360">  1  6  2 -1</clus>
<clus scale="  475.098">  4  5 -1 -1</clus>
<clus scale="  300.000">  1  4  2 -1</clus>
</clustering>
</event>
<event>
 6    1  0.9254630E-012  0.3000000E+03  0.7818608E-02  0.1093470E+00
          1   -1    0    0  502    0  0.00000000000E+00  0.00000000000E+00  0.22535854839E+03  0.22535854839E+03  0.00000000000E+00 0.  1.
         13   -1    0    0    0    0 -0.00000000000E+00 -0.00000000000E+00 -0.27500000000E+03  0.27500000000E+03  0.00000000000E+00 0.  1.
    9000005    2    1    2  501    0  0.21403458106E+02 -0.30721100519E+02 -0.58824130038E+02  0.46180708124E+03  0.45651244011E+03 0.  0.
         13    1    3    3    0    0  0.43659969172E+02 -0.23886739126E+03 -0.68339759550E+02  0.25225809452E+03  0.00000000000E+00 0.  1.
          1    1    3    3  501    0 -0.22256511066E+02  0.20814629074E+03  0.95156295124E+01  0.20954898673E+03  0.00000000000E+00 0.  1.
         21    1    1    2  502  501 -0.21403458106E+02  0.30721100519E+02  0.91826784261E+01  0.38551467145E+02  0.00000000000E+00 0. -1.
<scales pt_clust_4="550.00000" pt_clust_5="550.00000" pt_clust_6="37.44188"></scales>
<mgrwt>
<rscale>  0 0.30000000E+03</rscale>
<asrwt>  1 0.37441875E+02</asrwt>
<pdfrwt beam="1">  1        1 0.81948563E+00 0.30000000E+03</pdfrwt>
<pdfrwt beam="2">0</pdfrwt>
<totfact> 0.72161254E-04</totfact>
</mgrwt>
<clustering>
<clus scale="   37.442">  1  6  2 -1</clus>
<clus scale="  456.512">  4  5 -1 -1</clus>
<clus scale="  300.000">  1  4  2 -1</clus>
</clustering>
</event>
<event>
 6    1  0.9254630E-012  0.3000000E+03  0.7818608E-02  0.1093470E+00
          1   -1    0    0  502    0  0.00000000000E+00  0.00000000000E+00  0.24737447277E+03  0.24737447277E+03  0.00000000000E+00 0.  1.
         13   -1    0    0    0    0 -0.00000000000E+00 -0.00000000000E+00 -0.27500000000E+03  0.27500000000E+03  0.00000000000E+00 0.  1.
    9000005    2    1    2  501    0 -0.11771132891E+02  0.30343530851E+02 -0.41498208740E+02  0.48699452469E+03  0.48413043316E+03 0.  0.
         13    1    3    3    0    0  0.62571304715E+02 -0.20543523535E+03 -0.93729063758E+02  0.23431590106E+03  0.00000000000E+00 0.  1.
          1    1    3    3  501    0 -0.74342437606E+02  0.23577876620E+03  0.52230855017E+02  0.25267862362E+03  0.00000000000E+00 0.  1.
         21    1    1    2  502  501  0.11771132891E+02 -0.30343530851E+02  0.13872681507E+02  0.35379948081E+02  0.00000000000E+00 0. -1.
<scales pt_clust_4="550.00000" pt_clust_5="550.00000" pt_clust_6="32.54673"></scales>
<mgrwt>
<rscale>  0 0.30000000E+03</rscale>
<asrwt>  1 0.32546727E+02</asrwt>
<pdfrwt beam="1">  1        1 0.89954354E+00 0.30000000E+03</pdfrwt>
<pdfrwt beam="2">0</pdfrwt>
<totfact> 0.11343157E-04</totfact>
</mgrwt>
<clustering>
<clus scale="   32.547">  1  6  2 -1</clus>
<clus scale="  484.130">  4  5 -1 -1</clus>
<clus scale="  300.000">  1  4  2 -1</clus>
</clustering>
</event>
<event>
 6    1  0.9254630E-012  0.3000000E+03  0.7818608E-02  0.1093470E+00
          1   -1    0    0  502    0  0.00000000000E+00  0.00000000000E+00  0.22587323255E+03  0.22587323255E+03  0.00000000000E+00 0.  1.
         13   -1    0    0    0    0 -0.00000000000E+00 -0.00000000000E+00 -0.27500000000E+03  0.27500000000E+03  0.00000000000E+00 0.  1.
    9000005    2    1    2  501    0  0.11714875434E+02 -0.28049125481E+02 -0.63182321960E+02  0.46738367658E+03  0.46209469113E+03 0.  0.
         13    1    3    3    0    0  0.22358079268E+03 -0.27296016269E+02 -0.10960076955E+03  0.25049106181E+03  0.00000000000E+00 0.  1.
          1    1    3    3  501    0 -0.21186591724E+03 -0.75310921176E+00  0.46418447594E+02  0.21689261477E+03  0.00000000000E+00 0.  1.
         21    1    1    2  502  501 -0.11714875434E+02  0.28049125481E+02  0.14055554508E+02  0.33489555972E+02  0.00000000000E+00 0.  1.
<scales pt_clust_4="550.00000" pt_clust_5="550.00000" pt_clust_6="30.39723"></scales>
<mgrwt>
<rscale>  0 0.30000000E+03</rscale>
<asrwt>  1 0.30397233E+02</asrwt>
<pdfrwt beam="1">  1        1 0.82135721E+00 0.30000000E+03</pdfrwt>
<pdfrwt beam="2">0</pdfrwt>
<totfact> 0.72287239E-04</totfact>
</mgrwt>
<clustering>
<clus scale="   30.397">  1  6  2 -1</clus>
<clus scale="  462.095">  4  5 -1 -1</clus>
<clus scale="  300.000">  1  4  2 -1</clus>
</clustering>
</event>
<event>
 6    1  0.9254630E-012  0.3000000E+03  0.7818608E-02  0.1093470E+00
          1   -1    0    0  502    0  0.00000000000E+00  0.00000000000E+00  0.24252467492E+03  0.24252467492E+03  0.00000000000E+00 0.  1.
         13   -1    0    0    0    0 -0.00000000000E+00 -0.00000000000E+00 -0.27500000000E+03  0.27500000000E+03  0.00000000000E+00 0.  1.
    9000005    2    1    2  501    0 -0.10961228920E+02  0.38590743615E+02 -0.61068782096E+02  0.46826028802E+03  0.46252449358E+03 0.  0.
         13    1    3    3    0    0  0.95045923403E+02  0.18235338125E+03 -0.16317816357E+03  0.26251399253E+03  0.00000000000E+00 0.  1.
          1    1    3    3  501    0 -0.10600715232E+03 -0.14376263764E+03  0.10210938147E+03  0.20574629549E+03  0.00000000000E+00 0.  1.
         21    1    1    2  502  501  0.10961228920E+02 -0.38590743615E+02  0.28593457018E+02  0.49264386899E+02  0.00000000000E+00 0.  1.
<scales pt_clust_4="550.00000" pt_clust_5="550.00000" pt_clust_6="40.11725"></scales>
<mgrwt>
<rscale>  0 0.30000000E+03</rscale>
<asrwt>  1 0.40117254E+02</asrwt>
<pdfrwt beam="1">  1        1 0.88190791E+00 0.30000000E+03</pdfrwt>
<pdfrwt beam="2">0</pdfrwt>
<totfact> 0.18204221E-04</totfact>
</mgrwt>
<clustering>
<clus scale="   40.117">  1  6  2 -1</clus>
<clus scale="  462.524">  4  5 -1 -1</clus>
<clus scale="  300.000">  1  4  2 -1</clus>
</clustering>
</event>
<event>
 6    1  0.9254630E-012  0.3000000E+03  0.7818608E-02  0.1093470E+00
          1   -1    0    0  502    0  0.00000000000E+00  0.00000000000E+00  0.23247526422E+03  0.23247526422E+03  0.00000000000E+00 0.  1.
         13   -1    0    0    0    0 -0.00000000000E+00 -0.00000000000E+00 -0.27500000000E+03  0.27500000000E+03  0.00000000000E+00 0.  1.
    9000005    2    1    2  501    0 -0.10476704446E+02  0.32538155623E+02 -0.35533868352E+02  0.47258450420E+03  0.47000528178E+03 0.  0.
         13    1    3    3    0    0 -0.34286166514E+02 -0.21730503469E+03 -0.84966513128E+01  0.22015724471E+03  0.00000000000E+00 0.  1.
          3    1    3    3  501    0  0.23809462068E+02  0.24984319031E+03 -0.27037217039E+02  0.25242725949E+03  0.00000000000E+00 0.  1.
         21    1    1    2  502  501  0.10476704446E+02 -0.32538155623E+02 -0.69908674316E+01  0.34890760021E+02  0.00000000000E+00 0. -1.
<scales pt_clust_4="550.00000" pt_clust_5="550.00000" pt_clust_6="34.18324"></scales>
<mgrwt>
<rscale>  0 0.30000000E+03</rscale>
<asrwt>  1 0.34183243E+02</asrwt>
<pdfrwt beam="1">  1        1 0.84536460E+00 0.30000000E+03</pdfrwt>
<pdfrwt beam="2">0</pdfrwt>
<totfact> 0.45050160E-04</totfact>
</mgrwt>
<clustering>
<clus scale="   34.183">  1  6  2 -1</clus>
<clus scale="  470.005">  4  5 -1 -1</clus>
<clus scale="  300.000">  1  4  2 -1</clus>
</clustering>
</event>
<event>
 6    1  0.9254630E-012  0.3000000E+03  0.7818608E-02  0.1093470E+00
          1   -1    0    0  502    0  0.00000000000E+00  0.00000000000E+00  0.24130576079E+03  0.24130576079E+03  0.00000000000E+00 0.  1.
         13   -1    0    0    0    0 -0.00000000000E+00 -0.00000000000E+00 -0.27500000000E+03  0.27500000000E+03  0.00000000000E+00 0.  1.
    9000005    2    1    2  501    0  0.34191657076E+02  0.21994063391E+02 -0.38932644114E+02  0.47531491884E+03  0.47197003406E+03 0.  0.
         13    1    3    3    0    0  0.54183497458E+02 -0.21428254221E+03 -0.79221964752E+02  0.23479561110E+03  0.00000000000E+00 0.  1.
          3    1    3    3  501    0 -0.19991840382E+02  0.23627660560E+03  0.40289320638E+02  0.24051930774E+03  0.00000000000E+00 0.  1.
         21    1    1    2  502  501 -0.34191657076E+02 -0.21994063391E+02  0.52384049037E+01  0.40990841953E+02  0.00000000000E+00 0.  1.
<scales pt_clust_4="550.00000" pt_clust_5="550.00000" pt_clust_6="40.65474"></scales>
<mgrwt>
<rscale>  0 0.30000000E+03</rscale>
<asrwt>  1 0.40654744E+02</asrwt>
<pdfrwt beam="1">  1        1 0.87747549E+00 0.30000000E+03</pdfrwt>
<pdfrwt beam="2">0</pdfrwt>
<totfact> 0.20562496E-04</totfact>
</mgrwt>
<clustering>
<clus scale="   40.655">  1  6  2 -1</clus>
<clus scale="  471.970">  4  5 -1 -1</clus>
<clus scale="  300.000">  1  4  2 -1</clus>
</clustering>
</event>
<event>
 6    1  0.9254630E-012  0.3000000E+03  0.7818608E-02  0.1093470E+00
          1   -1    0    0  502    0  0.00000000000E+00  0.00000000000E+00  0.22964274985E+03  0.22964274985E+03  0.00000000000E+00 0.  1.
         13   -1    0    0    0    0 -0.00000000000E+00 -0.00000000000E+00 -0.27500000000E+03  0.27500000000E+03  0.00000000000E+00 0.  1.
    9000005    2    1    2  501    0 -0.98809033947E+01 -0.29886231257E+02 -0.65920967369E+02  0.46704374007E+03  0.46129541741E+03 0.  0.
         13    1    3    3    0    0 -0.18271878781E+03 -0.10678573421E+03 -0.15063409401E+03  0.25976908732E+03  0.00000000000E+00 0.  1.
          3    1    3    3  501    0  0.17283788442E+03  0.76899502953E+02  0.84713126638E+02  0.20727465274E+03  0.00000000000E+00 0.  1.
         21    1    1    2  502  501  0.98809033947E+01  0.29886231257E+02  0.20563717214E+02  0.37599009779E+02  0.00000000000E+00 0.  1.
<scales pt_clust_4="550.00000" pt_clust_5="550.00000" pt_clust_6="31.47728"></scales>
<mgrwt>
<rscale>  0 0.30000000E+03</rscale>
<asrwt>  1 0.31477279E+02</asrwt>
<pdfrwt beam="1">  1        1 0.83506454E+00 0.30000000E+03</pdfrwt>
<pdfrwt beam="2">0</pdfrwt>
<totfact> 0.55134122E-04</totfact>
</mgrwt>
<clustering>
<clus scale="   31.477">  1  6  2 -1</clus>
<clus scale="  461.295">  4  5 -1 -1</clus>
<clus scale="  300.000">  1  4  2 -1</clus>
</clustering>
</event>
<event>
 6    1  0.9254630E-012  0.3000000E+03  0.7818608E-02  0.1093470E+00
          1   -1    0    0  502    0  0.00000000000E+00  0.00000000000E+00  0.22028290756E+03  0.22028290756E+03  0.00000000000E+00 0.  1.
         13   -1    0    0    0    0 -0.00000000000E+00 -0.00000000000E+00 -0.27500000000E+03  0.27500000000E+03  0.00000000000E+00 0.  1.
    9000005    2    1    2  501    0  0.17860758028E+02  0.25784074807E+02 -0.62245137843E+02  0.46302617712E+03  0.45774988621E+03 0.  0.
         13    1    3    3    0    0 -0.14650648641E+03 -0.11784966526E+03 -0.13662398670E+03  0.23241946541E+03  0.00000000000E+00 0.  1.
          3    1    3    3  501    0  0.16436724443E+03  0.14363374006E+03  0.74378848859E+02  0.23060671171E+03  0.00000000000E+00 0.  1.
         21    1    1    2  502  501 -0.17860758028E+02 -0.25784074807E+02  0.75280454023E+01  0.32256730438E+02  0.00000000000E+00 0.  1.
<scales pt_clust_4="550.00000" pt_clust_5="550.00000" pt_clust_6="31.36599"></scales>
<mgrwt>
<rscale>  0 0.30000000E+03</rscale>
<asrwt>  1 0.31365988E+02</asrwt>
<pdfrwt beam="1">  1        1 0.80102875E+00 0.30000000E+03</pdfrwt>
<pdfrwt beam="2">0</pdfrwt>
<totfact> 0.10407332E-03</totfact>
</mgrwt>
<clustering>
<clus scale="   31.366">  1  6  2 -1</clus>
<clus scale="  457.750">  4  5 -1 -1</clus>
<clus scale="  300.000">  1  4  2 -1</clus>
</clustering>
</event>
<event>
 6    1  0.9254630E-012  0.3000000E+03  0.7818608E-02  0.1093470E+00
          1   -1    0    0  502    0  0.00000000000E+00  0.00000000000E+00  0.24914771112E+03  0.24914771112E+03  0.00000000000E+00 0.  1.
         13   -1    0    0    0    0 -0.00000000000E+00 -0.00000000000E+00 -0.27500000000E+03  0.27500000000E+03  0.00000000000E+00 0.  1.
    9000005    2    1    2  501    0  0.27321698440E+02 -0.24398987029E+02 -0.47560430823E+02  0.48156803052E+03  0.47781166547E+03 0.  0.
         13    1    3    3    0    0  0.20605539692E+03  0.12596364738E+03 -0.55737811507E+02  0.24785554400E+03  0.00000000000E+00 0.  1.
          3    1    3    3  501    0 -0.17873369848E+03 -0.15036263441E+03  0.81773806832E+01  0.23371248651E+03  0.00000000000E+00 0.  1.
         21    1    1    2  502  501 -0.27321698440E+02  0.24398987029E+02  0.21708141943E+02  0.42579680604E+02  0.00000000000E+00 0. -1.
<scales pt_clust_4="550.00000" pt_clust_5="550.00000" pt_clust_6="36.63039"></scales>
<mgrwt>
<rscale>  0 0.30000000E+03</rscale>
<asrwt>  1 0.36630394E+02</asrwt>
<pdfrwt beam="1">  1        1 0.90599168E+00 0.30000000E+03</pdfrwt>
<pdfrwt beam="2">0</pdfrwt>
<totfact> 0.87676784E-05</totfact>
</mgrwt>
<clustering>
<clus scale="   36.630">  1  6  2 -1</clus>
<clus scale="  477.812">  4  5 -1 -1</clus>
<clus scale="  300.000">  1  4  2 -1</clus>
</clustering>
</event>
<event>
 6    1  0.9254630E-012  0.3000000E+03  0.7818608E-02  0.1093470E+00
          1   -1    0    0  502    0  0.00000000000E+00  0.00000000000E+00  0.22803871050E+03  0.22803871050E+03  0.00000000000E+00 0.  1.
         13   -1    0    0    0    0 -0.00000000000E+00 -0.00000000000E+00 -0.27500000000E+03  0.27500000000E+03  0.00000000000E+00 0.  1.
    9000005    2    1    2  501    0  0.76676694377E+01  0.35276482604E+02 -0.46916629705E+02  0.46693849757E+03  0.46317077519E+03 0.  0.
         13    1    3    3    0    0  0.22780372417E+03 -0.56105559485E+01  0.30774689461E+02  0.22994150690E+03  0.00000000000E+00 0.  1.
          1    1    3    3  501    0 -0.22013605473E+03  0.40887038552E+02 -0.77691319166E+02  0.23699699067E+03  0.00000000000E+00 0.  1.
         21    1    1    2  502  501 -0.76676694377E+01 -0.35276482604E+02 -0.44659791845E-01  0.36100212935E+02  0.00000000000E+00 0.  1.
<scales pt_clust_4="550.00000" pt_clust_5="550.00000" pt_clust_6="36.10019"></scales>
<mgrwt>
<rscale>  0 0.30000000E+03</rscale>
<asrwt>  1 0.36100185E+02</asrwt>
<pdfrwt beam="1">  1        1 0.82923167E+00 0.30000000E+03</pdfrwt>
<pdfrwt beam="2">0</pdfrwt>
<totfact> 0.59635785E-04</totfact>
</mgrwt>
<clustering>
<clus scale="   36.100">  1  6  2 -1</clus>
<clus scale="  463.171">  4  5 -1 -1</clus>
<clus scale="  300.000">  1  4  2 -1</clus>
</clustering>
</event>
<event>
 6    1  0.9254630E-012  0.3000000E+03  0.7818608E-02  0.1093470E+00
          1   -1    0    0  502    0  0.00000000000E+00  0.00000000000E+00  0.24253855795E+03  0.24253855795E+03  0.00000000000E+00 0.  1.
         13   -1    0    0    0    0 -0.00000000000E+00 -0.00000000000E+00 -0.27500000000E+03  0.27500000000E+03  0.00000000000E+00 0.  1.
    9000005    2    1    2  501    0 -0.16840592193E+02 -0.38863272392E+02 -0.53726657186E+02  0.47014479400E+03  0.46514042412E+03 0.  0.
         13    1    3    3    0    0 -0.20670448054E+03 -0.30803692939E+02 -0.14987292211E+03  0.25717212632E+03  0.00000000000E+00 0.  1.
          1    1    3    3  501    0  0.18986388835E+03 -0.80595794534E+01  0.96146264927E+02  0.21297266768E+03  0.00000000000E+00 0.  1.
         21    1    1    2  502  501  0.16840592193E+02  0.38863272392E+02  0.21265215140E+02  0.47393763950E+02  0.00000000000E+00 0. -1.
<scales pt_clust_4="550.00000" pt_clust_5="550.00000" pt_clust_6="42.35516"></scales>
<mgrwt>
<rscale>  0 0.30000000E+03</rscale>
<asrwt>  1 0.42355159E+02</asrwt>
<pdfrwt beam="1">  1        1 0.88195839E+00 0.30000000E+03</pdfrwt>
<pdfrwt beam="2">0</pdfrwt>
<totfact> 0.17998575E-04</totfact>
</mgrwt>
<clustering>
<clus scale="   42.355">  1  6  2 -1</clus>
<clus scale="  465.140">  4  5 -1 -1</clus>
<clus scale="  300.000">  1  4  2 -1</clus>
</clustering>
</event>
<event>
 6    1  0.9254630E-012  0.3000000E+03  0.7818608E-02  0.1093470E+00
          1   -1    0    0  502    0  0.00000000000E+00  0.00000000000E+00  0.23910856575E+03  0.23910856575E+03  0.00000000000E+00 0.  1.
         13   -1    0    0    0    0 -0.00000000000E+00 -0.00000000000E+00 -0.27500000000E+03  0.27500000000E+03  0.00000000000E+00 0.  1.
    9000005    2    1    2  501    0 -0.18276148688E+02  0.30375987086E+02 -0.69504324320E+02  0.46525629271E+03  0.45866747062E+03 0.  0.
         13    1    3    3    0    0  0.58183692617E+02  0.14295435019E+03  0.14464354826E+03  0.21152551708E+03  0.00000000000E+00 0.  1.
          3    1    3    3  501    0 -0.76459841305E+02 -0.11257836310E+03 -0.21414787258E+03  0.25373077563E+03  0.00000000000E+00 0.  1.
         21    1    1    2  502  501  0.18276148688E+02 -0.30375987086E+02  0.33612890066E+02  0.48852273037E+02  0.00000000000E+00 0.  1.
<scales pt_clust_4="550.00000" pt_clust_5="550.00000" pt_clust_6="35.45022"></scales>
<mgrwt>
<rscale>  0 0.30000000E+03</rscale>
<asrwt>  1 0.35450221E+02</asrwt>
<pdfrwt beam="1">  1        1 0.86948569E+00 0.30000000E+03</pdfrwt>
<pdfrwt beam="2">0</pdfrwt>
<totfact> 0.25572978E-04</totfact>
</mgrwt>
<clustering>
<clus scale="   35.450">  1  6  2 -1</clus>
<clus scale="  458.667">  4  5 -1 -1</clus>
<clus scale="  300.000">  1  4  2 -1</clus>
</clustering>
</event>
<event>
 6    1  0.9254630E-012  0.3000000E+03  0.7818608E-02  0.1093470E+00
          1   -1    0    0  502    0  0.00000000000E+00  0.00000000000E+00  0.24820964093E+03  0.24820964093E+03  0.00000000000E+00 0.  1.
         13   -1    0    0    0    0 -0.00000000000E+00 -0.00000000000E+00 -0.27500000000E+03  0.27500000000E+03  0.00000000000E+00 0.  1.
    9000005    2    1    2  501    0 -0.20759248376E+02  0.44970431812E+02 -0.43660496549E+02  0.47088481251E+03  0.46623275471E+03 0.  0.
         13    1    3    3    0    0  0.11756586809E+03 -0.13267331171E+03 -0.14010588074E+03  0.22595043438E+03  0.00000000000E+00 0.  1.
          1    1    3    3  501    0 -0.13832511647E+03  0.17764374352E+03  0.96445384186E+02  0.24493437813E+03  0.00000000000E+00 0.  1.
         21    1    1    2  502  501  0.20759248376E+02 -0.44970431812E+02  0.16870137480E+02  0.52324828419E+02  0.00000000000E+00 0.  1.
<scales pt_clust_4="550.00000" pt_clust_5="550.00000" pt_clust_6="49.53066"></scales>
<mgrwt>
<rscale>  0 0.30000000E+03</rscale>
<asrwt>  1 0.49530658E+02</asrwt>
<pdfrwt beam="1">  1        1 0.90258051E+00 0.30000000E+03</pdfrwt>
<pdfrwt beam="2">0</pdfrwt>
<totfact> 0.95536969E-05</totfact>
</mgrwt>
<clustering>
<clus scale="   49.531">  1  6  2 -1</clus>
<clus scale="  466.233">  4  5 -1 -1</clus>
<clus scale="  300.000">  1  4  2 -1</clus>
</clustering>
</event>
<event>
 6    1  0.9254630E-012  0.3000000E+03  0.7818608E-02  0.1093470E+00
          1   -1    0    0  502    0  0.00000000000E+00  0.00000000000E+00  0.24082202340E+03  0.24082202340E+03  0.00000000000E+00 0.  1.
         13   -1    0    0    0    0 -0.00000000000E+00 -0.00000000000E+00 -0.27500000000E+03  0.27500000000E+03  0.00000000000E+00 0.  1.
    9000005    2    1    2  501    0 -0.34053297601E+02  0.75199329567E+01 -0.58913946806E+02  0.47306638411E+03  0.46808628924E+03 0.  0.
         13    1    3    3    0    0  0.84164610962E+02  0.86472319251E+02  0.16706787705E+03  0.20608934780E+03  0.00000000000E+00 0.  1.
          3    1    3    3  501    0 -0.11821790856E+03 -0.78952386294E+02 -0.22598182385E+03  0.26697703631E+03  0.00000000000E+00 0.  1.
         21    1    1    2  502  501  0.34053297601E+02 -0.75199329567E+01  0.24735970209E+02  0.42755639293E+02  0.00000000000E+00 0. -1.
<scales pt_clust_4="550.00000" pt_clust_5="550.00000" pt_clust_6="34.87372"></scales>
<mgrwt>
<rscale>  0 0.30000000E+03</rscale>
<asrwt>  1 0.34873722E+02</asrwt>
<pdfrwt beam="1">  1        1 0.87571645E+00 0.30000000E+03</pdfrwt>
<pdfrwt beam="2">0</pdfrwt>
<totfact> 0.22115696E-04</totfact>
</mgrwt>
<clustering>
<clus scale="   34.874">  1  6  2 -1</clus>
<clus scale="  468.086">  4  5 -1 -1</clus>
<clus scale="  300.000">  1  4  2 -1</clus>
</clustering>
</event>
<event>
 6    1  0.9254630E-012  0.3000000E+03  0.7818608E-02  0.1093470E+00
          1   -1    0    0  502    0  0.00000000000E+00  0.00000000000E+00  0.25653862818E+03  0.25653862818E+03  0.00000000000E+00 0.  1.
         13   -1    0    0    0    0 -0.00000000000E+00 -0.00000000000E+00 -0.27500000000E+03  0.27500000000E+03  0.00000000000E+00 0.  1.
    9000005    2    1    2  501    0  0.28358864325E+02  0.11387544755E+02 -0.49835079258E+02  0.48774124379E+03  0.48422524139E+03 0.  0.
         13    1    3    3    0    0  0.31525159238E+01  0.23368488883E+03 -0.10669128836E+03  0.25690775900E+03  0.00000000000E+00 0.  1.
          1    1    3    3  501    0  0.25206348401E+02 -0.22229734408E+03  0.56856209104E+02  0.23083348478E+03  0.00000000000E+00 0.  1.
         21    1    1    2  502  501 -0.28358864325E+02 -0.11387544755E+02  0.31373707439E+02  0.43797384395E+02  0.00000000000E+00 0.  1.
<scales pt_clust_4="550.00000" pt_clust_5="550.00000" pt_clust_6="30.55980"></scales>
<mgrwt>
<rscale>  0 0.30000000E+03</rscale>
<asrwt>  1 0.30559800E+02</asrwt>
<pdfrwt beam="1">  1        1 0.93286774E+00 0.30000000E+03</pdfrwt>
<pdfrwt beam="2">0</pdfrwt>
<totfact> 0.24558972E-05</totfact>
</mgrwt>
<clustering>
<clus scale="   30.560">  1  6  2 -1</clus>
<clus scale="  484.225">  4  5 -1 -1</clus>
<clus scale="  300.000">  1  4  2 -1</clus>
</clustering>
</event>
<event>
 6    1  0.9254630E-012  0.3000000E+03  0.7818608E-02  0.1093470E+00
          1   -1    0    0  502    0  0.00000000000E+00  0.00000000000E+00  0.23127668625E+03  0.23127668625E+03  0.00000000000E+00 0.  1.
         13   -1    0    0    0    0 -0.00000000000E+00 -0.00000000000E+00 -0.27500000000E+03  0.27500000000E+03  0.00000000000E+00 0.  1.
    9000005    2    1    2  501    0 -0.12072933957E+01  0.44342964877E+02 -0.42501973684E+02  0.46190047908E+03  0.45779676574E+03 0.  0.
         13    1    3    3    0    0 -0.12568322785E+01 -0.77334802566E+02  0.18687478061E+03  0.20224844856E+03  0.00000000000E+00 0.  1.
          1    1    3    3  501    0  0.49538882738E-01  0.12167776744E+03 -0.22937675430E+03  0.25965203052E+03  0.00000000000E+00 0.  1.
         21    1    1    2  502  501  0.12072933957E+01 -0.44342964877E+02 -0.12213400619E+01  0.44376207172E+02  0.00000000000E+00 0.  1.
<scales pt_clust_4="550.00000" pt_clust_5="550.00000" pt_clust_6="44.35940"></scales>
<mgrwt>
<rscale>  0 0.30000000E+03</rscale>
<asrwt>  1 0.44359397E+02</asrwt>
<pdfrwt beam="1">  1        1 0.84100613E+00 0.30000000E+03</pdfrwt>
<pdfrwt beam="2">0</pdfrwt>
<totfact> 0.46742112E-04</totfact>
</mgrwt>
<clustering>
<clus scale="   44.359">  1  6  2 -1</clus>
<clus scale="  457.797">  4  5 -1 -1</clus>
<clus scale="  300.000">  1  4  2 -1</clus>
</clustering>
</event>
<event>
 6    1  0.9254630E-012  0.3000000E+03  0.7818608E-02  0.1093470E+00
          1   -1    0    0  502    0  0.00000000000E+00  0.00000000000E+00  0.22534234194E+03  0.22534234194E+03  0.00000000000E+00 0.  1.
         13   -1    0    0    0    0 -0.00000000000E+00 -0.00000000000E+00 -0.27500000000E+03  0.27500000000E+03  0.00000000000E+00 0.  1.
    9000005    2    1    2  501    0 -0.21833263490E+02 -0.20994711952E+02 -0.26332851014E+02  0.46211256364E+03  0.46036630319E+03 0.  0.
         13    1    3    3    0    0 -0.31352847514E+02 -0.79652282278E+02 -0.23239185507E+03  0.24765593355E+03  0.00000000000E+00 0.  1.
          1    1    3    3  501    0  0.95195840240E+01  0.58657570326E+02  0.20605900406E+03  0.21445663009E+03  0.00000000000E+00 0.  1.
         21    1    1    2  502  501  0.21833263490E+02  0.20994711952E+02 -0.23324807049E+02  0.38229778294E+02  0.00000000000E+00 0.  1.
<scales pt_clust_4="550.00000" pt_clust_5="550.00000" pt_clust_6="30.28977"></scales>
<mgrwt>
<rscale>  0 0.30000000E+03</rscale>
<asrwt>  1 0.30289771E+02</asrwt>
<pdfrwt beam="1">  1        1 0.81942670E+00 0.30000000E+03</pdfrwt>
<pdfrwt beam="2">0</pdfrwt>
<totfact> 0.75189479E-04</totfact>
</mgrwt>
<clustering>
<clus scale="   30.290">  1  6  2 -1</clus>
<clus scale="  460.366">  4  5 -1 -1</clus>
<clus scale="  300.000">  1  4  2 -1</clus>
</clustering>
</event>
<event>
 6    1  0.9254630E-012  0.3000000E+03  0.7818608E-02  0.1093470E+00
          1   -1    0    0  502    0  0.00000000000E+00  0.00000000000E+00  0.23961698229E+03  0.23961698229E+03  0.00000000000E+00 0.  1.
         13   -1    0    0    0    0 -0.00000000000E+00 -0.00000000000E+00 -0.27500000000E+03  0.27500000000E+03  0.00000000000E+00 0.  1.
    9000005    2    1    2  501    0  0.17331715186E+02  0.40825458691E+02 -0.56789910919E+02  0.46536902288E+03  0.45975659544E+03 0.  0.
         13    1    3    3    0    0 -0.96403960510E+02  0.22259691375E+03  0.36096371596E+01  0.24260284231E+03  0.00000000000E+00 0.  1.
          1    1    3    3  501    0  0.11373567570E+03 -0.18177145506E+03 -0.60399548079E+02  0.22276618058E+03  0.00000000000E+00 0.  1.
         21    1    1    2  502  501 -0.17331715186E+02 -0.40825458691E+02  0.21406893206E+02  0.49247959403E+02  0.00000000000E+00 0.  1.
<scales pt_clust_4="550.00000" pt_clust_5="550.00000" pt_clust_6="44.35207"></scales>
<mgrwt>
<rscale>  0 0.30000000E+03</rscale>
<asrwt>  1 0.44352074E+02</asrwt>
<pdfrwt beam="1">  1        1 0.87133448E+00 0.30000000E+03</pdfrwt>
<pdfrwt beam="2">0</pdfrwt>
<totfact> 0.23501919E-04</totfact>
</mgrwt>
<clustering>
<clus scale="   44.352">  1  6  2 -1</clus>
<clus scale="  459.757">  4  5 -1 -1</clus>
<clus scale="  300.000">  1  4  2 -1</clus>
</clustering>
</event>
<event>
 6    1  0.9254630E-012  0.3000000E+03  0.7818608E-02  0.1093470E+00
          1   -1    0    0  502    0  0.00000000000E+00  0.00000000000E+00  0.24383965909E+03  0.24383965909E+03  0.00000000000E+00 0.  1.
         13   -1    0    0    0    0 -0.00000000000E+00 -0.00000000000E+00 -0.27500000000E+03  0.27500000000E+03  0.00000000000E+00 0.  1.
    9000005    2    1    2  501    0  0.26955091345E+02 -0.25230117301E+02 -0.68149190744E+02  0.46657771519E+03  0.46009489928E+03 0.  0.
         13    1    3    3    0    0  0.20825502515E+03 -0.26878181364E+02  0.87634997414E+02  0.22753567831E+03  0.00000000000E+00 0.  1.
          3    1    3    3  501    0 -0.18129993380E+03  0.16480640632E+01 -0.15578418816E+03  0.23904203687E+03  0.00000000000E+00 0.  1.
         21    1    1    2  502  501 -0.26955091345E+02  0.25230117301E+02  0.36988849831E+02  0.52261943901E+02  0.00000000000E+00 0.  1.
<scales pt_clust_4="550.00000" pt_clust_5="550.00000" pt_clust_6="36.92067"></scales>
<mgrwt>
<rscale>  0 0.30000000E+03</rscale>
<asrwt>  1 0.36920669E+02</asrwt>
<pdfrwt beam="1">  1        1 0.88668967E+00 0.30000000E+03</pdfrwt>
<pdfrwt beam="2">0</pdfrwt>
<totfact> 0.15926001E-04</totfact>
</mgrwt>
<clustering>
<clus scale="   36.921">  1  6  2 -1</clus>
<clus scale="  460.095">  4  5 -1 -1</clus>
<clus scale="  300.000">  1  4  2 -1</clus>
</clustering>
</event>
<event>
 6    1  0.9254630E-012  0.3000000E+03  0.7818608E-02  0.1093470E+00
          1   -1    0    0  502    0  0.00000000000E+00  0.00000000000E+00  0.23480061755E+03  0.23480061755E+03  0.00000000000E+00 0.  1.
         13   -1    0    0    0    0 -0.00000000000E+00 -0.00000000000E+00 -0.27500000000E+03  0.27500000000E+03  0.00000000000E+00 0.  1.
    9000005    2    1    2  501    0  0.33425641711E-01 -0.31302806621E+02 -0.61913560075E+02  0.47170373671E+03  0.46657395929E+03 0.  0.
         13    1    3    3    0    0 -0.19548057848E+03 -0.12408086383E+03  0.35745179560E+02  0.23427854190E+03  0.00000000000E+00 0.  1.
          3    1    3    3  501    0  0.19551400412E+03  0.92778057212E+02 -0.97658739635E+02  0.23742519482E+03  0.00000000000E+00 0.  1.
         21    1    1    2  502  501 -0.33425641711E-01  0.31302806621E+02  0.21714177629E+02  0.38096880840E+02  0.00000000000E+00 0.  1.
<scales pt_clust_4="550.00000" pt_clust_5="550.00000" pt_clust_6="31.30282"></scales>
<mgrwt>
<rscale>  0 0.30000000E+03</rscale>
<asrwt>  1 0.31302824E+02</asrwt>
<pdfrwt beam="1">  1        1 0.85382043E+00 0.30000000E+03</pdfrwt>
<pdfrwt beam="2">0</pdfrwt>
<totfact> 0.38214049E-04</totfact>
</mgrwt>
<clustering>
<clus scale="   31.303">  1  6  2 -1</clus>
<clus scale="  466.574">  4  5 -1 -1</clus>
<clus scale="  300.000">  1  4  2 -1</clus>
</clustering>
</event>
<event>
 6    1  0.9254630E-012  0.3000000E+03  0.7818608E-02  0.1093470E+00
          1   -1    0    0  502    0  0.00000000000E+00  0.00000000000E+00  0.25806344160E+03  0.25806344160E+03  0.00000000000E+00 0.  1.
         13   -1    0    0    0    0 -0.00000000000E+00 -0.00000000000E+00 -0.27500000000E+03  0.27500000000E+03  0.00000000000E+00 0.  1.
    9000005    2    1    2  501    0  0.28692170836E+02  0.44012613337E+02 -0.46073989236E+02  0.47298565306E+03  0.46779510976E+03 0.  0.
         13    1    3    3    0    0 -0.10586371819E+03  0.69768523605E+02 -0.21858469786E+03  0.25269357700E+03  0.00000000000E+00 0.  1.
          1    1    3    3  501    0  0.13455588903E+03 -0.25755910268E+02  0.17251070863E+03  0.22029207606E+03  0.00000000000E+00 0.  1.
         21    1    1    2  502  501 -0.28692170836E+02 -0.44012613337E+02  0.29137430838E+02  0.60077788540E+02  0.00000000000E+00 0.  1.
<scales pt_clust_4="550.00000" pt_clust_5="550.00000" pt_clust_6="52.53904"></scales>
<mgrwt>
<rscale>  0 0.30000000E+03</rscale>
<asrwt>  1 0.52539041E+02</asrwt>
<pdfrwt beam="1">  1        1 0.93841251E+00 0.30000000E+03</pdfrwt>
<pdfrwt beam="2">0</pdfrwt>
<totfact> 0.18888274E-05</totfact>
</mgrwt>
<clustering>
<clus scale="   52.539">  1  6  2 -1</clus>
<clus scale="  467.795">  4  5 -1 -1</clus>
<clus scale="  300.000">  1  4  2 -1</clus>
</clustering>
</event>
<event>
 6    1  0.9254630E-012  0.3000000E+03  0.7818608E-02  0.1093470E+00
          1   -1    0    0  502    0  0.00000000000E+00  0.00000000000E+00  0.22643501116E+03  0.22643501116E+03  0.00000000000E+00 0.  1.
         13   -1    0    0    0    0 -0.00000000000E+00 -0.00000000000E+00 -0.27500000000E+03  0.27500000000E+03  0.00000000000E+00 0.  1.
    9000005    2    1    2  501    0  0.32643176985E+02  0.10020653524E+02 -0.44572261253E+02  0.46705576779E+03  0.46366843030E+03 0.  0.
         13    1    3    3    0    0  0.21788317697E+03  0.93046069208E+02  0.51534638899E+02  0.24245921061E+03  0.00000000000E+00 0.  1.
          1    1    3    3  501    0 -0.18523999998E+03 -0.83025415685E+02 -0.96106900151E+02  0.22459655719E+03  0.00000000000E+00 0.  1.
         21    1    1    2  502  501 -0.32643176985E+02 -0.10020653524E+02 -0.39927275908E+01  0.34379243365E+02  0.00000000000E+00 0.  1.
<scales pt_clust_4="550.00000" pt_clust_5="550.00000" pt_clust_6="34.14662"></scales>
<mgrwt>
<rscale>  0 0.30000000E+03</rscale>
<asrwt>  1 0.34146620E+02</asrwt>
<pdfrwt beam="1">  1        1 0.82340004E+00 0.30000000E+03</pdfrwt>
<pdfrwt beam="2">0</pdfrwt>
<totfact> 0.67815840E-04</totfact>
</mgrwt>
<clustering>
<clus scale="   34.147">  1  6  2 -1</clus>
<clus scale="  463.668">  4  5 -1 -1</clus>
<clus scale="  300.000">  1  4  2 -1</clus>
</clustering>
</event>
<event>
 6    1  0.9254630E-012  0.3000000E+03  0.7818608E-02  0.1093470E+00
          1   -1    0    0  502    0  0.00000000000E+00  0.00000000000E+00  0.22688166484E+03  0.22688166484E+03  0.00000000000E+00 0.  1.
         13   -1    0    0    0    0 -0.00000000000E+00 -0.00000000000E+00 -0.27500000000E+03  0.27500000000E+03  0.00000000000E+00 0.  1.
    9000005    2    1    2  501    0 -0.43531357166E+01  0.34704183009E+02 -0.61003551715E+02  0.46460755969E+03  0.45925528967E+03 0.  0.
         13    1    3    3    0    0  0.38854287878E+02 -0.18877591430E+03 -0.12307455848E+03  0.22867738946E+03  0.00000000000E+00 0.  1.
          1    1    3    3  501    0 -0.43207423594E+02  0.22348009731E+03  0.62071006765E+02  0.23593017023E+03  0.00000000000E+00 0.  1.
         21    1    1    2  502  501  0.43531357166E+01 -0.34704183009E+02  0.12885216556E+02  0.37274105148E+02  0.00000000000E+00 0. -1.
<scales pt_clust_4="550.00000" pt_clust_5="550.00000" pt_clust_6="34.97614"></scales>
<mgrwt>
<rscale>  0 0.30000000E+03</rscale>
<asrwt>  1 0.34976136E+02</asrwt>
<pdfrwt beam="1">  1        1 0.82502424E+00 0.30000000E+03</pdfrwt>
<pdfrwt beam="2">0</pdfrwt>
<totfact> 0.65293064E-04</totfact>
</mgrwt>
<clustering>
<clus scale="   34.976">  1  6  2 -1</clus>
<clus scale="  459.255">  4  5 -1 -1</clus>
<clus scale="  300.000">  1  4  2 -1</clus>
</clustering>
</event>
<event>
 6    1  0.9254630E-012  0.3000000E+03  0.7818608E-02  0.1093470E+00
          1   -1    0    0  502    0  0.00000000000E+00  0.00000000000E+00  0.23164553785E+03  0.23164553785E+03  0.00000000000E+00 0.  1.
         13   -1    0    0    0    0 -0.00000000000E+00 -0.00000000000E+00 -0.27500000000E+03  0.27500000000E+03  0.00000000000E+00 0.  1.
    9000005    2    1    2  501    0  0.27719911692E+02 -0.16088010549E+02 -0.70803608016E+02  0.46444751424E+03  0.45789859684E+03 0.  0.
         13    1    3    3    0    0 -0.11388332600E+03 -0.15336961869E+03 -0.15886581425E+03  0.24845522497E+03  0.00000000000E+00 0.  1.
          1    1    3    3  501    0  0.14160323770E+03  0.13728160814E+03  0.88062206233E+02  0.21599228927E+03  0.00000000000E+00 0.  1.
         21    1    1    2  502  501 -0.27719911692E+02  0.16088010549E+02  0.27449145861E+02  0.42198023605E+02  0.00000000000E+00 0.  1.
<scales pt_clust_4="550.00000" pt_clust_5="550.00000" pt_clust_6="32.05024"></scales>
<mgrwt>
<rscale>  0 0.30000000E+03</rscale>
<asrwt>  1 0.32050235E+02</asrwt>
<pdfrwt beam="1">  1        1 0.84234741E+00 0.30000000E+03</pdfrwt>
<pdfrwt beam="2">0</pdfrwt>
<totfact> 0.48396575E-04</totfact>
</mgrwt>
<clustering>
<clus scale="   32.050">  1  6  2 -1</clus>
<clus scale="  457.899">  4  5 -1 -1</clus>
<clus scale="  300.000">  1  4  2 -1</clus>
</clustering>
</event>
<event>
 6    1  0.9254630E-012  0.3000000E+03  0.7818608E-02  0.1093470E+00
          1   -1    0    0  502    0  0.00000000000E+00  0.00000000000E+00  0.23790920769E+03  0.23790920769E+03  0.00000000000E+00 0.  1.
         13   -1    0    0    0    0 -0.00000000000E+00 -0.00000000000E+00 -0.27500000000E+03  0.27500000000E+03  0.00000000000E+00 0.  1.
    9000005    2    1    2  501    0  0.28766834025E+02 -0.14061329046E+02 -0.36052256169E+02  0.48087281789E+03  0.47844921370E+03 0.  0.
         13    1    3    3    0    0 -0.21993300942E+03 -0.45857760154E+02  0.14395465286E+02  0.22512372647E+03  0.00000000000E+00 0.  1.
          1    1    3    3  501    0  0.24869984345E+03  0.31796431109E+02 -0.50447721455E+02  0.25574909142E+03  0.00000000000E+00 0.  1.
         21    1    1    2  502  501 -0.28766834025E+02  0.14061329046E+02 -0.10385361397E+01  0.32036389804E+02  0.00000000000E+00 0. -1.
<scales pt_clust_4="550.00000" pt_clust_5="550.00000" pt_clust_6="32.01955"></scales>
<mgrwt>
<rscale>  0 0.30000000E+03</rscale>
<asrwt>  1 0.32019552E+02</asrwt>
<pdfrwt beam="1">  1        1 0.86512439E+00 0.30000000E+03</pdfrwt>
<pdfrwt beam="2">0</pdfrwt>
<totfact> 0.28964344E-04</totfact>
</mgrwt>
<clustering>
<clus scale="   32.020">  1  6  2 -1</clus>
<clus scale="  478.449">  4  5 -1 -1</clus>
<clus scale="  300.000">  1  4  2 -1</clus>
</clustering>
</event>
<event>
 6    1  0.9254630E-012  0.3000000E+03  0.7818608E-02  0.1093470E+00
          1   -1    0    0  502    0  0.00000000000E+00  0.00000000000E+00  0.22395402698E+03  0.22395402698E+03  0.00000000000E+00 0.  1.
         13   -1    0    0    0    0 -0.00000000000E+00 -0.00000000000E+00 -0.27500000000E+03  0.27500000000E+03  0.00000000000E+00 0.  1.
    9000005    2    1    2  501    0  0.99497751802E+01 -0.34371081506E+02 -0.52849231313E+02  0.46312636992E+03  0.45870755825E+03 0.  0.
         13    1    3    3    0    0 -0.19172459922E+03 -0.10119761292E+03 -0.11001768790E+03  0.24311143630E+03  0.00000000000E+00 0.  1.
          3    1    3    3  501    0  0.20167437440E+03  0.66826531417E+02  0.57168456588E+02  0.22001493363E+03  0.00000000000E+00 0.  1.
         21    1    1    2  502  501 -0.99497751802E+01  0.34371081506E+02  0.18032582980E+01  0.35827657062E+02  0.00000000000E+00 0. -1.
<scales pt_clust_4="550.00000" pt_clust_5="550.00000" pt_clust_6="35.78225"></scales>
<mgrwt>
<rscale>  0 0.30000000E+03</rscale>
<asrwt>  1 0.35782248E+02</asrwt>
<pdfrwt beam="1">  1        1 0.81437828E+00 0.30000000E+03</pdfrwt>
<pdfrwt beam="2">0</pdfrwt>
<totfact> 0.80196727E-04</totfact>
</mgrwt>
<clustering>
<clus scale="   35.782">  1  6  2 -1</clus>
<clus scale="  458.708">  4  5 -1 -1</clus>
<clus scale="  300.000">  1  4  2 -1</clus>
</clustering>
</event>
<event>
 6    1  0.9254630E-012  0.3000000E+03  0.7818608E-02  0.1093470E+00
          1   -1    0    0  502    0  0.00000000000E+00  0.00000000000E+00  0.22417864517E+03  0.22417864517E+03  0.00000000000E+00 0.  1.
         13   -1    0    0    0    0 -0.00000000000E+00 -0.00000000000E+00 -0.27500000000E+03  0.27500000000E+03  0.00000000000E+00 0.  1.
    9000005    2    1    2  501    0 -0.31712633036E+02 -0.15210510210E+02 -0.55249094418E+02  0.46372930677E+03  0.45908099156E+03 0.  0.
         13    1    3    3    0    0 -0.16384439343E+03  0.15974389986E+03 -0.81520602194E+02  0.24291707923E+03  0.00000000000E+00 0.  1.
          3    1    3    3  501    0  0.13213176039E+03 -0.17495441007E+03  0.26271507776E+02  0.22081222754E+03  0.00000000000E+00 0.  1.
         21    1    1    2  502  501  0.31712633036E+02  0.15210510210E+02  0.44277395857E+01  0.35449338396E+02  0.00000000000E+00 0. -1.
<scales pt_clust_4="550.00000" pt_clust_5="550.00000" pt_clust_6="35.17173"></scales>
<mgrwt>
<rscale>  0 0.30000000E+03</rscale>
<asrwt>  1 0.35171732E+02</asrwt>
<pdfrwt beam="1">  1        1 0.81519507E+00 0.30000000E+03</pdfrwt>
<pdfrwt beam="2">0</pdfrwt>
<totfact> 0.79243016E-04</totfact>
</mgrwt>
<clustering>
<clus scale="   35.172">  1  6  2 -1</clus>
<clus scale="  459.081">  4  5 -1 -1</clus>
<clus scale="  300.000">  1  4  2 -1</clus>
</clustering>
</event>
<event>
 6    1  0.9254630E-012  0.3000000E+03  0.7818608E-02  0.1093470E+00
          1   -1    0    0  502    0  0.00000000000E+00  0.00000000000E+00  0.24328469970E+03  0.24328469970E+03  0.00000000000E+00 0.  1.
         13   -1    0    0    0    0 -0.00000000000E+00 -0.00000000000E+00 -0.27500000000E+03  0.27500000000E+03  0.00000000000E+00 0.  1.
    9000005    2    1    2  501    0 -0.13518067712E+02 -0.39350668048E+02 -0.57619098459E+02  0.46927225241E+03  0.46385910915E+03 0.  0.
         13    1    3    3    0    0 -0.10142222470E+03 -0.20842499235E+03 -0.12960880834E+03  0.26556710696E+03  0.00000000000E+00 0.  1.
          1    1    3    3  501    0  0.87904156986E+02  0.16907432430E+03  0.71989709882E+02  0.20370514545E+03  0.00000000000E+00 0.  1.
         21    1    1    2  502  501  0.13518067712E+02  0.39350668048E+02  0.25903798161E+02  0.49012447293E+02  0.00000000000E+00 0. -1.
<scales pt_clust_4="550.00000" pt_clust_5="550.00000" pt_clust_6="41.60785"></scales>
<mgrwt>
<rscale>  0 0.30000000E+03</rscale>
<asrwt>  1 0.41607851E+02</asrwt>
<pdfrwt beam="1">  1        1 0.88467164E+00 0.30000000E+03</pdfrwt>
<pdfrwt beam="2">0</pdfrwt>
<totfact> 0.16609920E-04</totfact>
</mgrwt>
<clustering>
<clus scale="   41.608">  1  6  2 -1</clus>
<clus scale="  463.859">  4  5 -1 -1</clus>
<clus scale="  300.000">  1  4  2 -1</clus>
</clustering>
</event>
<event>
 6    1  0.9254630E-012  0.3000000E+03  0.7818608E-02  0.1093470E+00
          1   -1    0    0  502    0  0.00000000000E+00  0.00000000000E+00  0.25663926454E+03  0.25663926454E+03  0.00000000000E+00 0.  1.
         13   -1    0    0    0    0 -0.00000000000E+00 -0.00000000000E+00 -0.27500000000E+03  0.27500000000E+03  0.00000000000E+00 0.  1.
    9000005    2    1    2  501    0  0.35373890395E+02 -0.11353545774E+02 -0.43852018672E+02  0.48658351415E+03  0.48317729828E+03 0.  0.
         13    1    3    3    0    0 -0.68536654624E+02 -0.84765220677E+02 -0.23380059939E+03  0.25796343915E+03  0.00000000000E+00 0.  1.
          3    1    3    3  501    0  0.10391054502E+03  0.73411674903E+02  0.18994858071E+03  0.22862007500E+03  0.00000000000E+00 0.  1.
         21    1    1    2  502  501 -0.35373890395E+02  0.11353545774E+02  0.25491283210E+02  0.45055750388E+02  0.00000000000E+00 0.  1.
<scales pt_clust_4="550.00000" pt_clust_5="550.00000" pt_clust_6="37.15125"></scales>
<mgrwt>
<rscale>  0 0.30000000E+03</rscale>
<asrwt>  1 0.37151247E+02</asrwt>
<pdfrwt beam="1">  1        1 0.93323369E+00 0.30000000E+03</pdfrwt>
<pdfrwt beam="2">0</pdfrwt>
<totfact> 0.23419058E-05</totfact>
</mgrwt>
<clustering>
<clus scale="   37.151">  1  6  2 -1</clus>
<clus scale="  483.177">  4  5 -1 -1</clus>
<clus scale="  300.000">  1  4  2 -1</clus>
</clustering>
</event>
<event>
 6    1  0.9254630E-012  0.3000000E+03  0.7818608E-02  0.1093470E+00
          1   -1    0    0  502    0  0.00000000000E+00  0.00000000000E+00  0.22907179007E+03  0.22907179007E+03  0.00000000000E+00 0.  1.
         13   -1    0    0    0    0 -0.00000000000E+00 -0.00000000000E+00 -0.27500000000E+03  0.27500000000E+03  0.00000000000E+00 0.  1.
    9000005    2    1    2  501    0 -0.16321796183E+02 -0.25405195361E+02 -0.64516866217E+02  0.46861247360E+03  0.46316670800E+03 0.  0.
         13    1    3    3    0    0 -0.21492975999E+03 -0.65328583537E+02 -0.12515550871E+03  0.25715078635E+03  0.00000000000E+00 0.  1.
          3    1    3    3  501    0  0.19860796381E+03  0.39923388177E+02  0.60638642490E+02  0.21146168725E+03  0.00000000000E+00 0.  1.
         21    1    1    2  502  501  0.16321796183E+02  0.25405195361E+02  0.18588656284E+02  0.35459316468E+02  0.00000000000E+00 0.  1.
<scales pt_clust_4="550.00000" pt_clust_5="550.00000" pt_clust_6="30.19644"></scales>
<mgrwt>
<rscale>  0 0.30000000E+03</rscale>
<asrwt>  1 0.30196440E+02</asrwt>
<pdfrwt beam="1">  1        1 0.83298833E+00 0.30000000E+03</pdfrwt>
<pdfrwt beam="2">0</pdfrwt>
<totfact> 0.57576660E-04</totfact>
</mgrwt>
<clustering>
<clus scale="   30.196">  1  6  2 -1</clus>
<clus scale="  463.167">  4  5 -1 -1</clus>
<clus scale="  300.000">  1  4  2 -1</clus>
</clustering>
</event>
<event>
 6    1  0.9254630E-012  0.3000000E+03  0.7818608E-02  0.1093470E+00
          1   -1    0    0  502    0  0.00000000000E+00  0.00000000000E+00  0.23490943360E+03  0.23490943360E+03  0.00000000000E+00 0.  1.
         13   -1    0    0    0    0 -0.00000000000E+00 -0.00000000000E+00 -0.27500000000E+03  0.27500000000E+03  0.00000000000E+00 0.  1.
    9000005    2    1    2  501    0 -0.28415013340E+02 -0.20050409948E+02 -0.64004351534E+02  0.46770397137E+03  0.46199677045E+03 0.  0.
         13    1    3    3    0    0 -0.15975337461E+03 -0.15949824952E+03 -0.13543886300E+03  0.26325751254E+03  0.00000000000E+00 0.  1.
          3    1    3    3  501    0  0.13133836127E+03  0.13944783957E+03  0.71434511470E+02  0.20444645883E+03  0.00000000000E+00 0.  1.
         21    1    1    2  502  501  0.28415013340E+02  0.20050409948E+02  0.23913785132E+02  0.42205462224E+02  0.00000000000E+00 0.  1.
<scales pt_clust_4="550.00000" pt_clust_5="550.00000" pt_clust_6="34.77689"></scales>
<mgrwt>
<rscale>  0 0.30000000E+03</rscale>
<asrwt>  1 0.34776888E+02</asrwt>
<pdfrwt beam="1">  1        1 0.85421612E+00 0.30000000E+03</pdfrwt>
<pdfrwt beam="2">0</pdfrwt>
<totfact> 0.37130677E-04</totfact>
</mgrwt>
<clustering>
<clus scale="   34.777">  1  6  2 -1</clus>
<clus scale="  461.997">  4  5 -1 -1</clus>
<clus scale="  300.000">  1  4  2 -1</clus>
</clustering>
</event>
<event>
 6    1  0.9254630E-012  0.3000000E+03  0.7818608E-02  0.1093470E+00
          1   -1    0    0  502    0  0.00000000000E+00  0.00000000000E+00  0.24178137705E+03  0.24178137705E+03  0.00000000000E+00 0.  1.
         13   -1    0    0    0    0 -0.00000000000E+00 -0.00000000000E+00 -0.27500000000E+03  0.27500000000E+03  0.00000000000E+00 0.  1.
    9000005    2    1    2  501    0  0.31159904208E+02 -0.37223702983E+01 -0.40093051883E+02  0.48465578843E+03  0.48197404990E+03 0.  0.
         13    1    3    3    0    0 -0.19615991520E+03  0.82599453175E+02 -0.98581074142E+02  0.23456259330E+03  0.00000000000E+00 0.  1.
          1    1    3    3  501    0  0.22731981941E+03 -0.86321823473E+02  0.58488022258E+02  0.25009319513E+03  0.00000000000E+00 0.  1.
         21    1    1    2  502  501 -0.31159904208E+02  0.37223702983E+01  0.68744289295E+01  0.32125588617E+02  0.00000000000E+00 0. -1.
<scales pt_clust_4="550.00000" pt_clust_5="550.00000" pt_clust_6="31.38145"></scales>
<mgrwt>
<rscale>  0 0.30000000E+03</rscale>
<asrwt>  1 0.31381454E+02</asrwt>
<pdfrwt beam="1">  1        1 0.87920501E+00 0.30000000E+03</pdfrwt>
<pdfrwt beam="2">0</pdfrwt>
<totfact> 0.20602527E-04</totfact>
</mgrwt>
<clustering>
<clus scale="   31.381">  1  6  2 -1</clus>
<clus scale="  481.974">  4  5 -1 -1</clus>
<clus scale="  300.000">  1  4  2 -1</clus>
</clustering>
</event>
<event>
 6    1  0.9254630E-012  0.3000000E+03  0.7818608E-02  0.1093470E+00
          1   -1    0    0  502    0  0.00000000000E+00  0.00000000000E+00  0.22861610982E+03  0.22861610982E+03  0.00000000000E+00 0.  1.
         13   -1    0    0    0    0 -0.00000000000E+00 -0.00000000000E+00 -0.27500000000E+03  0.27500000000E+03  0.00000000000E+00 0.  1.
    9000005    2    1    2  501    0 -0.36535178574E+02  0.20662032921E+02 -0.46680164664E+02  0.46164199093E+03  0.45735385768E+03 0.  0.
         13    1    3    3    0    0 -0.80828867142E+02  0.15424188600E+03 -0.19209630354E+03  0.25927756362E+03  0.00000000000E+00 0.  1.
          3    1    3    3  501    0  0.44293688569E+02 -0.13357985308E+03  0.14541613888E+03  0.20236442731E+03  0.00000000000E+00 0.  1.
         21    1    1    2  502  501  0.36535178574E+02 -0.20662032921E+02  0.29627448086E+00  0.41974118888E+02  0.00000000000E+00 0.  1.
<scales pt_clust_4="550.00000" pt_clust_5="550.00000" pt_clust_6="41.97307"></scales>
<mgrwt>
<rscale>  0 0.30000000E+03</rscale>
<asrwt>  1 0.41973073E+02</asrwt>
<pdfrwt beam="1">  1        1 0.83133131E+00 0.30000000E+03</pdfrwt>
<pdfrwt beam="2">0</pdfrwt>
<totfact> 0.55762995E-04</totfact>
</mgrwt>
<clustering>
<clus scale="   41.973">  1  6  2 -1</clus>
<clus scale="  457.354">  4  5 -1 -1</clus>
<clus scale="  300.000">  1  4  2 -1</clus>
</clustering>
</event>
<event>
 6    1  0.9254630E-012  0.3000000E+03  0.7818608E-02  0.1093470E+00
          1   -1    0    0  502    0  0.00000000000E+00  0.00000000000E+00  0.24269006974E+03  0.24269006974E+03  0.00000000000E+00 0.  1.
         13   -1    0    0    0    0 -0.00000000000E+00 -0.00000000000E+00 -0.27500000000E+03  0.27500000000E+03  0.00000000000E+00 0.  1.
    9000005    2    1    2  501    0  0.28987846659E+02  0.12665052665E+02 -0.65493788582E+02  0.47184394378E+03  0.46620443168E+03 0.  0.
         13    1    3    3    0    0 -0.13894789410E+03 -0.15937749598E+03  0.29200544905E+02  0.21344876510E+03  0.00000000000E+00 0.  1.
          1    1    3    3  501    0  0.16793574076E+03  0.17204254865E+03 -0.94694333487E+02  0.25839517868E+03  0.00000000000E+00 0.  1.
         21    1    1    2  502  501 -0.28987846659E+02 -0.12665052665E+02  0.33183858325E+02  0.45846125968E+02  0.00000000000E+00 0.  1.
<scales pt_clust_4="550.00000" pt_clust_5="550.00000" pt_clust_6="31.63382"></scales>
<mgrwt>
<rscale>  0 0.30000000E+03</rscale>
<asrwt>  1 0.31633824E+02</asrwt>
<pdfrwt beam="1">  1        1 0.88250934E+00 0.30000000E+03</pdfrwt>
<pdfrwt beam="2">0</pdfrwt>
<totfact> 0.18686937E-04</totfact>
</mgrwt>
<clustering>
<clus scale="   31.634">  1  6  2 -1</clus>
<clus scale="  466.204">  4  5 -1 -1</clus>
<clus scale="  300.000">  1  4  2 -1</clus>
</clustering>
</event>
<event>
 6    1  0.9254630E-012  0.3000000E+03  0.7818608E-02  0.1093470E+00
          1   -1    0    0  502    0  0.00000000000E+00  0.00000000000E+00  0.23666869256E+03  0.23666869256E+03  0.00000000000E+00 0.  1.
         13   -1    0    0    0    0 -0.00000000000E+00 -0.00000000000E+00 -0.27500000000E+03  0.27500000000E+03  0.00000000000E+00 0.  1.
    9000005    2    1    2  501    0 -0.21988799150E+02 -0.27645131061E+02 -0.60886304464E+02  0.46975821117E+03  0.46445438348E+03 0.  0.
         13    1    3    3    0    0  0.21903616750E+03 -0.46891031174E+02 -0.28256909659E+02  0.22577436617E+03  0.00000000000E+00 0.  1.
          1    1    3    3  501    0 -0.24102496665E+03  0.19245900113E+02 -0.32629394806E+02  0.24398384500E+03  0.00000000000E+00 0.  1.
         21    1    1    2  502  501  0.21988799150E+02  0.27645131061E+02  0.22554997027E+02  0.41910481390E+02  0.00000000000E+00 0.  1.
<scales pt_clust_4="550.00000" pt_clust_5="550.00000" pt_clust_6="35.32365"></scales>
<mgrwt>
<rscale>  0 0.30000000E+03</rscale>
<asrwt>  1 0.35323654E+02</asrwt>
<pdfrwt beam="1">  1        1 0.86061343E+00 0.30000000E+03</pdfrwt>
<pdfrwt beam="2">0</pdfrwt>
<totfact> 0.31806618E-04</totfact>
</mgrwt>
<clustering>
<clus scale="   35.324">  1  6  2 -1</clus>
<clus scale="  464.454">  4  5 -1 -1</clus>
<clus scale="  300.000">  1  4  2 -1</clus>
</clustering>
</event>
<event>
 6    1  0.9254630E-012  0.3000000E+03  0.7818608E-02  0.1093470E+00
          1   -1    0    0  502    0  0.00000000000E+00  0.00000000000E+00  0.23846353739E+03  0.23846353739E+03  0.00000000000E+00 0.  1.
         13   -1    0    0    0    0 -0.00000000000E+00 -0.00000000000E+00 -0.27500000000E+03  0.27500000000E+03  0.00000000000E+00 0.  1.
    9000005    2    1    2  501    0 -0.19850288446E+02 -0.26616278915E+02 -0.51650614490E+02  0.47698206481E+03  0.47301336547E+03 0.  0.
         13    1    3    3    0    0  0.21396677675E+03 -0.24339164643E+02  0.51490049649E+02  0.22141680538E+03  0.00000000000E+00 0.  1.
          3    1    3    3  501    0 -0.23381706520E+03 -0.22771142724E+01 -0.10314066414E+03  0.25556525943E+03  0.00000000000E+00 0.  1.
         21    1    1    2  502  501  0.19850288446E+02  0.26616278915E+02  0.15114151876E+02  0.36481472580E+02  0.00000000000E+00 0.  1.
<scales pt_clust_4="550.00000" pt_clust_5="550.00000" pt_clust_6="33.20332"></scales>
<mgrwt>
<rscale>  0 0.30000000E+03</rscale>
<asrwt>  1 0.33203317E+02</asrwt>
<pdfrwt beam="1">  1        1 0.86714014E+00 0.30000000E+03</pdfrwt>
<pdfrwt beam="2">0</pdfrwt>
<totfact> 0.27379435E-04</totfact>
</mgrwt>
<clustering>
<clus scale="   33.203">  1  6  2 -1</clus>
<clus scale="  473.013">  4  5 -1 -1</clus>
<clus scale="  300.000">  1  4  2 -1</clus>
</clustering>
</event>
<event>
 6    1  0.9254630E-012  0.3000000E+03  0.7818608E-02  0.1093470E+00
          1   -1    0    0  502    0  0.00000000000E+00  0.00000000000E+00  0.24993388476E+03  0.24993388476E+03  0.00000000000E+00 0.  1.
         13   -1    0    0    0    0 -0.00000000000E+00 -0.00000000000E+00 -0.27500000000E+03  0.27500000000E+03  0.00000000000E+00 0.  1.
    9000005    2    1    2  501    0 -0.26988976077E+02 -0.17570794166E+02 -0.21748433322E+02  0.49255882259E+03  0.49102348388E+03 0.  0.
         13    1    3    3    0    0 -0.22430978588E+03  0.10395076506E+03 -0.67656451274E+02  0.25631628313E+03  0.00000000000E+00 0.  1.
          3    1    3    3  501    0  0.19732080980E+03 -0.12152155923E+03  0.45908017953E+02  0.23624253946E+03  0.00000000000E+00 0.  1.
         21    1    1    2  502  501  0.26988976077E+02  0.17570794166E+02 -0.33176819214E+01  0.32375062171E+02  0.00000000000E+00 0. -1.
<scales pt_clust_4="550.00000" pt_clust_5="550.00000" pt_clust_6="32.20464"></scales>
<mgrwt>
<rscale>  0 0.30000000E+03</rscale>
<asrwt>  1 0.32204637E+02</asrwt>
<pdfrwt beam="1">  1        1 0.90885049E+00 0.30000000E+03</pdfrwt>
<pdfrwt beam="2">0</pdfrwt>
<totfact> 0.77757902E-05</totfact>
</mgrwt>
<clustering>
<clus scale="   32.205">  1  6  2 -1</clus>
<clus scale="  491.023">  4  5 -1 -1</clus>
<clus scale="  300.000">  1  4  2 -1</clus>
</clustering>
</event>
<event>
 6    1  0.9254630E-012  0.3000000E+03  0.7818608E-02  0.1093470E+00
          1   -1    0    0  502    0  0.00000000000E+00  0.00000000000E+00  0.23015351122E+03  0.23015351122E+03  0.00000000000E+00 0.  1.
         13   -1    0    0    0    0 -0.00000000000E+00 -0.00000000000E+00 -0.27500000000E+03  0.27500000000E+03  0.00000000000E+00 0.  1.
    9000005    2    1    2  501    0  0.34763772554E+02 -0.45377164007E+00 -0.40175352075E+02  0.47007438197E+03  0.46706224412E+03 0.  0.
         13    1    3    3    0    0  0.28013481381E+02 -0.21117952032E+03 -0.12015663730E+03  0.24457956258E+03  0.00000000000E+00 0.  1.
          1    1    3    3  501    0  0.67502911726E+01  0.21072574868E+03  0.79981285224E+02  0.22549481940E+03  0.00000000000E+00 0.  1.
         21    1    1    2  502  501 -0.34763772554E+02  0.45377164007E+00 -0.46711367005E+01  0.35079129250E+02  0.00000000000E+00 0. -1.
<scales pt_clust_4="550.00000" pt_clust_5="550.00000" pt_clust_6="34.76675"></scales>
<mgrwt>
<rscale>  0 0.30000000E+03</rscale>
<asrwt>  1 0.34766751E+02</asrwt>
<pdfrwt beam="1">  1        1 0.83692186E+00 0.30000000E+03</pdfrwt>
<pdfrwt beam="2">0</pdfrwt>
<totfact> 0.52453052E-04</totfact>
</mgrwt>
<clustering>
<clus scale="   34.767">  1  6  2 -1</clus>
<clus scale="  467.062">  4  5 -1 -1</clus>
<clus scale="  300.000">  1  4  2 -1</clus>
</clustering>
</event>
<event>
 6    1  0.9254630E-012  0.3000000E+03  0.7818608E-02  0.1093470E+00
          1   -1    0    0  502    0  0.00000000000E+00  0.00000000000E+00  0.26066292355E+03  0.26066292355E+03  0.00000000000E+00 0.  1.
         13   -1    0    0    0    0 -0.00000000000E+00 -0.00000000000E+00 -0.27500000000E+03  0.27500000000E+03  0.00000000000E+00 0.  1.
    9000005    2    1    2  501    0 -0.44730630905E+02  0.22722131885E+02 -0.28273186351E+02  0.48359239659E+03  0.48015113074E+03 0.  0.
         13    1    3    3    0    0 -0.45981680744E+02  0.25030006972E+03 -0.27875156353E+02  0.25601067206E+03  0.00000000000E+00 0.  1.
          1    1    3    3  501    0  0.12510498396E+01 -0.22757793783E+03 -0.39802999788E+00  0.22758172453E+03  0.00000000000E+00 0.  1.
         21    1    1    2  502  501  0.44730630905E+02 -0.22722131885E+02  0.13936109897E+02  0.52070526957E+02  0.00000000000E+00 0. -1.
<scales pt_clust_4="550.00000" pt_clust_5="550.00000" pt_clust_6="50.17095"></scales>
<mgrwt>
<rscale>  0 0.30000000E+03</rscale>
<asrwt>  1 0.50170954E+02</asrwt>
<pdfrwt beam="1">  1        1 0.94786518E+00 0.30000000E+03</pdfrwt>
<pdfrwt beam="2">0</pdfrwt>
<totfact> 0.12781188E-05</totfact>
</mgrwt>
<clustering>
<clus scale="   50.171">  1  6  2 -1</clus>
<clus scale="  480.151">  4  5 -1 -1</clus>
<clus scale="  300.000">  1  4  2 -1</clus>
</clustering>
</event>
<event>
 6    1  0.9254630E-012  0.3000000E+03  0.7818608E-02  0.1093470E+00
          1   -1    0    0  502    0  0.00000000000E+00  0.00000000000E+00  0.23852754325E+03  0.23852754325E+03  0.00000000000E+00 0.  1.
         13   -1    0    0    0    0 -0.00000000000E+00 -0.00000000000E+00 -0.27500000000E+03  0.27500000000E+03  0.00000000000E+00 0.  1.
    9000005    2    1    2  501    0  0.12460989036E+02  0.30322829341E+02 -0.21293883856E+02  0.47740083149E+03  0.47579761894E+03 0.  0.
         13    1    3    3    0    0  0.20229467375E+03 -0.96840860639E+02  0.64444658856E+02  0.23335466863E+03  0.00000000000E+00 0.  1.
          1    1    3    3  501    0 -0.18983368471E+03  0.12716368998E+03 -0.85738542712E+02  0.24404616286E+03  0.00000000000E+00 0.  1.
         21    1    1    2  502  501 -0.12460989036E+02 -0.30322829341E+02 -0.15178572898E+02  0.36126711755E+02  0.00000000000E+00 0. -1.
<scales pt_clust_4="550.00000" pt_clust_5="550.00000" pt_clust_6="32.78340"></scales>
<mgrwt>
<rscale>  0 0.30000000E+03</rscale>
<asrwt>  1 0.32783400E+02</asrwt>
<pdfrwt beam="1">  1        1 0.86737288E+00 0.30000000E+03</pdfrwt>
<pdfrwt beam="2">0</pdfrwt>
<totfact> 0.27291625E-04</totfact>
</mgrwt>
<clustering>
<clus scale="   32.783">  1  6  2 -1</clus>
<clus scale="  475.798">  4  5 -1 -1</clus>
<clus scale="  300.000">  1  4  2 -1</clus>
</clustering>
</event>
<event>
 6    1  0.9254630E-012  0.3000000E+03  0.7818608E-02  0.1093470E+00
          1   -1    0    0  502    0  0.00000000000E+00  0.00000000000E+00  0.24397841606E+03  0.24397841606E+03  0.00000000000E+00 0.  1.
         13   -1    0    0    0    0 -0.00000000000E+00 -0.00000000000E+00 -0.27500000000E+03  0.27500000000E+03  0.00000000000E+00 0.  1.
    9000005    2    1    2  501    0  0.29281234565E+02 -0.11864464207E+02 -0.41228360696E+02  0.48577699290E+03  0.48299208368E+03 0.  0.
         13    1    3    3    0    0  0.24897301557E+03 -0.21152212396E+02  0.36569835388E+02  0.25253184241E+03  0.00000000000E+00 0.  1.
          1    1    3    3  501    0 -0.21969178101E+03  0.92877481884E+01 -0.77798196084E+02  0.23324515048E+03  0.00000000000E+00 0.  1.
         21    1    1    2  502  501 -0.29281234565E+02  0.11864464207E+02  0.10206776760E+02  0.33201423168E+02  0.00000000000E+00 0.  1.
<scales pt_clust_4="550.00000" pt_clust_5="550.00000" pt_clust_6="31.59361"></scales>
<mgrwt>
<rscale>  0 0.30000000E+03</rscale>
<asrwt>  1 0.31593610E+02</asrwt>
<pdfrwt beam="1">  1        1 0.88719424E+00 0.30000000E+03</pdfrwt>
<pdfrwt beam="2">0</pdfrwt>
<totfact> 0.16138107E-04</totfact>
</mgrwt>
<clustering>
<clus scale="   31.594">  1  6  2 -1</clus>
<clus scale="  482.992">  4  5 -1 -1</clus>
<clus scale="  300.000">  1  4  2 -1</clus>
</clustering>
</event>
<event>
 6    1  0.9254630E-012  0.3000000E+03  0.7818608E-02  0.1093470E+00
          1   -1    0    0  502    0  0.00000000000E+00  0.00000000000E+00  0.24123463066E+03  0.24123463066E+03  0.00000000000E+00 0.  1.
         13   -1    0    0    0    0 -0.00000000000E+00 -0.00000000000E+00 -0.27500000000E+03  0.27500000000E+03  0.00000000000E+00 0.  1.
    9000005    2    1    2  501    0  0.29552570607E+02  0.73206437718E+01 -0.49740980588E+02  0.48185198374E+03  0.47830975615E+03 0.  0.
         13    1    3    3    0    0  0.13547749194E+03  0.20747249868E+03 -0.60768263281E+02  0.25513088867E+03  0.00000000000E+00 0.  1.
          1    1    3    3  501    0 -0.10592492134E+03 -0.20015185491E+03  0.11027282692E+02  0.22672109507E+03  0.00000000000E+00 0.  1.
         21    1    1    2  502  501 -0.29552570607E+02 -0.73206437718E+01  0.15975611251E+02  0.34382646925E+02  0.00000000000E+00 0. -1.
<scales pt_clust_4="550.00000" pt_clust_5="550.00000" pt_clust_6="30.44579"></scales>
<mgrwt>
<rscale>  0 0.30000000E+03</rscale>
<asrwt>  1 0.30445792E+02</asrwt>
<pdfrwt beam="1">  1        1 0.87721684E+00 0.30000000E+03</pdfrwt>
<pdfrwt beam="2">0</pdfrwt>
<totfact> 0.21850018E-04</totfact>
</mgrwt>
<clustering>
<clus scale="   30.446">  1  6  2 -1</clus>
<clus scale="  478.310">  4  5 -1 -1</clus>
<clus scale="  300.000">  1  4  2 -1</clus>
</clustering>
</event>
<event>
 6    1  0.9254630E-012  0.3000000E+03  0.7818608E-02  0.1093470E+00
          1   -1    0    0  502    0  0.00000000000E+00  0.00000000000E+00  0.24452442750E+03  0.24452442750E+03  0.00000000000E+00 0.  1.
         13   -1    0    0    0    0 -0.00000000000E+00 -0.00000000000E+00 -0.27500000000E+03  0.27500000000E+03  0.00000000000E+00 0.  1.
    9000005    2    1    2  501    0  0.32952629298E+01 -0.31383904590E+02 -0.53806383225E+02  0.48027987432E+03  0.47621195132E+03 0.  0.
         13    1    3    3    0    0 -0.44795585748E+02  0.49272960723E+02 -0.25216840186E+03  0.26081290623E+03  0.00000000000E+00 0.  1.
          3    1    3    3  501    0  0.48090848678E+02 -0.80656865313E+02  0.19836201863E+03  0.21946696809E+03  0.00000000000E+00 0.  1.
         21    1    1    2  502  501 -0.32952629298E+01  0.31383904590E+02  0.23330810723E+02  0.39244553177E+02  0.00000000000E+00 0. -1.
<scales pt_clust_4="550.00000" pt_clust_5="550.00000" pt_clust_6="31.55643"></scales>
<mgrwt>
<rscale>  0 0.30000000E+03</rscale>
<asrwt>  1 0.31556429E+02</asrwt>
<pdfrwt beam="1">  1        1 0.88917974E+00 0.30000000E+03</pdfrwt>
<pdfrwt beam="2">0</pdfrwt>
<totfact> 0.15161502E-04</totfact>
</mgrwt>
<clustering>
<clus scale="   31.556">  1  6  2 -1</clus>
<clus scale="  476.212">  4  5 -1 -1</clus>
<clus scale="  300.000">  1  4  2 -1</clus>
</clustering>
</event>
<event>
 6    1  0.9254630E-012  0.3000000E+03  0.7818608E-02  0.1093470E+00
          1   -1    0    0  502    0  0.00000000000E+00  0.00000000000E+00  0.23396619592E+03  0.23396619592E+03  0.00000000000E+00 0.  1.
         13   -1    0    0    0    0 -0.00000000000E+00 -0.00000000000E+00 -0.27500000000E+03  0.27500000000E+03  0.00000000000E+00 0.  1.
    9000005    2    1    2  501    0 -0.29829616745E+02 -0.16392979973E+02 -0.52407710536E+02  0.47307885030E+03  0.46893335843E+03 0.  0.
         13    1    3    3    0    0 -0.78498504317E+02 -0.37227215186E+02 -0.25201525996E+03  0.26657001329E+03  0.00000000000E+00 0.  1.
          1    1    3    3  501    0  0.48668887572E+02  0.20834235213E+02  0.19960754943E+03  0.20650883701E+03  0.00000000000E+00 0.  1.
         21    1    1    2  502  501  0.29829616745E+02  0.16392979973E+02  0.11373906452E+02  0.35887345618E+02  0.00000000000E+00 0. -1.
<scales pt_clust_4="550.00000" pt_clust_5="550.00000" pt_clust_6="34.03727"></scales>
<mgrwt>
<rscale>  0 0.30000000E+03</rscale>
<asrwt>  1 0.34037271E+02</asrwt>
<pdfrwt beam="1">  1        1 0.85078617E+00 0.30000000E+03</pdfrwt>
<pdfrwt beam="2">0</pdfrwt>
<totfact> 0.40220106E-04</totfact>
</mgrwt>
<clustering>
<clus scale="   34.037">  1  6  2 -1</clus>
<clus scale="  468.933">  4  5 -1 -1</clus>
<clus scale="  300.000">  1  4  2 -1</clus>
</clustering>
</event>
<event>
 6    1  0.9254630E-012  0.3000000E+03  0.7818608E-02  0.1093470E+00
          1   -1    0    0  502    0  0.00000000000E+00  0.00000000000E+00  0.23525847081E+03  0.23525847081E+03  0.00000000000E+00 0.  1.
         13   -1    0    0    0    0 -0.00000000000E+00 -0.00000000000E+00 -0.27500000000E+03  0.27500000000E+03  0.00000000000E+00 0.  1.
    9000005    2    1    2  501    0  0.40838537477E+02  0.18860996663E+02 -0.22847000020E+02  0.46220695206E+03  0.45944505415E+03 0.  0.
         13    1    3    3    0    0 -0.17772429694E+03 -0.62828146895E+02  0.83030184877E+02  0.20597891486E+03  0.00000000000E+00 0.  1.
          1    1    3    3  501    0  0.21856283442E+03  0.81689143559E+02 -0.10587718490E+03  0.25622803720E+03  0.00000000000E+00 0.  1.
         21    1    1    2  502  501 -0.40838537477E+02 -0.18860996663E+02 -0.16894529173E+02  0.48051518752E+02  0.00000000000E+00 0.  1.
<scales pt_clust_4="550.00000" pt_clust_5="550.00000" pt_clust_6="44.98361"></scales>
<mgrwt>
<rscale>  0 0.30000000E+03</rscale>
<asrwt>  1 0.44983612E+02</asrwt>
<pdfrwt beam="1">  1        1 0.85548535E+00 0.30000000E+03</pdfrwt>
<pdfrwt beam="2">0</pdfrwt>
<totfact> 0.34414854E-04</totfact>
</mgrwt>
<clustering>
<clus scale="   44.984">  1  6  2 -1</clus>
<clus scale="  459.445">  4  5 -1 -1</clus>
<clus scale="  300.000">  1  4  2 -1</clus>
</clustering>
</event>
<event>
 6    1  0.9254630E-012  0.3000000E+03  0.7818608E-02  0.1093470E+00
          1   -1    0    0  502    0  0.00000000000E+00  0.00000000000E+00  0.24019164240E+03  0.24019164240E+03  0.00000000000E+00 0.  1.
         13   -1    0    0    0    0 -0.00000000000E+00 -0.00000000000E+00 -0.27500000000E+03  0.27500000000E+03  0.00000000000E+00 0.  1.
    9000005    2    1    2  501    0 -0.65506032341E+00 -0.43404445976E+02 -0.45996109570E+02  0.47036374005E+03  0.46609229861E+03 0.  0.
         13    1    3    3    0    0 -0.14533097861E+03 -0.98263377420E+02 -0.19027331482E+03  0.25880633497E+03  0.00000000000E+00 0.  1.
          3    1    3    3  501    0  0.14467591829E+03  0.54858931444E+02  0.14427720525E+03  0.21155740509E+03  0.00000000000E+00 0.  1.
         21    1    1    2  502  501  0.65506032341E+00  0.43404445976E+02  0.11187751969E+02  0.44827902345E+02  0.00000000000E+00 0.  1.
<scales pt_clust_4="550.00000" pt_clust_5="550.00000" pt_clust_6="43.40939"></scales>
<mgrwt>
<rscale>  0 0.30000000E+03</rscale>
<asrwt>  1 0.43409389E+02</asrwt>
<pdfrwt beam="1">  1        1 0.87342415E+00 0.30000000E+03</pdfrwt>
<pdfrwt beam="2">0</pdfrwt>
<totfact> 0.22457144E-04</totfact>
</mgrwt>
<clustering>
<clus scale="   43.409">  1  6  2 -1</clus>
<clus scale="  466.092">  4  5 -1 -1</clus>
<clus scale="  300.000">  1  4  2 -1</clus>
</clustering>
</event>
<event>
 6    1  0.9254630E-012  0.3000000E+03  0.7818608E-02  0.1093470E+00
          1   -1    0    0  502    0  0.00000000000E+00  0.00000000000E+00  0.23981075088E+03  0.23981075088E+03  0.00000000000E+00 0.  1.
         13   -1    0    0    0    0 -0.00000000000E+00 -0.00000000000E+00 -0.27500000000E+03  0.27500000000E+03  0.00000000000E+00 0.  1.
    9000005    2    1    2  501    0  0.23227144480E+02  0.30146606937E+02 -0.37773525747E+02  0.47666633273E+03  0.47364082949E+03 0.  0.
         13    1    3    3    0    0 -0.12235823209E+03  0.20132287408E+03  0.39823714815E+02  0.23893171588E+03  0.00000000000E+00 0.  1.
          1    1    3    3  501    0  0.14558537657E+03 -0.17117626715E+03 -0.77597240562E+02  0.23773461685E+03  0.00000000000E+00 0.  1.
         21    1    1    2  502  501 -0.23227144480E+02 -0.30146606937E+02  0.25842766261E+01  0.38144418152E+02  0.00000000000E+00 0.  1.
<scales pt_clust_4="550.00000" pt_clust_5="550.00000" pt_clust_6="38.05678"></scales>
<mgrwt>
<rscale>  0 0.30000000E+03</rscale>
<asrwt>  1 0.38056775E+02</asrwt>
<pdfrwt beam="1">  1        1 0.87203909E+00 0.30000000E+03</pdfrwt>
<pdfrwt beam="2">0</pdfrwt>
<totfact> 0.23767240E-04</totfact>
</mgrwt>
<clustering>
<clus scale="   38.057">  1  6  2 -1</clus>
<clus scale="  473.641">  4  5 -1 -1</clus>
<clus scale="  300.000">  1  4  2 -1</clus>
</clustering>
</event>
<event>
 6    1  0.9254630E-012  0.3000000E+03  0.7818608E-02  0.1093470E+00
          1   -1    0    0  502    0  0.00000000000E+00  0.00000000000E+00  0.23757521412E+03  0.23757521412E+03  0.00000000000E+00 0.  1.
         13   -1    0    0    0    0 -0.00000000000E+00 -0.00000000000E+00 -0.27500000000E+03  0.27500000000E+03  0.00000000000E+00 0.  1.
    9000005    2    1    2  501    0 -0.65122042993E+01 -0.31808413799E+02 -0.64384146286E+02  0.47037342380E+03  0.46481357072E+03 0.  0.
         13    1    3    3    0    0 -0.21819500067E+03 -0.10441264373E+03 -0.41408438980E+02  0.24540928529E+03  0.00000000000E+00 0.  1.
          1    1    3    3  501    0  0.21168279637E+03  0.72604229935E+02 -0.22975707306E+02  0.22496413850E+03  0.00000000000E+00 0.  1.
         21    1    1    2  502  501  0.65122042993E+01  0.31808413799E+02  0.26959360408E+02  0.42201790327E+02  0.00000000000E+00 0.  1.
<scales pt_clust_4="550.00000" pt_clust_5="550.00000" pt_clust_6="32.46820"></scales>
<mgrwt>
<rscale>  0 0.30000000E+03</rscale>
<asrwt>  1 0.32468200E+02</asrwt>
<pdfrwt beam="1">  1        1 0.86390987E+00 0.30000000E+03</pdfrwt>
<pdfrwt beam="2">0</pdfrwt>
<totfact> 0.29772600E-04</totfact>
</mgrwt>
<clustering>
<clus scale="   32.468">  1  6  2 -1</clus>
<clus scale="  464.814">  4  5 -1 -1</clus>
<clus scale="  300.000">  1  4  2 -1</clus>
</clustering>
</event>
<event>
 6    1  0.9254630E-012  0.3000000E+03  0.7818608E-02  0.1093470E+00
          1   -1    0    0  502    0  0.00000000000E+00  0.00000000000E+00  0.24936803856E+03  0.24936803856E+03  0.00000000000E+00 0.  1.
         13   -1    0    0    0    0 -0.00000000000E+00 -0.00000000000E+00 -0.27500000000E+03  0.27500000000E+03  0.00000000000E+00 0.  1.
    9000005    2    1    2  501    0 -0.32829704356E+02  0.27203452768E+02 -0.39596411037E+02  0.47950354053E+03  0.47596003224E+03 0.  0.
         13    1    3    3    0    0 -0.11024160537E+03  0.14151566834E+03  0.15759962296E+03  0.23878345231E+03  0.00000000000E+00 0.  1.
          1    1    3    3  501    0  0.77411901012E+02 -0.11431221557E+03 -0.19719603400E+03  0.24072008822E+03  0.00000000000E+00 0.  1.
         21    1    1    2  502  501  0.32829704356E+02 -0.27203452768E+02  0.13964449597E+02  0.44864498027E+02  0.00000000000E+00 0. -1.
<scales pt_clust_4="550.00000" pt_clust_5="550.00000" pt_clust_6="42.63587"></scales>
<mgrwt>
<rscale>  0 0.30000000E+03</rscale>
<asrwt>  1 0.42635869E+02</asrwt>
<pdfrwt beam="1">  1        1 0.90679287E+00 0.30000000E+03</pdfrwt>
<pdfrwt beam="2">0</pdfrwt>
<totfact> 0.82076189E-05</totfact>
</mgrwt>
<clustering>
<clus scale="   42.636">  1  6  2 -1</clus>
<clus scale="  475.960">  4  5 -1 -1</clus>
<clus scale="  300.000">  1  4  2 -1</clus>
</clustering>
</event>
<event>
 6    1  0.9254630E-012  0.3000000E+03  0.7818608E-02  0.1093470E+00
          1   -1    0    0  502    0  0.00000000000E+00  0.00000000000E+00  0.22470927389E+03  0.22470927389E+03  0.00000000000E+00 0.  1.
         13   -1    0    0    0    0 -0.00000000000E+00 -0.00000000000E+00 -0.27500000000E+03  0.27500000000E+03  0.00000000000E+00 0.  1.
    9000005    2    1    2  501    0  0.10138473463E+02  0.34638143021E+02 -0.57763064464E+02  0.46285245041E+03  0.45781353152E+03 0.  0.
         13    1    3    3    0    0  0.20816446665E+02  0.22356453224E+02  0.20113597038E+03  0.20344240963E+03  0.00000000000E+00 0.  1.
          1    1    3    3  501    0 -0.10677973202E+02  0.12281689796E+02 -0.25889903485E+03  0.25941004079E+03  0.00000000000E+00 0.  1.
         21    1    1    2  502  501 -0.10138473463E+02 -0.34638143021E+02  0.74723383505E+01  0.36856823473E+02  0.00000000000E+00 0.  1.
<scales pt_clust_4="550.00000" pt_clust_5="550.00000" pt_clust_6="36.09141"></scales>
<mgrwt>
<rscale>  0 0.30000000E+03</rscale>
<asrwt>  1 0.36091406E+02</asrwt>
<pdfrwt beam="1">  1        1 0.81712463E+00 0.30000000E+03</pdfrwt>
<pdfrwt beam="2">0</pdfrwt>
<totfact> 0.76052176E-04</totfact>
</mgrwt>
<clustering>
<clus scale="   36.091">  1  6  2 -1</clus>
<clus scale="  457.814">  4  5 -1 -1</clus>
<clus scale="  300.000">  1  4  2 -1</clus>
</clustering>
</event>
<event>
 6    1  0.9254630E-012  0.3000000E+03  0.7818608E-02  0.1093470E+00
          1   -1    0    0  502    0  0.00000000000E+00  0.00000000000E+00  0.24977027617E+03  0.24977027617E+03  0.00000000000E+00 0.  1.
         13   -1    0    0    0    0 -0.00000000000E+00 -0.00000000000E+00 -0.27500000000E+03  0.27500000000E+03  0.00000000000E+00 0.  1.
    9000005    2    1    2  501    0  0.14909845982E+02 -0.34905651894E+02 -0.41186301808E+02  0.48359600724E+03  0.48034162709E+03 0.  0.
         13    1    3    3    0    0 -0.40452143093E+02 -0.17325408469E+03 -0.19873614743E+03  0.26673846749E+03  0.00000000000E+00 0.  1.
          3    1    3    3  501    0  0.55361989074E+02  0.13834843280E+03  0.15754984562E+03  0.21685753975E+03  0.00000000000E+00 0.  1.
         21    1    1    2  502  501 -0.14909845982E+02  0.34905651894E+02  0.15956577975E+02  0.41174268931E+02  0.00000000000E+00 0.  1.
<scales pt_clust_4="550.00000" pt_clust_5="550.00000" pt_clust_6="37.95666"></scales>
<mgrwt>
<rscale>  0 0.30000000E+03</rscale>
<asrwt>  1 0.37956660E+02</asrwt>
<pdfrwt beam="1">  1        1 0.90825555E+00 0.30000000E+03</pdfrwt>
<pdfrwt beam="2">0</pdfrwt>
<totfact> 0.77831277E-05</totfact>
</mgrwt>
<clustering>
<clus scale="   37.957">  1  6  2 -1</clus>
<clus scale="  480.342">  4  5 -1 -1</clus>
<clus scale="  300.000">  1  4  2 -1</clus>
</clustering>
</event>
<event>
 6    1  0.9254630E-012  0.3000000E+03  0.7818608E-02  0.1093470E+00
          1   -1    0    0  502    0  0.00000000000E+00  0.00000000000E+00  0.24719231392E+03  0.24719231392E+03  0.00000000000E+00 0.  1.
         13   -1    0    0    0    0 -0.00000000000E+00 -0.00000000000E+00 -0.27500000000E+03  0.27500000000E+03  0.00000000000E+00 0.  1.
    9000005    2    1    2  501    0 -0.28187135999E+02  0.21126677357E+02 -0.70119988441E+02  0.46713614203E+03  0.46049811214E+03 0.  0.
         13    1    3    3    0    0 -0.10087796656E+03 -0.18342290039E+03  0.55185586891E+02  0.21648504227E+03  0.00000000000E+00 0.  1.
          3    1    3    3  501    0  0.72690830559E+02  0.20454957775E+03 -0.12530557533E+03  0.25065109977E+03  0.00000000000E+00 0.  1.
         21    1    1    2  502  501  0.28187135999E+02 -0.21126677357E+02  0.42312302362E+02  0.55056171890E+02  0.00000000000E+00 0.  1.
<scales pt_clust_4="550.00000" pt_clust_5="550.00000" pt_clust_6="35.22572"></scales>
<mgrwt>
<rscale>  0 0.30000000E+03</rscale>
<asrwt>  1 0.35225717E+02</asrwt>
<pdfrwt beam="1">  1        1 0.89888114E+00 0.30000000E+03</pdfrwt>
<pdfrwt beam="2">0</pdfrwt>
<totfact> 0.11382579E-04</totfact>
</mgrwt>
<clustering>
<clus scale="   35.226">  1  6  2 -1</clus>
<clus scale="  460.498">  4  5 -1 -1</clus>
<clus scale="  300.000">  1  4  2 -1</clus>
</clustering>
</event>
<event>
 6    1  0.9254630E-012  0.3000000E+03  0.7818608E-02  0.1093470E+00
          1   -1    0    0  502    0  0.00000000000E+00  0.00000000000E+00  0.23000449564E+03  0.23000449564E+03  0.00000000000E+00 0.  1.
         13   -1    0    0    0    0 -0.00000000000E+00 -0.00000000000E+00 -0.27500000000E+03  0.27500000000E+03  0.00000000000E+00 0.  1.
    9000005    2    1    2  501    0 -0.14084402199E+02 -0.31202599464E+02 -0.66330221816E+02  0.46466663789E+03  0.45863211123E+03 0.  0.
         13    1    3    3    0    0  0.12598941388E+03 -0.17657159145E+03 -0.13012968242E+03  0.25295176134E+03  0.00000000000E+00 0.  1.
          3    1    3    3  501    0 -0.14007381608E+03  0.14536899198E+03  0.63799460606E+02  0.21171487656E+03  0.00000000000E+00 0.  1.
         21    1    1    2  502  501  0.14084402199E+02  0.31202599464E+02  0.21334717455E+02  0.40337857745E+02  0.00000000000E+00 0.  1.
<scales pt_clust_4="550.00000" pt_clust_5="550.00000" pt_clust_6="34.23409"></scales>
<mgrwt>
<rscale>  0 0.30000000E+03</rscale>
<asrwt>  1 0.34234085E+02</asrwt>
<pdfrwt beam="1">  1        1 0.83637998E+00 0.30000000E+03</pdfrwt>
<pdfrwt beam="2">0</pdfrwt>
<totfact> 0.53083662E-04</totfact>
</mgrwt>
<clustering>
<clus scale="   34.234">  1  6  2 -1</clus>
<clus scale="  458.632">  4  5 -1 -1</clus>
<clus scale="  300.000">  1  4  2 -1</clus>
</clustering>
</event>
<event>
 6    1  0.9254630E-012  0.3000000E+03  0.7818608E-02  0.1093470E+00
          1   -1    0    0  502    0  0.00000000000E+00  0.00000000000E+00  0.22845215984E+03  0.22845215984E+03  0.00000000000E+00 0.  1.
         13   -1    0    0    0    0 -0.00000000000E+00 -0.00000000000E+00 -0.27500000000E+03  0.27500000000E+03  0.00000000000E+00 0.  1.
    9000005    2    1    2  501    0  0.14950990924E+02  0.28646806864E+02 -0.64595870495E+02  0.46643995817E+03  0.46081388480E+03 0.  0.
         13    1    3    3    0    0 -0.23539287977E+02 -0.57928651947E+02  0.18722206522E+03  0.19738776178E+03  0.00000000000E+00 0.  1.
          3    1    3    3  501    0  0.38490278901E+02  0.86575458811E+02 -0.25181793571E+03  0.26905219640E+03  0.00000000000E+00 0.  1.
         21    1    1    2  502  501 -0.14950990924E+02 -0.28646806864E+02  0.18048030332E+02  0.37012201663E+02  0.00000000000E+00 0. -1.
<scales pt_clust_4="550.00000" pt_clust_5="550.00000" pt_clust_6="32.31365"></scales>
<mgrwt>
<rscale>  0 0.30000000E+03</rscale>
<asrwt>  1 0.32313645E+02</asrwt>
<pdfrwt beam="1">  1        1 0.83073513E+00 0.30000000E+03</pdfrwt>
<pdfrwt beam="2">0</pdfrwt>
<totfact> 0.59175513E-04</totfact>
</mgrwt>
<clustering>
<clus scale="   32.314">  1  6  2 -1</clus>
<clus scale="  460.814">  4  5 -1 -1</clus>
<clus scale="  300.000">  1  4  2 -1</clus>
</clustering>
</event>
<event>
 6    1  0.9254630E-012  0.3000000E+03  0.7818608E-02  0.1093470E+00
          1   -1    0    0  502    0  0.00000000000E+00  0.00000000000E+00  0.25113732922E+03  0.25113732922E+03  0.00000000000E+00 0.  1.
         13   -1    0    0    0    0 -0.00000000000E+00 -0.00000000000E+00 -0.27500000000E+03  0.27500000000E+03  0.00000000000E+00 0.  1.
    9000005    2    1    2  501    0  0.64847900024E+02 -0.23650454559E+01 -0.20068586547E+02  0.46113549346E+03  0.45610563643E+03 0.  0.
         13    1    3    3    0    0  0.10367391971E+03 -0.14008537130E+03  0.15624783604E+03  0.23406319477E+03  0.00000000000E+00 0.  1.
          3    1    3    3  501    0 -0.38826019683E+02  0.13772032585E+03 -0.17631642259E+03  0.22707229868E+03  0.00000000000E+00 0.  1.
         21    1    1    2  502  501 -0.64847900024E+02  0.23650454559E+01 -0.37940842308E+01  0.65001835764E+02  0.00000000000E+00 0. -1.
<scales pt_clust_4="550.00000" pt_clust_5="550.00000" pt_clust_6="64.89105"></scales>
<mgrwt>
<rscale>  0 0.30000000E+03</rscale>
<asrwt>  1 0.64891046E+02</asrwt>
<pdfrwt beam="1">  1        1 0.91322665E+00 0.30000000E+03</pdfrwt>
<pdfrwt beam="2">0</pdfrwt>
<totfact> 0.53557933E-05</totfact>
</mgrwt>
<clustering>
<clus scale="   64.891">  1  6  2 -1</clus>
<clus scale="  456.106">  4  5 -1 -1</clus>
<clus scale="  300.000">  1  4  2 -1</clus>
</clustering>
</event>
<event>
 6    1  0.9254630E-012  0.3000000E+03  0.7818608E-02  0.1093470E+00
          1   -1    0    0  502    0  0.00000000000E+00  0.00000000000E+00  0.22809392335E+03  0.22809392335E+03  0.00000000000E+00 0.  1.
         13   -1    0    0    0    0 -0.00000000000E+00 -0.00000000000E+00 -0.27500000000E+03  0.27500000000E+03  0.00000000000E+00 0.  1.
    9000005    2    1    2  501    0 -0.34420591392E+02 -0.17218409769E+02 -0.60658308623E+02  0.46222370643E+03  0.45660713270E+03 0.  0.
         13    1    3    3    0    0  0.17474212477E+03 -0.20788386641E+02 -0.15334850388E+03  0.23341536117E+03  0.00000000000E+00 0.  1.
          1    1    3    3  501    0 -0.20916271616E+03  0.35699768722E+01  0.92690195256E+02  0.22880834526E+03  0.00000000000E+00 0.  1.
         21    1    1    2  502  501  0.34420591392E+02  0.17218409769E+02  0.13752231971E+02  0.40870216918E+02  0.00000000000E+00 0. -1.
<scales pt_clust_4="550.00000" pt_clust_5="550.00000" pt_clust_6="38.48702"></scales>
<mgrwt>
<rscale>  0 0.30000000E+03</rscale>
<asrwt>  1 0.38487020E+02</asrwt>
<pdfrwt beam="1">  1        1 0.82943245E+00 0.30000000E+03</pdfrwt>
<pdfrwt beam="2">0</pdfrwt>
<totfact> 0.58704946E-04</totfact>
</mgrwt>
<clustering>
<clus scale="   38.487">  1  6  2 -1</clus>
<clus scale="  456.607">  4  5 -1 -1</clus>
<clus scale="  300.000">  1  4  2 -1</clus>
</clustering>
</event>
<event>
 6    1  0.9254630E-012  0.3000000E+03  0.7818608E-02  0.1093470E+00
          1   -1    0    0  502    0  0.00000000000E+00  0.00000000000E+00  0.25220425719E+03  0.25220425719E+03  0.00000000000E+00 0.  1.
         13   -1    0    0    0    0 -0.00000000000E+00 -0.00000000000E+00 -0.27500000000E+03  0.27500000000E+03  0.00000000000E+00 0.  1.
    9000005    2    1    2  501    0 -0.27166654913E+02  0.19783263933E+02 -0.32305509584E+02  0.49227804447E+03  0.49006593683E+03 0.  0.
         13    1    3    3    0    0 -0.82349952359E+02 -0.18218267557E+03 -0.15196384723E+03  0.25112756280E+03  0.00000000000E+00 0.  1.
          1    1    3    3  501    0  0.55183297447E+02  0.20196593951E+03  0.11965833765E+03  0.24115048167E+03  0.00000000000E+00 0.  1.
         21    1    1    2  502  501  0.27166654913E+02 -0.19783263933E+02  0.95097667732E+01  0.34926212721E+02  0.00000000000E+00 0.  1.
<scales pt_clust_4="550.00000" pt_clust_5="550.00000" pt_clust_6="33.60662"></scales>
<mgrwt>
<rscale>  0 0.30000000E+03</rscale>
<asrwt>  1 0.33606616E+02</asrwt>
<pdfrwt beam="1">  1        1 0.91710639E+00 0.30000000E+03</pdfrwt>
<pdfrwt beam="2">0</pdfrwt>
<totfact> 0.48819726E-05</totfact>
</mgrwt>
<clustering>
<clus scale="   33.607">  1  6  2 -1</clus>
<clus scale="  490.066">  4  5 -1 -1</clus>
<clus scale="  300.000">  1  4  2 -1</clus>
</clustering>
</event>
<event>
 6    1  0.9254630E-012  0.3000000E+03  0.7818608E-02  0.1093470E+00
          1   -1    0    0  502    0  0.00000000000E+00  0.00000000000E+00  0.23196389582E+03  0.23196389582E+03  0.00000000000E+00 0.  1.
         13   -1    0    0    0    0 -0.00000000000E+00 -0.00000000000E+00 -0.27500000000E+03  0.27500000000E+03  0.00000000000E+00 0.  1.
    9000005    2    1    2  501    0  0.21864900927E+02  0.21450124119E+02 -0.70415945926E+02  0.46588059688E+03  0.45950858903E+03 0.  0.
         13    1    3    3    0    0 -0.17903729780E+03  0.10781151159E+03  0.51871127674E+02  0.21533297453E+03  0.00000000000E+00 0.  1.
          3    1    3    3  501    0  0.20090219872E+03 -0.86361387471E+02 -0.12228707360E+03  0.25054762235E+03  0.00000000000E+00 0.  1.
         21    1    1    2  502  501 -0.21864900927E+02 -0.21450124119E+02  0.27379841744E+02  0.41083298933E+02  0.00000000000E+00 0.  1.
<scales pt_clust_4="550.00000" pt_clust_5="550.00000" pt_clust_6="30.62975"></scales>
<mgrwt>
<rscale>  0 0.30000000E+03</rscale>
<asrwt>  1 0.30629752E+02</asrwt>
<pdfrwt beam="1">  1        1 0.84350508E+00 0.30000000E+03</pdfrwt>
<pdfrwt beam="2">0</pdfrwt>
<totfact> 0.47734547E-04</totfact>
</mgrwt>
<clustering>
<clus scale="   30.630">  1  6  2 -1</clus>
<clus scale="  459.509">  4  5 -1 -1</clus>
<clus scale="  300.000">  1  4  2 -1</clus>
</clustering>
</event>
<event>
 6    1  0.9254630E-012  0.3000000E+03  0.7818608E-02  0.1093470E+00
          1   -1    0    0  502    0  0.00000000000E+00  0.00000000000E+00  0.22704092646E+03  0.22704092646E+03  0.00000000000E+00 0.  1.
         13   -1    0    0    0    0 -0.00000000000E+00 -0.00000000000E+00 -0.27500000000E+03  0.27500000000E+03  0.00000000000E+00 0.  1.
    9000005    2    1    2  501    0 -0.17373781003E+02  0.25495111581E+02 -0.37834918015E+02  0.46957020879E+03  0.46702553568E+03 0.  0.
         13    1    3    3    0    0 -0.18189147392E+02  0.46846870611E+02  0.21248151284E+03  0.21834346262E+03  0.00000000000E+00 0.  1.
          1    1    3    3  501    0  0.81536638873E+00 -0.21351759030E+02 -0.25031643086E+03  0.25122674617E+03  0.00000000000E+00 0.  1.
         21    1    1    2  502  501  0.17373781003E+02 -0.25495111581E+02 -0.10124155526E+02  0.32470717669E+02  0.00000000000E+00 0. -1.
<scales pt_clust_4="550.00000" pt_clust_5="550.00000" pt_clust_6="30.85207"></scales>
<mgrwt>
<rscale>  0 0.30000000E+03</rscale>
<asrwt>  1 0.30852065E+02</asrwt>
<pdfrwt beam="1">  1        1 0.82560337E+00 0.30000000E+03</pdfrwt>
<pdfrwt beam="2">0</pdfrwt>
<totfact> 0.66071891E-04</totfact>
</mgrwt>
<clustering>
<clus scale="   30.852">  1  6  2 -1</clus>
<clus scale="  467.026">  4  5 -1 -1</clus>
<clus scale="  300.000">  1  4  2 -1</clus>
</clustering>
</event>
<event>
 6    1  0.9254630E-012  0.3000000E+03  0.7818608E-02  0.1093470E+00
          1   -1    0    0  502    0  0.00000000000E+00  0.00000000000E+00  0.22880086559E+03  0.22880086559E+03  0.00000000000E+00 0.  1.
         13   -1    0    0    0    0 -0.00000000000E+00 -0.00000000000E+00 -0.27500000000E+03  0.27500000000E+03  0.00000000000E+00 0.  1.
    9000005    2    1    2  501    0  0.23564645797E+02 -0.33924468073E+02 -0.39012327752E+02  0.46187459392E+03  0.45836668370E+03 0.  0.
         13    1    3    3    0    0 -0.19163555885E+03  0.65184602993E+02 -0.86687703806E+02  0.22019985894E+03  0.00000000000E+00 0.  1.
          3    1    3    3  501    0  0.21520020465E+03 -0.99109071066E+02  0.47675376055E+02  0.24167473499E+03  0.00000000000E+00 0.  1.
         21    1    1    2  502  501 -0.23564645797E+02  0.33924468073E+02 -0.71868066610E+01  0.41926271663E+02  0.00000000000E+00 0.  1.
<scales pt_clust_4="550.00000" pt_clust_5="550.00000" pt_clust_6="41.30574"></scales>
<mgrwt>
<rscale>  0 0.30000000E+03</rscale>
<asrwt>  1 0.41305735E+02</asrwt>
<pdfrwt beam="1">  1        1 0.83200315E+00 0.30000000E+03</pdfrwt>
<pdfrwt beam="2">0</pdfrwt>
<totfact> 0.55253354E-04</totfact>
</mgrwt>
<clustering>
<clus scale="   41.306">  1  6  2 -1</clus>
<clus scale="  458.367">  4  5 -1 -1</clus>
<clus scale="  300.000">  1  4  2 -1</clus>
</clustering>
</event>
<event>
 6    1  0.9254630E-012  0.3000000E+03  0.7818608E-02  0.1093470E+00
          1   -1    0    0  502    0  0.00000000000E+00  0.00000000000E+00  0.26998247306E+03  0.26998247306E+03  0.00000000000E+00 0.  1.
         13   -1    0    0    0    0 -0.00000000000E+00 -0.00000000000E+00 -0.27500000000E+03  0.27500000000E+03  0.00000000000E+00 0.  1.
    9000005    2    1    2  501    0  0.11555102696E+02  0.31055413331E+02 -0.61918797246E+02  0.47913633682E+03  0.47396174182E+03 0.  0.
         13    1    3    3    0    0 -0.89379983646E+01 -0.14349716467E+03 -0.20645552284E+03  0.25158538709E+03  0.00000000000E+00 0.  1.
          3    1    3    3  501    0  0.20493101060E+02  0.17455257801E+03  0.14453672559E+03  0.22755094973E+03  0.00000000000E+00 0.  1.
         21    1    1    2  502  501 -0.11555102696E+02 -0.31055413331E+02  0.56901270302E+02  0.65846136238E+02  0.00000000000E+00 0.  1.
<scales pt_clust_4="550.00000" pt_clust_5="550.00000" pt_clust_6="33.13547"></scales>
<mgrwt>
<rscale>  0 0.30000000E+03</rscale>
<asrwt>  1 0.33135466E+02</asrwt>
<pdfrwt beam="1">  1        1 0.98175445E+00 0.30000000E+03</pdfrwt>
<pdfrwt beam="2">0</pdfrwt>
<totfact> 0.24243647E-06</totfact>
</mgrwt>
<clustering>
<clus scale="   33.135">  1  6  2 -1</clus>
<clus scale="  473.962">  4  5 -1 -1</clus>
<clus scale="  300.000">  1  4  2 -1</clus>
</clustering>
</event>
<event>
 6    1  0.9254630E-012  0.3000000E+03  0.7818608E-02  0.1093470E+00
          1   -1    0    0  502    0  0.00000000000E+00  0.00000000000E+00  0.23927865324E+03  0.23927865324E+03  0.00000000000E+00 0.  1.
         13   -1    0    0    0    0 -0.00000000000E+00 -0.00000000000E+00 -0.27500000000E+03  0.27500000000E+03  0.00000000000E+00 0.  1.
    9000005    2    1    2  501    0 -0.43817527614E+02  0.21974045544E+02 -0.38397448213E+02  0.46518694393E+03  0.46100075311E+03 0.  0.
         13    1    3    3    0    0 -0.20029417717E+03  0.15581063242E+03 -0.51233845944E+02  0.25888147394E+03  0.00000000000E+00 0.  1.
          3    1    3    3  501    0  0.15647664955E+03 -0.13383658687E+03  0.12836397732E+02  0.20630546999E+03  0.00000000000E+00 0.  1.
         21    1    1    2  502  501  0.43817527614E+02 -0.21974045544E+02  0.26761014529E+01  0.49091709308E+02  0.00000000000E+00 0.  1.
<scales pt_clust_4="550.00000" pt_clust_5="550.00000" pt_clust_6="49.01871"></scales>
<mgrwt>
<rscale>  0 0.30000000E+03</rscale>
<asrwt>  1 0.49018715E+02</asrwt>
<pdfrwt beam="1">  1        1 0.87010419E+00 0.30000000E+03</pdfrwt>
<pdfrwt beam="2">0</pdfrwt>
<totfact> 0.23765653E-04</totfact>
</mgrwt>
<clustering>
<clus scale="   49.019">  1  6  2 -1</clus>
<clus scale="  461.001">  4  5 -1 -1</clus>
<clus scale="  300.000">  1  4  2 -1</clus>
</clustering>
</event>
<event>
 6    1  0.9254630E-012  0.3000000E+03  0.7818608E-02  0.1093470E+00
          1   -1    0    0  502    0  0.00000000000E+00  0.00000000000E+00  0.22278529017E+03  0.22278529017E+03  0.00000000000E+00 0.  1.
         13   -1    0    0    0    0 -0.00000000000E+00 -0.00000000000E+00 -0.27500000000E+03  0.27500000000E+03  0.00000000000E+00 0.  1.
    9000005    2    1    2  501    0 -0.36414582077E+02  0.58874477336E+01 -0.52852464450E+02  0.46089232932E+03  0.45636353097E+03 0.  0.
         13    1    3    3    0    0 -0.17371634794E+03  0.19750863962E+02  0.13984003838E+03  0.22388100076E+03  0.00000000000E+00 0.  1.
          1    1    3    3  501    0  0.13730176586E+03 -0.13863416228E+02 -0.19269250283E+03  0.23701132856E+03  0.00000000000E+00 0.  1.
         21    1    1    2  502  501  0.36414582077E+02 -0.58874477336E+01  0.63775461479E+00  0.36892960841E+02  0.00000000000E+00 0.  1.
<scales pt_clust_4="550.00000" pt_clust_5="550.00000" pt_clust_6="36.88745"></scales>
<mgrwt>
<rscale>  0 0.30000000E+03</rscale>
<asrwt>  1 0.36887448E+02</asrwt>
<pdfrwt beam="1">  1        1 0.81012833E+00 0.30000000E+03</pdfrwt>
<pdfrwt beam="2">0</pdfrwt>
<totfact> 0.86167160E-04</totfact>
</mgrwt>
<clustering>
<clus scale="   36.887">  1  6  2 -1</clus>
<clus scale="  456.364">  4  5 -1 -1</clus>
<clus scale="  300.000">  1  4  2 -1</clus>
</clustering>
</event>
<event>
 6    1  0.9254630E-012  0.3000000E+03  0.7818608E-02  0.1093470E+00
          1   -1    0    0  502    0  0.00000000000E+00  0.00000000000E+00  0.23826046170E+03  0.23826046170E+03  0.00000000000E+00 0.  1.
         13   -1    0    0    0    0 -0.00000000000E+00 -0.00000000000E+00 -0.27500000000E+03  0.27500000000E+03  0.00000000000E+00 0.  1.
    9000005    2    1    2  501    0  0.75601003361E+01 -0.31295228267E+02 -0.57012206897E+02  0.47521407526E+03  0.47068192992E+03 0.  0.
         13    1    3    3    0    0 -0.21027268237E+03 -0.11282118134E+03 -0.17245768134E+02  0.23925015450E+03  0.00000000000E+00 0.  1.
          3    1    3    3  501    0  0.21783278271E+03  0.81525953069E+02 -0.39766438763E+02  0.23596392076E+03  0.00000000000E+00 0.  1.
         21    1    1    2  502  501 -0.75601003361E+01  0.31295228267E+02  0.20272668595E+02  0.38046386443E+02  0.00000000000E+00 0.  1.
<scales pt_clust_4="550.00000" pt_clust_5="550.00000" pt_clust_6="32.19544"></scales>
<mgrwt>
<rscale>  0 0.30000000E+03</rscale>
<asrwt>  1 0.32195441E+02</asrwt>
<pdfrwt beam="1">  1        1 0.86640168E+00 0.30000000E+03</pdfrwt>
<pdfrwt beam="2">0</pdfrwt>
<totfact> 0.28038524E-04</totfact>
</mgrwt>
<clustering>
<clus scale="   32.195">  1  6  2 -1</clus>
<clus scale="  470.682">  4  5 -1 -1</clus>
<clus scale="  300.000">  1  4  2 -1</clus>
</clustering>
</event>
<event>
 6    1  0.9254630E-012  0.3000000E+03  0.7818608E-02  0.1093470E+00
          1   -1    0    0  502    0  0.00000000000E+00  0.00000000000E+00  0.23420963711E+03  0.23420963711E+03  0.00000000000E+00 0.  1.
         13   -1    0    0    0    0 -0.00000000000E+00 -0.00000000000E+00 -0.27500000000E+03  0.27500000000E+03  0.00000000000E+00 0.  1.
    9000005    2    1    2  501    0 -0.18444639866E+02  0.30252221880E+02 -0.25210601523E+02  0.47050394460E+03  0.46849011280E+03 0.  0.
         13    1    3    3    0    0  0.14887816405E+03 -0.15835600032E+03 -0.20680777370E+02  0.21833237305E+03  0.00000000000E+00 0.  1.
          1    1    3    3  501    0 -0.16732280392E+03  0.18860822220E+03 -0.45298241530E+01  0.25217157155E+03  0.00000000000E+00 0.  1.
         21    1    1    2  502  501  0.18444639866E+02 -0.30252221880E+02 -0.15579761366E+02  0.38705692510E+02  0.00000000000E+00 0.  1.
<scales pt_clust_4="550.00000" pt_clust_5="550.00000" pt_clust_6="35.43167"></scales>
<mgrwt>
<rscale>  0 0.30000000E+03</rscale>
<asrwt>  1 0.35431666E+02</asrwt>
<pdfrwt beam="1">  1        1 0.85167141E+00 0.30000000E+03</pdfrwt>
<pdfrwt beam="2">0</pdfrwt>
<totfact> 0.39152808E-04</totfact>
</mgrwt>
<clustering>
<clus scale="   35.432">  1  6  2 -1</clus>
<clus scale="  468.490">  4  5 -1 -1</clus>
<clus scale="  300.000">  1  4  2 -1</clus>
</clustering>
</event>
<event>
 6    1  0.9254630E-012  0.3000000E+03  0.7818608E-02  0.1093470E+00
          1   -1    0    0  502    0  0.00000000000E+00  0.00000000000E+00  0.22596134566E+03  0.22596134566E+03  0.00000000000E+00 0.  1.
         13   -1    0    0    0    0 -0.00000000000E+00 -0.00000000000E+00 -0.27500000000E+03  0.27500000000E+03  0.00000000000E+00 0.  1.
    9000005    2    1    2  501    0 -0.19578081473E+02  0.27514913572E+02 -0.65093271469E+02  0.46356986970E+03  0.45773302083E+03 0.  0.
         13    1    3    3    0    0 -0.92094753527E+02 -0.13409454143E+02  0.18113425037E+03  0.20364398775E+03  0.00000000000E+00 0.  1.
          1    1    3    3  501    0  0.72516672054E+02  0.40924367716E+02 -0.24622752184E+03  0.25992588196E+03  0.00000000000E+00 0.  1.
         21    1    1    2  502  501  0.19578081473E+02 -0.27514913572E+02  0.16054617126E+02  0.37391475955E+02  0.00000000000E+00 0.  1.
<scales pt_clust_4="550.00000" pt_clust_5="550.00000" pt_clust_6="33.76939"></scales>
<mgrwt>
<rscale>  0 0.30000000E+03</rscale>
<asrwt>  1 0.33769391E+02</asrwt>
<pdfrwt beam="1">  1        1 0.82167762E+00 0.30000000E+03</pdfrwt>
<pdfrwt beam="2">0</pdfrwt>
<totfact> 0.70395794E-04</totfact>
</mgrwt>
<clustering>
<clus scale="   33.769">  1  6  2 -1</clus>
<clus scale="  457.733">  4  5 -1 -1</clus>
<clus scale="  300.000">  1  4  2 -1</clus>
</clustering>
</event>
<event>
 6    1  0.9254630E-012  0.3000000E+03  0.7818608E-02  0.1093470E+00
          1   -1    0    0  502    0  0.00000000000E+00  0.00000000000E+00  0.23066701983E+03  0.23066701983E+03  0.00000000000E+00 0.  1.
         13   -1    0    0    0    0 -0.00000000000E+00 -0.00000000000E+00 -0.27500000000E+03  0.27500000000E+03  0.00000000000E+00 0.  1.
    9000005    2    1    2  501    0  0.63931866801E+00  0.36103828266E+02 -0.56280418167E+02  0.46763234594E+03  0.46282678223E+03 0.  0.
         13    1    3    3    0    0 -0.30181330091E+02 -0.11466119736E+03  0.16188213873E+03  0.20065873942E+03  0.00000000000E+00 0.  1.
          1    1    3    3  501    0  0.30820648759E+02  0.15076502562E+03 -0.21816255690E+03  0.26697360651E+03  0.00000000000E+00 0.  1.
         21    1    1    2  502  501 -0.63931866801E+00 -0.36103828266E+02  0.11947438001E+02  0.38034673899E+02  0.00000000000E+00 0.  1.
<scales pt_clust_4="550.00000" pt_clust_5="550.00000" pt_clust_6="36.10949"></scales>
<mgrwt>
<rscale>  0 0.30000000E+03</rscale>
<asrwt>  1 0.36109488E+02</asrwt>
<pdfrwt beam="1">  1        1 0.83878916E+00 0.30000000E+03</pdfrwt>
<pdfrwt beam="2">0</pdfrwt>
<totfact> 0.50466677E-04</totfact>
</mgrwt>
<clustering>
<clus scale="   36.109">  1  6  2 -1</clus>
<clus scale="  462.827">  4  5 -1 -1</clus>
<clus scale="  300.000">  1  4  2 -1</clus>
</clustering>
</event>
<event>
 6    1  0.9254630E-012  0.3000000E+03  0.7818608E-02  0.1093470E+00
          1   -1    0    0  502    0  0.00000000000E+00  0.00000000000E+00  0.23766453048E+03  0.23766453048E+03  0.00000000000E+00 0.  1.
         13   -1    0    0    0    0 -0.00000000000E+00 -0.00000000000E+00 -0.27500000000E+03  0.27500000000E+03  0.00000000000E+00 0.  1.
    9000005    2    1    2  501    0 -0.28343324524E+02  0.17124715904E+02 -0.40291216201E+02  0.47941793098E+03  0.47657273370E+03 0.  0.
         13    1    3    3    0    0  0.31379592231E+02 -0.10702778681E+03  0.18460253280E+03  0.21567967237E+03  0.00000000000E+00 0.  1.
          3    1    3    3  501    0 -0.59722916755E+02  0.12415250272E+03 -0.22489374900E+03  0.26373825861E+03  0.00000000000E+00 0.  1.
         21    1    1    2  502  501  0.28343324524E+02 -0.17124715904E+02  0.29557466821E+01  0.33246599500E+02  0.00000000000E+00 0.  1.
<scales pt_clust_4="550.00000" pt_clust_5="550.00000" pt_clust_6="33.11495"></scales>
<mgrwt>
<rscale>  0 0.30000000E+03</rscale>
<asrwt>  1 0.33114950E+02</asrwt>
<pdfrwt beam="1">  1        1 0.86423466E+00 0.30000000E+03</pdfrwt>
<pdfrwt beam="2">0</pdfrwt>
<totfact> 0.29422874E-04</totfact>
</mgrwt>
<clustering>
<clus scale="   33.115">  1  6  2 -1</clus>
<clus scale="  476.573">  4  5 -1 -1</clus>
<clus scale="  300.000">  1  4  2 -1</clus>
</clustering>
</event>
<event>
 6    1  0.9254630E-012  0.3000000E+03  0.7818608E-02  0.1093470E+00
          1   -1    0    0  502    0  0.00000000000E+00  0.00000000000E+00  0.22126686356E+03  0.22126686356E+03  0.00000000000E+00 0.  1.
         13   -1    0    0    0    0 -0.00000000000E+00 -0.00000000000E+00 -0.27500000000E+03  0.27500000000E+03  0.00000000000E+00 0.  1.
    9000005    2    1    2  501    0  0.34681190510E+02 -0.26676560041E+01 -0.49368373453E+02  0.46121044447E+03  0.45723947383E+03 0.  0.
         13    1    3    3    0    0  0.66674289060E+02  0.17498923406E+03  0.11274890933E+03  0.21858410147E+03  0.00000000000E+00 0.  1.
          3    1    3    3  501    0 -0.31993098550E+02 -0.17765689007E+03 -0.16211728278E+03  0.24262634300E+03  0.00000000000E+00 0.  1.
         21    1    1    2  502  501 -0.34681190510E+02  0.26676560041E+01 -0.43647629844E+01  0.35056419094E+02  0.00000000000E+00 0.  1.
<scales pt_clust_4="550.00000" pt_clust_5="550.00000" pt_clust_6="34.78365"></scales>
<mgrwt>
<rscale>  0 0.30000000E+03</rscale>
<asrwt>  1 0.34783654E+02</asrwt>
<pdfrwt beam="1">  1        1 0.80460678E+00 0.30000000E+03</pdfrwt>
<pdfrwt beam="2">0</pdfrwt>
<totfact> 0.96059055E-04</totfact>
</mgrwt>
<clustering>
<clus scale="   34.784">  1  6  2 -1</clus>
<clus scale="  457.239">  4  5 -1 -1</clus>
<clus scale="  300.000">  1  4  2 -1</clus>
</clustering>
</event>
<event>
 6    1  0.9254630E-012  0.3000000E+03  0.7818608E-02  0.1093470E+00
          1   -1    0    0  502    0  0.00000000000E+00  0.00000000000E+00  0.23116248788E+03  0.23116248788E+03  0.00000000000E+00 0.  1.
         13   -1    0    0    0    0 -0.00000000000E+00 -0.00000000000E+00 -0.27500000000E+03  0.27500000000E+03  0.00000000000E+00 0.  1.
    9000005    2    1    2  501    0 -0.34012283144E+02 -0.80601321927E+01 -0.37994258921E+02  0.47072317717E+03  0.46788347340E+03 0.  0.
         13    1    3    3    0    0  0.64317797015E+02  0.34896938939E+02  0.19821112116E+03  0.21128706518E+03  0.00000000000E+00 0.  1.
          3    1    3    3  501    0 -0.98330080160E+02 -0.42957071132E+02 -0.23620538008E+03  0.25943611199E+03  0.00000000000E+00 0.  1.
         21    1    1    2  502  501  0.34012283144E+02  0.80601321927E+01 -0.58432532002E+01  0.35439310710E+02  0.00000000000E+00 0. -1.
<scales pt_clust_4="550.00000" pt_clust_5="550.00000" pt_clust_6="34.95429"></scales>
<mgrwt>
<rscale>  0 0.30000000E+03</rscale>
<asrwt>  1 0.34954290E+02</asrwt>
<pdfrwt beam="1">  1        1 0.84059087E+00 0.30000000E+03</pdfrwt>
<pdfrwt beam="2">0</pdfrwt>
<totfact> 0.49195282E-04</totfact>
</mgrwt>
<clustering>
<clus scale="   34.954">  1  6  2 -1</clus>
<clus scale="  467.883">  4  5 -1 -1</clus>
<clus scale="  300.000">  1  4  2 -1</clus>
</clustering>
</event>
<event>
 6    1  0.9254630E-012  0.3000000E+03  0.7818608E-02  0.1093470E+00
          1   -1    0    0  502    0  0.00000000000E+00  0.00000000000E+00  0.23881975620E+03  0.23881975620E+03  0.00000000000E+00 0.  1.
         13   -1    0    0    0    0 -0.00000000000E+00 -0.00000000000E+00 -0.27500000000E+03  0.27500000000E+03  0.00000000000E+00 0.  1.
    9000005    2    1    2  501    0 -0.31185680345E+02  0.11291020449E+02 -0.72634322997E+02  0.46453554279E+03  0.45762155963E+03 0.  0.
         13    1    3    3    0    0  0.17320699880E+03 -0.78257392311E+02  0.66734309181E+02  0.20144069079E+03  0.00000000000E+00 0.  1.
          3    1    3    3  501    0 -0.20439267914E+03  0.89548412760E+02 -0.13936863218E+03  0.26309485200E+03  0.00000000000E+00 0.  1.
         21    1    1    2  502  501  0.31185680345E+02 -0.11291020449E+02  0.36454079201E+02  0.49284213413E+02  0.00000000000E+00 0. -1.
<scales pt_clust_4="550.00000" pt_clust_5="550.00000" pt_clust_6="33.16676"></scales>
<mgrwt>
<rscale>  0 0.30000000E+03</rscale>
<asrwt>  1 0.33166757E+02</asrwt>
<pdfrwt beam="1">  1        1 0.86843548E+00 0.30000000E+03</pdfrwt>
<pdfrwt beam="2">0</pdfrwt>
<totfact> 0.26547380E-04</totfact>
</mgrwt>
<clustering>
<clus scale="   33.167">  1  6  2 -1</clus>
<clus scale="  457.622">  4  5 -1 -1</clus>
<clus scale="  300.000">  1  4  2 -1</clus>
</clustering>
</event>
<event>
 6    1  0.9254630E-012  0.3000000E+03  0.7818608E-02  0.1093470E+00
          1   -1    0    0  502    0  0.00000000000E+00  0.00000000000E+00  0.24247705472E+03  0.24247705472E+03  0.00000000000E+00 0.  1.
         13   -1    0    0    0    0 -0.00000000000E+00 -0.00000000000E+00 -0.27500000000E+03  0.27500000000E+03  0.00000000000E+00 0.  1.
    9000005    2    1    2  501    0  0.10401428934E+02  0.30184369285E+02 -0.42864381666E+02  0.48391768673E+03  0.48095705260E+03 0.  0.
         13    1    3    3    0    0 -0.10486093409E+03 -0.19496649149E+03  0.22929658574E+02  0.22256126694E+03  0.00000000000E+00 0.  1.
          3    1    3    3  501    0  0.11526236302E+03  0.22515086077E+03 -0.65794040239E+02  0.26135641979E+03  0.00000000000E+00 0.  1.
         21    1    1    2  502  501 -0.10401428934E+02 -0.30184369285E+02  0.10341436383E+02  0.33559367983E+02  0.00000000000E+00 0.  1.
<scales pt_clust_4="550.00000" pt_clust_5="550.00000" pt_clust_6="31.92626"></scales>
<mgrwt>
<rscale>  0 0.30000000E+03</rscale>
<asrwt>  1 0.31926257E+02</asrwt>
<pdfrwt beam="1">  1        1 0.88173474E+00 0.30000000E+03</pdfrwt>
<pdfrwt beam="2">0</pdfrwt>
<totfact> 0.19093887E-04</totfact>
</mgrwt>
<clustering>
<clus scale="   31.926">  1  6  2 -1</clus>
<clus scale="  480.957">  4  5 -1 -1</clus>
<clus scale="  300.000">  1  4  2 -1</clus>
</clustering>
</event>
<event>
 6    1  0.9254630E-012  0.3000000E+03  0.7818608E-02  0.1093470E+00
          1   -1    0    0  502    0  0.00000000000E+00  0.00000000000E+00  0.23488409988E+03  0.23488409988E+03  0.00000000000E+00 0.  1.
         13   -1    0    0    0    0 -0.00000000000E+00 -0.00000000000E+00 -0.27500000000E+03  0.27500000000E+03  0.00000000000E+00 0.  1.
    9000005    2    1    2  501    0 -0.31758266548E+02 -0.21808093705E+02 -0.64553416521E+02  0.46426203665E+03  0.45813525803E+03 0.  0.
         13    1    3    3    0    0  0.20920814525E+03 -0.12270986898E+02 -0.75774267985E+02  0.22284605639E+03  0.00000000000E+00 0.  1.
          1    1    3    3  501    0 -0.24096641180E+03 -0.95371068068E+01  0.11220851464E+02  0.24141598027E+03  0.00000000000E+00 0.  1.
         21    1    1    2  502  501  0.31758266548E+02  0.21808093705E+02  0.24437516398E+02  0.45622063224E+02  0.00000000000E+00 0. -1.
<scales pt_clust_4="550.00000" pt_clust_5="550.00000" pt_clust_6="38.52506"></scales>
<mgrwt>
<rscale>  0 0.30000000E+03</rscale>
<asrwt>  1 0.38525063E+02</asrwt>
<pdfrwt beam="1">  1        1 0.85412400E+00 0.30000000E+03</pdfrwt>
<pdfrwt beam="2">0</pdfrwt>
<totfact> 0.36507593E-04</totfact>
</mgrwt>
<clustering>
<clus scale="   38.525">  1  6  2 -1</clus>
<clus scale="  458.135">  4  5 -1 -1</clus>
<clus scale="  300.000">  1  4  2 -1</clus>
</clustering>
</event>
<event>
 6    1  0.9254630E-012  0.3000000E+03  0.7818608E-02  0.1093470E+00
          1   -1    0    0  502    0  0.00000000000E+00  0.00000000000E+00  0.24028152642E+03  0.24028152642E+03  0.00000000000E+00 0.  1.
         13   -1    0    0    0    0 -0.00000000000E+00 -0.00000000000E+00 -0.27500000000E+03  0.27500000000E+03  0.00000000000E+00 0.  1.
    9000005    2    1    2  501    0 -0.30941571998E+02 -0.60153328614E+01 -0.32032798575E+02  0.48364645162E+03  0.48155396881E+03 0.  0.
         13    1    3    3    0    0  0.83438648079E+02 -0.13839781927E+03  0.15753601438E+03  0.22568464768E+03  0.00000000000E+00 0.  1.
          1    1    3    3  501    0 -0.11438022008E+03  0.13238248640E+03 -0.18956881295E+03  0.25796180395E+03  0.00000000000E+00 0.  1.
         21    1    1    2  502  501  0.30941571998E+02  0.60153328614E+01 -0.26856750047E+01  0.31635074796E+02  0.00000000000E+00 0. -1.
<scales pt_clust_4="550.00000" pt_clust_5="550.00000" pt_clust_6="31.52088"></scales>
<mgrwt>
<rscale>  0 0.30000000E+03</rscale>
<asrwt>  1 0.31520884E+02</asrwt>
<pdfrwt beam="1">  1        1 0.87375101E+00 0.30000000E+03</pdfrwt>
<pdfrwt beam="2">0</pdfrwt>
<totfact> 0.23643169E-04</totfact>
</mgrwt>
<clustering>
<clus scale="   31.521">  1  6  2 -1</clus>
<clus scale="  481.554">  4  5 -1 -1</clus>
<clus scale="  300.000">  1  4  2 -1</clus>
</clustering>
</event>
<event>
 6    1  0.9254630E-012  0.3000000E+03  0.7818608E-02  0.1093470E+00
          1   -1    0    0  502    0  0.00000000000E+00  0.00000000000E+00  0.26725262222E+03  0.26725262222E+03  0.00000000000E+00 0.  1.
         13   -1    0    0    0    0 -0.00000000000E+00 -0.00000000000E+00 -0.27500000000E+03  0.27500000000E+03  0.00000000000E+00 0.  1.
    9000005    2    1    2  501    0  0.26207119062E+02 -0.22042133305E+02 -0.32238011776E+02  0.50015202978E+03  0.49793583398E+03 0.  0.
         13    1    3    3    0    0  0.12768943865E+03 -0.13021109102E+03  0.17002445359E+03  0.24933478656E+03  0.00000000000E+00 0.  1.
          1    1    3    3  501    0 -0.10148231959E+03  0.10816895771E+03 -0.20226246537E+03  0.25081724323E+03  0.00000000000E+00 0.  1.
         21    1    1    2  502  501 -0.26207119062E+02  0.22042133305E+02  0.24490633994E+02  0.42100592438E+02  0.00000000000E+00 0.  1.
<scales pt_clust_4="550.00000" pt_clust_5="550.00000" pt_clust_6="34.24425"></scales>
<mgrwt>
<rscale>  0 0.30000000E+03</rscale>
<asrwt>  1 0.34244251E+02</asrwt>
<pdfrwt beam="1">  1        1 0.97182772E+00 0.30000000E+03</pdfrwt>
<pdfrwt beam="2">0</pdfrwt>
<totfact> 0.46724532E-06</totfact>
</mgrwt>
<clustering>
<clus scale="   34.244">  1  6  2 -1</clus>
<clus scale="  497.936">  4  5 -1 -1</clus>
<clus scale="  300.000">  1  4  2 -1</clus>
</clustering>
</event>
<event>
 6    1  0.9254630E-012  0.3000000E+03  0.7818608E-02  0.1093470E+00
          1   -1    0    0  502    0  0.00000000000E+00  0.00000000000E+00  0.25577629962E+03  0.25577629962E+03  0.00000000000E+00 0.  1.
         13   -1    0    0    0    0 -0.00000000000E+00 -0.00000000000E+00 -0.27500000000E+03  0.27500000000E+03  0.00000000000E+00 0.  1.
    9000005    2    1    2  501    0  0.10383904801E+02 -0.33653346440E+02 -0.45786797064E+02  0.48666313479E+03  0.48322272585E+03 0.  0.
         13    1    3    3    0    0 -0.39509892065E+02  0.13919939322E+03 -0.20194562261E+03  0.24843417062E+03  0.00000000000E+00 0.  1.
          1    1    3    3  501    0  0.49893796866E+02 -0.17285273966E+03  0.15615882554E+03  0.23822896417E+03  0.00000000000E+00 0.  1.
         21    1    1    2  502  501 -0.10383904801E+02  0.33653346440E+02  0.26563096681E+02  0.44113164824E+02  0.00000000000E+00 0.  1.
<scales pt_clust_4="550.00000" pt_clust_5="550.00000" pt_clust_6="35.21893"></scales>
<mgrwt>
<rscale>  0 0.30000000E+03</rscale>
<asrwt>  1 0.35218932E+02</asrwt>
<pdfrwt beam="1">  1        1 0.93009563E+00 0.30000000E+03</pdfrwt>
<pdfrwt beam="2">0</pdfrwt>
<totfact> 0.26170210E-05</totfact>
</mgrwt>
<clustering>
<clus scale="   35.219">  1  6  2 -1</clus>
<clus scale="  483.223">  4  5 -1 -1</clus>
<clus scale="  300.000">  1  4  2 -1</clus>
</clustering>
</event>
<event>
 6    1  0.9254630E-012  0.3000000E+03  0.7818608E-02  0.1093470E+00
          1   -1    0    0  502    0  0.00000000000E+00  0.00000000000E+00  0.23361377655E+03  0.23361377655E+03  0.00000000000E+00 0.  1.
         13   -1    0    0    0    0 -0.00000000000E+00 -0.00000000000E+00 -0.27500000000E+03  0.27500000000E+03  0.00000000000E+00 0.  1.
    9000005    2    1    2  501    0 -0.15556977792E+02 -0.27011888505E+02 -0.45811299972E+02  0.47712976504E+03  0.47390133552E+03 0.  0.
         13    1    3    3    0    0 -0.96953692834E+02  0.16827562389E+03 -0.14606648270E+03  0.24300642280E+03  0.00000000000E+00 0.  1.
          1    1    3    3  501    0  0.81396715042E+02 -0.19528751240E+03  0.10025518273E+03  0.23412334224E+03  0.00000000000E+00 0.  1.
         21    1    1    2  502  501  0.15556977792E+02  0.27011888505E+02  0.44250765256E+01  0.31484011512E+02  0.00000000000E+00 0. -1.
<scales pt_clust_4="550.00000" pt_clust_5="550.00000" pt_clust_6="31.17149"></scales>
<mgrwt>
<rscale>  0 0.30000000E+03</rscale>
<asrwt>  1 0.31171488E+02</asrwt>
<pdfrwt beam="1">  1        1 0.84950464E+00 0.30000000E+03</pdfrwt>
<pdfrwt beam="2">0</pdfrwt>
<totfact> 0.42046209E-04</totfact>
</mgrwt>
<clustering>
<clus scale="   31.171">  1  6  2 -1</clus>
<clus scale="  473.901">  4  5 -1 -1</clus>
<clus scale="  300.000">  1  4  2 -1</clus>
</clustering>
</event>
<event>
 6    1  0.9254630E-012  0.3000000E+03  0.7818608E-02  0.1093470E+00
          1   -1    0    0  502    0  0.00000000000E+00  0.00000000000E+00  0.24083528017E+03  0.24083528017E+03  0.00000000000E+00 0.  1.
         13   -1    0    0    0    0 -0.00000000000E+00 -0.00000000000E+00 -0.27500000000E+03  0.27500000000E+03  0.00000000000E+00 0.  1.
    9000005    2    1    2  501    0  0.33891393396E+01  0.37492105845E+02 -0.66655113131E+02  0.46610832648E+03  0.45977921185E+03 0.  0.
         13    1    3    3    0    0  0.22798957730E+03  0.43308436838E+02 -0.11179328154E+01  0.23206920915E+03  0.00000000000E+00 0.  1.
          1    1    3    3  501    0 -0.22460043796E+03 -0.58163309929E+01 -0.65537180316E+02  0.23403911734E+03  0.00000000000E+00 0.  1.
         21    1    1    2  502  501 -0.33891393396E+01 -0.37492105845E+02  0.32490393304E+02  0.49726953689E+02  0.00000000000E+00 0. -1.
<scales pt_clust_4="550.00000" pt_clust_5="550.00000" pt_clust_6="37.64498"></scales>
<mgrwt>
<rscale>  0 0.30000000E+03</rscale>
<asrwt>  1 0.37644977E+02</asrwt>
<pdfrwt beam="1">  1        1 0.87576466E+00 0.30000000E+03</pdfrwt>
<pdfrwt beam="2">0</pdfrwt>
<totfact> 0.21777569E-04</totfact>
</mgrwt>
<clustering>
<clus scale="   37.645">  1  6  2 -1</clus>
<clus scale="  459.779">  4  5 -1 -1</clus>
<clus scale="  300.000">  1  4  2 -1</clus>
</clustering>
</event>
<event>
 6    1  0.9254630E-012  0.3000000E+03  0.7818608E-02  0.1093470E+00
          1   -1    0    0  502    0  0.00000000000E+00  0.00000000000E+00  0.23418325752E+03  0.23418325752E+03  0.00000000000E+00 0.  1.
         13   -1    0    0    0    0 -0.00000000000E+00 -0.00000000000E+00 -0.27500000000E+03  0.27500000000E+03  0.00000000000E+00 0.  1.
    9000005    2    1    2  501    0 -0.19396041569E+02  0.29611541782E+02 -0.55858206882E+02  0.47072164697E+03  0.46605330147E+03 0.  0.
         13    1    3    3    0    0 -0.12417547450E+03 -0.47747902741E+02  0.16644142558E+03  0.21307782342E+03  0.00000000000E+00 0.  1.
          3    1    3    3  501    0  0.10477943293E+03  0.77359444523E+02 -0.22229963246E+03  0.25764382355E+03  0.00000000000E+00 0.  1.
         21    1    1    2  502  501  0.19396041569E+02 -0.29611541782E+02  0.15041464406E+02  0.38461610558E+02  0.00000000000E+00 0. -1.
<scales pt_clust_4="550.00000" pt_clust_5="550.00000" pt_clust_6="35.39844"></scales>
<mgrwt>
<rscale>  0 0.30000000E+03</rscale>
<asrwt>  1 0.35398444E+02</asrwt>
<pdfrwt beam="1">  1        1 0.85157548E+00 0.30000000E+03</pdfrwt>
<pdfrwt beam="2">0</pdfrwt>
<totfact> 0.39242281E-04</totfact>
</mgrwt>
<clustering>
<clus scale="   35.398">  1  6  2 -1</clus>
<clus scale="  466.053">  4  5 -1 -1</clus>
<clus scale="  300.000">  1  4  2 -1</clus>
</clustering>
</event>
<event>
 6    1  0.9254630E-012  0.3000000E+03  0.7818608E-02  0.1093470E+00
          1   -1    0    0  502    0  0.00000000000E+00  0.00000000000E+00  0.22977145894E+03  0.22977145894E+03  0.00000000000E+00 0.  1.
         13   -1    0    0    0    0 -0.00000000000E+00 -0.00000000000E+00 -0.27500000000E+03  0.27500000000E+03  0.00000000000E+00 0.  1.
    9000005    2    1    2  501    0  0.33127459755E+02  0.97075696423E+01 -0.56474477804E+02  0.46846530807E+03  0.46376579512E+03 0.  0.
         13    1    3    3    0    0  0.22842899064E+03 -0.14935762031E+02 -0.12401468524E+03  0.26035076898E+03  0.00000000000E+00 0.  1.
          3    1    3    3  501    0 -0.19530153088E+03  0.24643331674E+02  0.67540207438E+02  0.20811453909E+03  0.00000000000E+00 0.  1.
         21    1    1    2  502  501 -0.33127459755E+02 -0.97075696423E+01  0.11245936748E+02  0.36306150878E+02  0.00000000000E+00 0. -1.
<scales pt_clust_4="550.00000" pt_clust_5="550.00000" pt_clust_6="34.52051"></scales>
<mgrwt>
<rscale>  0 0.30000000E+03</rscale>
<asrwt>  1 0.34520508E+02</asrwt>
<pdfrwt beam="1">  1        1 0.83553258E+00 0.30000000E+03</pdfrwt>
<pdfrwt beam="2">0</pdfrwt>
<totfact> 0.53756697E-04</totfact>
</mgrwt>
<clustering>
<clus scale="   34.521">  1  6  2 -1</clus>
<clus scale="  463.766">  4  5 -1 -1</clus>
<clus scale="  300.000">  1  4  2 -1</clus>
</clustering>
</event>
<event>
 6    1  0.9254630E-012  0.3000000E+03  0.7818608E-02  0.1093470E+00
          1   -1    0    0  502    0  0.00000000000E+00  0.00000000000E+00  0.22287893574E+03  0.22287893574E+03  0.00000000000E+00 0.  1.
         13   -1    0    0    0    0 -0.00000000000E+00 -0.00000000000E+00 -0.27500000000E+03  0.27500000000E+03  0.00000000000E+00 0.  1.
    9000005    2    1    2  501    0 -0.32162383171E+02  0.60711918912E+01 -0.51883308618E+02  0.46514768477E+03  0.46108482156E+03 0.  0.
         13    1    3    3    0    0  0.19592374569E+03  0.88269660216E+02 -0.58158503682E+02  0.22262088534E+03  0.00000000000E+00 0.  1.
          1    1    3    3  501    0 -0.22808612886E+03 -0.82198468324E+02  0.62751950642E+01  0.24252679944E+03  0.00000000000E+00 0.  1.
         21    1    1    2  502  501  0.32162383171E+02 -0.60711918912E+01 -0.23775564014E+00  0.32731250968E+02  0.00000000000E+00 0. -1.
<scales pt_clust_4="550.00000" pt_clust_5="550.00000" pt_clust_6="32.73039"></scales>
<mgrwt>
<rscale>  0 0.30000000E+03</rscale>
<asrwt>  1 0.32730387E+02</asrwt>
<pdfrwt beam="1">  1        1 0.81046886E+00 0.30000000E+03</pdfrwt>
<pdfrwt beam="2">0</pdfrwt>
<totfact> 0.87580549E-04</totfact>
</mgrwt>
<clustering>
<clus scale="   32.730">  1  6  2 -1</clus>
<clus scale="  461.085">  4  5 -1 -1</clus>
<clus scale="  300.000">  1  4  2 -1</clus>
</clustering>
</event>
<event>
 6    1  0.9254630E-012  0.3000000E+03  0.7818608E-02  0.1093470E+00
          1   -1    0    0  502    0  0.00000000000E+00  0.00000000000E+00  0.24055893149E+03  0.24055893149E+03  0.00000000000E+00 0.  1.
         13   -1    0    0    0    0 -0.00000000000E+00 -0.00000000000E+00 -0.27500000000E+03  0.27500000000E+03  0.00000000000E+00 0.  1.
    9000005    2    1    2  501    0 -0.38183394610E+02  0.13937535315E+02 -0.45597343369E+02  0.47340814285E+03  0.46945066352E+03 0.  0.
         13    1    3    3    0    0 -0.22297832752E+03 -0.10968509617E+03 -0.14587916908E+02  0.24892360713E+03  0.00000000000E+00 0.  1.
          3    1    3    3  501    0  0.18479493291E+03  0.12362263149E+03 -0.31009426461E+02  0.22448453572E+03  0.00000000000E+00 0.  1.
         21    1    1    2  502  501  0.38183394610E+02 -0.13937535315E+02  0.11156274862E+02  0.42150788645E+02  0.00000000000E+00 0.  1.
<scales pt_clust_4="550.00000" pt_clust_5="550.00000" pt_clust_6="40.64759"></scales>
<mgrwt>
<rscale>  0 0.30000000E+03</rscale>
<asrwt>  1 0.40647589E+02</asrwt>
<pdfrwt beam="1">  1        1 0.87475975E+00 0.30000000E+03</pdfrwt>
<pdfrwt beam="2">0</pdfrwt>
<totfact> 0.22008645E-04</totfact>
</mgrwt>
<clustering>
<clus scale="   40.648">  1  6  2 -1</clus>
<clus scale="  469.451">  4  5 -1 -1</clus>
<clus scale="  300.000">  1  4  2 -1</clus>
</clustering>
</event>
<event>
 6    1  0.9254630E-012  0.3000000E+03  0.7818608E-02  0.1093470E+00
          1   -1    0    0  502    0  0.00000000000E+00  0.00000000000E+00  0.24136130130E+03  0.24136130130E+03  0.00000000000E+00 0.  1.
         13   -1    0    0    0    0 -0.00000000000E+00 -0.00000000000E+00 -0.27500000000E+03  0.27500000000E+03  0.00000000000E+00 0.  1.
    9000005    2    1    2  501    0 -0.27835419511E+02  0.28000075033E+02 -0.66548814826E+02  0.46496197714E+03  0.45847800454E+03 0.  0.
         13    1    3    3    0    0 -0.10616124737E+03  0.22464322649E+03 -0.32815257939E+02  0.25062248664E+03  0.00000000000E+00 0.  1.
          3    1    3    3  501    0  0.78325827863E+02 -0.19664315146E+03 -0.33733556887E+02  0.21433949050E+03  0.00000000000E+00 0.  1.
         21    1    1    2  502  501  0.27835419511E+02 -0.28000075033E+02  0.32910116126E+02  0.51399324165E+02  0.00000000000E+00 0. -1.
<scales pt_clust_4="550.00000" pt_clust_5="550.00000" pt_clust_6="39.48183"></scales>
<mgrwt>
<rscale>  0 0.30000000E+03</rscale>
<asrwt>  1 0.39481828E+02</asrwt>
<pdfrwt beam="1">  1        1 0.87767746E+00 0.30000000E+03</pdfrwt>
<pdfrwt beam="2">0</pdfrwt>
<totfact> 0.20564102E-04</totfact>
</mgrwt>
<clustering>
<clus scale="   39.482">  1  6  2 -1</clus>
<clus scale="  458.478">  4  5 -1 -1</clus>
<clus scale="  300.000">  1  4  2 -1</clus>
</clustering>
</event>
<event>
 6    1  0.9254630E-012  0.3000000E+03  0.7818608E-02  0.1093470E+00
          1   -1    0    0  502    0  0.00000000000E+00  0.00000000000E+00  0.23695110954E+03  0.23695110954E+03  0.00000000000E+00 0.  1.
         13   -1    0    0    0    0 -0.00000000000E+00 -0.00000000000E+00 -0.27500000000E+03  0.27500000000E+03  0.00000000000E+00 0.  1.
    9000005    2    1    2  501    0  0.15327806185E+02 -0.32822258073E+02 -0.40679041616E+02  0.47563086777E+03  0.47250152981E+03 0.  0.
         13    1    3    3    0    0  0.12180933283E+02 -0.25393019157E+02 -0.25731150965E+03  0.25884820562E+03  0.00000000000E+00 0.  1.
          3    1    3    3  501    0  0.31468729019E+01 -0.74292389166E+01  0.21663246803E+03  0.21678266214E+03  0.00000000000E+00 0.  1.
         21    1    1    2  502  501 -0.15327806185E+02  0.32822258073E+02  0.26301511568E+01  0.36320241775E+02  0.00000000000E+00 0.  1.
<scales pt_clust_4="550.00000" pt_clust_5="550.00000" pt_clust_6="36.22488"></scales>
<mgrwt>
<rscale>  0 0.30000000E+03</rscale>
<asrwt>  1 0.36224885E+02</asrwt>
<pdfrwt beam="1">  1        1 0.86164040E+00 0.30000000E+03</pdfrwt>
<pdfrwt beam="2">0</pdfrwt>
<totfact> 0.30862575E-04</totfact>
</mgrwt>
<clustering>
<clus scale="   36.225">  1  6  2 -1</clus>
<clus scale="  472.502">  4  5 -1 -1</clus>
<clus scale="  300.000">  1  4  2 -1</clus>
</clustering>
</event>
<event>
 6    1  0.9254630E-012  0.3000000E+03  0.7818608E-02  0.1093470E+00
          1   -1    0    0  502    0  0.00000000000E+00  0.00000000000E+00  0.22574185706E+03  0.22574185706E+03  0.00000000000E+00 0.  1.
         13   -1    0    0    0    0 -0.00000000000E+00 -0.00000000000E+00 -0.27500000000E+03  0.27500000000E+03  0.00000000000E+00 0.  1.
    9000005    2    1    2  501    0  0.29626497470E+02 -0.51129235338E+01 -0.62709257018E+02  0.46780549707E+03  0.46260745869E+03 0.  0.
         13    1    3    3    0    0  0.20719241474E+03 -0.13141735144E+03 -0.41929471287E+02  0.24891222860E+03  0.00000000000E+00 0.  1.
          3    1    3    3  501    0 -0.17756591727E+03  0.12630442791E+03 -0.20779785731E+02  0.21889326847E+03  0.00000000000E+00 0.  1.
         21    1    1    2  502  501 -0.29626497470E+02  0.51129235338E+01  0.13451114075E+02  0.32936359988E+02  0.00000000000E+00 0.  1.
<scales pt_clust_4="550.00000" pt_clust_5="550.00000" pt_clust_6="30.06445"></scales>
<mgrwt>
<rscale>  0 0.30000000E+03</rscale>
<asrwt>  1 0.30064453E+02</asrwt>
<pdfrwt beam="1">  1        1 0.82087948E+00 0.30000000E+03</pdfrwt>
<pdfrwt beam="2">0</pdfrwt>
<totfact> 0.73143820E-04</totfact>
</mgrwt>
<clustering>
<clus scale="   30.064">  1  6  2 -1</clus>
<clus scale="  462.607">  4  5 -1 -1</clus>
<clus scale="  300.000">  1  4  2 -1</clus>
</clustering>
</event>
<event>
 6    1  0.9254630E-012  0.3000000E+03  0.7818608E-02  0.1093470E+00
          1   -1    0    0  502    0  0.00000000000E+00  0.00000000000E+00  0.24566270576E+03  0.24566270576E+03  0.00000000000E+00 0.  1.
         13   -1    0    0    0    0 -0.00000000000E+00 -0.00000000000E+00 -0.27500000000E+03  0.27500000000E+03  0.00000000000E+00 0.  1.
    9000005    2    1    2  501    0  0.24003221853E+02 -0.32212438664E+02 -0.34862499477E+02  0.48011244366E+03  0.47715696455E+03 0.  0.
         13    1    3    3    0    0  0.14495694128E+03  0.40929790325E+02 -0.20786928196E+03  0.25670489077E+03  0.00000000000E+00 0.  1.
          1    1    3    3  501    0 -0.12095371943E+03 -0.73142228989E+02  0.17300678248E+03  0.22340755289E+03  0.00000000000E+00 0.  1.
         21    1    1    2  502  501 -0.24003221853E+02  0.32212438664E+02  0.55252052411E+01  0.40550262108E+02  0.00000000000E+00 0. -1.
<scales pt_clust_4="550.00000" pt_clust_5="550.00000" pt_clust_6="40.17208"></scales>
<mgrwt>
<rscale>  0 0.30000000E+03</rscale>
<asrwt>  1 0.40172078E+02</asrwt>
<pdfrwt beam="1">  1        1 0.89331893E+00 0.30000000E+03</pdfrwt>
<pdfrwt beam="2">0</pdfrwt>
<totfact> 0.12847395E-04</totfact>
</mgrwt>
<clustering>
<clus scale="   40.172">  1  6  2 -1</clus>
<clus scale="  477.157">  4  5 -1 -1</clus>
<clus scale="  300.000">  1  4  2 -1</clus>
</clustering>
</event>
<event>
 6    1  0.9254630E-012  0.3000000E+03  0.7818608E-02  0.1093470E+00
          1   -1    0    0  502    0  0.00000000000E+00  0.00000000000E+00  0.24361560105E+03  0.24361560105E+03  0.00000000000E+00 0.  1.
         13   -1    0    0    0    0 -0.00000000000E+00 -0.00000000000E+00 -0.27500000000E+03  0.27500000000E+03  0.00000000000E+00 0.  1.
    9000005    2    1    2  501    0  0.31676172105E+02  0.27055087128E+01 -0.59413085453E+02  0.47623273985E+03  0.47144141537E+03 0.  0.
         13    1    3    3    0    0  0.47229294108E+01  0.19348951866E+03  0.10742450509E+03  0.22136062022E+03  0.00000000000E+00 0.  1.
          1    1    3    3  501    0  0.26953242694E+02 -0.19078400994E+03 -0.16683759054E+03  0.25487211962E+03  0.00000000000E+00 0.  1.
         21    1    1    2  502  501 -0.31676172105E+02 -0.27055087128E+01  0.28028686499E+02  0.42382861200E+02  0.00000000000E+00 0.  1.
<scales pt_clust_4="550.00000" pt_clust_5="550.00000" pt_clust_6="31.79150"></scales>
<mgrwt>
<rscale>  0 0.30000000E+03</rscale>
<asrwt>  1 0.31791503E+02</asrwt>
<pdfrwt beam="1">  1        1 0.88587491E+00 0.30000000E+03</pdfrwt>
<pdfrwt beam="2">0</pdfrwt>
<totfact> 0.16809469E-04</totfact>
</mgrwt>
<clustering>
<clus scale="   31.792">  1  6  2 -1</clus>
<clus scale="  471.441">  4  5 -1 -1</clus>
<clus scale="  300.000">  1  4  2 -1</clus>
</clustering>
</event>
<event>
 6    1  0.9254630E-012  0.3000000E+03  0.7818608E-02  0.1093470E+00
          1   -1    0    0  502    0  0.00000000000E+00  0.00000000000E+00  0.23396298219E+03  0.23396298219E+03  0.00000000000E+00 0.  1.
         13   -1    0    0    0    0 -0.00000000000E+00 -0.00000000000E+00 -0.27500000000E+03  0.27500000000E+03  0.00000000000E+00 0.  1.
    9000005    2    1    2  501    0 -0.93653384876E+01  0.41986812537E+02 -0.26477972727E+02  0.46354748059E+03  0.46078691576E+03 0.  0.
         13    1    3    3    0    0  0.18952039917E+03  0.45242189405E+02  0.10863720428E+03  0.22308491557E+03  0.00000000000E+00 0.  1.
          3    1    3    3  501    0 -0.19888573765E+03 -0.32553768685E+01 -0.13511517700E+03  0.24046256502E+03  0.00000000000E+00 0.  1.
         21    1    1    2  502  501  0.93653384876E+01 -0.41986812537E+02 -0.14559045080E+02  0.45415501600E+02  0.00000000000E+00 0. -1.
<scales pt_clust_4="550.00000" pt_clust_5="550.00000" pt_clust_6="43.01865"></scales>
<mgrwt>
<rscale>  0 0.30000000E+03</rscale>
<asrwt>  1 0.43018645E+02</asrwt>
<pdfrwt beam="1">  1        1 0.85077448E+00 0.30000000E+03</pdfrwt>
<pdfrwt beam="2">0</pdfrwt>
<totfact> 0.38533750E-04</totfact>
</mgrwt>
<clustering>
<clus scale="   43.019">  1  6  2 -1</clus>
<clus scale="  460.787">  4  5 -1 -1</clus>
<clus scale="  300.000">  1  4  2 -1</clus>
</clustering>
</event>
<event>
 6    1  0.9254630E-012  0.3000000E+03  0.7818608E-02  0.1093470E+00
          1   -1    0    0  502    0  0.00000000000E+00  0.00000000000E+00  0.26218851240E+03  0.26218851240E+03  0.00000000000E+00 0.  1.
         13   -1    0    0    0    0 -0.00000000000E+00 -0.00000000000E+00 -0.27500000000E+03  0.27500000000E+03  0.00000000000E+00 0.  1.
    9000005    2    1    2  501    0  0.26903732771E+02  0.17715660455E+02 -0.41029153478E+02  0.49436454563E+03  0.49160477731E+03 0.  0.
         13    1    3    3    0    0 -0.15963907813E+03  0.22694543389E+01  0.15556476008E+03  0.22291294325E+03  0.00000000000E+00 0.  1.
          1    1    3    3  501    0  0.18654281090E+03  0.15446206116E+02 -0.19659391356E+03  0.27145160238E+03  0.00000000000E+00 0.  1.
         21    1    1    2  502  501 -0.26903732771E+02 -0.17715660455E+02  0.28217665878E+02  0.42823966770E+02  0.00000000000E+00 0. -1.
<scales pt_clust_4="550.00000" pt_clust_5="550.00000" pt_clust_6="32.21266"></scales>
<mgrwt>
<rscale>  0 0.30000000E+03</rscale>
<asrwt>  1 0.32212660E+02</asrwt>
<pdfrwt beam="1">  1        1 0.95341277E+00 0.30000000E+03</pdfrwt>
<pdfrwt beam="2">0</pdfrwt>
<totfact> 0.10649700E-05</totfact>
</mgrwt>
<clustering>
<clus scale="   32.213">  1  6  2 -1</clus>
<clus scale="  491.605">  4  5 -1 -1</clus>
<clus scale="  300.000">  1  4  2 -1</clus>
</clustering>
</event>
<event>
 6    1  0.9254630E-012  0.3000000E+03  0.7818608E-02  0.1093470E+00
          1   -1    0    0  502    0  0.00000000000E+00  0.00000000000E+00  0.22997441884E+03  0.22997441884E+03  0.00000000000E+00 0.  1.
         13   -1    0    0    0    0 -0.00000000000E+00 -0.00000000000E+00 -0.27500000000E+03  0.27500000000E+03  0.00000000000E+00 0.  1.
    9000005    2    1    2  501    0  0.17796840202E+01  0.33608485676E+02 -0.58262174128E+02  0.46880944991E+03  0.46395594813E+03 0.  0.
         13    1    3    3    0    0 -0.49758874491E+02  0.23380156287E+03  0.35783415223E+02  0.24170140503E+03  0.00000000000E+00 0.  1.
          1    1    3    3  501    0  0.51538558511E+02 -0.20019307719E+03 -0.94045589352E+02  0.22710804487E+03  0.00000000000E+00 0.  1.
         21    1    1    2  502  501 -0.17796840202E+01 -0.33608485676E+02  0.13236592968E+02  0.36164968934E+02  0.00000000000E+00 0.  1.
<scales pt_clust_4="550.00000" pt_clust_5="550.00000" pt_clust_6="33.65557"></scales>
<mgrwt>
<rscale>  0 0.30000000E+03</rscale>
<asrwt>  1 0.33655573E+02</asrwt>
<pdfrwt beam="1">  1        1 0.83627061E+00 0.30000000E+03</pdfrwt>
<pdfrwt beam="2">0</pdfrwt>
<totfact> 0.53351446E-04</totfact>
</mgrwt>
<clustering>
<clus scale="   33.656">  1  6  2 -1</clus>
<clus scale="  463.956">  4  5 -1 -1</clus>
<clus scale="  300.000">  1  4  2 -1</clus>
</clustering>
</event>
<event>
 6    1  0.9254630E-012  0.3000000E+03  0.7818608E-02  0.1093470E+00
          1   -1    0    0  502    0  0.00000000000E+00  0.00000000000E+00  0.24530133095E+03  0.24530133095E+03  0.00000000000E+00 0.  1.
         13   -1    0    0    0    0 -0.00000000000E+00 -0.00000000000E+00 -0.27500000000E+03  0.27500000000E+03  0.00000000000E+00 0.  1.
    9000005    2    1    2  501    0  0.30036258579E+02  0.41050879410E+02 -0.35112690123E+02  0.46914800110E+03  0.46505869995E+03 0.  0.
         13    1    3    3    0    0  0.11172108342E+03  0.17337375930E+03  0.12883336696E+03  0.24318325875E+03  0.00000000000E+00 0.  1.
          3    1    3    3  501    0 -0.81684824843E+02 -0.13232287989E+03 -0.16394605708E+03  0.22596474235E+03  0.00000000000E+00 0.  1.
         21    1    1    2  502  501 -0.30036258579E+02 -0.41050879410E+02  0.54140210697E+01  0.51153329842E+02  0.00000000000E+00 0.  1.
<scales pt_clust_4="550.00000" pt_clust_5="550.00000" pt_clust_6="50.86602"></scales>
<mgrwt>
<rscale>  0 0.30000000E+03</rscale>
<asrwt>  1 0.50866015E+02</asrwt>
<pdfrwt beam="1">  1        1 0.89200484E+00 0.30000000E+03</pdfrwt>
<pdfrwt beam="2">0</pdfrwt>
<totfact> 0.12770460E-04</totfact>
</mgrwt>
<clustering>
<clus scale="   50.866">  1  6  2 -1</clus>
<clus scale="  465.059">  4  5 -1 -1</clus>
<clus scale="  300.000">  1  4  2 -1</clus>
</clustering>
</event>
<event>
 6    1  0.9254630E-012  0.3000000E+03  0.7818608E-02  0.1093470E+00
          1   -1    0    0  502    0  0.00000000000E+00  0.00000000000E+00  0.22590238007E+03  0.22590238007E+03  0.00000000000E+00 0.  1.
         13   -1    0    0    0    0 -0.00000000000E+00 -0.00000000000E+00 -0.27500000000E+03  0.27500000000E+03  0.00000000000E+00 0.  1.
    9000005    2    1    2  501    0 -0.30242256203E+02  0.99690996651E+00 -0.68891044154E+02  0.46474484237E+03  0.45861334985E+03 0.  0.
         13    1    3    3    0    0 -0.17231219565E+03 -0.12332257605E+03 -0.14964994782E+03  0.25941290911E+03  0.00000000000E+00 0.  1.
          3    1    3    3  501    0  0.14206993944E+03  0.12431948601E+03  0.80758903663E+02  0.20533193326E+03  0.00000000000E+00 0.  1.
         21    1    1    2  502  501  0.30242256203E+02 -0.99690996651E+00  0.19793424223E+02  0.36157537696E+02  0.00000000000E+00 0.  1.
<scales pt_clust_4="550.00000" pt_clust_5="550.00000" pt_clust_6="30.25868"></scales>
<mgrwt>
<rscale>  0 0.30000000E+03</rscale>
<asrwt>  1 0.30258683E+02</asrwt>
<pdfrwt beam="1">  1        1 0.82146320E+00 0.30000000E+03</pdfrwt>
<pdfrwt beam="2">0</pdfrwt>
<totfact> 0.72195360E-04</totfact>
</mgrwt>
<clustering>
<clus scale="   30.259">  1  6  2 -1</clus>
<clus scale="  458.613">  4  5 -1 -1</clus>
<clus scale="  300.000">  1  4  2 -1</clus>
</clustering>
</event>
<event>
 6    1  0.9254630E-012  0.3000000E+03  0.7818608E-02  0.1093470E+00
          1   -1    0    0  502    0  0.00000000000E+00  0.00000000000E+00  0.26318952956E+03  0.26318952956E+03  0.00000000000E+00 0.  1.
         13   -1    0    0    0    0 -0.00000000000E+00 -0.00000000000E+00 -0.27500000000E+03  0.27500000000E+03  0.00000000000E+00 0.  1.
    9000005    2    1    2  501    0  0.27102036467E+02  0.22487321376E+02 -0.73635624800E+02  0.46703793285E+03  0.45985000323E+03 0.  0.
         13    1    3    3    0    0  0.14474450072E+03 -0.10287156799E+03 -0.18951892448E+03  0.25971321246E+03  0.00000000000E+00 0.  1.
          1    1    3    3  501    0 -0.11764246426E+03  0.12535888936E+03  0.11588329968E+03  0.20732472039E+03  0.00000000000E+00 0.  1.
         21    1    1    2  502  501 -0.27102036467E+02 -0.22487321376E+02  0.61825154364E+02  0.71151596718E+02  0.00000000000E+00 0.  1.
<scales pt_clust_4="550.00000" pt_clust_5="550.00000" pt_clust_6="35.21647"></scales>
<mgrwt>
<rscale>  0 0.30000000E+03</rscale>
<asrwt>  1 0.35216473E+02</asrwt>
<pdfrwt beam="1">  1        1 0.95705283E+00 0.30000000E+03</pdfrwt>
<pdfrwt beam="2">0</pdfrwt>
<totfact> 0.87670029E-06</totfact>
</mgrwt>
<clustering>
<clus scale="   35.216">  1  6  2 -1</clus>
<clus scale="  459.850">  4  5 -1 -1</clus>
<clus scale="  300.000">  1  4  2 -1</clus>
</clustering>
</event>
<event>
 6    1  0.9254630E-012  0.3000000E+03  0.7818608E-02  0.1093470E+00
          1   -1    0    0  502    0  0.00000000000E+00  0.00000000000E+00  0.23000333304E+03  0.23000333304E+03  0.00000000000E+00 0.  1.
         13   -1    0    0    0    0 -0.00000000000E+00 -0.00000000000E+00 -0.27500000000E+03  0.27500000000E+03  0.00000000000E+00 0.  1.
    9000005    2    1    2  501    0 -0.36351529302E+02 -0.59209337384E+01 -0.50470132299E+02  0.46776826944E+03  0.46357677735E+03 0.  0.
         13    1    3    3    0    0 -0.19509362479E+03 -0.74333583924E+02 -0.16008519974E+03  0.26308606065E+03  0.00000000000E+00 0.  1.
          1    1    3    3  501    0  0.15874209548E+03  0.68412650185E+02  0.10961506744E+03  0.20468220879E+03  0.00000000000E+00 0.  1.
         21    1    1    2  502  501  0.36351529302E+02  0.59209337384E+01  0.54734653416E+01  0.37235063607E+02  0.00000000000E+00 0.  1.
<scales pt_clust_4="550.00000" pt_clust_5="550.00000" pt_clust_6="36.83057"></scales>
<mgrwt>
<rscale>  0 0.30000000E+03</rscale>
<asrwt>  1 0.36830573E+02</asrwt>
<pdfrwt beam="1">  1        1 0.83637576E+00 0.30000000E+03</pdfrwt>
<pdfrwt beam="2">0</pdfrwt>
<totfact> 0.52368258E-04</totfact>
</mgrwt>
<clustering>
<clus scale="   36.831">  1  6  2 -1</clus>
<clus scale="  463.577">  4  5 -1 -1</clus>
<clus scale="  300.000">  1  4  2 -1</clus>
</clustering>
</event>
<event>
 6    1  0.9254630E-012  0.3000000E+03  0.7818608E-02  0.1093470E+00
          1   -1    0    0  502    0  0.00000000000E+00  0.00000000000E+00  0.22239141035E+03  0.22239141035E+03  0.00000000000E+00 0.  1.
         13   -1    0    0    0    0 -0.00000000000E+00 -0.00000000000E+00 -0.27500000000E+03  0.27500000000E+03  0.00000000000E+00 0.  1.
    9000005    2    1    2  501    0 -0.30591154261E+02  0.25095329348E+00 -0.47716808734E+02  0.46641059020E+03  0.46295362956E+03 0.  0.
         13    1    3    3    0    0  0.18122864434E+03  0.11817985057E+03 -0.57198452961E+02  0.22378999448E+03  0.00000000000E+00 0.  1.
          1    1    3    3  501    0 -0.21181979860E+03 -0.11792889727E+03  0.94816442272E+01  0.24262059572E+03  0.00000000000E+00 0.  1.
         21    1    1    2  502  501  0.30591154261E+02 -0.25095329348E+00 -0.48917809142E+01  0.30980820149E+02  0.00000000000E+00 0. -1.
<scales pt_clust_4="550.00000" pt_clust_5="550.00000" pt_clust_6="30.59220"></scales>
<mgrwt>
<rscale>  0 0.30000000E+03</rscale>
<asrwt>  1 0.30592199E+02</asrwt>
<pdfrwt beam="1">  1        1 0.80869604E+00 0.30000000E+03</pdfrwt>
<pdfrwt beam="2">0</pdfrwt>
<totfact> 0.91578150E-04</totfact>
</mgrwt>
<clustering>
<clus scale="   30.592">  1  6  2 -1</clus>
<clus scale="  462.954">  4  5 -1 -1</clus>
<clus scale="  300.000">  1  4  2 -1</clus>
</clustering>
</event>
<event>
 6    1  0.9254630E-012  0.3000000E+03  0.7818608E-02  0.1093470E+00
          1   -1    0    0  502    0  0.00000000000E+00  0.00000000000E+00  0.23579858571E+03  0.23579858571E+03  0.00000000000E+00 0.  1.
         13   -1    0    0    0    0 -0.00000000000E+00 -0.00000000000E+00 -0.27500000000E+03  0.27500000000E+03  0.00000000000E+00 0.  1.
    9000005    2    1    2  501    0  0.35927308909E+02  0.23711778254E+01 -0.60430109575E+02  0.46900084040E+03  0.46369558564E+03 0.  0.
         13    1    3    3    0    0 -0.14927794610E+03 -0.56420118517E+02  0.12323177545E+03  0.20162640067E+03  0.00000000000E+00 0.  1.
          1    1    3    3  501    0  0.18520525501E+03  0.58791296342E+02 -0.18366188503E+03  0.26737443973E+03  0.00000000000E+00 0.  1.
         21    1    1    2  502  501 -0.35927308909E+02 -0.23711778254E+01  0.21228695284E+02  0.41797745313E+02  0.00000000000E+00 0. -1.
<scales pt_clust_4="550.00000" pt_clust_5="550.00000" pt_clust_6="36.00547"></scales>
<mgrwt>
<rscale>  0 0.30000000E+03</rscale>
<asrwt>  1 0.36005472E+02</asrwt>
<pdfrwt beam="1">  1        1 0.85744940E+00 0.30000000E+03</pdfrwt>
<pdfrwt beam="2">0</pdfrwt>
<totfact> 0.34226891E-04</totfact>
</mgrwt>
<clustering>
<clus scale="   36.005">  1  6  2 -1</clus>
<clus scale="  463.696">  4  5 -1 -1</clus>
<clus scale="  300.000">  1  4  2 -1</clus>
</clustering>
</event>
<event>
 6    1  0.9254630E-012  0.3000000E+03  0.7818608E-02  0.1093470E+00
          1   -1    0    0  502    0  0.00000000000E+00  0.00000000000E+00  0.23078729872E+03  0.23078729872E+03  0.00000000000E+00 0.  1.
         13   -1    0    0    0    0 -0.00000000000E+00 -0.00000000000E+00 -0.27500000000E+03  0.27500000000E+03  0.00000000000E+00 0.  1.
    9000005    2    1    2  501    0  0.38917202548E+02  0.13718494069E+02 -0.37676957860E+02  0.46400857596E+03  0.46063180489E+03 0.  0.
         13    1    3    3    0    0  0.74528275037E+02 -0.21325189335E+03  0.21037770824E+02  0.22687754759E+03  0.00000000000E+00 0.  1.
          3    1    3    3  501    0 -0.35611072489E+02  0.22697038742E+03 -0.58714728683E+02  0.23713102837E+03  0.00000000000E+00 0.  1.
         21    1    1    2  502  501 -0.38917202548E+02 -0.13718494069E+02 -0.65357434218E+01  0.41778722763E+02  0.00000000000E+00 0. -1.
<scales pt_clust_4="550.00000" pt_clust_5="550.00000" pt_clust_6="41.26436"></scales>
<mgrwt>
<rscale>  0 0.30000000E+03</rscale>
<asrwt>  1 0.41264360E+02</asrwt>
<pdfrwt beam="1">  1        1 0.83922654E+00 0.30000000E+03</pdfrwt>
<pdfrwt beam="2">0</pdfrwt>
<totfact> 0.48875388E-04</totfact>
</mgrwt>
<clustering>
<clus scale="   41.264">  1  6  2 -1</clus>
<clus scale="  460.632">  4  5 -1 -1</clus>
<clus scale="  300.000">  1  4  2 -1</clus>
</clustering>
</event>
<event>
 6    1  0.9254630E-012  0.3000000E+03  0.7818608E-02  0.1093470E+00
          1   -1    0    0  502    0  0.00000000000E+00  0.00000000000E+00  0.22375836687E+03  0.22375836687E+03  0.00000000000E+00 0.  1.
         13   -1    0    0    0    0 -0.00000000000E+00 -0.00000000000E+00 -0.27500000000E+03  0.27500000000E+03  0.00000000000E+00 0.  1.
    9000005    2    1    2  501    0  0.17866655296E+02 -0.25175020068E+02 -0.56780892812E+02  0.46739465528E+03  0.46290462839E+03 0.  0.
         13    1    3    3    0    0  0.47259293434E+02  0.17787534013E+02 -0.25628448747E+03  0.26121174495E+03  0.00000000000E+00 0.  1.
          3    1    3    3  501    0 -0.29392638138E+02 -0.42962554081E+02  0.19950359466E+03  0.20618291033E+03  0.00000000000E+00 0.  1.
         21    1    1    2  502  501 -0.17866655296E+02  0.25175020068E+02  0.55392596802E+01  0.31363711590E+02  0.00000000000E+00 0.  1.
<scales pt_clust_4="550.00000" pt_clust_5="550.00000" pt_clust_6="30.87068"></scales>
<mgrwt>
<rscale>  0 0.30000000E+03</rscale>
<asrwt>  1 0.30870682E+02</asrwt>
<pdfrwt beam="1">  1        1 0.81366679E+00 0.30000000E+03</pdfrwt>
<pdfrwt beam="2">0</pdfrwt>
<totfact> 0.83554698E-04</totfact>
</mgrwt>
<clustering>
<clus scale="   30.871">  1  6  2 -1</clus>
<clus scale="  462.905">  4  5 -1 -1</clus>
<clus scale="  300.000">  1  4  2 -1</clus>
</clustering>
</event>
<event>
 6    1  0.9254630E-012  0.3000000E+03  0.7818608E-02  0.1093470E+00
          1   -1    0    0  502    0  0.00000000000E+00  0.00000000000E+00  0.21894581641E+03  0.21894581641E+03  0.00000000000E+00 0.  1.
         13   -1    0    0    0    0 -0.00000000000E+00 -0.00000000000E+00 -0.27500000000E+03  0.27500000000E+03  0.00000000000E+00 0.  1.
    9000005    2    1    2  501    0 -0.88883341190E+01 -0.31993248513E+02 -0.49341941764E+02  0.46006920761E+03  0.45620880980E+03 0.  0.
         13    1    3    3    0    0  0.74906277711E+02 -0.12141981017E+03 -0.21253877543E+03  0.25598135050E+03  0.00000000000E+00 0.  1.
          3    1    3    3  501    0 -0.83794611830E+02  0.89426561657E+02  0.16319683366E+03  0.20408785711E+03  0.00000000000E+00 0.  1.
         21    1    1    2  502  501  0.88883341190E+01  0.31993248513E+02 -0.67122418229E+01  0.33876608804E+02  0.00000000000E+00 0. -1.
<scales pt_clust_4="550.00000" pt_clust_5="550.00000" pt_clust_6="33.20499"></scales>
<mgrwt>
<rscale>  0 0.30000000E+03</rscale>
<asrwt>  1 0.33204993E+02</asrwt>
<pdfrwt beam="1">  1        1 0.79616661E+00 0.30000000E+03</pdfrwt>
<pdfrwt beam="2">0</pdfrwt>
<totfact> 0.11168241E-03</totfact>
</mgrwt>
<clustering>
<clus scale="   33.205">  1  6  2 -1</clus>
<clus scale="  456.209">  4  5 -1 -1</clus>
<clus scale="  300.000">  1  4  2 -1</clus>
</clustering>
</event>
<event>
 6    1  0.9254630E-012  0.3000000E+03  0.7818608E-02  0.1093470E+00
          1   -1    0    0  502    0  0.00000000000E+00  0.00000000000E+00  0.22785490422E+03  0.22785490422E+03  0.00000000000E+00 0.  1.
         13   -1    0    0    0    0 -0.00000000000E+00 -0.00000000000E+00 -0.27500000000E+03  0.27500000000E+03  0.00000000000E+00 0.  1.
    9000005    2    1    2  501    0 -0.26784342344E+02 -0.20254093205E+02 -0.57274835719E+02  0.46778011388E+03  0.46304448906E+03 0.  0.
         13    1    3    3    0    0  0.18874036763E+03 -0.10937428171E+03 -0.82446769664E+02  0.23320190758E+03  0.00000000000E+00 0.  1.
          1    1    3    3  501    0 -0.21552470998E+03  0.89120188505E+02  0.25171933946E+02  0.23457820629E+03  0.00000000000E+00 0.  1.
         21    1    1    2  502  501  0.26784342344E+02  0.20254093205E+02  0.10129739940E+02  0.35074790343E+02  0.00000000000E+00 0. -1.
<scales pt_clust_4="550.00000" pt_clust_5="550.00000" pt_clust_6="33.58019"></scales>
<mgrwt>
<rscale>  0 0.30000000E+03</rscale>
<asrwt>  1 0.33580192E+02</asrwt>
<pdfrwt beam="1">  1        1 0.82856329E+00 0.30000000E+03</pdfrwt>
<pdfrwt beam="2">0</pdfrwt>
<totfact> 0.61245844E-04</totfact>
</mgrwt>
<clustering>
<clus scale="   33.580">  1  6  2 -1</clus>
<clus scale="  463.044">  4  5 -1 -1</clus>
<clus scale="  300.000">  1  4  2 -1</clus>
</clustering>
</event>
<event>
 6    1  0.9254630E-012  0.3000000E+03  0.7818608E-02  0.1093470E+00
          1   -1    0    0  502    0  0.00000000000E+00  0.00000000000E+00  0.24919926373E+03  0.24919926373E+03  0.00000000000E+00 0.  1.
         13   -1    0    0    0    0 -0.00000000000E+00 -0.00000000000E+00 -0.27500000000E+03  0.27500000000E+03  0.00000000000E+00 0.  1.
    9000005    2    1    2  501    0  0.41593327069E+02  0.15016151546E+02 -0.44436239256E+02  0.47621206090E+03  0.47206764126E+03 0.  0.
         13    1    3    3    0    0  0.25301591190E+03 -0.27806055807E+02  0.62721112908E+01  0.25461651123E+03  0.00000000000E+00 0.  1.
          3    1    3    3  501    0 -0.21142258483E+03  0.42822207353E+02 -0.50708350547E+02  0.22159554967E+03  0.00000000000E+00 0.  1.
         21    1    1    2  502  501 -0.41593327069E+02 -0.15016151546E+02  0.18635502989E+02  0.47987202831E+02  0.00000000000E+00 0.  1.
<scales pt_clust_4="550.00000" pt_clust_5="550.00000" pt_clust_6="44.22092"></scales>
<mgrwt>
<rscale>  0 0.30000000E+03</rscale>
<asrwt>  1 0.44220919E+02</asrwt>
<pdfrwt beam="1">  1        1 0.90617914E+00 0.30000000E+03</pdfrwt>
<pdfrwt beam="2">0</pdfrwt>
<totfact> 0.83977294E-05</totfact>
</mgrwt>
<clustering>
<clus scale="   44.221">  1  6  2 -1</clus>
<clus scale="  472.068">  4  5 -1 -1</clus>
<clus scale="  300.000">  1  4  2 -1</clus>
</clustering>
</event>
<event>
 6    1  0.9254630E-012  0.3000000E+03  0.7818608E-02  0.1093470E+00
          1   -1    0    0  502    0  0.00000000000E+00  0.00000000000E+00  0.23024091390E+03  0.23024091390E+03  0.00000000000E+00 0.  1.
         13   -1    0    0    0    0 -0.00000000000E+00 -0.00000000000E+00 -0.27500000000E+03  0.27500000000E+03  0.00000000000E+00 0.  1.
    9000005    2    1    2  501    0 -0.33614918990E+02  0.19535312025E+02 -0.56189924783E+02  0.46471616507E+03  0.45966532960E+03 0.  0.
         13    1    3    3    0    0  0.14135236344E+03  0.16566138330E+03  0.32356861720E+02  0.22016164758E+03  0.00000000000E+00 0.  1.
          3    1    3    3  501    0 -0.17496728243E+03 -0.14612607127E+03 -0.88546786503E+02  0.24455451749E+03  0.00000000000E+00 0.  1.
         21    1    1    2  502  501  0.33614918990E+02 -0.19535312025E+02  0.11430838687E+02  0.40524748829E+02  0.00000000000E+00 0.  1.
<scales pt_clust_4="550.00000" pt_clust_5="550.00000" pt_clust_6="38.87919"></scales>
<mgrwt>
<rscale>  0 0.30000000E+03</rscale>
<asrwt>  1 0.38879187E+02</asrwt>
<pdfrwt beam="1">  1        1 0.83723969E+00 0.30000000E+03</pdfrwt>
<pdfrwt beam="2">0</pdfrwt>
<totfact> 0.51104499E-04</totfact>
</mgrwt>
<clustering>
<clus scale="   38.879">  1  6  2 -1</clus>
<clus scale="  459.665">  4  5 -1 -1</clus>
<clus scale="  300.000">  1  4  2 -1</clus>
</clustering>
</event>
<event>
 6    1  0.9254630E-012  0.3000000E+03  0.7818608E-02  0.1093470E+00
          1   -1    0    0  502    0  0.00000000000E+00  0.00000000000E+00  0.22992377304E+03  0.22992377304E+03  0.00000000000E+00 0.  1.
         13   -1    0    0    0    0 -0.00000000000E+00 -0.00000000000E+00 -0.27500000000E+03  0.27500000000E+03  0.00000000000E+00 0.  1.
    9000005    2    1    2  501    0 -0.31921475557E+02 -0.28464468549E+02 -0.36078333165E+02  0.46121829667E+03  0.45781160371E+03 0.  0.
         13    1    3    3    0    0 -0.18507346452E+03 -0.12420584267E+03  0.90608942886E+02  0.24060186856E+03  0.00000000000E+00 0.  1.
          1    1    3    3  501    0  0.15315198896E+03  0.95741374121E+02 -0.12668727605E+03  0.22061642812E+03  0.00000000000E+00 0.  1.
         21    1    1    2  502  501  0.31921475557E+02  0.28464468549E+02 -0.89978937984E+01  0.43705476365E+02  0.00000000000E+00 0. -1.
<scales pt_clust_4="550.00000" pt_clust_5="550.00000" pt_clust_6="42.76925"></scales>
<mgrwt>
<rscale>  0 0.30000000E+03</rscale>
<asrwt>  1 0.42769246E+02</asrwt>
<pdfrwt beam="1">  1        1 0.83608645E+00 0.30000000E+03</pdfrwt>
<pdfrwt beam="2">0</pdfrwt>
<totfact> 0.51203892E-04</totfact>
</mgrwt>
<clustering>
<clus scale="   42.769">  1  6  2 -1</clus>
<clus scale="  457.812">  4  5 -1 -1</clus>
<clus scale="  300.000">  1  4  2 -1</clus>
</clustering>
</event>
<event>
 6    1  0.9254630E-012  0.3000000E+03  0.7818608E-02  0.1093470E+00
          1   -1    0    0  502    0  0.00000000000E+00  0.00000000000E+00  0.23399475608E+03  0.23399475608E+03  0.00000000000E+00 0.  1.
         13   -1    0    0    0    0 -0.00000000000E+00 -0.00000000000E+00 -0.27500000000E+03  0.27500000000E+03  0.00000000000E+00 0.  1.
    9000005    2    1    2  501    0 -0.35181542311E+02 -0.22008254964E+02 -0.49004194157E+02  0.46673262870E+03  0.46229409627E+03 0.  0.
         13    1    3    3    0    0  0.16601432288E+03 -0.11461183178E+03 -0.11928904965E+03  0.23436404321E+03  0.00000000000E+00 0.  1.
          3    1    3    3  501    0 -0.20119586519E+03  0.92603576811E+02  0.70284855493E+02  0.23236858549E+03  0.00000000000E+00 0.  1.
         21    1    1    2  502  501  0.35181542311E+02  0.22008254964E+02  0.79989502399E+01  0.42262127383E+02  0.00000000000E+00 0. -1.
<scales pt_clust_4="550.00000" pt_clust_5="550.00000" pt_clust_6="41.49824"></scales>
<mgrwt>
<rscale>  0 0.30000000E+03</rscale>
<asrwt>  1 0.41498243E+02</asrwt>
<pdfrwt beam="1">  1        1 0.85089002E+00 0.30000000E+03</pdfrwt>
<pdfrwt beam="2">0</pdfrwt>
<totfact> 0.38687471E-04</totfact>
</mgrwt>
<clustering>
<clus scale="   41.498">  1  6  2 -1</clus>
<clus scale="  462.294">  4  5 -1 -1</clus>
<clus scale="  300.000">  1  4  2 -1</clus>
</clustering>
</event>
<event>
 6    1  0.9254630E-012  0.3000000E+03  0.7818608E-02  0.1093470E+00
          1   -1    0    0  502    0  0.00000000000E+00  0.00000000000E+00  0.23306937221E+03  0.23306937221E+03  0.00000000000E+00 0.  1.
         13   -1    0    0    0    0 -0.00000000000E+00 -0.00000000000E+00 -0.27500000000E+03  0.27500000000E+03  0.00000000000E+00 0.  1.
    9000005    2    1    2  501    0  0.44165806023E+02  0.55547105419E+01 -0.45505583432E+02  0.46341230627E+03  0.45901931794E+03 0.  0.
         13    1    3    3    0    0 -0.80326030823E+02 -0.56803503321E+02  0.17608683842E+03  0.20170642995E+03  0.00000000000E+00 0.  1.
          1    1    3    3  501    0  0.12449183685E+03  0.62358213863E+02 -0.22159242185E+03  0.26170587632E+03  0.00000000000E+00 0.  1.
         21    1    1    2  502  501 -0.44165806023E+02 -0.55547105419E+01  0.35749556445E+01  0.44657065944E+02  0.00000000000E+00 0.  1.
<scales pt_clust_4="550.00000" pt_clust_5="550.00000" pt_clust_6="44.51374"></scales>
<mgrwt>
<rscale>  0 0.30000000E+03</rscale>
<asrwt>  1 0.44513742E+02</asrwt>
<pdfrwt beam="1">  1        1 0.84752499E+00 0.30000000E+03</pdfrwt>
<pdfrwt beam="2">0</pdfrwt>
<totfact> 0.41053160E-04</totfact>
</mgrwt>
<clustering>
<clus scale="   44.514">  1  6  2 -1</clus>
<clus scale="  459.019">  4  5 -1 -1</clus>
<clus scale="  300.000">  1  4  2 -1</clus>
</clustering>
</event>
<event>
 6    1  0.9254630E-012  0.3000000E+03  0.7818608E-02  0.1093470E+00
          1   -1    0    0  502    0  0.00000000000E+00  0.00000000000E+00  0.22735944456E+03  0.22735944456E+03  0.00000000000E+00 0.  1.
         13   -1    0    0    0    0 -0.00000000000E+00 -0.00000000000E+00 -0.27500000000E+03  0.27500000000E+03  0.00000000000E+00 0.  1.
    9000005    2    1    2  501    0 -0.22696666330E+02  0.21817793843E+02 -0.67882631832E+02  0.46493089333E+03  0.45886983893E+03 0.  0.
         13    1    3    3    0    0  0.15820938639E+03 -0.13759419967E+03  0.14377698968E+02  0.21016444026E+03  0.00000000000E+00 0.  1.
          1    1    3    3  501    0 -0.18090605272E+03  0.15941199351E+03 -0.82260330800E+02  0.25476645307E+03  0.00000000000E+00 0.  1.
         21    1    1    2  502  501  0.22696666330E+02 -0.21817793843E+02  0.20242076396E+02  0.37428551234E+02  0.00000000000E+00 0.  1.
<scales pt_clust_4="550.00000" pt_clust_5="550.00000" pt_clust_6="31.48261"></scales>
<mgrwt>
<rscale>  0 0.30000000E+03</rscale>
<asrwt>  1 0.31482611E+02</asrwt>
<pdfrwt beam="1">  1        1 0.82676162E+00 0.30000000E+03</pdfrwt>
<pdfrwt beam="2">0</pdfrwt>
<totfact> 0.64279270E-04</totfact>
</mgrwt>
<clustering>
<clus scale="   31.483">  1  6  2 -1</clus>
<clus scale="  458.870">  4  5 -1 -1</clus>
<clus scale="  300.000">  1  4  2 -1</clus>
</clustering>
</event>
<event>
 6    1  0.9254630E-012  0.3000000E+03  0.7818608E-02  0.1093470E+00
          1   -1    0    0  502    0  0.00000000000E+00  0.00000000000E+00  0.23542094765E+03  0.23542094765E+03  0.00000000000E+00 0.  1.
         13   -1    0    0    0    0 -0.00000000000E+00 -0.00000000000E+00 -0.27500000000E+03  0.27500000000E+03  0.00000000000E+00 0.  1.
    9000005    2    1    2  501    0 -0.18512614941E+02 -0.30479274486E+02 -0.55297469618E+02  0.47144952573E+03  0.46683524083E+03 0.  0.
         13    1    3    3    0    0 -0.10775026581E+02 -0.34327683080E+02  0.20644887505E+03  0.20956056173E+03  0.00000000000E+00 0.  1.
          3    1    3    3  501    0 -0.77375883598E+01  0.38484085947E+01 -0.26174634466E+03  0.26188896400E+03  0.00000000000E+00 0.  1.
         21    1    1    2  502  501  0.18512614941E+02  0.30479274486E+02  0.15718417269E+02  0.38971421921E+02  0.00000000000E+00 0. -1.
<scales pt_clust_4="550.00000" pt_clust_5="550.00000" pt_clust_6="35.66095"></scales>
<mgrwt>
<rscale>  0 0.30000000E+03</rscale>
<asrwt>  1 0.35660946E+02</asrwt>
<pdfrwt beam="1">  1        1 0.85607617E+00 0.30000000E+03</pdfrwt>
<pdfrwt beam="2">0</pdfrwt>
<totfact> 0.35416349E-04</totfact>
</mgrwt>
<clustering>
<clus scale="   35.661">  1  6  2 -1</clus>
<clus scale="  466.835">  4  5 -1 -1</clus>
<clus scale="  300.000">  1  4  2 -1</clus>
</clustering>
</event>
<event>
 6    1  0.9254630E-012  0.3000000E+03  0.7818608E-02  0.1093470E+00
          1   -1    0    0  502    0  0.00000000000E+00  0.00000000000E+00  0.22956201760E+03  0.22956201760E+03  0.00000000000E+00 0.  1.
         13   -1    0    0    0    0 -0.00000000000E+00 -0.00000000000E+00 -0.27500000000E+03  0.27500000000E+03  0.00000000000E+00 0.  1.
    9000005    2    1    2  501    0 -0.27465585317E+02 -0.26247965949E+02 -0.56712937435E+02  0.46493325652E+03  0.45989483761E+03 0.  0.
         13    1    3    3    0    0 -0.22037501018E+03  0.87054068595E+02 -0.15547881048E+02  0.23745587501E+03  0.00000000000E+00 0.  1.
          1    1    3    3  501    0  0.19290942486E+03 -0.11330203454E+03 -0.41165056387E+02  0.22747738151E+03  0.00000000000E+00 0.  1.
         21    1    1    2  502  501  0.27465585317E+02  0.26247965949E+02  0.11274955035E+02  0.39628761075E+02  0.00000000000E+00 0. -1.
<scales pt_clust_4="550.00000" pt_clust_5="550.00000" pt_clust_6="37.99097"></scales>
<mgrwt>
<rscale>  0 0.30000000E+03</rscale>
<asrwt>  1 0.37990974E+02</asrwt>
<pdfrwt beam="1">  1        1 0.83477097E+00 0.30000000E+03</pdfrwt>
<pdfrwt beam="2">0</pdfrwt>
<totfact> 0.53487374E-04</totfact>
</mgrwt>
<clustering>
<clus scale="   37.991">  1  6  2 -1</clus>
<clus scale="  459.895">  4  5 -1 -1</clus>
<clus scale="  300.000">  1  4  2 -1</clus>
</clustering>
</event>
<event>
 6    1  0.9254630E-012  0.3000000E+03  0.7818608E-02  0.1093470E+00
          1   -1    0    0  502    0  0.00000000000E+00  0.00000000000E+00  0.23503902919E+03  0.23503902919E+03  0.00000000000E+00 0.  1.
         13   -1    0    0    0    0 -0.00000000000E+00 -0.00000000000E+00 -0.27500000000E+03  0.27500000000E+03  0.00000000000E+00 0.  1.
    9000005    2    1    2  501    0 -0.27805014429E+02  0.15057944118E+02 -0.53060121887E+02  0.47581260274E+03  0.47178638798E+03 0.  0.
         13    1    3    3    0    0  0.15890177447E+03 -0.29411165910E+02  0.13240441407E+03  0.20891557978E+03  0.00000000000E+00 0.  1.
          1    1    3    3  501    0 -0.18670678890E+03  0.44469110028E+02 -0.18546453595E+03  0.26689702296E+03  0.00000000000E+00 0.  1.
         21    1    1    2  502  501  0.27805014429E+02 -0.15057944118E+02  0.13099151073E+02  0.34226426447E+02  0.00000000000E+00 0. -1.
<scales pt_clust_4="550.00000" pt_clust_5="550.00000" pt_clust_6="31.62057"></scales>
<mgrwt>
<rscale>  0 0.30000000E+03</rscale>
<asrwt>  1 0.31620571E+02</asrwt>
<pdfrwt beam="1">  1        1 0.85468738E+00 0.30000000E+03</pdfrwt>
<pdfrwt beam="2">0</pdfrwt>
<totfact> 0.37404057E-04</totfact>
</mgrwt>
<clustering>
<clus scale="   31.621">  1  6  2 -1</clus>
<clus scale="  471.786">  4  5 -1 -1</clus>
<clus scale="  300.000">  1  4  2 -1</clus>
</clustering>
</event>
<event>
 6    1  0.9254630E-012  0.3000000E+03  0.7818608E-02  0.1093470E+00
          1   -1    0    0  502    0  0.00000000000E+00  0.00000000000E+00  0.22798488710E+03  0.22798488710E+03  0.00000000000E+00 0.  1.
         13   -1    0    0    0    0 -0.00000000000E+00 -0.00000000000E+00 -0.27500000000E+03  0.27500000000E+03  0.00000000000E+00 0.  1.
    9000005    2    1    2  501    0  0.16131504280E+01 -0.30962734263E+02 -0.53899430389E+02  0.47122505406E+03  0.46710449560E+03 0.  0.
         13    1    3    3    0    0  0.16963268249E+03 -0.41129229876E+02 -0.18761270780E+03  0.25625258759E+03  0.00000000000E+00 0.  1.
          1    1    3    3  501    0 -0.16801953206E+03  0.10166495613E+02  0.13371327741E+03  0.21497246647E+03  0.00000000000E+00 0.  1.
         21    1    1    2  502  501 -0.16131504280E+01  0.30962734263E+02  0.68843174910E+01  0.31759833039E+02  0.00000000000E+00 0. -1.
<scales pt_clust_4="550.00000" pt_clust_5="550.00000" pt_clust_6="31.00473"></scales>
<mgrwt>
<rscale>  0 0.30000000E+03</rscale>
<asrwt>  1 0.31004728E+02</asrwt>
<pdfrwt beam="1">  1        1 0.82903595E+00 0.30000000E+03</pdfrwt>
<pdfrwt beam="2">0</pdfrwt>
<totfact> 0.61606637E-04</totfact>
</mgrwt>
<clustering>
<clus scale="   31.005">  1  6  2 -1</clus>
<clus scale="  467.104">  4  5 -1 -1</clus>
<clus scale="  300.000">  1  4  2 -1</clus>
</clustering>
</event>
<event>
 6    1  0.9254630E-012  0.3000000E+03  0.7818608E-02  0.1093470E+00
          1   -1    0    0  502    0  0.00000000000E+00  0.00000000000E+00  0.22728420763E+03  0.22728420763E+03  0.00000000000E+00 0.  1.
         13   -1    0    0    0    0 -0.00000000000E+00 -0.00000000000E+00 -0.27500000000E+03  0.27500000000E+03  0.00000000000E+00 0.  1.
    9000005    2    1    2  501    0 -0.16678797223E+02  0.25316031102E+02 -0.64695194750E+02  0.46753677877E+03  0.46204554707E+03 0.  0.
         13    1    3    3    0    0  0.42121608781E+02 -0.21290950054E+03 -0.42517906901E+02  0.22116161003E+03  0.00000000000E+00 0.  1.
          1    1    3    3  501    0 -0.58800406005E+02  0.23822553164E+03 -0.22177287849E+02  0.24637516873E+03  0.00000000000E+00 0.  1.
         21    1    1    2  502  501  0.16678797223E+02 -0.25316031102E+02  0.16979402381E+02  0.34747428866E+02  0.00000000000E+00 0. -1.
<scales pt_clust_4="550.00000" pt_clust_5="550.00000" pt_clust_6="30.31639"></scales>
<mgrwt>
<rscale>  0 0.30000000E+03</rscale>
<asrwt>  1 0.30316393E+02</asrwt>
<pdfrwt beam="1">  1        1 0.82648803E+00 0.30000000E+03</pdfrwt>
<pdfrwt beam="2">0</pdfrwt>
<totfact> 0.65106823E-04</totfact>
</mgrwt>
<clustering>
<clus scale="   30.316">  1  6  2 -1</clus>
<clus scale="  462.046">  4  5 -1 -1</clus>
<clus scale="  300.000">  1  4  2 -1</clus>
</clustering>
</event>
<event>
 6    1  0.9254630E-012  0.3000000E+03  0.7818608E-02  0.1093470E+00
          1   -1    0    0  502    0  0.00000000000E+00  0.00000000000E+00  0.24213677854E+03  0.24213677854E+03  0.00000000000E+00 0.  1.
         13   -1    0    0    0    0 -0.00000000000E+00 -0.00000000000E+00 -0.27500000000E+03  0.27500000000E+03  0.00000000000E+00 0.  1.
    9000005    2    1    2  501    0  0.33012989291E+02 -0.38124431363E+01 -0.50213354850E+02  0.47964785600E+03  0.47585322588E+03 0.  0.
         13    1    3    3    0    0 -0.20677901056E+03 -0.16814118076E+02  0.59214850516E+02  0.21574677818E+03  0.00000000000E+00 0.  1.
          3    1    3    3  501    0  0.23979199985E+03  0.13001674940E+02 -0.10942820537E+03  0.26390107782E+03  0.00000000000E+00 0.  1.
         21    1    1    2  502  501 -0.33012989291E+02  0.38124431363E+01  0.17350133392E+02  0.37488922542E+02  0.00000000000E+00 0.  1.
<scales pt_clust_4="550.00000" pt_clust_5="550.00000" pt_clust_6="33.23240"></scales>
<mgrwt>
<rscale>  0 0.30000000E+03</rscale>
<asrwt>  1 0.33232397E+02</asrwt>
<pdfrwt beam="1">  1        1 0.88049738E+00 0.30000000E+03</pdfrwt>
<pdfrwt beam="2">0</pdfrwt>
<totfact> 0.19649414E-04</totfact>
</mgrwt>
<clustering>
<clus scale="   33.232">  1  6  2 -1</clus>
<clus scale="  475.853">  4  5 -1 -1</clus>
<clus scale="  300.000">  1  4  2 -1</clus>
</clustering>
</event>
<event>
 6    1  0.9254630E-012  0.3000000E+03  0.7818608E-02  0.1093470E+00
          1   -1    0    0  502    0  0.00000000000E+00  0.00000000000E+00  0.23841617535E+03  0.23841617535E+03  0.00000000000E+00 0.  1.
         13   -1    0    0    0    0 -0.00000000000E+00 -0.00000000000E+00 -0.27500000000E+03  0.27500000000E+03  0.00000000000E+00 0.  1.
    9000005    2    1    2  501    0 -0.26114822375E+02  0.23962224289E+02 -0.12004485361E+02  0.47028479396E+03  0.46879367276E+03 0.  0.
         13    1    3    3    0    0 -0.67906051324E+02 -0.18722913196E+03 -0.11675908476E+03  0.23086503315E+03  0.00000000000E+00 0.  1.
          3    1    3    3  501    0  0.41791228949E+02  0.21119135625E+03  0.10475459940E+03  0.23941976081E+03  0.00000000000E+00 0.  1.
         21    1    1    2  502  501  0.26114822375E+02 -0.23962224289E+02 -0.24579339288E+02  0.43131381388E+02  0.00000000000E+00 0.  1.
<scales pt_clust_4="550.00000" pt_clust_5="550.00000" pt_clust_6="35.44254"></scales>
<mgrwt>
<rscale>  0 0.30000000E+03</rscale>
<asrwt>  1 0.35442537E+02</asrwt>
<pdfrwt beam="1">  1        1 0.86696791E+00 0.30000000E+03</pdfrwt>
<pdfrwt beam="2">0</pdfrwt>
<totfact> 0.27159060E-04</totfact>
</mgrwt>
<clustering>
<clus scale="   35.443">  1  6  2 -1</clus>
<clus scale="  468.794">  4  5 -1 -1</clus>
<clus scale="  300.000">  1  4  2 -1</clus>
</clustering>
</event>
<event>
 6    1  0.9254630E-012  0.3000000E+03  0.7818608E-02  0.1093470E+00
          1   -1    0    0  502    0  0.00000000000E+00  0.00000000000E+00  0.23709195605E+03  0.23709195605E+03  0.00000000000E+00 0.  1.
         13   -1    0    0    0    0 -0.00000000000E+00 -0.00000000000E+00 -0.27500000000E+03  0.27500000000E+03  0.00000000000E+00 0.  1.
    9000005    2    1    2  501    0  0.38092175072E+02  0.15888799845E+02 -0.38626322353E+02  0.47081261877E+03  0.46740674092E+03 0.  0.
         13    1    3    3    0    0  0.21603212551E+03 -0.75211185276E+02  0.75174154055E+02  0.24078570365E+03  0.00000000000E+00 0.  1.
          3    1    3    3  501    0 -0.17793995044E+03  0.91099985120E+02 -0.11380047641E+03  0.23002691513E+03  0.00000000000E+00 0.  1.
         21    1    1    2  502  501 -0.38092175072E+02 -0.15888799845E+02  0.71827840534E+00  0.41279337278E+02  0.00000000000E+00 0.  1.
<scales pt_clust_4="550.00000" pt_clust_5="550.00000" pt_clust_6="41.27309"></scales>
<mgrwt>
<rscale>  0 0.30000000E+03</rscale>
<asrwt>  1 0.41273088E+02</asrwt>
<pdfrwt beam="1">  1        1 0.86215257E+00 0.30000000E+03</pdfrwt>
<pdfrwt beam="2">0</pdfrwt>
<totfact> 0.29750733E-04</totfact>
</mgrwt>
<clustering>
<clus scale="   41.273">  1  6  2 -1</clus>
<clus scale="  467.407">  4  5 -1 -1</clus>
<clus scale="  300.000">  1  4  2 -1</clus>
</clustering>
</event>
<event>
 6    1  0.9254630E-012  0.3000000E+03  0.7818608E-02  0.1093470E+00
          1   -1    0    0  502    0  0.00000000000E+00  0.00000000000E+00  0.22759814911E+03  0.22759814911E+03  0.00000000000E+00 0.  1.
         13   -1    0    0    0    0 -0.00000000000E+00 -0.00000000000E+00 -0.27500000000E+03  0.27500000000E+03  0.00000000000E+00 0.  1.
    9000005    2    1    2  501    0 -0.35014963864E+02  0.19459854563E+02 -0.30774111569E+02  0.45922516963E+03  0.45643836040E+03 0.  0.
         13    1    3    3    0    0 -0.21697927426E+03 -0.80927581127E+02 -0.81152232284E+02  0.24538737468E+03  0.00000000000E+00 0.  1.
          1    1    3    3  501    0  0.18196431040E+03  0.10038743569E+03  0.50378120715E+02  0.21383779495E+03  0.00000000000E+00 0.  1.
         21    1    1    2  502  501  0.35014963864E+02 -0.19459854563E+02 -0.16627739324E+02  0.43372979481E+02  0.00000000000E+00 0.  1.
<scales pt_clust_4="550.00000" pt_clust_5="550.00000" pt_clust_6="40.05915"></scales>
<mgrwt>
<rscale>  0 0.30000000E+03</rscale>
<asrwt>  1 0.40059147E+02</asrwt>
<pdfrwt beam="1">  1        1 0.82762963E+00 0.30000000E+03</pdfrwt>
<pdfrwt beam="2">0</pdfrwt>
<totfact> 0.60386609E-04</totfact>
</mgrwt>
<clustering>
<clus scale="   40.059">  1  6  2 -1</clus>
<clus scale="  456.438">  4  5 -1 -1</clus>
<clus scale="  300.000">  1  4  2 -1</clus>
</clustering>
</event>
<event>
 6    1  0.9254630E-012  0.3000000E+03  0.7818608E-02  0.1093470E+00
          1   -1    0    0  502    0  0.00000000000E+00  0.00000000000E+00  0.23389549660E+03  0.23389549660E+03  0.00000000000E+00 0.  1.
         13   -1    0    0    0    0 -0.00000000000E+00 -0.00000000000E+00 -0.27500000000E+03  0.27500000000E+03  0.00000000000E+00 0.  1.
    9000005    2    1    2  501    0 -0.10313298089E+02 -0.29052865207E+02 -0.45662639960E+02  0.47773125904E+03  0.47454361873E+03 0.  0.
         13    1    3    3    0    0  0.16806648975E+03  0.11455175235E+03  0.77564391606E+02  0.21768023288E+03  0.00000000000E+00 0.  1.
          1    1    3    3  501    0 -0.17837978784E+03 -0.14360461756E+03 -0.12322703157E+03  0.26005102615E+03  0.00000000000E+00 0.  1.
         21    1    1    2  502  501  0.10313298089E+02  0.29052865207E+02  0.45581365619E+01  0.31164237567E+02  0.00000000000E+00 0.  1.
<scales pt_clust_4="550.00000" pt_clust_5="550.00000" pt_clust_6="30.82909"></scales>
<mgrwt>
<rscale>  0 0.30000000E+03</rscale>
<asrwt>  1 0.30829095E+02</asrwt>
<pdfrwt beam="1">  1        1 0.85052908E+00 0.30000000E+03</pdfrwt>
<pdfrwt beam="2">0</pdfrwt>
<totfact> 0.41212739E-04</totfact>
</mgrwt>
<clustering>
<clus scale="   30.829">  1  6  2 -1</clus>
<clus scale="  474.544">  4  5 -1 -1</clus>
<clus scale="  300.000">  1  4  2 -1</clus>
</clustering>
</event>
<event>
 6    1  0.9254630E-012  0.3000000E+03  0.7818608E-02  0.1093470E+00
          1   -1    0    0  502    0  0.00000000000E+00  0.00000000000E+00  0.24533109531E+03  0.24533109531E+03  0.00000000000E+00 0.  1.
         13   -1    0    0    0    0 -0.00000000000E+00 -0.00000000000E+00 -0.27500000000E+03  0.27500000000E+03  0.00000000000E+00 0.  1.
    9000005    2    1    2  501    0 -0.28659237945E+02  0.13374375779E+02 -0.51551132739E+02  0.48187257543E+03  0.47806216522E+03 0.  0.
         13    1    3    3    0    0 -0.22317305580E+03 -0.82190252461E+02  0.49223136941E+02  0.24286697521E+03  0.00000000000E+00 0.  1.
          1    1    3    3  501    0  0.19451381786E+03  0.95564628240E+02 -0.10077426968E+03  0.23900560022E+03  0.00000000000E+00 0.  1.
         21    1    1    2  502  501  0.28659237945E+02 -0.13374375779E+02  0.21882228045E+02  0.38458519879E+02  0.00000000000E+00 0.  1.
<scales pt_clust_4="550.00000" pt_clust_5="550.00000" pt_clust_6="31.62635"></scales>
<mgrwt>
<rscale>  0 0.30000000E+03</rscale>
<asrwt>  1 0.31626347E+02</asrwt>
<pdfrwt beam="1">  1        1 0.89211307E+00 0.30000000E+03</pdfrwt>
<pdfrwt beam="2">0</pdfrwt>
<totfact> 0.13885054E-04</totfact>
</mgrwt>
<clustering>
<clus scale="   31.626">  1  6  2 -1</clus>
<clus scale="  478.062">  4  5 -1 -1</clus>
<clus scale="  300.000">  1  4  2 -1</clus>
</clustering>
</event>
<event>
 6    1  0.9254630E-012  0.3000000E+03  0.7818608E-02  0.1093470E+00
          1   -1    0    0  502    0  0.00000000000E+00  0.00000000000E+00  0.23626367982E+03  0.23626367982E+03  0.00000000000E+00 0.  1.
         13   -1    0    0    0    0 -0.00000000000E+00 -0.00000000000E+00 -0.27500000000E+03  0.27500000000E+03  0.00000000000E+00 0.  1.
    9000005    2    1    2  501    0  0.33208692205E+02  0.20905726252E+02 -0.55512868017E+02  0.46858676351E+03  0.46362917272E+03 0.  0.
         13    1    3    3    0    0 -0.13764688355E+03 -0.59128254145E+02 -0.18626674691E+03  0.23903580484E+03  0.00000000000E+00 0.  1.
          1    1    3    3  501    0  0.17085557575E+03  0.80033980398E+02  0.13075387889E+03  0.22955095868E+03  0.00000000000E+00 0.  1.
         21    1    1    2  502  501 -0.33208692205E+02 -0.20905726252E+02  0.16776547837E+02  0.42676916306E+02  0.00000000000E+00 0.  1.
<scales pt_clust_4="550.00000" pt_clust_5="550.00000" pt_clust_6="39.24113"></scales>
<mgrwt>
<rscale>  0 0.30000000E+03</rscale>
<asrwt>  1 0.39241134E+02</asrwt>
<pdfrwt beam="1">  1        1 0.85914065E+00 0.30000000E+03</pdfrwt>
<pdfrwt beam="2">0</pdfrwt>
<totfact> 0.32341622E-04</totfact>
</mgrwt>
<clustering>
<clus scale="   39.241">  1  6  2 -1</clus>
<clus scale="  463.629">  4  5 -1 -1</clus>
<clus scale="  300.000">  1  4  2 -1</clus>
</clustering>
</event>
<event>
 6    1  0.9254630E-012  0.3000000E+03  0.7818608E-02  0.1093470E+00
          1   -1    0    0  502    0  0.00000000000E+00  0.00000000000E+00  0.25382615288E+03  0.25382615288E+03  0.00000000000E+00 0.  1.
         13   -1    0    0    0    0 -0.00000000000E+00 -0.00000000000E+00 -0.27500000000E+03  0.27500000000E+03  0.00000000000E+00 0.  1.
    9000005    2    1    2  501    0 -0.28646308515E+02  0.18894984877E+02 -0.25471881537E+02  0.49424140849E+03  0.49239021281E+03 0.  0.
         13    1    3    3    0    0 -0.18963462557E+03 -0.10989734647E+03 -0.13835630660E+03  0.25919333625E+03  0.00000000000E+00 0.  1.
          1    1    3    3  501    0  0.16098831706E+03  0.12879233134E+03  0.11288442507E+03  0.23504807224E+03  0.00000000000E+00 0.  1.
         21    1    1    2  502  501  0.28646308515E+02 -0.18894984877E+02  0.42980344206E+01  0.34584744396E+02  0.00000000000E+00 0. -1.
<scales pt_clust_4="550.00000" pt_clust_5="550.00000" pt_clust_6="34.31664"></scales>
<mgrwt>
<rscale>  0 0.30000000E+03</rscale>
<asrwt>  1 0.34316635E+02</asrwt>
<pdfrwt beam="1">  1        1 0.92300419E+00 0.30000000E+03</pdfrwt>
<pdfrwt beam="2">0</pdfrwt>
<totfact> 0.36209659E-05</totfact>
</mgrwt>
<clustering>
<clus scale="   34.317">  1  6  2 -1</clus>
<clus scale="  492.390">  4  5 -1 -1</clus>
<clus scale="  300.000">  1  4  2 -1</clus>
</clustering>
</event>
<event>
 6    1  0.9254630E-012  0.3000000E+03  0.7818608E-02  0.1093470E+00
          1   -1    0    0  502    0  0.00000000000E+00  0.00000000000E+00  0.24518390050E+03  0.24518390050E+03  0.00000000000E+00 0.  1.
         13   -1    0    0    0    0 -0.00000000000E+00 -0.00000000000E+00 -0.27500000000E+03  0.27500000000E+03  0.00000000000E+00 0.  1.
    9000005    2    1    2  501    0  0.20163382951E+01  0.30179183385E+02 -0.43032276799E+02  0.48717608215E+03  0.48432830750E+03 0.  0.
         13    1    3    3    0    0  0.20305498058E+02 -0.93611858081E+02 -0.23740786687E+03  0.25600388372E+03  0.00000000000E+00 0.  1.
          1    1    3    3  501    0 -0.18289159763E+02  0.12379104147E+03  0.19437559007E+03  0.23117219843E+03  0.00000000000E+00 0.  1.
         21    1    1    2  502  501 -0.20163382951E+01 -0.30179183385E+02  0.13216177302E+02  0.33007818353E+02  0.00000000000E+00 0. -1.
<scales pt_clust_4="550.00000" pt_clust_5="550.00000" pt_clust_6="30.24647"></scales>
<mgrwt>
<rscale>  0 0.30000000E+03</rscale>
<asrwt>  1 0.30246466E+02</asrwt>
<pdfrwt beam="1">  1        1 0.89157782E+00 0.30000000E+03</pdfrwt>
<pdfrwt beam="2">0</pdfrwt>
<totfact> 0.14218682E-04</totfact>
</mgrwt>
<clustering>
<clus scale="   30.246">  1  6  2 -1</clus>
<clus scale="  484.328">  4  5 -1 -1</clus>
<clus scale="  300.000">  1  4  2 -1</clus>
</clustering>
</event>
<event>
 6    1  0.9254630E-012  0.3000000E+03  0.7818608E-02  0.1093470E+00
          1   -1    0    0  502    0  0.00000000000E+00  0.00000000000E+00  0.23806657271E+03  0.23806657271E+03  0.00000000000E+00 0.  1.
         13   -1    0    0    0    0 -0.00000000000E+00 -0.00000000000E+00 -0.27500000000E+03  0.27500000000E+03  0.00000000000E+00 0.  1.
    9000005    2    1    2  501    0 -0.36647811645E+02  0.25644270403E+01 -0.45050440891E+02  0.47544311867E+03  0.47187602024E+03 0.  0.
         13    1    3    3    0    0  0.19988292028E+03  0.88202064192E+02  0.68623866018E+01  0.21858608898E+03  0.00000000000E+00 0.  1.
          1    1    3    3  501    0 -0.23653073192E+03 -0.85637637152E+02 -0.51912827493E+02  0.25685702969E+03  0.00000000000E+00 0.  1.
         21    1    1    2  502  501  0.36647811645E+02 -0.25644270403E+01  0.81170136037E+01  0.37623454045E+02  0.00000000000E+00 0. -1.
<scales pt_clust_4="550.00000" pt_clust_5="550.00000" pt_clust_6="36.73742"></scales>
<mgrwt>
<rscale>  0 0.30000000E+03</rscale>
<asrwt>  1 0.36737425E+02</asrwt>
<pdfrwt beam="1">  1        1 0.86569663E+00 0.30000000E+03</pdfrwt>
<pdfrwt beam="2">0</pdfrwt>
<totfact> 0.27830279E-04</totfact>
</mgrwt>
<clustering>
<clus scale="   36.737">  1  6  2 -1</clus>
<clus scale="  471.876">  4  5 -1 -1</clus>
<clus scale="  300.000">  1  4  2 -1</clus>
</clustering>
</event>
<event>
 6    1  0.9254630E-012  0.3000000E+03  0.7818608E-02  0.1093470E+00
          1   -1    0    0  502    0  0.00000000000E+00  0.00000000000E+00  0.23408726130E+03  0.23408726130E+03  0.00000000000E+00 0.  1.
         13   -1    0    0    0    0 -0.00000000000E+00 -0.00000000000E+00 -0.27500000000E+03  0.27500000000E+03  0.00000000000E+00 0.  1.
    9000005    2    1    2  501    0 -0.25442255303E+02 -0.24091736523E+02 -0.57898119296E+02  0.47014854949E+03  0.46525234684E+03 0.  0.
         13    1    3    3    0    0  0.20799828249E+03 -0.66590478209E+02  0.22656680606E+02  0.21956981232E+03  0.00000000000E+00 0.  1.
          1    1    3    3  501    0 -0.23344053780E+03  0.42498741686E+02 -0.80554799902E+02  0.25057873716E+03  0.00000000000E+00 0.  1.
         21    1    1    2  502  501  0.25442255303E+02  0.24091736523E+02  0.16985380596E+02  0.38938711813E+02  0.00000000000E+00 0.  1.
<scales pt_clust_4="550.00000" pt_clust_5="550.00000" pt_clust_6="35.03884"></scales>
<mgrwt>
<rscale>  0 0.30000000E+03</rscale>
<asrwt>  1 0.35038837E+02</asrwt>
<pdfrwt beam="1">  1        1 0.85122640E+00 0.30000000E+03</pdfrwt>
<pdfrwt beam="2">0</pdfrwt>
<totfact> 0.39619269E-04</totfact>
</mgrwt>
<clustering>
<clus scale="   35.039">  1  6  2 -1</clus>
<clus scale="  465.252">  4  5 -1 -1</clus>
<clus scale="  300.000">  1  4  2 -1</clus>
</clustering>
</event>
<event>
 6    1  0.9254630E-012  0.3000000E+03  0.7818608E-02  0.1093470E+00
          1   -1    0    0  502    0  0.00000000000E+00  0.00000000000E+00  0.24112840847E+03  0.24112840847E+03  0.00000000000E+00 0.  1.
         13   -1    0    0    0    0 -0.00000000000E+00 -0.00000000000E+00 -0.27500000000E+03  0.27500000000E+03  0.00000000000E+00 0.  1.
    9000005    2    1    2  501    0  0.21999679064E+02  0.21785069068E+02 -0.49842294943E+02  0.48129109398E+03  0.47770104424E+03 0.  0.
         13    1    3    3    0    0  0.21622196529E+03  0.13393919382E+03 -0.22114985023E+02  0.25530514777E+03  0.00000000000E+00 0.  1.
          3    1    3    3  501    0 -0.19422228623E+03 -0.11215412476E+03 -0.27727309920E+02  0.22598594621E+03  0.00000000000E+00 0.  1.
         21    1    1    2  502  501 -0.21999679064E+02 -0.21785069068E+02  0.15970703408E+02  0.34837314485E+02  0.00000000000E+00 0.  1.
<scales pt_clust_4="550.00000" pt_clust_5="550.00000" pt_clust_6="30.96086"></scales>
<mgrwt>
<rscale>  0 0.30000000E+03</rscale>
<asrwt>  1 0.30960864E+02</asrwt>
<pdfrwt beam="1">  1        1 0.87683058E+00 0.30000000E+03</pdfrwt>
<pdfrwt beam="2">0</pdfrwt>
<totfact> 0.21996257E-04</totfact>
</mgrwt>
<clustering>
<clus scale="   30.961">  1  6  2 -1</clus>
<clus scale="  477.701">  4  5 -1 -1</clus>
<clus scale="  300.000">  1  4  2 -1</clus>
</clustering>
</event>
<event>
 6    1  0.9254630E-012  0.3000000E+03  0.7818608E-02  0.1093470E+00
          1   -1    0    0  502    0  0.00000000000E+00  0.00000000000E+00  0.23125033470E+03  0.23125033470E+03  0.00000000000E+00 0.  1.
         13   -1    0    0    0    0 -0.00000000000E+00 -0.00000000000E+00 -0.27500000000E+03  0.27500000000E+03  0.00000000000E+00 0.  1.
    9000005    2    1    2  501    0 -0.39497470738E+01 -0.36414283512E+02 -0.67427267826E+02  0.46263577971E+03  0.45622782431E+03 0.  0.
         13    1    3    3    0    0  0.20532881948E+02  0.10645977038E+03  0.15979970001E+03  0.19310936299E+03  0.00000000000E+00 0.  1.
          1    1    3    3  501    0 -0.24482629022E+02 -0.14287405389E+03 -0.22722696783E+03  0.26952641672E+03  0.00000000000E+00 0.  1.
         21    1    1    2  502  501  0.39497470738E+01  0.36414283512E+02  0.23677602523E+02  0.43614554988E+02  0.00000000000E+00 0.  1.
<scales pt_clust_4="550.00000" pt_clust_5="550.00000" pt_clust_6="36.62787"></scales>
<mgrwt>
<rscale>  0 0.30000000E+03</rscale>
<asrwt>  1 0.36627866E+02</asrwt>
<pdfrwt beam="1">  1        1 0.84091031E+00 0.30000000E+03</pdfrwt>
<pdfrwt beam="2">0</pdfrwt>
<totfact> 0.48487041E-04</totfact>
</mgrwt>
<clustering>
<clus scale="   36.628">  1  6  2 -1</clus>
<clus scale="  456.228">  4  5 -1 -1</clus>
<clus scale="  300.000">  1  4  2 -1</clus>
</clustering>
</event>
<event>
 6    1  0.9254630E-012  0.3000000E+03  0.7818608E-02  0.1093470E+00
          1   -1    0    0  502    0  0.00000000000E+00  0.00000000000E+00  0.22971523678E+03  0.22971523678E+03  0.00000000000E+00 0.  1.
         13   -1    0    0    0    0 -0.00000000000E+00 -0.00000000000E+00 -0.27500000000E+03  0.27500000000E+03  0.00000000000E+00 0.  1.
    9000005    2    1    2  501    0  0.18636643592E+02  0.32724825080E+02 -0.56502549904E+02  0.46542048651E+03  0.46044049828E+03 0.  0.
         13    1    3    3    0    0  0.10070562057E+03 -0.19508542334E+03 -0.18621681925E+02  0.22033318282E+03  0.00000000000E+00 0.  1.
          3    1    3    3  501    0 -0.82068976982E+02  0.22781024842E+03 -0.37880867979E+02  0.24508730368E+03  0.00000000000E+00 0.  1.
         21    1    1    2  502  501 -0.18636643592E+02 -0.32724825080E+02  0.11217786680E+02  0.39294750271E+02  0.00000000000E+00 0.  1.
<scales pt_clust_4="550.00000" pt_clust_5="550.00000" pt_clust_6="37.65951"></scales>
<mgrwt>
<rscale>  0 0.30000000E+03</rscale>
<asrwt>  1 0.37659510E+02</asrwt>
<pdfrwt beam="1">  1        1 0.83532813E+00 0.30000000E+03</pdfrwt>
<pdfrwt beam="2">0</pdfrwt>
<totfact> 0.53074689E-04</totfact>
</mgrwt>
<clustering>
<clus scale="   37.660">  1  6  2 -1</clus>
<clus scale="  460.440">  4  5 -1 -1</clus>
<clus scale="  300.000">  1  4  2 -1</clus>
</clustering>
</event>
<event>
 6    1  0.9254630E-012  0.3000000E+03  0.7818608E-02  0.1093470E+00
          1   -1    0    0  502    0  0.00000000000E+00  0.00000000000E+00  0.23137828044E+03  0.23137828044E+03  0.00000000000E+00 0.  1.
         13   -1    0    0    0    0 -0.00000000000E+00 -0.00000000000E+00 -0.27500000000E+03  0.27500000000E+03  0.00000000000E+00 0.  1.
    9000005    2    1    2  501    0 -0.15820427870E+02  0.34180924455E+02 -0.47552960711E+02  0.46850908199E+03  0.46456523148E+03 0.  0.
         13    1    3    3    0    0 -0.10718551088E+03  0.95284427623E+02 -0.22082895234E+03  0.26331213812E+03  0.00000000000E+00 0.  1.
          1    1    3    3  501    0  0.91365083014E+02 -0.61103503168E+02  0.17327599163E+03  0.20519694386E+03  0.00000000000E+00 0.  1.
         21    1    1    2  502  501  0.15820427870E+02 -0.34180924455E+02  0.39312411510E+01  0.37869198455E+02  0.00000000000E+00 0.  1.
<scales pt_clust_4="550.00000" pt_clust_5="550.00000" pt_clust_6="37.66459"></scales>
<mgrwt>
<rscale>  0 0.30000000E+03</rscale>
<asrwt>  1 0.37664593E+02</asrwt>
<pdfrwt beam="1">  1        1 0.84137557E+00 0.30000000E+03</pdfrwt>
<pdfrwt beam="2">0</pdfrwt>
<totfact> 0.47826251E-04</totfact>
</mgrwt>
<clustering>
<clus scale="   37.665">  1  6  2 -1</clus>
<clus scale="  464.565">  4  5 -1 -1</clus>
<clus scale="  300.000">  1  4  2 -1</clus>
</clustering>
</event>
<event>
 6    1  0.9254630E-012  0.3000000E+03  0.7818608E-02  0.1093470E+00
          1   -1    0    0  502    0  0.00000000000E+00  0.00000000000E+00  0.25205061975E+03  0.25205061975E+03  0.00000000000E+00 0.  1.
         13   -1    0    0    0    0 -0.00000000000E+00 -0.00000000000E+00 -0.27500000000E+03  0.27500000000E+03  0.00000000000E+00 0.  1.
    9000005    2    1    2  501    0 -0.19490608206E+02  0.23871113233E+02 -0.80250472251E+01  0.49280956877E+03  0.49177958054E+03 0.  0.
         13    1    3    3    0    0  0.53483021811E+02 -0.22580314869E+03 -0.15651244811E+02  0.23257785158E+03  0.00000000000E+00 0.  1.
          3    1    3    3  501    0 -0.72973630017E+02  0.24967426192E+03  0.76261975860E+01  0.26023171720E+03  0.00000000000E+00 0.  1.
         21    1    1    2  502  501  0.19490608206E+02 -0.23871113233E+02 -0.14924333030E+02  0.34241050971E+02  0.00000000000E+00 0.  1.
<scales pt_clust_4="550.00000" pt_clust_5="550.00000" pt_clust_6="30.81744"></scales>
<mgrwt>
<rscale>  0 0.30000000E+03</rscale>
<asrwt>  1 0.30817443E+02</asrwt>
<pdfrwt beam="1">  1        1 0.91654771E+00 0.30000000E+03</pdfrwt>
<pdfrwt beam="2">0</pdfrwt>
<totfact> 0.51100139E-05</totfact>
</mgrwt>
<clustering>
<clus scale="   30.817">  1  6  2 -1</clus>
<clus scale="  491.780">  4  5 -1 -1</clus>
<clus scale="  300.000">  1  4  2 -1</clus>
</clustering>
</event>
<event>
 6    1  0.9254630E-012  0.3000000E+03  0.7818608E-02  0.1093470E+00
          1   -1    0    0  502    0  0.00000000000E+00  0.00000000000E+00  0.23624902038E+03  0.23624902038E+03  0.00000000000E+00 0.  1.
         13   -1    0    0    0    0 -0.00000000000E+00 -0.00000000000E+00 -0.27500000000E+03  0.27500000000E+03  0.00000000000E+00 0.  1.
    9000005    2    1    2  501    0  0.23724298187E+02  0.22775250896E+02 -0.40198050411E+02  0.47833020522E+03  0.47550220566E+03 0.  0.
         13    1    3    3    0    0  0.21421284825E+03  0.10846547903E+03 -0.10144830054E+03  0.26066005099E+03  0.00000000000E+00 0.  1.
          1    1    3    3  501    0 -0.19048855006E+03 -0.85690228133E+02  0.61250250131E+02  0.21767015423E+03  0.00000000000E+00 0.  1.
         21    1    1    2  502  501 -0.23724298187E+02 -0.22775250896E+02  0.14470707929E+01  0.32918815163E+02  0.00000000000E+00 0.  1.
<scales pt_clust_4="550.00000" pt_clust_5="550.00000" pt_clust_6="32.88699"></scales>
<mgrwt>
<rscale>  0 0.30000000E+03</rscale>
<asrwt>  1 0.32886994E+02</asrwt>
<pdfrwt beam="1">  1        1 0.85908735E+00 0.30000000E+03</pdfrwt>
<pdfrwt beam="2">0</pdfrwt>
<totfact> 0.33466227E-04</totfact>
</mgrwt>
<clustering>
<clus scale="   32.887">  1  6  2 -1</clus>
<clus scale="  475.502">  4  5 -1 -1</clus>
<clus scale="  300.000">  1  4  2 -1</clus>
</clustering>
</event>
<event>
 6    1  0.9254630E-012  0.3000000E+03  0.7818608E-02  0.1093470E+00
          1   -1    0    0  502    0  0.00000000000E+00  0.00000000000E+00  0.24334533868E+03  0.24334533868E+03  0.00000000000E+00 0.  1.
         13   -1    0    0    0    0 -0.00000000000E+00 -0.00000000000E+00 -0.27500000000E+03  0.27500000000E+03  0.00000000000E+00 0.  1.
    9000005    2    1    2  501    0  0.29402111410E+02 -0.11977056138E+02 -0.55137272468E+02  0.47885651678E+03  0.47461090465E+03 0.  0.
         13    1    3    3    0    0 -0.10402419098E+03 -0.16604789135E+03  0.10255813237E+03  0.22115855183E+03  0.00000000000E+00 0.  1.
          1    1    3    3  501    0  0.13342630239E+03  0.15407083521E+03 -0.15769540484E+03  0.25769796495E+03  0.00000000000E+00 0.  1.
         21    1    1    2  502  501 -0.29402111410E+02  0.11977056138E+02  0.23482611150E+02  0.39488821906E+02  0.00000000000E+00 0.  1.
<scales pt_clust_4="550.00000" pt_clust_5="550.00000" pt_clust_6="31.74798"></scales>
<mgrwt>
<rscale>  0 0.30000000E+03</rscale>
<asrwt>  1 0.31747977E+02</asrwt>
<pdfrwt beam="1">  1        1 0.88489214E+00 0.30000000E+03</pdfrwt>
<pdfrwt beam="2">0</pdfrwt>
<totfact> 0.17344915E-04</totfact>
</mgrwt>
<clustering>
<clus scale="   31.748">  1  6  2 -1</clus>
<clus scale="  474.611">  4  5 -1 -1</clus>
<clus scale="  300.000">  1  4  2 -1</clus>
</clustering>
</event>
<event>
 6    1  0.9254630E-012  0.3000000E+03  0.7818608E-02  0.1093470E+00
          1   -1    0    0  502    0  0.00000000000E+00  0.00000000000E+00  0.23351850436E+03  0.23351850436E+03  0.00000000000E+00 0.  1.
         13   -1    0    0    0    0 -0.00000000000E+00 -0.00000000000E+00 -0.27500000000E+03  0.27500000000E+03  0.00000000000E+00 0.  1.
    9000005    2    1    2  501    0 -0.34172017725E+01  0.31068395520E+02 -0.66361980933E+02  0.46856902356E+03  0.46279163222E+03 0.  0.
         13    1    3    3    0    0 -0.14263059511E+03  0.15099372275E+03  0.90887204250E+02  0.22672246221E+03  0.00000000000E+00 0.  1.
          1    1    3    3  501    0  0.13921339334E+03 -0.11992532723E+03 -0.15724918518E+03  0.24184656135E+03  0.00000000000E+00 0.  1.
         21    1    1    2  502  501  0.34172017725E+01 -0.31068395520E+02  0.24880485297E+02  0.39949480807E+02  0.00000000000E+00 0.  1.
<scales pt_clust_4="550.00000" pt_clust_5="550.00000" pt_clust_6="31.25576"></scales>
<mgrwt>
<rscale>  0 0.30000000E+03</rscale>
<asrwt>  1 0.31255759E+02</asrwt>
<pdfrwt beam="1">  1        1 0.84915820E+00 0.30000000E+03</pdfrwt>
<pdfrwt beam="2">0</pdfrwt>
<totfact> 0.42337763E-04</totfact>
</mgrwt>
<clustering>
<clus scale="   31.256">  1  6  2 -1</clus>
<clus scale="  462.792">  4  5 -1 -1</clus>
<clus scale="  300.000">  1  4  2 -1</clus>
</clustering>
</event>
<event>
 6    1  0.9254630E-012  0.3000000E+03  0.7818608E-02  0.1093470E+00
          1   -1    0    0  502    0  0.00000000000E+00  0.00000000000E+00  0.23047373107E+03  0.23047373107E+03  0.00000000000E+00 0.  1.
         13   -1    0    0    0    0 -0.00000000000E+00 -0.00000000000E+00 -0.27500000000E+03  0.27500000000E+03  0.00000000000E+00 0.  1.
    9000005    2    1    2  501    0 -0.88801591660E+01 -0.35631315643E+02 -0.47661178472E+02  0.46861894116E+03  0.46474043960E+03 0.  0.
         13    1    3    3    0    0  0.45743652658E+02  0.20851672433E+03  0.23360854347E+01  0.21348808721E+03  0.00000000000E+00 0.  1.
          3    1    3    3  501    0 -0.54623811824E+02 -0.24414803997E+03 -0.49997263907E+02  0.25513085395E+03  0.00000000000E+00 0.  1.
         21    1    1    2  502  501  0.88801591660E+01  0.35631315643E+02  0.31349095379E+01  0.36854789907E+02  0.00000000000E+00 0. -1.
<scales pt_clust_4="550.00000" pt_clust_5="550.00000" pt_clust_6="36.72122"></scales>
<mgrwt>
<rscale>  0 0.30000000E+03</rscale>
<asrwt>  1 0.36721218E+02</asrwt>
<pdfrwt beam="1">  1        1 0.83808629E+00 0.30000000E+03</pdfrwt>
<pdfrwt beam="2">0</pdfrwt>
<totfact> 0.50914831E-04</totfact>
</mgrwt>
<clustering>
<clus scale="   36.721">  1  6  2 -1</clus>
<clus scale="  464.740">  4  5 -1 -1</clus>
<clus scale="  300.000">  1  4  2 -1</clus>
</clustering>
</event>
<event>
 6    1  0.9254630E-012  0.3000000E+03  0.7818608E-02  0.1093470E+00
          1   -1    0    0  502    0  0.00000000000E+00  0.00000000000E+00  0.23162274671E+03  0.23162274671E+03  0.00000000000E+00 0.  1.
         13   -1    0    0    0    0 -0.00000000000E+00 -0.00000000000E+00 -0.27500000000E+03  0.27500000000E+03  0.00000000000E+00 0.  1.
    9000005    2    1    2  501    0 -0.66252513500E+01  0.31075442352E+02 -0.70812561332E+02  0.46464330889E+03  0.45811506041E+03 0.  0.
         13    1    3    3    0    0 -0.16626407884E+03  0.17688728455E+03 -0.29841857353E+02  0.24458820862E+03  0.00000000000E+00 0.  1.
          3    1    3    3  501    0  0.15963882749E+03 -0.14581184220E+03 -0.40970703980E+02  0.22005510026E+03  0.00000000000E+00 0.  1.
         21    1    1    2  502  501  0.66252513500E+01 -0.31075442352E+02  0.27435308047E+02  0.41979437829E+02  0.00000000000E+00 0.  1.
<scales pt_clust_4="550.00000" pt_clust_5="550.00000" pt_clust_6="31.77384"></scales>
<mgrwt>
<rscale>  0 0.30000000E+03</rscale>
<asrwt>  1 0.31773843E+02</asrwt>
<pdfrwt beam="1">  1        1 0.84226453E+00 0.30000000E+03</pdfrwt>
<pdfrwt beam="2">0</pdfrwt>
<totfact> 0.48553386E-04</totfact>
</mgrwt>
<clustering>
<clus scale="   31.774">  1  6  2 -1</clus>
<clus scale="  458.115">  4  5 -1 -1</clus>
<clus scale="  300.000">  1  4  2 -1</clus>
</clustering>
</event>
<event>
 6    1  0.9254630E-012  0.3000000E+03  0.7818608E-02  0.1093470E+00
          1   -1    0    0  502    0  0.00000000000E+00  0.00000000000E+00  0.23954021787E+03  0.23954021787E+03  0.00000000000E+00 0.  1.
         13   -1    0    0    0    0 -0.00000000000E+00 -0.00000000000E+00 -0.27500000000E+03  0.27500000000E+03  0.00000000000E+00 0.  1.
    9000005    2    1    2  501    0 -0.34705686556E+01  0.40275074750E+02 -0.22090274209E+02  0.47196240399E+03  0.46970885033E+03 0.  0.
         13    1    3    3    0    0  0.15224429206E+03  0.19765136727E+03 -0.23230806195E+02  0.25056747156E+03  0.00000000000E+00 0.  1.
          3    1    3    3  501    0 -0.15571486072E+03 -0.15737629252E+03  0.11405319855E+01  0.22139493243E+03  0.00000000000E+00 0.  1.
         21    1    1    2  502  501  0.34705686556E+01 -0.40275074750E+02 -0.13369507916E+02  0.42577813880E+02  0.00000000000E+00 0.  1.
<scales pt_clust_4="550.00000" pt_clust_5="550.00000" pt_clust_6="40.42435"></scales>
<mgrwt>
<rscale>  0 0.30000000E+03</rscale>
<asrwt>  1 0.40424351E+02</asrwt>
<pdfrwt beam="1">  1        1 0.87105534E+00 0.30000000E+03</pdfrwt>
<pdfrwt beam="2">0</pdfrwt>
<totfact> 0.24056067E-04</totfact>
</mgrwt>
<clustering>
<clus scale="   40.424">  1  6  2 -1</clus>
<clus scale="  469.709">  4  5 -1 -1</clus>
<clus scale="  300.000">  1  4  2 -1</clus>
</clustering>
</event>
<event>
 6    1  0.9254630E-012  0.3000000E+03  0.7818608E-02  0.1093470E+00
          1   -1    0    0  502    0  0.00000000000E+00  0.00000000000E+00  0.23236431221E+03  0.23236431221E+03  0.00000000000E+00 0.  1.
         13   -1    0    0    0    0 -0.00000000000E+00 -0.00000000000E+00 -0.27500000000E+03  0.27500000000E+03  0.00000000000E+00 0.  1.
    9000005    2    1    2  501    0 -0.15228942713E+02 -0.29291500324E+02 -0.53639129403E+02  0.47256505338E+03  0.46834886654E+03 0.  0.
         13    1    3    3    0    0  0.12230720529E+03  0.51370364608E+02  0.15881801256E+03  0.20693266523E+03  0.00000000000E+00 0.  1.
          3    1    3    3  501    0 -0.13753614801E+03 -0.80661864932E+02 -0.21245714196E+03  0.26563238815E+03  0.00000000000E+00 0.  1.
         21    1    1    2  502  501  0.15228942713E+02  0.29291500324E+02  0.11003441611E+02  0.34799258824E+02  0.00000000000E+00 0.  1.
<scales pt_clust_4="550.00000" pt_clust_5="550.00000" pt_clust_6="33.01383"></scales>
<mgrwt>
<rscale>  0 0.30000000E+03</rscale>
<asrwt>  1 0.33013826E+02</asrwt>
<pdfrwt beam="1">  1        1 0.84496114E+00 0.30000000E+03</pdfrwt>
<pdfrwt beam="2">0</pdfrwt>
<totfact> 0.45717243E-04</totfact>
</mgrwt>
<clustering>
<clus scale="   33.014">  1  6  2 -1</clus>
<clus scale="  468.349">  4  5 -1 -1</clus>
<clus scale="  300.000">  1  4  2 -1</clus>
</clustering>
</event>
<event>
 6    1  0.9254630E-012  0.3000000E+03  0.7818608E-02  0.1093470E+00
          1   -1    0    0  502    0  0.00000000000E+00  0.00000000000E+00  0.24135732093E+03  0.24135732093E+03  0.00000000000E+00 0.  1.
         13   -1    0    0    0    0 -0.00000000000E+00 -0.00000000000E+00 -0.27500000000E+03  0.27500000000E+03  0.00000000000E+00 0.  1.
    9000005    2    1    2  501    0 -0.21960253108E+02 -0.23444569231E+02 -0.57527437173E+02  0.47632755435E+03  0.47174848432E+03 0.  0.
         13    1    3    3    0    0  0.15230470352E+03  0.11678798429E+03  0.86256226474E+02  0.21041932562E+03  0.00000000000E+00 0.  1.
          3    1    3    3  501    0 -0.17426495663E+03 -0.14023255352E+03 -0.14378366365E+03  0.26590822873E+03  0.00000000000E+00 0.  1.
         21    1    1    2  502  501  0.21960253108E+02  0.23444569231E+02  0.23884758104E+02  0.40029766583E+02  0.00000000000E+00 0.  1.
<scales pt_clust_4="550.00000" pt_clust_5="550.00000" pt_clust_6="32.12321"></scales>
<mgrwt>
<rscale>  0 0.30000000E+03</rscale>
<asrwt>  1 0.32123209E+02</asrwt>
<pdfrwt beam="1">  1        1 0.87766299E+00 0.30000000E+03</pdfrwt>
<pdfrwt beam="2">0</pdfrwt>
<totfact> 0.21378453E-04</totfact>
</mgrwt>
<clustering>
<clus scale="   32.123">  1  6  2 -1</clus>
<clus scale="  471.748">  4  5 -1 -1</clus>
<clus scale="  300.000">  1  4  2 -1</clus>
</clustering>
</event>
<event>
 6    1  0.9254630E-012  0.3000000E+03  0.7818608E-02  0.1093470E+00
          1   -1    0    0  502    0  0.00000000000E+00  0.00000000000E+00  0.25014773303E+03  0.25014773303E+03  0.00000000000E+00 0.  1.
         13   -1    0    0    0    0 -0.00000000000E+00 -0.00000000000E+00 -0.27500000000E+03  0.27500000000E+03  0.00000000000E+00 0.  1.
    9000005    2    1    2  501    0 -0.23877517900E+02  0.19550084801E+02 -0.53378841350E+02  0.48312265572E+03  0.47917205479E+03 0.  0.
         13    1    3    3    0    0  0.65420777990E+02  0.23035262083E+03  0.25874784438E+02  0.24085620728E+03  0.00000000000E+00 0.  1.
          3    1    3    3  501    0 -0.89298295890E+02 -0.21080253602E+03 -0.79253625788E+02  0.24226644845E+03  0.00000000000E+00 0.  1.
         21    1    1    2  502  501  0.23877517900E+02 -0.19550084801E+02  0.28526574383E+02  0.42025077309E+02  0.00000000000E+00 0.  1.
<scales pt_clust_4="550.00000" pt_clust_5="550.00000" pt_clust_6="30.86003"></scales>
<mgrwt>
<rscale>  0 0.30000000E+03</rscale>
<asrwt>  1 0.30860034E+02</asrwt>
<pdfrwt beam="1">  1        1 0.90962812E+00 0.30000000E+03</pdfrwt>
<pdfrwt beam="2">0</pdfrwt>
<totfact> 0.75130603E-05</totfact>
</mgrwt>
<clustering>
<clus scale="   30.860">  1  6  2 -1</clus>
<clus scale="  479.172">  4  5 -1 -1</clus>
<clus scale="  300.000">  1  4  2 -1</clus>
</clustering>
</event>
<event>
 6    1  0.9254630E-012  0.3000000E+03  0.7818608E-02  0.1093470E+00
          1   -1    0    0  502    0  0.00000000000E+00  0.00000000000E+00  0.22584594090E+03  0.22584594090E+03  0.00000000000E+00 0.  1.
         13   -1    0    0    0    0 -0.00000000000E+00 -0.00000000000E+00 -0.27500000000E+03  0.27500000000E+03  0.00000000000E+00 0.  1.
    9000005    2    1    2  501    0 -0.13288639140E+02 -0.29936722496E+02 -0.34734654937E+02  0.46505886921E+03  0.46260183775E+03 0.  0.
         13    1    3    3    0    0 -0.19765141216E+03 -0.12312814363E+03  0.55886726937E+02  0.23947848908E+03  0.00000000000E+00 0.  1.
          1    1    3    3  501    0  0.18436277302E+03  0.93191421139E+02 -0.90621381874E+02  0.22558038013E+03  0.00000000000E+00 0.  1.
         21    1    1    2  502  501  0.13288639140E+02  0.29936722496E+02 -0.14419404162E+02  0.35787071693E+02  0.00000000000E+00 0.  1.
<scales pt_clust_4="550.00000" pt_clust_5="550.00000" pt_clust_6="32.75357"></scales>
<mgrwt>
<rscale>  0 0.30000000E+03</rscale>
<asrwt>  1 0.32753570E+02</asrwt>
<pdfrwt beam="1">  1        1 0.82125797E+00 0.30000000E+03</pdfrwt>
<pdfrwt beam="2">0</pdfrwt>
<totfact> 0.71408572E-04</totfact>
</mgrwt>
<clustering>
<clus scale="   32.754">  1  6  2 -1</clus>
<clus scale="  462.602">  4  5 -1 -1</clus>
<clus scale="  300.000">  1  4  2 -1</clus>
</clustering>
</event>
<event>
 6    1  0.9254630E-012  0.3000000E+03  0.7818608E-02  0.1093470E+00
          1   -1    0    0  502    0  0.00000000000E+00  0.00000000000E+00  0.23393841482E+03  0.23393841482E+03  0.00000000000E+00 0.  1.
         13   -1    0    0    0    0 -0.00000000000E+00 -0.00000000000E+00 -0.27500000000E+03  0.27500000000E+03  0.00000000000E+00 0.  1.
    9000005    2    1    2  501    0  0.25837427883E+02  0.22270945787E+02 -0.48068801209E+02  0.47411502064E+03  0.47043689846E+03 0.  0.
         13    1    3    3    0    0  0.78277664689E+02 -0.18901042061E+03 -0.12901355545E+03  0.24186117791E+03  0.00000000000E+00 0.  1.
          1    1    3    3  501    0 -0.52440236805E+02  0.21128136640E+03  0.80944754236E+02  0.23225384273E+03  0.00000000000E+00 0.  1.
         21    1    1    2  502  501 -0.25837427883E+02 -0.22270945787E+02  0.70072160268E+01  0.34823394181E+02  0.00000000000E+00 0. -1.
<scales pt_clust_4="550.00000" pt_clust_5="550.00000" pt_clust_6="34.11111"></scales>
<mgrwt>
<rscale>  0 0.30000000E+03</rscale>
<asrwt>  1 0.34111108E+02</asrwt>
<pdfrwt beam="1">  1        1 0.85068514E+00 0.30000000E+03</pdfrwt>
<pdfrwt beam="2">0</pdfrwt>
<totfact> 0.40292281E-04</totfact>
</mgrwt>
<clustering>
<clus scale="   34.111">  1  6  2 -1</clus>
<clus scale="  470.437">  4  5 -1 -1</clus>
<clus scale="  300.000">  1  4  2 -1</clus>
</clustering>
</event>
<event>
 6    1  0.9254630E-012  0.3000000E+03  0.7818608E-02  0.1093470E+00
          1   -1    0    0  502    0  0.00000000000E+00  0.00000000000E+00  0.23666597059E+03  0.23666597059E+03  0.00000000000E+00 0.  1.
         13   -1    0    0    0    0 -0.00000000000E+00 -0.00000000000E+00 -0.27500000000E+03  0.27500000000E+03  0.00000000000E+00 0.  1.
    9000005    2    1    2  501    0 -0.32983815621E+02  0.13140131253E+02 -0.40878182625E+02  0.47607007395E+03  0.47298107188E+03 0.  0.
         13    1    3    3    0    0 -0.20528794664E+03  0.15001335580E+03 -0.22514337021E+02  0.25525290072E+03  0.00000000000E+00 0.  1.
          1    1    3    3  501    0  0.17230413102E+03 -0.13687322455E+03 -0.18363845605E+02  0.22081717323E+03  0.00000000000E+00 0.  1.
         21    1    1    2  502  501  0.32983815621E+02 -0.13140131253E+02  0.25441532179E+01  0.35595896643E+02  0.00000000000E+00 0.  1.
<scales pt_clust_4="550.00000" pt_clust_5="550.00000" pt_clust_6="35.50486"></scales>
<mgrwt>
<rscale>  0 0.30000000E+03</rscale>
<asrwt>  1 0.35504861E+02</asrwt>
<pdfrwt beam="1">  1        1 0.86060353E+00 0.30000000E+03</pdfrwt>
<pdfrwt beam="2">0</pdfrwt>
<totfact> 0.31784022E-04</totfact>
</mgrwt>
<clustering>
<clus scale="   35.505">  1  6  2 -1</clus>
<clus scale="  472.981">  4  5 -1 -1</clus>
<clus scale="  300.000">  1  4  2 -1</clus>
</clustering>
</event>
<event>
 6    1  0.9254630E-012  0.3000000E+03  0.7818608E-02  0.1093470E+00
          1   -1    0    0  502    0  0.00000000000E+00  0.00000000000E+00  0.24099128239E+03  0.24099128239E+03  0.00000000000E+00 0.  1.
         13   -1    0    0    0    0 -0.00000000000E+00 -0.00000000000E+00 -0.27500000000E+03  0.27500000000E+03  0.00000000000E+00 0.  1.
    9000005    2    1    2  501    0  0.15360344238E+02 -0.27286738806E+02 -0.59616409712E+02  0.47554056936E+03  0.47074856400E+03 0.  0.
         13    1    3    3    0    0  0.20540603972E+03  0.46263160085E+02  0.83520924706E+02  0.22651195553E+03  0.00000000000E+00 0.  1.
          1    1    3    3  501    0 -0.19004569549E+03 -0.73549898891E+02 -0.14313733442E+03  0.24902861383E+03  0.00000000000E+00 0.  1.
         21    1    1    2  502  501 -0.15360344238E+02  0.27286738806E+02  0.25607692103E+02  0.40450713030E+02  0.00000000000E+00 0.  1.
<scales pt_clust_4="550.00000" pt_clust_5="550.00000" pt_clust_6="31.31304"></scales>
<mgrwt>
<rscale>  0 0.30000000E+03</rscale>
<asrwt>  1 0.31313037E+02</asrwt>
<pdfrwt beam="1">  1        1 0.87633194E+00 0.30000000E+03</pdfrwt>
<pdfrwt beam="2">0</pdfrwt>
<totfact> 0.22227118E-04</totfact>
</mgrwt>
<clustering>
<clus scale="   31.313">  1  6  2 -1</clus>
<clus scale="  470.749">  4  5 -1 -1</clus>
<clus scale="  300.000">  1  4  2 -1</clus>
</clustering>
</event>
<event>
 6    1  0.9254630E-012  0.3000000E+03  0.7818608E-02  0.1093470E+00
          1   -1    0    0  502    0  0.00000000000E+00  0.00000000000E+00  0.23172248156E+03  0.23172248156E+03  0.00000000000E+00 0.  1.
         13   -1    0    0    0    0 -0.00000000000E+00 -0.00000000000E+00 -0.27500000000E+03  0.27500000000E+03  0.00000000000E+00 0.  1.
    9000005    2    1    2  501    0  0.25123369319E+02  0.36422562407E+02 -0.51396759188E+02  0.46173683042E+03  0.45672911772E+03 0.  0.
         13    1    3    3    0    0 -0.20786337797E+03 -0.38710426569E+02  0.77048970561E+00  0.21143858371E+03  0.00000000000E+00 0.  1.
          1    1    3    3  501    0  0.23298674729E+03  0.75132988975E+02 -0.52167248894E+02  0.25029824671E+03  0.00000000000E+00 0.  1.
         21    1    1    2  502  501 -0.25123369319E+02 -0.36422562407E+02  0.81192407456E+01  0.44985651140E+02  0.00000000000E+00 0.  1.
<scales pt_clust_4="550.00000" pt_clust_5="550.00000" pt_clust_6="44.24688"></scales>
<mgrwt>
<rscale>  0 0.30000000E+03</rscale>
<asrwt>  1 0.44246884E+02</asrwt>
<pdfrwt beam="1">  1        1 0.84262721E+00 0.30000000E+03</pdfrwt>
<pdfrwt beam="2">0</pdfrwt>
<totfact> 0.45355755E-04</totfact>
</mgrwt>
<clustering>
<clus scale="   44.247">  1  6  2 -1</clus>
<clus scale="  456.729">  4  5 -1 -1</clus>
<clus scale="  300.000">  1  4  2 -1</clus>
</clustering>
</event>
<event>
 6    1  0.9254630E-012  0.3000000E+03  0.7818608E-02  0.1093470E+00
          1   -1    0    0  502    0  0.00000000000E+00  0.00000000000E+00  0.24374618351E+03  0.24374618351E+03  0.00000000000E+00 0.  1.
         13   -1    0    0    0    0 -0.00000000000E+00 -0.00000000000E+00 -0.27500000000E+03  0.27500000000E+03  0.00000000000E+00 0.  1.
    9000005    2    1    2  501    0 -0.30331684053E+02  0.19895516342E+02 -0.58484704555E+02  0.47338801012E+03  0.46835873520E+03 0.  0.
         13    1    3    3    0    0 -0.12298486046E+03  0.21489744730E+03  0.72535163806E+01  0.24770708964E+03  0.00000000000E+00 0.  1.
          3    1    3    3  501    0  0.92653176406E+02 -0.19500193096E+03 -0.65738220935E+02  0.22568092048E+03  0.00000000000E+00 0.  1.
         21    1    1    2  502  501  0.30331684053E+02 -0.19895516342E+02  0.27230888064E+02  0.45358173385E+02  0.00000000000E+00 0.  1.
<scales pt_clust_4="550.00000" pt_clust_5="550.00000" pt_clust_6="36.27455"></scales>
<mgrwt>
<rscale>  0 0.30000000E+03</rscale>
<asrwt>  1 0.36274545E+02</asrwt>
<pdfrwt beam="1">  1        1 0.88634976E+00 0.30000000E+03</pdfrwt>
<pdfrwt beam="2">0</pdfrwt>
<totfact> 0.16151964E-04</totfact>
</mgrwt>
<clustering>
<clus scale="   36.275">  1  6  2 -1</clus>
<clus scale="  468.359">  4  5 -1 -1</clus>
<clus scale="  300.000">  1  4  2 -1</clus>
</clustering>
</event>
<event>
 6    1  0.9254630E-012  0.3000000E+03  0.7818608E-02  0.1093470E+00
          1   -1    0    0  502    0  0.00000000000E+00  0.00000000000E+00  0.24385258854E+03  0.24385258854E+03  0.00000000000E+00 0.  1.
         13   -1    0    0    0    0 -0.00000000000E+00 -0.00000000000E+00 -0.27500000000E+03  0.27500000000E+03  0.00000000000E+00 0.  1.
    9000005    2    1    2  501    0 -0.89011788081E+01 -0.41772527960E+02 -0.27202402872E+02  0.47596041945E+03  0.47325909932E+03 0.  0.
         13    1    3    3    0    0 -0.55352430404E+02 -0.25272893161E+03 -0.44769465426E+01  0.25875828001E+03  0.00000000000E+00 0.  1.
          3    1    3    3  501    0  0.46451251596E+02  0.21095640365E+03 -0.22725456330E+02  0.21720213945E+03  0.00000000000E+00 0.  1.
         21    1    1    2  502  501  0.89011788081E+01  0.41772527960E+02 -0.39450085850E+01  0.42892169088E+02  0.00000000000E+00 0. -1.
<scales pt_clust_4="550.00000" pt_clust_5="550.00000" pt_clust_6="42.71038"></scales>
<mgrwt>
<rscale>  0 0.30000000E+03</rscale>
<asrwt>  1 0.42710384E+02</asrwt>
<pdfrwt beam="1">  1        1 0.88673669E+00 0.30000000E+03</pdfrwt>
<pdfrwt beam="2">0</pdfrwt>
<totfact> 0.15484527E-04</totfact>
</mgrwt>
<clustering>
<clus scale="   42.710">  1  6  2 -1</clus>
<clus scale="  473.259">  4  5 -1 -1</clus>
<clus scale="  300.000">  1  4  2 -1</clus>
</clustering>
</event>
<event>
 6    1  0.9254630E-012  0.3000000E+03  0.7818608E-02  0.1093470E+00
          1   -1    0    0  502    0  0.00000000000E+00  0.00000000000E+00  0.22707633738E+03  0.22707633738E+03  0.00000000000E+00 0.  1.
         13   -1    0    0    0    0 -0.00000000000E+00 -0.00000000000E+00 -0.27500000000E+03  0.27500000000E+03  0.00000000000E+00 0.  1.
    9000005    2    1    2  501    0 -0.58899277433E+01  0.36921969793E+02 -0.46873855105E+02  0.46467279212E+03  0.46078815343E+03 0.  0.
         13    1    3    3    0    0 -0.22297061132E+03  0.60528149396E+01  0.43950979475E+02  0.22734163428E+03  0.00000000000E+00 0.  1.
          1    1    3    3  501    0  0.21708068358E+03  0.30869154853E+02 -0.90824834581E+02  0.23733115784E+03  0.00000000000E+00 0.  1.
         21    1    1    2  502  501  0.58899277433E+01 -0.36921969793E+02 -0.10498075115E+01  0.37403545260E+02  0.00000000000E+00 0.  1.
<scales pt_clust_4="550.00000" pt_clust_5="550.00000" pt_clust_6="37.38881"></scales>
<mgrwt>
<rscale>  0 0.30000000E+03</rscale>
<asrwt>  1 0.37388810E+02</asrwt>
<pdfrwt beam="1">  1        1 0.82573214E+00 0.30000000E+03</pdfrwt>
<pdfrwt beam="2">0</pdfrwt>
<totfact> 0.63558149E-04</totfact>
</mgrwt>
<clustering>
<clus scale="   37.389">  1  6  2 -1</clus>
<clus scale="  460.788">  4  5 -1 -1</clus>
<clus scale="  300.000">  1  4  2 -1</clus>
</clustering>
</event>
<event>
 6    1  0.9254630E-012  0.3000000E+03  0.7818608E-02  0.1093470E+00
          1   -1    0    0  502    0  0.00000000000E+00  0.00000000000E+00  0.24587575995E+03  0.24587575995E+03  0.00000000000E+00 0.  1.
         13   -1    0    0    0    0 -0.00000000000E+00 -0.00000000000E+00 -0.27500000000E+03  0.27500000000E+03  0.00000000000E+00 0.  1.
    9000005    2    1    2  501    0 -0.45020450708E+02  0.47959751145E+01 -0.24744511980E+02  0.47538923032E+03  0.47258098467E+03 0.  0.
         13    1    3    3    0    0 -0.10045425283E+03 -0.22061769885E+03 -0.19601760521E+02  0.24320249788E+03  0.00000000000E+00 0.  1.
          1    1    3    3  501    0  0.55433802125E+02  0.22541367397E+03 -0.51427514589E+01  0.23218673244E+03  0.00000000000E+00 0.  1.
         21    1    1    2  502  501  0.45020450708E+02 -0.47959751145E+01 -0.43797280732E+01  0.45486529625E+02  0.00000000000E+00 0.  1.
<scales pt_clust_4="550.00000" pt_clust_5="550.00000" pt_clust_6="45.27521"></scales>
<mgrwt>
<rscale>  0 0.30000000E+03</rscale>
<asrwt>  1 0.45275207E+02</asrwt>
<pdfrwt beam="1">  1        1 0.89409367E+00 0.30000000E+03</pdfrwt>
<pdfrwt beam="2">0</pdfrwt>
<totfact> 0.12317226E-04</totfact>
</mgrwt>
<clustering>
<clus scale="   45.275">  1  6  2 -1</clus>
<clus scale="  472.581">  4  5 -1 -1</clus>
<clus scale="  300.000">  1  4  2 -1</clus>
</clustering>
</event>
<event>
 6    1  0.9254630E-012  0.3000000E+03  0.7818608E-02  0.1093470E+00
          1   -1    0    0  502    0  0.00000000000E+00  0.00000000000E+00  0.23110108320E+03  0.23110108320E+03  0.00000000000E+00 0.  1.
         13   -1    0    0    0    0 -0.00000000000E+00 -0.00000000000E+00 -0.27500000000E+03  0.27500000000E+03  0.00000000000E+00 0.  1.
    9000005    2    1    2  501    0  0.33146162728E+02  0.12837577964E+02 -0.67133966151E+02  0.46363534372E+03  0.45736997171E+03 0.  0.
         13    1    3    3    0    0 -0.14464716694E+03 -0.15328309973E+03 -0.64111832725E+02  0.22029262054E+03  0.00000000000E+00 0.  1.
          3    1    3    3  501    0  0.17779332967E+03  0.16612067770E+03 -0.30221334262E+01  0.24334272318E+03  0.00000000000E+00 0.  1.
         21    1    1    2  502  501 -0.33146162728E+02 -0.12837577964E+02  0.23235049352E+02  0.42465739485E+02  0.00000000000E+00 0.  1.
<scales pt_clust_4="550.00000" pt_clust_5="550.00000" pt_clust_6="35.54534"></scales>
<mgrwt>
<rscale>  0 0.30000000E+03</rscale>
<asrwt>  1 0.35545344E+02</asrwt>
<pdfrwt beam="1">  1        1 0.84036758E+00 0.30000000E+03</pdfrwt>
<pdfrwt beam="2">0</pdfrwt>
<totfact> 0.49238319E-04</totfact>
</mgrwt>
<clustering>
<clus scale="   35.545">  1  6  2 -1</clus>
<clus scale="  457.370">  4  5 -1 -1</clus>
<clus scale="  300.000">  1  4  2 -1</clus>
</clustering>
</event>
<event>
 6    1  0.9254630E-012  0.3000000E+03  0.7818608E-02  0.1093470E+00
          1   -1    0    0  502    0  0.00000000000E+00  0.00000000000E+00  0.23278760929E+03  0.23278760929E+03  0.00000000000E+00 0.  1.
         13   -1    0    0    0    0 -0.00000000000E+00 -0.00000000000E+00 -0.27500000000E+03  0.27500000000E+03  0.00000000000E+00 0.  1.
    9000005    2    1    2  501    0 -0.36645774202E+02  0.74016266866E+01 -0.57478192316E+02  0.46740516826E+03  0.46234851777E+03 0.  0.
         13    1    3    3    0    0 -0.21881020500E+03  0.11363764297E+03  0.77118753966E+01  0.24667973717E+03  0.00000000000E+00 0.  1.
          1    1    3    3  501    0  0.18216443079E+03 -0.10623601628E+03 -0.65190067712E+02  0.22072543109E+03  0.00000000000E+00 0.  1.
         21    1    1    2  502  501  0.36645774202E+02 -0.74016266866E+01  0.15265801605E+02  0.40382441025E+02  0.00000000000E+00 0. -1.
<scales pt_clust_4="550.00000" pt_clust_5="550.00000" pt_clust_6="37.38578"></scales>
<mgrwt>
<rscale>  0 0.30000000E+03</rscale>
<asrwt>  1 0.37385784E+02</asrwt>
<pdfrwt beam="1">  1        1 0.84650040E+00 0.30000000E+03</pdfrwt>
<pdfrwt beam="2">0</pdfrwt>
<totfact> 0.43288348E-04</totfact>
</mgrwt>
<clustering>
<clus scale="   37.386">  1  6  2 -1</clus>
<clus scale="  462.349">  4  5 -1 -1</clus>
<clus scale="  300.000">  1  4  2 -1</clus>
</clustering>
</event>
<event>
 6    1  0.9254630E-012  0.3000000E+03  0.7818608E-02  0.1093470E+00
          1   -1    0    0  502    0  0.00000000000E+00  0.00000000000E+00  0.25274059345E+03  0.25274059345E+03  0.00000000000E+00 0.  1.
         13   -1    0    0    0    0 -0.00000000000E+00 -0.00000000000E+00 -0.27500000000E+03  0.27500000000E+03  0.00000000000E+00 0.  1.
    9000005    2    1    2  501    0 -0.38581956341E+02 -0.36759270214E+02 -0.50902328380E+02  0.46724077301E+03  0.46139254613E+03 0.  0.
         13    1    3    3    0    0 -0.14473337045E+03  0.17528979025E+03 -0.23805001867E+02  0.22856276425E+03  0.00000000000E+00 0.  1.
          3    1    3    3  501    0  0.10615141411E+03 -0.21204906046E+03 -0.27097326513E+02  0.23867800876E+03  0.00000000000E+00 0.  1.
         21    1    1    2  502  501  0.38581956341E+02  0.36759270214E+02  0.28642921825E+02  0.60499820433E+02  0.00000000000E+00 0.  1.
<scales pt_clust_4="550.00000" pt_clust_5="550.00000" pt_clust_6="53.28988"></scales>
<mgrwt>
<rscale>  0 0.30000000E+03</rscale>
<asrwt>  1 0.53289880E+02</asrwt>
<pdfrwt beam="1">  1        1 0.91905670E+00 0.30000000E+03</pdfrwt>
<pdfrwt beam="2">0</pdfrwt>
<totfact> 0.40636564E-05</totfact>
</mgrwt>
<clustering>
<clus scale="   53.290">  1  6  2 -1</clus>
<clus scale="  461.393">  4  5 -1 -1</clus>
<clus scale="  300.000">  1  4  2 -1</clus>
</clustering>
</event>
<event>
 6    1  0.9254630E-012  0.3000000E+03  0.7818608E-02  0.1093470E+00
          1   -1    0    0  502    0  0.00000000000E+00  0.00000000000E+00  0.23604525780E+03  0.23604525780E+03  0.00000000000E+00 0.  1.
         13   -1    0    0    0    0 -0.00000000000E+00 -0.00000000000E+00 -0.27500000000E+03  0.27500000000E+03  0.00000000000E+00 0.  1.
    9000005    2    1    2  501    0 -0.41478481655E+02  0.70975335195E+01 -0.15956837655E+02  0.46308962168E+03  0.46089753483E+03 0.  0.
         13    1    3    3    0    0  0.19437070659E+03  0.70140160980E+02 -0.59660638456E+02  0.21507906812E+03  0.00000000000E+00 0.  1.
          1    1    3    3  501    0 -0.23584918824E+03 -0.63042627460E+02  0.43703800801E+02  0.24801055356E+03  0.00000000000E+00 0.  1.
         21    1    1    2  502  501  0.41478481655E+02 -0.70975335195E+01 -0.22997904543E+02  0.47955636122E+02  0.00000000000E+00 0.  1.
<scales pt_clust_4="550.00000" pt_clust_5="550.00000" pt_clust_6="42.08136"></scales>
<mgrwt>
<rscale>  0 0.30000000E+03</rscale>
<asrwt>  1 0.42081364E+02</asrwt>
<pdfrwt beam="1">  1        1 0.85834639E+00 0.30000000E+03</pdfrwt>
<pdfrwt beam="2">0</pdfrwt>
<totfact> 0.32554012E-04</totfact>
</mgrwt>
<clustering>
<clus scale="   42.081">  1  6  2 -1</clus>
<clus scale="  460.898">  4  5 -1 -1</clus>
<clus scale="  300.000">  1  4  2 -1</clus>
</clustering>
</event>
<event>
 6    1  0.9254630E-012  0.3000000E+03  0.7818608E-02  0.1093470E+00
          1   -1    0    0  502    0  0.00000000000E+00  0.00000000000E+00  0.24684858106E+03  0.24684858106E+03  0.00000000000E+00 0.  1.
         13   -1    0    0    0    0 -0.00000000000E+00 -0.00000000000E+00 -0.27500000000E+03  0.27500000000E+03  0.00000000000E+00 0.  1.
    9000005    2    1    2  501    0 -0.17950926381E+02 -0.37157314460E+02 -0.41018725909E+02  0.47862278593E+03  0.47507297709E+03 0.  0.
         13    1    3    3    0    0 -0.97532240314E+02  0.10591142380E+02  0.19868163421E+03  0.22158317167E+03  0.00000000000E+00 0.  1.
          3    1    3    3  501    0  0.79581313934E+02 -0.47748456841E+02 -0.23970036012E+03  0.25703961426E+03  0.00000000000E+00 0.  1.
         21    1    1    2  502  501  0.17950926381E+02  0.37157314460E+02  0.12867306970E+02  0.43225795129E+02  0.00000000000E+00 0.  1.
<scales pt_clust_4="550.00000" pt_clust_5="550.00000" pt_clust_6="41.26623"></scales>
<mgrwt>
<rscale>  0 0.30000000E+03</rscale>
<asrwt>  1 0.41266230E+02</asrwt>
<pdfrwt beam="1">  1        1 0.89763120E+00 0.30000000E+03</pdfrwt>
<pdfrwt beam="2">0</pdfrwt>
<totfact> 0.11430269E-04</totfact>
</mgrwt>
<clustering>
<clus scale="   41.266">  1  6  2 -1</clus>
<clus scale="  475.073">  4  5 -1 -1</clus>
<clus scale="  300.000">  1  4  2 -1</clus>
</clustering>
</event>
<event>
 6    1  0.9254630E-012  0.3000000E+03  0.7818608E-02  0.1093470E+00
          1   -1    0    0  502    0  0.00000000000E+00  0.00000000000E+00  0.25532636460E+03  0.25532636460E+03  0.00000000000E+00 0.  1.
         13   -1    0    0    0    0 -0.00000000000E+00 -0.00000000000E+00 -0.27500000000E+03  0.27500000000E+03  0.00000000000E+00 0.  1.
    9000005    2    1    2  501    0 -0.14792741331E+02  0.26142335153E+02 -0.12857386851E+02  0.49952525865E+03  0.49845553939E+03 0.  0.
         13    1    3    3    0    0  0.17144023907E+03 -0.15574743202E+03 -0.48881328373E+02  0.23672431734E+03  0.00000000000E+00 0.  1.
          1    1    3    3  501    0 -0.18623298040E+03  0.18188976717E+03  0.36023941523E+02  0.26280094131E+03  0.00000000000E+00 0.  1.
         21    1    1    2  502  501  0.14792741331E+02 -0.26142335153E+02 -0.68162485529E+01  0.30801105949E+02  0.00000000000E+00 0. -1.
<scales pt_clust_4="550.00000" pt_clust_5="550.00000" pt_clust_6="30.03744"></scales>
<mgrwt>
<rscale>  0 0.30000000E+03</rscale>
<asrwt>  1 0.30037440E+02</asrwt>
<pdfrwt beam="1">  1        1 0.92845951E+00 0.30000000E+03</pdfrwt>
<pdfrwt beam="2">0</pdfrwt>
<totfact> 0.28755969E-05</totfact>
</mgrwt>
<clustering>
<clus scale="   30.037">  1  6  2 -1</clus>
<clus scale="  498.456">  4  5 -1 -1</clus>
<clus scale="  300.000">  1  4  2 -1</clus>
</clustering>
</event>
<event>
 6    1  0.9254630E-012  0.3000000E+03  0.7818608E-02  0.1093470E+00
          1   -1    0    0  502    0  0.00000000000E+00  0.00000000000E+00  0.26201894217E+03  0.26201894217E+03  0.00000000000E+00 0.  1.
         13   -1    0    0    0    0 -0.00000000000E+00 -0.00000000000E+00 -0.27500000000E+03  0.27500000000E+03  0.00000000000E+00 0.  1.
    9000005    2    1    2  501    0 -0.42182631169E+02  0.10445758500E+02 -0.66373883979E+02  0.46817649794E+03  0.46140573524E+03 0.  0.
         13    1    3    3    0    0  0.16491489641E+03  0.95266495490E+02 -0.13574275012E+03  0.23387758001E+03  0.00000000000E+00 0.  1.
          1    1    3    3  501    0 -0.20709752758E+03 -0.84820736990E+02  0.69368866144E+02  0.23429891793E+03  0.00000000000E+00 0.  1.
         21    1    1    2  502  501  0.42182631169E+02 -0.10445758500E+02  0.53392826148E+02  0.68842444226E+02  0.00000000000E+00 0.  1.
<scales pt_clust_4="550.00000" pt_clust_5="550.00000" pt_clust_6="43.45674"></scales>
<mgrwt>
<rscale>  0 0.30000000E+03</rscale>
<asrwt>  1 0.43456740E+02</asrwt>
<pdfrwt beam="1">  1        1 0.95279615E+00 0.30000000E+03</pdfrwt>
<pdfrwt beam="2">0</pdfrwt>
<totfact> 0.10379880E-05</totfact>
</mgrwt>
<clustering>
<clus scale="   43.457">  1  6  2 -1</clus>
<clus scale="  461.406">  4  5 -1 -1</clus>
<clus scale="  300.000">  1  4  2 -1</clus>
</clustering>
</event>
<event>
 6    1  0.9254630E-012  0.3000000E+03  0.7818608E-02  0.1093470E+00
          1   -1    0    0  502    0  0.00000000000E+00  0.00000000000E+00  0.22715658781E+03  0.22715658781E+03  0.00000000000E+00 0.  1.
         13   -1    0    0    0    0 -0.00000000000E+00 -0.00000000000E+00 -0.27500000000E+03  0.27500000000E+03  0.00000000000E+00 0.  1.
    9000005    2    1    2  501    0 -0.31331875027E+02 -0.17071595621E+02 -0.49232667688E+02  0.46644866431E+03  0.46246878284E+03 0.  0.
         13    1    3    3    0    0 -0.22733734078E+03  0.94753498991E+01  0.66791848804E+02  0.23713540401E+03  0.00000000000E+00 0.  1.
          1    1    3    3  501    0  0.19600546575E+03 -0.26546945520E+02 -0.11602451649E+03  0.22931326030E+03  0.00000000000E+00 0.  1.
         21    1    1    2  502  501  0.31331875027E+02  0.17071595621E+02  0.13892554988E+01  0.35707923498E+02  0.00000000000E+00 0. -1.
<scales pt_clust_4="550.00000" pt_clust_5="550.00000" pt_clust_6="35.68089"></scales>
<mgrwt>
<rscale>  0 0.30000000E+03</rscale>
<asrwt>  1 0.35680888E+02</asrwt>
<pdfrwt beam="1">  1        1 0.82602396E+00 0.30000000E+03</pdfrwt>
<pdfrwt beam="2">0</pdfrwt>
<totfact> 0.63730547E-04</totfact>
</mgrwt>
<clustering>
<clus scale="   35.681">  1  6  2 -1</clus>
<clus scale="  462.469">  4  5 -1 -1</clus>
<clus scale="  300.000">  1  4  2 -1</clus>
</clustering>
</event>
<event>
 6    1  0.9254630E-012  0.3000000E+03  0.7818608E-02  0.1093470E+00
          1   -1    0    0  502    0  0.00000000000E+00  0.00000000000E+00  0.23461797875E+03  0.23461797875E+03  0.00000000000E+00 0.  1.
         13   -1    0    0    0    0 -0.00000000000E+00 -0.00000000000E+00 -0.27500000000E+03  0.27500000000E+03  0.00000000000E+00 0.  1.
    9000005    2    1    2  501    0  0.35107576853E+02  0.13867073889E+02 -0.54065092757E+02  0.46946746024E+03  0.46481375225E+03 0.  0.
         13    1    3    3    0    0 -0.99946830590E+02 -0.57843829831E+02  0.16555905138E+03  0.20185409852E+03  0.00000000000E+00 0.  1.
          1    1    3    3  501    0  0.13505440744E+03  0.71710903720E+02 -0.21962414414E+03  0.26761336172E+03  0.00000000000E+00 0.  1.
         21    1    1    2  502  501 -0.35107576853E+02 -0.13867073889E+02  0.13683071508E+02  0.40150518510E+02  0.00000000000E+00 0.  1.
<scales pt_clust_4="550.00000" pt_clust_5="550.00000" pt_clust_6="37.74702"></scales>
<mgrwt>
<rscale>  0 0.30000000E+03</rscale>
<asrwt>  1 0.37747022E+02</asrwt>
<pdfrwt beam="1">  1        1 0.85315629E+00 0.30000000E+03</pdfrwt>
<pdfrwt beam="2">0</pdfrwt>
<totfact> 0.37445205E-04</totfact>
</mgrwt>
<clustering>
<clus scale="   37.747">  1  6  2 -1</clus>
<clus scale="  464.814">  4  5 -1 -1</clus>
<clus scale="  300.000">  1  4  2 -1</clus>
</clustering>
</event>
<event>
 6    1  0.9254630E-012  0.3000000E+03  0.7818608E-02  0.1093470E+00
          1   -1    0    0  502    0  0.00000000000E+00  0.00000000000E+00  0.25516441925E+03  0.25516441925E+03  0.00000000000E+00 0.  1.
         13   -1    0    0    0    0 -0.00000000000E+00 -0.00000000000E+00 -0.27500000000E+03  0.27500000000E+03  0.00000000000E+00 0.  1.
    9000005    2    1    2  501    0  0.23503371423E+01 -0.34446546576E+02 -0.50322685509E+02  0.48410410865E+03  0.48024194598E+03 0.  0.
         13    1    3    3    0    0  0.42357622326E+02 -0.18519544560E+03  0.14149454409E+03  0.23688019598E+03  0.00000000000E+00 0.  1.
          1    1    3    3  501    0 -0.40007285184E+02  0.15074889902E+03 -0.19181722960E+03  0.24722391267E+03  0.00000000000E+00 0.  1.
         21    1    1    2  502  501 -0.23503371423E+01  0.34446546576E+02  0.30487104760E+02  0.46060310597E+02  0.00000000000E+00 0.  1.
<scales pt_clust_4="550.00000" pt_clust_5="550.00000" pt_clust_6="34.52664"></scales>
<mgrwt>
<rscale>  0 0.30000000E+03</rscale>
<asrwt>  1 0.34526637E+02</asrwt>
<pdfrwt beam="1">  1        1 0.92787062E+00 0.30000000E+03</pdfrwt>
<pdfrwt beam="2">0</pdfrwt>
<totfact> 0.28726166E-05</totfact>
</mgrwt>
<clustering>
<clus scale="   34.527">  1  6  2 -1</clus>
<clus scale="  480.242">  4  5 -1 -1</clus>
<clus scale="  300.000">  1  4  2 -1</clus>
</clustering>
</event>
<event>
 6    1  0.9254630E-012  0.3000000E+03  0.7818608E-02  0.1093470E+00
          1   -1    0    0  502    0  0.00000000000E+00  0.00000000000E+00  0.24871319068E+03  0.24871319068E+03  0.00000000000E+00 0.  1.
         13   -1    0    0    0    0 -0.00000000000E+00 -0.00000000000E+00 -0.27500000000E+03  0.27500000000E+03  0.00000000000E+00 0.  1.
    9000005    2    1    2  501    0  0.14239642015E+02  0.36876334837E+02 -0.16430351160E+02  0.48297277778E+03  0.48107184096E+03 0.  0.
         13    1    3    3    0    0 -0.20865521621E+03 -0.25382334587E+02 -0.10526908506E+03  0.23508050202E+03  0.00000000000E+00 0.  1.
          3    1    3    3  501    0  0.22289485822E+03  0.62258669424E+02  0.88838733900E+02  0.24789227576E+03  0.00000000000E+00 0.  1.
         21    1    1    2  502  501 -0.14239642015E+02 -0.36876334837E+02 -0.98564581578E+01  0.40740412899E+02  0.00000000000E+00 0.  1.
<scales pt_clust_4="550.00000" pt_clust_5="550.00000" pt_clust_6="39.53015"></scales>
<mgrwt>
<rscale>  0 0.30000000E+03</rscale>
<asrwt>  1 0.39530154E+02</asrwt>
<pdfrwt beam="1">  1        1 0.90441160E+00 0.30000000E+03</pdfrwt>
<pdfrwt beam="2">0</pdfrwt>
<totfact> 0.92700241E-05</totfact>
</mgrwt>
<clustering>
<clus scale="   39.530">  1  6  2 -1</clus>
<clus scale="  481.072">  4  5 -1 -1</clus>
<clus scale="  300.000">  1  4  2 -1</clus>
</clustering>
</event>
<event>
 6    1  0.9254630E-012  0.3000000E+03  0.7818608E-02  0.1093470E+00
          1   -1    0    0  502    0  0.00000000000E+00  0.00000000000E+00  0.24654674920E+03  0.24654674920E+03  0.00000000000E+00 0.  1.
         13   -1    0    0    0    0 -0.00000000000E+00 -0.00000000000E+00 -0.27500000000E+03  0.27500000000E+03  0.00000000000E+00 0.  1.
    9000005    2    1    2  501    0 -0.15626973204E+02  0.29459948184E+02 -0.59110964730E+02  0.47624789423E+03  0.47138716547E+03 0.  0.
         13    1    3    3    0    0 -0.75378843457E+02  0.11592447602E+03  0.17298759911E+03  0.22146142695E+03  0.00000000000E+00 0.  1.
          1    1    3    3  501    0  0.59751870254E+02 -0.86464527837E+02 -0.23209856384E+03  0.25478646728E+03  0.00000000000E+00 0.  1.
         21    1    1    2  502  501  0.15626973204E+02 -0.29459948184E+02  0.30657713929E+02  0.45298854973E+02  0.00000000000E+00 0.  1.
<scales pt_clust_4="550.00000" pt_clust_5="550.00000" pt_clust_6="33.34803"></scales>
<mgrwt>
<rscale>  0 0.30000000E+03</rscale>
<asrwt>  1 0.33348026E+02</asrwt>
<pdfrwt beam="1">  1        1 0.89653363E+00 0.30000000E+03</pdfrwt>
<pdfrwt beam="2">0</pdfrwt>
<totfact> 0.12232558E-04</totfact>
</mgrwt>
<clustering>
<clus scale="   33.348">  1  6  2 -1</clus>
<clus scale="  471.387">  4  5 -1 -1</clus>
<clus scale="  300.000">  1  4  2 -1</clus>
</clustering>
</event>
<event>
 6    1  0.9254630E-012  0.3000000E+03  0.7818608E-02  0.1093470E+00
          1   -1    0    0  502    0  0.00000000000E+00  0.00000000000E+00  0.23440471768E+03  0.23440471768E+03  0.00000000000E+00 0.  1.
         13   -1    0    0    0    0 -0.00000000000E+00 -0.00000000000E+00 -0.27500000000E+03  0.27500000000E+03  0.00000000000E+00 0.  1.
    9000005    2    1    2  501    0 -0.12154856841E+02 -0.43485677037E+02 -0.30345341814E+02  0.46310346573E+03  0.45989698362E+03 0.  0.
         13    1    3    3    0    0 -0.57298478073E+02 -0.24041812957E+03  0.37490368132E+02  0.24997903976E+03  0.00000000000E+00 0.  1.
          1    1    3    3  501    0  0.45143621232E+02  0.19693245254E+03 -0.67835709946E+02  0.21312442597E+03  0.00000000000E+00 0.  1.
         21    1    1    2  502  501  0.12154856841E+02  0.43485677037E+02 -0.10249940505E+02  0.46301251954E+02  0.00000000000E+00 0.  1.
<scales pt_clust_4="550.00000" pt_clust_5="550.00000" pt_clust_6="45.15248"></scales>
<mgrwt>
<rscale>  0 0.30000000E+03</rscale>
<asrwt>  1 0.45152483E+02</asrwt>
<pdfrwt beam="1">  1        1 0.85238079E+00 0.30000000E+03</pdfrwt>
<pdfrwt beam="2">0</pdfrwt>
<totfact> 0.36876681E-04</totfact>
</mgrwt>
<clustering>
<clus scale="   45.152">  1  6  2 -1</clus>
<clus scale="  459.897">  4  5 -1 -1</clus>
<clus scale="  300.000">  1  4  2 -1</clus>
</clustering>
</event>
<event>
 6    1  0.9254630E-012  0.3000000E+03  0.7818608E-02  0.1093470E+00
          1   -1    0    0  502    0  0.00000000000E+00  0.00000000000E+00  0.22381111393E+03  0.22381111393E+03  0.00000000000E+00 0.  1.
         13   -1    0    0    0    0 -0.00000000000E+00 -0.00000000000E+00 -0.27500000000E+03  0.27500000000E+03  0.00000000000E+00 0.  1.
    9000005    2    1    2  501    0 -0.18200358117E+02 -0.29458538680E+02 -0.41544146792E+02  0.46286560611E+03  0.45969511053E+03 0.  0.
         13    1    3    3    0    0 -0.12272914198E+02 -0.18235360238E+03 -0.17999238522E+03  0.25651650914E+03  0.00000000000E+00 0.  1.
          1    1    3    3  501    0 -0.59274439194E+01  0.15289506371E+03  0.13844823843E+03  0.20634909697E+03  0.00000000000E+00 0.  1.
         21    1    1    2  502  501  0.18200358117E+02  0.29458538680E+02 -0.96447392783E+01  0.35945507820E+02  0.00000000000E+00 0. -1.
<scales pt_clust_4="550.00000" pt_clust_5="550.00000" pt_clust_6="34.62744"></scales>
<mgrwt>
<rscale>  0 0.30000000E+03</rscale>
<asrwt>  1 0.34627442E+02</asrwt>
<pdfrwt beam="1">  1        1 0.81385860E+00 0.30000000E+03</pdfrwt>
<pdfrwt beam="2">0</pdfrwt>
<totfact> 0.81468286E-04</totfact>
</mgrwt>
<clustering>
<clus scale="   34.627">  1  6  2 -1</clus>
<clus scale="  459.695">  4  5 -1 -1</clus>
<clus scale="  300.000">  1  4  2 -1</clus>
</clustering>
</event>
<event>
 6    1  0.9254630E-012  0.3000000E+03  0.7818608E-02  0.1093470E+00
          1   -1    0    0  502    0  0.00000000000E+00  0.00000000000E+00  0.23364525781E+03  0.23364525781E+03  0.00000000000E+00 0.  1.
         13   -1    0    0    0    0 -0.00000000000E+00 -0.00000000000E+00 -0.27500000000E+03  0.27500000000E+03  0.00000000000E+00 0.  1.
    9000005    2    1    2  501    0 -0.32608203244E+02 -0.10135878815E+02 -0.45654248441E+02  0.47422844924E+03  0.47078899808E+03 0.  0.
         13    1    3    3    0    0  0.11233566701E+03 -0.37646269845E+02  0.17346998389E+03  0.21006755824E+03  0.00000000000E+00 0.  1.
          1    1    3    3  501    0 -0.14494387025E+03  0.27510391031E+02 -0.21912423233E+03  0.26416089100E+03  0.00000000000E+00 0.  1.
         21    1    1    2  502  501  0.32608203244E+02  0.10135878815E+02  0.42995062536E+01  0.34416808570E+02  0.00000000000E+00 0.  1.
<scales pt_clust_4="550.00000" pt_clust_5="550.00000" pt_clust_6="34.14720"></scales>
<mgrwt>
<rscale>  0 0.30000000E+03</rscale>
<asrwt>  1 0.34147195E+02</asrwt>
<pdfrwt beam="1">  1        1 0.84961912E+00 0.30000000E+03</pdfrwt>
<pdfrwt beam="2">0</pdfrwt>
<totfact> 0.41224424E-04</totfact>
</mgrwt>
<clustering>
<clus scale="   34.147">  1  6  2 -1</clus>
<clus scale="  470.789">  4  5 -1 -1</clus>
<clus scale="  300.000">  1  4  2 -1</clus>
</clustering>
</event>
<event>
 6    1  0.9254630E-012  0.3000000E+03  0.7818608E-02  0.1093470E+00
          1   -1    0    0  502    0  0.00000000000E+00  0.00000000000E+00  0.24218910323E+03  0.24218910323E+03  0.00000000000E+00 0.  1.
         13   -1    0    0    0    0 -0.00000000000E+00 -0.00000000000E+00 -0.27500000000E+03  0.27500000000E+03  0.00000000000E+00 0.  1.
    9000005    2    1    2  501    0  0.16707867211E+02 -0.31757821328E+02 -0.69080354748E+02  0.46616768004E+03  0.45962212573E+03 0.  0.
         13    1    3    3    0    0  0.14404481563E+03  0.16245286365E+03  0.18647579647E+02  0.21791643822E+03  0.00000000000E+00 0.  1.
          3    1    3    3  501    0 -0.12733694842E+03 -0.19421068498E+03 -0.87727934395E+02  0.24825124182E+03  0.00000000000E+00 0.  1.
         21    1    1    2  502  501 -0.16707867211E+02  0.31757821328E+02  0.36269457978E+02  0.51021423189E+02  0.00000000000E+00 0. -1.
<scales pt_clust_4="550.00000" pt_clust_5="550.00000" pt_clust_6="35.88470"></scales>
<mgrwt>
<rscale>  0 0.30000000E+03</rscale>
<asrwt>  1 0.35884705E+02</asrwt>
<pdfrwt beam="1">  1        1 0.88068765E+00 0.30000000E+03</pdfrwt>
<pdfrwt beam="2">0</pdfrwt>
<totfact> 0.19262368E-04</totfact>
</mgrwt>
<clustering>
<clus scale="   35.885">  1  6  2 -1</clus>
<clus scale="  459.622">  4  5 -1 -1</clus>
<clus scale="  300.000">  1  4  2 -1</clus>
</clustering>
</event>
<event>
 6    1  0.9254630E-012  0.3000000E+03  0.7818608E-02  0.1093470E+00
          1   -1    0    0  502    0  0.00000000000E+00  0.00000000000E+00  0.23307238540E+03  0.23307238540E+03  0.00000000000E+00 0.  1.
         13   -1    0    0    0    0 -0.00000000000E+00 -0.00000000000E+00 -0.27500000000E+03  0.27500000000E+03  0.00000000000E+00 0.  1.
    9000005    2    1    2  501    0 -0.24788671010E+02  0.34419423340E+02 -0.53035912361E+02  0.46422527383E+03  0.45923101153E+03 0.  0.
         13    1    3    3    0    0 -0.25069381400E+02 -0.20733058351E+03 -0.74009963513E+02  0.22156696379E+03  0.00000000000E+00 0.  1.
          1    1    3    3  501    0  0.28071039015E+00  0.24175000685E+03  0.20974051152E+02  0.24265831004E+03  0.00000000000E+00 0.  1.
         21    1    1    2  502  501  0.24788671010E+02 -0.34419423340E+02  0.11108297760E+02  0.43847111566E+02  0.00000000000E+00 0.  1.
<scales pt_clust_4="550.00000" pt_clust_5="550.00000" pt_clust_6="42.41668"></scales>
<mgrwt>
<rscale>  0 0.30000000E+03</rscale>
<asrwt>  1 0.42416682E+02</asrwt>
<pdfrwt beam="1">  1        1 0.84753595E+00 0.30000000E+03</pdfrwt>
<pdfrwt beam="2">0</pdfrwt>
<totfact> 0.41401397E-04</totfact>
</mgrwt>
<clustering>
<clus scale="   42.417">  1  6  2 -1</clus>
<clus scale="  459.231">  4  5 -1 -1</clus>
<clus scale="  300.000">  1  4  2 -1</clus>
</clustering>
</event>
<event>
 6    1  0.9254630E-012  0.3000000E+03  0.7818608E-02  0.1093470E+00
          1   -1    0    0  502    0  0.00000000000E+00  0.00000000000E+00  0.23159869795E+03  0.23159869795E+03  0.00000000000E+00 0.  1.
         13   -1    0    0    0    0 -0.00000000000E+00 -0.00000000000E+00 -0.27500000000E+03  0.27500000000E+03  0.00000000000E+00 0.  1.
    9000005    2    1    2  501    0  0.20561403250E+02  0.22377047409E+02 -0.70782909608E+02  0.46569324615E+03  0.45927821161E+03 0.  0.
         13    1    3    3    0    0  0.51586178775E+02  0.97839077804E+02 -0.24747796251E+03  0.27107002953E+03  0.00000000000E+00 0.  1.
          1    1    3    3  501    0 -0.31024775525E+02 -0.75462030395E+02  0.17669505290E+03  0.19462321662E+03  0.00000000000E+00 0.  1.
         21    1    1    2  502  501 -0.20561403250E+02 -0.22377047409E+02  0.27381607555E+02  0.40905451796E+02  0.00000000000E+00 0.  1.
<scales pt_clust_4="550.00000" pt_clust_5="550.00000" pt_clust_6="30.38920"></scales>
<mgrwt>
<rscale>  0 0.30000000E+03</rscale>
<asrwt>  1 0.30389201E+02</asrwt>
<pdfrwt beam="1">  1        1 0.84217708E+00 0.30000000E+03</pdfrwt>
<pdfrwt beam="2">0</pdfrwt>
<totfact> 0.49050979E-04</totfact>
</mgrwt>
<clustering>
<clus scale="   30.389">  1  6  2 -1</clus>
<clus scale="  459.278">  4  5 -1 -1</clus>
<clus scale="  300.000">  1  4  2 -1</clus>
</clustering>
</event>
<event>
 6    1  0.9254630E-012  0.3000000E+03  0.7818608E-02  0.1093470E+00
          1   -1    0    0  502    0  0.00000000000E+00  0.00000000000E+00  0.24507010337E+03  0.24507010337E+03  0.00000000000E+00 0.  1.
         13   -1    0    0    0    0 -0.00000000000E+00 -0.00000000000E+00 -0.27500000000E+03  0.27500000000E+03  0.00000000000E+00 0.  1.
    9000005    2    1    2  501    0 -0.42451769073E+01 -0.36912035486E+02 -0.69209423101E+02  0.46600161818E+03  0.45933326029E+03 0.  0.
         13    1    3    3    0    0  0.34996584894E+02  0.31600755920E+02  0.18962142082E+03  0.19539614111E+03  0.00000000000E+00 0.  1.
          1    1    3    3  501    0 -0.39241761801E+02 -0.68512791406E+02 -0.25883084392E+03  0.27060547707E+03  0.00000000000E+00 0.  1.
         21    1    1    2  502  501  0.42451769073E+01  0.36912035486E+02  0.39279526472E+02  0.54068485188E+02  0.00000000000E+00 0. -1.
<scales pt_clust_4="550.00000" pt_clust_5="550.00000" pt_clust_6="37.15535"></scales>
<mgrwt>
<rscale>  0 0.30000000E+03</rscale>
<asrwt>  1 0.37155348E+02</asrwt>
<pdfrwt beam="1">  1        1 0.89116401E+00 0.30000000E+03</pdfrwt>
<pdfrwt beam="2">0</pdfrwt>
<totfact> 0.13842735E-04</totfact>
</mgrwt>
<clustering>
<clus scale="   37.155">  1  6  2 -1</clus>
<clus scale="  459.333">  4  5 -1 -1</clus>
<clus scale="  300.000">  1  4  2 -1</clus>
</clustering>
</event>
<event>
 6    1  0.9254630E-012  0.3000000E+03  0.7818608E-02  0.1093470E+00
          1   -1    0    0  502    0  0.00000000000E+00  0.00000000000E+00  0.23997592645E+03  0.23997592645E+03  0.00000000000E+00 0.  1.
         13   -1    0    0    0    0 -0.00000000000E+00 -0.00000000000E+00 -0.27500000000E+03  0.27500000000E+03  0.00000000000E+00 0.  1.
    9000005    2    1    2  501    0  0.65383408829E+01  0.44112658461E+02 -0.22453550805E+02  0.46864349094E+03  0.46597626884E+03 0.  0.
         13    1    3    3    0    0 -0.17029169116E+03  0.63478177826E+02 -0.16129160210E+03  0.24298913566E+03  0.00000000000E+00 0.  1.
          3    1    3    3  501    0  0.17683003204E+03 -0.19365519365E+02  0.13883805130E+03  0.22565435529E+03  0.00000000000E+00 0.  1.
         21    1    1    2  502  501 -0.65383408829E+01 -0.44112658461E+02 -0.12570522744E+02  0.46332435507E+02  0.00000000000E+00 0.  1.
<scales pt_clust_4="550.00000" pt_clust_5="550.00000" pt_clust_6="44.59460"></scales>
<mgrwt>
<rscale>  0 0.30000000E+03</rscale>
<asrwt>  1 0.44594602E+02</asrwt>
<pdfrwt beam="1">  1        1 0.87263973E+00 0.30000000E+03</pdfrwt>
<pdfrwt beam="2">0</pdfrwt>
<totfact> 0.22768312E-04</totfact>
</mgrwt>
<clustering>
<clus scale="   44.595">  1  6  2 -1</clus>
<clus scale="  465.976">  4  5 -1 -1</clus>
<clus scale="  300.000">  1  4  2 -1</clus>
</clustering>
</event>
<event>
 6    1  0.9254630E-012  0.3000000E+03  0.7818608E-02  0.1093470E+00
          1   -1    0    0  502    0  0.00000000000E+00  0.00000000000E+00  0.24233989847E+03  0.24233989847E+03  0.00000000000E+00 0.  1.
         13   -1    0    0    0    0 -0.00000000000E+00 -0.00000000000E+00 -0.27500000000E+03  0.27500000000E+03  0.00000000000E+00 0.  1.
    9000005    2    1    2  501    0 -0.22572641271E+01 -0.36095519384E+02 -0.66913583742E+02  0.46752742208E+03  0.46129868951E+03 0.  0.
         13    1    3    3    0    0 -0.31593222195E+02  0.21124753351E+03 -0.33980387571E+02  0.21628296013E+03  0.00000000000E+00 0.  1.
          1    1    3    3  501    0  0.29335958067E+02 -0.24734305289E+03 -0.32933196171E+02  0.25124446195E+03  0.00000000000E+00 0.  1.
         21    1    1    2  502  501  0.22572641271E+01  0.36095519384E+02  0.34253482213E+02  0.49812476395E+02  0.00000000000E+00 0. -1.
<scales pt_clust_4="550.00000" pt_clust_5="550.00000" pt_clust_6="36.16603"></scales>
<mgrwt>
<rscale>  0 0.30000000E+03</rscale>
<asrwt>  1 0.36166030E+02</asrwt>
<pdfrwt beam="1">  1        1 0.88123599E+00 0.30000000E+03</pdfrwt>
<pdfrwt beam="2">0</pdfrwt>
<totfact> 0.18928869E-04</totfact>
</mgrwt>
<clustering>
<clus scale="   36.166">  1  6  2 -1</clus>
<clus scale="  461.299">  4  5 -1 -1</clus>
<clus scale="  300.000">  1  4  2 -1</clus>
</clustering>
</event>
<event>
 6    1  0.9254630E-012  0.3000000E+03  0.7818608E-02  0.1093470E+00
          1   -1    0    0  502    0  0.00000000000E+00  0.00000000000E+00  0.24499554750E+03  0.24499554750E+03  0.00000000000E+00 0.  1.
         13   -1    0    0    0    0 -0.00000000000E+00 -0.00000000000E+00 -0.27500000000E+03  0.27500000000E+03  0.00000000000E+00 0.  1.
    9000005    2    1    2  501    0 -0.22476459138E+02  0.27277301092E+02 -0.21931519926E+02  0.48374069113E+03  0.48194898311E+03 0.  0.
         13    1    3    3    0    0 -0.28960883584E+02 -0.15121882949E+03  0.16466664759E+03  0.22543507269E+03  0.00000000000E+00 0.  1.
          1    1    3    3  501    0  0.64844244466E+01  0.17849613059E+03 -0.18659816752E+03  0.25830561843E+03  0.00000000000E+00 0.  1.
         21    1    1    2  502  501  0.22476459138E+02 -0.27277301092E+02 -0.80729325735E+01  0.36254856372E+02  0.00000000000E+00 0.  1.
<scales pt_clust_4="550.00000" pt_clust_5="550.00000" pt_clust_6="35.34464"></scales>
<mgrwt>
<rscale>  0 0.30000000E+03</rscale>
<asrwt>  1 0.35344641E+02</asrwt>
<pdfrwt beam="1">  1        1 0.89089290E+00 0.30000000E+03</pdfrwt>
<pdfrwt beam="2">0</pdfrwt>
<totfact> 0.14083976E-04</totfact>
</mgrwt>
<clustering>
<clus scale="   35.345">  1  6  2 -1</clus>
<clus scale="  481.949">  4  5 -1 -1</clus>
<clus scale="  300.000">  1  4  2 -1</clus>
</clustering>
</event>
<event>
 6    1  0.9254630E-012  0.3000000E+03  0.7818608E-02  0.1093470E+00
          1   -1    0    0  502    0  0.00000000000E+00  0.00000000000E+00  0.26109400164E+03  0.26109400164E+03  0.00000000000E+00 0.  1.
         13   -1    0    0    0    0 -0.00000000000E+00 -0.00000000000E+00 -0.27500000000E+03  0.27500000000E+03  0.00000000000E+00 0.  1.
    9000005    2    1    2  501    0  0.20475469905E+02  0.32014982143E+02 -0.69521298100E+02  0.46873477425E+03  0.46199012300E+03 0.  0.
         13    1    3    3    0    0  0.96989393639E+02  0.83077029909E+02  0.16973078764E+03  0.21240827585E+03  0.00000000000E+00 0.  1.
          3    1    3    3  501    0 -0.76513923734E+02 -0.51062047766E+02 -0.23925208574E+03  0.25632649840E+03  0.00000000000E+00 0.  1.
         21    1    1    2  502  501 -0.20475469905E+02 -0.32014982143E+02  0.55615299737E+02  0.67359227388E+02  0.00000000000E+00 0. -1.
<scales pt_clust_4="550.00000" pt_clust_5="550.00000" pt_clust_6="38.00268"></scales>
<mgrwt>
<rscale>  0 0.30000000E+03</rscale>
<asrwt>  1 0.38002683E+02</asrwt>
<pdfrwt beam="1">  1        1 0.94943273E+00 0.30000000E+03</pdfrwt>
<pdfrwt beam="2">0</pdfrwt>
<totfact> 0.12480167E-05</totfact>
</mgrwt>
<clustering>
<clus scale="   38.003">  1  6  2 -1</clus>
<clus scale="  461.990">  4  5 -1 -1</clus>
<clus scale="  300.000">  1  4  2 -1</clus>
</clustering>
</event>
<event>
 6    1  0.9254630E-012  0.3000000E+03  0.7818608E-02  0.1093470E+00
          1   -1    0    0  502    0  0.00000000000E+00  0.00000000000E+00  0.24698090087E+03  0.24698090087E+03  0.00000000000E+00 0.  1.
         13   -1    0    0    0    0 -0.00000000000E+00 -0.00000000000E+00 -0.27500000000E+03  0.27500000000E+03  0.00000000000E+00 0.  1.
    9000005    2    1    2  501    0  0.30669894647E+02 -0.15086314096E+01 -0.48718240988E+02  0.48494884881E+03  0.48151739382E+03 0.  0.
         13    1    3    3    0    0  0.56182936893E+02  0.15971553796E+02  0.21327908180E+03  0.22113249346E+03  0.00000000000E+00 0.  1.
          1    1    3    3  501    0 -0.25513042246E+02 -0.17480185205E+02 -0.26199732279E+03  0.26381635535E+03  0.00000000000E+00 0.  1.
         21    1    1    2  502  501 -0.30669894647E+02  0.15086314096E+01  0.20699141862E+02  0.37032052066E+02  0.00000000000E+00 0. -1.
<scales pt_clust_4="550.00000" pt_clust_5="550.00000" pt_clust_6="30.70698"></scales>
<mgrwt>
<rscale>  0 0.30000000E+03</rscale>
<asrwt>  1 0.30706977E+02</asrwt>
<pdfrwt beam="1">  1        1 0.89811237E+00 0.30000000E+03</pdfrwt>
<pdfrwt beam="2">0</pdfrwt>
<totfact> 0.11925971E-04</totfact>
</mgrwt>
<clustering>
<clus scale="   30.707">  1  6  2 -1</clus>
<clus scale="  481.517">  4  5 -1 -1</clus>
<clus scale="  300.000">  1  4  2 -1</clus>
</clustering>
</event>
<event>
 6    1  0.9254630E-012  0.3000000E+03  0.7818608E-02  0.1093470E+00
          1   -1    0    0  502    0  0.00000000000E+00  0.00000000000E+00  0.23785944299E+03  0.23785944299E+03  0.00000000000E+00 0.  1.
         13   -1    0    0    0    0 -0.00000000000E+00 -0.00000000000E+00 -0.27500000000E+03  0.27500000000E+03  0.00000000000E+00 0.  1.
    9000005    2    1    2  501    0  0.21622148614E+02  0.23561306351E+02 -0.40775538567E+02  0.48067457762E+03  0.47787315531E+03 0.  0.
         13    1    3    3    0    0 -0.16457906190E+03 -0.15075259187E+03 -0.61340721823E+01  0.22327166952E+03  0.00000000000E+00 0.  1.
          3    1    3    3  501    0  0.18620121051E+03  0.17431389822E+03 -0.34641466385E+02  0.25740290810E+03  0.00000000000E+00 0.  1.
         21    1    1    2  502  501 -0.21622148614E+02 -0.23561306351E+02  0.36349815571E+01  0.32184865365E+02  0.00000000000E+00 0. -1.
<scales pt_clust_4="550.00000" pt_clust_5="550.00000" pt_clust_6="31.97894"></scales>
<mgrwt>
<rscale>  0 0.30000000E+03</rscale>
<asrwt>  1 0.31978938E+02</asrwt>
<pdfrwt beam="1">  1        1 0.86494343E+00 0.30000000E+03</pdfrwt>
<pdfrwt beam="2">0</pdfrwt>
<totfact> 0.29101494E-04</totfact>
</mgrwt>
<clustering>
<clus scale="   31.979">  1  6  2 -1</clus>
<clus scale="  477.873">  4  5 -1 -1</clus>
<clus scale="  300.000">  1  4  2 -1</clus>
</clustering>
</event>
<event>
 6    1  0.9254630E-012  0.3000000E+03  0.7818608E-02  0.1093470E+00
          1   -1    0    0  502    0  0.00000000000E+00  0.00000000000E+00  0.22995870442E+03  0.22995870442E+03  0.00000000000E+00 0.  1.
         13   -1    0    0    0    0 -0.00000000000E+00 -0.00000000000E+00 -0.27500000000E+03  0.27500000000E+03  0.00000000000E+00 0.  1.
    9000005    2    1    2  501    0  0.27000297948E+02  0.19316782539E+02 -0.41549870218E+02  0.47157690956E+03  0.46856828289E+03 0.  0.
         13    1    3    3    0    0  0.63400963503E+02  0.22506576292E+03  0.56827183260E+02  0.24063168654E+03  0.00000000000E+00 0.  1.
          3    1    3    3  501    0 -0.36400665555E+02 -0.20574898038E+03 -0.98377053478E+02  0.23094522301E+03  0.00000000000E+00 0.  1.
         21    1    1    2  502  501 -0.27000297948E+02 -0.19316782539E+02 -0.34914253657E+01  0.33381794859E+02  0.00000000000E+00 0. -1.
<scales pt_clust_4="550.00000" pt_clust_5="550.00000" pt_clust_6="33.19872"></scales>
<mgrwt>
<rscale>  0 0.30000000E+03</rscale>
<asrwt>  1 0.33198724E+02</asrwt>
<pdfrwt beam="1">  1        1 0.83621347E+00 0.30000000E+03</pdfrwt>
<pdfrwt beam="2">0</pdfrwt>
<totfact> 0.53540221E-04</totfact>
</mgrwt>
<clustering>
<clus scale="   33.199">  1  6  2 -1</clus>
<clus scale="  468.568">  4  5 -1 -1</clus>
<clus scale="  300.000">  1  4  2 -1</clus>
</clustering>
</event>
<event>
 6    1  0.9254630E-012  0.3000000E+03  0.7818608E-02  0.1093470E+00
          1   -1    0    0  502    0  0.00000000000E+00  0.00000000000E+00  0.22833420827E+03  0.22833420827E+03  0.00000000000E+00 0.  1.
         13   -1    0    0    0    0 -0.00000000000E+00 -0.00000000000E+00 -0.27500000000E+03  0.27500000000E+03  0.00000000000E+00 0.  1.
    9000005    2    1    2  501    0 -0.31361690533E+02 -0.34447254518E+00 -0.70874693070E+02  0.46371419819E+03  0.45719138355E+03 0.  0.
         13    1    3    3    0    0  0.25982741917E+02 -0.17269388828E+03 -0.18082615920E+03  0.25138890544E+03  0.00000000000E+00 0.  1.
          3    1    3    3  501    0 -0.57344432450E+02  0.17234941574E+03  0.10995146613E+03  0.21232529275E+03  0.00000000000E+00 0.  1.
         21    1    1    2  502  501  0.31361690533E+02  0.34447254518E+00  0.24208901344E+02  0.39620010080E+02  0.00000000000E+00 0.  1.
<scales pt_clust_4="550.00000" pt_clust_5="550.00000" pt_clust_6="31.36358"></scales>
<mgrwt>
<rscale>  0 0.30000000E+03</rscale>
<asrwt>  1 0.31363582E+02</asrwt>
<pdfrwt beam="1">  1        1 0.83030621E+00 0.30000000E+03</pdfrwt>
<pdfrwt beam="2">0</pdfrwt>
<totfact> 0.59990793E-04</totfact>
</mgrwt>
<clustering>
<clus scale="   31.364">  1  6  2 -1</clus>
<clus scale="  457.191">  4  5 -1 -1</clus>
<clus scale="  300.000">  1  4  2 -1</clus>
</clustering>
</event>
<event>
 6    1  0.9254630E-012  0.3000000E+03  0.7818608E-02  0.1093470E+00
          1   -1    0    0  502    0  0.00000000000E+00  0.00000000000E+00  0.24542810060E+03  0.24542810060E+03  0.00000000000E+00 0.  1.
         13   -1    0    0    0    0 -0.00000000000E+00 -0.00000000000E+00 -0.27500000000E+03  0.27500000000E+03  0.00000000000E+00 0.  1.
    9000005    2    1    2  501    0 -0.47114222991E+02  0.16882585769E+02 -0.19926482152E+02  0.46945942607E+03  0.46635857054E+03 0.  0.
         13    1    3    3    0    0 -0.21649166656E+03  0.56469885306E+02  0.11289483642E+03  0.25060473605E+03  0.00000000000E+00 0.  1.
          3    1    3    3  501    0  0.16937744357E+03 -0.39587299537E+02 -0.13282131858E+03  0.21885469002E+03  0.00000000000E+00 0.  1.
         21    1    1    2  502  501  0.47114222991E+02 -0.16882585769E+02 -0.96454172454E+01  0.50968674538E+02  0.00000000000E+00 0.  1.
<scales pt_clust_4="550.00000" pt_clust_5="550.00000" pt_clust_6="50.04772"></scales>
<mgrwt>
<rscale>  0 0.30000000E+03</rscale>
<asrwt>  1 0.50047719E+02</asrwt>
<pdfrwt beam="1">  1        1 0.89246582E+00 0.30000000E+03</pdfrwt>
<pdfrwt beam="2">0</pdfrwt>
<totfact> 0.12642881E-04</totfact>
</mgrwt>
<clustering>
<clus scale="   50.048">  1  6  2 -1</clus>
<clus scale="  466.359">  4  5 -1 -1</clus>
<clus scale="  300.000">  1  4  2 -1</clus>
</clustering>
</event>
<event>
 6    1  0.9254630E-012  0.3000000E+03  0.7818608E-02  0.1093470E+00
          1   -1    0    0  502    0  0.00000000000E+00  0.00000000000E+00  0.24030148813E+03  0.24030148813E+03  0.00000000000E+00 0.  1.
         13   -1    0    0    0    0 -0.00000000000E+00 -0.00000000000E+00 -0.27500000000E+03  0.27500000000E+03  0.00000000000E+00 0.  1.
    9000005    2    1    2  501    0 -0.30092950020E+02  0.21629980139E+02 -0.38683711893E+02  0.47802785803E+03  0.47501659108E+03 0.  0.
         13    1    3    3    0    0  0.14811830701E+02  0.16208764586E+03  0.16156932967E+03  0.22933914528E+03  0.00000000000E+00 0.  1.
          3    1    3    3  501    0 -0.44904780721E+02 -0.14045766572E+03 -0.20025304156E+03  0.24868871274E+03  0.00000000000E+00 0.  1.
         21    1    1    2  502  501  0.30092950020E+02 -0.21629980139E+02  0.39852000213E+01  0.37273630101E+02  0.00000000000E+00 0. -1.
<scales pt_clust_4="550.00000" pt_clust_5="550.00000" pt_clust_6="37.05997"></scales>
<mgrwt>
<rscale>  0 0.30000000E+03</rscale>
<asrwt>  1 0.37059974E+02</asrwt>
<pdfrwt beam="1">  1        1 0.87382359E+00 0.30000000E+03</pdfrwt>
<pdfrwt beam="2">0</pdfrwt>
<totfact> 0.22895127E-04</totfact>
</mgrwt>
<clustering>
<clus scale="   37.060">  1  6  2 -1</clus>
<clus scale="  475.017">  4  5 -1 -1</clus>
<clus scale="  300.000">  1  4  2 -1</clus>
</clustering>
</event>
<event>
 6    1  0.9254630E-012  0.3000000E+03  0.7818608E-02  0.1093470E+00
          1   -1    0    0  502    0  0.00000000000E+00  0.00000000000E+00  0.22333677603E+03  0.22333677603E+03  0.00000000000E+00 0.  1.
         13   -1    0    0    0    0 -0.00000000000E+00 -0.00000000000E+00 -0.27500000000E+03  0.27500000000E+03  0.00000000000E+00 0.  1.
    9000005    2    1    2  501    0  0.27028533085E+02  0.14904009621E+02 -0.49197706382E+02  0.46737308955E+03  0.46375049263E+03 0.  0.
         13    1    3    3    0    0  0.12318651012E+03 -0.19188260739E+03  0.20417025777E+02  0.22893384685E+03  0.00000000000E+00 0.  1.
          1    1    3    3  501    0 -0.96157977039E+02  0.20678661701E+03 -0.69614732159E+02  0.23843924269E+03  0.00000000000E+00 0.  1.
         21    1    1    2  502  501 -0.27028533085E+02 -0.14904009621E+02 -0.24655175912E+01  0.30963686481E+02  0.00000000000E+00 0.  1.
<scales pt_clust_4="550.00000" pt_clust_5="550.00000" pt_clust_6="30.86537"></scales>
<mgrwt>
<rscale>  0 0.30000000E+03</rscale>
<asrwt>  1 0.30865371E+02</asrwt>
<pdfrwt beam="1">  1        1 0.81213373E+00 0.30000000E+03</pdfrwt>
<pdfrwt beam="2">0</pdfrwt>
<totfact> 0.85935409E-04</totfact>
</mgrwt>
<clustering>
<clus scale="   30.865">  1  6  2 -1</clus>
<clus scale="  463.750">  4  5 -1 -1</clus>
<clus scale="  300.000">  1  4  2 -1</clus>
</clustering>
</event>
<event>
 6    1  0.9254630E-012  0.3000000E+03  0.7818608E-02  0.1093470E+00
          1   -1    0    0  502    0  0.00000000000E+00  0.00000000000E+00  0.22954468874E+03  0.22954468874E+03  0.00000000000E+00 0.  1.
         13   -1    0    0    0    0 -0.00000000000E+00 -0.00000000000E+00 -0.27500000000E+03  0.27500000000E+03  0.00000000000E+00 0.  1.
    9000005    2    1    2  501    0 -0.23555417225E+02  0.23582900796E+02 -0.18696838374E+02  0.46180095514E+03  0.46021683967E+03 0.  0.
         13    1    3    3    0    0  0.21619598993E+03  0.21574498245E+02 -0.40644169465E+02  0.22103871504E+03  0.00000000000E+00 0.  1.
          3    1    3    3  501    0 -0.23975140716E+03  0.20084025506E+01  0.21947331091E+02  0.24076224010E+03  0.00000000000E+00 0.  1.
         21    1    1    2  502  501  0.23555417225E+02 -0.23582900796E+02 -0.26758472889E+02  0.42743733598E+02  0.00000000000E+00 0.  1.
<scales pt_clust_4="550.00000" pt_clust_5="550.00000" pt_clust_6="33.33185"></scales>
<mgrwt>
<rscale>  0 0.30000000E+03</rscale>
<asrwt>  1 0.33331847E+02</asrwt>
<pdfrwt beam="1">  1        1 0.83470796E+00 0.30000000E+03</pdfrwt>
<pdfrwt beam="2">0</pdfrwt>
<totfact> 0.54866705E-04</totfact>
</mgrwt>
<clustering>
<clus scale="   33.332">  1  6  2 -1</clus>
<clus scale="  460.217">  4  5 -1 -1</clus>
<clus scale="  300.000">  1  4  2 -1</clus>
</clustering>
</event>
<event>
 6    1  0.9254630E-012  0.3000000E+03  0.7818608E-02  0.1093470E+00
          1   -1    0    0  502    0  0.00000000000E+00  0.00000000000E+00  0.22303029554E+03  0.22303029554E+03  0.00000000000E+00 0.  1.
         13   -1    0    0    0    0 -0.00000000000E+00 -0.00000000000E+00 -0.27500000000E+03  0.27500000000E+03  0.00000000000E+00 0.  1.
    9000005    2    1    2  501    0 -0.17263403482E+02 -0.30951863210E+02 -0.57619676545E+02  0.46214206459E+03  0.45716432254E+03 0.  0.
         13    1    3    3    0    0 -0.67770311819E+02 -0.10868922273E+03  0.17203566229E+03  0.21448177405E+03  0.00000000000E+00 0.  1.
          3    1    3    3  501    0  0.50506908337E+02  0.77737359524E+02 -0.22965533883E+03  0.24766029054E+03  0.00000000000E+00 0.  1.
         21    1    1    2  502  501  0.17263403482E+02  0.30951863210E+02  0.56499720856E+01  0.35888230948E+02  0.00000000000E+00 0. -1.
<scales pt_clust_4="550.00000" pt_clust_5="550.00000" pt_clust_6="35.44070"></scales>
<mgrwt>
<rscale>  0 0.30000000E+03</rscale>
<asrwt>  1 0.35440696E+02</asrwt>
<pdfrwt beam="1">  1        1 0.81101926E+00 0.30000000E+03</pdfrwt>
<pdfrwt beam="2">0</pdfrwt>
<totfact> 0.85428363E-04</totfact>
</mgrwt>
<clustering>
<clus scale="   35.441">  1  6  2 -1</clus>
<clus scale="  457.164">  4  5 -1 -1</clus>
<clus scale="  300.000">  1  4  2 -1</clus>
</clustering>
</event>
<event>
 6    1  0.9254630E-012  0.3000000E+03  0.7818608E-02  0.1093470E+00
          1   -1    0    0  502    0  0.00000000000E+00  0.00000000000E+00  0.24878497809E+03  0.24878497809E+03  0.00000000000E+00 0.  1.
         13   -1    0    0    0    0 -0.00000000000E+00 -0.00000000000E+00 -0.27500000000E+03  0.27500000000E+03  0.00000000000E+00 0.  1.
    9000005    2    1    2  501    0  0.15181414567E+02 -0.44370260624E+02 -0.41940269813E+02  0.47432308571E+03  0.47013211764E+03 0.  0.
         13    1    3    3    0    0 -0.19615120115E+03  0.44352977009E+02 -0.11759116566E+03  0.23295957272E+03  0.00000000000E+00 0.  1.
          1    1    3    3  501    0  0.21133261571E+03 -0.88723237634E+02  0.75650895848E+02  0.24136351299E+03  0.00000000000E+00 0.  1.
         21    1    1    2  502  501 -0.15181414567E+02  0.44370260624E+02  0.15725247908E+02  0.49461892381E+02  0.00000000000E+00 0.  1.
<scales pt_clust_4="550.00000" pt_clust_5="550.00000" pt_clust_6="46.89558"></scales>
<mgrwt>
<rscale>  0 0.30000000E+03</rscale>
<asrwt>  1 0.46895579E+02</asrwt>
<pdfrwt beam="1">  1        1 0.90467265E+00 0.30000000E+03</pdfrwt>
<pdfrwt beam="2">0</pdfrwt>
<totfact> 0.88909999E-05</totfact>
</mgrwt>
<clustering>
<clus scale="   46.896">  1  6  2 -1</clus>
<clus scale="  470.132">  4  5 -1 -1</clus>
<clus scale="  300.000">  1  4  2 -1</clus>
</clustering>
</event>
<event>
 6    1  0.9254630E-012  0.3000000E+03  0.7818608E-02  0.1093470E+00
          1   -1    0    0  502    0  0.00000000000E+00  0.00000000000E+00  0.24568466611E+03  0.24568466611E+03  0.00000000000E+00 0.  1.
         13   -1    0    0    0    0 -0.00000000000E+00 -0.00000000000E+00 -0.27500000000E+03  0.27500000000E+03  0.00000000000E+00 0.  1.
    9000005    2    1    2  501    0  0.35148412578E+02  0.20645878124E+02 -0.34922506400E+02  0.47953732630E+03  0.47652366433E+03 0.  0.
         13    1    3    3    0    0 -0.10865760359E+03  0.15214802816E+03 -0.16159279116E+03  0.24711885287E+03  0.00000000000E+00 0.  1.
          1    1    3    3  501    0  0.14380601617E+03 -0.13150215003E+03  0.12667028476E+03  0.23241847343E+03  0.00000000000E+00 0.  1.
         21    1    1    2  502  501 -0.35148412578E+02 -0.20645878124E+02  0.56071725143E+01  0.41147339815E+02  0.00000000000E+00 0. -1.
<scales pt_clust_4="550.00000" pt_clust_5="550.00000" pt_clust_6="40.76350"></scales>
<mgrwt>
<rscale>  0 0.30000000E+03</rscale>
<asrwt>  1 0.40763503E+02</asrwt>
<pdfrwt beam="1">  1        1 0.89339879E+00 0.30000000E+03</pdfrwt>
<pdfrwt beam="2">0</pdfrwt>
<totfact> 0.12785845E-04</totfact>
</mgrwt>
<clustering>
<clus scale="   40.764">  1  6  2 -1</clus>
<clus scale="  476.524">  4  5 -1 -1</clus>
<clus scale="  300.000">  1  4  2 -1</clus>
</clustering>
</event>
<event>
 6    1  0.9254630E-012  0.3000000E+03  0.7818608E-02  0.1093470E+00
          1   -1    0    0  502    0  0.00000000000E+00  0.00000000000E+00  0.22080645539E+03  0.22080645539E+03  0.00000000000E+00 0.  1.
         13   -1    0    0    0    0 -0.00000000000E+00 -0.00000000000E+00 -0.27500000000E+03  0.27500000000E+03  0.00000000000E+00 0.  1.
    9000005    2    1    2  501    0  0.93283454227E+01  0.30880535887E+02 -0.52055463099E+02  0.46347695002E+03  0.45941319794E+03 0.  0.
         13    1    3    3    0    0 -0.71455520735E+02 -0.17489088051E+03  0.80895554352E+02  0.20551594158E+03  0.00000000000E+00 0.  1.
          1    1    3    3  501    0  0.80783866158E+02  0.20577141639E+03 -0.13295101745E+03  0.25796100844E+03  0.00000000000E+00 0.  1.
         21    1    1    2  502  501 -0.93283454227E+01 -0.30880535887E+02 -0.21380815086E+01  0.32329505371E+02  0.00000000000E+00 0.  1.
<scales pt_clust_4="550.00000" pt_clust_5="550.00000" pt_clust_6="32.25873"></scales>
<mgrwt>
<rscale>  0 0.30000000E+03</rscale>
<asrwt>  1 0.32258728E+02</asrwt>
<pdfrwt beam="1">  1        1 0.80293257E+00 0.30000000E+03</pdfrwt>
<pdfrwt beam="2">0</pdfrwt>
<totfact> 0.10026278E-03</totfact>
</mgrwt>
<clustering>
<clus scale="   32.259">  1  6  2 -1</clus>
<clus scale="  459.413">  4  5 -1 -1</clus>
<clus scale="  300.000">  1  4  2 -1</clus>
</clustering>
</event>
<event>
 6    1  0.9254630E-012  0.3000000E+03  0.7818608E-02  0.1093470E+00
          1   -1    0    0  502    0  0.00000000000E+00  0.00000000000E+00  0.23599044415E+03  0.23599044415E+03  0.00000000000E+00 0.  1.
         13   -1    0    0    0    0 -0.00000000000E+00 -0.00000000000E+00 -0.27500000000E+03  0.27500000000E+03  0.00000000000E+00 0.  1.
    9000005    2    1    2  501    0 -0.37440670944E+01 -0.34294865729E+02 -0.29391111658E+02  0.47517605706E+03  0.47300982221E+03 0.  0.
         13    1    3    3    0    0  0.19310000281E+03 -0.13766847738E+03 -0.73961047966E+02  0.24841589596E+03  0.00000000000E+00 0.  1.
          1    1    3    3  501    0 -0.19684406990E+03  0.10337361165E+03  0.44569936308E+02  0.22676016110E+03  0.00000000000E+00 0.  1.
         21    1    1    2  502  501  0.37440670944E+01  0.34294865729E+02 -0.96184441951E+01  0.35814387089E+02  0.00000000000E+00 0. -1.
<scales pt_clust_4="550.00000" pt_clust_5="550.00000" pt_clust_6="34.49865"></scales>
<mgrwt>
<rscale>  0 0.30000000E+03</rscale>
<asrwt>  1 0.34498653E+02</asrwt>
<pdfrwt beam="1">  1        1 0.85814707E+00 0.30000000E+03</pdfrwt>
<pdfrwt beam="2">0</pdfrwt>
<totfact> 0.33929623E-04</totfact>
</mgrwt>
<clustering>
<clus scale="   34.499">  1  6  2 -1</clus>
<clus scale="  473.010">  4  5 -1 -1</clus>
<clus scale="  300.000">  1  4  2 -1</clus>
</clustering>
</event>
<event>
 6    1  0.9254630E-012  0.3000000E+03  0.7818608E-02  0.1093470E+00
          1   -1    0    0  502    0  0.00000000000E+00  0.00000000000E+00  0.22262348442E+03  0.22262348442E+03  0.00000000000E+00 0.  1.
         13   -1    0    0    0    0 -0.00000000000E+00 -0.00000000000E+00 -0.27500000000E+03  0.27500000000E+03  0.00000000000E+00 0.  1.
    9000005    2    1    2  501    0 -0.18262047527E+02  0.24122352835E+02 -0.54997636421E+02  0.46725474127E+03  0.46301929003E+03 0.  0.
         13    1    3    3    0    0 -0.16965630061E+03  0.17792417329E+03 -0.52692736112E+02  0.25142950546E+03  0.00000000000E+00 0.  1.
          1    1    3    3  501    0  0.15139425308E+03 -0.15380182046E+03 -0.23049003095E+01  0.21582523580E+03  0.00000000000E+00 0.  1.
         21    1    1    2  502  501  0.18262047527E+02 -0.24122352835E+02  0.26211208385E+01  0.30368743152E+02  0.00000000000E+00 0. -1.
<scales pt_clust_4="550.00000" pt_clust_5="550.00000" pt_clust_6="30.25542"></scales>
<mgrwt>
<rscale>  0 0.30000000E+03</rscale>
<asrwt>  1 0.30255417E+02</asrwt>
<pdfrwt beam="1">  1        1 0.80953994E+00 0.30000000E+03</pdfrwt>
<pdfrwt beam="2">0</pdfrwt>
<totfact> 0.90399967E-04</totfact>
</mgrwt>
<clustering>
<clus scale="   30.255">  1  6  2 -1</clus>
<clus scale="  463.019">  4  5 -1 -1</clus>
<clus scale="  300.000">  1  4  2 -1</clus>
</clustering>
</event>
<event>
 6    1  0.9254630E-012  0.3000000E+03  0.7818608E-02  0.1093470E+00
          1   -1    0    0  502    0  0.00000000000E+00  0.00000000000E+00  0.24780795012E+03  0.24780795012E+03  0.00000000000E+00 0.  1.
         13   -1    0    0    0    0 -0.00000000000E+00 -0.00000000000E+00 -0.27500000000E+03  0.27500000000E+03  0.00000000000E+00 0.  1.
    9000005    2    1    2  501    0 -0.33567433808E+02  0.26472338070E+02 -0.39698081448E+01  0.47415787502E+03  0.47221009495E+03 0.  0.
         13    1    3    3    0    0  0.13744523519E+03 -0.13639699645E+03 -0.10152856122E+03  0.21863984555E+03  0.00000000000E+00 0.  1.
          3    1    3    3  501    0 -0.17101266900E+03  0.16286933452E+03  0.97558753076E+02  0.25551802948E+03  0.00000000000E+00 0.  1.
         21    1    1    2  502  501  0.33567433808E+02 -0.26472338070E+02 -0.23222241738E+02  0.48650075095E+02  0.00000000000E+00 0.  1.
<scales pt_clust_4="550.00000" pt_clust_5="550.00000" pt_clust_6="42.74996"></scales>
<mgrwt>
<rscale>  0 0.30000000E+03</rscale>
<asrwt>  1 0.42749961E+02</asrwt>
<pdfrwt beam="1">  1        1 0.90111982E+00 0.30000000E+03</pdfrwt>
<pdfrwt beam="2">0</pdfrwt>
<totfact> 0.10294212E-04</totfact>
</mgrwt>
<clustering>
<clus scale="   42.750">  1  6  2 -1</clus>
<clus scale="  472.210">  4  5 -1 -1</clus>
<clus scale="  300.000">  1  4  2 -1</clus>
</clustering>
</event>
<event>
 6    1  0.9254630E-012  0.3000000E+03  0.7818608E-02  0.1093470E+00
          1   -1    0    0  502    0  0.00000000000E+00  0.00000000000E+00  0.22598639984E+03  0.22598639984E+03  0.00000000000E+00 0.  1.
         13   -1    0    0    0    0 -0.00000000000E+00 -0.00000000000E+00 -0.27500000000E+03  0.27500000000E+03  0.00000000000E+00 0.  1.
    9000005    2    1    2  501    0 -0.23424081313E+02  0.30187389550E+02 -0.33505186387E+02  0.45974955987E+03  0.45693226436E+03 0.  0.
         13    1    3    3    0    0 -0.16351138828E+03  0.15700949869E+03  0.78722711163E+02  0.23996921059E+03  0.00000000000E+00 0.  1.
          1    1    3    3  501    0  0.14008730697E+03 -0.12682210914E+03 -0.11222789755E+03  0.21978034928E+03  0.00000000000E+00 0.  1.
         21    1    1    2  502  501  0.23424081313E+02 -0.30187389550E+02 -0.15508413772E+02  0.41236839972E+02  0.00000000000E+00 0. -1.
<scales pt_clust_4="550.00000" pt_clust_5="550.00000" pt_clust_6="38.20952"></scales>
<mgrwt>
<rscale>  0 0.30000000E+03</rscale>
<asrwt>  1 0.38209521E+02</asrwt>
<pdfrwt beam="1">  1        1 0.82176873E+00 0.30000000E+03</pdfrwt>
<pdfrwt beam="2">0</pdfrwt>
<totfact> 0.68667948E-04</totfact>
</mgrwt>
<clustering>
<clus scale="   38.210">  1  6  2 -1</clus>
<clus scale="  456.932">  4  5 -1 -1</clus>
<clus scale="  300.000">  1  4  2 -1</clus>
</clustering>
</event>
<event>
 6    1  0.9254630E-012  0.3000000E+03  0.7818608E-02  0.1093470E+00
          1   -1    0    0  502    0  0.00000000000E+00  0.00000000000E+00  0.23338843883E+03  0.23338843883E+03  0.00000000000E+00 0.  1.
         13   -1    0    0    0    0 -0.00000000000E+00 -0.00000000000E+00 -0.27500000000E+03  0.27500000000E+03  0.00000000000E+00 0.  1.
    9000005    2    1    2  501    0  0.23773966239E+02 -0.36805782026E+02 -0.49429772132E+02  0.46388010833E+03  0.45915311768E+03 0.  0.
         13    1    3    3    0    0  0.15737642631E+03  0.13635066605E+03 -0.11194769266E+03  0.23641304867E+03  0.00000000000E+00 0.  1.
          3    1    3    3  501    0 -0.13360246007E+03 -0.17315644807E+03  0.62517920523E+02  0.22746705967E+03  0.00000000000E+00 0.  1.
         21    1    1    2  502  501 -0.23773966239E+02  0.36805782026E+02  0.78182109669E+01  0.44508330501E+02  0.00000000000E+00 0.  1.
<scales pt_clust_4="550.00000" pt_clust_5="550.00000" pt_clust_6="43.81629"></scales>
<mgrwt>
<rscale>  0 0.30000000E+03</rscale>
<asrwt>  1 0.43816288E+02</asrwt>
<pdfrwt beam="1">  1        1 0.84868523E+00 0.30000000E+03</pdfrwt>
<pdfrwt beam="2">0</pdfrwt>
<totfact> 0.40173997E-04</totfact>
</mgrwt>
<clustering>
<clus scale="   43.816">  1  6  2 -1</clus>
<clus scale="  459.153">  4  5 -1 -1</clus>
<clus scale="  300.000">  1  4  2 -1</clus>
</clustering>
</event>
<event>
 6    1  0.9254630E-012  0.3000000E+03  0.7818608E-02  0.1093470E+00
          1   -1    0    0  502    0  0.00000000000E+00  0.00000000000E+00  0.22862642036E+03  0.22862642036E+03  0.00000000000E+00 0.  1.
         13   -1    0    0    0    0 -0.00000000000E+00 -0.00000000000E+00 -0.27500000000E+03  0.27500000000E+03  0.00000000000E+00 0.  1.
    9000005    2    1    2  501    0  0.29222480401E+02 -0.11720701314E+02 -0.62915046352E+02  0.46806030838E+03  0.46274271580E+03 0.  0.
         13    1    3    3    0    0  0.13590238880E+03  0.89768632637E+02 -0.20609194074E+03  0.26268185078E+03  0.00000000000E+00 0.  1.
          3    1    3    3  501    0 -0.10667990840E+03 -0.10148933395E+03  0.14317689439E+03  0.20537845761E+03  0.00000000000E+00 0.  1.
         21    1    1    2  502  501 -0.29222480401E+02  0.11720701314E+02  0.16541466711E+02  0.35566111975E+02  0.00000000000E+00 0.  1.
<scales pt_clust_4="550.00000" pt_clust_5="550.00000" pt_clust_6="31.48536"></scales>
<mgrwt>
<rscale>  0 0.30000000E+03</rscale>
<asrwt>  1 0.31485365E+02</asrwt>
<pdfrwt beam="1">  1        1 0.83136880E+00 0.30000000E+03</pdfrwt>
<pdfrwt beam="2">0</pdfrwt>
<totfact> 0.58781921E-04</totfact>
</mgrwt>
<clustering>
<clus scale="   31.485">  1  6  2 -1</clus>
<clus scale="  462.743">  4  5 -1 -1</clus>
<clus scale="  300.000">  1  4  2 -1</clus>
</clustering>
</event>
<event>
 6    1  0.9254630E-012  0.3000000E+03  0.7818608E-02  0.1093470E+00
          1   -1    0    0  502    0  0.00000000000E+00  0.00000000000E+00  0.23256163230E+03  0.23256163230E+03  0.00000000000E+00 0.  1.
         13   -1    0    0    0    0 -0.00000000000E+00 -0.00000000000E+00 -0.27500000000E+03  0.27500000000E+03  0.00000000000E+00 0.  1.
    9000005    2    1    2  501    0  0.21091170123E+02  0.33821677224E+02 -0.63696378789E+02  0.46238811857E+03  0.45624204126E+03 0.  0.
         13    1    3    3    0    0 -0.17210365545E+03 -0.61677956313E+02 -0.14366951999E+03  0.23251832076E+03  0.00000000000E+00 0.  1.
          3    1    3    3  501    0  0.19319482557E+03  0.95499633537E+02  0.79973141201E+02  0.22986979781E+03  0.00000000000E+00 0.  1.
         21    1    1    2  502  501 -0.21091170123E+02 -0.33821677224E+02  0.21258011090E+02  0.45173513732E+02  0.00000000000E+00 0.  1.
<scales pt_clust_4="550.00000" pt_clust_5="550.00000" pt_clust_6="39.85904"></scales>
<mgrwt>
<rscale>  0 0.30000000E+03</rscale>
<asrwt>  1 0.39859043E+02</asrwt>
<pdfrwt beam="1">  1        1 0.84567866E+00 0.30000000E+03</pdfrwt>
<pdfrwt beam="2">0</pdfrwt>
<totfact> 0.43508195E-04</totfact>
</mgrwt>
<clustering>
<clus scale="   39.859">  1  6  2 -1</clus>
<clus scale="  456.242">  4  5 -1 -1</clus>
<clus scale="  300.000">  1  4  2 -1</clus>
</clustering>
</event>
<event>
 6    1  0.9254630E-012  0.3000000E+03  0.7818608E-02  0.1093470E+00
          1   -1    0    0  502    0  0.00000000000E+00  0.00000000000E+00  0.22495540049E+03  0.22495540049E+03  0.00000000000E+00 0.  1.
         13   -1    0    0    0    0 -0.00000000000E+00 -0.00000000000E+00 -0.27500000000E+03  0.27500000000E+03  0.00000000000E+00 0.  1.
    9000005    2    1    2  501    0  0.10324593690E+02 -0.29022894177E+02 -0.46527246098E+02  0.46895060414E+03  0.46561889875E+03 0.  0.
         13    1    3    3    0    0 -0.13420837575E+03 -0.19859745705E+03  0.70134971352E+01  0.23979580316E+03  0.00000000000E+00 0.  1.
          1    1    3    3  501    0  0.14453296944E+03  0.16957456288E+03 -0.53540743234E+02  0.22915480099E+03  0.00000000000E+00 0.  1.
         21    1    1    2  502  501 -0.10324593690E+02  0.29022894177E+02 -0.35173534148E+01  0.31004796343E+02  0.00000000000E+00 0.  1.
<scales pt_clust_4="550.00000" pt_clust_5="550.00000" pt_clust_6="30.80465"></scales>
<mgrwt>
<rscale>  0 0.30000000E+03</rscale>
<asrwt>  1 0.30804652E+02</asrwt>
<pdfrwt beam="1">  1        1 0.81801964E+00 0.30000000E+03</pdfrwt>
<pdfrwt beam="2">0</pdfrwt>
<totfact> 0.77032798E-04</totfact>
</mgrwt>
<clustering>
<clus scale="   30.805">  1  6  2 -1</clus>
<clus scale="  465.619">  4  5 -1 -1</clus>
<clus scale="  300.000">  1  4  2 -1</clus>
</clustering>
</event>
<event>
 6    1  0.9254630E-012  0.3000000E+03  0.7818608E-02  0.1093470E+00
          1   -1    0    0  502    0  0.00000000000E+00  0.00000000000E+00  0.26993592568E+03  0.26993592568E+03  0.00000000000E+00 0.  1.
         13   -1    0    0    0    0 -0.00000000000E+00 -0.00000000000E+00 -0.27500000000E+03  0.27500000000E+03  0.00000000000E+00 0.  1.
    9000005    2    1    2  501    0 -0.36806901679E+02 -0.15309810411E+02 -0.26235558829E+02  0.49979868981E+03  0.49751511281E+03 0.  0.
         13    1    3    3    0    0  0.13901463211E+03  0.12969201496E+03  0.12386491200E+03  0.22690879910E+03  0.00000000000E+00 0.  1.
          1    1    3    3  501    0 -0.17582153379E+03 -0.14500182538E+03 -0.15010047083E+03  0.27288989070E+03  0.00000000000E+00 0.  1.
         21    1    1    2  502  501  0.36806901679E+02  0.15309810411E+02  0.21171484509E+02  0.45137235874E+02  0.00000000000E+00 0.  1.
<scales pt_clust_4="550.00000" pt_clust_5="550.00000" pt_clust_6="39.86400"></scales>
<mgrwt>
<rscale>  0 0.30000000E+03</rscale>
<asrwt>  1 0.39863998E+02</asrwt>
<pdfrwt beam="1">  1        1 0.98158518E+00 0.30000000E+03</pdfrwt>
<pdfrwt beam="2">0</pdfrwt>
<totfact> 0.23858608E-06</totfact>
</mgrwt>
<clustering>
<clus scale="   39.864">  1  6  2 -1</clus>
<clus scale="  497.515">  4  5 -1 -1</clus>
<clus scale="  300.000">  1  4  2 -1</clus>
</clustering>
</event>
<event>
 6    1  0.9254630E-012  0.3000000E+03  0.7818608E-02  0.1093470E+00
          1   -1    0    0  502    0  0.00000000000E+00  0.00000000000E+00  0.25103619434E+03  0.25103619434E+03  0.00000000000E+00 0.  1.
         13   -1    0    0    0    0 -0.00000000000E+00 -0.00000000000E+00 -0.27500000000E+03  0.27500000000E+03  0.00000000000E+00 0.  1.
    9000005    2    1    2  501    0 -0.38928111166E+02 -0.12792342141E+02 -0.51945735258E+02  0.47641734469E+03  0.47180089557E+03 0.  0.
         13    1    3    3    0    0  0.20073211490E+03  0.78765948009E+02 -0.55640281800E+01  0.21570446200E+03  0.00000000000E+00 0.  1.
          1    1    3    3  501    0 -0.23966022606E+03 -0.91558290150E+02 -0.46381707078E+02  0.26071288269E+03  0.00000000000E+00 0.  1.
         21    1    1    2  502  501  0.38928111166E+02  0.12792342141E+02  0.27981929602E+02  0.49618849651E+02  0.00000000000E+00 0. -1.
<scales pt_clust_4="550.00000" pt_clust_5="550.00000" pt_clust_6="40.97611"></scales>
<mgrwt>
<rscale>  0 0.30000000E+03</rscale>
<asrwt>  1 0.40976113E+02</asrwt>
<pdfrwt beam="1">  1        1 0.91285889E+00 0.30000000E+03</pdfrwt>
<pdfrwt beam="2">0</pdfrwt>
<totfact> 0.59266110E-05</totfact>
</mgrwt>
<clustering>
<clus scale="   40.976">  1  6  2 -1</clus>
<clus scale="  471.801">  4  5 -1 -1</clus>
<clus scale="  300.000">  1  4  2 -1</clus>
</clustering>
</event>
<event>
 6    1  0.9254630E-012  0.3000000E+03  0.7818608E-02  0.1093470E+00
          1   -1    0    0  502    0  0.00000000000E+00  0.00000000000E+00  0.23397286401E+03  0.23397286401E+03  0.00000000000E+00 0.  1.
         13   -1    0    0    0    0 -0.00000000000E+00 -0.00000000000E+00 -0.27500000000E+03  0.27500000000E+03  0.00000000000E+00 0.  1.
    9000005    2    1    2  501    0 -0.13652033966E+02 -0.26844570580E+02 -0.52814569899E+02  0.47663167356E+03  0.47273815633E+03 0.  0.
         13    1    3    3    0    0  0.32493956486E+01 -0.18546100914E+03 -0.19051845245E+03  0.26590153292E+03  0.00000000000E+00 0.  1.
          3    1    3    3  501    0 -0.16901429614E+02  0.15861643856E+03  0.13770388255E+03  0.21073014064E+03  0.00000000000E+00 0.  1.
         21    1    1    2  502  501  0.13652033966E+02  0.26844570580E+02  0.11787433905E+02  0.32341190440E+02  0.00000000000E+00 0.  1.
<scales pt_clust_4="550.00000" pt_clust_5="550.00000" pt_clust_6="30.11659"></scales>
<mgrwt>
<rscale>  0 0.30000000E+03</rscale>
<asrwt>  1 0.30116590E+02</asrwt>
<pdfrwt beam="1">  1        1 0.85081041E+00 0.30000000E+03</pdfrwt>
<pdfrwt beam="2">0</pdfrwt>
<totfact> 0.41145572E-04</totfact>
</mgrwt>
<clustering>
<clus scale="   30.117">  1  6  2 -1</clus>
<clus scale="  472.738">  4  5 -1 -1</clus>
<clus scale="  300.000">  1  4  2 -1</clus>
</clustering>
</event>
<event>
 6    1  0.9254630E-012  0.3000000E+03  0.7818608E-02  0.1093470E+00
          1   -1    0    0  502    0  0.00000000000E+00  0.00000000000E+00  0.23692267933E+03  0.23692267933E+03  0.00000000000E+00 0.  1.
         13   -1    0    0    0    0 -0.00000000000E+00 -0.00000000000E+00 -0.27500000000E+03  0.27500000000E+03  0.00000000000E+00 0.  1.
    9000005    2    1    2  501    0  0.37230488189E+02  0.73713151582E+01 -0.62171914732E+02  0.46696720134E+03  0.46125109714E+03 0.  0.
         13    1    3    3    0    0  0.16038740218E+03 -0.17421725449E+03 -0.71481745881E+02  0.24735684857E+03  0.00000000000E+00 0.  1.
          3    1    3    3  501    0 -0.12315691399E+03  0.18158856965E+03  0.93098311495E+01  0.21961035278E+03  0.00000000000E+00 0.  1.
         21    1    1    2  502  501 -0.37230488189E+02 -0.73713151582E+01  0.24094594059E+02  0.44955477984E+02  0.00000000000E+00 0.  1.
<scales pt_clust_4="550.00000" pt_clust_5="550.00000" pt_clust_6="37.95320"></scales>
<mgrwt>
<rscale>  0 0.30000000E+03</rscale>
<asrwt>  1 0.37953202E+02</asrwt>
<pdfrwt beam="1">  1        1 0.86153702E+00 0.30000000E+03</pdfrwt>
<pdfrwt beam="2">0</pdfrwt>
<totfact> 0.30676097E-04</totfact>
</mgrwt>
<clustering>
<clus scale="   37.953">  1  6  2 -1</clus>
<clus scale="  461.251">  4  5 -1 -1</clus>
<clus scale="  300.000">  1  4  2 -1</clus>
</clustering>
</event>
<event>
 6    1  0.9254630E-012  0.3000000E+03  0.7818608E-02  0.1093470E+00
          1   -1    0    0  502    0  0.00000000000E+00  0.00000000000E+00  0.22296247420E+03  0.22296247420E+03  0.00000000000E+00 0.  1.
         13   -1    0    0    0    0 -0.00000000000E+00 -0.00000000000E+00 -0.27500000000E+03  0.27500000000E+03  0.00000000000E+00 0.  1.
    9000005    2    1    2  501    0  0.33593584662E+02  0.15165918803E+02 -0.48684907084E+02  0.46095201519E+03  0.45688949004E+03 0.  0.
         13    1    3    3    0    0  0.25744552123E+02  0.11161045322E+03 -0.22914973801E+03  0.25618211816E+03  0.00000000000E+00 0.  1.
          1    1    3    3  501    0  0.78490325396E+01 -0.96444534419E+02  0.18046483093E+03  0.20476989704E+03  0.00000000000E+00 0.  1.
         21    1    1    2  502  501 -0.33593584662E+02 -0.15165918803E+02 -0.33526187160E+01  0.37010459006E+02  0.00000000000E+00 0. -1.
<scales pt_clust_4="550.00000" pt_clust_5="550.00000" pt_clust_6="36.85830"></scales>
<mgrwt>
<rscale>  0 0.30000000E+03</rscale>
<asrwt>  1 0.36858297E+02</asrwt>
<pdfrwt beam="1">  1        1 0.81077263E+00 0.30000000E+03</pdfrwt>
<pdfrwt beam="2">0</pdfrwt>
<totfact> 0.85185902E-04</totfact>
</mgrwt>
<clustering>
<clus scale="   36.858">  1  6  2 -1</clus>
<clus scale="  456.889">  4  5 -1 -1</clus>
<clus scale="  300.000">  1  4  2 -1</clus>
</clustering>
</event>
<event>
 6    1  0.9254630E-012  0.3000000E+03  0.7818608E-02  0.1093470E+00
          1   -1    0    0  502    0  0.00000000000E+00  0.00000000000E+00  0.24449552885E+03  0.24449552885E+03  0.00000000000E+00 0.  1.
         13   -1    0    0    0    0 -0.00000000000E+00 -0.00000000000E+00 -0.27500000000E+03  0.27500000000E+03  0.00000000000E+00 0.  1.
    9000005    2    1    2  501    0  0.58630637446E+01 -0.31566780204E+02 -0.65810457226E+02  0.47177394273E+03  0.46605664852E+03 0.  0.
         13    1    3    3    0    0 -0.15393689077E+03 -0.17122545507E+03 -0.10971400349E+03  0.25505271095E+03  0.00000000000E+00 0.  1.
          3    1    3    3  501    0  0.15979995451E+03  0.13965867487E+03  0.43903546263E+02  0.21672123178E+03  0.00000000000E+00 0.  1.
         21    1    1    2  502  501 -0.58630637446E+01  0.31566780204E+02  0.35305986075E+02  0.47721586118E+02  0.00000000000E+00 0. -1.
<scales pt_clust_4="550.00000" pt_clust_5="550.00000" pt_clust_6="32.10665"></scales>
<mgrwt>
<rscale>  0 0.30000000E+03</rscale>
<asrwt>  1 0.32106652E+02</asrwt>
<pdfrwt beam="1">  1        1 0.88907465E+00 0.30000000E+03</pdfrwt>
<pdfrwt beam="2">0</pdfrwt>
<totfact> 0.15161302E-04</totfact>
</mgrwt>
<clustering>
<clus scale="   32.107">  1  6  2 -1</clus>
<clus scale="  466.057">  4  5 -1 -1</clus>
<clus scale="  300.000">  1  4  2 -1</clus>
</clustering>
</event>
<event>
 6    1  0.9254630E-012  0.3000000E+03  0.7818608E-02  0.1093470E+00
          1   -1    0    0  502    0  0.00000000000E+00  0.00000000000E+00  0.24788914647E+03  0.24788914647E+03  0.00000000000E+00 0.  1.
         13   -1    0    0    0    0 -0.00000000000E+00 -0.00000000000E+00 -0.27500000000E+03  0.27500000000E+03  0.00000000000E+00 0.  1.
    9000005    2    1    2  501    0 -0.13624307509E+01 -0.35426298290E+02 -0.23184525476E+01  0.47962782455E+03  0.47831014627E+03 0.  0.
         13    1    3    3    0    0  0.13228285696E+03  0.97318825014E+02  0.16124967327E+03  0.23015465470E+03  0.00000000000E+00 0.  1.
          1    1    3    3  501    0 -0.13364528771E+03 -0.13274512330E+03 -0.16356812582E+03  0.24947316985E+03  0.00000000000E+00 0.  1.
         21    1    1    2  502  501  0.13624307509E+01  0.35426298290E+02 -0.24792400983E+02  0.43261321924E+02  0.00000000000E+00 0. -1.
<scales pt_clust_4="550.00000" pt_clust_5="550.00000" pt_clust_6="35.45250"></scales>
<mgrwt>
<rscale>  0 0.30000000E+03</rscale>
<asrwt>  1 0.35452505E+02</asrwt>
<pdfrwt beam="1">  1        1 0.90141508E+00 0.30000000E+03</pdfrwt>
<pdfrwt beam="2">0</pdfrwt>
<totfact> 0.10554886E-04</totfact>
</mgrwt>
<clustering>
<clus scale="   35.453">  1  6  2 -1</clus>
<clus scale="  478.310">  4  5 -1 -1</clus>
<clus scale="  300.000">  1  4  2 -1</clus>
</clustering>
</event>
<event>
 6    1  0.9254630E-012  0.3000000E+03  0.7818608E-02  0.1093470E+00
          1   -1    0    0  502    0  0.00000000000E+00  0.00000000000E+00  0.22568110750E+03  0.22568110750E+03  0.00000000000E+00 0.  1.
         13   -1    0    0    0    0 -0.00000000000E+00 -0.00000000000E+00 -0.27500000000E+03  0.27500000000E+03  0.00000000000E+00 0.  1.
    9000005    2    1    2  501    0  0.27957114527E+02  0.23150486874E+02 -0.56096123867E+02  0.46375582943E+03  0.45891736612E+03 0.  0.
         13    1    3    3    0    0  0.22971094705E+03  0.85704146723E+02 -0.60303141579E+02  0.25248522500E+03  0.00000000000E+00 0.  1.
          1    1    3    3  501    0 -0.20175383252E+03 -0.62553659849E+02  0.42070177114E+01  0.21127060443E+03  0.00000000000E+00 0.  1.
         21    1    1    2  502  501 -0.27957114527E+02 -0.23150486874E+02  0.67772313622E+01  0.36925278064E+02  0.00000000000E+00 0. -1.
<scales pt_clust_4="550.00000" pt_clust_5="550.00000" pt_clust_6="36.29801"></scales>
<mgrwt>
<rscale>  0 0.30000000E+03</rscale>
<asrwt>  1 0.36298007E+02</asrwt>
<pdfrwt beam="1">  1        1 0.82065857E+00 0.30000000E+03</pdfrwt>
<pdfrwt beam="2">0</pdfrwt>
<totfact> 0.70898369E-04</totfact>
</mgrwt>
<clustering>
<clus scale="   36.298">  1  6  2 -1</clus>
<clus scale="  458.917">  4  5 -1 -1</clus>
<clus scale="  300.000">  1  4  2 -1</clus>
</clustering>
</event>
<event>
 6    1  0.9254630E-012  0.3000000E+03  0.7818608E-02  0.1093470E+00
          1   -1    0    0  502    0  0.00000000000E+00  0.00000000000E+00  0.26233374194E+03  0.26233374194E+03  0.00000000000E+00 0.  1.
         13   -1    0    0    0    0 -0.00000000000E+00 -0.00000000000E+00 -0.27500000000E+03  0.27500000000E+03  0.00000000000E+00 0.  1.
    9000005    2    1    2  501    0  0.31344494675E+02 -0.78058923081E+01 -0.69581183774E+02  0.47189126284E+03  0.46561401774E+03 0.  0.
         13    1    3    3    0    0 -0.72597102736E+02  0.14345389614E+03  0.12556556912E+03  0.20400017595E+03  0.00000000000E+00 0.  1.
          3    1    3    3  501    0  0.10394159741E+03 -0.15125978844E+03 -0.19514675289E+03  0.26789108689E+03  0.00000000000E+00 0.  1.
         21    1    1    2  502  501 -0.31344494675E+02  0.78058923081E+01  0.56914925711E+02  0.65442479093E+02  0.00000000000E+00 0. -1.
<scales pt_clust_4="550.00000" pt_clust_5="550.00000" pt_clust_6="32.30185"></scales>
<mgrwt>
<rscale>  0 0.30000000E+03</rscale>
<asrwt>  1 0.32301847E+02</asrwt>
<pdfrwt beam="1">  1        1 0.95394088E+00 0.30000000E+03</pdfrwt>
<pdfrwt beam="2">0</pdfrwt>
<totfact> 0.10375934E-05</totfact>
</mgrwt>
<clustering>
<clus scale="   32.302">  1  6  2 -1</clus>
<clus scale="  465.614">  4  5 -1 -1</clus>
<clus scale="  300.000">  1  4  2 -1</clus>
</clustering>
</event>
<event>
 6    1  0.9254630E-012  0.3000000E+03  0.7818608E-02  0.1093470E+00
          1   -1    0    0  502    0  0.00000000000E+00  0.00000000000E+00  0.23443488844E+03  0.23443488844E+03  0.00000000000E+00 0.  1.
         13   -1    0    0    0    0 -0.00000000000E+00 -0.00000000000E+00 -0.27500000000E+03  0.27500000000E+03  0.00000000000E+00 0.  1.
    9000005    2    1    2  501    0 -0.25973330776E+02 -0.17111833746E+02 -0.40638901335E+02  0.47833128397E+03  0.47558581577E+03 0.  0.
         13    1    3    3    0    0 -0.13869730824E+03  0.16047950345E+03  0.90331645205E+02  0.23054374957E+03  0.00000000000E+00 0.  1.
          1    1    3    3  501    0  0.11272397746E+03 -0.17759133720E+03 -0.13097054654E+03  0.24778753440E+03  0.00000000000E+00 0.  1.
         21    1    1    2  502  501  0.25973330776E+02  0.17111833746E+02  0.73789770632E-01  0.31103604464E+02  0.00000000000E+00 0.  1.
<scales pt_clust_4="550.00000" pt_clust_5="550.00000" pt_clust_6="31.10352"></scales>
<mgrwt>
<rscale>  0 0.30000000E+03</rscale>
<asrwt>  1 0.31103517E+02</asrwt>
<pdfrwt beam="1">  1        1 0.85249050E+00 0.30000000E+03</pdfrwt>
<pdfrwt beam="2">0</pdfrwt>
<totfact> 0.39409691E-04</totfact>
</mgrwt>
<clustering>
<clus scale="   31.104">  1  6  2 -1</clus>
<clus scale="  475.586">  4  5 -1 -1</clus>
<clus scale="  300.000">  1  4  2 -1</clus>
</clustering>
</event>
<event>
 6    1  0.9254630E-012  0.3000000E+03  0.7818608E-02  0.1093470E+00
          1   -1    0    0  502    0  0.00000000000E+00  0.00000000000E+00  0.24177555078E+03  0.24177555078E+03  0.00000000000E+00 0.  1.
         13   -1    0    0    0    0 -0.00000000000E+00 -0.00000000000E+00 -0.27500000000E+03  0.27500000000E+03  0.00000000000E+00 0.  1.
    9000005    2    1    2  501    0  0.71532958749E+01 -0.31086303917E+02 -0.75660666806E+02  0.46368731766E+03  0.45635935853E+03 0.  0.
         13    1    3    3    0    0 -0.26574368391E+02  0.18678658598E+03  0.67995404545E+02  0.20054625601E+03  0.00000000000E+00 0.  1.
          3    1    3    3  501    0  0.33727664265E+02 -0.21787288990E+03 -0.14365607135E+03  0.26314106165E+03  0.00000000000E+00 0.  1.
         21    1    1    2  502  501 -0.71532958749E+01  0.31086303917E+02  0.42436217583E+02  0.53088233121E+02  0.00000000000E+00 0.  1.
<scales pt_clust_4="550.00000" pt_clust_5="550.00000" pt_clust_6="31.89871"></scales>
<mgrwt>
<rscale>  0 0.30000000E+03</rscale>
<asrwt>  1 0.31898714E+02</asrwt>
<pdfrwt beam="1">  1        1 0.87918382E+00 0.30000000E+03</pdfrwt>
<pdfrwt beam="2">0</pdfrwt>
<totfact> 0.20550439E-04</totfact>
</mgrwt>
<clustering>
<clus scale="   31.899">  1  6  2 -1</clus>
<clus scale="  456.359">  4  5 -1 -1</clus>
<clus scale="  300.000">  1  4  2 -1</clus>
</clustering>
</event>
<event>
 6    1  0.9254630E-012  0.3000000E+03  0.7818608E-02  0.1093470E+00
          1   -1    0    0  502    0  0.00000000000E+00  0.00000000000E+00  0.24503828610E+03  0.24503828610E+03  0.00000000000E+00 0.  1.
         13   -1    0    0    0    0 -0.00000000000E+00 -0.00000000000E+00 -0.27500000000E+03  0.27500000000E+03  0.00000000000E+00 0.  1.
    9000005    2    1    2  501    0 -0.11530673870E+02 -0.36388774116E+02 -0.26080344673E+02  0.48166949216E+03  0.47944573830E+03 0.  0.
         13    1    3    3    0    0  0.21179907365E+03  0.45115363409E+02  0.66515536573E+02  0.22653600204E+03  0.00000000000E+00 0.  1.
          1    1    3    3  501    0 -0.22332974752E+03 -0.81504137525E+02 -0.92595881246E+02  0.25513349012E+03  0.00000000000E+00 0.  1.
         21    1    1    2  502  501  0.11530673870E+02  0.36388774116E+02 -0.38813692249E+01  0.38368793942E+02  0.00000000000E+00 0. -1.
<scales pt_clust_4="550.00000" pt_clust_5="550.00000" pt_clust_6="38.17199"></scales>
<mgrwt>
<rscale>  0 0.30000000E+03</rscale>
<asrwt>  1 0.38171989E+02</asrwt>
<pdfrwt beam="1">  1        1 0.89104831E+00 0.30000000E+03</pdfrwt>
<pdfrwt beam="2">0</pdfrwt>
<totfact> 0.13820816E-04</totfact>
</mgrwt>
<clustering>
<clus scale="   38.172">  1  6  2 -1</clus>
<clus scale="  479.446">  4  5 -1 -1</clus>
<clus scale="  300.000">  1  4  2 -1</clus>
</clustering>
</event>
<event>
 6    1  0.9254630E-012  0.3000000E+03  0.7818608E-02  0.1093470E+00
          1   -1    0    0  502    0  0.00000000000E+00  0.00000000000E+00  0.23189237934E+03  0.23189237934E+03  0.00000000000E+00 0.  1.
         13   -1    0    0    0    0 -0.00000000000E+00 -0.00000000000E+00 -0.27500000000E+03  0.27500000000E+03  0.00000000000E+00 0.  1.
    9000005    2    1    2  501    0  0.26556196401E+02 -0.18865035798E+02 -0.25090103052E+02  0.46966668817E+03  0.46786340267E+03 0.  0.
         13    1    3    3    0    0  0.17551798513E+03  0.54284049737E+02 -0.16928394050E+03  0.24982068303E+03  0.00000000000E+00 0.  1.
          3    1    3    3  501    0 -0.14896178873E+03 -0.73149085535E+02  0.14419383744E+03  0.21984600513E+03  0.00000000000E+00 0.  1.
         21    1    1    2  502  501 -0.26556196401E+02  0.18865035798E+02 -0.18017517605E+02  0.37225691177E+02  0.00000000000E+00 0.  1.
<scales pt_clust_4="550.00000" pt_clust_5="550.00000" pt_clust_6="32.57487"></scales>
<mgrwt>
<rscale>  0 0.30000000E+03</rscale>
<asrwt>  1 0.32574871E+02</asrwt>
<pdfrwt beam="1">  1        1 0.84324502E+00 0.30000000E+03</pdfrwt>
<pdfrwt beam="2">0</pdfrwt>
<totfact> 0.47417756E-04</totfact>
</mgrwt>
<clustering>
<clus scale="   32.575">  1  6  2 -1</clus>
<clus scale="  467.863">  4  5 -1 -1</clus>
<clus scale="  300.000">  1  4  2 -1</clus>
</clustering>
</event>
<event>
 6    1  0.9254630E-012  0.3000000E+03  0.7818608E-02  0.1093470E+00
          1   -1    0    0  502    0  0.00000000000E+00  0.00000000000E+00  0.22735754755E+03  0.22735754755E+03  0.00000000000E+00 0.  1.
         13   -1    0    0    0    0 -0.00000000000E+00 -0.00000000000E+00 -0.27500000000E+03  0.27500000000E+03  0.00000000000E+00 0.  1.
    9000005    2    1    2  501    0 -0.13215632805E+02  0.28213678947E+02 -0.64426023726E+02  0.46696894917E+03  0.46145273033E+03 0.  0.
         13    1    3    3    0    0  0.38974172410E+02 -0.20984438449E+03 -0.65491111945E+02  0.22325487131E+03  0.00000000000E+00 0.  1.
          1    1    3    3  501    0 -0.52189805216E+02  0.23805806344E+03  0.10650882192E+01  0.24371407787E+03  0.00000000000E+00 0.  1.
         21    1    1    2  502  501  0.13215632805E+02 -0.28213678947E+02  0.16783571271E+02  0.35388598372E+02  0.00000000000E+00 0.  1.
<scales pt_clust_4="550.00000" pt_clust_5="550.00000" pt_clust_6="31.15549"></scales>
<mgrwt>
<rscale>  0 0.30000000E+03</rscale>
<asrwt>  1 0.31155491E+02</asrwt>
<pdfrwt beam="1">  1        1 0.82675472E+00 0.30000000E+03</pdfrwt>
<pdfrwt beam="2">0</pdfrwt>
<totfact> 0.64416666E-04</totfact>
</mgrwt>
<clustering>
<clus scale="   31.155">  1  6  2 -1</clus>
<clus scale="  461.453">  4  5 -1 -1</clus>
<clus scale="  300.000">  1  4  2 -1</clus>
</clustering>
</event>
<event>
 6    1  0.9254630E-012  0.3000000E+03  0.7818608E-02  0.1093470E+00
          1   -1    0    0  502    0  0.00000000000E+00  0.00000000000E+00  0.24029730558E+03  0.24029730558E+03  0.00000000000E+00 0.  1.
         13   -1    0    0    0    0 -0.00000000000E+00 -0.00000000000E+00 -0.27500000000E+03  0.27500000000E+03  0.00000000000E+00 0.  1.
    9000005    2    1    2  501    0  0.22736037322E+01 -0.42368728382E+02 -0.17595630360E+02  0.46954875304E+03  0.46729663689E+03 0.  0.
         13    1    3    3    0    0  0.17806300444E+03 -0.75492636507E+02 -0.15184629789E+03  0.24589198828E+03  0.00000000000E+00 0.  1.
          3    1    3    3  501    0 -0.17578940070E+03  0.33123908125E+02  0.13425066753E+03  0.22365676476E+03  0.00000000000E+00 0.  1.
         21    1    1    2  502  501 -0.22736037322E+01  0.42368728382E+02 -0.17107064063E+02  0.45748552540E+02  0.00000000000E+00 0. -1.
<scales pt_clust_4="550.00000" pt_clust_5="550.00000" pt_clust_6="42.42971"></scales>
<mgrwt>
<rscale>  0 0.30000000E+03</rscale>
<asrwt>  1 0.42429709E+02</asrwt>
<pdfrwt beam="1">  1        1 0.87380838E+00 0.30000000E+03</pdfrwt>
<pdfrwt beam="2">0</pdfrwt>
<totfact> 0.22344017E-04</totfact>
</mgrwt>
<clustering>
<clus scale="   42.430">  1  6  2 -1</clus>
<clus scale="  467.297">  4  5 -1 -1</clus>
<clus scale="  300.000">  1  4  2 -1</clus>
</clustering>
</event>
<event>
 6    1  0.9254630E-012  0.3000000E+03  0.7818608E-02  0.1093470E+00
          1   -1    0    0  502    0  0.00000000000E+00  0.00000000000E+00  0.25267002327E+03  0.25267002327E+03  0.00000000000E+00 0.  1.
         13   -1    0    0    0    0 -0.00000000000E+00 -0.00000000000E+00 -0.27500000000E+03  0.27500000000E+03  0.00000000000E+00 0.  1.
    9000005    2    1    2  501    0  0.15472405212E+02  0.35530391178E+02 -0.39670386261E+02  0.48521423659E+03  0.48203455459E+03 0.  0.
         13    1    3    3    0    0 -0.24740700323E+02 -0.11192293742E+03  0.18252268896E+03  0.21553045761E+03  0.00000000000E+00 0.  1.
          3    1    3    3  501    0  0.40213105535E+02  0.14745332859E+03 -0.22219307522E+03  0.26968377898E+03  0.00000000000E+00 0.  1.
         21    1    1    2  502  501 -0.15472405212E+02 -0.35530391178E+02  0.17340409534E+02  0.42455786686E+02  0.00000000000E+00 0. -1.
<scales pt_clust_4="550.00000" pt_clust_5="550.00000" pt_clust_6="38.75312"></scales>
<mgrwt>
<rscale>  0 0.30000000E+03</rscale>
<asrwt>  1 0.38753116E+02</asrwt>
<pdfrwt beam="1">  1        1 0.91880008E+00 0.30000000E+03</pdfrwt>
<pdfrwt beam="2">0</pdfrwt>
<totfact> 0.43575883E-05</totfact>
</mgrwt>
<clustering>
<clus scale="   38.753">  1  6  2 -1</clus>
<clus scale="  482.035">  4  5 -1 -1</clus>
<clus scale="  300.000">  1  4  2 -1</clus>
</clustering>
</event>
<event>
 6    1  0.9254630E-012  0.3000000E+03  0.7818608E-02  0.1093470E+00
          1   -1    0    0  502    0  0.00000000000E+00  0.00000000000E+00  0.24272354956E+03  0.24272354956E+03  0.00000000000E+00 0.  1.
         13   -1    0    0    0    0 -0.00000000000E+00 -0.00000000000E+00 -0.27500000000E+03  0.27500000000E+03  0.00000000000E+00 0.  1.
    9000005    2    1    2  501    0 -0.22693907981E+02 -0.27199119139E+02 -0.57298109639E+02  0.47435433271E+03  0.46954675385E+03 0.  0.
         13    1    3    3    0    0  0.11720003675E+02  0.20306941374E+03  0.62130334650E+02  0.21268456400E+03  0.00000000000E+00 0.  1.
          1    1    3    3  501    0 -0.34413911657E+02 -0.23026853288E+03 -0.11942844429E+03  0.26166976870E+03  0.00000000000E+00 0.  1.
         21    1    1    2  502  501  0.22693907981E+02  0.27199119139E+02  0.25021659200E+02  0.43369216854E+02  0.00000000000E+00 0.  1.
<scales pt_clust_4="550.00000" pt_clust_5="550.00000" pt_clust_6="35.42323"></scales>
<mgrwt>
<rscale>  0 0.30000000E+03</rscale>
<asrwt>  1 0.35423234E+02</asrwt>
<pdfrwt beam="1">  1        1 0.88263109E+00 0.30000000E+03</pdfrwt>
<pdfrwt beam="2">0</pdfrwt>
<totfact> 0.18224930E-04</totfact>
</mgrwt>
<clustering>
<clus scale="   35.423">  1  6  2 -1</clus>
<clus scale="  469.547">  4  5 -1 -1</clus>
<clus scale="  300.000">  1  4  2 -1</clus>
</clustering>
</event>
<event>
 6    1  0.9254630E-012  0.3000000E+03  0.7818608E-02  0.1093470E+00
          1   -1    0    0  502    0  0.00000000000E+00  0.00000000000E+00  0.22558562257E+03  0.22558562257E+03  0.00000000000E+00 0.  1.
         13   -1    0    0    0    0 -0.00000000000E+00 -0.00000000000E+00 -0.27500000000E+03  0.27500000000E+03  0.00000000000E+00 0.  1.
    9000005    2    1    2  501    0 -0.15431342971E+02  0.31075989975E+02 -0.49685372780E+02  0.46588811636E+03  0.46192992672E+03 0.  0.
         13    1    3    3    0    0 -0.85290364271E+02 -0.13768558521E+03 -0.17952870216E+03  0.24178982921E+03  0.00000000000E+00 0.  1.
          3    1    3    3  501    0  0.69859021301E+02  0.16876157519E+03  0.12984332938E+03  0.22409828714E+03  0.00000000000E+00 0.  1.
         21    1    1    2  502  501  0.15431342971E+02 -0.31075989975E+02  0.27099534772E+00  0.34697506211E+02  0.00000000000E+00 0. -1.
<scales pt_clust_4="550.00000" pt_clust_5="550.00000" pt_clust_6="34.69645"></scales>
<mgrwt>
<rscale>  0 0.30000000E+03</rscale>
<asrwt>  1 0.34696448E+02</asrwt>
<pdfrwt beam="1">  1        1 0.82031135E+00 0.30000000E+03</pdfrwt>
<pdfrwt beam="2">0</pdfrwt>
<totfact> 0.71997836E-04</totfact>
</mgrwt>
<clustering>
<clus scale="   34.696">  1  6  2 -1</clus>
<clus scale="  461.930">  4  5 -1 -1</clus>
<clus scale="  300.000">  1  4  2 -1</clus>
</clustering>
</event>
<event>
 6    1  0.9254630E-012  0.3000000E+03  0.7818608E-02  0.1093470E+00
          1   -1    0    0  502    0  0.00000000000E+00  0.00000000000E+00  0.24432051305E+03  0.24432051305E+03  0.00000000000E+00 0.  1.
         13   -1    0    0    0    0 -0.00000000000E+00 -0.00000000000E+00 -0.27500000000E+03  0.27500000000E+03  0.00000000000E+00 0.  1.
    9000005    2    1    2  501    0  0.42619844134E+02  0.38818664182E+01 -0.18854724060E+02  0.47492068177E+03  0.47261256157E+03 0.  0.
         13    1    3    3    0    0  0.35909742035E+02 -0.23133660837E+03  0.25400925775E+02  0.23548108836E+03  0.00000000000E+00 0.  1.
          1    1    3    3  501    0  0.67101020987E+01  0.23521847479E+03 -0.44255649835E+02  0.23943959341E+03  0.00000000000E+00 0.  1.
         21    1    1    2  502  501 -0.42619844134E+02 -0.38818664182E+01 -0.11824762886E+02  0.44399831286E+02  0.00000000000E+00 0. -1.
<scales pt_clust_4="550.00000" pt_clust_5="550.00000" pt_clust_6="42.79628"></scales>
<mgrwt>
<rscale>  0 0.30000000E+03</rscale>
<asrwt>  1 0.42796283E+02</asrwt>
<pdfrwt beam="1">  1        1 0.88843823E+00 0.30000000E+03</pdfrwt>
<pdfrwt beam="2">0</pdfrwt>
<totfact> 0.14665852E-04</totfact>
</mgrwt>
<clustering>
<clus scale="   42.796">  1  6  2 -1</clus>
<clus scale="  472.613">  4  5 -1 -1</clus>
<clus scale="  300.000">  1  4  2 -1</clus>
</clustering>
</event>
<event>
 6    1  0.9254630E-012  0.3000000E+03  0.7818608E-02  0.1093470E+00
          1   -1    0    0  502    0  0.00000000000E+00  0.00000000000E+00  0.24185205245E+03  0.24185205245E+03  0.00000000000E+00 0.  1.
         13   -1    0    0    0    0 -0.00000000000E+00 -0.00000000000E+00 -0.27500000000E+03  0.27500000000E+03  0.00000000000E+00 0.  1.
    9000005    2    1    2  501    0 -0.24643226367E+02  0.27175638802E+02 -0.65898194516E+02  0.46767499859E+03  0.46155338620E+03 0.  0.
         13    1    3    3    0    0 -0.47613809028E+02 -0.21344619501E+03 -0.66001308437E+01  0.21879194387E+03  0.00000000000E+00 0.  1.
          3    1    3    3  501    0  0.22970582662E+02  0.24062183381E+03 -0.59298063673E+02  0.24888305472E+03  0.00000000000E+00 0.  1.
         21    1    1    2  502  501  0.24643226367E+02 -0.27175638802E+02  0.32750246969E+02  0.49177053862E+02  0.00000000000E+00 0.  1.
<scales pt_clust_4="550.00000" pt_clust_5="550.00000" pt_clust_6="36.68520"></scales>
<mgrwt>
<rscale>  0 0.30000000E+03</rscale>
<asrwt>  1 0.36685201E+02</asrwt>
<pdfrwt beam="1">  1        1 0.87946201E+00 0.30000000E+03</pdfrwt>
<pdfrwt beam="2">0</pdfrwt>
<totfact> 0.19863897E-04</totfact>
</mgrwt>
<clustering>
<clus scale="   36.685">  1  6  2 -1</clus>
<clus scale="  461.553">  4  5 -1 -1</clus>
<clus scale="  300.000">  1  4  2 -1</clus>
</clustering>
</event>
<event>
 6    1  0.9254630E-012  0.3000000E+03  0.7818608E-02  0.1093470E+00
          1   -1    0    0  502    0  0.00000000000E+00  0.00000000000E+00  0.24052381152E+03  0.24052381152E+03  0.00000000000E+00 0.  1.
         13   -1    0    0    0    0 -0.00000000000E+00 -0.00000000000E+00 -0.27500000000E+03  0.27500000000E+03  0.00000000000E+00 0.  1.
    9000005    2    1    2  501    0  0.43052408531E+02  0.20605639665E+02 -0.36865835049E+02  0.46773455878E+03  0.46383016873E+03 0.  0.
         13    1    3    3    0    0  0.42352968065E+02  0.10628076011E+03  0.19191907656E+03  0.22343300074E+03  0.00000000000E+00 0.  1.
          1    1    3    3  501    0  0.69944046584E+00 -0.85675120448E+02 -0.22878491161E+03  0.24430155804E+03  0.00000000000E+00 0.  1.
         21    1    1    2  502  501 -0.43052408531E+02 -0.20605639665E+02  0.23896465688E+01  0.47789252736E+02  0.00000000000E+00 0.  1.
<scales pt_clust_4="550.00000" pt_clust_5="550.00000" pt_clust_6="47.72947"></scales>
<mgrwt>
<rscale>  0 0.30000000E+03</rscale>
<asrwt>  1 0.47729470E+02</asrwt>
<pdfrwt beam="1">  1        1 0.87463204E+00 0.30000000E+03</pdfrwt>
<pdfrwt beam="2">0</pdfrwt>
<totfact> 0.21449976E-04</totfact>
</mgrwt>
<clustering>
<clus scale="   47.729">  1  6  2 -1</clus>
<clus scale="  463.830">  4  5 -1 -1</clus>
<clus scale="  300.000">  1  4  2 -1</clus>
</clustering>
</event>
<event>
 6    1  0.9254630E-012  0.3000000E+03  0.7818608E-02  0.1093470E+00
          1   -1    0    0  502    0  0.00000000000E+00  0.00000000000E+00  0.23549823809E+03  0.23549823809E+03  0.00000000000E+00 0.  1.
         13   -1    0    0    0    0 -0.00000000000E+00 -0.00000000000E+00 -0.27500000000E+03  0.27500000000E+03  0.00000000000E+00 0.  1.
    9000005    2    1    2  501    0 -0.38516828388E+02  0.20848364565E+02 -0.58266342834E+02  0.46285046929E+03  0.45707481865E+03 0.  0.
         13    1    3    3    0    0 -0.11685780792E+02 -0.17126245965E+03 -0.16782967373E+03  0.24007121224E+03  0.00000000000E+00 0.  1.
          1    1    3    3  501    0 -0.26831047596E+02  0.19211082422E+03  0.10956333090E+03  0.22277925705E+03  0.00000000000E+00 0.  1.
         21    1    1    2  502  501  0.38516828388E+02 -0.20848364565E+02  0.18764580919E+02  0.47647768795E+02  0.00000000000E+00 0.  1.
<scales pt_clust_4="550.00000" pt_clust_5="550.00000" pt_clust_6="43.79726"></scales>
<mgrwt>
<rscale>  0 0.30000000E+03</rscale>
<asrwt>  1 0.43797264E+02</asrwt>
<pdfrwt beam="1">  1        1 0.85635723E+00 0.30000000E+03</pdfrwt>
<pdfrwt beam="2">0</pdfrwt>
<totfact> 0.33886556E-04</totfact>
</mgrwt>
<clustering>
<clus scale="   43.797">  1  6  2 -1</clus>
<clus scale="  457.075">  4  5 -1 -1</clus>
<clus scale="  300.000">  1  4  2 -1</clus>
</clustering>
</event>
<event>
 6    1  0.9254630E-012  0.3000000E+03  0.7818608E-02  0.1093470E+00
          1   -1    0    0  502    0  0.00000000000E+00  0.00000000000E+00  0.25057466239E+03  0.25057466239E+03  0.00000000000E+00 0.  1.
         13   -1    0    0    0    0 -0.00000000000E+00 -0.00000000000E+00 -0.27500000000E+03  0.27500000000E+03  0.00000000000E+00 0.  1.
    9000005    2    1    2  501    0  0.88261219126E+01 -0.29699527662E+02 -0.62843069278E+02  0.47621998198E+03  0.47103742687E+03 0.  0.
         13    1    3    3    0    0  0.28636739057E+02 -0.65018981772E+02  0.19898027258E+03  0.21128341083E+03  0.00000000000E+00 0.  1.
          3    1    3    3  501    0 -0.19810617145E+02  0.35319454110E+02 -0.26182334186E+03  0.26493657115E+03  0.00000000000E+00 0.  1.
         21    1    1    2  502  501 -0.88261219126E+01  0.29699527662E+02  0.38417731667E+02  0.49354680404E+02  0.00000000000E+00 0.  1.
<scales pt_clust_4="550.00000" pt_clust_5="550.00000" pt_clust_6="30.98326"></scales>
<mgrwt>
<rscale>  0 0.30000000E+03</rscale>
<asrwt>  1 0.30983260E+02</asrwt>
<pdfrwt beam="1">  1        1 0.91118059E+00 0.30000000E+03</pdfrwt>
<pdfrwt beam="2">0</pdfrwt>
<totfact> 0.68771531E-05</totfact>
</mgrwt>
<clustering>
<clus scale="   30.983">  1  6  2 -1</clus>
<clus scale="  471.037">  4  5 -1 -1</clus>
<clus scale="  300.000">  1  4  2 -1</clus>
</clustering>
</event>
<event>
 6    1  0.9254630E-012  0.3000000E+03  0.7818608E-02  0.1093470E+00
          1   -1    0    0  502    0  0.00000000000E+00  0.00000000000E+00  0.24531733913E+03  0.24531733913E+03  0.00000000000E+00 0.  1.
         13   -1    0    0    0    0 -0.00000000000E+00 -0.00000000000E+00 -0.27500000000E+03  0.27500000000E+03  0.00000000000E+00 0.  1.
    9000005    2    1    2  501    0  0.19435540419E+02 -0.32618637195E+02 -0.51677798731E+02  0.47643679887E+03  0.47210137970E+03 0.  0.
         13    1    3    3    0    0  0.24199439703E+03 -0.17340390913E+02 -0.70254517953E+02  0.25258201567E+03  0.00000000000E+00 0.  1.
          3    1    3    3  501    0 -0.22255885661E+03 -0.15278246282E+02  0.18576719222E+02  0.22385478320E+03  0.00000000000E+00 0.  1.
         21    1    1    2  502  501 -0.19435540419E+02  0.32618637195E+02  0.21995137863E+02  0.43880540260E+02  0.00000000000E+00 0.  1.
<scales pt_clust_4="550.00000" pt_clust_5="550.00000" pt_clust_6="37.96993"></scales>
<mgrwt>
<rscale>  0 0.30000000E+03</rscale>
<asrwt>  1 0.37969932E+02</asrwt>
<pdfrwt beam="1">  1        1 0.89206305E+00 0.30000000E+03</pdfrwt>
<pdfrwt beam="2">0</pdfrwt>
<totfact> 0.13436305E-04</totfact>
</mgrwt>
<clustering>
<clus scale="   37.970">  1  6  2 -1</clus>
<clus scale="  472.101">  4  5 -1 -1</clus>
<clus scale="  300.000">  1  4  2 -1</clus>
</clustering>
</event>
<event>
 6    1  0.9254630E-012  0.3000000E+03  0.7818608E-02  0.1093470E+00
          1   -1    0    0  502    0  0.00000000000E+00  0.00000000000E+00  0.22065439049E+03  0.22065439049E+03  0.00000000000E+00 0.  1.
         13   -1    0    0    0    0 -0.00000000000E+00 -0.00000000000E+00 -0.27500000000E+03  0.27500000000E+03  0.00000000000E+00 0.  1.
    9000005    2    1    2  501    0 -0.18528348283E+02  0.23960654130E+02 -0.64133802621E+02  0.46382325226E+03  0.45836824941E+03 0.  0.
         13    1    3    3    0    0  0.42914573639E+02 -0.10156896600E+03  0.16320433818E+03  0.19696083744E+03  0.00000000000E+00 0.  1.
          3    1    3    3  501    0 -0.61442921921E+02  0.12552962013E+03 -0.22733814080E+03  0.26686241482E+03  0.00000000000E+00 0.  1.
         21    1    1    2  502  501  0.18528348283E+02 -0.23960654130E+02  0.97881931090E+01  0.31831138226E+02  0.00000000000E+00 0. -1.
<scales pt_clust_4="550.00000" pt_clust_5="550.00000" pt_clust_6="30.28882"></scales>
<mgrwt>
<rscale>  0 0.30000000E+03</rscale>
<asrwt>  1 0.30288820E+02</asrwt>
<pdfrwt beam="1">  1        1 0.80237960E+00 0.30000000E+03</pdfrwt>
<pdfrwt beam="2">0</pdfrwt>
<totfact> 0.10242856E-03</totfact>
</mgrwt>
<clustering>
<clus scale="   30.289">  1  6  2 -1</clus>
<clus scale="  458.368">  4  5 -1 -1</clus>
<clus scale="  300.000">  1  4  2 -1</clus>
</clustering>
</event>
<event>
 6    1  0.9254630E-012  0.3000000E+03  0.7818608E-02  0.1093470E+00
          1   -1    0    0  502    0  0.00000000000E+00  0.00000000000E+00  0.23774695933E+03  0.23774695933E+03  0.00000000000E+00 0.  1.
         13   -1    0    0    0    0 -0.00000000000E+00 -0.00000000000E+00 -0.27500000000E+03  0.27500000000E+03  0.00000000000E+00 0.  1.
    9000005    2    1    2  501    0 -0.22055496734E+02  0.23231840929E+02 -0.19096240575E+02  0.47592532495E+03  0.47446189010E+03 0.  0.
         13    1    3    3    0    0  0.50020774926E+02  0.20502535138E+03 -0.13315350931E+03  0.24953422546E+03  0.00000000000E+00 0.  1.
          1    1    3    3  501    0 -0.72076271660E+02 -0.18179351045E+03  0.11405726874E+03  0.22639109949E+03  0.00000000000E+00 0.  1.
         21    1    1    2  502  501  0.22055496734E+02 -0.23231840929E+02 -0.18156800090E+02  0.36821634383E+02  0.00000000000E+00 0. -1.
<scales pt_clust_4="550.00000" pt_clust_5="550.00000" pt_clust_6="32.03380"></scales>
<mgrwt>
<rscale>  0 0.30000000E+03</rscale>
<asrwt>  1 0.32033801E+02</asrwt>
<pdfrwt beam="1">  1        1 0.86453440E+00 0.30000000E+03</pdfrwt>
<pdfrwt beam="2">0</pdfrwt>
<totfact> 0.29388789E-04</totfact>
</mgrwt>
<clustering>
<clus scale="   32.034">  1  6  2 -1</clus>
<clus scale="  474.462">  4  5 -1 -1</clus>
<clus scale="  300.000">  1  4  2 -1</clus>
</clustering>
</event>
<event>
 6    1  0.9254630E-012  0.3000000E+03  0.7818608E-02  0.1093470E+00
          1   -1    0    0  502    0  0.00000000000E+00  0.00000000000E+00  0.23085019936E+03  0.23085019936E+03  0.00000000000E+00 0.  1.
         13   -1    0    0    0    0 -0.00000000000E+00 -0.00000000000E+00 -0.27500000000E+03  0.27500000000E+03  0.00000000000E+00 0.  1.
    9000005    2    1    2  501    0 -0.25908236967E+02 -0.17659602260E+02 -0.50903774322E+02  0.47377662059E+03  0.46998935486E+03 0.  0.
         13    1    3    3    0    0 -0.20272563860E+03  0.16663840608E+01 -0.16590817955E+03  0.26196561878E+03  0.00000000000E+00 0.  1.
          3    1    3    3  501    0  0.17681740163E+03 -0.19325986321E+02  0.11500440523E+03  0.21181100181E+03  0.00000000000E+00 0.  1.
         21    1    1    2  502  501  0.25908236967E+02  0.17659602260E+02  0.67539736797E+01  0.32073578771E+02  0.00000000000E+00 0.  1.
<scales pt_clust_4="550.00000" pt_clust_5="550.00000" pt_clust_6="31.35440"></scales>
<mgrwt>
<rscale>  0 0.30000000E+03</rscale>
<asrwt>  1 0.31354398E+02</asrwt>
<pdfrwt beam="1">  1        1 0.83945527E+00 0.30000000E+03</pdfrwt>
<pdfrwt beam="2">0</pdfrwt>
<totfact> 0.51234973E-04</totfact>
</mgrwt>
<clustering>
<clus scale="   31.354">  1  6  2 -1</clus>
<clus scale="  469.989">  4  5 -1 -1</clus>
<clus scale="  300.000">  1  4  2 -1</clus>
</clustering>
</event>
<event>
 6    1  0.9254630E-012  0.3000000E+03  0.7818608E-02  0.1093470E+00
          1   -1    0    0  502    0  0.00000000000E+00  0.00000000000E+00  0.22769940538E+03  0.22769940538E+03  0.00000000000E+00 0.  1.
         13   -1    0    0    0    0 -0.00000000000E+00 -0.00000000000E+00 -0.27500000000E+03  0.27500000000E+03  0.00000000000E+00 0.  1.
    9000005    2    1    2  501    0 -0.20202178688E+02 -0.26983629666E+02 -0.46835307191E+02  0.46898797132E+03  0.46542445891E+03 0.  0.
         13    1    3    3    0    0 -0.28938324765E+02  0.21079193574E+03 -0.82872090627E+02  0.22833845541E+03  0.00000000000E+00 0.  1.
          3    1    3    3  501    0  0.87361460770E+01 -0.23777556540E+03  0.36036783436E+02  0.24064951592E+03  0.00000000000E+00 0.  1.
         21    1    1    2  502  501  0.20202178688E+02  0.26983629666E+02 -0.46528742846E+00  0.33711434055E+02  0.00000000000E+00 0.  1.
<scales pt_clust_4="550.00000" pt_clust_5="550.00000" pt_clust_6="33.70822"></scales>
<mgrwt>
<rscale>  0 0.30000000E+03</rscale>
<asrwt>  1 0.33708223E+02</asrwt>
<pdfrwt beam="1">  1        1 0.82799784E+00 0.30000000E+03</pdfrwt>
<pdfrwt beam="2">0</pdfrwt>
<totfact> 0.61892494E-04</totfact>
</mgrwt>
<clustering>
<clus scale="   33.708">  1  6  2 -1</clus>
<clus scale="  465.424">  4  5 -1 -1</clus>
<clus scale="  300.000">  1  4  2 -1</clus>
</clustering>
</event>
<event>
 6    1  0.9254630E-012  0.3000000E+03  0.7818608E-02  0.1093470E+00
          1   -1    0    0  502    0  0.00000000000E+00  0.00000000000E+00  0.24001530725E+03  0.24001530725E+03  0.00000000000E+00 0.  1.
         13   -1    0    0    0    0 -0.00000000000E+00 -0.00000000000E+00 -0.27500000000E+03  0.27500000000E+03  0.00000000000E+00 0.  1.
    9000005    2    1    2  501    0  0.15380995295E+02 -0.26402401986E+02 -0.65970304465E+02  0.47149783972E+03  0.46585885195E+03 0.  0.
         13    1    3    3    0    0 -0.49589910820E+01 -0.12360303635E+03  0.17302223589E+03  0.21269460807E+03  0.00000000000E+00 0.  1.
          3    1    3    3  501    0  0.20339986377E+02  0.97200634364E+02 -0.23899254036E+03  0.25880323165E+03  0.00000000000E+00 0.  1.
         21    1    1    2  502  501 -0.15380995295E+02  0.26402401986E+02  0.30985611717E+02  0.43517467532E+02  0.00000000000E+00 0. -1.
<scales pt_clust_4="550.00000" pt_clust_5="550.00000" pt_clust_6="30.55588"></scales>
<mgrwt>
<rscale>  0 0.30000000E+03</rscale>
<asrwt>  1 0.30555881E+02</asrwt>
<pdfrwt beam="1">  1        1 0.87278294E+00 0.30000000E+03</pdfrwt>
<pdfrwt beam="2">0</pdfrwt>
<totfact> 0.24337671E-04</totfact>
</mgrwt>
<clustering>
<clus scale="   30.556">  1  6  2 -1</clus>
<clus scale="  465.859">  4  5 -1 -1</clus>
<clus scale="  300.000">  1  4  2 -1</clus>
</clustering>
</event>
<event>
 6    1  0.9254630E-012  0.3000000E+03  0.7818608E-02  0.1093470E+00
          1   -1    0    0  502    0  0.00000000000E+00  0.00000000000E+00  0.23974463320E+03  0.23974463320E+03  0.00000000000E+00 0.  1.
         13   -1    0    0    0    0 -0.00000000000E+00 -0.00000000000E+00 -0.27500000000E+03  0.27500000000E+03  0.00000000000E+00 0.  1.
    9000005    2    1    2  501    0  0.39260137665E+02 -0.99999244742E+01 -0.58433844396E+02  0.46806917153E+03  0.46263687516E+03 0.  0.
         13    1    3    3    0    0  0.53761449310E+02 -0.23951573012E+02  0.20019062167E+03  0.20866302089E+03  0.00000000000E+00 0.  1.
          1    1    3    3  501    0 -0.14501311645E+02  0.13951648538E+02 -0.25862446607E+03  0.25940615063E+03  0.00000000000E+00 0.  1.
         21    1    1    2  502  501 -0.39260137665E+02  0.99999244742E+01  0.23178477597E+02  0.46675461676E+02  0.00000000000E+00 0. -1.
<scales pt_clust_4="550.00000" pt_clust_5="550.00000" pt_clust_6="40.51366"></scales>
<mgrwt>
<rscale>  0 0.30000000E+03</rscale>
<asrwt>  1 0.40513663E+02</asrwt>
<pdfrwt beam="1">  1        1 0.87179867E+00 0.30000000E+03</pdfrwt>
<pdfrwt beam="2">0</pdfrwt>
<totfact> 0.23629917E-04</totfact>
</mgrwt>
<clustering>
<clus scale="   40.514">  1  6  2 -1</clus>
<clus scale="  462.637">  4  5 -1 -1</clus>
<clus scale="  300.000">  1  4  2 -1</clus>
</clustering>
</event>
<event>
 6    1  0.9254630E-012  0.3000000E+03  0.7818608E-02  0.1093470E+00
          1   -1    0    0  502    0  0.00000000000E+00  0.00000000000E+00  0.22849564192E+03  0.22849564192E+03  0.00000000000E+00 0.  1.
         13   -1    0    0    0    0 -0.00000000000E+00 -0.00000000000E+00 -0.27500000000E+03  0.27500000000E+03  0.00000000000E+00 0.  1.
    9000005    2    1    2  501    0 -0.32245908043E+02  0.28017241317E+01 -0.53849677631E+02  0.47030525231E+03  0.46608968485E+03 0.  0.
         13    1    3    3    0    0  0.20112322662E+03 -0.29415536515E+02  0.55321102997E+02  0.21065671247E+03  0.00000000000E+00 0.  1.
          3    1    3    3  501    0 -0.23336913466E+03  0.32217260647E+02 -0.10917078063E+03  0.25964853983E+03  0.00000000000E+00 0.  1.
         21    1    1    2  502  501  0.32245908043E+02 -0.28017241317E+01  0.73453195551E+01  0.33190389618E+02  0.00000000000E+00 0. -1.
<scales pt_clust_4="550.00000" pt_clust_5="550.00000" pt_clust_6="32.36739"></scales>
<mgrwt>
<rscale>  0 0.30000000E+03</rscale>
<asrwt>  1 0.32367395E+02</asrwt>
<pdfrwt beam="1">  1        1 0.83089324E+00 0.30000000E+03</pdfrwt>
<pdfrwt beam="2">0</pdfrwt>
<totfact> 0.58984324E-04</totfact>
</mgrwt>
<clustering>
<clus scale="   32.367">  1  6  2 -1</clus>
<clus scale="  466.090">  4  5 -1 -1</clus>
<clus scale="  300.000">  1  4  2 -1</clus>
</clustering>
</event>
<event>
 6    1  0.9254630E-012  0.3000000E+03  0.7818608E-02  0.1093470E+00
          1   -1    0    0  502    0  0.00000000000E+00  0.00000000000E+00  0.26590281372E+03  0.26590281372E+03  0.00000000000E+00 0.  1.
         13   -1    0    0    0    0 -0.00000000000E+00 -0.00000000000E+00 -0.27500000000E+03  0.27500000000E+03  0.00000000000E+00 0.  1.
    9000005    2    1    2  501    0  0.49438265305E+02 -0.34774203415E+01 -0.31855008807E+02  0.48636701800E+03  0.48278556325E+03 0.  0.
         13    1    3    3    0    0 -0.15498824899E+03  0.98567232048E+02 -0.14253227760E+03  0.23249151967E+03  0.00000000000E+00 0.  1.
          1    1    3    3  501    0  0.20442651430E+03 -0.10204465239E+03  0.11067726879E+03  0.25387549834E+03  0.00000000000E+00 0.  1.
         21    1    1    2  502  501 -0.49438265305E+02  0.34774203415E+01  0.22757822530E+02  0.54535795721E+02  0.00000000000E+00 0. -1.
<scales pt_clust_4="550.00000" pt_clust_5="550.00000" pt_clust_6="49.56041"></scales>
<mgrwt>
<rscale>  0 0.30000000E+03</rscale>
<asrwt>  1 0.49560413E+02</asrwt>
<pdfrwt beam="1">  1        1 0.96691932E+00 0.30000000E+03</pdfrwt>
<pdfrwt beam="2">0</pdfrwt>
<totfact> 0.51757037E-06</totfact>
</mgrwt>
<clustering>
<clus scale="   49.560">  1  6  2 -1</clus>
<clus scale="  482.786">  4  5 -1 -1</clus>
<clus scale="  300.000">  1  4  2 -1</clus>
</clustering>
</event>
<event>
 6    1  0.9254630E-012  0.3000000E+03  0.7818608E-02  0.1093470E+00
          1   -1    0    0  502    0  0.00000000000E+00  0.00000000000E+00  0.23669054020E+03  0.23669054020E+03  0.00000000000E+00 0.  1.
         13   -1    0    0    0    0 -0.00000000000E+00 -0.00000000000E+00 -0.27500000000E+03  0.27500000000E+03  0.00000000000E+00 0.  1.
    9000005    2    1    2  501    0 -0.74595422835E+01 -0.31354571988E+02 -0.73493051586E+02  0.46397640093E+03  0.45698371747E+03 0.  0.
         13    1    3    3    0    0  0.24597878566E+01  0.18416566916E+03 -0.14741912631E+03  0.23591405862E+03  0.00000000000E+00 0.  1.
          3    1    3    3  501    0 -0.99193301401E+01 -0.21552024114E+03  0.73926074727E+02  0.22806234231E+03  0.00000000000E+00 0.  1.
         21    1    1    2  502  501  0.74595422835E+01  0.31354571988E+02  0.35183591785E+02  0.47714139273E+02  0.00000000000E+00 0.  1.
<scales pt_clust_4="550.00000" pt_clust_5="550.00000" pt_clust_6="32.22971"></scales>
<mgrwt>
<rscale>  0 0.30000000E+03</rscale>
<asrwt>  1 0.32229706E+02</asrwt>
<pdfrwt beam="1">  1        1 0.86069287E+00 0.30000000E+03</pdfrwt>
<pdfrwt beam="2">0</pdfrwt>
<totfact> 0.32296928E-04</totfact>
</mgrwt>
<clustering>
<clus scale="   32.230">  1  6  2 -1</clus>
<clus scale="  456.984">  4  5 -1 -1</clus>
<clus scale="  300.000">  1  4  2 -1</clus>
</clustering>
</event>
<event>
 6    1  0.9254630E-012  0.3000000E+03  0.7818608E-02  0.1093470E+00
          1   -1    0    0  502    0  0.00000000000E+00  0.00000000000E+00  0.23218403124E+03  0.23218403124E+03  0.00000000000E+00 0.  1.
         13   -1    0    0    0    0 -0.00000000000E+00 -0.00000000000E+00 -0.27500000000E+03  0.27500000000E+03  0.00000000000E+00 0.  1.
    9000005    2    1    2  501    0 -0.39811058049E+02 -0.37315085177E+00 -0.30357200433E+02  0.46546736199E+03  0.46276694553E+03 0.  0.
         13    1    3    3    0    0 -0.74306602922E+02  0.66608034040E+02  0.19977732047E+03  0.22331385808E+03  0.00000000000E+00 0.  1.
          3    1    3    3  501    0  0.34495544874E+02 -0.66981184892E+02 -0.23013452090E+03  0.24215350391E+03  0.00000000000E+00 0.  1.
         21    1    1    2  502  501  0.39811058049E+02  0.37315085177E+00 -0.12458768330E+02  0.41716669244E+02  0.00000000000E+00 0. -1.
<scales pt_clust_4="550.00000" pt_clust_5="550.00000" pt_clust_6="39.81283"></scales>
<mgrwt>
<rscale>  0 0.30000000E+03</rscale>
<asrwt>  1 0.39812827E+02</asrwt>
<pdfrwt beam="1">  1        1 0.84430557E+00 0.30000000E+03</pdfrwt>
<pdfrwt beam="2">0</pdfrwt>
<totfact> 0.44736155E-04</totfact>
</mgrwt>
<clustering>
<clus scale="   39.813">  1  6  2 -1</clus>
<clus scale="  462.767">  4  5 -1 -1</clus>
<clus scale="  300.000">  1  4  2 -1</clus>
</clustering>
</event>
<event>
 6    1  0.9254630E-012  0.3000000E+03  0.7818608E-02  0.1093470E+00
          1   -1    0    0  502    0  0.00000000000E+00  0.00000000000E+00  0.24662298947E+03  0.24662298947E+03  0.00000000000E+00 0.  1.
         13   -1    0    0    0    0 -0.00000000000E+00 -0.00000000000E+00 -0.27500000000E+03  0.27500000000E+03  0.00000000000E+00 0.  1.
    9000005    2    1    2  501    0 -0.27703807157E+02 -0.11787099459E+02 -0.45600336980E+02  0.48693755134E+03  0.48386191369E+03 0.  0.
         13    1    3    3    0    0  0.20260987902E+03 -0.95142609083E+02  0.40185554254E+02  0.22741538627E+03  0.00000000000E+00 0.  1.
          3    1    3    3  501    0 -0.23031368618E+03  0.83355509624E+02 -0.85785891234E+02  0.25952216507E+03  0.00000000000E+00 0.  1.
         21    1    1    2  502  501  0.27703807157E+02  0.11787099459E+02  0.17223326454E+02  0.34685438137E+02  0.00000000000E+00 0.  1.
<scales pt_clust_4="550.00000" pt_clust_5="550.00000" pt_clust_6="30.10709"></scales>
<mgrwt>
<rscale>  0 0.30000000E+03</rscale>
<asrwt>  1 0.30107086E+02</asrwt>
<pdfrwt beam="1">  1        1 0.89681087E+00 0.30000000E+03</pdfrwt>
<pdfrwt beam="2">0</pdfrwt>
<totfact> 0.12384582E-04</totfact>
</mgrwt>
<clustering>
<clus scale="   30.107">  1  6  2 -1</clus>
<clus scale="  483.862">  4  5 -1 -1</clus>
<clus scale="  300.000">  1  4  2 -1</clus>
</clustering>
</event>
<event>
 6    1  0.9254630E-012  0.3000000E+03  0.7818608E-02  0.1093470E+00
          1   -1    0    0  502    0  0.00000000000E+00  0.00000000000E+00  0.22728645224E+03  0.22728645224E+03  0.00000000000E+00 0.  1.
         13   -1    0    0    0    0 -0.00000000000E+00 -0.00000000000E+00 -0.27500000000E+03  0.27500000000E+03  0.00000000000E+00 0.  1.
    9000005    2    1    2  501    0  0.37744481815E+02  0.11828983478E+01 -0.52691607347E+02  0.46419673928E+03  0.45964786753E+03 0.  0.
         13    1    3    3    0    0 -0.12956019658E+03 -0.59262646035E+02 -0.19141180803E+03  0.23861346569E+03  0.00000000000E+00 0.  1.
          1    1    3    3  501    0  0.16730467840E+03  0.60445544383E+02  0.13872020068E+03  0.22558327360E+03  0.00000000000E+00 0.  1.
         21    1    1    2  502  501 -0.37744481815E+02 -0.11828983478E+01  0.49780595893E+01  0.38089712958E+02  0.00000000000E+00 0. -1.
<scales pt_clust_4="550.00000" pt_clust_5="550.00000" pt_clust_6="37.76301"></scales>
<mgrwt>
<rscale>  0 0.30000000E+03</rscale>
<asrwt>  1 0.37763013E+02</asrwt>
<pdfrwt beam="1">  1        1 0.82649619E+00 0.30000000E+03</pdfrwt>
<pdfrwt beam="2">0</pdfrwt>
<totfact> 0.62459143E-04</totfact>
</mgrwt>
<clustering>
<clus scale="   37.763">  1  6  2 -1</clus>
<clus scale="  459.648">  4  5 -1 -1</clus>
<clus scale="  300.000">  1  4  2 -1</clus>
</clustering>
</event>
<event>
 6    1  0.9254630E-012  0.3000000E+03  0.7818608E-02  0.1093470E+00
          1   -1    0    0  502    0  0.00000000000E+00  0.00000000000E+00  0.24732930749E+03  0.24732930749E+03  0.00000000000E+00 0.  1.
         13   -1    0    0    0    0 -0.00000000000E+00 -0.00000000000E+00 -0.27500000000E+03  0.27500000000E+03  0.00000000000E+00 0.  1.
    9000005    2    1    2  501    0 -0.13890442842E+02 -0.31343656054E+02 -0.45337700658E+02  0.48376128506E+03  0.48041035027E+03 0.  0.
         13    1    3    3    0    0  0.39365063425E+02 -0.64727874063E+02  0.20872019528E+03  0.22204374753E+03  0.00000000000E+00 0.  1.
          3    1    3    3  501    0 -0.53255506267E+02  0.33384218010E+02 -0.25405789594E+03  0.26171753753E+03  0.00000000000E+00 0.  1.
         21    1    1    2  502  501  0.13890442842E+02  0.31343656054E+02  0.17667008148E+02  0.38568022429E+02  0.00000000000E+00 0.  1.
<scales pt_clust_4="550.00000" pt_clust_5="550.00000" pt_clust_6="34.28366"></scales>
<mgrwt>
<rscale>  0 0.30000000E+03</rscale>
<asrwt>  1 0.34283658E+02</asrwt>
<pdfrwt beam="1">  1        1 0.89937930E+00 0.30000000E+03</pdfrwt>
<pdfrwt beam="2">0</pdfrwt>
<totfact> 0.11284317E-04</totfact>
</mgrwt>
<clustering>
<clus scale="   34.284">  1  6  2 -1</clus>
<clus scale="  480.410">  4  5 -1 -1</clus>
<clus scale="  300.000">  1  4  2 -1</clus>
</clustering>
</event>
<event>
 6    1  0.9254630E-012  0.3000000E+03  0.7818608E-02  0.1093470E+00
          1   -1    0    0  502    0  0.00000000000E+00  0.00000000000E+00  0.23054449493E+03  0.23054449493E+03  0.00000000000E+00 0.  1.
         13   -1    0    0    0    0 -0.00000000000E+00 -0.00000000000E+00 -0.27500000000E+03  0.27500000000E+03  0.00000000000E+00 0.  1.
    9000005    2    1    2  501    0  0.14628832978E+02  0.31282677801E+02 -0.69287078804E+02  0.46300961820E+03  0.45649161938E+03 0.  0.
         13    1    3    3    0    0 -0.16394068070E+03 -0.13541156593E+03 -0.17938317164E+02  0.21338843033E+03  0.00000000000E+00 0.  1.
          1    1    3    3  501    0  0.17856951368E+03  0.16669424374E+03 -0.51348761640E+02  0.24962118786E+03  0.00000000000E+00 0.  1.
         21    1    1    2  502  501 -0.14628832978E+02 -0.31282677801E+02  0.24831573734E+02  0.42534876735E+02  0.00000000000E+00 0.  1.
<scales pt_clust_4="550.00000" pt_clust_5="550.00000" pt_clust_6="34.53417"></scales>
<mgrwt>
<rscale>  0 0.30000000E+03</rscale>
<asrwt>  1 0.34534167E+02</asrwt>
<pdfrwt beam="1">  1        1 0.83834362E+00 0.30000000E+03</pdfrwt>
<pdfrwt beam="2">0</pdfrwt>
<totfact> 0.51276997E-04</totfact>
</mgrwt>
<clustering>
<clus scale="   34.534">  1  6  2 -1</clus>
<clus scale="  456.492">  4  5 -1 -1</clus>
<clus scale="  300.000">  1  4  2 -1</clus>
</clustering>
</event>
<event>
 6    1  0.9254630E-012  0.3000000E+03  0.7818608E-02  0.1093470E+00
          1   -1    0    0  502    0  0.00000000000E+00  0.00000000000E+00  0.26557804498E+03  0.26557804498E+03  0.00000000000E+00 0.  1.
         13   -1    0    0    0    0 -0.00000000000E+00 -0.00000000000E+00 -0.27500000000E+03  0.27500000000E+03  0.00000000000E+00 0.  1.
    9000005    2    1    2  501    0  0.25747922028E+02 -0.39050521913E+02 -0.53546557341E+02  0.47627501799E+03  0.47093817026E+03 0.  0.
         13    1    3    3    0    0 -0.58911126191E+02 -0.18845416813E+03  0.12087348805E+03  0.23150787112E+03  0.00000000000E+00 0.  1.
          1    1    3    3  501    0  0.84659048219E+02  0.14940364622E+03 -0.17442004540E+03  0.24476714687E+03  0.00000000000E+00 0.  1.
         21    1    1    2  502  501 -0.25747922028E+02  0.39050521913E+02  0.44124602318E+02  0.64303026991E+02  0.00000000000E+00 0. -1.
<scales pt_clust_4="550.00000" pt_clust_5="550.00000" pt_clust_6="46.77498"></scales>
<mgrwt>
<rscale>  0 0.30000000E+03</rscale>
<asrwt>  1 0.46774980E+02</asrwt>
<pdfrwt beam="1">  1        1 0.96573835E+00 0.30000000E+03</pdfrwt>
<pdfrwt beam="2">0</pdfrwt>
<totfact> 0.54757015E-06</totfact>
</mgrwt>
<clustering>
<clus scale="   46.775">  1  6  2 -1</clus>
<clus scale="  470.938">  4  5 -1 -1</clus>
<clus scale="  300.000">  1  4  2 -1</clus>
</clustering>
</event>
<event>
 6    1  0.9254630E-012  0.3000000E+03  0.7818608E-02  0.1093470E+00
          1   -1    0    0  502    0  0.00000000000E+00  0.00000000000E+00  0.22731111623E+03  0.22731111623E+03  0.00000000000E+00 0.  1.
         13   -1    0    0    0    0 -0.00000000000E+00 -0.00000000000E+00 -0.27500000000E+03  0.27500000000E+03  0.00000000000E+00 0.  1.
    9000005    2    1    2  501    0  0.27480042485E+02 -0.23372207464E+02 -0.55890937207E+02  0.46531535300E+03  0.46053574026E+03 0.  0.
         13    1    3    3    0    0  0.16503782972E+03 -0.16895078260E+03 -0.10596348553E+03  0.25886311527E+03  0.00000000000E+00 0.  1.
          3    1    3    3  501    0 -0.13755778724E+03  0.14557857514E+03  0.50072548320E+02  0.20645223773E+03  0.00000000000E+00 0.  1.
         21    1    1    2  502  501 -0.27480042485E+02  0.23372207464E+02  0.82020534395E+01  0.36995763235E+02  0.00000000000E+00 0.  1.
<scales pt_clust_4="550.00000" pt_clust_5="550.00000" pt_clust_6="36.07510"></scales>
<mgrwt>
<rscale>  0 0.30000000E+03</rscale>
<asrwt>  1 0.36075100E+02</asrwt>
<pdfrwt beam="1">  1        1 0.82658588E+00 0.30000000E+03</pdfrwt>
<pdfrwt beam="2">0</pdfrwt>
<totfact> 0.62875712E-04</totfact>
</mgrwt>
<clustering>
<clus scale="   36.075">  1  6  2 -1</clus>
<clus scale="  460.536">  4  5 -1 -1</clus>
<clus scale="  300.000">  1  4  2 -1</clus>
</clustering>
</event>
<event>
 6    1  0.9254630E-012  0.3000000E+03  0.7818608E-02  0.1093470E+00
          1   -1    0    0  502    0  0.00000000000E+00  0.00000000000E+00  0.23096265281E+03  0.23096265281E+03  0.00000000000E+00 0.  1.
         13   -1    0    0    0    0 -0.00000000000E+00 -0.00000000000E+00 -0.27500000000E+03  0.27500000000E+03  0.00000000000E+00 0.  1.
    9000005    2    1    2  501    0  0.29396474125E+02  0.69693745915E+01 -0.72092448052E+02  0.46473385756E+03  0.45811299089E+03 0.  0.
         13    1    3    3    0    0  0.16312662414E+03 -0.91992974859E+02  0.11071629974E+03  0.21755712343E+03  0.00000000000E+00 0.  1.
          3    1    3    3  501    0 -0.13373015001E+03  0.98962349451E+02 -0.18280874779E+03  0.24717673414E+03  0.00000000000E+00 0.  1.
         21    1    1    2  502  501 -0.29396474125E+02 -0.69693745915E+01  0.28055100866E+02  0.41228795250E+02  0.00000000000E+00 0.  1.
<scales pt_clust_4="550.00000" pt_clust_5="550.00000" pt_clust_6="30.21134"></scales>
<mgrwt>
<rscale>  0 0.30000000E+03</rscale>
<asrwt>  1 0.30211337E+02</asrwt>
<pdfrwt beam="1">  1        1 0.83986419E+00 0.30000000E+03</pdfrwt>
<pdfrwt beam="2">0</pdfrwt>
<totfact> 0.51233229E-04</totfact>
</mgrwt>
<clustering>
<clus scale="   30.211">  1  6  2 -1</clus>
<clus scale="  458.113">  4  5 -1 -1</clus>
<clus scale="  300.000">  1  4  2 -1</clus>
</clustering>
</event>
<event>
 6    1  0.9254630E-012  0.3000000E+03  0.7818608E-02  0.1093470E+00
          1   -1    0    0  502    0  0.00000000000E+00  0.00000000000E+00  0.24361463817E+03  0.24361463817E+03  0.00000000000E+00 0.  1.
         13   -1    0    0    0    0 -0.00000000000E+00 -0.00000000000E+00 -0.27500000000E+03  0.27500000000E+03  0.00000000000E+00 0.  1.
    9000005    2    1    2  501    0 -0.40913991673E+02  0.81354274077E+01 -0.28640001733E+02  0.47680941247E+03  0.47411689089E+03 0.  0.
         13    1    3    3    0    0 -0.26893021240E+02  0.23609992054E+03  0.33835574444E+02  0.24002344295E+03  0.00000000000E+00 0.  1.
          1    1    3    3  501    0 -0.14020970433E+02 -0.22796449313E+03 -0.62475576177E+02  0.23678596951E+03  0.00000000000E+00 0.  1.
         21    1    1    2  502  501  0.40913991673E+02 -0.81354274077E+01 -0.27453600996E+01  0.41805225700E+02  0.00000000000E+00 0.  1.
<scales pt_clust_4="550.00000" pt_clust_5="550.00000" pt_clust_6="41.71500"></scales>
<mgrwt>
<rscale>  0 0.30000000E+03</rscale>
<asrwt>  1 0.41715005E+02</asrwt>
<pdfrwt beam="1">  1        1 0.88587141E+00 0.30000000E+03</pdfrwt>
<pdfrwt beam="2">0</pdfrwt>
<totfact> 0.15984339E-04</totfact>
</mgrwt>
<clustering>
<clus scale="   41.715">  1  6  2 -1</clus>
<clus scale="  474.117">  4  5 -1 -1</clus>
<clus scale="  300.000">  1  4  2 -1</clus>
</clustering>
</event>
<event>
 6    1  0.9254630E-012  0.3000000E+03  0.7818608E-02  0.1093470E+00
          1   -1    0    0  502    0  0.00000000000E+00  0.00000000000E+00  0.26213610632E+03  0.26213610632E+03  0.00000000000E+00 0.  1.
         13   -1    0    0    0    0 -0.00000000000E+00 -0.00000000000E+00 -0.27500000000E+03  0.27500000000E+03  0.00000000000E+00 0.  1.
    9000005    2    1    2  501    0  0.32624595778E+02  0.40172997899E+02 -0.51430192057E+02  0.47259469806E+03  0.46692874185E+03 0.  0.
         13    1    3    3    0    0  0.22585088093E+03  0.68899492828E+02  0.65346731483E+02  0.24500195069E+03  0.00000000000E+00 0.  1.
          3    1    3    3  501    0 -0.19322628515E+03 -0.28726494929E+02 -0.11677692354E+03  0.22759274737E+03  0.00000000000E+00 0.  1.
         21    1    1    2  502  501 -0.32624595778E+02 -0.40172997899E+02  0.38566298375E+02  0.64541408260E+02  0.00000000000E+00 0.  1.
<scales pt_clust_4="550.00000" pt_clust_5="550.00000" pt_clust_6="51.75166"></scales>
<mgrwt>
<rscale>  0 0.30000000E+03</rscale>
<asrwt>  1 0.51751657E+02</asrwt>
<pdfrwt beam="1">  1        1 0.95322220E+00 0.30000000E+03</pdfrwt>
<pdfrwt beam="2">0</pdfrwt>
<totfact> 0.98598703E-06</totfact>
</mgrwt>
<clustering>
<clus scale="   51.752">  1  6  2 -1</clus>
<clus scale="  466.929">  4  5 -1 -1</clus>
<clus scale="  300.000">  1  4  2 -1</clus>
</clustering>
</event>
<event>
 6    1  0.9254630E-012  0.3000000E+03  0.7818608E-02  0.1093470E+00
          1   -1    0    0  502    0  0.00000000000E+00  0.00000000000E+00  0.22589083985E+03  0.22589083985E+03  0.00000000000E+00 0.  1.
         13   -1    0    0    0    0 -0.00000000000E+00 -0.00000000000E+00 -0.27500000000E+03  0.27500000000E+03  0.00000000000E+00 0.  1.
    9000005    2    1    2  501    0 -0.24820825689E+02  0.18611669306E+02 -0.38406016812E+02  0.46807278233E+03  0.46546174903E+03 0.  0.
         13    1    3    3    0    0  0.15037298045E+03  0.94229797123E+02 -0.16236475339E+03  0.24052775527E+03  0.00000000000E+00 0.  1.
          3    1    3    3  501    0 -0.17519380614E+03 -0.75618127817E+02  0.12395873658E+03  0.22754502705E+03  0.00000000000E+00 0.  1.
         21    1    1    2  502  501  0.24820825689E+02 -0.18611669306E+02 -0.10703143337E+02  0.32818057522E+02  0.00000000000E+00 0. -1.
<scales pt_clust_4="550.00000" pt_clust_5="550.00000" pt_clust_6="31.02368"></scales>
<mgrwt>
<rscale>  0 0.30000000E+03</rscale>
<asrwt>  1 0.31023678E+02</asrwt>
<pdfrwt beam="1">  1        1 0.82142124E+00 0.30000000E+03</pdfrwt>
<pdfrwt beam="2">0</pdfrwt>
<totfact> 0.71911530E-04</totfact>
</mgrwt>
<clustering>
<clus scale="   31.024">  1  6  2 -1</clus>
<clus scale="  465.462">  4  5 -1 -1</clus>
<clus scale="  300.000">  1  4  2 -1</clus>
</clustering>
</event>
<event>
 6    1  0.9254630E-012  0.3000000E+03  0.7818608E-02  0.1093470E+00
          1   -1    0    0  502    0  0.00000000000E+00  0.00000000000E+00  0.24712290712E+03  0.24712290712E+03  0.00000000000E+00 0.  1.
         13   -1    0    0    0    0 -0.00000000000E+00 -0.00000000000E+00 -0.27500000000E+03  0.27500000000E+03  0.00000000000E+00 0.  1.
    9000005    2    1    2  501    0 -0.21120342522E+02 -0.29053805040E+02 -0.67375489998E+02  0.46873455792E+03  0.46247425515E+03 0.  0.
         13    1    3    3    0    0 -0.15120304702E+03  0.77487963799E+02 -0.19426754155E+03  0.25808259077E+03  0.00000000000E+00 0.  1.
          3    1    3    3  501    0  0.13008270449E+03 -0.10654176884E+03  0.12689205155E+03  0.21065196715E+03  0.00000000000E+00 0.  1.
         21    1    1    2  502  501  0.21120342522E+02  0.29053805040E+02  0.39498397120E+02  0.53388349202E+02  0.00000000000E+00 0.  1.
<scales pt_clust_4="550.00000" pt_clust_5="550.00000" pt_clust_6="35.91925"></scales>
<mgrwt>
<rscale>  0 0.30000000E+03</rscale>
<asrwt>  1 0.35919249E+02</asrwt>
<pdfrwt beam="1">  1        1 0.89862875E+00 0.30000000E+03</pdfrwt>
<pdfrwt beam="2">0</pdfrwt>
<totfact> 0.11419202E-04</totfact>
</mgrwt>
<clustering>
<clus scale="   35.919">  1  6  2 -1</clus>
<clus scale="  462.474">  4  5 -1 -1</clus>
<clus scale="  300.000">  1  4  2 -1</clus>
</clustering>
</event>
<event>
 6    1  0.9254630E-012  0.3000000E+03  0.7818608E-02  0.1093470E+00
          1   -1    0    0  502    0  0.00000000000E+00  0.00000000000E+00  0.23224499665E+03  0.23224499665E+03  0.00000000000E+00 0.  1.
         13   -1    0    0    0    0 -0.00000000000E+00 -0.00000000000E+00 -0.27500000000E+03  0.27500000000E+03  0.00000000000E+00 0.  1.
    9000005    2    1    2  501    0  0.30783196447E+02 -0.85972110380E+01 -0.55356277751E+02  0.47288936629E+03  0.46854937631E+03 0.  0.
         13    1    3    3    0    0  0.24682466072E+03 -0.24358764581E+02 -0.63838768043E+02  0.25610769387E+03  0.00000000000E+00 0.  1.
          3    1    3    3  501    0 -0.21604146427E+03  0.15761553543E+02  0.84824902919E+01  0.21678167242E+03  0.00000000000E+00 0.  1.
         21    1    1    2  502  501 -0.30783196447E+02  0.85972110380E+01  0.12601274400E+02  0.34355630363E+02  0.00000000000E+00 0. -1.
<scales pt_clust_4="550.00000" pt_clust_5="550.00000" pt_clust_6="31.96118"></scales>
<mgrwt>
<rscale>  0 0.30000000E+03</rscale>
<asrwt>  1 0.31961183E+02</asrwt>
<pdfrwt beam="1">  1        1 0.84452726E+00 0.30000000E+03</pdfrwt>
<pdfrwt beam="2">0</pdfrwt>
<totfact> 0.46400579E-04</totfact>
</mgrwt>
<clustering>
<clus scale="   31.961">  1  6  2 -1</clus>
<clus scale="  468.549">  4  5 -1 -1</clus>
<clus scale="  300.000">  1  4  2 -1</clus>
</clustering>
</event>
<event>
 6    1  0.9254630E-012  0.3000000E+03  0.7818608E-02  0.1093470E+00
          1   -1    0    0  502    0  0.00000000000E+00  0.00000000000E+00  0.22964829333E+03  0.22964829333E+03  0.00000000000E+00 0.  1.
         13   -1    0    0    0    0 -0.00000000000E+00 -0.00000000000E+00 -0.27500000000E+03  0.27500000000E+03  0.00000000000E+00 0.  1.
    9000005    2    1    2  501    0 -0.22312716116E+02 -0.31513269026E+02 -0.56935876391E+02  0.46433531263E+03  0.45921089393E+03 0.  0.
         13    1    3    3    0    0 -0.45162098830E+02  0.11227213262E+03 -0.21669039157E+03  0.24819220925E+03  0.00000000000E+00 0.  1.
          3    1    3    3  501    0  0.22849382714E+02 -0.14378540165E+03  0.15975451518E+03  0.21614310338E+03  0.00000000000E+00 0.  1.
         21    1    1    2  502  501  0.22312716116E+02  0.31513269026E+02  0.11584169726E+02  0.40312980706E+02  0.00000000000E+00 0.  1.
<scales pt_clust_4="550.00000" pt_clust_5="550.00000" pt_clust_6="38.61274"></scales>
<mgrwt>
<rscale>  0 0.30000000E+03</rscale>
<asrwt>  1 0.38612737E+02</asrwt>
<pdfrwt beam="1">  1        1 0.83508470E+00 0.30000000E+03</pdfrwt>
<pdfrwt beam="2">0</pdfrwt>
<totfact> 0.53047223E-04</totfact>
</mgrwt>
<clustering>
<clus scale="   38.613">  1  6  2 -1</clus>
<clus scale="  459.211">  4  5 -1 -1</clus>
<clus scale="  300.000">  1  4  2 -1</clus>
</clustering>
</event>
<event>
 6    1  0.9254630E-012  0.3000000E+03  0.7818608E-02  0.1093470E+00
          1   -1    0    0  502    0  0.00000000000E+00  0.00000000000E+00  0.23748848877E+03  0.23748848877E+03  0.00000000000E+00 0.  1.
         13   -1    0    0    0    0 -0.00000000000E+00 -0.00000000000E+00 -0.27500000000E+03  0.27500000000E+03  0.00000000000E+00 0.  1.
    9000005    2    1    2  501    0  0.46420207505E+02  0.11086721355E+02 -0.32958925804E+02  0.46454605361E+03  0.46091104790E+03 0.  0.
         13    1    3    3    0    0  0.10000891403E+03 -0.16792855295E+03  0.11448747305E+03  0.22651526056E+03  0.00000000000E+00 0.  1.
          3    1    3    3  501    0 -0.53588706520E+02  0.17901527431E+03 -0.14744639886E+03  0.23803079305E+03  0.00000000000E+00 0.  1.
         21    1    1    2  502  501 -0.46420207505E+02 -0.11086721355E+02 -0.45525854266E+01  0.47942435162E+02  0.00000000000E+00 0.  1.
<scales pt_clust_4="550.00000" pt_clust_5="550.00000" pt_clust_6="47.72581"></scales>
<mgrwt>
<rscale>  0 0.30000000E+03</rscale>
<asrwt>  1 0.47725814E+02</asrwt>
<pdfrwt beam="1">  1        1 0.86359450E+00 0.30000000E+03</pdfrwt>
<pdfrwt beam="2">0</pdfrwt>
<totfact> 0.27963873E-04</totfact>
</mgrwt>
<clustering>
<clus scale="   47.726">  1  6  2 -1</clus>
<clus scale="  460.911">  4  5 -1 -1</clus>
<clus scale="  300.000">  1  4  2 -1</clus>
</clustering>
</event>
<event>
 6    1  0.9254630E-012  0.3000000E+03  0.7818608E-02  0.1093470E+00
          1   -1    0    0  502    0  0.00000000000E+00  0.00000000000E+00  0.26340716677E+03  0.26340716677E+03  0.00000000000E+00 0.  1.
         13   -1    0    0    0    0 -0.00000000000E+00 -0.00000000000E+00 -0.27500000000E+03  0.27500000000E+03  0.00000000000E+00 0.  1.
    9000005    2    1    2  501    0  0.45290127762E+01  0.29814478250E+02 -0.34231091446E+02  0.50069900048E+03  0.49861639202E+03 0.  0.
         13    1    3    3    0    0  0.47877100318E+02 -0.18234464139E+03  0.12993250297E+03  0.22896340386E+03  0.00000000000E+00 0.  1.
          1    1    3    3  501    0 -0.43348087542E+02  0.21215911964E+03 -0.16416359442E+03  0.27173559662E+03  0.00000000000E+00 0.  1.
         21    1    1    2  502  501 -0.45290127762E+01 -0.29814478250E+02  0.22638258216E+02  0.37708166292E+02  0.00000000000E+00 0. -1.
<scales pt_clust_4="550.00000" pt_clust_5="550.00000" pt_clust_6="30.15651"></scales>
<mgrwt>
<rscale>  0 0.30000000E+03</rscale>
<asrwt>  1 0.30156510E+02</asrwt>
<pdfrwt beam="1">  1        1 0.95784424E+00 0.30000000E+03</pdfrwt>
<pdfrwt beam="2">0</pdfrwt>
<totfact> 0.86823623E-06</totfact>
</mgrwt>
<clustering>
<clus scale="   30.157">  1  6  2 -1</clus>
<clus scale="  498.616">  4  5 -1 -1</clus>
<clus scale="  300.000">  1  4  2 -1</clus>
</clustering>
</event>
<event>
 6    1  0.9254630E-012  0.3000000E+03  0.7818608E-02  0.1093470E+00
          1   -1    0    0  502    0  0.00000000000E+00  0.00000000000E+00  0.24706313788E+03  0.24706313788E+03  0.00000000000E+00 0.  1.
         13   -1    0    0    0    0 -0.00000000000E+00 -0.00000000000E+00 -0.27500000000E+03  0.27500000000E+03  0.00000000000E+00 0.  1.
    9000005    2    1    2  501    0  0.45687494417E+02  0.25603580831E+02 -0.50652161787E+02  0.46497657785E+03  0.45923271438E+03 0.  0.
         13    1    3    3    0    0  0.95661129826E+02 -0.17166739685E+03 -0.14145313785E+03  0.24213578238E+03  0.00000000000E+00 0.  1.
          3    1    3    3  501    0 -0.49973635408E+02  0.19727097768E+03  0.90800976059E+02  0.22284079547E+03  0.00000000000E+00 0.  1.
         21    1    1    2  502  501 -0.45687494417E+02 -0.25603580831E+02  0.22715299667E+02  0.57086560034E+02  0.00000000000E+00 0.  1.
<scales pt_clust_4="550.00000" pt_clust_5="550.00000" pt_clust_6="52.37261"></scales>
<mgrwt>
<rscale>  0 0.30000000E+03</rscale>
<asrwt>  1 0.52372612E+02</asrwt>
<pdfrwt beam="1">  1        1 0.89841141E+00 0.30000000E+03</pdfrwt>
<pdfrwt beam="2">0</pdfrwt>
<totfact> 0.10732750E-04</totfact>
</mgrwt>
<clustering>
<clus scale="   52.373">  1  6  2 -1</clus>
<clus scale="  459.233">  4  5 -1 -1</clus>
<clus scale="  300.000">  1  4  2 -1</clus>
</clustering>
</event>
<event>
 6    1  0.9254630E-012  0.3000000E+03  0.7818608E-02  0.1093470E+00
          1   -1    0    0  502    0  0.00000000000E+00  0.00000000000E+00  0.22652299251E+03  0.22652299251E+03  0.00000000000E+00 0.  1.
         13   -1    0    0    0    0 -0.00000000000E+00 -0.00000000000E+00 -0.27500000000E+03  0.27500000000E+03  0.00000000000E+00 0.  1.
    9000005    2    1    2  501    0 -0.16448995788E+02 -0.29872869489E+02 -0.43753309428E+02  0.46709522585E+03  0.46378943512E+03 0.  0.
         13    1    3    3    0    0 -0.17941561812E+03 -0.17215753130E+03 -0.20026320785E+02  0.24945787847E+03  0.00000000000E+00 0.  1.
          3    1    3    3  501    0  0.16296662233E+03  0.14228466181E+03 -0.23726988644E+02  0.21763734737E+03  0.00000000000E+00 0.  1.
         21    1    1    2  502  501  0.16448995788E+02  0.29872869489E+02 -0.47236980643E+01  0.34427766662E+02  0.00000000000E+00 0. -1.
<scales pt_clust_4="550.00000" pt_clust_5="550.00000" pt_clust_6="34.10218"></scales>
<mgrwt>
<rscale>  0 0.30000000E+03</rscale>
<asrwt>  1 0.34102184E+02</asrwt>
<pdfrwt beam="1">  1        1 0.82371997E+00 0.30000000E+03</pdfrwt>
<pdfrwt beam="2">0</pdfrwt>
<totfact> 0.67387640E-04</totfact>
</mgrwt>
<clustering>
<clus scale="   34.102">  1  6  2 -1</clus>
<clus scale="  463.789">  4  5 -1 -1</clus>
<clus scale="  300.000">  1  4  2 -1</clus>
</clustering>
</event>
<event>
 6    1  0.9254630E-012  0.3000000E+03  0.7818608E-02  0.1093470E+00
          1   -1    0    0  502    0  0.00000000000E+00  0.00000000000E+00  0.24721290042E+03  0.24721290042E+03  0.00000000000E+00 0.  1.
         13   -1    0    0    0    0 -0.00000000000E+00 -0.00000000000E+00 -0.27500000000E+03  0.27500000000E+03  0.00000000000E+00 0.  1.
    9000005    2    1    2  501    0  0.16975596572E+02  0.33937830240E+02 -0.28254667771E+02  0.48426338369E+03  0.48194683455E+03 0.  0.
         13    1    3    3    0    0  0.65555330672E+02  0.13252075693E+03  0.18949592627E+03  0.24034965877E+03  0.00000000000E+00 0.  1.
          3    1    3    3  501    0 -0.48579734099E+02 -0.98582926686E+02 -0.21775059404E+03  0.24391372492E+03  0.00000000000E+00 0.  1.
         21    1    1    2  502  501 -0.16975596572E+02 -0.33937830240E+02  0.46756819206E+00  0.37949516735E+02  0.00000000000E+00 0.  1.
<scales pt_clust_4="550.00000" pt_clust_5="550.00000" pt_clust_6="37.94664"></scales>
<mgrwt>
<rscale>  0 0.30000000E+03</rscale>
<asrwt>  1 0.37946636E+02</asrwt>
<pdfrwt beam="1">  1        1 0.89895600E+00 0.30000000E+03</pdfrwt>
<pdfrwt beam="2">0</pdfrwt>
<totfact> 0.11203544E-04</totfact>
</mgrwt>
<clustering>
<clus scale="   37.947">  1  6  2 -1</clus>
<clus scale="  481.947">  4  5 -1 -1</clus>
<clus scale="  300.000">  1  4  2 -1</clus>
</clustering>
</event>
<event>
 6    1  0.9254630E-012  0.3000000E+03  0.7818608E-02  0.1093470E+00
          1   -1    0    0  502    0  0.00000000000E+00  0.00000000000E+00  0.23715599104E+03  0.23715599104E+03  0.00000000000E+00 0.  1.
         13   -1    0    0    0    0 -0.00000000000E+00 -0.00000000000E+00 -0.27500000000E+03  0.27500000000E+03  0.00000000000E+00 0.  1.
    9000005    2    1    2  501    0  0.38314605311E+01 -0.42134668185E+02 -0.31565611616E+02  0.46938417057E+03  0.46640658378E+03 0.  0.
         13    1    3    3    0    0 -0.12936280179E+02  0.34678762560E+02  0.21108940979E+03  0.21430982909E+03  0.00000000000E+00 0.  1.
          3    1    3    3  501    0  0.16767740710E+02 -0.76813430745E+02 -0.24265502140E+03  0.25507434148E+03  0.00000000000E+00 0.  1.
         21    1    1    2  502  501 -0.38314605311E+01  0.42134668185E+02 -0.62783973471E+01  0.42771820467E+02  0.00000000000E+00 0.  1.
<scales pt_clust_4="550.00000" pt_clust_5="550.00000" pt_clust_6="42.30854"></scales>
<mgrwt>
<rscale>  0 0.30000000E+03</rscale>
<asrwt>  1 0.42308535E+02</asrwt>
<pdfrwt beam="1">  1        1 0.86238542E+00 0.30000000E+03</pdfrwt>
<pdfrwt beam="2">0</pdfrwt>
<totfact> 0.29446430E-04</totfact>
</mgrwt>
<clustering>
<clus scale="   42.309">  1  6  2 -1</clus>
<clus scale="  466.407">  4  5 -1 -1</clus>
<clus scale="  300.000">  1  4  2 -1</clus>
</clustering>
</event>
<event>
 6    1  0.9254630E-012  0.3000000E+03  0.7818608E-02  0.1093470E+00
          1   -1    0    0  502    0  0.00000000000E+00  0.00000000000E+00  0.22021364373E+03  0.22021364373E+03  0.00000000000E+00 0.  1.
         13   -1    0    0    0    0 -0.00000000000E+00 -0.00000000000E+00 -0.27500000000E+03  0.27500000000E+03  0.00000000000E+00 0.  1.
    9000005    2    1    2  501    0 -0.17929774393E+02  0.25203252349E+02 -0.63591937771E+02  0.46305436817E+03  0.45762291528E+03 0.  0.
         13    1    3    3    0    0 -0.17081555135E+03 -0.14409713256E+03 -0.71984958698E+02  0.23478451924E+03  0.00000000000E+00 0.  1.
          1    1    3    3  501    0  0.15288577696E+03  0.16930038491E+03  0.83930209264E+01  0.22826984893E+03  0.00000000000E+00 0.  1.
         21    1    1    2  502  501  0.17929774393E+02 -0.25203252349E+02  0.88055814964E+01  0.32159275556E+02  0.00000000000E+00 0.  1.
<scales pt_clust_4="550.00000" pt_clust_5="550.00000" pt_clust_6="30.93026"></scales>
<mgrwt>
<rscale>  0 0.30000000E+03</rscale>
<asrwt>  1 0.30930256E+02</asrwt>
<pdfrwt beam="1">  1        1 0.80077689E+00 0.30000000E+03</pdfrwt>
<pdfrwt beam="2">0</pdfrwt>
<totfact> 0.10479147E-03</totfact>
</mgrwt>
<clustering>
<clus scale="   30.930">  1  6  2 -1</clus>
<clus scale="  457.623">  4  5 -1 -1</clus>
<clus scale="  300.000">  1  4  2 -1</clus>
</clustering>
</event>
<event>
 6    1  0.9254630E-012  0.3000000E+03  0.7818608E-02  0.1093470E+00
          1   -1    0    0  502    0  0.00000000000E+00  0.00000000000E+00  0.23217756560E+03  0.23217756560E+03  0.00000000000E+00 0.  1.
         13   -1    0    0    0    0 -0.00000000000E+00 -0.00000000000E+00 -0.27500000000E+03  0.27500000000E+03  0.00000000000E+00 0.  1.
    9000005    2    1    2  501    0  0.11732010781E+02 -0.32428928741E+02 -0.65354967076E+02  0.46598302076E+03  0.46008654448E+03 0.  0.
         13    1    3    3    0    0 -0.38784574316E+02  0.11519400715E+03  0.15438030978E+03  0.19648710527E+03  0.00000000000E+00 0.  1.
          1    1    3    3  501    0  0.50516585097E+02 -0.14762293590E+03 -0.21973527685E+03  0.26949591549E+03  0.00000000000E+00 0.  1.
         21    1    1    2  502  501 -0.11732010781E+02  0.32428928741E+02  0.22532532681E+02  0.41194544849E+02  0.00000000000E+00 0. -1.
<scales pt_clust_4="550.00000" pt_clust_5="550.00000" pt_clust_6="34.48587"></scales>
<mgrwt>
<rscale>  0 0.30000000E+03</rscale>
<asrwt>  1 0.34485874E+02</asrwt>
<pdfrwt beam="1">  1        1 0.84428206E+00 0.30000000E+03</pdfrwt>
<pdfrwt beam="2">0</pdfrwt>
<totfact> 0.45962978E-04</totfact>
</mgrwt>
<clustering>
<clus scale="   34.486">  1  6  2 -1</clus>
<clus scale="  460.087">  4  5 -1 -1</clus>
<clus scale="  300.000">  1  4  2 -1</clus>
</clustering>
</event>
<event>
 6    1  0.9254630E-012  0.3000000E+03  0.7818608E-02  0.1093470E+00
          1   -1    0    0  502    0  0.00000000000E+00  0.00000000000E+00  0.24154175554E+03  0.24154175554E+03  0.00000000000E+00 0.  1.
         13   -1    0    0    0    0 -0.00000000000E+00 -0.00000000000E+00 -0.27500000000E+03  0.27500000000E+03  0.00000000000E+00 0.  1.
    9000005    2    1    2  501    0 -0.40876744478E+02  0.22211166273E+01 -0.55509079605E+02  0.47004357355E+03  0.46495576297E+03 0.  0.
         13    1    3    3    0    0  0.11787321175E+03  0.47357128776E+02 -0.20905346005E+03  0.24462244552E+03  0.00000000000E+00 0.  1.
          1    1    3    3  501    0 -0.15874995622E+03 -0.45136012149E+02  0.15354438045E+03  0.22542112803E+03  0.00000000000E+00 0.  1.
         21    1    1    2  502  501  0.40876744478E+02 -0.22211166273E+01  0.22050835148E+02  0.46498181995E+02  0.00000000000E+00 0. -1.
<scales pt_clust_4="550.00000" pt_clust_5="550.00000" pt_clust_6="40.93704"></scales>
<mgrwt>
<rscale>  0 0.30000000E+03</rscale>
<asrwt>  1 0.40937044E+02</asrwt>
<pdfrwt beam="1">  1        1 0.87833366E+00 0.30000000E+03</pdfrwt>
<pdfrwt beam="2">0</pdfrwt>
<totfact> 0.20077550E-04</totfact>
</mgrwt>
<clustering>
<clus scale="   40.937">  1  6  2 -1</clus>
<clus scale="  464.956">  4  5 -1 -1</clus>
<clus scale="  300.000">  1  4  2 -1</clus>
</clustering>
</event>
<event>
 6    1  0.9254630E-012  0.3000000E+03  0.7818608E-02  0.1093470E+00
          1   -1    0    0  502    0  0.00000000000E+00  0.00000000000E+00  0.21972092668E+03  0.21972092668E+03  0.00000000000E+00 0.  1.
         13   -1    0    0    0    0 -0.00000000000E+00 -0.00000000000E+00 -0.27500000000E+03  0.27500000000E+03  0.00000000000E+00 0.  1.
    9000005    2    1    2  501    0 -0.30625486203E+02  0.10193319361E+02 -0.57144939369E+02  0.46238974018E+03  0.45770831712E+03 0.  0.
         13    1    3    3    0    0 -0.19155400112E+03  0.10527552546E+03 -0.13825477736E+03  0.25863150440E+03  0.00000000000E+00 0.  1.
          1    1    3    3  501    0  0.16092851491E+03 -0.95082206101E+02  0.81109837990E+02  0.20375823578E+03  0.00000000000E+00 0.  1.
         21    1    1    2  502  501  0.30625486203E+02 -0.10193319361E+02  0.18658660536E+01  0.32331186506E+02  0.00000000000E+00 0. -1.
<scales pt_clust_4="550.00000" pt_clust_5="550.00000" pt_clust_6="32.27730"></scales>
<mgrwt>
<rscale>  0 0.30000000E+03</rscale>
<asrwt>  1 0.32277301E+02</asrwt>
<pdfrwt beam="1">  1        1 0.79898519E+00 0.30000000E+03</pdfrwt>
<pdfrwt beam="2">0</pdfrwt>
<totfact> 0.10709209E-03</totfact>
</mgrwt>
<clustering>
<clus scale="   32.277">  1  6  2 -1</clus>
<clus scale="  457.708">  4  5 -1 -1</clus>
<clus scale="  300.000">  1  4  2 -1</clus>
</clustering>
</event>
<event>
 6    1  0.9254630E-012  0.3000000E+03  0.7818608E-02  0.1093470E+00
          1   -1    0    0  502    0  0.00000000000E+00  0.00000000000E+00  0.24894302604E+03  0.24894302604E+03  0.00000000000E+00 0.  1.
         13   -1    0    0    0    0 -0.00000000000E+00 -0.00000000000E+00 -0.27500000000E+03  0.27500000000E+03  0.00000000000E+00 0.  1.
    9000005    2    1    2  501    0 -0.40283363621E+02  0.39869967807E+01 -0.50331979267E+02  0.47674216365E+03  0.47234641624E+03 0.  0.
         13    1    3    3    0    0 -0.82563154343E+02 -0.85203712615E+02  0.18600460677E+03  0.22062198630E+03  0.00000000000E+00 0.  1.
          1    1    3    3  501    0  0.42279790722E+02  0.89190709396E+02 -0.23633658604E+03  0.25612017735E+03  0.00000000000E+00 0.  1.
         21    1    1    2  502  501  0.40283363621E+02 -0.39869967807E+01  0.24275005309E+02  0.47200862394E+02  0.00000000000E+00 0.  1.
<scales pt_clust_4="550.00000" pt_clust_5="550.00000" pt_clust_6="40.48019"></scales>
<mgrwt>
<rscale>  0 0.30000000E+03</rscale>
<asrwt>  1 0.40480187E+02</asrwt>
<pdfrwt beam="1">  1        1 0.90524737E+00 0.30000000E+03</pdfrwt>
<pdfrwt beam="2">0</pdfrwt>
<totfact> 0.89043069E-05</totfact>
</mgrwt>
<clustering>
<clus scale="   40.480">  1  6  2 -1</clus>
<clus scale="  472.346">  4  5 -1 -1</clus>
<clus scale="  300.000">  1  4  2 -1</clus>
</clustering>
</event>
<event>
 6    1  0.9254630E-012  0.3000000E+03  0.7818608E-02  0.1093470E+00
          1   -1    0    0  502    0  0.00000000000E+00  0.00000000000E+00  0.22068454960E+03  0.22068454960E+03  0.00000000000E+00 0.  1.
         13   -1    0    0    0    0 -0.00000000000E+00 -0.00000000000E+00 -0.27500000000E+03  0.27500000000E+03  0.00000000000E+00 0.  1.
    9000005    2    1    2  501    0 -0.13188598026E+02 -0.28627935619E+02 -0.61499858158E+02  0.46335633390E+03  0.45817394273E+03 0.  0.
         13    1    3    3    0    0 -0.64011489563E+02 -0.20207680603E+03 -0.15237341498E+03  0.26105586361E+03  0.00000000000E+00 0.  1.
          1    1    3    3  501    0  0.50822891536E+02  0.17344887041E+03  0.90873556819E+02  0.20230047029E+03  0.00000000000E+00 0.  1.
         21    1    1    2  502  501  0.13188598026E+02  0.28627935619E+02  0.71844077612E+01  0.32328215703E+02  0.00000000000E+00 0. -1.
<scales pt_clust_4="550.00000" pt_clust_5="550.00000" pt_clust_6="31.51980"></scales>
<mgrwt>
<rscale>  0 0.30000000E+03</rscale>
<asrwt>  1 0.31519800E+02</asrwt>
<pdfrwt beam="1">  1        1 0.80248927E+00 0.30000000E+03</pdfrwt>
<pdfrwt beam="2">0</pdfrwt>
<totfact> 0.10146240E-03</totfact>
</mgrwt>
<clustering>
<clus scale="   31.520">  1  6  2 -1</clus>
<clus scale="  458.174">  4  5 -1 -1</clus>
<clus scale="  300.000">  1  4  2 -1</clus>
</clustering>
</event>
<event>
 6    1  0.9254630E-012  0.3000000E+03  0.7818608E-02  0.1093470E+00
          1   -1    0    0  502    0  0.00000000000E+00  0.00000000000E+00  0.23299231426E+03  0.23299231426E+03  0.00000000000E+00 0.  1.
         13   -1    0    0    0    0 -0.00000000000E+00 -0.00000000000E+00 -0.27500000000E+03  0.27500000000E+03  0.00000000000E+00 0.  1.
    9000005    2    1    2  501    0  0.24935817815E+02 -0.18275442221E+02 -0.55864402451E+02  0.47411318505E+03  0.46979431028E+03 0.  0.
         13    1    3    3    0    0 -0.93666222883E+01  0.18939812060E+03 -0.15169355003E+03  0.24283804237E+03  0.00000000000E+00 0.  1.
          1    1    3    3  501    0  0.34302440103E+02 -0.20767356282E+03  0.95829147583E+02  0.23127514267E+03  0.00000000000E+00 0.  1.
         21    1    1    2  502  501 -0.24935817815E+02  0.18275442221E+02  0.13856716716E+02  0.33879129218E+02  0.00000000000E+00 0.  1.
<scales pt_clust_4="550.00000" pt_clust_5="550.00000" pt_clust_6="30.91580"></scales>
<mgrwt>
<rscale>  0 0.30000000E+03</rscale>
<asrwt>  1 0.30915802E+02</asrwt>
<pdfrwt beam="1">  1        1 0.84724478E+00 0.30000000E+03</pdfrwt>
<pdfrwt beam="2">0</pdfrwt>
<totfact> 0.44176421E-04</totfact>
</mgrwt>
<clustering>
<clus scale="   30.916">  1  6  2 -1</clus>
<clus scale="  469.794">  4  5 -1 -1</clus>
<clus scale="  300.000">  1  4  2 -1</clus>
</clustering>
</event>
<event>
 6    1  0.9254630E-012  0.3000000E+03  0.7818608E-02  0.1093470E+00
          1   -1    0    0  502    0  0.00000000000E+00  0.00000000000E+00  0.25083606386E+03  0.25083606386E+03  0.00000000000E+00 0.  1.
         13   -1    0    0    0    0 -0.00000000000E+00 -0.00000000000E+00 -0.27500000000E+03  0.27500000000E+03  0.00000000000E+00 0.  1.
    9000005    2    1    2  501    0 -0.46026801428E+02  0.34164633340E+02 -0.35626876283E+02  0.46738020344E+03  0.46248166627E+03 0.  0.
         13    1    3    3    0    0 -0.18611210457E+02 -0.14211873328E+03  0.15169337087E+03  0.20869832358E+03  0.00000000000E+00 0.  1.
          1    1    3    3  501    0 -0.27415590972E+02  0.17628336662E+03 -0.18732024715E+03  0.25868187986E+03  0.00000000000E+00 0.  1.
         21    1    1    2  502  501  0.46026801428E+02 -0.34164633340E+02  0.11462940146E+02  0.58455860423E+02  0.00000000000E+00 0. -1.
<scales pt_clust_4="550.00000" pt_clust_5="550.00000" pt_clust_6="57.32093"></scales>
<mgrwt>
<rscale>  0 0.30000000E+03</rscale>
<asrwt>  1 0.57320927E+02</asrwt>
<pdfrwt beam="1">  1        1 0.91213114E+00 0.30000000E+03</pdfrwt>
<pdfrwt beam="2">0</pdfrwt>
<totfact> 0.58250284E-05</totfact>
</mgrwt>
<clustering>
<clus scale="   57.321">  1  6  2 -1</clus>
<clus scale="  462.482">  4  5 -1 -1</clus>
<clus scale="  300.000">  1  4  2 -1</clus>
</clustering>
</event>
<event>
 6    1  0.9254630E-012  0.3000000E+03  0.7818608E-02  0.1093470E+00
          1   -1    0    0  502    0  0.00000000000E+00  0.00000000000E+00  0.25184117670E+03  0.25184117670E+03  0.00000000000E+00 0.  1.
         13   -1    0    0    0    0 -0.00000000000E+00 -0.00000000000E+00 -0.27500000000E+03  0.27500000000E+03  0.00000000000E+00 0.  1.
    9000005    2    1    2  501    0  0.34202818394E+02  0.28164737745E+02 -0.57704999765E+02  0.47065822958E+03  0.46500130843E+03 0.  0.
         13    1    3    3    0    0  0.16982783689E+02  0.20339375889E+03 -0.16674544456E+03  0.26355545788E+03  0.00000000000E+00 0.  1.
          3    1    3    3  501    0  0.17220034706E+02 -0.17522902114E+03  0.10904044480E+03  0.20710277170E+03  0.00000000000E+00 0.  1.
         21    1    1    2  502  501 -0.34202818394E+02 -0.28164737745E+02  0.34546176466E+02  0.56182947117E+02  0.00000000000E+00 0. -1.
<scales pt_clust_4="550.00000" pt_clust_5="550.00000" pt_clust_6="44.30672"></scales>
<mgrwt>
<rscale>  0 0.30000000E+03</rscale>
<asrwt>  1 0.44306718E+02</asrwt>
<pdfrwt beam="1">  1        1 0.91578610E+00 0.30000000E+03</pdfrwt>
<pdfrwt beam="2">0</pdfrwt>
<totfact> 0.49733877E-05</totfact>
</mgrwt>
<clustering>
<clus scale="   44.307">  1  6  2 -1</clus>
<clus scale="  465.001">  4  5 -1 -1</clus>
<clus scale="  300.000">  1  4  2 -1</clus>
</clustering>
</event>
<event>
 6    1  0.9254630E-012  0.3000000E+03  0.7818608E-02  0.1093470E+00
          1   -1    0    0  502    0  0.00000000000E+00  0.00000000000E+00  0.25776852324E+03  0.25776852324E+03  0.00000000000E+00 0.  1.
         13   -1    0    0    0    0 -0.00000000000E+00 -0.00000000000E+00 -0.27500000000E+03  0.27500000000E+03  0.00000000000E+00 0.  1.
    9000005    2    1    2  501    0 -0.23636021944E+02 -0.23263252335E+02 -0.41738275857E+02  0.49153232986E+03  0.48863289613E+03 0.  0.
         13    1    3    3    0    0  0.57060292871E+02  0.62631486814E+02  0.20295812154E+03  0.21993312453E+03  0.00000000000E+00 0.  1.
          1    1    3    3  501    0 -0.80696314814E+02 -0.85894739149E+02 -0.24469639740E+03  0.27159920534E+03  0.00000000000E+00 0.  1.
         21    1    1    2  502  501  0.23636021944E+02  0.23263252335E+02  0.24506799100E+02  0.41236193382E+02  0.00000000000E+00 0. -1.
<scales pt_clust_4="550.00000" pt_clust_5="550.00000" pt_clust_6="33.16384"></scales>
<mgrwt>
<rscale>  0 0.30000000E+03</rscale>
<asrwt>  1 0.33163842E+02</asrwt>
<pdfrwt beam="1">  1        1 0.93734008E+00 0.30000000E+03</pdfrwt>
<pdfrwt beam="2">0</pdfrwt>
<totfact> 0.21260276E-05</totfact>
</mgrwt>
<clustering>
<clus scale="   33.164">  1  6  2 -1</clus>
<clus scale="  488.633">  4  5 -1 -1</clus>
<clus scale="  300.000">  1  4  2 -1</clus>
</clustering>
</event>
<event>
 6    1  0.9254630E-012  0.3000000E+03  0.7818608E-02  0.1093470E+00
          1   -1    0    0  502    0  0.00000000000E+00  0.00000000000E+00  0.24568469561E+03  0.24568469561E+03  0.00000000000E+00 0.  1.
         13   -1    0    0    0    0 -0.00000000000E+00 -0.00000000000E+00 -0.27500000000E+03  0.27500000000E+03  0.00000000000E+00 0.  1.
    9000005    2    1    2  501    0  0.14251666129E+02  0.26948812143E+02 -0.61269672411E+02  0.47652102163E+03  0.47158134276E+03 0.  0.
         13    1    3    3    0    0 -0.12661530969E+03 -0.86987677105E+02  0.13849714405E+03  0.20683266552E+03  0.00000000000E+00 0.  1.
          3    1    3    3  501    0  0.14086697582E+03  0.11393648925E+03 -0.19976681647E+03  0.26968835611E+03  0.00000000000E+00 0.  1.
         21    1    1    2  502  501 -0.14251666129E+02 -0.26948812143E+02  0.31954368016E+02  0.44163673972E+02  0.00000000000E+00 0.  1.
<scales pt_clust_4="550.00000" pt_clust_5="550.00000" pt_clust_6="30.48522"></scales>
<mgrwt>
<rscale>  0 0.30000000E+03</rscale>
<asrwt>  1 0.30485217E+02</asrwt>
<pdfrwt beam="1">  1        1 0.89339889E+00 0.30000000E+03</pdfrwt>
<pdfrwt beam="2">0</pdfrwt>
<totfact> 0.13499037E-04</totfact>
</mgrwt>
<clustering>
<clus scale="   30.485">  1  6  2 -1</clus>
<clus scale="  471.581">  4  5 -1 -1</clus>
<clus scale="  300.000">  1  4  2 -1</clus>
</clustering>
</event>
<event>
 6    1  0.9254630E-012  0.3000000E+03  0.7818608E-02  0.1093470E+00
          1   -1    0    0  502    0  0.00000000000E+00  0.00000000000E+00  0.23115801014E+03  0.23115801014E+03  0.00000000000E+00 0.  1.
         13   -1    0    0    0    0 -0.00000000000E+00 -0.00000000000E+00 -0.27500000000E+03  0.27500000000E+03  0.00000000000E+00 0.  1.
    9000005    2    1    2  501    0  0.22153594421E+02  0.23879955068E+02 -0.43980988052E+02  0.47358419672E+03  0.47041112878E+03 0.  0.
         13    1    3    3    0    0  0.12222420603E+03 -0.66424179930E+02  0.17063319232E+03  0.22015134463E+03  0.00000000000E+00 0.  1.
          3    1    3    3  501    0 -0.10007061161E+03  0.90304134998E+02 -0.21461418037E+03  0.25343285210E+03  0.00000000000E+00 0.  1.
         21    1    1    2  502  501 -0.22153594421E+02 -0.23879955068E+02  0.13899819018E+00  0.32573813414E+02  0.00000000000E+00 0.  1.
<scales pt_clust_4="550.00000" pt_clust_5="550.00000" pt_clust_6="32.57352"></scales>
<mgrwt>
<rscale>  0 0.30000000E+03</rscale>
<asrwt>  1 0.32573517E+02</asrwt>
<pdfrwt beam="1">  1        1 0.84057458E+00 0.30000000E+03</pdfrwt>
<pdfrwt beam="2">0</pdfrwt>
<totfact> 0.49867661E-04</totfact>
</mgrwt>
<clustering>
<clus scale="   32.574">  1  6  2 -1</clus>
<clus scale="  470.411">  4  5 -1 -1</clus>
<clus scale="  300.000">  1  4  2 -1</clus>
</clustering>
</event>
<event>
 6    1  0.9254630E-012  0.3000000E+03  0.7818608E-02  0.1093470E+00
          1   -1    0    0  502    0  0.00000000000E+00  0.00000000000E+00  0.22363990188E+03  0.22363990188E+03  0.00000000000E+00 0.  1.
         13   -1    0    0    0    0 -0.00000000000E+00 -0.00000000000E+00 -0.27500000000E+03  0.27500000000E+03  0.00000000000E+00 0.  1.
    9000005    2    1    2  501    0 -0.17226042969E+02  0.24844931482E+02 -0.59761128252E+02  0.46726181265E+03  0.46243724107E+03 0.  0.
         13    1    3    3    0    0 -0.14100937617E+03 -0.77392622004E+02 -0.19820921348E+03  0.25526487110E+03  0.00000000000E+00 0.  1.
          3    1    3    3  501    0  0.12378333321E+03  0.10223755349E+03  0.13844808523E+03  0.21199694155E+03  0.00000000000E+00 0.  1.
         21    1    1    2  502  501  0.17226042969E+02 -0.24844931482E+02  0.84010301353E+01  0.31378089236E+02  0.00000000000E+00 0.  1.
<scales pt_clust_4="550.00000" pt_clust_5="550.00000" pt_clust_6="30.23255"></scales>
<mgrwt>
<rscale>  0 0.30000000E+03</rscale>
<asrwt>  1 0.30232552E+02</asrwt>
<pdfrwt beam="1">  1        1 0.81323601E+00 0.30000000E+03</pdfrwt>
<pdfrwt beam="2">0</pdfrwt>
<totfact> 0.84557294E-04</totfact>
</mgrwt>
<clustering>
<clus scale="   30.233">  1  6  2 -1</clus>
<clus scale="  462.437">  4  5 -1 -1</clus>
<clus scale="  300.000">  1  4  2 -1</clus>
</clustering>
</event>
<event>
 6    1  0.9254630E-012  0.3000000E+03  0.7818608E-02  0.1093470E+00
          1   -1    0    0  502    0  0.00000000000E+00  0.00000000000E+00  0.24004267653E+03  0.24004267653E+03  0.00000000000E+00 0.  1.
         13   -1    0    0    0    0 -0.00000000000E+00 -0.00000000000E+00 -0.27500000000E+03  0.27500000000E+03  0.00000000000E+00 0.  1.
    9000005    2    1    2  501    0  0.27055079482E+02 -0.15620085450E+02 -0.39129653859E+02  0.48352486036E+03  0.48092535427E+03 0.  0.
         13    1    3    3    0    0 -0.10403144355E+03  0.91618346320E+02 -0.20434264203E+03  0.24692585523E+03  0.00000000000E+00 0.  1.
          3    1    3    3  501    0  0.13108652303E+03 -0.10723843177E+03  0.16521298817E+03  0.23659900513E+03  0.00000000000E+00 0.  1.
         21    1    1    2  502  501 -0.27055079482E+02  0.15620085450E+02  0.41723303863E+01  0.31517816170E+02  0.00000000000E+00 0.  1.
<scales pt_clust_4="550.00000" pt_clust_5="550.00000" pt_clust_6="31.24043"></scales>
<mgrwt>
<rscale>  0 0.30000000E+03</rscale>
<asrwt>  1 0.31240429E+02</asrwt>
<pdfrwt beam="1">  1        1 0.87288246E+00 0.30000000E+03</pdfrwt>
<pdfrwt beam="2">0</pdfrwt>
<totfact> 0.24177601E-04</totfact>
</mgrwt>
<clustering>
<clus scale="   31.240">  1  6  2 -1</clus>
<clus scale="  480.925">  4  5 -1 -1</clus>
<clus scale="  300.000">  1  4  2 -1</clus>
</clustering>
</event>
<event>
 6    1  0.9254630E-012  0.3000000E+03  0.7818608E-02  0.1093470E+00
          1   -1    0    0  502    0  0.00000000000E+00  0.00000000000E+00  0.25240731974E+03  0.25240731974E+03  0.00000000000E+00 0.  1.
         13   -1    0    0    0    0 -0.00000000000E+00 -0.00000000000E+00 -0.27500000000E+03  0.27500000000E+03  0.00000000000E+00 0.  1.
    9000005    2    1    2  501    0  0.30850188245E+02 -0.33730165137E+01 -0.93838275015E+01  0.49367921356E+03  0.49261343701E+03 0.  0.
         13    1    3    3    0    0 -0.53288189888E+02 -0.11409026188E+01 -0.24121934515E+03  0.24703786210E+03  0.00000000000E+00 0.  1.
          1    1    3    3  501    0  0.84138378132E+02 -0.22321138950E+01  0.23183551764E+03  0.24664135146E+03  0.00000000000E+00 0.  1.
         21    1    1    2  502  501 -0.30850188245E+02  0.33730165137E+01 -0.13208852760E+02  0.33728106178E+02  0.00000000000E+00 0. -1.
<scales pt_clust_4="550.00000" pt_clust_5="550.00000" pt_clust_6="31.03405"></scales>
<mgrwt>
<rscale>  0 0.30000000E+03</rscale>
<asrwt>  1 0.31034051E+02</asrwt>
<pdfrwt beam="1">  1        1 0.91784480E+00 0.30000000E+03</pdfrwt>
<pdfrwt beam="2">0</pdfrwt>
<totfact> 0.47704010E-05</totfact>
</mgrwt>
<clustering>
<clus scale="   31.034">  1  6  2 -1</clus>
<clus scale="  492.613">  4  5 -1 -1</clus>
<clus scale="  300.000">  1  4  2 -1</clus>
</clustering>
</event>
<event>
 6    1  0.9254630E-012  0.3000000E+03  0.7818608E-02  0.1093470E+00
          1   -1    0    0  502    0  0.00000000000E+00  0.00000000000E+00  0.22215504650E+03  0.22215504650E+03  0.00000000000E+00 0.  1.
         13   -1    0    0    0    0 -0.00000000000E+00 -0.00000000000E+00 -0.27500000000E+03  0.27500000000E+03  0.00000000000E+00 0.  1.
    9000005    2    1    2  501    0 -0.26361735990E+02 -0.16044234615E+02 -0.61174436520E+02  0.46519039608E+03  0.46011676163E+03 0.  0.
         13    1    3    3    0    0 -0.14098483248E+03 -0.18473282574E+03  0.42760982355E+02  0.23628677811E+03  0.00000000000E+00 0.  1.
          1    1    3    3  501    0  0.11462309649E+03  0.16868859113E+03 -0.10393541888E+03  0.22890361798E+03  0.00000000000E+00 0.  1.
         21    1    1    2  502  501  0.26361735990E+02  0.16044234615E+02  0.83294830173E+01  0.31964650414E+02  0.00000000000E+00 0.  1.
<scales pt_clust_4="550.00000" pt_clust_5="550.00000" pt_clust_6="30.86031"></scales>
<mgrwt>
<rscale>  0 0.30000000E+03</rscale>
<asrwt>  1 0.30860308E+02</asrwt>
<pdfrwt beam="1">  1        1 0.80783653E+00 0.30000000E+03</pdfrwt>
<pdfrwt beam="2">0</pdfrwt>
<totfact> 0.92833243E-04</totfact>
</mgrwt>
<clustering>
<clus scale="   30.860">  1  6  2 -1</clus>
<clus scale="  460.117">  4  5 -1 -1</clus>
<clus scale="  300.000">  1  4  2 -1</clus>
</clustering>
</event>
<event>
 6    1  0.9254630E-012  0.3000000E+03  0.7818608E-02  0.1093470E+00
          1   -1    0    0  502    0  0.00000000000E+00  0.00000000000E+00  0.23054965663E+03  0.23054965663E+03  0.00000000000E+00 0.  1.
         13   -1    0    0    0    0 -0.00000000000E+00 -0.00000000000E+00 -0.27500000000E+03  0.27500000000E+03  0.00000000000E+00 0.  1.
    9000005    2    1    2  501    0 -0.47277458845E+01  0.42883498420E+02 -0.49342823255E+02  0.46212981811E+03  0.45745809487E+03 0.  0.
         13    1    3    3    0    0 -0.64473701561E+01 -0.92564015492E+02 -0.22320765691E+03  0.24172571988E+03  0.00000000000E+00 0.  1.
          1    1    3    3  501    0  0.17196242716E+01  0.13544751391E+03  0.17386483366E+03  0.22040409823E+03  0.00000000000E+00 0.  1.
         21    1    1    2  502  501  0.47277458845E+01 -0.42883498420E+02  0.48924798829E+01  0.43419838522E+02  0.00000000000E+00 0. -1.
<scales pt_clust_4="550.00000" pt_clust_5="550.00000" pt_clust_6="43.14332"></scales>
<mgrwt>
<rscale>  0 0.30000000E+03</rscale>
<asrwt>  1 0.43143320E+02</asrwt>
<pdfrwt beam="1">  1        1 0.83836239E+00 0.30000000E+03</pdfrwt>
<pdfrwt beam="2">0</pdfrwt>
<totfact> 0.49206996E-04</totfact>
</mgrwt>
<clustering>
<clus scale="   43.143">  1  6  2 -1</clus>
<clus scale="  457.458">  4  5 -1 -1</clus>
<clus scale="  300.000">  1  4  2 -1</clus>
</clustering>
</event>
<event>
 6    1  0.9254630E-012  0.3000000E+03  0.7818608E-02  0.1093470E+00
          1   -1    0    0  502    0  0.00000000000E+00  0.00000000000E+00  0.23293221201E+03  0.23293221201E+03  0.00000000000E+00 0.  1.
         13   -1    0    0    0    0 -0.00000000000E+00 -0.00000000000E+00 -0.27500000000E+03  0.27500000000E+03  0.00000000000E+00 0.  1.
    9000005    2    1    2  501    0  0.78954123982E+01 -0.29163378256E+02 -0.53403955241E+02  0.47566227466E+03  0.47168822005E+03 0.  0.
         13    1    3    3    0    0  0.12849544908E+03 -0.14071711586E+03 -0.18468456961E+03  0.26536913419E+03  0.00000000000E+00 0.  1.
          3    1    3    3  501    0 -0.12060003668E+03  0.11155373761E+03  0.13128061436E+03  0.21029314047E+03  0.00000000000E+00 0.  1.
         21    1    1    2  502  501 -0.78954123982E+01  0.29163378256E+02  0.11336167248E+02  0.32269937343E+02  0.00000000000E+00 0.  1.
<scales pt_clust_4="550.00000" pt_clust_5="550.00000" pt_clust_6="30.21324"></scales>
<mgrwt>
<rscale>  0 0.30000000E+03</rscale>
<asrwt>  1 0.30213245E+02</asrwt>
<pdfrwt beam="1">  1        1 0.84702623E+00 0.30000000E+03</pdfrwt>
<pdfrwt beam="2">0</pdfrwt>
<totfact> 0.44574096E-04</totfact>
</mgrwt>
<clustering>
<clus scale="   30.213">  1  6  2 -1</clus>
<clus scale="  471.688">  4  5 -1 -1</clus>
<clus scale="  300.000">  1  4  2 -1</clus>
</clustering>
</event>
<event>
 6    1  0.9254630E-012  0.3000000E+03  0.7818608E-02  0.1093470E+00
          1   -1    0    0  502    0  0.00000000000E+00  0.00000000000E+00  0.22042060425E+03  0.22042060425E+03  0.00000000000E+00 0.  1.
         13   -1    0    0    0    0 -0.00000000000E+00 -0.00000000000E+00 -0.27500000000E+03  0.27500000000E+03  0.00000000000E+00 0.  1.
    9000005    2    1    2  501    0 -0.13537927857E+02 -0.26832537104E+02 -0.53658679865E+02  0.46535221128E+03  0.46127016604E+03 0.  0.
         13    1    3    3    0    0 -0.20093628424E+03 -0.99813491297E+02  0.62765318466E+02  0.23297555359E+03  0.00000000000E+00 0.  1.
          1    1    3    3  501    0  0.18739835638E+03  0.72980954193E+02 -0.11642399833E+03  0.23237665769E+03  0.00000000000E+00 0.  1.
         21    1    1    2  502  501  0.13537927857E+02  0.26832537104E+02 -0.92071588614E+00  0.30068392970E+02  0.00000000000E+00 0.  1.
<scales pt_clust_4="550.00000" pt_clust_5="550.00000" pt_clust_6="30.05429"></scales>
<mgrwt>
<rscale>  0 0.30000000E+03</rscale>
<asrwt>  1 0.30054293E+02</asrwt>
<pdfrwt beam="1">  1        1 0.80152947E+00 0.30000000E+03</pdfrwt>
<pdfrwt beam="2">0</pdfrwt>
<totfact> 0.10405538E-03</totfact>
</mgrwt>
<clustering>
<clus scale="   30.054">  1  6  2 -1</clus>
<clus scale="  461.270">  4  5 -1 -1</clus>
<clus scale="  300.000">  1  4  2 -1</clus>
</clustering>
</event>
<event>
 6    1  0.9254630E-012  0.3000000E+03  0.7818608E-02  0.1093470E+00
          1   -1    0    0  502    0  0.00000000000E+00  0.00000000000E+00  0.24349828182E+03  0.24349828182E+03  0.00000000000E+00 0.  1.
         13   -1    0    0    0    0 -0.00000000000E+00 -0.00000000000E+00 -0.27500000000E+03  0.27500000000E+03  0.00000000000E+00 0.  1.
    9000005    2    1    2  501    0  0.16189286393E+02  0.40377685467E+02 -0.81510906536E+00  0.46526184264E+03  0.46322291322E+03 0.  0.
         13    1    3    3    0    0 -0.18685837559E+03 -0.59396406289E+01 -0.12301493953E+03  0.22379456473E+03  0.00000000000E+00 0.  1.
          3    1    3    3  501    0  0.20304766198E+03  0.46317326096E+02  0.12219983046E+03  0.24146727790E+03  0.00000000000E+00 0.  1.
         21    1    1    2  502  501 -0.16189286393E+02 -0.40377685467E+02 -0.30686609117E+02  0.53236439181E+02  0.00000000000E+00 0.  1.
<scales pt_clust_4="550.00000" pt_clust_5="550.00000" pt_clust_6="43.50233"></scales>
<mgrwt>
<rscale>  0 0.30000000E+03</rscale>
<asrwt>  1 0.43502326E+02</asrwt>
<pdfrwt beam="1">  1        1 0.88544830E+00 0.30000000E+03</pdfrwt>
<pdfrwt beam="2">0</pdfrwt>
<totfact> 0.16078079E-04</totfact>
</mgrwt>
<clustering>
<clus scale="   43.502">  1  6  2 -1</clus>
<clus scale="  463.223">  4  5 -1 -1</clus>
<clus scale="  300.000">  1  4  2 -1</clus>
</clustering>
</event>
<event>
 6    1  0.9254630E-012  0.3000000E+03  0.7818608E-02  0.1093470E+00
          1   -1    0    0  502    0  0.00000000000E+00  0.00000000000E+00  0.23509385326E+03  0.23509385326E+03  0.00000000000E+00 0.  1.
         13   -1    0    0    0    0 -0.00000000000E+00 -0.00000000000E+00 -0.27500000000E+03  0.27500000000E+03  0.00000000000E+00 0.  1.
    9000005    2    1    2  501    0 -0.33218732397E+02 -0.13281682522E+02 -0.61774936643E+02  0.46816377760E+03  0.46268919654E+03 0.  0.
         13    1    3    3    0    0 -0.17513426723E+03  0.60737199948E+02 -0.18822873845E+03  0.26418000869E+03  0.00000000000E+00 0.  1.
          3    1    3    3  501    0  0.14191553483E+03 -0.74018882470E+02  0.12645380181E+03  0.20398376891E+03  0.00000000000E+00 0.  1.
         21    1    1    2  502  501  0.33218732397E+02  0.13281682522E+02  0.21868789904E+02  0.41930075656E+02  0.00000000000E+00 0. -1.
<scales pt_clust_4="550.00000" pt_clust_5="550.00000" pt_clust_6="35.77551"></scales>
<mgrwt>
<rscale>  0 0.30000000E+03</rscale>
<asrwt>  1 0.35775512E+02</asrwt>
<pdfrwt beam="1">  1        1 0.85488674E+00 0.30000000E+03</pdfrwt>
<pdfrwt beam="2">0</pdfrwt>
<totfact> 0.36378792E-04</totfact>
</mgrwt>
<clustering>
<clus scale="   35.776">  1  6  2 -1</clus>
<clus scale="  462.689">  4  5 -1 -1</clus>
<clus scale="  300.000">  1  4  2 -1</clus>
</clustering>
</event>
<event>
 6    1  0.9254630E-012  0.3000000E+03  0.7818608E-02  0.1093470E+00
          1   -1    0    0  502    0  0.00000000000E+00  0.00000000000E+00  0.23536749670E+03  0.23536749670E+03  0.00000000000E+00 0.  1.
         13   -1    0    0    0    0 -0.00000000000E+00 -0.00000000000E+00 -0.27500000000E+03  0.27500000000E+03  0.00000000000E+00 0.  1.
    9000005    2    1    2  501    0  0.31043890797E+02  0.26738134145E+02 -0.62624425853E+02  0.46338580371E+03  0.45730289021E+03 0.  0.
         13    1    3    3    0    0  0.48036959392E+02  0.16627379127E+03 -0.20161048802E+03  0.26570907401E+03  0.00000000000E+00 0.  1.
          1    1    3    3  501    0 -0.16993068595E+02 -0.13953565712E+03  0.13898606217E+03  0.19767672970E+03  0.00000000000E+00 0.  1.
         21    1    1    2  502  501 -0.31043890797E+02 -0.26738134145E+02  0.22991922554E+02  0.46981692989E+02  0.00000000000E+00 0.  1.
<scales pt_clust_4="550.00000" pt_clust_5="550.00000" pt_clust_6="40.97134"></scales>
<mgrwt>
<rscale>  0 0.30000000E+03</rscale>
<asrwt>  1 0.40971343E+02</asrwt>
<pdfrwt beam="1">  1        1 0.85588181E+00 0.30000000E+03</pdfrwt>
<pdfrwt beam="2">0</pdfrwt>
<totfact> 0.34679502E-04</totfact>
</mgrwt>
<clustering>
<clus scale="   40.971">  1  6  2 -1</clus>
<clus scale="  457.303">  4  5 -1 -1</clus>
<clus scale="  300.000">  1  4  2 -1</clus>
</clustering>
</event>
<event>
 6    1  0.9254630E-012  0.3000000E+03  0.7818608E-02  0.1093470E+00
          1   -1    0    0  502    0  0.00000000000E+00  0.00000000000E+00  0.23158418255E+03  0.23158418255E+03  0.00000000000E+00 0.  1.
         13   -1    0    0    0    0 -0.00000000000E+00 -0.00000000000E+00 -0.27500000000E+03  0.27500000000E+03  0.00000000000E+00 0.  1.
    9000005    2    1    2  501    0  0.23341517692E+02 -0.28079739669E+02 -0.19941548794E+02  0.46317520286E+03  0.46130283432E+03 0.  0.
         13    1    3    3    0    0 -0.83792563631E+02 -0.17050552039E+03  0.13005480688E+03  0.23023374861E+03  0.00000000000E+00 0.  1.
          3    1    3    3  501    0  0.10713408132E+03  0.14242578072E+03 -0.14999635568E+03  0.23294145426E+03  0.00000000000E+00 0.  1.
         21    1    1    2  502  501 -0.23341517692E+02  0.28079739669E+02 -0.23474268659E+02  0.43408979683E+02  0.00000000000E+00 0. -1.
<scales pt_clust_4="550.00000" pt_clust_5="550.00000" pt_clust_6="36.51437"></scales>
<mgrwt>
<rscale>  0 0.30000000E+03</rscale>
<asrwt>  1 0.36514375E+02</asrwt>
<pdfrwt beam="1">  1        1 0.84212430E+00 0.30000000E+03</pdfrwt>
<pdfrwt beam="2">0</pdfrwt>
<totfact> 0.47427428E-04</totfact>
</mgrwt>
<clustering>
<clus scale="   36.514">  1  6  2 -1</clus>
<clus scale="  461.303">  4  5 -1 -1</clus>
<clus scale="  300.000">  1  4  2 -1</clus>
</clustering>
</event>
<event>
 6    1  0.9254630E-012  0.3000000E+03  0.7818608E-02  0.1093470E+00
          1   -1    0    0  502    0  0.00000000000E+00  0.00000000000E+00  0.25058710070E+03  0.25058710070E+03  0.00000000000E+00 0.  1.
         13   -1    0    0    0    0 -0.00000000000E+00 -0.00000000000E+00 -0.27500000000E+03  0.27500000000E+03  0.00000000000E+00 0.  1.
    9000005    2    1    2  501    0  0.17509046060E+02  0.30462705020E+02 -0.67282344859E+02  0.47015847584E+03  0.46399087856E+03 0.  0.
         13    1    3    3    0    0 -0.45876815149E+02 -0.42257133025E+02 -0.25316472836E+03  0.26073497491E+03  0.00000000000E+00 0.  1.
          3    1    3    3  501    0  0.63385861209E+02  0.72719838045E+02  0.18588238350E+03  0.20942350093E+03  0.00000000000E+00 0.  1.
         21    1    1    2  502  501 -0.17509046060E+02 -0.30462705020E+02  0.42869445555E+02  0.55428624855E+02  0.00000000000E+00 0.  1.
<scales pt_clust_4="550.00000" pt_clust_5="550.00000" pt_clust_6="35.13607"></scales>
<mgrwt>
<rscale>  0 0.30000000E+03</rscale>
<asrwt>  1 0.35136065E+02</asrwt>
<pdfrwt beam="1">  1        1 0.91122582E+00 0.30000000E+03</pdfrwt>
<pdfrwt beam="2">0</pdfrwt>
<totfact> 0.66981116E-05</totfact>
</mgrwt>
<clustering>
<clus scale="   35.136">  1  6  2 -1</clus>
<clus scale="  463.991">  4  5 -1 -1</clus>
<clus scale="  300.000">  1  4  2 -1</clus>
</clustering>
</event>
<event>
 6    1  0.9254630E-012  0.3000000E+03  0.7818608E-02  0.1093470E+00
          1   -1    0    0  502    0  0.00000000000E+00  0.00000000000E+00  0.25366876907E+03  0.25366876907E+03  0.00000000000E+00 0.  1.
         13   -1    0    0    0    0 -0.00000000000E+00 -0.00000000000E+00 -0.27500000000E+03  0.27500000000E+03  0.00000000000E+00 0.  1.
    9000005    2    1    2  501    0  0.37112881340E+02  0.77246017391E+01 -0.17284332043E+02  0.49054511731E+03  0.48877267574E+03 0.  0.
         13    1    3    3    0    0 -0.22628957178E+03  0.10135356856E+01 -0.18587726255E+02  0.22705396081E+03  0.00000000000E+00 0.  1.
          1    1    3    3  501    0  0.26340245312E+03  0.67110660535E+01  0.13033942122E+01  0.26349115650E+03  0.00000000000E+00 0.  1.
         21    1    1    2  502  501 -0.37112881340E+02 -0.77246017391E+01 -0.40468988848E+01  0.38123651766E+02  0.00000000000E+00 0.  1.
<scales pt_clust_4="550.00000" pt_clust_5="550.00000" pt_clust_6="37.90827"></scales>
<mgrwt>
<rscale>  0 0.30000000E+03</rscale>
<asrwt>  1 0.37908269E+02</asrwt>
<pdfrwt beam="1">  1        1 0.92243189E+00 0.30000000E+03</pdfrwt>
<pdfrwt beam="2">0</pdfrwt>
<totfact> 0.36541828E-05</totfact>
</mgrwt>
<clustering>
<clus scale="   37.908">  1  6  2 -1</clus>
<clus scale="  488.773">  4  5 -1 -1</clus>
<clus scale="  300.000">  1  4  2 -1</clus>
</clustering>
</event>
<event>
 6    1  0.9254630E-012  0.3000000E+03  0.7818608E-02  0.1093470E+00
          1   -1    0    0  502    0  0.00000000000E+00  0.00000000000E+00  0.22767896896E+03  0.22767896896E+03  0.00000000000E+00 0.  1.
         13   -1    0    0    0    0 -0.00000000000E+00 -0.00000000000E+00 -0.27500000000E+03  0.27500000000E+03  0.00000000000E+00 0.  1.
    9000005    2    1    2  501    0  0.34916851411E+02  0.18577012254E+02 -0.57994707283E+02  0.46171289445E+03  0.45634539433E+03 0.  0.
         13    1    3    3    0    0  0.17492021987E+02 -0.15011475729E+03  0.13651165594E+03  0.20365618919E+03  0.00000000000E+00 0.  1.
          3    1    3    3  501    0  0.17424829423E+02  0.16869176954E+03 -0.19450636323E+03  0.25805670525E+03  0.00000000000E+00 0.  1.
         21    1    1    2  502  501 -0.34916851411E+02 -0.18577012254E+02  0.10673676248E+02  0.40966074517E+02  0.00000000000E+00 0.  1.
<scales pt_clust_4="550.00000" pt_clust_5="550.00000" pt_clust_6="39.55113"></scales>
<mgrwt>
<rscale>  0 0.30000000E+03</rscale>
<asrwt>  1 0.39551130E+02</asrwt>
<pdfrwt beam="1">  1        1 0.82792352E+00 0.30000000E+03</pdfrwt>
<pdfrwt beam="2">0</pdfrwt>
<totfact> 0.60172422E-04</totfact>
</mgrwt>
<clustering>
<clus scale="   39.551">  1  6  2 -1</clus>
<clus scale="  456.345">  4  5 -1 -1</clus>
<clus scale="  300.000">  1  4  2 -1</clus>
</clustering>
</event>
<event>
 6    1  0.9254630E-012  0.3000000E+03  0.7818608E-02  0.1093470E+00
          1   -1    0    0  502    0  0.00000000000E+00  0.00000000000E+00  0.24242055048E+03  0.24242055048E+03  0.00000000000E+00 0.  1.
         13   -1    0    0    0    0 -0.00000000000E+00 -0.00000000000E+00 -0.27500000000E+03  0.27500000000E+03  0.00000000000E+00 0.  1.
    9000005    2    1    2  501    0  0.24840008766E+02 -0.19644488603E+02 -0.45103733009E+02  0.48336486601E+03  0.48021278095E+03 0.  0.
         13    1    3    3    0    0  0.91264209624E+01  0.22917030828E+03 -0.46656885456E+02  0.23404953902E+03  0.00000000000E+00 0.  1.
          3    1    3    3  501    0  0.15713587804E+02 -0.24881479688E+03  0.15531524464E+01  0.24931532699E+03  0.00000000000E+00 0.  1.
         21    1    1    2  502  501 -0.24840008766E+02  0.19644488603E+02  0.12524283490E+02  0.34055684473E+02  0.00000000000E+00 0.  1.
<scales pt_clust_4="550.00000" pt_clust_5="550.00000" pt_clust_6="31.66910"></scales>
<mgrwt>
<rscale>  0 0.30000000E+03</rscale>
<asrwt>  1 0.31669101E+02</asrwt>
<pdfrwt beam="1">  1        1 0.88152927E+00 0.30000000E+03</pdfrwt>
<pdfrwt beam="2">0</pdfrwt>
<totfact> 0.19240472E-04</totfact>
</mgrwt>
<clustering>
<clus scale="   31.669">  1  6  2 -1</clus>
<clus scale="  480.213">  4  5 -1 -1</clus>
<clus scale="  300.000">  1  4  2 -1</clus>
</clustering>
</event>
<event>
 6    1  0.9254630E-012  0.3000000E+03  0.7818608E-02  0.1093470E+00
          1   -1    0    0  502    0  0.00000000000E+00  0.00000000000E+00  0.22735961385E+03  0.22735961385E+03  0.00000000000E+00 0.  1.
         13   -1    0    0    0    0 -0.00000000000E+00 -0.00000000000E+00 -0.27500000000E+03  0.27500000000E+03  0.00000000000E+00 0.  1.
    9000005    2    1    2  501    0 -0.27571068829E+02  0.21453556849E+02 -0.66925882919E+02  0.46245536190E+03  0.45625154138E+03 0.  0.
         13    1    3    3    0    0 -0.17603642420E+03  0.14079420066E+03  0.60361438411E+02  0.23335666443E+03  0.00000000000E+00 0.  1.
          1    1    3    3  501    0  0.14846535537E+03 -0.11934064381E+03 -0.12728732133E+03  0.22909869747E+03  0.00000000000E+00 0.  1.
         21    1    1    2  502  501  0.27571068829E+02 -0.21453556849E+02  0.19285496768E+02  0.39904251947E+02  0.00000000000E+00 0.  1.
<scales pt_clust_4="550.00000" pt_clust_5="550.00000" pt_clust_6="34.93449"></scales>
<mgrwt>
<rscale>  0 0.30000000E+03</rscale>
<asrwt>  1 0.34934495E+02</asrwt>
<pdfrwt beam="1">  1        1 0.82676223E+00 0.30000000E+03</pdfrwt>
<pdfrwt beam="2">0</pdfrwt>
<totfact> 0.63027478E-04</totfact>
</mgrwt>
<clustering>
<clus scale="   34.934">  1  6  2 -1</clus>
<clus scale="  456.252">  4  5 -1 -1</clus>
<clus scale="  300.000">  1  4  2 -1</clus>
</clustering>
</event>
<event>
 6    1  0.9254630E-012  0.3000000E+03  0.7818608E-02  0.1093470E+00
          1   -1    0    0  502    0  0.00000000000E+00  0.00000000000E+00  0.22515507298E+03  0.22515507298E+03  0.00000000000E+00 0.  1.
         13   -1    0    0    0    0 -0.00000000000E+00 -0.00000000000E+00 -0.27500000000E+03  0.27500000000E+03  0.00000000000E+00 0.  1.
    9000005    2    1    2  501    0 -0.23371651197E+02  0.25256573123E+02 -0.62540168726E+02  0.46347677248E+03  0.45794684993E+03 0.  0.
         13    1    3    3    0    0  0.19816721043E+03 -0.79429309643E+02 -0.16210964987E+02  0.21410757554E+03  0.00000000000E+00 0.  1.
          3    1    3    3  501    0 -0.22153886163E+03  0.10468588277E+03 -0.46329203740E+02  0.24936919693E+03  0.00000000000E+00 0.  1.
         21    1    1    2  502  501  0.23371651197E+02 -0.25256573123E+02  0.12695241704E+02  0.36678300499E+02  0.00000000000E+00 0. -1.
<scales pt_clust_4="550.00000" pt_clust_5="550.00000" pt_clust_6="34.41117"></scales>
<mgrwt>
<rscale>  0 0.30000000E+03</rscale>
<asrwt>  1 0.34411169E+02</asrwt>
<pdfrwt beam="1">  1        1 0.81874572E+00 0.30000000E+03</pdfrwt>
<pdfrwt beam="2">0</pdfrwt>
<totfact> 0.74378255E-04</totfact>
</mgrwt>
<clustering>
<clus scale="   34.411">  1  6  2 -1</clus>
<clus scale="  457.947">  4  5 -1 -1</clus>
<clus scale="  300.000">  1  4  2 -1</clus>
</clustering>
</event>
<event>
 6    1  0.9254630E-012  0.3000000E+03  0.7818608E-02  0.1093470E+00
          1   -1    0    0  502    0  0.00000000000E+00  0.00000000000E+00  0.24335593488E+03  0.24335593488E+03  0.00000000000E+00 0.  1.
         13   -1    0    0    0    0 -0.00000000000E+00 -0.00000000000E+00 -0.27500000000E+03  0.27500000000E+03  0.00000000000E+00 0.  1.
    9000005    2    1    2  501    0 -0.28798497412E+02 -0.43728351558E+02 -0.31449132119E+02  0.46599602481E+03  0.46197589228E+03 0.  0.
         13    1    3    3    0    0  0.27512317855E+02 -0.16249213124E+03 -0.19555743904E+03  0.25574075216E+03  0.00000000000E+00 0.  1.
          3    1    3    3  501    0 -0.56310815267E+02  0.11876377969E+03  0.16410830692E+03  0.21025527266E+03  0.00000000000E+00 0.  1.
         21    1    1    2  502  501  0.28798497412E+02  0.43728351558E+02 -0.19493300153E+00  0.52359910065E+02  0.00000000000E+00 0. -1.
<scales pt_clust_4="550.00000" pt_clust_5="550.00000" pt_clust_6="52.35955"></scales>
<mgrwt>
<rscale>  0 0.30000000E+03</rscale>
<asrwt>  1 0.52359547E+02</asrwt>
<pdfrwt beam="1">  1        1 0.88493067E+00 0.30000000E+03</pdfrwt>
<pdfrwt beam="2">0</pdfrwt>
<totfact> 0.15816400E-04</totfact>
</mgrwt>
<clustering>
<clus scale="   52.360">  1  6  2 -1</clus>
<clus scale="  461.976">  4  5 -1 -1</clus>
<clus scale="  300.000">  1  4  2 -1</clus>
</clustering>
</event>
<event>
 6    1  0.9254630E-012  0.3000000E+03  0.7818608E-02  0.1093470E+00
          1   -1    0    0  502    0  0.00000000000E+00  0.00000000000E+00  0.26635959814E+03  0.26635959814E+03  0.00000000000E+00 0.  1.
         13   -1    0    0    0    0 -0.00000000000E+00 -0.00000000000E+00 -0.27500000000E+03  0.27500000000E+03  0.00000000000E+00 0.  1.
    9000005    2    1    2  501    0 -0.33318088600E+02  0.22859571248E+02  0.13602846559E+02  0.49523566590E+03  0.49339707368E+03 0.  0.
         13    1    3    3    0    0  0.23666367658E+02  0.25441475593E+03  0.23310537573E+02  0.25657425076E+03  0.00000000000E+00 0.  1.
          1    1    3    3  501    0 -0.56984456259E+02 -0.23155518468E+03 -0.97076910144E+01  0.23866141513E+03  0.00000000000E+00 0.  1.
         21    1    1    2  502  501  0.33318088600E+02 -0.22859571248E+02 -0.22243248416E+02  0.46123932244E+02  0.00000000000E+00 0.  1.
<scales pt_clust_4="550.00000" pt_clust_5="550.00000" pt_clust_6="40.40615"></scales>
<mgrwt>
<rscale>  0 0.30000000E+03</rscale>
<asrwt>  1 0.40406146E+02</asrwt>
<pdfrwt beam="1">  1        1 0.96858036E+00 0.30000000E+03</pdfrwt>
<pdfrwt beam="2">0</pdfrwt>
<totfact> 0.50592817E-06</totfact>
</mgrwt>
<clustering>
<clus scale="   40.406">  1  6  2 -1</clus>
<clus scale="  493.397">  4  5 -1 -1</clus>
<clus scale="  300.000">  1  4  2 -1</clus>
</clustering>
</event>
<event>
 6    1  0.9254630E-012  0.3000000E+03  0.7818608E-02  0.1093470E+00
          1   -1    0    0  502    0  0.00000000000E+00  0.00000000000E+00  0.22804540002E+03  0.22804540002E+03  0.00000000000E+00 0.  1.
         13   -1    0    0    0    0 -0.00000000000E+00 -0.00000000000E+00 -0.27500000000E+03  0.27500000000E+03  0.00000000000E+00 0.  1.
    9000005    2    1    2  501    0 -0.29652952839E+02  0.17167419317E+02 -0.62499225858E+02  0.46542023169E+03  0.45993023486E+03 0.  0.
         13    1    3    3    0    0  0.16834671229E+03 -0.92247368386E+02 -0.12701511387E+03  0.23018043284E+03  0.00000000000E+00 0.  1.
          1    1    3    3  501    0 -0.19799966513E+03  0.10941478770E+03  0.64515888008E+02  0.23523979885E+03  0.00000000000E+00 0.  1.
         21    1    1    2  502  501  0.29652952839E+02 -0.17167419317E+02  0.15544625880E+02  0.37625168330E+02  0.00000000000E+00 0. -1.
<scales pt_clust_4="550.00000" pt_clust_5="550.00000" pt_clust_6="34.26394"></scales>
<mgrwt>
<rscale>  0 0.30000000E+03</rscale>
<asrwt>  1 0.34263945E+02</asrwt>
<pdfrwt beam="1">  1        1 0.82925600E+00 0.30000000E+03</pdfrwt>
<pdfrwt beam="2">0</pdfrwt>
<totfact> 0.60191958E-04</totfact>
</mgrwt>
<clustering>
<clus scale="   34.264">  1  6  2 -1</clus>
<clus scale="  459.930">  4  5 -1 -1</clus>
<clus scale="  300.000">  1  4  2 -1</clus>
</clustering>
</event>
<event>
 6    1  0.9254630E-012  0.3000000E+03  0.7818608E-02  0.1093470E+00
          1   -1    0    0  502    0  0.00000000000E+00  0.00000000000E+00  0.23514729067E+03  0.23514729067E+03  0.00000000000E+00 0.  1.
         13   -1    0    0    0    0 -0.00000000000E+00 -0.00000000000E+00 -0.27500000000E+03  0.27500000000E+03  0.00000000000E+00 0.  1.
    9000005    2    1    2  501    0 -0.26647135954E+02 -0.20186968134E+02 -0.69355824559E+02  0.46556010254E+03  0.45914964352E+03 0.  0.
         13    1    3    3    0    0  0.84355001822E+02 -0.14876944181E+03 -0.19118983361E+03  0.25651835339E+03  0.00000000000E+00 0.  1.
          3    1    3    3  501    0 -0.11100213778E+03  0.12858247368E+03  0.12183400905E+03  0.20904174915E+03  0.00000000000E+00 0.  1.
         21    1    1    2  502  501  0.26647135954E+02  0.20186968134E+02  0.29503115234E+02  0.44587188132E+02  0.00000000000E+00 0. -1.
<scales pt_clust_4="550.00000" pt_clust_5="550.00000" pt_clust_6="33.43028"></scales>
<mgrwt>
<rscale>  0 0.30000000E+03</rscale>
<asrwt>  1 0.33430279E+02</asrwt>
<pdfrwt beam="1">  1        1 0.85508106E+00 0.30000000E+03</pdfrwt>
<pdfrwt beam="2">0</pdfrwt>
<totfact> 0.36681023E-04</totfact>
</mgrwt>
<clustering>
<clus scale="   33.430">  1  6  2 -1</clus>
<clus scale="  459.150">  4  5 -1 -1</clus>
<clus scale="  300.000">  1  4  2 -1</clus>
</clustering>
</event>
<event>
 6    1  0.9254630E-012  0.3000000E+03  0.7818608E-02  0.1093470E+00
          1   -1    0    0  502    0  0.00000000000E+00  0.00000000000E+00  0.22443374776E+03  0.22443374776E+03  0.00000000000E+00 0.  1.
         13   -1    0    0    0    0 -0.00000000000E+00 -0.00000000000E+00 -0.27500000000E+03  0.27500000000E+03  0.00000000000E+00 0.  1.
    9000005    2    1    2  501    0 -0.64623217947E+01  0.29413530208E+02 -0.45001682895E+02  0.46880889193E+03  0.46567124490E+03 0.  0.
         13    1    3    3    0    0  0.18451826508E+03 -0.51130937192E+02 -0.14354625719E+03  0.23930501633E+03  0.00000000000E+00 0.  1.
          3    1    3    3  501    0 -0.19098058688E+03  0.80544467400E+02  0.98544574295E+02  0.22950387560E+03  0.00000000000E+00 0.  1.
         21    1    1    2  502  501  0.64623217947E+01 -0.29413530208E+02 -0.55645693475E+01  0.30624855825E+02  0.00000000000E+00 0.  1.
<scales pt_clust_4="550.00000" pt_clust_5="550.00000" pt_clust_6="30.11508"></scales>
<mgrwt>
<rscale>  0 0.30000000E+03</rscale>
<asrwt>  1 0.30115084E+02</asrwt>
<pdfrwt beam="1">  1        1 0.81612272E+00 0.30000000E+03</pdfrwt>
<pdfrwt beam="2">0</pdfrwt>
<totfact> 0.80205057E-04</totfact>
</mgrwt>
<clustering>
<clus scale="   30.115">  1  6  2 -1</clus>
<clus scale="  465.671">  4  5 -1 -1</clus>
<clus scale="  300.000">  1  4  2 -1</clus>
</clustering>
</event>
<event>
 6    1  0.9254630E-012  0.3000000E+03  0.7818608E-02  0.1093470E+00
          1   -1    0    0  502    0  0.00000000000E+00  0.00000000000E+00  0.23828673398E+03  0.23828673398E+03  0.00000000000E+00 0.  1.
         13   -1    0    0    0    0 -0.00000000000E+00 -0.00000000000E+00 -0.27500000000E+03  0.27500000000E+03  0.00000000000E+00 0.  1.
    9000005    2    1    2  501    0  0.29838756183E+02  0.16689578089E+02 -0.60346598828E+02  0.47172439758E+03  0.46659758025E+03 0.  0.
         13    1    3    3    0    0  0.23537643664E+03  0.69850837303E+02 -0.80711978446E+02  0.25844850524E+03  0.00000000000E+00 0.  1.
          1    1    3    3  501    0 -0.20553768045E+03 -0.53161259214E+02  0.20365379617E+02  0.21327589234E+03  0.00000000000E+00 0.  1.
         21    1    1    2  502  501 -0.29838756183E+02 -0.16689578089E+02  0.23633332811E+02  0.41562336401E+02  0.00000000000E+00 0. -1.
<scales pt_clust_4="550.00000" pt_clust_5="550.00000" pt_clust_6="34.18908"></scales>
<mgrwt>
<rscale>  0 0.30000000E+03</rscale>
<asrwt>  1 0.34189083E+02</asrwt>
<pdfrwt beam="1">  1        1 0.86649721E+00 0.30000000E+03</pdfrwt>
<pdfrwt beam="2">0</pdfrwt>
<totfact> 0.27657534E-04</totfact>
</mgrwt>
<clustering>
<clus scale="   34.189">  1  6  2 -1</clus>
<clus scale="  466.598">  4  5 -1 -1</clus>
<clus scale="  300.000">  1  4  2 -1</clus>
</clustering>
</event>
<event>
 6    1  0.9254630E-012  0.3000000E+03  0.7818608E-02  0.1093470E+00
          1   -1    0    0  502    0  0.00000000000E+00  0.00000000000E+00  0.23773075044E+03  0.23773075044E+03  0.00000000000E+00 0.  1.
         13   -1    0    0    0    0 -0.00000000000E+00 -0.00000000000E+00 -0.27500000000E+03  0.27500000000E+03  0.00000000000E+00 0.  1.
    9000005    2    1    2  501    0  0.16088125761E+02 -0.26150080177E+02 -0.41720655031E+02  0.48170705797E+03  0.47891379408E+03 0.  0.
         13    1    3    3    0    0  0.16706967660E+03  0.16599945376E+03 -0.22024535430E+02  0.23654423613E+03  0.00000000000E+00 0.  1.
          3    1    3    3  501    0 -0.15098155084E+03 -0.19214953394E+03 -0.19696119601E+02  0.24516282184E+03  0.00000000000E+00 0.  1.
         21    1    1    2  502  501 -0.16088125761E+02  0.26150080177E+02  0.44514054731E+01  0.31023692470E+02  0.00000000000E+00 0.  1.
<scales pt_clust_4="550.00000" pt_clust_5="550.00000" pt_clust_6="30.70268"></scales>
<mgrwt>
<rscale>  0 0.30000000E+03</rscale>
<asrwt>  1 0.30702679E+02</asrwt>
<pdfrwt beam="1">  1        1 0.86447546E+00 0.30000000E+03</pdfrwt>
<pdfrwt beam="2">0</pdfrwt>
<totfact> 0.29671374E-04</totfact>
</mgrwt>
<clustering>
<clus scale="   30.703">  1  6  2 -1</clus>
<clus scale="  478.914">  4  5 -1 -1</clus>
<clus scale="  300.000">  1  4  2 -1</clus>
</clustering>
</event>
<event>
 6    1  0.9254630E-012  0.3000000E+03  0.7818608E-02  0.1093470E+00
          1   -1    0    0  502    0  0.00000000000E+00  0.00000000000E+00  0.24234715830E+03  0.24234715830E+03  0.00000000000E+00 0.  1.
         13   -1    0    0    0    0 -0.00000000000E+00 -0.00000000000E+00 -0.27500000000E+03  0.27500000000E+03  0.00000000000E+00 0.  1.
    9000005    2    1    2  501    0  0.27499410268E+02  0.20892436042E+02 -0.41586916957E+02  0.48167463176E+03  0.47863166190E+03 0.  0.
         13    1    3    3    0    0  0.23343159045E+03 -0.49742503616E+00  0.73586247103E+02  0.24475598177E+03  0.00000000000E+00 0.  1.
          3    1    3    3  501    0 -0.20593218018E+03  0.21389861078E+02 -0.11517316406E+03  0.23691864999E+03  0.00000000000E+00 0.  1.
         21    1    1    2  502  501 -0.27499410268E+02 -0.20892436042E+02  0.89340752517E+01  0.35672526536E+02  0.00000000000E+00 0. -1.
<scales pt_clust_4="550.00000" pt_clust_5="550.00000" pt_clust_6="34.53565"></scales>
<mgrwt>
<rscale>  0 0.30000000E+03</rscale>
<asrwt>  1 0.34535655E+02</asrwt>
<pdfrwt beam="1">  1        1 0.88126239E+00 0.30000000E+03</pdfrwt>
<pdfrwt beam="2">0</pdfrwt>
<totfact> 0.19077774E-04</totfact>
</mgrwt>
<clustering>
<clus scale="   34.536">  1  6  2 -1</clus>
<clus scale="  478.632">  4  5 -1 -1</clus>
<clus scale="  300.000">  1  4  2 -1</clus>
</clustering>
</event>
<event>
 6    1  0.9254630E-012  0.3000000E+03  0.7818608E-02  0.1093470E+00
          1   -1    0    0  502    0  0.00000000000E+00  0.00000000000E+00  0.22693055485E+03  0.22693055485E+03  0.00000000000E+00 0.  1.
         13   -1    0    0    0    0 -0.00000000000E+00 -0.00000000000E+00 -0.27500000000E+03  0.27500000000E+03  0.00000000000E+00 0.  1.
    9000005    2    1    2  501    0  0.68825848484E+01 -0.29200359102E+02 -0.57512298389E+02  0.47047902988E+03  0.46598586045E+03 0.  0.
         13    1    3    3    0    0  0.47997552431E+01  0.13543430991E+03  0.15224270232E+03  0.20382181032E+03  0.00000000000E+00 0.  1.
          1    1    3    3  501    0  0.20828296053E+01 -0.16463466901E+03 -0.20975500071E+03  0.26665721956E+03  0.00000000000E+00 0.  1.
         21    1    1    2  502  501 -0.68825848484E+01  0.29200359102E+02  0.94428532419E+01  0.31451524975E+02  0.00000000000E+00 0.  1.
<scales pt_clust_4="550.00000" pt_clust_5="550.00000" pt_clust_6="30.00052"></scales>
<mgrwt>
<rscale>  0 0.30000000E+03</rscale>
<asrwt>  1 0.30000516E+02</asrwt>
<pdfrwt beam="1">  1        1 0.82520202E+00 0.30000000E+03</pdfrwt>
<pdfrwt beam="2">0</pdfrwt>
<totfact> 0.66977513E-04</totfact>
</mgrwt>
<clustering>
<clus scale="   30.001">  1  6  2 -1</clus>
<clus scale="  465.986">  4  5 -1 -1</clus>
<clus scale="  300.000">  1  4  2 -1</clus>
</clustering>
</event>
<event>
 6    1  0.9254630E-012  0.3000000E+03  0.7818608E-02  0.1093470E+00
          1   -1    0    0  502    0  0.00000000000E+00  0.00000000000E+00  0.25852310833E+03  0.25852310833E+03  0.00000000000E+00 0.  1.
         13   -1    0    0    0    0 -0.00000000000E+00 -0.00000000000E+00 -0.27500000000E+03  0.27500000000E+03  0.00000000000E+00 0.  1.
    9000005    2    1    2  501    0 -0.21857254208E+02 -0.59252892900E+02 -0.32986994321E+02  0.46824502343E+03  0.46279219451E+03 0.  0.
         13    1    3    3    0    0 -0.20550364354E+03 -0.11904387415E+03 -0.10820291148E+03  0.26098096010E+03  0.00000000000E+00 0.  1.
          3    1    3    3  501    0  0.18364638934E+03  0.59790981250E+02  0.75215917156E+02  0.20726406333E+03  0.00000000000E+00 0.  1.
         21    1    1    2  502  501  0.21857254208E+02  0.59252892900E+02  0.16510102651E+02  0.65278084900E+02  0.00000000000E+00 0. -1.
<scales pt_clust_4="550.00000" pt_clust_5="550.00000" pt_clust_6="63.15572"></scales>
<mgrwt>
<rscale>  0 0.30000000E+03</rscale>
<asrwt>  1 0.63155719E+02</asrwt>
<pdfrwt beam="1">  1        1 0.94008403E+00 0.30000000E+03</pdfrwt>
<pdfrwt beam="2">0</pdfrwt>
<totfact> 0.17196554E-05</totfact>
</mgrwt>
<clustering>
<clus scale="   63.156">  1  6  2 -1</clus>
<clus scale="  462.792">  4  5 -1 -1</clus>
<clus scale="  300.000">  1  4  2 -1</clus>
</clustering>
</event>
<event>
 6    1  0.9254630E-012  0.3000000E+03  0.7818608E-02  0.1093470E+00
          1   -1    0    0  502    0  0.00000000000E+00  0.00000000000E+00  0.23170882864E+03  0.23170882864E+03  0.00000000000E+00 0.  1.
         13   -1    0    0    0    0 -0.00000000000E+00 -0.00000000000E+00 -0.27500000000E+03  0.27500000000E+03  0.00000000000E+00 0.  1.
    9000005    2    1    2  501    0 -0.10783237106E+02  0.29203378352E+02 -0.65437882453E+02  0.46850421737E+03  0.46286603864E+03 0.  0.
         13    1    3    3    0    0  0.50938651813E+02 -0.65606355455E+02  0.18000481885E+03  0.19824397831E+03  0.00000000000E+00 0.  1.
          1    1    3    3  501    0 -0.61721888919E+02  0.94809733807E+02 -0.24544270131E+03  0.27026023907E+03  0.00000000000E+00 0.  1.
         21    1    1    2  502  501  0.10783237106E+02 -0.29203378352E+02  0.22146711093E+02  0.38204611265E+02  0.00000000000E+00 0.  1.
<scales pt_clust_4="550.00000" pt_clust_5="550.00000" pt_clust_6="31.13062"></scales>
<mgrwt>
<rscale>  0 0.30000000E+03</rscale>
<asrwt>  1 0.31130620E+02</asrwt>
<pdfrwt beam="1">  1        1 0.84257756E+00 0.30000000E+03</pdfrwt>
<pdfrwt beam="2">0</pdfrwt>
<totfact> 0.48451380E-04</totfact>
</mgrwt>
<clustering>
<clus scale="   31.131">  1  6  2 -1</clus>
<clus scale="  462.866">  4  5 -1 -1</clus>
<clus scale="  300.000">  1  4  2 -1</clus>
</clustering>
</event>
<event>
 6    1  0.9254630E-012  0.3000000E+03  0.7818608E-02  0.1093470E+00
          1   -1    0    0  502    0  0.00000000000E+00  0.00000000000E+00  0.24675878569E+03  0.24675878569E+03  0.00000000000E+00 0.  1.
         13   -1    0    0    0    0 -0.00000000000E+00 -0.00000000000E+00 -0.27500000000E+03  0.27500000000E+03  0.00000000000E+00 0.  1.
    9000005    2    1    2  501    0 -0.40729871992E+02  0.31986279269E+02 -0.50426457682E+02  0.46541848433E+03  0.45977113153E+03 0.  0.
         13    1    3    3    0    0  0.54839877808E+02  0.23279230402E+03 -0.42337355087E+02  0.24288293609E+03  0.00000000000E+00 0.  1.
          3    1    3    3  501    0 -0.95569749800E+02 -0.20080602475E+03 -0.80891025942E+01  0.22253554824E+03  0.00000000000E+00 0.  1.
         21    1    1    2  502  501  0.40729871992E+02 -0.31986279269E+02  0.22185243376E+02  0.56340301363E+02  0.00000000000E+00 0. -1.
<scales pt_clust_4="550.00000" pt_clust_5="550.00000" pt_clust_6="51.78846"></scales>
<mgrwt>
<rscale>  0 0.30000000E+03</rscale>
<asrwt>  1 0.51788459E+02</asrwt>
<pdfrwt beam="1">  1        1 0.89730468E+00 0.30000000E+03</pdfrwt>
<pdfrwt beam="2">0</pdfrwt>
<totfact> 0.11071665E-04</totfact>
</mgrwt>
<clustering>
<clus scale="   51.788">  1  6  2 -1</clus>
<clus scale="  459.771">  4  5 -1 -1</clus>
<clus scale="  300.000">  1  4  2 -1</clus>
</clustering>
</event>
<event>
 6    1  0.9254630E-012  0.3000000E+03  0.7818608E-02  0.1093470E+00
          1   -1    0    0  502    0  0.00000000000E+00  0.00000000000E+00  0.24184207981E+03  0.24184207981E+03  0.00000000000E+00 0.  1.
         13   -1    0    0    0    0 -0.00000000000E+00 -0.00000000000E+00 -0.27500000000E+03  0.27500000000E+03  0.00000000000E+00 0.  1.
    9000005    2    1    2  501    0  0.38165589437E+01  0.31668509180E+02 -0.29588321807E+02  0.48474531005E+03  0.48278886300E+03 0.  0.
         13    1    3    3    0    0 -0.10947099686E+03  0.22638578825E+03  0.25730417032E+02  0.25277752795E+03  0.00000000000E+00 0.  1.
          1    1    3    3  501    0  0.11328755580E+03 -0.19471727907E+03 -0.55318738839E+02  0.23196778211E+03  0.00000000000E+00 0.  1.
         21    1    1    2  502  501 -0.38165589437E+01 -0.31668509180E+02 -0.35695983878E+01  0.32096769752E+02  0.00000000000E+00 0. -1.
<scales pt_clust_4="550.00000" pt_clust_5="550.00000" pt_clust_6="31.89767"></scales>
<mgrwt>
<rscale>  0 0.30000000E+03</rscale>
<asrwt>  1 0.31897674E+02</asrwt>
<pdfrwt beam="1">  1        1 0.87942574E+00 0.30000000E+03</pdfrwt>
<pdfrwt beam="2">0</pdfrwt>
<totfact> 0.20413199E-04</totfact>
</mgrwt>
<clustering>
<clus scale="   31.898">  1  6  2 -1</clus>
<clus scale="  482.789">  4  5 -1 -1</clus>
<clus scale="  300.000">  1  4  2 -1</clus>
</clustering>
</event>
<event>
 6    1  0.9254630E-012  0.3000000E+03  0.7818608E-02  0.1093470E+00
          1   -1    0    0  502    0  0.00000000000E+00  0.00000000000E+00  0.23200122318E+03  0.23200122318E+03  0.00000000000E+00 0.  1.
         13   -1    0    0    0    0 -0.00000000000E+00 -0.00000000000E+00 -0.27500000000E+03  0.27500000000E+03  0.00000000000E+00 0.  1.
    9000005    2    1    2  501    0 -0.15948687153E+02 -0.30696613154E+02 -0.67605468377E+02  0.46454969847E+03  0.45830042583E+03 0.  0.
         13    1    3    3    0    0 -0.20545268169E+03 -0.56169079711E+02  0.75223014857E+02  0.22588552830E+03  0.00000000000E+00 0.  1.
          3    1    3    3  501    0  0.18950399454E+03  0.25472466557E+02 -0.14282848323E+03  0.23866417017E+03  0.00000000000E+00 0.  1.
         21    1    1    2  502  501  0.15948687153E+02  0.30696613154E+02  0.24606691561E+02  0.42451524715E+02  0.00000000000E+00 0.  1.
<scales pt_clust_4="550.00000" pt_clust_5="550.00000" pt_clust_6="34.59252"></scales>
<mgrwt>
<rscale>  0 0.30000000E+03</rscale>
<asrwt>  1 0.34592523E+02</asrwt>
<pdfrwt beam="1">  1        1 0.84364081E+00 0.30000000E+03</pdfrwt>
<pdfrwt beam="2">0</pdfrwt>
<totfact> 0.46522019E-04</totfact>
</mgrwt>
<clustering>
<clus scale="   34.593">  1  6  2 -1</clus>
<clus scale="  458.300">  4  5 -1 -1</clus>
<clus scale="  300.000">  1  4  2 -1</clus>
</clustering>
</event>
<event>
 6    1  0.9254630E-012  0.3000000E+03  0.7818608E-02  0.1093470E+00
          1   -1    0    0  502    0  0.00000000000E+00  0.00000000000E+00  0.23090185407E+03  0.23090185407E+03  0.00000000000E+00 0.  1.
         13   -1    0    0    0    0 -0.00000000000E+00 -0.00000000000E+00 -0.27500000000E+03  0.27500000000E+03  0.00000000000E+00 0.  1.
    9000005    2    1    2  501    0  0.31660029961E+02 -0.10360014312E+02 -0.46034550353E+02  0.47253364980E+03  0.46910466100E+03 0.  0.
         13    1    3    3    0    0 -0.19484012493E+03  0.63659765656E+02  0.57254863407E+02  0.21282236590E+03  0.00000000000E+00 0.  1.
          1    1    3    3  501    0  0.22650015489E+03 -0.74019779968E+02 -0.10328941376E+03  0.25971128390E+03  0.00000000000E+00 0.  1.
         21    1    1    2  502  501 -0.31660029961E+02  0.10360014312E+02  0.19364044192E+01  0.33368204264E+02  0.00000000000E+00 0.  1.
<scales pt_clust_4="550.00000" pt_clust_5="550.00000" pt_clust_6="33.31197"></scales>
<mgrwt>
<rscale>  0 0.30000000E+03</rscale>
<asrwt>  1 0.33311971E+02</asrwt>
<pdfrwt beam="1">  1        1 0.83964311E+00 0.30000000E+03</pdfrwt>
<pdfrwt beam="2">0</pdfrwt>
<totfact> 0.50483658E-04</totfact>
</mgrwt>
<clustering>
<clus scale="   33.312">  1  6  2 -1</clus>
<clus scale="  469.105">  4  5 -1 -1</clus>
<clus scale="  300.000">  1  4  2 -1</clus>
</clustering>
</event>
<event>
 6    1  0.9254630E-012  0.3000000E+03  0.7818608E-02  0.1093470E+00
          1   -1    0    0  502    0  0.00000000000E+00  0.00000000000E+00  0.24317567681E+03  0.24317567681E+03  0.00000000000E+00 0.  1.
         13   -1    0    0    0    0 -0.00000000000E+00 -0.00000000000E+00 -0.27500000000E+03  0.27500000000E+03  0.00000000000E+00 0.  1.
    9000005    2    1    2  501    0  0.41610921685E+02  0.41367117421E+01 -0.62336039191E+02  0.46641134545E+03  0.46033159809E+03 0.  0.
         13    1    3    3    0    0  0.20599969162E+03  0.13985596035E+03 -0.37431717194E+02  0.25178700532E+03  0.00000000000E+00 0.  1.
          1    1    3    3  501    0 -0.16438876994E+03 -0.13571924861E+03 -0.24904321997E+02  0.21462434014E+03  0.00000000000E+00 0.  1.
         21    1    1    2  502  501 -0.41610921685E+02 -0.41367117421E+01  0.30511716002E+02  0.51764331358E+02  0.00000000000E+00 0. -1.
<scales pt_clust_4="550.00000" pt_clust_5="550.00000" pt_clust_6="41.81604"></scales>
<mgrwt>
<rscale>  0 0.30000000E+03</rscale>
<asrwt>  1 0.41816040E+02</asrwt>
<pdfrwt beam="1">  1        1 0.88427519E+00 0.30000000E+03</pdfrwt>
<pdfrwt beam="2">0</pdfrwt>
<totfact> 0.16802528E-04</totfact>
</mgrwt>
<clustering>
<clus scale="   41.816">  1  6  2 -1</clus>
<clus scale="  460.332">  4  5 -1 -1</clus>
<clus scale="  300.000">  1  4  2 -1</clus>
</clustering>
</event>
<event>
 6    1  0.9254630E-012  0.3000000E+03  0.7818608E-02  0.1093470E+00
          1   -1    0    0  502    0  0.00000000000E+00  0.00000000000E+00  0.23419242993E+03  0.23419242993E+03  0.00000000000E+00 0.  1.
         13   -1    0    0    0    0 -0.00000000000E+00 -0.00000000000E+00 -0.27500000000E+03  0.27500000000E+03  0.00000000000E+00 0.  1.
    9000005    2    1    2  501    0 -0.35226596580E+02 -0.10544783408E+02 -0.53118397664E+02  0.47041534856E+03  0.46595807797E+03 0.  0.
         13    1    3    3    0    0  0.11030306131E+03 -0.19938839184E+03 -0.42292156147E+02  0.23175660207E+03  0.00000000000E+00 0.  1.
          3    1    3    3  501    0 -0.14552965789E+03  0.18884360843E+03 -0.10826241516E+02  0.23865874649E+03  0.00000000000E+00 0.  1.
         21    1    1    2  502  501  0.35226596580E+02  0.10544783408E+02  0.12310827598E+02  0.38777081374E+02  0.00000000000E+00 0. -1.
<scales pt_clust_4="550.00000" pt_clust_5="550.00000" pt_clust_6="36.77099"></scales>
<mgrwt>
<rscale>  0 0.30000000E+03</rscale>
<asrwt>  1 0.36770988E+02</asrwt>
<pdfrwt beam="1">  1        1 0.85160884E+00 0.30000000E+03</pdfrwt>
<pdfrwt beam="2">0</pdfrwt>
<totfact> 0.38936986E-04</totfact>
</mgrwt>
<clustering>
<clus scale="   36.771">  1  6  2 -1</clus>
<clus scale="  465.958">  4  5 -1 -1</clus>
<clus scale="  300.000">  1  4  2 -1</clus>
</clustering>
</event>
<event>
 6    1  0.9254630E-012  0.3000000E+03  0.7818608E-02  0.1093470E+00
          1   -1    0    0  502    0  0.00000000000E+00  0.00000000000E+00  0.23159082303E+03  0.23159082303E+03  0.00000000000E+00 0.  1.
         13   -1    0    0    0    0 -0.00000000000E+00 -0.00000000000E+00 -0.27500000000E+03  0.27500000000E+03  0.00000000000E+00 0.  1.
    9000005    2    1    2  501    0 -0.38365861494E+02 -0.36736208489E+01 -0.27973635431E+02  0.46507346809E+03  0.46262876221E+03 0.  0.
         13    1    3    3    0    0  0.14732437608E+03  0.15936216562E+03 -0.83135683215E+01  0.21718629569E+03  0.00000000000E+00 0.  1.
          3    1    3    3  501    0 -0.18569023758E+03 -0.16303578647E+03 -0.19660067109E+02  0.24788717240E+03  0.00000000000E+00 0.  1.
         21    1    1    2  502  501  0.38365861494E+02  0.36736208489E+01 -0.15435541543E+02  0.41517354938E+02  0.00000000000E+00 0. -1.
<scales pt_clust_4="550.00000" pt_clust_5="550.00000" pt_clust_6="38.54136"></scales>
<mgrwt>
<rscale>  0 0.30000000E+03</rscale>
<asrwt>  1 0.38541358E+02</asrwt>
<pdfrwt beam="1">  1        1 0.84214845E+00 0.30000000E+03</pdfrwt>
<pdfrwt beam="2">0</pdfrwt>
<totfact> 0.46934916E-04</totfact>
</mgrwt>
<clustering>
<clus scale="   38.541">  1  6  2 -1</clus>
<clus scale="  462.629">  4  5 -1 -1</clus>
<clus scale="  300.000">  1  4  2 -1</clus>
</clustering>
</event>
<event>
 6    1  0.9254630E-012  0.3000000E+03  0.7818608E-02  0.1093470E+00
          1   -1    0    0  502    0  0.00000000000E+00  0.00000000000E+00  0.25125495930E+03  0.25125495930E+03  0.00000000000E+00 0.  1.
         13   -1    0    0    0    0 -0.00000000000E+00 -0.00000000000E+00 -0.27500000000E+03  0.27500000000E+03  0.00000000000E+00 0.  1.
    9000005    2    1    2  501    0  0.16489718781E+02  0.26666468248E+02 -0.32512985940E+02  0.49369903483E+03  0.49162855021E+03 0.  0.
         13    1    3    3    0    0  0.24142042010E+03 -0.62377258921E+02  0.18547490724E+01  0.24935553286E+03  0.00000000000E+00 0.  1.
          3    1    3    3  501    0 -0.22493070132E+03  0.89043727169E+02 -0.34367735013E+02  0.24434350197E+03  0.00000000000E+00 0.  1.
         21    1    1    2  502  501 -0.16489718781E+02 -0.26666468248E+02  0.87679452379E+01  0.32555924468E+02  0.00000000000E+00 0.  1.
<scales pt_clust_4="550.00000" pt_clust_5="550.00000" pt_clust_6="31.35301"></scales>
<mgrwt>
<rscale>  0 0.30000000E+03</rscale>
<asrwt>  1 0.31353012E+02</asrwt>
<pdfrwt beam="1">  1        1 0.91365440E+00 0.30000000E+03</pdfrwt>
<pdfrwt beam="2">0</pdfrwt>
<totfact> 0.59533257E-05</totfact>
</mgrwt>
<clustering>
<clus scale="   31.353">  1  6  2 -1</clus>
<clus scale="  491.629">  4  5 -1 -1</clus>
<clus scale="  300.000">  1  4  2 -1</clus>
</clustering>
</event>
<event>
 6    1  0.9254630E-012  0.3000000E+03  0.7818608E-02  0.1093470E+00
          1   -1    0    0  502    0  0.00000000000E+00  0.00000000000E+00  0.23479889018E+03  0.23479889018E+03  0.00000000000E+00 0.  1.
         13   -1    0    0    0    0 -0.00000000000E+00 -0.00000000000E+00 -0.27500000000E+03  0.27500000000E+03  0.00000000000E+00 0.  1.
    9000005    2    1    2  501    0  0.26042526608E+02  0.16519907279E+02 -0.33423885039E+02  0.47822277097E+03  0.47605539809E+03 0.  0.
         13    1    3    3    0    0  0.11248241900E+02 -0.17363655112E+03 -0.17029143314E+03  0.24346528918E+03  0.00000000000E+00 0.  1.
          3    1    3    3  501    0  0.14794284707E+02  0.19015645840E+03  0.13686754810E+03  0.23475748179E+03  0.00000000000E+00 0.  1.
         21    1    1    2  502  501 -0.26042526608E+02 -0.16519907279E+02 -0.67772247835E+01  0.31576119210E+02  0.00000000000E+00 0.  1.
<scales pt_clust_4="550.00000" pt_clust_5="550.00000" pt_clust_6="30.84026"></scales>
<mgrwt>
<rscale>  0 0.30000000E+03</rscale>
<asrwt>  1 0.30840257E+02</asrwt>
<pdfrwt beam="1">  1        1 0.85381415E+00 0.30000000E+03</pdfrwt>
<pdfrwt beam="2">0</pdfrwt>
<totfact> 0.38328433E-04</totfact>
</mgrwt>
<clustering>
<clus scale="   30.840">  1  6  2 -1</clus>
<clus scale="  476.055">  4  5 -1 -1</clus>
<clus scale="  300.000">  1  4  2 -1</clus>
</clustering>
</event>
<event>
 6    1  0.9254630E-012  0.3000000E+03  0.7818608E-02  0.1093470E+00
          1   -1    0    0  502    0  0.00000000000E+00  0.00000000000E+00  0.22422116506E+03  0.22422116506E+03  0.00000000000E+00 0.  1.
         13   -1    0    0    0    0 -0.00000000000E+00 -0.00000000000E+00 -0.27500000000E+03  0.27500000000E+03  0.00000000000E+00 0.  1.
    9000005    2    1    2  501    0 -0.28776071371E+02  0.89801717625E+01 -0.70831507587E+02  0.46301597968E+03  0.45657199783E+03 0.  0.
         13    1    3    3    0    0 -0.41723785030E+02  0.11723972281E+03  0.16296526983E+03  0.20504561934E+03  0.00000000000E+00 0.  1.
          3    1    3    3  501    0  0.12947713659E+02 -0.10825955104E+03 -0.23379677742E+03  0.25797036034E+03  0.00000000000E+00 0.  1.
         21    1    1    2  502  501  0.28776071371E+02 -0.89801717625E+01  0.20052672651E+02  0.36205185387E+02  0.00000000000E+00 0.  1.
<scales pt_clust_4="550.00000" pt_clust_5="550.00000" pt_clust_6="30.14475"></scales>
<mgrwt>
<rscale>  0 0.30000000E+03</rscale>
<asrwt>  1 0.30144747E+02</asrwt>
<pdfrwt beam="1">  1        1 0.81534969E+00 0.30000000E+03</pdfrwt>
<pdfrwt beam="2">0</pdfrwt>
<totfact> 0.81359476E-04</totfact>
</mgrwt>
<clustering>
<clus scale="   30.145">  1  6  2 -1</clus>
<clus scale="  456.572">  4  5 -1 -1</clus>
<clus scale="  300.000">  1  4  2 -1</clus>
</clustering>
</event>
<event>
 6    1  0.9254630E-012  0.3000000E+03  0.7818608E-02  0.1093470E+00
          1   -1    0    0  502    0  0.00000000000E+00  0.00000000000E+00  0.23251127763E+03  0.23251127763E+03  0.00000000000E+00 0.  1.
         13   -1    0    0    0    0 -0.00000000000E+00 -0.00000000000E+00 -0.27500000000E+03  0.27500000000E+03  0.00000000000E+00 0.  1.
    9000005    2    1    2  501    0  0.43051479137E+02  0.10066403898E+02 -0.42928955255E+02  0.46329639158E+03  0.45917958242E+03 0.  0.
         13    1    3    3    0    0  0.62149660515E+02  0.14662038855E+03  0.15489965782E+03  0.22215765266E+03  0.00000000000E+00 0.  1.
          1    1    3    3  501    0 -0.19098181378E+02 -0.13655398466E+03 -0.19782861308E+03  0.24113873892E+03  0.00000000000E+00 0.  1.
         21    1    1    2  502  501 -0.43051479137E+02 -0.10066403898E+02  0.44023288595E+00  0.44214886049E+02  0.00000000000E+00 0.  1.
<scales pt_clust_4="550.00000" pt_clust_5="550.00000" pt_clust_6="44.21269"></scales>
<mgrwt>
<rscale>  0 0.30000000E+03</rscale>
<asrwt>  1 0.44212694E+02</asrwt>
<pdfrwt beam="1">  1        1 0.84549556E+00 0.30000000E+03</pdfrwt>
<pdfrwt beam="2">0</pdfrwt>
<totfact> 0.42859193E-04</totfact>
</mgrwt>
<clustering>
<clus scale="   44.213">  1  6  2 -1</clus>
<clus scale="  459.180">  4  5 -1 -1</clus>
<clus scale="  300.000">  1  4  2 -1</clus>
</clustering>
</event>
<event>
 6    1  0.9254630E-012  0.3000000E+03  0.7818608E-02  0.1093470E+00
          1   -1    0    0  502    0  0.00000000000E+00  0.00000000000E+00  0.23624146254E+03  0.23624146254E+03  0.00000000000E+00 0.  1.
         13   -1    0    0    0    0 -0.00000000000E+00 -0.00000000000E+00 -0.27500000000E+03  0.27500000000E+03  0.00000000000E+00 0.  1.
    9000005    2    1    2  501    0  0.48997316804E+01 -0.34260460323E+02 -0.69571116454E+02  0.46490355650E+03  0.45836381848E+03 0.  0.
         13    1    3    3    0    0  0.21431478913E+03  0.49985906828E+02  0.22308642629E+02  0.22119469988E+03  0.00000000000E+00 0.  1.
          1    1    3    3  501    0 -0.20941505745E+03 -0.84246367151E+02 -0.91879759083E+02  0.24370885662E+03  0.00000000000E+00 0.  1.
         21    1    1    2  502  501 -0.48997316804E+01  0.34260460323E+02  0.30812578994E+02  0.46337906042E+02  0.00000000000E+00 0.  1.
<scales pt_clust_4="550.00000" pt_clust_5="550.00000" pt_clust_6="34.60905"></scales>
<mgrwt>
<rscale>  0 0.30000000E+03</rscale>
<asrwt>  1 0.34609052E+02</asrwt>
<pdfrwt beam="1">  1        1 0.85905986E+00 0.30000000E+03</pdfrwt>
<pdfrwt beam="2">0</pdfrwt>
<totfact> 0.33168349E-04</totfact>
</mgrwt>
<clustering>
<clus scale="   34.609">  1  6  2 -1</clus>
<clus scale="  458.364">  4  5 -1 -1</clus>
<clus scale="  300.000">  1  4  2 -1</clus>
</clustering>
</event>
<event>
 6    1  0.9254630E-012  0.3000000E+03  0.7818608E-02  0.1093470E+00
          1   -1    0    0  502    0  0.00000000000E+00  0.00000000000E+00  0.22812865923E+03  0.22812865923E+03  0.00000000000E+00 0.  1.
         13   -1    0    0    0    0 -0.00000000000E+00 -0.00000000000E+00 -0.27500000000E+03  0.27500000000E+03  0.00000000000E+00 0.  1.
    9000005    2    1    2  501    0 -0.34593454832E+02 -0.15579803333E+02 -0.51929405171E+02  0.46485306120E+03  0.46038274077E+03 0.  0.
         13    1    3    3    0    0  0.14786001322E+01 -0.38812014781E+02  0.20282519889E+03  0.20651058098E+03  0.00000000000E+00 0.  1.
          3    1    3    3  501    0 -0.36072054964E+02  0.23232211449E+02 -0.25475460406E+03  0.25834248023E+03  0.00000000000E+00 0.  1.
         21    1    1    2  502  501  0.34593454832E+02  0.15579803333E+02  0.50580644037E+01  0.38275598031E+02  0.00000000000E+00 0. -1.
<scales pt_clust_4="550.00000" pt_clust_5="550.00000" pt_clust_6="37.93992"></scales>
<mgrwt>
<rscale>  0 0.30000000E+03</rscale>
<asrwt>  1 0.37939918E+02</asrwt>
<pdfrwt beam="1">  1        1 0.82955876E+00 0.30000000E+03</pdfrwt>
<pdfrwt beam="2">0</pdfrwt>
<totfact> 0.58716447E-04</totfact>
</mgrwt>
<clustering>
<clus scale="   37.940">  1  6  2 -1</clus>
<clus scale="  460.383">  4  5 -1 -1</clus>
<clus scale="  300.000">  1  4  2 -1</clus>
</clustering>
</event>
<event>
 6    1  0.9254630E-012  0.3000000E+03  0.7818608E-02  0.1093470E+00
          1   -1    0    0  502    0  0.00000000000E+00  0.00000000000E+00  0.23477077904E+03  0.23477077904E+03  0.00000000000E+00 0.  1.
         13   -1    0    0    0    0 -0.00000000000E+00 -0.00000000000E+00 -0.27500000000E+03  0.27500000000E+03  0.00000000000E+00 0.  1.
    9000005    2    1    2  501    0  0.44457709907E+01 -0.30652521550E+02 -0.58716740672E+02  0.47369959467E+03  0.46902484838E+03 0.  0.
         13    1    3    3    0    0 -0.12811104968E+03 -0.10158282771E+03  0.14634717193E+03  0.21942881914E+03  0.00000000000E+00 0.  1.
          1    1    3    3  501    0  0.13255682067E+03  0.70930306162E+02 -0.20506391260E+03  0.25427077553E+03  0.00000000000E+00 0.  1.
         21    1    1    2  502  501 -0.44457709907E+01  0.30652521550E+02  0.18487519717E+02  0.36071184377E+02  0.00000000000E+00 0. -1.
<scales pt_clust_4="550.00000" pt_clust_5="550.00000" pt_clust_6="30.97325"></scales>
<mgrwt>
<rscale>  0 0.30000000E+03</rscale>
<asrwt>  1 0.30973246E+02</asrwt>
<pdfrwt beam="1">  1        1 0.85371192E+00 0.30000000E+03</pdfrwt>
<pdfrwt beam="2">0</pdfrwt>
<totfact> 0.38384418E-04</totfact>
</mgrwt>
<clustering>
<clus scale="   30.973">  1  6  2 -1</clus>
<clus scale="  469.025">  4  5 -1 -1</clus>
<clus scale="  300.000">  1  4  2 -1</clus>
</clustering>
</event>
<event>
 6    1  0.9254630E-012  0.3000000E+03  0.7818608E-02  0.1093470E+00
          1   -1    0    0  502    0  0.00000000000E+00  0.00000000000E+00  0.23441698178E+03  0.23441698178E+03  0.00000000000E+00 0.  1.
         13   -1    0    0    0    0 -0.00000000000E+00 -0.00000000000E+00 -0.27500000000E+03  0.27500000000E+03  0.00000000000E+00 0.  1.
    9000005    2    1    2  501    0  0.12952757880E+02 -0.33966654232E+02 -0.54054547565E+02  0.47064857145E+03  0.46611873612E+03 0.  0.
         13    1    3    3    0    0 -0.17187563508E+03  0.13299243075E+03 -0.41593100251E+02  0.22126501431E+03  0.00000000000E+00 0.  1.
          3    1    3    3  501    0  0.18482839296E+03 -0.16695908498E+03 -0.12461447315E+02  0.24938355714E+03  0.00000000000E+00 0.  1.
         21    1    1    2  502  501 -0.12952757880E+02  0.33966654232E+02  0.13471529343E+02  0.38768410327E+02  0.00000000000E+00 0.  1.
<scales pt_clust_4="550.00000" pt_clust_5="550.00000" pt_clust_6="36.35255"></scales>
<mgrwt>
<rscale>  0 0.30000000E+03</rscale>
<asrwt>  1 0.36352545E+02</asrwt>
<pdfrwt beam="1">  1        1 0.85242539E+00 0.30000000E+03</pdfrwt>
<pdfrwt beam="2">0</pdfrwt>
<totfact> 0.38323601E-04</totfact>
</mgrwt>
<clustering>
<clus scale="   36.353">  1  6  2 -1</clus>
<clus scale="  466.119">  4  5 -1 -1</clus>
<clus scale="  300.000">  1  4  2 -1</clus>
</clustering>
</event>
<event>
 6    1  0.9254630E-012  0.3000000E+03  0.7818608E-02  0.1093470E+00
          1   -1    0    0  502    0  0.00000000000E+00  0.00000000000E+00  0.22814444862E+03  0.22814444862E+03  0.00000000000E+00 0.  1.
         13   -1    0    0    0    0 -0.00000000000E+00 -0.00000000000E+00 -0.27500000000E+03  0.27500000000E+03  0.00000000000E+00 0.  1.
    9000005    2    1    2  501    0 -0.24718388666E+02 -0.27335878752E+02 -0.42531702626E+02  0.46603724347E+03  0.46262675838E+03 0.  0.
         13    1    3    3    0    0  0.18010676349E+03 -0.37311858413E+02 -0.14740441451E+03  0.23570889345E+03  0.00000000000E+00 0.  1.
          1    1    3    3  501    0 -0.20482515216E+03  0.99759796610E+01  0.10487271189E+03  0.23032835002E+03  0.00000000000E+00 0.  1.
         21    1    1    2  502  501  0.24718388666E+02  0.27335878752E+02 -0.43238487577E+01  0.37107205142E+02  0.00000000000E+00 0. -1.
<scales pt_clust_4="550.00000" pt_clust_5="550.00000" pt_clust_6="36.85445"></scales>
<mgrwt>
<rscale>  0 0.30000000E+03</rscale>
<asrwt>  1 0.36854448E+02</asrwt>
<pdfrwt beam="1">  1        1 0.82961618E+00 0.30000000E+03</pdfrwt>
<pdfrwt beam="2">0</pdfrwt>
<totfact> 0.58967030E-04</totfact>
</mgrwt>
<clustering>
<clus scale="   36.854">  1  6  2 -1</clus>
<clus scale="  462.627">  4  5 -1 -1</clus>
<clus scale="  300.000">  1  4  2 -1</clus>
</clustering>
</event>
<event>
 6    1  0.9254630E-012  0.3000000E+03  0.7818608E-02  0.1093470E+00
          1   -1    0    0  502    0  0.00000000000E+00  0.00000000000E+00  0.24187140186E+03  0.24187140186E+03  0.00000000000E+00 0.  1.
         13   -1    0    0    0    0 -0.00000000000E+00 -0.00000000000E+00 -0.27500000000E+03  0.27500000000E+03  0.00000000000E+00 0.  1.
    9000005    2    1    2  501    0  0.46621257913E+02 -0.16641767511E+02 -0.49419189787E+02  0.46475735873E+03  0.45946344366E+03 0.  0.
         13    1    3    3    0    0  0.10300156976E+02 -0.23202966033E+03 -0.76783128683E+02  0.24462114658E+03  0.00000000000E+00 0.  1.
          1    1    3    3  501    0  0.36321100937E+02  0.21538789282E+03  0.27363938896E+02  0.22013621215E+03  0.00000000000E+00 0.  1.
         21    1    1    2  502  501 -0.46621257913E+02  0.16641767511E+02  0.16290591649E+02  0.52114043131E+02  0.00000000000E+00 0.  1.
<scales pt_clust_4="550.00000" pt_clust_5="550.00000" pt_clust_6="49.50243"></scales>
<mgrwt>
<rscale>  0 0.30000000E+03</rscale>
<asrwt>  1 0.49502425E+02</asrwt>
<pdfrwt beam="1">  1        1 0.87953237E+00 0.30000000E+03</pdfrwt>
<pdfrwt beam="2">0</pdfrwt>
<totfact> 0.18781482E-04</totfact>
</mgrwt>
<clustering>
<clus scale="   49.502">  1  6  2 -1</clus>
<clus scale="  459.463">  4  5 -1 -1</clus>
<clus scale="  300.000">  1  4  2 -1</clus>
</clustering>
</event>
<event>
 6    1  0.9254630E-012  0.3000000E+03  0.7818608E-02  0.1093470E+00
          1   -1    0    0  502    0  0.00000000000E+00  0.00000000000E+00  0.24633595488E+03  0.24633595488E+03  0.00000000000E+00 0.  1.
         13   -1    0    0    0    0 -0.00000000000E+00 -0.00000000000E+00 -0.27500000000E+03  0.27500000000E+03  0.00000000000E+00 0.  1.
    9000005    2    1    2  501    0 -0.30950780937E+02  0.20071814424E+01 -0.52088081308E+02  0.48246867958E+03  0.47864483591E+03 0.  0.
         13    1    3    3    0    0 -0.66490676321E+02  0.19953655054E+03 -0.15080769456E+03  0.25880263866E+03  0.00000000000E+00 0.  1.
          3    1    3    3  501    0  0.35539895384E+02 -0.19752936910E+03  0.98719613250E+02  0.22366604092E+03  0.00000000000E+00 0.  1.
         21    1    1    2  502  501  0.30950780937E+02 -0.20071814424E+01  0.23424036185E+02  0.38867275299E+02  0.00000000000E+00 0.  1.
<scales pt_clust_4="550.00000" pt_clust_5="550.00000" pt_clust_6="31.01580"></scales>
<mgrwt>
<rscale>  0 0.30000000E+03</rscale>
<asrwt>  1 0.31015796E+02</asrwt>
<pdfrwt beam="1">  1        1 0.89576711E+00 0.30000000E+03</pdfrwt>
<pdfrwt beam="2">0</pdfrwt>
<totfact> 0.12648657E-04</totfact>
</mgrwt>
<clustering>
<clus scale="   31.016">  1  6  2 -1</clus>
<clus scale="  478.645">  4  5 -1 -1</clus>
<clus scale="  300.000">  1  4  2 -1</clus>
</clustering>
</event>
<event>
 6    1  0.9254630E-012  0.3000000E+03  0.7818608E-02  0.1093470E+00
          1   -1    0    0  502    0  0.00000000000E+00  0.00000000000E+00  0.24181990682E+03  0.24181990682E+03  0.00000000000E+00 0.  1.
         13   -1    0    0    0    0 -0.00000000000E+00 -0.00000000000E+00 -0.27500000000E+03  0.27500000000E+03  0.00000000000E+00 0.  1.
    9000005    2    1    2  501    0  0.13252046500E+00 -0.30950959914E+02 -0.63374088233E+02  0.47358037839E+03  0.46829917815E+03 0.  0.
         13    1    3    3    0    0  0.16341627977E+03  0.58411418543E+02  0.12102016351E+03  0.21157186553E+03  0.00000000000E+00 0.  1.
          1    1    3    3  501    0 -0.16328375930E+03 -0.89362378456E+02 -0.18439425174E+03  0.26200851286E+03  0.00000000000E+00 0.  1.
         21    1    1    2  502  501 -0.13252046500E+00  0.30950959914E+02  0.30193995052E+02  0.43239528425E+02  0.00000000000E+00 0.  1.
<scales pt_clust_4="550.00000" pt_clust_5="550.00000" pt_clust_6="30.95124"></scales>
<mgrwt>
<rscale>  0 0.30000000E+03</rscale>
<asrwt>  1 0.30951244E+02</asrwt>
<pdfrwt beam="1">  1        1 0.87934512E+00 0.30000000E+03</pdfrwt>
<pdfrwt beam="2">0</pdfrwt>
<totfact> 0.20576980E-04</totfact>
</mgrwt>
<clustering>
<clus scale="   30.951">  1  6  2 -1</clus>
<clus scale="  468.299">  4  5 -1 -1</clus>
<clus scale="  300.000">  1  4  2 -1</clus>
</clustering>
</event>
<event>
 6    1  0.9254630E-012  0.3000000E+03  0.7818608E-02  0.1093470E+00
          1   -1    0    0  502    0  0.00000000000E+00  0.00000000000E+00  0.26274076390E+03  0.26274076390E+03  0.00000000000E+00 0.  1.
         13   -1    0    0    0    0 -0.00000000000E+00 -0.00000000000E+00 -0.27500000000E+03  0.27500000000E+03  0.00000000000E+00 0.  1.
    9000005    2    1    2  501    0 -0.25429739244E+02  0.16957602797E+02 -0.60405528979E+02  0.48071184625E+03  0.47592102208E+03 0.  0.
         13    1    3    3    0    0  0.17004049577E+02 -0.88330289067E+02  0.18755052600E+03  0.20800619576E+03  0.00000000000E+00 0.  1.
          3    1    3    3  501    0 -0.42433788821E+02  0.10528789186E+03 -0.24795605498E+03  0.27270565049E+03  0.00000000000E+00 0.  1.
         21    1    1    2  502  501  0.25429739244E+02 -0.16957602797E+02  0.48146292877E+02  0.57028917651E+02  0.00000000000E+00 0. -1.
<scales pt_clust_4="550.00000" pt_clust_5="550.00000" pt_clust_6="30.56521"></scales>
<mgrwt>
<rscale>  0 0.30000000E+03</rscale>
<asrwt>  1 0.30565208E+02</asrwt>
<pdfrwt beam="1">  1        1 0.95542096E+00 0.30000000E+03</pdfrwt>
<pdfrwt beam="2">0</pdfrwt>
<totfact> 0.97571283E-06</totfact>
</mgrwt>
<clustering>
<clus scale="   30.565">  1  6  2 -1</clus>
<clus scale="  475.921">  4  5 -1 -1</clus>
<clus scale="  300.000">  1  4  2 -1</clus>
</clustering>
</event>
<event>
 6    1  0.9254630E-012  0.3000000E+03  0.7818608E-02  0.1093470E+00
          1   -1    0    0  502    0  0.00000000000E+00  0.00000000000E+00  0.24144336966E+03  0.24144336966E+03  0.00000000000E+00 0.  1.
         13   -1    0    0    0    0 -0.00000000000E+00 -0.00000000000E+00 -0.27500000000E+03  0.27500000000E+03  0.00000000000E+00 0.  1.
    9000005    2    1    2  501    0  0.15765481424E+02  0.31386160912E+02 -0.11453454569E+02  0.47494406989E+03  0.47350506481E+03 0.  0.
         13    1    3    3    0    0 -0.63119726040E+02 -0.62915997840E+02 -0.21747422706E+03  0.23502672621E+03  0.00000000000E+00 0.  1.
          3    1    3    3  501    0  0.78885207465E+02  0.94302158751E+02  0.20602077249E+03  0.23991734368E+03  0.00000000000E+00 0.  1.
         21    1    1    2  502  501 -0.15765481424E+02 -0.31386160912E+02 -0.22103175776E+02  0.41499299761E+02  0.00000000000E+00 0.  1.
<scales pt_clust_4="550.00000" pt_clust_5="550.00000" pt_clust_6="35.12325"></scales>
<mgrwt>
<rscale>  0 0.30000000E+03</rscale>
<asrwt>  1 0.35123251E+02</asrwt>
<pdfrwt beam="1">  1        1 0.87797589E+00 0.30000000E+03</pdfrwt>
<pdfrwt beam="2">0</pdfrwt>
<totfact> 0.20849711E-04</totfact>
</mgrwt>
<clustering>
<clus scale="   35.123">  1  6  2 -1</clus>
<clus scale="  473.505">  4  5 -1 -1</clus>
<clus scale="  300.000">  1  4  2 -1</clus>
</clustering>
</event>
<event>
 6    1  0.9254630E-012  0.3000000E+03  0.7818608E-02  0.1093470E+00
          1   -1    0    0  502    0  0.00000000000E+00  0.00000000000E+00  0.23103415669E+03  0.23103415669E+03  0.00000000000E+00 0.  1.
         13   -1    0    0    0    0 -0.00000000000E+00 -0.00000000000E+00 -0.27500000000E+03  0.27500000000E+03  0.00000000000E+00 0.  1.
    9000005    2    1    2  501    0  0.38852552072E+02  0.76582815437E+01 -0.42775229109E+02  0.46641613502E+03  0.46275924702E+03 0.  0.
         13    1    3    3    0    0 -0.78642320655E+02 -0.92361080765E+02 -0.20772172648E+03  0.24054833088E+03  0.00000000000E+00 0.  1.
          3    1    3    3  501    0  0.11749487273E+03  0.10001936231E+03  0.16494649737E+03  0.22586780414E+03  0.00000000000E+00 0.  1.
         21    1    1    2  502  501 -0.38852552072E+02 -0.76582815437E+01 -0.11906142005E+01  0.39618021668E+02  0.00000000000E+00 0.  1.
<scales pt_clust_4="550.00000" pt_clust_5="550.00000" pt_clust_6="39.60013"></scales>
<mgrwt>
<rscale>  0 0.30000000E+03</rscale>
<asrwt>  1 0.39600127E+02</asrwt>
<pdfrwt beam="1">  1        1 0.84012421E+00 0.30000000E+03</pdfrwt>
<pdfrwt beam="2">0</pdfrwt>
<totfact> 0.48475369E-04</totfact>
</mgrwt>
<clustering>
<clus scale="   39.600">  1  6  2 -1</clus>
<clus scale="  462.759">  4  5 -1 -1</clus>
<clus scale="  300.000">  1  4  2 -1</clus>
</clustering>
</event>
<event>
 6    1  0.9254630E-012  0.3000000E+03  0.7818608E-02  0.1093470E+00
          1   -1    0    0  502    0  0.00000000000E+00  0.00000000000E+00  0.22960467050E+03  0.22960467050E+03  0.00000000000E+00 0.  1.
         13   -1    0    0    0    0 -0.00000000000E+00 -0.00000000000E+00 -0.27500000000E+03  0.27500000000E+03  0.00000000000E+00 0.  1.
    9000005    2    1    2  501    0  0.32523767467E+02 -0.17208930975E+01 -0.26042364684E+02  0.46671939407E+03  0.46485269830E+03 0.  0.
         13    1    3    3    0    0 -0.19980765145E+03 -0.28539673231E+02  0.70371283264E+02  0.21375155680E+03  0.00000000000E+00 0.  1.
          1    1    3    3  501    0  0.23233141892E+03  0.26818780133E+02 -0.96413647948E+02  0.25296783727E+03  0.00000000000E+00 0.  1.
         21    1    1    2  502  501 -0.32523767467E+02  0.17208930975E+01 -0.19352964813E+02  0.37885276433E+02  0.00000000000E+00 0.  1.
<scales pt_clust_4="550.00000" pt_clust_5="550.00000" pt_clust_6="32.56928"></scales>
<mgrwt>
<rscale>  0 0.30000000E+03</rscale>
<asrwt>  1 0.32569280E+02</asrwt>
<pdfrwt beam="1">  1        1 0.83492607E+00 0.30000000E+03</pdfrwt>
<pdfrwt beam="2">0</pdfrwt>
<totfact> 0.54905338E-04</totfact>
</mgrwt>
<clustering>
<clus scale="   32.569">  1  6  2 -1</clus>
<clus scale="  464.853">  4  5 -1 -1</clus>
<clus scale="  300.000">  1  4  2 -1</clus>
</clustering>
</event>
<event>
 6    1  0.9254630E-012  0.3000000E+03  0.7818608E-02  0.1093470E+00
          1   -1    0    0  502    0  0.00000000000E+00  0.00000000000E+00  0.22300734902E+03  0.22300734902E+03  0.00000000000E+00 0.  1.
         13   -1    0    0    0    0 -0.00000000000E+00 -0.00000000000E+00 -0.27500000000E+03  0.27500000000E+03  0.00000000000E+00 0.  1.
    9000005    2    1    2  501    0  0.75890329094E+01  0.30445920517E+02 -0.60017429676E+02  0.46561993527E+03  0.46066830231E+03 0.  0.
         13    1    3    3    0    0  0.23043054637E+03  0.49100569434E+02 -0.55021796073E+02  0.24194317652E+03  0.00000000000E+00 0.  1.
          1    1    3    3  501    0 -0.22284151346E+03 -0.18654648917E+02 -0.49956336026E+01  0.22367675875E+03  0.00000000000E+00 0.  1.
         21    1    1    2  502  501 -0.75890329094E+01 -0.30445920517E+02  0.80247787000E+01  0.32387413756E+02  0.00000000000E+00 0.  1.
<scales pt_clust_4="550.00000" pt_clust_5="550.00000" pt_clust_6="31.37750"></scales>
<mgrwt>
<rscale>  0 0.30000000E+03</rscale>
<asrwt>  1 0.31377500E+02</asrwt>
<pdfrwt beam="1">  1        1 0.81093581E+00 0.30000000E+03</pdfrwt>
<pdfrwt beam="2">0</pdfrwt>
<totfact> 0.87546114E-04</totfact>
</mgrwt>
<clustering>
<clus scale="   31.377">  1  6  2 -1</clus>
<clus scale="  460.668">  4  5 -1 -1</clus>
<clus scale="  300.000">  1  4  2 -1</clus>
</clustering>
</event>
<event>
 6    1  0.9254630E-012  0.3000000E+03  0.7818608E-02  0.1093470E+00
          1   -1    0    0  502    0  0.00000000000E+00  0.00000000000E+00  0.23770556796E+03  0.23770556796E+03  0.00000000000E+00 0.  1.
         13   -1    0    0    0    0 -0.00000000000E+00 -0.00000000000E+00 -0.27500000000E+03  0.27500000000E+03  0.00000000000E+00 0.  1.
    9000005    2    1    2  501    0  0.19301503748E+02 -0.22979355645E+02 -0.74344847546E+02  0.46502609521E+03  0.45806278394E+03 0.  0.
         13    1    3    3    0    0  0.20090247085E+03  0.12275092823E+02  0.87269604606E+02  0.21938200606E+03  0.00000000000E+00 0.  1.
          1    1    3    3  501    0 -0.18160096710E+03 -0.35254448468E+02 -0.16161445215E+03  0.24564408914E+03  0.00000000000E+00 0.  1.
         21    1    1    2  502  501 -0.19301503748E+02  0.22979355645E+02  0.37050415501E+02  0.47679472749E+02  0.00000000000E+00 0.  1.
<scales pt_clust_4="550.00000" pt_clust_5="550.00000" pt_clust_6="30.00998"></scales>
<mgrwt>
<rscale>  0 0.30000000E+03</rscale>
<asrwt>  1 0.30009979E+02</asrwt>
<pdfrwt beam="1">  1        1 0.86438388E+00 0.30000000E+03</pdfrwt>
<pdfrwt beam="2">0</pdfrwt>
<totfact> 0.29869733E-04</totfact>
</mgrwt>
<clustering>
<clus scale="   30.010">  1  6  2 -1</clus>
<clus scale="  458.063">  4  5 -1 -1</clus>
<clus scale="  300.000">  1  4  2 -1</clus>
</clustering>
</event>
<event>
 6    1  0.9254630E-012  0.3000000E+03  0.7818608E-02  0.1093470E+00
          1   -1    0    0  502    0  0.00000000000E+00  0.00000000000E+00  0.24949115256E+03  0.24949115256E+03  0.00000000000E+00 0.  1.
         13   -1    0    0    0    0 -0.00000000000E+00 -0.00000000000E+00 -0.27500000000E+03  0.27500000000E+03  0.00000000000E+00 0.  1.
    9000005    2    1    2  501    0  0.34948114624E+02 -0.21835402478E+02 -0.44981691956E+02  0.47891322818E+03  0.47501197037E+03 0.  0.
         13    1    3    3    0    0 -0.50933454514E+02 -0.80251985529E+02 -0.23990251326E+03  0.25804614672E+03  0.00000000000E+00 0.  1.
          1    1    3    3  501    0  0.85881569138E+02  0.58416583051E+02  0.19492082130E+03  0.22086708146E+03  0.00000000000E+00 0.  1.
         21    1    1    2  502  501 -0.34948114624E+02  0.21835402478E+02  0.19472844512E+02  0.45577924377E+02  0.00000000000E+00 0. -1.
<scales pt_clust_4="550.00000" pt_clust_5="550.00000" pt_clust_6="41.20868"></scales>
<mgrwt>
<rscale>  0 0.30000000E+03</rscale>
<asrwt>  1 0.41208683E+02</asrwt>
<pdfrwt beam="1">  1        1 0.90724055E+00 0.30000000E+03</pdfrwt>
<pdfrwt beam="2">0</pdfrwt>
<totfact> 0.80773973E-05</totfact>
</mgrwt>
<clustering>
<clus scale="   41.209">  1  6  2 -1</clus>
<clus scale="  475.012">  4  5 -1 -1</clus>
<clus scale="  300.000">  1  4  2 -1</clus>
</clustering>
</event>
<event>
 6    1  0.9254630E-012  0.3000000E+03  0.7818608E-02  0.1093470E+00
          1   -1    0    0  502    0  0.00000000000E+00  0.00000000000E+00  0.24044325810E+03  0.24044325810E+03  0.00000000000E+00 0.  1.
         13   -1    0    0    0    0 -0.00000000000E+00 -0.00000000000E+00 -0.27500000000E+03  0.27500000000E+03  0.00000000000E+00 0.  1.
    9000005    2    1    2  501    0  0.39727338116E+02  0.65491962126E+00 -0.25126890401E+02  0.47460684772E+03  0.47227281201E+03 0.  0.
         13    1    3    3    0    0  0.14580458215E+03 -0.11110864360E+03  0.15321918253E+03  0.23891468091E+03  0.00000000000E+00 0.  1.
          1    1    3    3  501    0 -0.10607724403E+03  0.11176356322E+03 -0.17834607293E+03  0.23569216681E+03  0.00000000000E+00 0.  1.
         21    1    1    2  502  501 -0.39727338116E+02 -0.65491962126E+00 -0.94298515009E+01  0.40836410381E+02  0.00000000000E+00 0.  1.
<scales pt_clust_4="550.00000" pt_clust_5="550.00000" pt_clust_6="39.73276"></scales>
<mgrwt>
<rscale>  0 0.30000000E+03</rscale>
<asrwt>  1 0.39732756E+02</asrwt>
<pdfrwt beam="1">  1        1 0.87433912E+00 0.30000000E+03</pdfrwt>
<pdfrwt beam="2">0</pdfrwt>
<totfact> 0.22325955E-04</totfact>
</mgrwt>
<clustering>
<clus scale="   39.733">  1  6  2 -1</clus>
<clus scale="  472.273">  4  5 -1 -1</clus>
<clus scale="  300.000">  1  4  2 -1</clus>
</clustering>
</event>
<event>
 6    1  0.9254630E-012  0.3000000E+03  0.7818608E-02  0.1093470E+00
          1   -1    0    0  502    0  0.00000000000E+00  0.00000000000E+00  0.23535398363E+03  0.23535398363E+03  0.00000000000E+00 0.  1.
         13   -1    0    0    0    0 -0.00000000000E+00 -0.00000000000E+00 -0.27500000000E+03  0.27500000000E+03  0.00000000000E+00 0.  1.
    9000005    2    1    2  501    0  0.11031896501E+02  0.38544899616E+02 -0.60201302168E+02  0.46529921916E+03  0.45964307299E+03 0.  0.
         13    1    3    3    0    0 -0.22365118696E+03  0.10477515085E+02 -0.45601854457E+02  0.22849324034E+03  0.00000000000E+00 0.  1.
          3    1    3    3  501    0  0.23468308346E+03  0.28067384531E+02 -0.14599447711E+02  0.23680597883E+03  0.00000000000E+00 0.  1.
         21    1    1    2  502  501 -0.11031896501E+02 -0.38544899616E+02  0.20555285794E+02  0.45054764464E+02  0.00000000000E+00 0. -1.
<scales pt_clust_4="550.00000" pt_clust_5="550.00000" pt_clust_6="40.09254"></scales>
<mgrwt>
<rscale>  0 0.30000000E+03</rscale>
<asrwt>  1 0.40092543E+02</asrwt>
<pdfrwt beam="1">  1        1 0.85583267E+00 0.30000000E+03</pdfrwt>
<pdfrwt beam="2">0</pdfrwt>
<totfact> 0.34856346E-04</totfact>
</mgrwt>
<clustering>
<clus scale="   40.093">  1  6  2 -1</clus>
<clus scale="  459.643">  4  5 -1 -1</clus>
<clus scale="  300.000">  1  4  2 -1</clus>
</clustering>
</event>
<event>
 6    1  0.9254630E-012  0.3000000E+03  0.7818608E-02  0.1093470E+00
          1   -1    0    0  502    0  0.00000000000E+00  0.00000000000E+00  0.23471491493E+03  0.23471491493E+03  0.00000000000E+00 0.  1.
         13   -1    0    0    0    0 -0.00000000000E+00 -0.00000000000E+00 -0.27500000000E+03  0.27500000000E+03  0.00000000000E+00 0.  1.
    9000005    2    1    2  501    0  0.48894880344E+01 -0.37610160685E+02 -0.65913740017E+02  0.46394091320E+03  0.45766594645E+03 0.  0.
         13    1    3    3    0    0  0.11692827887E+02 -0.23923445581E+03 -0.99610160224E+02  0.25940707602E+03  0.00000000000E+00 0.  1.
          3    1    3    3  501    0 -0.68033398531E+01  0.20162429512E+03  0.33696420207E+02  0.20453383718E+03  0.00000000000E+00 0.  1.
         21    1    1    2  502  501 -0.48894880344E+01  0.37610160685E+02  0.25628654952E+02  0.45774001732E+02  0.00000000000E+00 0.  1.
<scales pt_clust_4="550.00000" pt_clust_5="550.00000" pt_clust_6="37.92666"></scales>
<mgrwt>
<rscale>  0 0.30000000E+03</rscale>
<asrwt>  1 0.37926657E+02</asrwt>
<pdfrwt beam="1">  1        1 0.85350878E+00 0.30000000E+03</pdfrwt>
<pdfrwt beam="2">0</pdfrwt>
<totfact> 0.37119805E-04</totfact>
</mgrwt>
<clustering>
<clus scale="   37.927">  1  6  2 -1</clus>
<clus scale="  457.666">  4  5 -1 -1</clus>
<clus scale="  300.000">  1  4  2 -1</clus>
</clustering>
</event>
<event>
 6    1  0.9254630E-012  0.3000000E+03  0.7818608E-02  0.1093470E+00
          1   -1    0    0  502    0  0.00000000000E+00  0.00000000000E+00  0.22974458454E+03  0.22974458454E+03  0.00000000000E+00 0.  1.
         13   -1    0    0    0    0 -0.00000000000E+00 -0.00000000000E+00 -0.27500000000E+03  0.27500000000E+03  0.00000000000E+00 0.  1.
    9000005    2    1    2  501    0 -0.14577477137E+02  0.29266207931E+02 -0.37976286270E+02  0.47124832373E+03  0.46857632306E+03 0.  0.
         13    1    3    3    0    0 -0.15428359255E+03 -0.87027012261E+02  0.13314804154E+03  0.22159767319E+03  0.00000000000E+00 0.  1.
          1    1    3    3  501    0  0.13970611542E+03  0.11629322019E+03 -0.17112432781E+03  0.24965065054E+03  0.00000000000E+00 0.  1.
         21    1    1    2  502  501  0.14577477137E+02 -0.29266207931E+02 -0.72791291912E+01  0.33496260808E+02  0.00000000000E+00 0.  1.
<scales pt_clust_4="550.00000" pt_clust_5="550.00000" pt_clust_6="32.69579"></scales>
<mgrwt>
<rscale>  0 0.30000000E+03</rscale>
<asrwt>  1 0.32695792E+02</asrwt>
<pdfrwt beam="1">  1        1 0.83543485E+00 0.30000000E+03</pdfrwt>
<pdfrwt beam="2">0</pdfrwt>
<totfact> 0.54398562E-04</totfact>
</mgrwt>
<clustering>
<clus scale="   32.696">  1  6  2 -1</clus>
<clus scale="  468.576">  4  5 -1 -1</clus>
<clus scale="  300.000">  1  4  2 -1</clus>
</clustering>
</event>
<event>
 6    1  0.9254630E-012  0.3000000E+03  0.7818608E-02  0.1093470E+00
          1   -1    0    0  502    0  0.00000000000E+00  0.00000000000E+00  0.26567135274E+03  0.26567135274E+03  0.00000000000E+00 0.  1.
         13   -1    0    0    0    0 -0.00000000000E+00 -0.00000000000E+00 -0.27500000000E+03  0.27500000000E+03  0.00000000000E+00 0.  1.
    9000005    2    1    2  501    0  0.99228181473E+01  0.30010655987E+02 -0.72115742871E+02  0.47037682117E+03  0.46373976726E+03 0.  0.
         13    1    3    3    0    0 -0.80658054407E+01  0.16775376964E+03  0.13876272632E+03  0.21785655524E+03  0.00000000000E+00 0.  1.
          1    1    3    3  501    0  0.17988623588E+02 -0.13774311366E+03 -0.21087846919E+03  0.25252026593E+03  0.00000000000E+00 0.  1.
         21    1    1    2  502  501 -0.99228181473E+01 -0.30010655987E+02  0.62787095608E+02  0.70294531563E+02  0.00000000000E+00 0. -1.
<scales pt_clust_4="550.00000" pt_clust_5="550.00000" pt_clust_6="31.60857"></scales>
<mgrwt>
<rscale>  0 0.30000000E+03</rscale>
<asrwt>  1 0.31608572E+02</asrwt>
<pdfrwt beam="1">  1        1 0.96607765E+00 0.30000000E+03</pdfrwt>
<pdfrwt beam="2">0</pdfrwt>
<totfact> 0.58049873E-06</totfact>
</mgrwt>
<clustering>
<clus scale="   31.609">  1  6  2 -1</clus>
<clus scale="  463.740">  4  5 -1 -1</clus>
<clus scale="  300.000">  1  4  2 -1</clus>
</clustering>
</event>
<event>
 6    1  0.9254630E-012  0.3000000E+03  0.7818608E-02  0.1093470E+00
          1   -1    0    0  502    0  0.00000000000E+00  0.00000000000E+00  0.23613222510E+03  0.23613222510E+03  0.00000000000E+00 0.  1.
         13   -1    0    0    0    0 -0.00000000000E+00 -0.00000000000E+00 -0.27500000000E+03  0.27500000000E+03  0.00000000000E+00 0.  1.
    9000005    2    1    2  501    0 -0.46271756447E+02  0.30575409300E+01 -0.51776364497E+02  0.46299642048E+03  0.45774935221E+03 0.  0.
         13    1    3    3    0    0 -0.23262074043E+03  0.94720013158E+02 -0.45330432586E+02  0.25522370166E+03  0.00000000000E+00 0.  1.
          1    1    3    3  501    0  0.18634898398E+03 -0.91662472228E+02 -0.64459319112E+01  0.20777271882E+03  0.00000000000E+00 0.  1.
         21    1    1    2  502  501  0.46271756447E+02 -0.30575409300E+01  0.12908589595E+02  0.48135804621E+02  0.00000000000E+00 0. -1.
<scales pt_clust_4="550.00000" pt_clust_5="550.00000" pt_clust_6="46.37266"></scales>
<mgrwt>
<rscale>  0 0.30000000E+03</rscale>
<asrwt>  1 0.46372664E+02</asrwt>
<pdfrwt beam="1">  1        1 0.85866264E+00 0.30000000E+03</pdfrwt>
<pdfrwt beam="2">0</pdfrwt>
<totfact> 0.31748520E-04</totfact>
</mgrwt>
<clustering>
<clus scale="   46.373">  1  6  2 -1</clus>
<clus scale="  457.749">  4  5 -1 -1</clus>
<clus scale="  300.000">  1  4  2 -1</clus>
</clustering>
</event>
<event>
 6    1  0.9254630E-012  0.3000000E+03  0.7818608E-02  0.1093470E+00
          1   -1    0    0  502    0  0.00000000000E+00  0.00000000000E+00  0.23265168433E+03  0.23265168433E+03  0.00000000000E+00 0.  1.
         13   -1    0    0    0    0 -0.00000000000E+00 -0.00000000000E+00 -0.27500000000E+03  0.27500000000E+03  0.00000000000E+00 0.  1.
    9000005    2    1    2  501    0 -0.33223824871E+02 -0.34072585481E+01 -0.70009554994E+02  0.46428607456E+03  0.45776062444E+03 0.  0.
         13    1    3    3    0    0 -0.11722075588E+03  0.39457110931E+02 -0.23994052555E+03  0.26994263282E+03  0.00000000000E+00 0.  1.
          3    1    3    3  501    0  0.83996931009E+02 -0.42864369480E+02  0.16993097056E+03  0.19434344174E+03  0.00000000000E+00 0.  1.
         21    1    1    2  502  501  0.33223824871E+02  0.34072585481E+01  0.27661239322E+02  0.43365609770E+02  0.00000000000E+00 0. -1.
<scales pt_clust_4="550.00000" pt_clust_5="550.00000" pt_clust_6="33.39808"></scales>
<mgrwt>
<rscale>  0 0.30000000E+03</rscale>
<asrwt>  1 0.33398083E+02</asrwt>
<pdfrwt beam="1">  1        1 0.84600612E+00 0.30000000E+03</pdfrwt>
<pdfrwt beam="2">0</pdfrwt>
<totfact> 0.44660754E-04</totfact>
</mgrwt>
<clustering>
<clus scale="   33.398">  1  6  2 -1</clus>
<clus scale="  457.761">  4  5 -1 -1</clus>
<clus scale="  300.000">  1  4  2 -1</clus>
</clustering>
</event>
<event>
 6    1  0.9254630E-012  0.3000000E+03  0.7818608E-02  0.1093470E+00
          1   -1    0    0  502    0  0.00000000000E+00  0.00000000000E+00  0.23763233417E+03  0.23763233417E+03  0.00000000000E+00 0.  1.
         13   -1    0    0    0    0 -0.00000000000E+00 -0.00000000000E+00 -0.27500000000E+03  0.27500000000E+03  0.00000000000E+00 0.  1.
    9000005    2    1    2  501    0 -0.70804186468E+01  0.31112499213E+02 -0.48154927639E+02  0.47895021796E+03  0.47545377724E+03 0.  0.
         13    1    3    3    0    0  0.18023605545E+02  0.53649893177E+02  0.21056576922E+03  0.21803922712E+03  0.00000000000E+00 0.  1.
          3    1    3    3  501    0 -0.25104024192E+02 -0.22537393964E+02 -0.25872069686E+03  0.26091099084E+03  0.00000000000E+00 0.  1.
         21    1    1    2  502  501  0.70804186468E+01 -0.31112499213E+02  0.10787261813E+02  0.33682116218E+02  0.00000000000E+00 0.  1.
<scales pt_clust_4="550.00000" pt_clust_5="550.00000" pt_clust_6="31.90799"></scales>
<mgrwt>
<rscale>  0 0.30000000E+03</rscale>
<asrwt>  1 0.31907992E+02</asrwt>
<pdfrwt beam="1">  1        1 0.86411758E+00 0.30000000E+03</pdfrwt>
<pdfrwt beam="2">0</pdfrwt>
<totfact> 0.29717174E-04</totfact>
</mgrwt>
<clustering>
<clus scale="   31.908">  1  6  2 -1</clus>
<clus scale="  475.454">  4  5 -1 -1</clus>
<clus scale="  300.000">  1  4  2 -1</clus>
</clustering>
</event>
<event>
 6    1  0.9254630E-012  0.3000000E+03  0.7818608E-02  0.1093470E+00
          1   -1    0    0  502    0  0.00000000000E+00  0.00000000000E+00  0.23693109330E+03  0.23693109330E+03  0.00000000000E+00 0.  1.
         13   -1    0    0    0    0 -0.00000000000E+00 -0.00000000000E+00 -0.27500000000E+03  0.27500000000E+03  0.00000000000E+00 0.  1.
    9000005    2    1    2  501    0 -0.28077836915E+02  0.11153988910E+02 -0.34467314882E+02  0.48150498842E+03  0.47931855971E+03 0.  0.
         13    1    3    3    0    0 -0.17652995856E+03  0.65934385675E+02 -0.18430113869E+03  0.26358505118E+03  0.00000000000E+00 0.  1.
          3    1    3    3  501    0  0.14845212164E+03 -0.54780396765E+02  0.14983382381E+03  0.21791993724E+03  0.00000000000E+00 0.  1.
         21    1    1    2  502  501  0.28077836915E+02 -0.11153988910E+02 -0.36015918195E+01  0.30426104879E+02  0.00000000000E+00 0. -1.
<scales pt_clust_4="550.00000" pt_clust_5="550.00000" pt_clust_6="30.21220"></scales>
<mgrwt>
<rscale>  0 0.30000000E+03</rscale>
<asrwt>  1 0.30212205E+02</asrwt>
<pdfrwt beam="1">  1        1 0.86156761E+00 0.30000000E+03</pdfrwt>
<pdfrwt beam="2">0</pdfrwt>
<totfact> 0.31997671E-04</totfact>
</mgrwt>
<clustering>
<clus scale="   30.212">  1  6  2 -1</clus>
<clus scale="  479.319">  4  5 -1 -1</clus>
<clus scale="  300.000">  1  4  2 -1</clus>
</clustering>
</event>
<event>
 6    1  0.9254630E-012  0.3000000E+03  0.7818608E-02  0.1093470E+00
          1   -1    0    0  502    0  0.00000000000E+00  0.00000000000E+00  0.22606668414E+03  0.22606668414E+03  0.00000000000E+00 0.  1.
         13   -1    0    0    0    0 -0.00000000000E+00 -0.00000000000E+00 -0.27500000000E+03  0.27500000000E+03  0.00000000000E+00 0.  1.
    9000005    2    1    2  501    0  0.29210825123E+02 -0.15293724969E+02 -0.54856043603E+02  0.46756669860E+03  0.46316547992E+03 0.  0.
         13    1    3    3    0    0  0.15594426662E+03  0.17544704311E+03 -0.39625021185E+02  0.23805550095E+03  0.00000000000E+00 0.  1.
          3    1    3    3  501    0 -0.12673344150E+03 -0.19074076808E+03 -0.15231022418E+02  0.22951119765E+03  0.00000000000E+00 0.  1.
         21    1    1    2  502  501 -0.29210825123E+02  0.15293724969E+02  0.59227277475E+01  0.33499985549E+02  0.00000000000E+00 0. -1.
<scales pt_clust_4="550.00000" pt_clust_5="550.00000" pt_clust_6="32.97227"></scales>
<mgrwt>
<rscale>  0 0.30000000E+03</rscale>
<asrwt>  1 0.32972266E+02</asrwt>
<pdfrwt beam="1">  1        1 0.82206067E+00 0.30000000E+03</pdfrwt>
<pdfrwt beam="2">0</pdfrwt>
<totfact> 0.70164078E-04</totfact>
</mgrwt>
<clustering>
<clus scale="   32.972">  1  6  2 -1</clus>
<clus scale="  463.165">  4  5 -1 -1</clus>
<clus scale="  300.000">  1  4  2 -1</clus>
</clustering>
</event>
<event>
 6    1  0.9254630E-012  0.3000000E+03  0.7818608E-02  0.1093470E+00
          1   -1    0    0  502    0  0.00000000000E+00  0.00000000000E+00  0.23003024444E+03  0.23003024444E+03  0.00000000000E+00 0.  1.
         13   -1    0    0    0    0 -0.00000000000E+00 -0.00000000000E+00 -0.27500000000E+03  0.27500000000E+03  0.00000000000E+00 0.  1.
    9000005    2    1    2  501    0 -0.59282858222E+01  0.37409044179E+02 -0.26547410918E+02  0.46291179312E+03  0.46059524750E+03 0.  0.
         13    1    3    3    0    0  0.10901784625E+03  0.23822636840E+00 -0.21384682662E+03  0.24003210787E+03  0.00000000000E+00 0.  1.
          3    1    3    3  501    0 -0.11494613207E+03  0.37170817811E+02  0.18729941570E+03  0.22287968525E+03  0.00000000000E+00 0.  1.
         21    1    1    2  502  501  0.59282858222E+01 -0.37409044179E+02 -0.18422344646E+02  0.42118451318E+02  0.00000000000E+00 0. -1.
<scales pt_clust_4="550.00000" pt_clust_5="550.00000" pt_clust_6="37.87588"></scales>
<mgrwt>
<rscale>  0 0.30000000E+03</rscale>
<asrwt>  1 0.37875884E+02</asrwt>
<pdfrwt beam="1">  1        1 0.83647362E+00 0.30000000E+03</pdfrwt>
<pdfrwt beam="2">0</pdfrwt>
<totfact> 0.52012958E-04</totfact>
</mgrwt>
<clustering>
<clus scale="   37.876">  1  6  2 -1</clus>
<clus scale="  460.595">  4  5 -1 -1</clus>
<clus scale="  300.000">  1  4  2 -1</clus>
</clustering>
</event>
<event>
 6    1  0.9254630E-012  0.3000000E+03  0.7818608E-02  0.1093470E+00
          1   -1    0    0  502    0  0.00000000000E+00  0.00000000000E+00  0.23999507523E+03  0.23999507523E+03  0.00000000000E+00 0.  1.
         13   -1    0    0    0    0 -0.00000000000E+00 -0.00000000000E+00 -0.27500000000E+03  0.27500000000E+03  0.00000000000E+00 0.  1.
    9000005    2    1    2  501    0 -0.98366732663E+01 -0.29460378819E+02 -0.59248821012E+02  0.47559405283E+03  0.47086580491E+03 0.  0.
         13    1    3    3    0    0 -0.22724663654E+03  0.39605122853E+02 -0.85422513735E+02  0.24598090460E+03  0.00000000000E+00 0.  1.
          1    1    3    3  501    0  0.21740996327E+03 -0.69065501672E+02  0.26173692723E+02  0.22961314823E+03  0.00000000000E+00 0.  1.
         21    1    1    2  502  501  0.98366732663E+01  0.29460378819E+02  0.24243896237E+02  0.39401022396E+02  0.00000000000E+00 0. -1.
<scales pt_clust_4="550.00000" pt_clust_5="550.00000" pt_clust_6="31.05920"></scales>
<mgrwt>
<rscale>  0 0.30000000E+03</rscale>
<asrwt>  1 0.31059203E+02</asrwt>
<pdfrwt beam="1">  1        1 0.87270936E+00 0.30000000E+03</pdfrwt>
<pdfrwt beam="2">0</pdfrwt>
<totfact> 0.24303821E-04</totfact>
</mgrwt>
<clustering>
<clus scale="   31.059">  1  6  2 -1</clus>
<clus scale="  470.866">  4  5 -1 -1</clus>
<clus scale="  300.000">  1  4  2 -1</clus>
</clustering>
</event>
<event>
 6    1  0.9254630E-012  0.3000000E+03  0.7818608E-02  0.1093470E+00
          1   -1    0    0  502    0  0.00000000000E+00  0.00000000000E+00  0.24323356145E+03  0.24323356145E+03  0.00000000000E+00 0.  1.
         13   -1    0    0    0    0 -0.00000000000E+00 -0.00000000000E+00 -0.27500000000E+03  0.27500000000E+03  0.00000000000E+00 0.  1.
    9000005    2    1    2  501    0  0.47008064757E+02  0.11343814998E+01 -0.52831916347E+02  0.46670881663E+03  0.46131861350E+03 0.  0.
         13    1    3    3    0    0  0.53116299170E+02 -0.13700173290E+03 -0.21068266644E+03  0.25686183444E+03  0.00000000000E+00 0.  1.
          3    1    3    3  501    0 -0.61082344132E+01  0.13813611440E+03  0.15785075009E+03  0.20984698219E+03  0.00000000000E+00 0.  1.
         21    1    1    2  502  501 -0.47008064757E+02 -0.11343814998E+01  0.21065477799E+02  0.51524744818E+02  0.00000000000E+00 0. -1.
<scales pt_clust_4="550.00000" pt_clust_5="550.00000" pt_clust_6="47.02175"></scales>
<mgrwt>
<rscale>  0 0.30000000E+03</rscale>
<asrwt>  1 0.47021750E+02</asrwt>
<pdfrwt beam="1">  1        1 0.88448568E+00 0.30000000E+03</pdfrwt>
<pdfrwt beam="2">0</pdfrwt>
<totfact> 0.16344900E-04</totfact>
</mgrwt>
<clustering>
<clus scale="   47.022">  1  6  2 -1</clus>
<clus scale="  461.319">  4  5 -1 -1</clus>
<clus scale="  300.000">  1  4  2 -1</clus>
</clustering>
</event>
<event>
 6    1  0.9254630E-012  0.3000000E+03  0.7818608E-02  0.1093470E+00
          1   -1    0    0  502    0  0.00000000000E+00  0.00000000000E+00  0.23971934253E+03  0.23971934253E+03  0.00000000000E+00 0.  1.
         13   -1    0    0    0    0 -0.00000000000E+00 -0.00000000000E+00 -0.27500000000E+03  0.27500000000E+03  0.00000000000E+00 0.  1.
    9000005    2    1    2  501    0 -0.31314798997E+02  0.65422792822E+01 -0.44649902159E+02  0.48138466388E+03  0.47824069547E+03 0.  0.
         13    1    3    3    0    0  0.16119826435E+03  0.99325583891E+02  0.10872420986E+03  0.21833782507E+03  0.00000000000E+00 0.  1.
          3    1    3    3  501    0 -0.19251306335E+03 -0.92783304609E+02 -0.15337411202E+03  0.26304683882E+03  0.00000000000E+00 0.  1.
         21    1    1    2  502  501  0.31314798997E+02 -0.65422792822E+01  0.93692446861E+01  0.33334678646E+02  0.00000000000E+00 0.  1.
<scales pt_clust_4="550.00000" pt_clust_5="550.00000" pt_clust_6="31.99091"></scales>
<mgrwt>
<rscale>  0 0.30000000E+03</rscale>
<asrwt>  1 0.31990906E+02</asrwt>
<pdfrwt beam="1">  1        1 0.87170670E+00 0.30000000E+03</pdfrwt>
<pdfrwt beam="2">0</pdfrwt>
<totfact> 0.24745071E-04</totfact>
</mgrwt>
<clustering>
<clus scale="   31.991">  1  6  2 -1</clus>
<clus scale="  478.241">  4  5 -1 -1</clus>
<clus scale="  300.000">  1  4  2 -1</clus>
</clustering>
</event>
<event>
 6    1  0.9254630E-012  0.3000000E+03  0.7818608E-02  0.1093470E+00
          1   -1    0    0  502    0  0.00000000000E+00  0.00000000000E+00  0.26129911052E+03  0.26129911052E+03  0.00000000000E+00 0.  1.
         13   -1    0    0    0    0 -0.00000000000E+00 -0.00000000000E+00 -0.27500000000E+03  0.27500000000E+03  0.00000000000E+00 0.  1.
    9000005    2    1    2  501    0  0.35259979540E+02 -0.20995244743E+00 -0.72042678449E+02  0.46812965565E+03  0.46120702157E+03 0.  0.
         13    1    3    3    0    0 -0.13512705952E+03 -0.15910812294E+03 -0.10356645975E+03  0.23302516728E+03  0.00000000000E+00 0.  1.
          3    1    3    3  501    0  0.17038703906E+03  0.15889817049E+03  0.31523781297E+02  0.23510448837E+03  0.00000000000E+00 0.  1.
         21    1    1    2  502  501 -0.35259979540E+02  0.20995244743E+00  0.58341788971E+02  0.68169454872E+02  0.00000000000E+00 0.  1.
<scales pt_clust_4="550.00000" pt_clust_5="550.00000" pt_clust_6="35.26060"></scales>
<mgrwt>
<rscale>  0 0.30000000E+03</rscale>
<asrwt>  1 0.35260605E+02</asrwt>
<pdfrwt beam="1">  1        1 0.95017858E+00 0.30000000E+03</pdfrwt>
<pdfrwt beam="2">0</pdfrwt>
<totfact> 0.12215186E-05</totfact>
</mgrwt>
<clustering>
<clus scale="   35.261">  1  6  2 -1</clus>
<clus scale="  461.207">  4  5 -1 -1</clus>
<clus scale="  300.000">  1  4  2 -1</clus>
</clustering>
</event>
<event>
 6    1  0.9254630E-012  0.3000000E+03  0.7818608E-02  0.1093470E+00
          1   -1    0    0  502    0  0.00000000000E+00  0.00000000000E+00  0.25169604967E+03  0.25169604967E+03  0.00000000000E+00 0.  1.
         13   -1    0    0    0    0 -0.00000000000E+00 -0.00000000000E+00 -0.27500000000E+03  0.27500000000E+03  0.00000000000E+00 0.  1.
    9000005    2    1    2  501    0 -0.27085302892E+02 -0.18289241942E+02 -0.56893177902E+02  0.47983085776E+03  0.47532379318E+03 0.  0.
         13    1    3    3    0    0 -0.54957289914E+02 -0.14945618931E+03 -0.21816087481E+03  0.27009558222E+03  0.00000000000E+00 0.  1.
          1    1    3    3  501    0  0.27871987022E+02  0.13116694737E+03  0.16126769690E+03  0.20973527554E+03  0.00000000000E+00 0.  1.
         21    1    1    2  502  501  0.27085302892E+02  0.18289241942E+02  0.33589227567E+02  0.46865191903E+02  0.00000000000E+00 0.  1.
<scales pt_clust_4="550.00000" pt_clust_5="550.00000" pt_clust_6="32.68195"></scales>
<mgrwt>
<rscale>  0 0.30000000E+03</rscale>
<asrwt>  1 0.32681952E+02</asrwt>
<pdfrwt beam="1">  1        1 0.91525836E+00 0.30000000E+03</pdfrwt>
<pdfrwt beam="2">0</pdfrwt>
<totfact> 0.54097561E-05</totfact>
</mgrwt>
<clustering>
<clus scale="   32.682">  1  6  2 -1</clus>
<clus scale="  475.324">  4  5 -1 -1</clus>
<clus scale="  300.000">  1  4  2 -1</clus>
</clustering>
</event>
<event>
 6    1  0.9254630E-012  0.3000000E+03  0.7818608E-02  0.1093470E+00
          1   -1    0    0  502    0  0.00000000000E+00  0.00000000000E+00  0.23575344202E+03  0.23575344202E+03  0.00000000000E+00 0.  1.
         13   -1    0    0    0    0 -0.00000000000E+00 -0.00000000000E+00 -0.27500000000E+03  0.27500000000E+03  0.00000000000E+00 0.  1.
    9000005    2    1    2  501    0 -0.33219448350E+02  0.15226500076E+01 -0.55482709683E+02  0.47374718804E+03  0.46931036307E+03 0.  0.
         13    1    3    3    0    0 -0.19240029823E+03 -0.79210072484E+02 -0.16394140530E+03  0.26489411982E+03  0.00000000000E+00 0.  1.
          3    1    3    3  501    0  0.15918084988E+03  0.80732722491E+02  0.10845869561E+03  0.20885306822E+03  0.00000000000E+00 0.  1.
         21    1    1    2  502  501  0.33219448350E+02 -0.15226500076E+01  0.16236151703E+02  0.37006253983E+02  0.00000000000E+00 0.  1.
<scales pt_clust_4="550.00000" pt_clust_5="550.00000" pt_clust_6="33.25433"></scales>
<mgrwt>
<rscale>  0 0.30000000E+03</rscale>
<asrwt>  1 0.33254326E+02</asrwt>
<pdfrwt beam="1">  1        1 0.85728524E+00 0.30000000E+03</pdfrwt>
<pdfrwt beam="2">0</pdfrwt>
<totfact> 0.34876604E-04</totfact>
</mgrwt>
<clustering>
<clus scale="   33.254">  1  6  2 -1</clus>
<clus scale="  469.310">  4  5 -1 -1</clus>
<clus scale="  300.000">  1  4  2 -1</clus>
</clustering>
</event>
<event>
 6    1  0.9254630E-012  0.3000000E+03  0.7818608E-02  0.1093470E+00
          1   -1    0    0  502    0  0.00000000000E+00  0.00000000000E+00  0.23853899848E+03  0.23853899848E+03  0.00000000000E+00 0.  1.
         13   -1    0    0    0    0 -0.00000000000E+00 -0.00000000000E+00 -0.27500000000E+03  0.27500000000E+03  0.00000000000E+00 0.  1.
    9000005    2    1    2  501    0 -0.25552133435E+02  0.20073784879E+02 -0.70147905384E+02  0.46673434215E+03  0.46028724635E+03 0.  0.
         13    1    3    3    0    0  0.10266908129E+03 -0.17128319705E+03  0.51515349906E+02  0.20623458759E+03  0.00000000000E+00 0.  1.
          3    1    3    3  501    0 -0.12822121472E+03  0.19135698193E+03 -0.12166325529E+03  0.26049975456E+03  0.00000000000E+00 0.  1.
         21    1    1    2  502  501  0.25552133435E+02 -0.20073784879E+02  0.33686903865E+02  0.46804656333E+02  0.00000000000E+00 0. -1.
<scales pt_clust_4="550.00000" pt_clust_5="550.00000" pt_clust_6="32.49413"></scales>
<mgrwt>
<rscale>  0 0.30000000E+03</rscale>
<asrwt>  1 0.32494128E+02</asrwt>
<pdfrwt beam="1">  1        1 0.86741454E+00 0.30000000E+03</pdfrwt>
<pdfrwt beam="2">0</pdfrwt>
<totfact> 0.27310064E-04</totfact>
</mgrwt>
<clustering>
<clus scale="   32.494">  1  6  2 -1</clus>
<clus scale="  460.287">  4  5 -1 -1</clus>
<clus scale="  300.000">  1  4  2 -1</clus>
</clustering>
</event>
<event>
 6    1  0.9254630E-012  0.3000000E+03  0.7818608E-02  0.1093470E+00
          1   -1    0    0  502    0  0.00000000000E+00  0.00000000000E+00  0.25346877630E+03  0.25346877630E+03  0.00000000000E+00 0.  1.
         13   -1    0    0    0    0 -0.00000000000E+00 -0.00000000000E+00 -0.27500000000E+03  0.27500000000E+03  0.00000000000E+00 0.  1.
    9000005    2    1    2  501    0 -0.10274546945E+02  0.29512873265E+02 -0.49946046697E+02  0.48623161056E+03  0.48264893611E+03 0.  0.
         13    1    3    3    0    0  0.10668866946E+03 -0.10582448107E+03  0.15385531312E+03  0.21506452604E+03  0.00000000000E+00 0.  1.
          3    1    3    3  501    0 -0.11696321640E+03  0.13533735433E+03 -0.20380135982E+03  0.27116708453E+03  0.00000000000E+00 0.  1.
         21    1    1    2  502  501  0.10274546945E+02 -0.29512873265E+02  0.28414822993E+02  0.42237165731E+02  0.00000000000E+00 0.  1.
<scales pt_clust_4="550.00000" pt_clust_5="550.00000" pt_clust_6="31.25022"></scales>
<mgrwt>
<rscale>  0 0.30000000E+03</rscale>
<asrwt>  1 0.31250216E+02</asrwt>
<pdfrwt beam="1">  1        1 0.92170464E+00 0.30000000E+03</pdfrwt>
<pdfrwt beam="2">0</pdfrwt>
<totfact> 0.39255408E-05</totfact>
</mgrwt>
<clustering>
<clus scale="   31.250">  1  6  2 -1</clus>
<clus scale="  482.649">  4  5 -1 -1</clus>
<clus scale="  300.000">  1  4  2 -1</clus>
</clustering>
</event>
<event>
 6    1  0.9254630E-012  0.3000000E+03  0.7818608E-02  0.1093470E+00
          1   -1    0    0  502    0  0.00000000000E+00  0.00000000000E+00  0.22447306306E+03  0.22447306306E+03  0.00000000000E+00 0.  1.
         13   -1    0    0    0    0 -0.00000000000E+00 -0.00000000000E+00 -0.27500000000E+03  0.27500000000E+03  0.00000000000E+00 0.  1.
    9000005    2    1    2  501    0  0.28513055710E+02  0.25867144936E+02 -0.45880140226E+02  0.46069554054E+03  0.45678582539E+03 0.  0.
         13    1    3    3    0    0  0.72814373398E+02  0.11584440910E+03 -0.22039522854E+03  0.25941456562E+03  0.00000000000E+00 0.  1.
          3    1    3    3  501    0 -0.44301317688E+02 -0.89977264159E+02  0.17451508832E+03  0.20128097492E+03  0.00000000000E+00 0.  1.
         21    1    1    2  502  501 -0.28513055710E+02 -0.25867144936E+02 -0.46467967145E+01  0.38777522520E+02  0.00000000000E+00 0. -1.
<scales pt_clust_4="550.00000" pt_clust_5="550.00000" pt_clust_6="38.49812"></scales>
<mgrwt>
<rscale>  0 0.30000000E+03</rscale>
<asrwt>  1 0.38498117E+02</asrwt>
<pdfrwt beam="1">  1        1 0.81626568E+00 0.30000000E+03</pdfrwt>
<pdfrwt beam="2">0</pdfrwt>
<totfact> 0.76379589E-04</totfact>
</mgrwt>
<clustering>
<clus scale="   38.498">  1  6  2 -1</clus>
<clus scale="  456.786">  4  5 -1 -1</clus>
<clus scale="  300.000">  1  4  2 -1</clus>
</clustering>
</event>
<event>
 6    1  0.9254630E-012  0.3000000E+03  0.7818608E-02  0.1093470E+00
          1   -1    0    0  502    0  0.00000000000E+00  0.00000000000E+00  0.23911524606E+03  0.23911524606E+03  0.00000000000E+00 0.  1.
         13   -1    0    0    0    0 -0.00000000000E+00 -0.00000000000E+00 -0.27500000000E+03  0.27500000000E+03  0.00000000000E+00 0.  1.
    9000005    2    1    2  501    0  0.33646657534E+02 -0.10480910206E+02 -0.57751892378E+02  0.47264093129E+03  0.46777368654E+03 0.  0.
         13    1    3    3    0    0  0.61722198879E+02 -0.84478408672E+02  0.18762060060E+03  0.21482020654E+03  0.00000000000E+00 0.  1.
          3    1    3    3  501    0 -0.28075541345E+02  0.73997498466E+02 -0.24537249298E+03  0.25782072476E+03  0.00000000000E+00 0.  1.
         21    1    1    2  502  501 -0.33646657534E+02  0.10480910206E+02  0.21867138442E+02  0.41474314770E+02  0.00000000000E+00 0. -1.
<scales pt_clust_4="550.00000" pt_clust_5="550.00000" pt_clust_6="35.24127"></scales>
<mgrwt>
<rscale>  0 0.30000000E+03</rscale>
<asrwt>  1 0.35241269E+02</asrwt>
<pdfrwt beam="1">  1        1 0.86950999E+00 0.30000000E+03</pdfrwt>
<pdfrwt beam="2">0</pdfrwt>
<totfact> 0.25586540E-04</totfact>
</mgrwt>
<clustering>
<clus scale="   35.241">  1  6  2 -1</clus>
<clus scale="  467.774">  4  5 -1 -1</clus>
<clus scale="  300.000">  1  4  2 -1</clus>
</clustering>
</event>
<event>
 6    1  0.9254630E-012  0.3000000E+03  0.7818608E-02  0.1093470E+00
          1   -1    0    0  502    0  0.00000000000E+00  0.00000000000E+00  0.22956413825E+03  0.22956413825E+03  0.00000000000E+00 0.  1.
         13   -1    0    0    0    0 -0.00000000000E+00 -0.00000000000E+00 -0.27500000000E+03  0.27500000000E+03  0.00000000000E+00 0.  1.
    9000005    2    1    2  501    0  0.30160252914E+02  0.17494772981E+00 -0.48759800039E+02  0.47422076948E+03  0.47074212542E+03 0.  0.
         13    1    3    3    0    0  0.23310580109E+03 -0.89641698193E+02 -0.28364988269E+02  0.25135337896E+03  0.00000000000E+00 0.  1.
          3    1    3    3  501    0 -0.20294554818E+03  0.89816645923E+02 -0.20394811770E+02  0.22286739052E+03  0.00000000000E+00 0.  1.
         21    1    1    2  502  501 -0.30160252914E+02 -0.17494772981E+00  0.33239382895E+01  0.30343368770E+02  0.00000000000E+00 0. -1.
<scales pt_clust_4="550.00000" pt_clust_5="550.00000" pt_clust_6="30.16076"></scales>
<mgrwt>
<rscale>  0 0.30000000E+03</rscale>
<asrwt>  1 0.30160760E+02</asrwt>
<pdfrwt beam="1">  1        1 0.83477868E+00 0.30000000E+03</pdfrwt>
<pdfrwt beam="2">0</pdfrwt>
<totfact> 0.55855387E-04</totfact>
</mgrwt>
<clustering>
<clus scale="   30.161">  1  6  2 -1</clus>
<clus scale="  470.742">  4  5 -1 -1</clus>
<clus scale="  300.000">  1  4  2 -1</clus>
</clustering>
</event>
<event>
 6    1  0.9254630E-012  0.3000000E+03  0.7818608E-02  0.1093470E+00
          1   -1    0    0  502    0  0.00000000000E+00  0.00000000000E+00  0.23200594463E+03  0.23200594463E+03  0.00000000000E+00 0.  1.
         13   -1    0    0    0    0 -0.00000000000E+00 -0.00000000000E+00 -0.27500000000E+03  0.27500000000E+03  0.00000000000E+00 0.  1.
    9000005    2    1    2  501    0 -0.31046837505E+02 -0.11893184436E+01 -0.50842628329E+02  0.47496034127E+03  0.47120805630E+03 0.  0.
         13    1    3    3    0    0 -0.19652540016E+03  0.14740683146E+03 -0.58083557863E+02  0.25243753002E+03  0.00000000000E+00 0.  1.
          1    1    3    3  501    0  0.16547856266E+03 -0.14859614990E+03  0.72409295334E+01  0.22252281125E+03  0.00000000000E+00 0.  1.
         21    1    1    2  502  501  0.31046837505E+02  0.11893184436E+01  0.78485729614E+01  0.32045603363E+02  0.00000000000E+00 0.  1.
<scales pt_clust_4="550.00000" pt_clust_5="550.00000" pt_clust_6="31.06961"></scales>
<mgrwt>
<rscale>  0 0.30000000E+03</rscale>
<asrwt>  1 0.31069609E+02</asrwt>
<pdfrwt beam="1">  1        1 0.84365798E+00 0.30000000E+03</pdfrwt>
<pdfrwt beam="2">0</pdfrwt>
<totfact> 0.47461720E-04</totfact>
</mgrwt>
<clustering>
<clus scale="   31.070">  1  6  2 -1</clus>
<clus scale="  471.208">  4  5 -1 -1</clus>
<clus scale="  300.000">  1  4  2 -1</clus>
</clustering>
</event>
<event>
 6    1  0.9254630E-012  0.3000000E+03  0.7818608E-02  0.1093470E+00
          1   -1    0    0  502    0  0.00000000000E+00  0.00000000000E+00  0.22623133747E+03  0.22623133747E+03  0.00000000000E+00 0.  1.
         13   -1    0    0    0    0 -0.00000000000E+00 -0.00000000000E+00 -0.27500000000E+03  0.27500000000E+03  0.00000000000E+00 0.  1.
    9000005    2    1    2  501    0 -0.19064851521E+02 -0.33651344776E+02 -0.54660215585E+02  0.46210855681E+03  0.45723155790E+03 0.  0.
         13    1    3    3    0    0  0.24303956275E+02  0.87943214917E+02  0.17573568867E+03  0.19800940284E+03  0.00000000000E+00 0.  1.
          3    1    3    3  501    0 -0.43368807796E+02 -0.12159455969E+03 -0.23039590425E+03  0.26409915398E+03  0.00000000000E+00 0.  1.
         21    1    1    2  502  501  0.19064851521E+02  0.33651344776E+02  0.58915530533E+01  0.39122780655E+02  0.00000000000E+00 0.  1.
<scales pt_clust_4="550.00000" pt_clust_5="550.00000" pt_clust_6="38.67663"></scales>
<mgrwt>
<rscale>  0 0.30000000E+03</rscale>
<asrwt>  1 0.38676628E+02</asrwt>
<pdfrwt beam="1">  1        1 0.82265941E+00 0.30000000E+03</pdfrwt>
<pdfrwt beam="2">0</pdfrwt>
<totfact> 0.67279497E-04</totfact>
</mgrwt>
<clustering>
<clus scale="   38.677">  1  6  2 -1</clus>
<clus scale="  457.232">  4  5 -1 -1</clus>
<clus scale="  300.000">  1  4  2 -1</clus>
</clustering>
</event>
<event>
 6    1  0.9254630E-012  0.3000000E+03  0.7818608E-02  0.1093470E+00
          1   -1    0    0  502    0  0.00000000000E+00  0.00000000000E+00  0.22987655007E+03  0.22987655007E+03  0.00000000000E+00 0.  1.
         13   -1    0    0    0    0 -0.00000000000E+00 -0.00000000000E+00 -0.27500000000E+03  0.27500000000E+03  0.00000000000E+00 0.  1.
    9000005    2    1    2  501    0 -0.30177339710E+02 -0.44649366804E+01 -0.67795822692E+02  0.46686807762E+03  0.46091096845E+03 0.  0.
         13    1    3    3    0    0 -0.70179264828E+02 -0.97257646556E+01 -0.26051164987E+03  0.26997414585E+03  0.00000000000E+00 0.  1.
          1    1    3    3  501    0  0.40001925118E+02  0.52608279751E+01  0.19271582718E+03  0.19689393177E+03  0.00000000000E+00 0.  1.
         21    1    1    2  502  501  0.30177339710E+02  0.44649366804E+01  0.22672372765E+02  0.38008472454E+02  0.00000000000E+00 0. -1.
<scales pt_clust_4="550.00000" pt_clust_5="550.00000" pt_clust_6="30.50586"></scales>
<mgrwt>
<rscale>  0 0.30000000E+03</rscale>
<asrwt>  1 0.30505860E+02</asrwt>
<pdfrwt beam="1">  1        1 0.83591473E+00 0.30000000E+03</pdfrwt>
<pdfrwt beam="2">0</pdfrwt>
<totfact> 0.54681858E-04</totfact>
</mgrwt>
<clustering>
<clus scale="   30.506">  1  6  2 -1</clus>
<clus scale="  460.911">  4  5 -1 -1</clus>
<clus scale="  300.000">  1  4  2 -1</clus>
</clustering>
</event>
<event>
 6    1  0.9254630E-012  0.3000000E+03  0.7818608E-02  0.1093470E+00
          1   -1    0    0  502    0  0.00000000000E+00  0.00000000000E+00  0.22951565336E+03  0.22951565336E+03  0.00000000000E+00 0.  1.
         13   -1    0    0    0    0 -0.00000000000E+00 -0.00000000000E+00 -0.27500000000E+03  0.27500000000E+03  0.00000000000E+00 0.  1.
    9000005    2    1    2  501    0 -0.28055135987E+02 -0.28737178922E+02 -0.46769161842E+02  0.46433398020E+03  0.46022361365E+03 0.  0.
         13    1    3    3    0    0 -0.22539947875E+03  0.63260268730E+02 -0.72516325149E+02  0.24508244334E+03  0.00000000000E+00 0.  1.
          1    1    3    3  501    0  0.19734434277E+03 -0.91997447652E+02  0.25747163307E+02  0.21925153686E+03  0.00000000000E+00 0.  1.
         21    1    1    2  502  501  0.28055135987E+02  0.28737178922E+02  0.12848152037E+01  0.40181673158E+02  0.00000000000E+00 0.  1.
<scales pt_clust_4="550.00000" pt_clust_5="550.00000" pt_clust_6="40.16113"></scales>
<mgrwt>
<rscale>  0 0.30000000E+03</rscale>
<asrwt>  1 0.40161127E+02</asrwt>
<pdfrwt beam="1">  1        1 0.83460238E+00 0.30000000E+03</pdfrwt>
<pdfrwt beam="2">0</pdfrwt>
<totfact> 0.53096416E-04</totfact>
</mgrwt>
<clustering>
<clus scale="   40.161">  1  6  2 -1</clus>
<clus scale="  460.224">  4  5 -1 -1</clus>
<clus scale="  300.000">  1  4  2 -1</clus>
</clustering>
</event>
<event>
 6    1  0.9254630E-012  0.3000000E+03  0.7818608E-02  0.1093470E+00
          1   -1    0    0  502    0  0.00000000000E+00  0.00000000000E+00  0.23779738717E+03  0.23779738717E+03  0.00000000000E+00 0.  1.
         13   -1    0    0    0    0 -0.00000000000E+00 -0.00000000000E+00 -0.27500000000E+03  0.27500000000E+03  0.00000000000E+00 0.  1.
    9000005    2    1    2  501    0 -0.77936596631E+01 -0.33990830362E+02 -0.46084718913E+02  0.47681114691E+03  0.47329583859E+03 0.  0.
         13    1    3    3    0    0  0.19141522504E+03 -0.38176095681E+02  0.10968816548E+03  0.22389438649E+03  0.00000000000E+00 0.  1.
          1    1    3    3  501    0 -0.19920888470E+03  0.41852653189E+01 -0.15577288439E+03  0.25291676042E+03  0.00000000000E+00 0.  1.
         21    1    1    2  502  501  0.77936596631E+01  0.33990830362E+02  0.88821060881E+01  0.35986240262E+02  0.00000000000E+00 0. -1.
<scales pt_clust_4="550.00000" pt_clust_5="550.00000" pt_clust_6="34.87288"></scales>
<mgrwt>
<rscale>  0 0.30000000E+03</rscale>
<asrwt>  1 0.34872879E+02</asrwt>
<pdfrwt beam="1">  1        1 0.86471777E+00 0.30000000E+03</pdfrwt>
<pdfrwt beam="2">0</pdfrwt>
<totfact> 0.28790422E-04</totfact>
</mgrwt>
<clustering>
<clus scale="   34.873">  1  6  2 -1</clus>
<clus scale="  473.296">  4  5 -1 -1</clus>
<clus scale="  300.000">  1  4  2 -1</clus>
</clustering>
</event>
<event>
 6    1  0.9254630E-012  0.3000000E+03  0.7818608E-02  0.1093470E+00
          1   -1    0    0  502    0  0.00000000000E+00  0.00000000000E+00  0.23060433042E+03  0.23060433042E+03  0.00000000000E+00 0.  1.
         13   -1    0    0    0    0 -0.00000000000E+00 -0.00000000000E+00 -0.27500000000E+03  0.27500000000E+03  0.00000000000E+00 0.  1.
    9000005    2    1    2  501    0  0.89143815441E+01  0.30658530528E+02 -0.59699889753E+02  0.47019768066E+03  0.46529815212E+03 0.  0.
         13    1    3    3    0    0  0.13382220454E+03 -0.15597040714E+03 -0.11959334867E+03  0.23777661655E+03  0.00000000000E+00 0.  1.
          1    1    3    3  501    0 -0.12490782299E+03  0.18662893767E+03  0.59893458914E+02  0.23242106411E+03  0.00000000000E+00 0.  1.
         21    1    1    2  502  501 -0.89143815441E+01 -0.30658530528E+02  0.15304220175E+02  0.35406649766E+02  0.00000000000E+00 0.  1.
<scales pt_clust_4="550.00000" pt_clust_5="550.00000" pt_clust_6="31.92823"></scales>
<mgrwt>
<rscale>  0 0.30000000E+03</rscale>
<asrwt>  1 0.31928227E+02</asrwt>
<pdfrwt beam="1">  1        1 0.83856120E+00 0.30000000E+03</pdfrwt>
<pdfrwt beam="2">0</pdfrwt>
<totfact> 0.51850065E-04</totfact>
</mgrwt>
<clustering>
<clus scale="   31.928">  1  6  2 -1</clus>
<clus scale="  465.298">  4  5 -1 -1</clus>
<clus scale="  300.000">  1  4  2 -1</clus>
</clustering>
</event>
<event>
 6    1  0.9254630E-012  0.3000000E+03  0.7818608E-02  0.1093470E+00
          1   -1    0    0  502    0  0.00000000000E+00  0.00000000000E+00  0.24061321423E+03  0.24061321423E+03  0.00000000000E+00 0.  1.
         13   -1    0    0    0    0 -0.00000000000E+00 -0.00000000000E+00 -0.27500000000E+03  0.27500000000E+03  0.00000000000E+00 0.  1.
    9000005    2    1    2  501    0 -0.70237316282E+01 -0.35670517152E+02 -0.42523287685E+02  0.47835839892E+03  0.47507558265E+03 0.  0.
         13    1    3    3    0    0 -0.94409474876E+02  0.19134169536E+03  0.48197233788E+02  0.21874132366E+03  0.00000000000E+00 0.  1.
          3    1    3    3  501    0  0.87385743248E+02 -0.22701221251E+03 -0.90720521472E+02  0.25961707527E+03  0.00000000000E+00 0.  1.
         21    1    1    2  502  501  0.70237316282E+01  0.35670517152E+02  0.81365019113E+01  0.37254815302E+02  0.00000000000E+00 0.  1.
<scales pt_clust_4="550.00000" pt_clust_5="550.00000" pt_clust_6="36.35545"></scales>
<mgrwt>
<rscale>  0 0.30000000E+03</rscale>
<asrwt>  1 0.36355448E+02</asrwt>
<pdfrwt beam="1">  1        1 0.87495714E+00 0.30000000E+03</pdfrwt>
<pdfrwt beam="2">0</pdfrwt>
<totfact> 0.22357312E-04</totfact>
</mgrwt>
<clustering>
<clus scale="   36.355">  1  6  2 -1</clus>
<clus scale="  475.076">  4  5 -1 -1</clus>
<clus scale="  300.000">  1  4  2 -1</clus>
</clustering>
</event>
<event>
 6    1  0.9254630E-012  0.3000000E+03  0.7818608E-02  0.1093470E+00
          1   -1    0    0  502    0  0.00000000000E+00  0.00000000000E+00  0.24911877938E+03  0.24911877938E+03  0.00000000000E+00 0.  1.
         13   -1    0    0    0    0 -0.00000000000E+00 -0.00000000000E+00 -0.27500000000E+03  0.27500000000E+03  0.00000000000E+00 0.  1.
    9000005    2    1    2  501    0 -0.39612408283E+02 -0.26735889025E+01 -0.40040245420E+02  0.48196704216E+03  0.47865720250E+03 0.  0.
         13    1    3    3    0    0 -0.15844111156E+03 -0.10064907194E+03 -0.18994612173E+03  0.26704559662E+03  0.00000000000E+00 0.  1.
          3    1    3    3  501    0  0.11882870327E+03  0.97975483034E+02  0.14990587631E+03  0.21492144554E+03  0.00000000000E+00 0.  1.
         21    1    1    2  502  501  0.39612408283E+02  0.26735889025E+01  0.14159024799E+02  0.42151737223E+02  0.00000000000E+00 0. -1.
<scales pt_clust_4="550.00000" pt_clust_5="550.00000" pt_clust_6="39.70253"></scales>
<mgrwt>
<rscale>  0 0.30000000E+03</rscale>
<asrwt>  1 0.39702531E+02</asrwt>
<pdfrwt beam="1">  1        1 0.90588647E+00 0.30000000E+03</pdfrwt>
<pdfrwt beam="2">0</pdfrwt>
<totfact> 0.86809264E-05</totfact>
</mgrwt>
<clustering>
<clus scale="   39.703">  1  6  2 -1</clus>
<clus scale="  478.657">  4  5 -1 -1</clus>
<clus scale="  300.000">  1  4  2 -1</clus>
</clustering>
</event>
<event>
 6    1  0.9254630E-012  0.3000000E+03  0.7818608E-02  0.1093470E+00
          1   -1    0    0  502    0  0.00000000000E+00  0.00000000000E+00  0.22389310592E+03  0.22389310592E+03  0.00000000000E+00 0.  1.
         13   -1    0    0    0    0 -0.00000000000E+00 -0.00000000000E+00 -0.27500000000E+03  0.27500000000E+03  0.00000000000E+00 0.  1.
    9000005    2    1    2  501    0  0.18578942376E+02 -0.33091441042E+02 -0.43779167080E+02  0.46024189439E+03  0.45658051350E+03 0.  0.
         13    1    3    3    0    0  0.17402404458E+03  0.14100439084E+03 -0.34880828429E+02  0.22667880033E+03  0.00000000000E+00 0.  1.
          3    1    3    3  501    0 -0.15544510220E+03 -0.17409583188E+03 -0.88983386519E+01  0.23356309406E+03  0.00000000000E+00 0.  1.
         21    1    1    2  502  501 -0.18578942376E+02  0.33091441042E+02 -0.73277269967E+01  0.38651211533E+02  0.00000000000E+00 0.  1.
<scales pt_clust_4="550.00000" pt_clust_5="550.00000" pt_clust_6="37.95026"></scales>
<mgrwt>
<rscale>  0 0.30000000E+03</rscale>
<asrwt>  1 0.37950257E+02</asrwt>
<pdfrwt beam="1">  1        1 0.81415675E+00 0.30000000E+03</pdfrwt>
<pdfrwt beam="2">0</pdfrwt>
<totfact> 0.79652955E-04</totfact>
</mgrwt>
<clustering>
<clus scale="   37.950">  1  6  2 -1</clus>
<clus scale="  456.581">  4  5 -1 -1</clus>
<clus scale="  300.000">  1  4  2 -1</clus>
</clustering>
</event>
<event>
 6    1  0.9254630E-012  0.3000000E+03  0.7818608E-02  0.1093470E+00
          1   -1    0    0  502    0  0.00000000000E+00  0.00000000000E+00  0.22416837162E+03  0.22416837162E+03  0.00000000000E+00 0.  1.
         13   -1    0    0    0    0 -0.00000000000E+00 -0.00000000000E+00 -0.27500000000E+03  0.27500000000E+03  0.00000000000E+00 0.  1.
    9000005    2    1    2  501    0  0.31707620395E+02  0.13414004873E+02 -0.41988367415E+02  0.46362245790E+03  0.46043181010E+03 0.  0.
         13    1    3    3    0    0 -0.15477820592E+03 -0.60825542208E+02  0.12050649142E+03  0.20537247646E+03  0.00000000000E+00 0.  1.
          1    1    3    3  501    0  0.18648582632E+03  0.74239547081E+02 -0.16249485883E+03  0.25824998144E+03  0.00000000000E+00 0.  1.
         21    1    1    2  502  501 -0.31707620395E+02 -0.13414004873E+02 -0.88432609628E+01  0.35545913722E+02  0.00000000000E+00 0.  1.
<scales pt_clust_4="550.00000" pt_clust_5="550.00000" pt_clust_6="34.42833"></scales>
<mgrwt>
<rscale>  0 0.30000000E+03</rscale>
<asrwt>  1 0.34428330E+02</asrwt>
<pdfrwt beam="1">  1        1 0.81515771E+00 0.30000000E+03</pdfrwt>
<pdfrwt beam="2">0</pdfrwt>
<totfact> 0.79616010E-04</totfact>
</mgrwt>
<clustering>
<clus scale="   34.428">  1  6  2 -1</clus>
<clus scale="  460.432">  4  5 -1 -1</clus>
<clus scale="  300.000">  1  4  2 -1</clus>
</clustering>
</event>
<event>
 6    1  0.9254630E-012  0.3000000E+03  0.7818608E-02  0.1093470E+00
          1   -1    0    0  502    0  0.00000000000E+00  0.00000000000E+00  0.23373125286E+03  0.23373125286E+03  0.00000000000E+00 0.  1.
         13   -1    0    0    0    0 -0.00000000000E+00 -0.00000000000E+00 -0.27500000000E+03  0.27500000000E+03  0.00000000000E+00 0.  1.
    9000005    2    1    2  501    0  0.28489522405E+02 -0.13133780700E+02 -0.51612512440E+02  0.47569880574E+03  0.47184886697E+03 0.  0.
         13    1    3    3    0    0  0.79686584097E+02  0.21994787530E+03 -0.16880017649E+02  0.23454627375E+03  0.00000000000E+00 0.  1.
          1    1    3    3  501    0 -0.51197061692E+02 -0.23308165600E+03 -0.34732494791E+02  0.24115253199E+03  0.00000000000E+00 0.  1.
         21    1    1    2  502  501 -0.28489522405E+02  0.13133780700E+02  0.10343765304E+02  0.33032447124E+02  0.00000000000E+00 0. -1.
<scales pt_clust_4="550.00000" pt_clust_5="550.00000" pt_clust_6="31.37115"></scales>
<mgrwt>
<rscale>  0 0.30000000E+03</rscale>
<asrwt>  1 0.31371150E+02</asrwt>
<pdfrwt beam="1">  1        1 0.84993183E+00 0.30000000E+03</pdfrwt>
<pdfrwt beam="2">0</pdfrwt>
<totfact> 0.41610390E-04</totfact>
</mgrwt>
<clustering>
<clus scale="   31.371">  1  6  2 -1</clus>
<clus scale="  471.849">  4  5 -1 -1</clus>
<clus scale="  300.000">  1  4  2 -1</clus>
</clustering>
</event>
<event>
 6    1  0.9254630E-012  0.3000000E+03  0.7818608E-02  0.1093470E+00
          1   -1    0    0  502    0  0.00000000000E+00  0.00000000000E+00  0.23275405064E+03  0.23275405064E+03  0.00000000000E+00 0.  1.
         13   -1    0    0    0    0 -0.00000000000E+00 -0.00000000000E+00 -0.27500000000E+03  0.27500000000E+03  0.00000000000E+00 0.  1.
    9000005    2    1    2  501    0  0.31559430952E+02  0.19856229456E+02 -0.47015198060E+02  0.47016398196E+03  0.46631906840E+03 0.  0.
         13    1    3    3    0    0 -0.69497632050E+02 -0.19968277067E+03  0.36300592712E+02  0.21452473702E+03  0.00000000000E+00 0.  1.
          1    1    3    3  501    0  0.10105706300E+03  0.21953900013E+03 -0.83315790772E+02  0.25563924494E+03  0.00000000000E+00 0.  1.
         21    1    1    2  502  501 -0.31559430952E+02 -0.19856229456E+02  0.47692487008E+01  0.37590068680E+02  0.00000000000E+00 0.  1.
<scales pt_clust_4="550.00000" pt_clust_5="550.00000" pt_clust_6="37.28629"></scales>
<mgrwt>
<rscale>  0 0.30000000E+03</rscale>
<asrwt>  1 0.37286291E+02</asrwt>
<pdfrwt beam="1">  1        1 0.84637837E+00 0.30000000E+03</pdfrwt>
<pdfrwt beam="2">0</pdfrwt>
<totfact> 0.43418664E-04</totfact>
</mgrwt>
<clustering>
<clus scale="   37.286">  1  6  2 -1</clus>
<clus scale="  466.319">  4  5 -1 -1</clus>
<clus scale="  300.000">  1  4  2 -1</clus>
</clustering>
</event>
<event>
 6    1  0.9254630E-012  0.3000000E+03  0.7818608E-02  0.1093470E+00
          1   -1    0    0  502    0  0.00000000000E+00  0.00000000000E+00  0.23395380888E+03  0.23395380888E+03  0.00000000000E+00 0.  1.
         13   -1    0    0    0    0 -0.00000000000E+00 -0.00000000000E+00 -0.27500000000E+03  0.27500000000E+03  0.00000000000E+00 0.  1.
    9000005    2    1    2  501    0 -0.38268508999E+02 -0.24688525949E+01 -0.48134505103E+02  0.46995613960E+03  0.46590907756E+03 0.  0.
         13    1    3    3    0    0 -0.35412549484E+02  0.21139109161E+03 -0.11835702790E+03  0.24484408983E+03  0.00000000000E+00 0.  1.
          1    1    3    3  501    0 -0.28559595147E+01 -0.21385994421E+03  0.70222522795E+02  0.22511204976E+03  0.00000000000E+00 0.  1.
         21    1    1    2  502  501  0.38268508999E+02  0.24688525949E+01  0.70883139815E+01  0.38997669280E+02  0.00000000000E+00 0.  1.
<scales pt_clust_4="550.00000" pt_clust_5="550.00000" pt_clust_6="38.34806"></scales>
<mgrwt>
<rscale>  0 0.30000000E+03</rscale>
<asrwt>  1 0.38348064E+02</asrwt>
<pdfrwt beam="1">  1        1 0.85074112E+00 0.30000000E+03</pdfrwt>
<pdfrwt beam="2">0</pdfrwt>
<totfact> 0.39376596E-04</totfact>
</mgrwt>
<clustering>
<clus scale="   38.348">  1  6  2 -1</clus>
<clus scale="  465.909">  4  5 -1 -1</clus>
<clus scale="  300.000">  1  4  2 -1</clus>
</clustering>
</event>
<event>
 6    1  0.9254630E-012  0.3000000E+03  0.7818608E-02  0.1093470E+00
          1   -1    0    0  502    0  0.00000000000E+00  0.00000000000E+00  0.24461111581E+03  0.24461111581E+03  0.00000000000E+00 0.  1.
         13   -1    0    0    0    0 -0.00000000000E+00 -0.00000000000E+00 -0.27500000000E+03  0.27500000000E+03  0.00000000000E+00 0.  1.
    9000005    2    1    2  501    0 -0.27368602807E+02 -0.15441810597E+02 -0.66591163595E+02  0.47167266602E+03  0.46588971964E+03 0.  0.
         13    1    3    3    0    0 -0.13851925728E+03 -0.17863461432E+03  0.64012454637E+02  0.23493723506E+03  0.00000000000E+00 0.  1.
          3    1    3    3  501    0  0.11115065447E+03  0.16319280372E+03 -0.13060361823E+03  0.23673543096E+03  0.00000000000E+00 0.  1.
         21    1    1    2  502  501  0.27368602807E+02  0.15441810597E+02  0.36202279403E+02  0.47938449788E+02  0.00000000000E+00 0. -1.
<scales pt_clust_4="550.00000" pt_clust_5="550.00000" pt_clust_6="31.42435"></scales>
<mgrwt>
<rscale>  0 0.30000000E+03</rscale>
<asrwt>  1 0.31424353E+02</asrwt>
<pdfrwt beam="1">  1        1 0.88949497E+00 0.30000000E+03</pdfrwt>
<pdfrwt beam="2">0</pdfrwt>
<totfact> 0.15025729E-04</totfact>
</mgrwt>
<clustering>
<clus scale="   31.424">  1  6  2 -1</clus>
<clus scale="  465.890">  4  5 -1 -1</clus>
<clus scale="  300.000">  1  4  2 -1</clus>
</clustering>
</event>
<event>
 6    1  0.9254630E-012  0.3000000E+03  0.7818608E-02  0.1093470E+00
          1   -1    0    0  502    0  0.00000000000E+00  0.00000000000E+00  0.23111576872E+03  0.23111576872E+03  0.00000000000E+00 0.  1.
         13   -1    0    0    0    0 -0.00000000000E+00 -0.00000000000E+00 -0.27500000000E+03  0.27500000000E+03  0.00000000000E+00 0.  1.
    9000005    2    1    2  501    0 -0.34532385128E+02 -0.18914211633E+02 -0.42830459933E+02  0.46672867110E+03  0.46308851325E+03 0.  0.
         13    1    3    3    0    0 -0.28696919669E+02 -0.20524770495E+03 -0.14614381885E+03  0.25359051515E+03  0.00000000000E+00 0.  1.
          1    1    3    3  501    0 -0.58354654584E+01  0.18633349332E+03  0.10331335892E+03  0.21313815595E+03  0.00000000000E+00 0.  1.
         21    1    1    2  502  501  0.34532385128E+02  0.18914211633E+02 -0.10537713507E+01  0.39387097613E+02  0.00000000000E+00 0.  1.
<scales pt_clust_4="550.00000" pt_clust_5="550.00000" pt_clust_6="39.37300"></scales>
<mgrwt>
<rscale>  0 0.30000000E+03</rscale>
<asrwt>  1 0.39372999E+02</asrwt>
<pdfrwt beam="1">  1        1 0.84042098E+00 0.30000000E+03</pdfrwt>
<pdfrwt beam="2">0</pdfrwt>
<totfact> 0.48270436E-04</totfact>
</mgrwt>
<clustering>
<clus scale="   39.373">  1  6  2 -1</clus>
<clus scale="  463.089">  4  5 -1 -1</clus>
<clus scale="  300.000">  1  4  2 -1</clus>
</clustering>
</event>
<event>
 6    1  0.9254630E-012  0.3000000E+03  0.7818608E-02  0.1093470E+00
          1   -1    0    0  502    0  0.00000000000E+00  0.00000000000E+00  0.21967750873E+03  0.21967750873E+03  0.00000000000E+00 0.  1.
         13   -1    0    0    0    0 -0.00000000000E+00 -0.00000000000E+00 -0.27500000000E+03  0.27500000000E+03  0.00000000000E+00 0.  1.
    9000005    2    1    2  501    0  0.32182092396E+02  0.60690541882E+00 -0.48286141895E+02  0.46172958592E+03  0.45806833945E+03 0.  0.
         13    1    3    3    0    0  0.20019553412E+03 -0.12572480428E+03  0.28115181013E+02  0.23806604482E+03  0.00000000000E+00 0.  1.
          1    1    3    3  501    0 -0.16801344172E+03  0.12633170970E+03 -0.76401322908E+02  0.22366354110E+03  0.00000000000E+00 0.  1.
         21    1    1    2  502  501 -0.32182092396E+02 -0.60690541882E+00 -0.70363493740E+01  0.32947922813E+02  0.00000000000E+00 0.  1.
<scales pt_clust_4="550.00000" pt_clust_5="550.00000" pt_clust_6="32.18783"></scales>
<mgrwt>
<rscale>  0 0.30000000E+03</rscale>
<asrwt>  1 0.32187831E+02</asrwt>
<pdfrwt beam="1">  1        1 0.79882730E+00 0.30000000E+03</pdfrwt>
<pdfrwt beam="2">0</pdfrwt>
<totfact> 0.10743099E-03</totfact>
</mgrwt>
<clustering>
<clus scale="   32.188">  1  6  2 -1</clus>
<clus scale="  458.068">  4  5 -1 -1</clus>
<clus scale="  300.000">  1  4  2 -1</clus>
</clustering>
</event>
<event>
 6    1  0.9254630E-012  0.3000000E+03  0.7818608E-02  0.1093470E+00
          1   -1    0    0  502    0  0.00000000000E+00  0.00000000000E+00  0.22145858979E+03  0.22145858979E+03  0.00000000000E+00 0.  1.
         13   -1    0    0    0    0 -0.00000000000E+00 -0.00000000000E+00 -0.27500000000E+03  0.27500000000E+03  0.00000000000E+00 0.  1.
    9000005    2    1    2  501    0  0.16457207982E+02  0.31161872149E+02 -0.42015536415E+02  0.45938099902E+03  0.45609614665E+03 0.  0.
         13    1    3    3    0    0  0.47177349254E+02  0.24001139669E+03 -0.24960620366E+01  0.24461684969E+03  0.00000000000E+00 0.  1.
          1    1    3    3  501    0 -0.30720141272E+02 -0.20884952454E+03 -0.39519474378E+02  0.21476414933E+03  0.00000000000E+00 0.  1.
         21    1    1    2  502  501 -0.16457207982E+02 -0.31161872149E+02 -0.11525873799E+02  0.37077590769E+02  0.00000000000E+00 0. -1.
<scales pt_clust_4="550.00000" pt_clust_5="550.00000" pt_clust_6="35.24065"></scales>
<mgrwt>
<rscale>  0 0.30000000E+03</rscale>
<asrwt>  1 0.35240647E+02</asrwt>
<pdfrwt beam="1">  1        1 0.80530396E+00 0.30000000E+03</pdfrwt>
<pdfrwt beam="2">0</pdfrwt>
<totfact> 0.94668716E-04</totfact>
</mgrwt>
<clustering>
<clus scale="   35.241">  1  6  2 -1</clus>
<clus scale="  456.096">  4  5 -1 -1</clus>
<clus scale="  300.000">  1  4  2 -1</clus>
</clustering>
</event>
<event>
 6    1  0.9254630E-012  0.3000000E+03  0.7818608E-02  0.1093470E+00
          1   -1    0    0  502    0  0.00000000000E+00  0.00000000000E+00  0.26637258353E+03  0.26637258353E+03  0.00000000000E+00 0.  1.
         13   -1    0    0    0    0 -0.00000000000E+00 -0.00000000000E+00 -0.27500000000E+03  0.27500000000E+03  0.00000000000E+00 0.  1.
    9000005    2    1    2  501    0  0.62766016195E+01 -0.37930487302E+02 -0.58144680935E+02  0.47868225672E+03  0.47357975188E+03 0.  0.
         13    1    3    3    0    0  0.22770689646E+02  0.20598950556E+03 -0.10088876989E+03  0.23049669108E+03  0.00000000000E+00 0.  1.
          1    1    3    3  501    0 -0.16494088026E+02 -0.24391999286E+03  0.42744088957E+02  0.24818556565E+03  0.00000000000E+00 0.  1.
         21    1    1    2  502  501 -0.62766016195E+01  0.37930487302E+02  0.49517264465E+02  0.62690326805E+02  0.00000000000E+00 0.  1.
<scales pt_clust_4="550.00000" pt_clust_5="550.00000" pt_clust_6="38.44629"></scales>
<mgrwt>
<rscale>  0 0.30000000E+03</rscale>
<asrwt>  1 0.38446295E+02</asrwt>
<pdfrwt beam="1">  1        1 0.96862758E+00 0.30000000E+03</pdfrwt>
<pdfrwt beam="2">0</pdfrwt>
<totfact> 0.50972600E-06</totfact>
</mgrwt>
<clustering>
<clus scale="   38.446">  1  6  2 -1</clus>
<clus scale="  473.580">  4  5 -1 -1</clus>
<clus scale="  300.000">  1  4  2 -1</clus>
</clustering>
</event>
<event>
 6    1  0.9254630E-012  0.3000000E+03  0.7818608E-02  0.1093470E+00
          1   -1    0    0  502    0  0.00000000000E+00  0.00000000000E+00  0.23150672640E+03  0.23150672640E+03  0.00000000000E+00 0.  1.
         13   -1    0    0    0    0 -0.00000000000E+00 -0.00000000000E+00 -0.27500000000E+03  0.27500000000E+03  0.00000000000E+00 0.  1.
    9000005    2    1    2  501    0 -0.51789008736E+01  0.33090759063E+02 -0.59399360888E+02  0.46942812122E+03  0.46444876743E+03 0.  0.
         13    1    3    3    0    0 -0.42799456179E+02  0.24532780958E+03 -0.15923609284E+02  0.24954175790E+03  0.00000000000E+00 0.  1.
          1    1    3    3  501    0  0.37620555306E+02 -0.21223705052E+03 -0.43475751604E+02  0.21988636332E+03  0.00000000000E+00 0.  1.
         21    1    1    2  502  501  0.51789008736E+01 -0.33090759063E+02  0.15906087288E+02  0.37078605184E+02  0.00000000000E+00 0. -1.
<scales pt_clust_4="550.00000" pt_clust_5="550.00000" pt_clust_6="33.49357"></scales>
<mgrwt>
<rscale>  0 0.30000000E+03</rscale>
<asrwt>  1 0.33493572E+02</asrwt>
<pdfrwt beam="1">  1        1 0.84184264E+00 0.30000000E+03</pdfrwt>
<pdfrwt beam="2">0</pdfrwt>
<totfact> 0.48458690E-04</totfact>
</mgrwt>
<clustering>
<clus scale="   33.494">  1  6  2 -1</clus>
<clus scale="  464.449">  4  5 -1 -1</clus>
<clus scale="  300.000">  1  4  2 -1</clus>
</clustering>
</event>
<event>
 6    1  0.9254630E-012  0.3000000E+03  0.7818608E-02  0.1093470E+00
          1   -1    0    0  502    0  0.00000000000E+00  0.00000000000E+00  0.23211590383E+03  0.23211590383E+03  0.00000000000E+00 0.  1.
         13   -1    0    0    0    0 -0.00000000000E+00 -0.00000000000E+00 -0.27500000000E+03  0.27500000000E+03  0.00000000000E+00 0.  1.
    9000005    2    1    2  501    0  0.36363117094E+02 -0.71910611490E+01 -0.41420966966E+02  0.47001969928E+03  0.46672136608E+03 0.  0.
         13    1    3    3    0    0 -0.73977405548E+02  0.16227002377E+03  0.11686650573E+03  0.21321819178E+03  0.00000000000E+00 0.  1.
          1    1    3    3  501    0  0.11034052264E+03 -0.16946108492E+03 -0.15828747270E+03  0.25680150749E+03  0.00000000000E+00 0.  1.
         21    1    1    2  502  501 -0.36363117094E+02  0.71910611490E+01 -0.14631292047E+01  0.37096204554E+02  0.00000000000E+00 0. -1.
<scales pt_clust_4="550.00000" pt_clust_5="550.00000" pt_clust_6="37.06734"></scales>
<mgrwt>
<rscale>  0 0.30000000E+03</rscale>
<asrwt>  1 0.37067339E+02</asrwt>
<pdfrwt beam="1">  1        1 0.84405783E+00 0.30000000E+03</pdfrwt>
<pdfrwt beam="2">0</pdfrwt>
<totfact> 0.45550954E-04</totfact>
</mgrwt>
<clustering>
<clus scale="   37.067">  1  6  2 -1</clus>
<clus scale="  466.721">  4  5 -1 -1</clus>
<clus scale="  300.000">  1  4  2 -1</clus>
</clustering>
</event>
<event>
 6    1  0.9254630E-012  0.3000000E+03  0.7818608E-02  0.1093470E+00
          1   -1    0    0  502    0  0.00000000000E+00  0.00000000000E+00  0.22904302079E+03  0.22904302079E+03  0.00000000000E+00 0.  1.
         13   -1    0    0    0    0 -0.00000000000E+00 -0.00000000000E+00 -0.27500000000E+03  0.27500000000E+03  0.00000000000E+00 0.  1.
    9000005    2    1    2  501    0 -0.12380176103E+02  0.28990924381E+02 -0.47749577210E+02  0.47246841288E+03  0.46899108370E+03 0.  0.
         13    1    3    3    0    0  0.20700201485E+02 -0.19896677773E+03 -0.11724506756E+03  0.23186781331E+03  0.00000000000E+00 0.  1.
          3    1    3    3  501    0 -0.33080377588E+02  0.22795770212E+03  0.69495490348E+02  0.24060059957E+03  0.00000000000E+00 0.  1.
         21    1    1    2  502  501  0.12380176103E+02 -0.28990924381E+02  0.17925979994E+01  0.31574607906E+02  0.00000000000E+00 0.  1.
<scales pt_clust_4="550.00000" pt_clust_5="550.00000" pt_clust_6="31.52368"></scales>
<mgrwt>
<rscale>  0 0.30000000E+03</rscale>
<asrwt>  1 0.31523681E+02</asrwt>
<pdfrwt beam="1">  1        1 0.83288371E+00 0.30000000E+03</pdfrwt>
<pdfrwt beam="2">0</pdfrwt>
<totfact> 0.57208068E-04</totfact>
</mgrwt>
<clustering>
<clus scale="   31.524">  1  6  2 -1</clus>
<clus scale="  468.991">  4  5 -1 -1</clus>
<clus scale="  300.000">  1  4  2 -1</clus>
</clustering>
</event>
<event>
 6    1  0.9254630E-012  0.3000000E+03  0.7818608E-02  0.1093470E+00
          1   -1    0    0  502    0  0.00000000000E+00  0.00000000000E+00  0.22750136285E+03  0.22750136285E+03  0.00000000000E+00 0.  1.
         13   -1    0    0    0    0 -0.00000000000E+00 -0.00000000000E+00 -0.27500000000E+03  0.27500000000E+03  0.00000000000E+00 0.  1.
    9000005    2    1    2  501    0  0.13122595365E+02  0.36004763699E+02 -0.61047583074E+02  0.46185509053E+03  0.45619597952E+03 0.  0.
         13    1    3    3    0    0  0.21182054317E+03 -0.20018983455E+02 -0.12370250164E+03  0.24611178582E+03  0.00000000000E+00 0.  1.
          1    1    3    3  501    0 -0.19869794780E+03  0.56023747154E+02  0.62654918564E+02  0.21574330471E+03  0.00000000000E+00 0.  1.
         21    1    1    2  502  501 -0.13122595365E+02 -0.36004763699E+02  0.13548945923E+02  0.40646272323E+02  0.00000000000E+00 0.  1.
<scales pt_clust_4="550.00000" pt_clust_5="550.00000" pt_clust_6="38.32161"></scales>
<mgrwt>
<rscale>  0 0.30000000E+03</rscale>
<asrwt>  1 0.38321606E+02</asrwt>
<pdfrwt beam="1">  1        1 0.82727768E+00 0.30000000E+03</pdfrwt>
<pdfrwt beam="2">0</pdfrwt>
<totfact> 0.61311621E-04</totfact>
</mgrwt>
<clustering>
<clus scale="   38.322">  1  6  2 -1</clus>
<clus scale="  456.196">  4  5 -1 -1</clus>
<clus scale="  300.000">  1  4  2 -1</clus>
</clustering>
</event>
<event>
 6    1  0.9254630E-012  0.3000000E+03  0.7818608E-02  0.1093470E+00
          1   -1    0    0  502    0  0.00000000000E+00  0.00000000000E+00  0.24107938811E+03  0.24107938811E+03  0.00000000000E+00 0.  1.
         13   -1    0    0    0    0 -0.00000000000E+00 -0.00000000000E+00 -0.27500000000E+03  0.27500000000E+03  0.00000000000E+00 0.  1.
    9000005    2    1    2  501    0  0.23650680900E+02 -0.25964209341E+02 -0.16049590763E+02  0.47667293851E+03  0.47510631028E+03 0.  0.
         13    1    3    3    0    0 -0.75397943237E+02 -0.22351458646E+03  0.59231758936E+02  0.24321188596E+03  0.00000000000E+00 0.  1.
          1    1    3    3  501    0  0.99048624138E+02  0.19755037712E+03 -0.75281349699E+02  0.23346105255E+03  0.00000000000E+00 0.  1.
         21    1    1    2  502  501 -0.23650680900E+02  0.25964209341E+02 -0.17871021132E+02  0.39406449600E+02  0.00000000000E+00 0.  1.
<scales pt_clust_4="550.00000" pt_clust_5="550.00000" pt_clust_6="35.12116"></scales>
<mgrwt>
<rscale>  0 0.30000000E+03</rscale>
<asrwt>  1 0.35121163E+02</asrwt>
<pdfrwt beam="1">  1        1 0.87665232E+00 0.30000000E+03</pdfrwt>
<pdfrwt beam="2">0</pdfrwt>
<totfact> 0.21575389E-04</totfact>
</mgrwt>
<clustering>
<clus scale="   35.121">  1  6  2 -1</clus>
<clus scale="  475.106">  4  5 -1 -1</clus>
<clus scale="  300.000">  1  4  2 -1</clus>
</clustering>
</event>
<event>
 6    1  0.9254630E-012  0.3000000E+03  0.7818608E-02  0.1093470E+00
          1   -1    0    0  502    0  0.00000000000E+00  0.00000000000E+00  0.23596783695E+03  0.23596783695E+03  0.00000000000E+00 0.  1.
         13   -1    0    0    0    0 -0.00000000000E+00 -0.00000000000E+00 -0.27500000000E+03  0.27500000000E+03  0.00000000000E+00 0.  1.
    9000005    2    1    2  501    0  0.31529459902E+02  0.28225773845E+02 -0.44819071579E+02  0.46825613526E+03  0.46418127696E+03 0.  0.
         13    1    3    3    0    0  0.32963717469E+02  0.16473349525E+03  0.15345174304E+03  0.22753278570E+03  0.00000000000E+00 0.  1.
          3    1    3    3  501    0 -0.14342575672E+01 -0.13650772140E+03 -0.19827081462E+03  0.24072334957E+03  0.00000000000E+00 0.  1.
         21    1    1    2  502  501 -0.31529459902E+02 -0.28225773845E+02  0.57869085334E+01  0.42711701690E+02  0.00000000000E+00 0.  1.
<scales pt_clust_4="550.00000" pt_clust_5="550.00000" pt_clust_6="42.31786"></scales>
<mgrwt>
<rscale>  0 0.30000000E+03</rscale>
<asrwt>  1 0.42317859E+02</asrwt>
<pdfrwt beam="1">  1        1 0.85806486E+00 0.30000000E+03</pdfrwt>
<pdfrwt beam="2">0</pdfrwt>
<totfact> 0.32742318E-04</totfact>
</mgrwt>
<clustering>
<clus scale="   42.318">  1  6  2 -1</clus>
<clus scale="  464.181">  4  5 -1 -1</clus>
<clus scale="  300.000">  1  4  2 -1</clus>
</clustering>
</event>
<event>
 6    1  0.9254630E-012  0.3000000E+03  0.7818608E-02  0.1093470E+00
          1   -1    0    0  502    0  0.00000000000E+00  0.00000000000E+00  0.23200783240E+03  0.23200783240E+03  0.00000000000E+00 0.  1.
         13   -1    0    0    0    0 -0.00000000000E+00 -0.00000000000E+00 -0.27500000000E+03  0.27500000000E+03  0.00000000000E+00 0.  1.
    9000005    2    1    2  501    0 -0.20648502002E+02  0.34123013743E+02 -0.59391981230E+02  0.46388365602E+03  0.45833382832E+03 0.  0.
         13    1    3    3    0    0 -0.96884880693E+02  0.12046099499E+03  0.15600532627E+03  0.21962511979E+03  0.00000000000E+00 0.  1.
          3    1    3    3  501    0  0.76236378691E+02 -0.86337981242E+02 -0.21539730750E+03  0.24425853622E+03  0.00000000000E+00 0.  1.
         21    1    1    2  502  501  0.20648502002E+02 -0.34123013743E+02  0.16399813633E+02  0.43124176387E+02  0.00000000000E+00 0. -1.
<scales pt_clust_4="550.00000" pt_clust_5="550.00000" pt_clust_6="39.88409"></scales>
<mgrwt>
<rscale>  0 0.30000000E+03</rscale>
<asrwt>  1 0.39884091E+02</asrwt>
<pdfrwt beam="1">  1        1 0.84366485E+00 0.30000000E+03</pdfrwt>
<pdfrwt beam="2">0</pdfrwt>
<totfact> 0.45291484E-04</totfact>
</mgrwt>
<clustering>
<clus scale="   39.884">  1  6  2 -1</clus>
<clus scale="  458.334">  4  5 -1 -1</clus>
<clus scale="  300.000">  1  4  2 -1</clus>
</clustering>
</event>
<event>
 6    1  0.9254630E-012  0.3000000E+03  0.7818608E-02  0.1093470E+00
          1   -1    0    0  502    0  0.00000000000E+00  0.00000000000E+00  0.23775290048E+03  0.23775290048E+03  0.00000000000E+00 0.  1.
         13   -1    0    0    0    0 -0.00000000000E+00 -0.00000000000E+00 -0.27500000000E+03  0.27500000000E+03  0.00000000000E+00 0.  1.
    9000005    2    1    2  501    0  0.28642199992E+02  0.33002194512E+02 -0.49666146159E+02  0.46732435018E+03  0.46261841915E+03 0.  0.
         13    1    3    3    0    0 -0.16146097228E+03 -0.19089159897E+01  0.12702760852E+03  0.20544902739E+03  0.00000000000E+00 0.  1.
          1    1    3    3  501    0  0.19010317227E+03  0.34911110502E+02 -0.17669375468E+03  0.26187532279E+03  0.00000000000E+00 0.  1.
         21    1    1    2  502  501 -0.28642199992E+02 -0.33002194512E+02  0.12419046643E+02  0.45428550302E+02  0.00000000000E+00 0. -1.
<scales pt_clust_4="550.00000" pt_clust_5="550.00000" pt_clust_6="43.69806"></scales>
<mgrwt>
<rscale>  0 0.30000000E+03</rscale>
<asrwt>  1 0.43698060E+02</asrwt>
<pdfrwt beam="1">  1        1 0.86455600E+00 0.30000000E+03</pdfrwt>
<pdfrwt beam="2">0</pdfrwt>
<totfact> 0.27735206E-04</totfact>
</mgrwt>
<clustering>
<clus scale="   43.698">  1  6  2 -1</clus>
<clus scale="  462.618">  4  5 -1 -1</clus>
<clus scale="  300.000">  1  4  2 -1</clus>
</clustering>
</event>
<event>
 6    1  0.9254630E-012  0.3000000E+03  0.7818608E-02  0.1093470E+00
          1   -1    0    0  502    0  0.00000000000E+00  0.00000000000E+00  0.23557550470E+03  0.23557550470E+03  0.00000000000E+00 0.  1.
         13   -1    0    0    0    0 -0.00000000000E+00 -0.00000000000E+00 -0.27500000000E+03  0.27500000000E+03  0.00000000000E+00 0.  1.
    9000005    2    1    2  501    0  0.19487082459E+02  0.34463735926E+02 -0.25602019998E+02  0.46864036072E+03  0.46626261784E+03 0.  0.
         13    1    3    3    0    0  0.20065033811E+03  0.12041170898E+03 -0.10038673325E+03  0.25463117259E+03  0.00000000000E+00 0.  1.
          3    1    3    3  501    0 -0.18116325565E+03 -0.85947973056E+02  0.74784713254E+02  0.21400918813E+03  0.00000000000E+00 0.  1.
         21    1    1    2  502  501 -0.19487082459E+02 -0.34463735926E+02 -0.13822475303E+02  0.41935143975E+02  0.00000000000E+00 0.  1.
<scales pt_clust_4="550.00000" pt_clust_5="550.00000" pt_clust_6="39.59163"></scales>
<mgrwt>
<rscale>  0 0.30000000E+03</rscale>
<asrwt>  1 0.39591628E+02</asrwt>
<pdfrwt beam="1">  1        1 0.85663820E+00 0.30000000E+03</pdfrwt>
<pdfrwt beam="2">0</pdfrwt>
<totfact> 0.34285023E-04</totfact>
</mgrwt>
<clustering>
<clus scale="   39.592">  1  6  2 -1</clus>
<clus scale="  466.263">  4  5 -1 -1</clus>
<clus scale="  300.000">  1  4  2 -1</clus>
</clustering>
</event>
<event>
 6    1  0.9254630E-012  0.3000000E+03  0.7818608E-02  0.1093470E+00
          1   -1    0    0  502    0  0.00000000000E+00  0.00000000000E+00  0.23590155494E+03  0.23590155494E+03  0.00000000000E+00 0.  1.
         13   -1    0    0    0    0 -0.00000000000E+00 -0.00000000000E+00 -0.27500000000E+03  0.27500000000E+03  0.00000000000E+00 0.  1.
    9000005    2    1    2  501    0  0.14351419459E+02  0.32765645022E+02 -0.47426023446E+02  0.47417419053E+03  0.47043850239E+03 0.  0.
         13    1    3    3    0    0  0.21609888774E+02 -0.69557933518E+02 -0.24280954116E+03  0.25349904672E+03  0.00000000000E+00 0.  1.
          3    1    3    3  501    0 -0.72584693153E+01  0.10232357854E+03  0.19538351772E+03  0.22067514381E+03  0.00000000000E+00 0.  1.
         21    1    1    2  502  501 -0.14351419459E+02 -0.32765645022E+02  0.83275783816E+01  0.36727364402E+02  0.00000000000E+00 0. -1.
<scales pt_clust_4="550.00000" pt_clust_5="550.00000" pt_clust_6="35.77081"></scales>
<mgrwt>
<rscale>  0 0.30000000E+03</rscale>
<asrwt>  1 0.35770808E+02</asrwt>
<pdfrwt beam="1">  1        1 0.85782384E+00 0.30000000E+03</pdfrwt>
<pdfrwt beam="2">0</pdfrwt>
<totfact> 0.33963348E-04</totfact>
</mgrwt>
<clustering>
<clus scale="   35.771">  1  6  2 -1</clus>
<clus scale="  470.439">  4  5 -1 -1</clus>
<clus scale="  300.000">  1  4  2 -1</clus>
</clustering>
</event>
<event>
 6    1  0.9254630E-012  0.3000000E+03  0.7818608E-02  0.1093470E+00
          1   -1    0    0  502    0  0.00000000000E+00  0.00000000000E+00  0.23101875781E+03  0.23101875781E+03  0.00000000000E+00 0.  1.
         13   -1    0    0    0    0 -0.00000000000E+00 -0.00000000000E+00 -0.27500000000E+03  0.27500000000E+03  0.00000000000E+00 0.  1.
    9000005    2    1    2  501    0  0.38494812946E+02  0.52441050514E+00 -0.54589584280E+02  0.46608553164E+03  0.46127386059E+03 0.  0.
         13    1    3    3    0    0 -0.11983986328E+03  0.18413345592E+03 -0.12884108124E+02  0.22007435712E+03  0.00000000000E+00 0.  1.
          1    1    3    3  501    0  0.15833467622E+03 -0.18360904541E+03 -0.41705476156E+02  0.24601117453E+03  0.00000000000E+00 0.  1.
         21    1    1    2  502  501 -0.38494812946E+02 -0.52441050514E+00  0.10608342090E+02  0.39933226166E+02  0.00000000000E+00 0. -1.
<scales pt_clust_4="550.00000" pt_clust_5="550.00000" pt_clust_6="38.49838"></scales>
<mgrwt>
<rscale>  0 0.30000000E+03</rscale>
<asrwt>  1 0.38498385E+02</asrwt>
<pdfrwt beam="1">  1        1 0.84006821E+00 0.30000000E+03</pdfrwt>
<pdfrwt beam="2">0</pdfrwt>
<totfact> 0.48775046E-04</totfact>
</mgrwt>
<clustering>
<clus scale="   38.498">  1  6  2 -1</clus>
<clus scale="  461.274">  4  5 -1 -1</clus>
<clus scale="  300.000">  1  4  2 -1</clus>
</clustering>
</event>
<event>
 6    1  0.9254630E-012  0.3000000E+03  0.7818608E-02  0.1093470E+00
          1   -1    0    0  502    0  0.00000000000E+00  0.00000000000E+00  0.22881517664E+03  0.22881517664E+03  0.00000000000E+00 0.  1.
         13   -1    0    0    0    0 -0.00000000000E+00 -0.00000000000E+00 -0.27500000000E+03  0.27500000000E+03  0.00000000000E+00 0.  1.
    9000005    2    1    2  501    0  0.28185609611E+02 -0.10495395661E+02 -0.48683516663E+02  0.47363529282E+03  0.47016563453E+03 0.  0.
         13    1    3    3    0    0  0.96875057719E+02 -0.12222322661E+02  0.19627554317E+03  0.21922192141E+03  0.00000000000E+00 0.  1.
          3    1    3    3  501    0 -0.68689448108E+02  0.17269269996E+01 -0.24495905983E+03  0.25441337141E+03  0.00000000000E+00 0.  1.
         21    1    1    2  502  501 -0.28185609611E+02  0.10495395661E+02  0.24986933041E+01  0.30179883821E+02  0.00000000000E+00 0.  1.
<scales pt_clust_4="550.00000" pt_clust_5="550.00000" pt_clust_6="30.07627"></scales>
<mgrwt>
<rscale>  0 0.30000000E+03</rscale>
<asrwt>  1 0.30076268E+02</asrwt>
<pdfrwt beam="1">  1        1 0.83205519E+00 0.30000000E+03</pdfrwt>
<pdfrwt beam="2">0</pdfrwt>
<totfact> 0.58573507E-04</totfact>
</mgrwt>
<clustering>
<clus scale="   30.076">  1  6  2 -1</clus>
<clus scale="  470.166">  4  5 -1 -1</clus>
<clus scale="  300.000">  1  4  2 -1</clus>
</clustering>
</event>
<event>
 6    1  0.9254630E-012  0.3000000E+03  0.7818608E-02  0.1093470E+00
          1   -1    0    0  502    0  0.00000000000E+00  0.00000000000E+00  0.23928139920E+03  0.23928139920E+03  0.00000000000E+00 0.  1.
         13   -1    0    0    0    0 -0.00000000000E+00 -0.00000000000E+00 -0.27500000000E+03  0.27500000000E+03  0.00000000000E+00 0.  1.
    9000005    2    1    2  501    0  0.20323358616E+02 -0.37893675316E+02 -0.41746287180E+02  0.47086132852E+03  0.46703176409E+03 0.  0.
         13    1    3    3    0    0 -0.13203918479E+03  0.15915012285E+03  0.36058587722E+02  0.20991267153E+03  0.00000000000E+00 0.  1.
          3    1    3    3  501    0  0.15236254340E+03 -0.19704379816E+03 -0.77804874901E+02  0.26094865699E+03  0.00000000000E+00 0.  1.
         21    1    1    2  502  501 -0.20323358616E+02  0.37893675316E+02  0.60276863777E+01  0.43420070676E+02  0.00000000000E+00 0.  1.
<scales pt_clust_4="550.00000" pt_clust_5="550.00000" pt_clust_6="42.99965"></scales>
<mgrwt>
<rscale>  0 0.30000000E+03</rscale>
<asrwt>  1 0.42999646E+02</asrwt>
<pdfrwt beam="1">  1        1 0.87011418E+00 0.30000000E+03</pdfrwt>
<pdfrwt beam="2">0</pdfrwt>
<totfact> 0.24320773E-04</totfact>
</mgrwt>
<clustering>
<clus scale="   43.000">  1  6  2 -1</clus>
<clus scale="  467.032">  4  5 -1 -1</clus>
<clus scale="  300.000">  1  4  2 -1</clus>
</clustering>
</event>
<event>
 6    1  0.9254630E-012  0.3000000E+03  0.7818608E-02  0.1093470E+00
          1   -1    0    0  502    0  0.00000000000E+00  0.00000000000E+00  0.23516907813E+03  0.23516907813E+03  0.00000000000E+00 0.  1.
         13   -1    0    0    0    0 -0.00000000000E+00 -0.00000000000E+00 -0.27500000000E+03  0.27500000000E+03  0.00000000000E+00 0.  1.
    9000005    2    1    2  501    0  0.10279560385E+01 -0.30110347845E+02 -0.44604952569E+02  0.47966528968E+03  0.47663560356E+03 0.  0.
         13    1    3    3    0    0  0.71690561343E+02 -0.23736594223E+03 -0.73923282074E+02  0.25874075587E+03  0.00000000000E+00 0.  1.
          1    1    3    3  501    0 -0.70662605304E+02  0.20725559438E+03  0.29318329504E+02  0.22092453380E+03  0.00000000000E+00 0.  1.
         21    1    1    2  502  501 -0.10279560385E+01  0.30110347845E+02  0.47740306990E+01  0.30503788455E+02  0.00000000000E+00 0.  1.
<scales pt_clust_4="550.00000" pt_clust_5="550.00000" pt_clust_6="30.12789"></scales>
<mgrwt>
<rscale>  0 0.30000000E+03</rscale>
<asrwt>  1 0.30127890E+02</asrwt>
<pdfrwt beam="1">  1        1 0.85516028E+00 0.30000000E+03</pdfrwt>
<pdfrwt beam="2">0</pdfrwt>
<totfact> 0.37347421E-04</totfact>
</mgrwt>
<clustering>
<clus scale="   30.128">  1  6  2 -1</clus>
<clus scale="  476.636">  4  5 -1 -1</clus>
<clus scale="  300.000">  1  4  2 -1</clus>
</clustering>
</event>
<event>
 6    1  0.9254630E-012  0.3000000E+03  0.7818608E-02  0.1093470E+00
          1   -1    0    0  502    0  0.00000000000E+00  0.00000000000E+00  0.22410689086E+03  0.22410689086E+03  0.00000000000E+00 0.  1.
         13   -1    0    0    0    0 -0.00000000000E+00 -0.00000000000E+00 -0.27500000000E+03  0.27500000000E+03  0.00000000000E+00 0.  1.
    9000005    2    1    2  501    0 -0.12000145680E+02 -0.33397361273E+02 -0.54990827775E+02  0.46338324975E+03  0.45873811458E+03 0.  0.
         13    1    3    3    0    0 -0.81851466121E+02 -0.13430507474E+03 -0.21208065832E+03  0.26403734820E+03  0.00000000000E+00 0.  1.
          3    1    3    3  501    0  0.69851320441E+02  0.10090771347E+03  0.15708983055E+03  0.19934590155E+03  0.00000000000E+00 0.  1.
         21    1    1    2  502  501  0.12000145680E+02  0.33397361273E+02  0.40977186363E+01  0.35723641113E+02  0.00000000000E+00 0.  1.
<scales pt_clust_4="550.00000" pt_clust_5="550.00000" pt_clust_6="35.48785"></scales>
<mgrwt>
<rscale>  0 0.30000000E+03</rscale>
<asrwt>  1 0.35487846E+02</asrwt>
<pdfrwt beam="1">  1        1 0.81493415E+00 0.30000000E+03</pdfrwt>
<pdfrwt beam="2">0</pdfrwt>
<totfact> 0.79496058E-04</totfact>
</mgrwt>
<clustering>
<clus scale="   35.488">  1  6  2 -1</clus>
<clus scale="  458.738">  4  5 -1 -1</clus>
<clus scale="  300.000">  1  4  2 -1</clus>
</clustering>
</event>
<event>
 6    1  0.9254630E-012  0.3000000E+03  0.7818608E-02  0.1093470E+00
          1   -1    0    0  502    0  0.00000000000E+00  0.00000000000E+00  0.24856092311E+03  0.24856092311E+03  0.00000000000E+00 0.  1.
         13   -1    0    0    0    0 -0.00000000000E+00 -0.00000000000E+00 -0.27500000000E+03  0.27500000000E+03  0.00000000000E+00 0.  1.
    9000005    2    1    2  501    0 -0.52837622357E+02  0.21075762247E+02 -0.48102467326E+02  0.46268971008E+03  0.45665295177E+03 0.  0.
         13    1    3    3    0    0  0.10197891163E+03 -0.11378182270E+03 -0.16625644645E+03  0.22580347114E+03  0.00000000000E+00 0.  1.
          1    1    3    3  501    0 -0.15481653399E+03  0.13485758494E+03  0.11815397913E+03  0.23688623893E+03  0.00000000000E+00 0.  1.
         21    1    1    2  502  501  0.52837622357E+02 -0.21075762247E+02  0.21663390436E+02  0.60871213031E+02  0.00000000000E+00 0. -1.
<scales pt_clust_4="550.00000" pt_clust_5="550.00000" pt_clust_6="56.88587"></scales>
<mgrwt>
<rscale>  0 0.30000000E+03</rscale>
<asrwt>  1 0.56885869E+02</asrwt>
<pdfrwt beam="1">  1        1 0.90385790E+00 0.30000000E+03</pdfrwt>
<pdfrwt beam="2">0</pdfrwt>
<totfact> 0.88896285E-05</totfact>
</mgrwt>
<clustering>
<clus scale="   56.886">  1  6  2 -1</clus>
<clus scale="  456.653">  4  5 -1 -1</clus>
<clus scale="  300.000">  1  4  2 -1</clus>
</clustering>
</event>
<event>
 6    1  0.9254630E-012  0.3000000E+03  0.7818608E-02  0.1093470E+00
          1   -1    0    0  502    0  0.00000000000E+00  0.00000000000E+00  0.23773263442E+03  0.23773263442E+03  0.00000000000E+00 0.  1.
         13   -1    0    0    0    0 -0.00000000000E+00 -0.00000000000E+00 -0.27500000000E+03  0.27500000000E+03  0.00000000000E+00 0.  1.
    9000005    2    1    2  501    0  0.34406095494E+02  0.22859168973E+02 -0.48597022798E+02  0.46989944465E+03  0.46555074529E+03 0.  0.
         13    1    3    3    0    0 -0.56770502942E+02  0.13536940973E+03 -0.20797130900E+03  0.25455811215E+03  0.00000000000E+00 0.  1.
          1    1    3    3  501    0  0.91176598435E+02 -0.11251024076E+03  0.15937428620E+03  0.21534133250E+03  0.00000000000E+00 0.  1.
         21    1    1    2  502  501 -0.34406095494E+02 -0.22859168973E+02  0.11329657218E+02  0.42833189771E+02  0.00000000000E+00 0. -1.
<scales pt_clust_4="550.00000" pt_clust_5="550.00000" pt_clust_6="41.30764"></scales>
<mgrwt>
<rscale>  0 0.30000000E+03</rscale>
<asrwt>  1 0.41307639E+02</asrwt>
<pdfrwt beam="1">  1        1 0.86448231E+00 0.30000000E+03</pdfrwt>
<pdfrwt beam="2">0</pdfrwt>
<totfact> 0.28069582E-04</totfact>
</mgrwt>
<clustering>
<clus scale="   41.308">  1  6  2 -1</clus>
<clus scale="  465.551">  4  5 -1 -1</clus>
<clus scale="  300.000">  1  4  2 -1</clus>
</clustering>
</event>
<event>
 6    1  0.9254630E-012  0.3000000E+03  0.7818608E-02  0.1093470E+00
          1   -1    0    0  502    0  0.00000000000E+00  0.00000000000E+00  0.22370115250E+03  0.22370115250E+03  0.00000000000E+00 0.  1.
         13   -1    0    0    0    0 -0.00000000000E+00 -0.00000000000E+00 -0.27500000000E+03  0.27500000000E+03  0.00000000000E+00 0.  1.
    9000005    2    1    2  501    0  0.11297438244E+02 -0.28235657261E+02 -0.61995176868E+02  0.46646303975E+03  0.46132361856E+03 0.  0.
         13    1    3    3    0    0  0.94236090577E+02 -0.18489606546E+03 -0.16170031472E+03  0.26308551380E+03  0.00000000000E+00 0.  1.
          3    1    3    3  501    0 -0.82938652333E+02  0.15666040820E+03  0.99705137853E+02  0.20337752595E+03  0.00000000000E+00 0.  1.
         21    1    1    2  502  501 -0.11297438244E+02  0.28235657261E+02  0.10696329370E+02  0.32238112752E+02  0.00000000000E+00 0. -1.
<scales pt_clust_4="550.00000" pt_clust_5="550.00000" pt_clust_6="30.41191"></scales>
<mgrwt>
<rscale>  0 0.30000000E+03</rscale>
<asrwt>  1 0.30411913E+02</asrwt>
<pdfrwt beam="1">  1        1 0.81345874E+00 0.30000000E+03</pdfrwt>
<pdfrwt beam="2">0</pdfrwt>
<totfact> 0.84116397E-04</totfact>
</mgrwt>
<clustering>
<clus scale="   30.412">  1  6  2 -1</clus>
<clus scale="  461.324">  4  5 -1 -1</clus>
<clus scale="  300.000">  1  4  2 -1</clus>
</clustering>
</event>
<event>
 6    1  0.9254630E-012  0.3000000E+03  0.7818608E-02  0.1093470E+00
          1   -1    0    0  502    0  0.00000000000E+00  0.00000000000E+00  0.24993991668E+03  0.24993991668E+03  0.00000000000E+00 0.  1.
         13   -1    0    0    0    0 -0.00000000000E+00 -0.00000000000E+00 -0.27500000000E+03  0.27500000000E+03  0.00000000000E+00 0.  1.
    9000005    2    1    2  501    0 -0.18771283474E+02  0.42217506085E+02 -0.25029977769E+02  0.47873732141E+03  0.47584476904E+03 0.  0.
         13    1    3    3    0    0  0.22485015403E+03  0.49927129474E+02  0.18769040334E+02  0.23108999740E+03  0.00000000000E+00 0.  1.
          3    1    3    3  501    0 -0.24362143750E+03 -0.77096233891E+01 -0.43799018103E+02  0.24764732401E+03  0.00000000000E+00 0.  1.
         21    1    1    2  502  501  0.18771283474E+02 -0.42217506085E+02 -0.30105547028E-01  0.46202595269E+02  0.00000000000E+00 0.  1.
<scales pt_clust_4="550.00000" pt_clust_5="550.00000" pt_clust_6="46.20259"></scales>
<mgrwt>
<rscale>  0 0.30000000E+03</rscale>
<asrwt>  1 0.46202585E+02</asrwt>
<pdfrwt beam="1">  1        1 0.90887242E+00 0.30000000E+03</pdfrwt>
<pdfrwt beam="2">0</pdfrwt>
<totfact> 0.72681833E-05</totfact>
</mgrwt>
<clustering>
<clus scale="   46.203">  1  6  2 -1</clus>
<clus scale="  475.845">  4  5 -1 -1</clus>
<clus scale="  300.000">  1  4  2 -1</clus>
</clustering>
</event>
<event>
 6    1  0.9254630E-012  0.3000000E+03  0.7818608E-02  0.1093470E+00
          1   -1    0    0  502    0  0.00000000000E+00  0.00000000000E+00  0.24420511566E+03  0.24420511566E+03  0.00000000000E+00 0.  1.
         13   -1    0    0    0    0 -0.00000000000E+00 -0.00000000000E+00 -0.27500000000E+03  0.27500000000E+03  0.00000000000E+00 0.  1.
    9000005    2    1    2  501    0 -0.40083121654E+02  0.24808369144E+02 -0.53396157261E+02  0.46692768880E+03  0.46146311352E+03 0.  0.
         13    1    3    3    0    0 -0.12954890067E+02 -0.39854216096E+02  0.19982734159E+03  0.20417432298E+03  0.00000000000E+00 0.  1.
          3    1    3    3  501    0 -0.27128231587E+02  0.64662585240E+02 -0.25322349885E+03  0.26275336582E+03  0.00000000000E+00 0.  1.
         21    1    1    2  502  501  0.40083121654E+02 -0.24808369144E+02  0.22601272923E+02  0.52277426858E+02  0.00000000000E+00 0.  1.
<scales pt_clust_4="550.00000" pt_clust_5="550.00000" pt_clust_6="47.13928"></scales>
<mgrwt>
<rscale>  0 0.30000000E+03</rscale>
<asrwt>  1 0.47139281E+02</asrwt>
<pdfrwt beam="1">  1        1 0.88801860E+00 0.30000000E+03</pdfrwt>
<pdfrwt beam="2">0</pdfrwt>
<totfact> 0.14606909E-04</totfact>
</mgrwt>
<clustering>
<clus scale="   47.139">  1  6  2 -1</clus>
<clus scale="  461.463">  4  5 -1 -1</clus>
<clus scale="  300.000">  1  4  2 -1</clus>
</clustering>
</event>
<event>
 6    1  0.9254630E-012  0.3000000E+03  0.7818608E-02  0.1093470E+00
          1   -1    0    0  502    0  0.00000000000E+00  0.00000000000E+00  0.23756457273E+03  0.23756457273E+03  0.00000000000E+00 0.  1.
         13   -1    0    0    0    0 -0.00000000000E+00 -0.00000000000E+00 -0.27500000000E+03  0.27500000000E+03  0.00000000000E+00 0.  1.
    9000005    2    1    2  501    0  0.32001556570E+02 -0.59143000452E+01 -0.48797265948E+02  0.47809473162E+03  0.47448321432E+03 0.  0.
         13    1    3    3    0    0 -0.20407969460E+03 -0.87652473004E+02  0.65621927796E+01  0.22220382568E+03  0.00000000000E+00 0.  1.
          1    1    3    3  501    0  0.23608125117E+03  0.81738172959E+02 -0.55359458727E+02  0.25589090594E+03  0.00000000000E+00 0.  1.
         21    1    1    2  502  501 -0.32001556570E+02  0.59143000452E+01  0.11361838679E+02  0.34469841109E+02  0.00000000000E+00 0.  1.
<scales pt_clust_4="550.00000" pt_clust_5="550.00000" pt_clust_6="32.54349"></scales>
<mgrwt>
<rscale>  0 0.30000000E+03</rscale>
<asrwt>  1 0.32543487E+02</asrwt>
<pdfrwt beam="1">  1        1 0.86387117E+00 0.30000000E+03</pdfrwt>
<pdfrwt beam="2">0</pdfrwt>
<totfact> 0.29788214E-04</totfact>
</mgrwt>
<clustering>
<clus scale="   32.543">  1  6  2 -1</clus>
<clus scale="  474.483">  4  5 -1 -1</clus>
<clus scale="  300.000">  1  4  2 -1</clus>
</clustering>
</event>
<event>
 6    1  0.9254630E-012  0.3000000E+03  0.7818608E-02  0.1093470E+00
          1   -1    0    0  502    0  0.00000000000E+00  0.00000000000E+00  0.24273075113E+03  0.24273075113E+03  0.00000000000E+00 0.  1.
         13   -1    0    0    0    0 -0.00000000000E+00 -0.00000000000E+00 -0.27500000000E+03  0.27500000000E+03  0.00000000000E+00 0.  1.
    9000005    2    1    2  501    0 -0.23040458958E+02 -0.19364251423E+02 -0.49229847795E+02  0.48318369774E+03  0.47972603730E+03 0.  0.
         13    1    3    3    0    0 -0.17498620734E+03 -0.18578979704E+03 -0.21413817684E+02  0.25611827938E+03  0.00000000000E+00 0.  1.
          3    1    3    3  501    0  0.15194574838E+03  0.16642554562E+03 -0.27816030111E+02  0.22706541836E+03  0.00000000000E+00 0.  1.
         21    1    1    2  502  501  0.23040458958E+02  0.19364251423E+02  0.16960598924E+02  0.34547053392E+02  0.00000000000E+00 0.  1.
<scales pt_clust_4="550.00000" pt_clust_5="550.00000" pt_clust_6="30.09713"></scales>
<mgrwt>
<rscale>  0 0.30000000E+03</rscale>
<asrwt>  1 0.30097126E+02</asrwt>
<pdfrwt beam="1">  1        1 0.88265728E+00 0.30000000E+03</pdfrwt>
<pdfrwt beam="2">0</pdfrwt>
<totfact> 0.18781479E-04</totfact>
</mgrwt>
<clustering>
<clus scale="   30.097">  1  6  2 -1</clus>
<clus scale="  479.726">  4  5 -1 -1</clus>
<clus scale="  300.000">  1  4  2 -1</clus>
</clustering>
</event>
<event>
 6    1  0.9254630E-012  0.3000000E+03  0.7818608E-02  0.1093470E+00
          1   -1    0    0  502    0  0.00000000000E+00  0.00000000000E+00  0.22378803089E+03  0.22378803089E+03  0.00000000000E+00 0.  1.
         13   -1    0    0    0    0 -0.00000000000E+00 -0.00000000000E+00 -0.27500000000E+03  0.27500000000E+03  0.00000000000E+00 0.  1.
    9000005    2    1    2  501    0 -0.30429212945E+02 -0.53212417436E+01 -0.67571065091E+02  0.46383273608E+03  0.45784353835E+03 0.  0.
         13    1    3    3    0    0 -0.11614476259E+03  0.88687198726E+02 -0.22073535759E+03  0.26472461764E+03  0.00000000000E+00 0.  1.
          1    1    3    3  501    0  0.85715549644E+02 -0.94008440470E+02  0.15316429250E+03  0.19910811844E+03  0.00000000000E+00 0.  1.
         21    1    1    2  502  501  0.30429212945E+02  0.53212417436E+01  0.16359095982E+02  0.34955294813E+02  0.00000000000E+00 0. -1.
<scales pt_clust_4="550.00000" pt_clust_5="550.00000" pt_clust_6="30.89098"></scales>
<mgrwt>
<rscale>  0 0.30000000E+03</rscale>
<asrwt>  1 0.30890979E+02</asrwt>
<pdfrwt beam="1">  1        1 0.81377466E+00 0.30000000E+03</pdfrwt>
<pdfrwt beam="2">0</pdfrwt>
<totfact> 0.83378365E-04</totfact>
</mgrwt>
<clustering>
<clus scale="   30.891">  1  6  2 -1</clus>
<clus scale="  457.844">  4  5 -1 -1</clus>
<clus scale="  300.000">  1  4  2 -1</clus>
</clustering>
</event>
<event>
 6    1  0.9254630E-012  0.3000000E+03  0.7818608E-02  0.1093470E+00
          1   -1    0    0  502    0  0.00000000000E+00  0.00000000000E+00  0.24175281766E+03  0.24175281766E+03  0.00000000000E+00 0.  1.
         13   -1    0    0    0    0 -0.00000000000E+00 -0.00000000000E+00 -0.27500000000E+03  0.27500000000E+03  0.00000000000E+00 0.  1.
    9000005    2    1    2  501    0 -0.40457186537E+02 -0.43169028971E+01 -0.31249194829E+02  0.47601694222E+03  0.47324433173E+03 0.  0.
         13    1    3    3    0    0  0.11725041546E+03  0.13829697936E+03 -0.14745921005E+03  0.23370479895E+03  0.00000000000E+00 0.  1.
          3    1    3    3  501    0 -0.15770760200E+03 -0.14261388225E+03  0.11621001522E+03  0.24231214327E+03  0.00000000000E+00 0.  1.
         21    1    1    2  502  501  0.40457186537E+02  0.43169028971E+01 -0.19979875138E+01  0.40735875432E+02  0.00000000000E+00 0. -1.
<scales pt_clust_4="550.00000" pt_clust_5="550.00000" pt_clust_6="40.68685"></scales>
<mgrwt>
<rscale>  0 0.30000000E+03</rscale>
<asrwt>  1 0.40686848E+02</asrwt>
<pdfrwt beam="1">  1        1 0.87910116E+00 0.30000000E+03</pdfrwt>
<pdfrwt beam="2">0</pdfrwt>
<totfact> 0.19685577E-04</totfact>
</mgrwt>
<clustering>
<clus scale="   40.687">  1  6  2 -1</clus>
<clus scale="  473.244">  4  5 -1 -1</clus>
<clus scale="  300.000">  1  4  2 -1</clus>
</clustering>
</event>
<event>
 6    1  0.9254630E-012  0.3000000E+03  0.7818608E-02  0.1093470E+00
          1   -1    0    0  502    0  0.00000000000E+00  0.00000000000E+00  0.25892838164E+03  0.25892838164E+03  0.00000000000E+00 0.  1.
         13   -1    0    0    0    0 -0.00000000000E+00 -0.00000000000E+00 -0.27500000000E+03  0.27500000000E+03  0.00000000000E+00 0.  1.
    9000005    2    1    2  501    0 -0.27706203569E+02  0.15777762612E+02 -0.32503601510E+02  0.49805943157E+03  0.49597393253E+03 0.  0.
         13    1    3    3    0    0 -0.16648091983E+03  0.13142135080E+03  0.13523533402E+03  0.25154733885E+03  0.00000000000E+00 0.  1.
          3    1    3    3  501    0  0.13877471626E+03 -0.11564358819E+03 -0.16773893553E+03  0.24651209272E+03  0.00000000000E+00 0.  1.
         21    1    1    2  502  501  0.27706203569E+02 -0.15777762612E+02  0.16431983152E+02  0.35868950076E+02  0.00000000000E+00 0.  1.
<scales pt_clust_4="550.00000" pt_clust_5="550.00000" pt_clust_6="31.88372"></scales>
<mgrwt>
<rscale>  0 0.30000000E+03</rscale>
<asrwt>  1 0.31883719E+02</asrwt>
<pdfrwt beam="1">  1        1 0.94155775E+00 0.30000000E+03</pdfrwt>
<pdfrwt beam="2">0</pdfrwt>
<totfact> 0.18325857E-05</totfact>
</mgrwt>
<clustering>
<clus scale="   31.884">  1  6  2 -1</clus>
<clus scale="  495.974">  4  5 -1 -1</clus>
<clus scale="  300.000">  1  4  2 -1</clus>
</clustering>
</event>
<event>
 6    1  0.9254630E-012  0.3000000E+03  0.7818608E-02  0.1093470E+00
          1   -1    0    0  502    0  0.00000000000E+00  0.00000000000E+00  0.23175827975E+03  0.23175827975E+03  0.00000000000E+00 0.  1.
         13   -1    0    0    0    0 -0.00000000000E+00 -0.00000000000E+00 -0.27500000000E+03  0.27500000000E+03  0.00000000000E+00 0.  1.
    9000005    2    1    2  501    0  0.26125602267E+02 -0.20976961463E+02 -0.46784366374E+02  0.47306658422E+03  0.46955365632E+03 0.  0.
         13    1    3    3    0    0  0.22393013513E+03  0.89079868297E+02 -0.52432239974E+02  0.24663549652E+03  0.00000000000E+00 0.  1.
          1    1    3    3  501    0 -0.19780453287E+03 -0.11005682976E+03  0.56478735994E+01  0.22643108770E+03  0.00000000000E+00 0.  1.
         21    1    1    2  502  501 -0.26125602267E+02  0.20976961463E+02  0.35426461245E+01  0.33691695528E+02  0.00000000000E+00 0. -1.
<scales pt_clust_4="550.00000" pt_clust_5="550.00000" pt_clust_6="33.50493"></scales>
<mgrwt>
<rscale>  0 0.30000000E+03</rscale>
<asrwt>  1 0.33504925E+02</asrwt>
<pdfrwt beam="1">  1        1 0.84275738E+00 0.30000000E+03</pdfrwt>
<pdfrwt beam="2">0</pdfrwt>
<totfact> 0.47614552E-04</totfact>
</mgrwt>
<clustering>
<clus scale="   33.505">  1  6  2 -1</clus>
<clus scale="  469.554">  4  5 -1 -1</clus>
<clus scale="  300.000">  1  4  2 -1</clus>
</clustering>
</event>
<event>
 6    1  0.9254630E-012  0.3000000E+03  0.7818608E-02  0.1093470E+00
          1   -1    0    0  502    0  0.00000000000E+00  0.00000000000E+00  0.24578031292E+03  0.24578031292E+03  0.00000000000E+00 0.  1.
         13   -1    0    0    0    0 -0.00000000000E+00 -0.00000000000E+00 -0.27500000000E+03  0.27500000000E+03  0.00000000000E+00 0.  1.
    9000005    2    1    2  501    0  0.30503437940E+02 -0.24263363302E+02 -0.50104888802E+02  0.47656083558E+03  0.47231404765E+03 0.  0.
         13    1    3    3    0    0 -0.11482026098E+03 -0.15950110270E+03 -0.15659281061E+03  0.25128788755E+03  0.00000000000E+00 0.  1.
          3    1    3    3  501    0  0.14532369892E+03  0.13523773940E+03  0.10648792181E+03  0.22527294803E+03  0.00000000000E+00 0.  1.
         21    1    1    2  502  501 -0.30503437940E+02  0.24263363302E+02  0.20885201718E+02  0.44219477334E+02  0.00000000000E+00 0. -1.
<scales pt_clust_4="550.00000" pt_clust_5="550.00000" pt_clust_6="38.97654"></scales>
<mgrwt>
<rscale>  0 0.30000000E+03</rscale>
<asrwt>  1 0.38976538E+02</asrwt>
<pdfrwt beam="1">  1        1 0.89374659E+00 0.30000000E+03</pdfrwt>
<pdfrwt beam="2">0</pdfrwt>
<totfact> 0.12771977E-04</totfact>
</mgrwt>
<clustering>
<clus scale="   38.977">  1  6  2 -1</clus>
<clus scale="  472.314">  4  5 -1 -1</clus>
<clus scale="  300.000">  1  4  2 -1</clus>
</clustering>
</event>
<event>
 6    1  0.9254630E-012  0.3000000E+03  0.7818608E-02  0.1093470E+00
          1   -1    0    0  502    0  0.00000000000E+00  0.00000000000E+00  0.24231217271E+03  0.24231217271E+03  0.00000000000E+00 0.  1.
         13   -1    0    0    0    0 -0.00000000000E+00 -0.00000000000E+00 -0.27500000000E+03  0.27500000000E+03  0.00000000000E+00 0.  1.
    9000005    2    1    2  501    0  0.34037566456E+02 -0.19362060198E+01 -0.56334425349E+02  0.47582161446E+03  0.47124339410E+03 0.  0.
         13    1    3    3    0    0 -0.10129384009E+03  0.18735350780E+03  0.51861160126E+02  0.21920620168E+03  0.00000000000E+00 0.  1.
          3    1    3    3  501    0  0.13533140655E+03 -0.18928971382E+03 -0.10819558548E+03  0.25661541278E+03  0.00000000000E+00 0.  1.
         21    1    1    2  502  501 -0.34037566456E+02  0.19362060198E+01  0.23646598060E+02  0.41490558249E+02  0.00000000000E+00 0. -1.
<scales pt_clust_4="550.00000" pt_clust_5="550.00000" pt_clust_6="34.09259"></scales>
<mgrwt>
<rscale>  0 0.30000000E+03</rscale>
<asrwt>  1 0.34092592E+02</asrwt>
<pdfrwt beam="1">  1        1 0.88113517E+00 0.30000000E+03</pdfrwt>
<pdfrwt beam="2">0</pdfrwt>
<totfact> 0.19195708E-04</totfact>
</mgrwt>
<clustering>
<clus scale="   34.093">  1  6  2 -1</clus>
<clus scale="  471.243">  4  5 -1 -1</clus>
<clus scale="  300.000">  1  4  2 -1</clus>
</clustering>
</event>
<event>
 6    1  0.9254630E-012  0.3000000E+03  0.7818608E-02  0.1093470E+00
          1   -1    0    0  502    0  0.00000000000E+00  0.00000000000E+00  0.24591986633E+03  0.24591986633E+03  0.00000000000E+00 0.  1.
         13   -1    0    0    0    0 -0.00000000000E+00 -0.00000000000E+00 -0.27500000000E+03  0.27500000000E+03  0.00000000000E+00 0.  1.
    9000005    2    1    2  501    0 -0.23474649391E+02 -0.26817582580E+02 -0.28007851168E+02  0.48526328644E+03  0.48314156884E+03 0.  0.
         13    1    3    3    0    0 -0.20032330375E+03 -0.25912723149E+01  0.13657755150E+03  0.24246560229E+03  0.00000000000E+00 0.  1.
          3    1    3    3  501    0  0.17684865436E+03 -0.24226310265E+02 -0.16458540267E+03  0.24279768415E+03  0.00000000000E+00 0.  1.
         21    1    1    2  502  501  0.23474649391E+02  0.26817582580E+02 -0.10722825033E+01  0.35656579887E+02  0.00000000000E+00 0.  1.
<scales pt_clust_4="550.00000" pt_clust_5="550.00000" pt_clust_6="35.64045"></scales>
<mgrwt>
<rscale>  0 0.30000000E+03</rscale>
<asrwt>  1 0.35640453E+02</asrwt>
<pdfrwt beam="1">  1        1 0.89425406E+00 0.30000000E+03</pdfrwt>
<pdfrwt beam="2">0</pdfrwt>
<totfact> 0.12812636E-04</totfact>
</mgrwt>
<clustering>
<clus scale="   35.640">  1  6  2 -1</clus>
<clus scale="  483.142">  4  5 -1 -1</clus>
<clus scale="  300.000">  1  4  2 -1</clus>
</clustering>
</event>
<event>
 6    1  0.9254630E-012  0.3000000E+03  0.7818608E-02  0.1093470E+00
          1   -1    0    0  502    0  0.00000000000E+00  0.00000000000E+00  0.22382696772E+03  0.22382696772E+03  0.00000000000E+00 0.  1.
         13   -1    0    0    0    0 -0.00000000000E+00 -0.00000000000E+00 -0.27500000000E+03  0.27500000000E+03  0.00000000000E+00 0.  1.
    9000005    2    1    2  501    0 -0.29055988266E+02  0.91030735465E+01 -0.57755328229E+02  0.46767503324E+03  0.46309517637E+03 0.  0.
         13    1    3    3    0    0 -0.12698694098E+03 -0.15854685785E+03 -0.15020136480E+03  0.25263261725E+03  0.00000000000E+00 0.  1.
          1    1    3    3  501    0  0.97930952712E+02  0.16764993139E+03  0.92446036570E+02  0.21504241599E+03  0.00000000000E+00 0.  1.
         21    1    1    2  502  501  0.29055988266E+02 -0.91030735465E+01  0.65822959504E+01  0.31151934484E+02  0.00000000000E+00 0.  1.
<scales pt_clust_4="550.00000" pt_clust_5="550.00000" pt_clust_6="30.44859"></scales>
<mgrwt>
<rscale>  0 0.30000000E+03</rscale>
<asrwt>  1 0.30448586E+02</asrwt>
<pdfrwt beam="1">  1        1 0.81391625E+00 0.30000000E+03</pdfrwt>
<pdfrwt beam="2">0</pdfrwt>
<totfact> 0.83391452E-04</totfact>
</mgrwt>
<clustering>
<clus scale="   30.449">  1  6  2 -1</clus>
<clus scale="  463.095">  4  5 -1 -1</clus>
<clus scale="  300.000">  1  4  2 -1</clus>
</clustering>
</event>
<event>
 6    1  0.9254630E-012  0.3000000E+03  0.7818608E-02  0.1093470E+00
          1   -1    0    0  502    0  0.00000000000E+00  0.00000000000E+00  0.24375233112E+03  0.24375233112E+03  0.00000000000E+00 0.  1.
         13   -1    0    0    0    0 -0.00000000000E+00 -0.00000000000E+00 -0.27500000000E+03  0.27500000000E+03  0.00000000000E+00 0.  1.
    9000005    2    1    2  501    0 -0.10883400183E+02  0.31309834453E+02 -0.13691384709E+02  0.48124263575E+03  0.47990443456E+03 0.  0.
         13    1    3    3    0    0 -0.18518595471E+03 -0.13424882652E+03  0.46538505676E+02  0.23341469053E+03  0.00000000000E+00 0.  1.
          1    1    3    3  501    0  0.17430255453E+03  0.16555866097E+03 -0.60229890385E+02  0.24782794522E+03  0.00000000000E+00 0.  1.
         21    1    1    2  502  501  0.10883400183E+02 -0.31309834453E+02 -0.17556284170E+02  0.37509695372E+02  0.00000000000E+00 0. -1.
<scales pt_clust_4="550.00000" pt_clust_5="550.00000" pt_clust_6="33.14748"></scales>
<mgrwt>
<rscale>  0 0.30000000E+03</rscale>
<asrwt>  1 0.33147477E+02</asrwt>
<pdfrwt beam="1">  1        1 0.88637211E+00 0.30000000E+03</pdfrwt>
<pdfrwt beam="2">0</pdfrwt>
<totfact> 0.16415414E-04</totfact>
</mgrwt>
<clustering>
<clus scale="   33.147">  1  6  2 -1</clus>
<clus scale="  479.904">  4  5 -1 -1</clus>
<clus scale="  300.000">  1  4  2 -1</clus>
</clustering>
</event>
<event>
 6    1  0.9254630E-012  0.3000000E+03  0.7818608E-02  0.1093470E+00
          1   -1    0    0  502    0  0.00000000000E+00  0.00000000000E+00  0.22949536799E+03  0.22949536799E+03  0.00000000000E+00 0.  1.
         13   -1    0    0    0    0 -0.00000000000E+00 -0.00000000000E+00 -0.27500000000E+03  0.27500000000E+03  0.00000000000E+00 0.  1.
    9000005    2    1    2  501    0 -0.31087227070E+02  0.11129562277E+01 -0.73115234208E+02  0.46290210276E+03  0.45603164902E+03 0.  0.
         13    1    3    3    0    0  0.75585590655E+02 -0.69473339740E+02  0.16400153241E+03  0.19348444144E+03  0.00000000000E+00 0.  1.
          1    1    3    3  501    0 -0.10667281772E+03  0.70586295968E+02 -0.23711676661E+03  0.26941766132E+03  0.00000000000E+00 0.  1.
         21    1    1    2  502  501  0.31087227070E+02 -0.11129562277E+01  0.27610602194E+02  0.41593265224E+02  0.00000000000E+00 0.  1.
<scales pt_clust_4="550.00000" pt_clust_5="550.00000" pt_clust_6="31.10714"></scales>
<mgrwt>
<rscale>  0 0.30000000E+03</rscale>
<asrwt>  1 0.31107143E+02</asrwt>
<pdfrwt beam="1">  1        1 0.83452861E+00 0.30000000E+03</pdfrwt>
<pdfrwt beam="2">0</pdfrwt>
<totfact> 0.55759991E-04</totfact>
</mgrwt>
<clustering>
<clus scale="   31.107">  1  6  2 -1</clus>
<clus scale="  456.032">  4  5 -1 -1</clus>
<clus scale="  300.000">  1  4  2 -1</clus>
</clustering>
</event>
<event>
 6    1  0.9254630E-012  0.3000000E+03  0.7818608E-02  0.1093470E+00
          1   -1    0    0  502    0  0.00000000000E+00  0.00000000000E+00  0.22194789697E+03  0.22194789697E+03  0.00000000000E+00 0.  1.
         13   -1    0    0    0    0 -0.00000000000E+00 -0.00000000000E+00 -0.27500000000E+03  0.27500000000E+03  0.00000000000E+00 0.  1.
    9000005    2    1    2  501    0  0.13172276560E+02  0.27916957087E+02 -0.65294306015E+02  0.46374041443E+03  0.45808182698E+03 0.  0.
         13    1    3    3    0    0 -0.97926650332E+02  0.19455700513E+03 -0.12952393938E+03  0.25341370911E+03  0.00000000000E+00 0.  1.
          3    1    3    3  501    0  0.11109892689E+03 -0.16664004804E+03  0.64229633369E+02  0.21032670532E+03  0.00000000000E+00 0.  1.
         21    1    1    2  502  501 -0.13172276560E+02 -0.27916957087E+02  0.12242202983E+02  0.33207482540E+02  0.00000000000E+00 0.  1.
<scales pt_clust_4="550.00000" pt_clust_5="550.00000" pt_clust_6="30.86852"></scales>
<mgrwt>
<rscale>  0 0.30000000E+03</rscale>
<asrwt>  1 0.30868517E+02</asrwt>
<pdfrwt beam="1">  1        1 0.80708326E+00 0.30000000E+03</pdfrwt>
<pdfrwt beam="2">0</pdfrwt>
<totfact> 0.94075411E-04</totfact>
</mgrwt>
<clustering>
<clus scale="   30.869">  1  6  2 -1</clus>
<clus scale="  458.082">  4  5 -1 -1</clus>
<clus scale="  300.000">  1  4  2 -1</clus>
</clustering>
</event>
<event>
 6    1  0.9254630E-012  0.3000000E+03  0.7818608E-02  0.1093470E+00
          1   -1    0    0  502    0  0.00000000000E+00  0.00000000000E+00  0.24481211327E+03  0.24481211327E+03  0.00000000000E+00 0.  1.
         13   -1    0    0    0    0 -0.00000000000E+00 -0.00000000000E+00 -0.27500000000E+03  0.27500000000E+03  0.00000000000E+00 0.  1.
    9000005    2    1    2  501    0  0.15864323051E+02 -0.36693174945E+02 -0.57221378447E+02  0.47155368905E+03  0.46635879929E+03 0.  0.
         13    1    3    3    0    0  0.93623435903E+02 -0.13693347419E+03  0.15322960685E+03  0.22582169187E+03  0.00000000000E+00 0.  1.
          1    1    3    3  501    0 -0.77759112852E+02  0.10024029925E+03 -0.21045098530E+03  0.24573199718E+03  0.00000000000E+00 0.  1.
         21    1    1    2  502  501 -0.15864323051E+02  0.36693174945E+02  0.27033491712E+02  0.48258424213E+02  0.00000000000E+00 0.  1.
<scales pt_clust_4="550.00000" pt_clust_5="550.00000" pt_clust_6="39.97582"></scales>
<mgrwt>
<rscale>  0 0.30000000E+03</rscale>
<asrwt>  1 0.39975816E+02</asrwt>
<pdfrwt beam="1">  1        1 0.89022587E+00 0.30000000E+03</pdfrwt>
<pdfrwt beam="2">0</pdfrwt>
<totfact> 0.14046696E-04</totfact>
</mgrwt>
<clustering>
<clus scale="   39.976">  1  6  2 -1</clus>
<clus scale="  466.359">  4  5 -1 -1</clus>
<clus scale="  300.000">  1  4  2 -1</clus>
</clustering>
</event>
<event>
 6    1  0.9254630E-012  0.3000000E+03  0.7818608E-02  0.1093470E+00
          1   -1    0    0  502    0  0.00000000000E+00  0.00000000000E+00  0.22276727814E+03  0.22276727814E+03  0.00000000000E+00 0.  1.
         13   -1    0    0    0    0 -0.00000000000E+00 -0.00000000000E+00 -0.27500000000E+03  0.27500000000E+03  0.00000000000E+00 0.  1.
    9000005    2    1    2  501    0 -0.28919548328E+02  0.11876409485E+02 -0.52738640598E+02  0.46649995764E+03  0.46245373486E+03 0.  0.
         13    1    3    3    0    0 -0.23512055398E+02  0.23090156567E+03  0.26313857421E+02  0.23358246696E+03  0.00000000000E+00 0.  1.
          3    1    3    3  501    0 -0.54074929301E+01 -0.21902515618E+03 -0.79052498018E+02  0.23291749068E+03  0.00000000000E+00 0.  1.
         21    1    1    2  502  501  0.28919548328E+02 -0.11876409485E+02  0.50591873843E+00  0.31267320504E+02  0.00000000000E+00 0. -1.
<scales pt_clust_4="550.00000" pt_clust_5="550.00000" pt_clust_6="31.26323"></scales>
<mgrwt>
<rscale>  0 0.30000000E+03</rscale>
<asrwt>  1 0.31263227E+02</asrwt>
<pdfrwt beam="1">  1        1 0.81006283E+00 0.30000000E+03</pdfrwt>
<pdfrwt beam="2">0</pdfrwt>
<totfact> 0.88995351E-04</totfact>
</mgrwt>
<clustering>
<clus scale="   31.263">  1  6  2 -1</clus>
<clus scale="  462.454">  4  5 -1 -1</clus>
<clus scale="  300.000">  1  4  2 -1</clus>
</clustering>
</event>
<event>
 6    1  0.9254630E-012  0.3000000E+03  0.7818608E-02  0.1093470E+00
          1   -1    0    0  502    0  0.00000000000E+00  0.00000000000E+00  0.22564471823E+03  0.22564471823E+03  0.00000000000E+00 0.  1.
         13   -1    0    0    0    0 -0.00000000000E+00 -0.00000000000E+00 -0.27500000000E+03  0.27500000000E+03  0.00000000000E+00 0.  1.
    9000005    2    1    2  501    0  0.11910082485E+02  0.30343664736E+02 -0.62119144679E+02  0.46563751539E+03  0.46032262550E+03 0.  0.
         13    1    3    3    0    0  0.79264915374E+02  0.76145920353E+02 -0.24330759081E+03  0.26698260569E+03  0.00000000000E+00 0.  1.
          1    1    3    3  501    0 -0.67354832889E+02 -0.45802255618E+02  0.18118844613E+03  0.19865490969E+03  0.00000000000E+00 0.  1.
         21    1    1    2  502  501 -0.11910082485E+02 -0.30343664736E+02  0.12763862906E+02  0.35007202840E+02  0.00000000000E+00 0. -1.
<scales pt_clust_4="550.00000" pt_clust_5="550.00000" pt_clust_6="32.59736"></scales>
<mgrwt>
<rscale>  0 0.30000000E+03</rscale>
<asrwt>  1 0.32597363E+02</asrwt>
<pdfrwt beam="1">  1        1 0.82052625E+00 0.30000000E+03</pdfrwt>
<pdfrwt beam="2">0</pdfrwt>
<totfact> 0.72536049E-04</totfact>
</mgrwt>
<clustering>
<clus scale="   32.597">  1  6  2 -1</clus>
<clus scale="  460.323">  4  5 -1 -1</clus>
<clus scale="  300.000">  1  4  2 -1</clus>
</clustering>
</event>
<event>
 6    1  0.9254630E-012  0.3000000E+03  0.7818608E-02  0.1093470E+00
          1   -1    0    0  502    0  0.00000000000E+00  0.00000000000E+00  0.23982061937E+03  0.23982061937E+03  0.00000000000E+00 0.  1.
         13   -1    0    0    0    0 -0.00000000000E+00 -0.00000000000E+00 -0.27500000000E+03  0.27500000000E+03  0.00000000000E+00 0.  1.
    9000005    2    1    2  501    0 -0.31076293561E+02  0.17173746448E+02 -0.54324505116E+02  0.47448193595E+03  0.47002263998E+03 0.  0.
         13    1    3    3    0    0 -0.22508132251E+03  0.11098404005E+03 -0.63241016028E+02  0.25880201892E+03  0.00000000000E+00 0.  1.
          1    1    3    3  501    0  0.19400502895E+03 -0.93810293598E+02  0.89165109122E+01  0.21567991703E+03  0.00000000000E+00 0.  1.
         21    1    1    2  502  501  0.31076293561E+02 -0.17173746448E+02  0.19145124482E+02  0.40338683419E+02  0.00000000000E+00 0.  1.
<scales pt_clust_4="550.00000" pt_clust_5="550.00000" pt_clust_6="35.50597"></scales>
<mgrwt>
<rscale>  0 0.30000000E+03</rscale>
<asrwt>  1 0.35505966E+02</asrwt>
<pdfrwt beam="1">  1        1 0.87207498E+00 0.30000000E+03</pdfrwt>
<pdfrwt beam="2">0</pdfrwt>
<totfact> 0.24054596E-04</totfact>
</mgrwt>
<clustering>
<clus scale="   35.506">  1  6  2 -1</clus>
<clus scale="  470.023">  4  5 -1 -1</clus>
<clus scale="  300.000">  1  4  2 -1</clus>
</clustering>
</event>
<event>
 6    1  0.9254630E-012  0.3000000E+03  0.7818608E-02  0.1093470E+00
          1   -1    0    0  502    0  0.00000000000E+00  0.00000000000E+00  0.23310134188E+03  0.23310134188E+03  0.00000000000E+00 0.  1.
         13   -1    0    0    0    0 -0.00000000000E+00 -0.00000000000E+00 -0.27500000000E+03  0.27500000000E+03  0.00000000000E+00 0.  1.
    9000005    2    1    2  501    0 -0.33279182413E+02  0.15658399531E+02 -0.48533184850E+02  0.47072880647E+03  0.46677344585E+03 0.  0.
         13    1    3    3    0    0 -0.25055579310E+03  0.70550808664E+01 -0.31262370101E+02  0.25259714053E+03  0.00000000000E+00 0.  1.
          1    1    3    3  501    0  0.21727661068E+03  0.86033186645E+01 -0.17270814749E+02  0.21813166594E+03  0.00000000000E+00 0.  1.
         21    1    1    2  502  501  0.33279182413E+02 -0.15658399531E+02  0.66345267274E+01  0.37372535408E+02  0.00000000000E+00 0.  1.
<scales pt_clust_4="550.00000" pt_clust_5="550.00000" pt_clust_6="36.77893"></scales>
<mgrwt>
<rscale>  0 0.30000000E+03</rscale>
<asrwt>  1 0.36778927E+02</asrwt>
<pdfrwt beam="1">  1        1 0.84764124E+00 0.30000000E+03</pdfrwt>
<pdfrwt beam="2">0</pdfrwt>
<totfact> 0.42401885E-04</totfact>
</mgrwt>
<clustering>
<clus scale="   36.779">  1  6  2 -1</clus>
<clus scale="  466.773">  4  5 -1 -1</clus>
<clus scale="  300.000">  1  4  2 -1</clus>
</clustering>
</event>
<event>
 6    1  0.9254630E-012  0.3000000E+03  0.7818608E-02  0.1093470E+00
          1   -1    0    0  502    0  0.00000000000E+00  0.00000000000E+00  0.22331563362E+03  0.22331563362E+03  0.00000000000E+00 0.  1.
         13   -1    0    0    0    0 -0.00000000000E+00 -0.00000000000E+00 -0.27500000000E+03  0.27500000000E+03  0.00000000000E+00 0.  1.
    9000005    2    1    2  501    0  0.28419567991E+02  0.10485216848E+02 -0.69231382951E+02  0.46330835712E+03  0.45710396824E+03 0.  0.
         13    1    3    3    0    0  0.52671565831E+01 -0.21594357983E+03 -0.91549254349E+02  0.23460741374E+03  0.00000000000E+00 0.  1.
          3    1    3    3  501    0  0.23152411408E+02  0.22642879668E+03  0.22317871398E+02  0.22870094338E+03  0.00000000000E+00 0.  1.
         21    1    1    2  502  501 -0.28419567991E+02 -0.10485216848E+02  0.17547016571E+02  0.35007276496E+02  0.00000000000E+00 0. -1.
<scales pt_clust_4="550.00000" pt_clust_5="550.00000" pt_clust_6="30.29210"></scales>
<mgrwt>
<rscale>  0 0.30000000E+03</rscale>
<asrwt>  1 0.30292105E+02</asrwt>
<pdfrwt beam="1">  1        1 0.81205685E+00 0.30000000E+03</pdfrwt>
<pdfrwt beam="2">0</pdfrwt>
<totfact> 0.86365981E-04</totfact>
</mgrwt>
<clustering>
<clus scale="   30.292">  1  6  2 -1</clus>
<clus scale="  457.104">  4  5 -1 -1</clus>
<clus scale="  300.000">  1  4  2 -1</clus>
</clustering>
</event>
<event>
 6    1  0.9254630E-012  0.3000000E+03  0.7818608E-02  0.1093470E+00
          1   -1    0    0  502    0  0.00000000000E+00  0.00000000000E+00  0.22075521424E+03  0.22075521424E+03  0.00000000000E+00 0.  1.
         13   -1    0    0    0    0 -0.00000000000E+00 -0.00000000000E+00 -0.27500000000E+03  0.27500000000E+03  0.00000000000E+00 0.  1.
    9000005    2    1    2  501    0 -0.27490202795E+01  0.34652888104E+02 -0.50490008088E+02  0.46079125963E+03  0.45669570205E+03 0.  0.
         13    1    3    3    0    0  0.81534023213E+01 -0.73860308883E+02 -0.23499516921E+03  0.24646410032E+03  0.00000000000E+00 0.  1.
          1    1    3    3  501    0 -0.10902422601E+02  0.10851319699E+03  0.18450516112E+03  0.21432715931E+03  0.00000000000E+00 0.  1.
         21    1    1    2  502  501  0.27490202795E+01 -0.34652888104E+02 -0.37547776702E+01  0.34963954608E+02  0.00000000000E+00 0. -1.
<scales pt_clust_4="550.00000" pt_clust_5="550.00000" pt_clust_6="34.76176"></scales>
<mgrwt>
<rscale>  0 0.30000000E+03</rscale>
<asrwt>  1 0.34761757E+02</asrwt>
<pdfrwt beam="1">  1        1 0.80274623E+00 0.30000000E+03</pdfrwt>
<pdfrwt beam="2">0</pdfrwt>
<totfact> 0.99171791E-04</totfact>
</mgrwt>
<clustering>
<clus scale="   34.762">  1  6  2 -1</clus>
<clus scale="  456.696">  4  5 -1 -1</clus>
<clus scale="  300.000">  1  4  2 -1</clus>
</clustering>
</event>
<event>
 6    1  0.9254630E-012  0.3000000E+03  0.7818608E-02  0.1093470E+00
          1   -1    0    0  502    0  0.00000000000E+00  0.00000000000E+00  0.22685708573E+03  0.22685708573E+03  0.00000000000E+00 0.  1.
         13   -1    0    0    0    0 -0.00000000000E+00 -0.00000000000E+00 -0.27500000000E+03  0.27500000000E+03  0.00000000000E+00 0.  1.
    9000005    2    1    2  501    0 -0.18895760297E+02 -0.33781312094E+02 -0.45972488658E+02  0.46308934719E+03  0.45917322108E+03 0.  0.
         13    1    3    3    0    0  0.78012441882E+02 -0.22938109527E+03 -0.16914339607E+02  0.24287388258E+03  0.00000000000E+00 0.  1.
          3    1    3    3  501    0 -0.96908202179E+02  0.19559978317E+03 -0.29058149051E+02  0.22021546461E+03  0.00000000000E+00 0.  1.
         21    1    1    2  502  501  0.18895760297E+02  0.33781312094E+02 -0.21704256161E+01  0.38767738538E+02  0.00000000000E+00 0.  1.
<scales pt_clust_4="550.00000" pt_clust_5="550.00000" pt_clust_6="38.70693"></scales>
<mgrwt>
<rscale>  0 0.30000000E+03</rscale>
<asrwt>  1 0.38706935E+02</asrwt>
<pdfrwt beam="1">  1        1 0.82493486E+00 0.30000000E+03</pdfrwt>
<pdfrwt beam="2">0</pdfrwt>
<totfact> 0.64195744E-04</totfact>
</mgrwt>
<clustering>
<clus scale="   38.707">  1  6  2 -1</clus>
<clus scale="  459.173">  4  5 -1 -1</clus>
<clus scale="  300.000">  1  4  2 -1</clus>
</clustering>
</event>
<event>
 6    1  0.9254630E-012  0.3000000E+03  0.7818608E-02  0.1093470E+00
          1   -1    0    0  502    0  0.00000000000E+00  0.00000000000E+00  0.22694572362E+03  0.22694572362E+03  0.00000000000E+00 0.  1.
         13   -1    0    0    0    0 -0.00000000000E+00 -0.00000000000E+00 -0.27500000000E+03  0.27500000000E+03  0.00000000000E+00 0.  1.
    9000005    2    1    2  501    0 -0.28140066108E+02 -0.14198956158E+02 -0.57912978461E+02  0.46892046536E+03  0.46426179692E+03 0.  0.
         13    1    3    3    0    0  0.70390647149E+02 -0.18570179815E+03  0.93811868803E+02  0.21963758278E+03  0.00000000000E+00 0.  1.
          1    1    3    3  501    0 -0.98530713256E+02  0.17150284200E+03 -0.15172484726E+03  0.24928288257E+03  0.00000000000E+00 0.  1.
         21    1    1    2  502  501  0.28140066108E+02  0.14198956158E+02  0.98587020824E+01  0.33025258262E+02  0.00000000000E+00 0.  1.
<scales pt_clust_4="550.00000" pt_clust_5="550.00000" pt_clust_6="31.51942"></scales>
<mgrwt>
<rscale>  0 0.30000000E+03</rscale>
<asrwt>  1 0.31519417E+02</asrwt>
<pdfrwt beam="1">  1        1 0.82525718E+00 0.30000000E+03</pdfrwt>
<pdfrwt beam="2">0</pdfrwt>
<totfact> 0.66271135E-04</totfact>
</mgrwt>
<clustering>
<clus scale="   31.519">  1  6  2 -1</clus>
<clus scale="  464.262">  4  5 -1 -1</clus>
<clus scale="  300.000">  1  4  2 -1</clus>
</clustering>
</event>
<event>
 6    1  0.9254630E-012  0.3000000E+03  0.7818608E-02  0.1093470E+00
          1   -1    0    0  502    0  0.00000000000E+00  0.00000000000E+00  0.23523052302E+03  0.23523052302E+03  0.00000000000E+00 0.  1.
         13   -1    0    0    0    0 -0.00000000000E+00 -0.00000000000E+00 -0.27500000000E+03  0.27500000000E+03  0.00000000000E+00 0.  1.
    9000005    2    1    2  501    0 -0.43159844581E+02  0.20197263627E+02 -0.36183909486E+02  0.46244393560E+03  0.45855688483E+03 0.  0.
         13    1    3    3    0    0  0.31586227619E+02  0.16306629271E+03 -0.18104042786E+03  0.24569074487E+03  0.00000000000E+00 0.  1.
          3    1    3    3  501    0 -0.74746072200E+02 -0.14286902908E+03  0.14485651837E+03  0.21675319074E+03  0.00000000000E+00 0.  1.
         21    1    1    2  502  501  0.43159844581E+02 -0.20197263627E+02 -0.35855674970E+01  0.47786587412E+02  0.00000000000E+00 0.  1.
<scales pt_clust_4="550.00000" pt_clust_5="550.00000" pt_clust_6="47.65188"></scales>
<mgrwt>
<rscale>  0 0.30000000E+03</rscale>
<asrwt>  1 0.47651880E+02</asrwt>
<pdfrwt beam="1">  1        1 0.85538372E+00 0.30000000E+03</pdfrwt>
<pdfrwt beam="2">0</pdfrwt>
<totfact> 0.34143928E-04</totfact>
</mgrwt>
<clustering>
<clus scale="   47.652">  1  6  2 -1</clus>
<clus scale="  458.557">  4  5 -1 -1</clus>
<clus scale="  300.000">  1  4  2 -1</clus>
</clustering>
</event>
<event>
 6    1  0.9254630E-012  0.3000000E+03  0.7818608E-02  0.1093470E+00
          1   -1    0    0  502    0  0.00000000000E+00  0.00000000000E+00  0.23301360719E+03  0.23301360719E+03  0.00000000000E+00 0.  1.
         13   -1    0    0    0    0 -0.00000000000E+00 -0.00000000000E+00 -0.27500000000E+03  0.27500000000E+03  0.00000000000E+00 0.  1.
    9000005    2    1    2  501    0 -0.18217480986E+02  0.29639053694E+02 -0.53965766095E+02  0.47121883172E+03  0.46682387829E+03 0.  0.
         13    1    3    3    0    0  0.17507349057E+03 -0.43460658323E+02 -0.15805272697E+03  0.23983373496E+03  0.00000000000E+00 0.  1.
          3    1    3    3  501    0 -0.19329097155E+03  0.73099712017E+02  0.10408696087E+03  0.23138509676E+03  0.00000000000E+00 0.  1.
         21    1    1    2  502  501  0.18217480986E+02 -0.29639053694E+02  0.11979373281E+02  0.36794775465E+02  0.00000000000E+00 0.  1.
<scales pt_clust_4="550.00000" pt_clust_5="550.00000" pt_clust_6="34.79009"></scales>
<mgrwt>
<rscale>  0 0.30000000E+03</rscale>
<asrwt>  1 0.34790086E+02</asrwt>
<pdfrwt beam="1">  1        1 0.84732221E+00 0.30000000E+03</pdfrwt>
<pdfrwt beam="2">0</pdfrwt>
<totfact> 0.43130242E-04</totfact>
</mgrwt>
<clustering>
<clus scale="   34.790">  1  6  2 -1</clus>
<clus scale="  466.824">  4  5 -1 -1</clus>
<clus scale="  300.000">  1  4  2 -1</clus>
</clustering>
</event>
<event>
 6    1  0.9254630E-012  0.3000000E+03  0.7818608E-02  0.1093470E+00
          1   -1    0    0  502    0  0.00000000000E+00  0.00000000000E+00  0.23387066098E+03  0.23387066098E+03  0.00000000000E+00 0.  1.
         13   -1    0    0    0    0 -0.00000000000E+00 -0.00000000000E+00 -0.27500000000E+03  0.27500000000E+03  0.00000000000E+00 0.  1.
    9000005    2    1    2  501    0 -0.21319017474E+02  0.22714637423E+02 -0.58891341032E+02  0.47301059998E+03  0.46829518723E+03 0.  0.
         13    1    3    3    0    0 -0.25086851500E+02 -0.18795989331E+03  0.94995757481E+02  0.21209070124E+03  0.00000000000E+00 0.  1.
          3    1    3    3  501    0  0.37678340256E+01  0.21067453073E+03 -0.15388709851E+03  0.26091989874E+03  0.00000000000E+00 0.  1.
         21    1    1    2  502  501  0.21319017474E+02 -0.22714637423E+02  0.17762002007E+02  0.35860060996E+02  0.00000000000E+00 0.  1.
<scales pt_clust_4="550.00000" pt_clust_5="550.00000" pt_clust_6="31.15213"></scales>
<mgrwt>
<rscale>  0 0.30000000E+03</rscale>
<asrwt>  1 0.31152131E+02</asrwt>
<pdfrwt beam="1">  1        1 0.85043877E+00 0.30000000E+03</pdfrwt>
<pdfrwt beam="2">0</pdfrwt>
<totfact> 0.41211347E-04</totfact>
</mgrwt>
<clustering>
<clus scale="   31.152">  1  6  2 -1</clus>
<clus scale="  468.295">  4  5 -1 -1</clus>
<clus scale="  300.000">  1  4  2 -1</clus>
</clustering>
</event>
<event>
 6    1  0.9254630E-012  0.3000000E+03  0.7818608E-02  0.1093470E+00
          1   -1    0    0  502    0  0.00000000000E+00  0.00000000000E+00  0.23319063760E+03  0.23319063760E+03  0.00000000000E+00 0.  1.
         13   -1    0    0    0    0 -0.00000000000E+00 -0.00000000000E+00 -0.27500000000E+03  0.27500000000E+03  0.00000000000E+00 0.  1.
    9000005    2    1    2  501    0  0.88428890553E+01 -0.28754307928E+02 -0.33303236356E+02  0.47692786275E+03  0.47481161928E+03 0.  0.
         13    1    3    3    0    0  0.76360016497E+02 -0.52954670432E+02  0.20659812803E+03  0.22653440301E+03  0.00000000000E+00 0.  1.
          1    1    3    3  501    0 -0.67517127442E+02  0.24200362504E+02 -0.23990136439E+03  0.25039345974E+03  0.00000000000E+00 0.  1.
         21    1    1    2  502  501 -0.88428890553E+01  0.28754307928E+02 -0.85061260419E+01  0.31262774853E+02  0.00000000000E+00 0.  1.
<scales pt_clust_4="550.00000" pt_clust_5="550.00000" pt_clust_6="30.08335"></scales>
<mgrwt>
<rscale>  0 0.30000000E+03</rscale>
<asrwt>  1 0.30083348E+02</asrwt>
<pdfrwt beam="1">  1        1 0.84796595E+00 0.30000000E+03</pdfrwt>
<pdfrwt beam="2">0</pdfrwt>
<totfact> 0.43742602E-04</totfact>
</mgrwt>
<clustering>
<clus scale="   30.083">  1  6  2 -1</clus>
<clus scale="  474.812">  4  5 -1 -1</clus>
<clus scale="  300.000">  1  4  2 -1</clus>
</clustering>
</event>
<event>
 6    1  0.9254630E-012  0.3000000E+03  0.7818608E-02  0.1093470E+00
          1   -1    0    0  502    0  0.00000000000E+00  0.00000000000E+00  0.24905696588E+03  0.24905696588E+03  0.00000000000E+00 0.  1.
         13   -1    0    0    0    0 -0.00000000000E+00 -0.00000000000E+00 -0.27500000000E+03  0.27500000000E+03  0.00000000000E+00 0.  1.
    9000005    2    1    2  501    0 -0.32085111627E+02  0.33764542162E+02 -0.63725885625E+02  0.46408161625E+03  0.45731964680E+03 0.  0.
         13    1    3    3    0    0 -0.24236573609E+03 -0.18182605742E+02 -0.30771388864E+02  0.24498701099E+03  0.00000000000E+00 0.  1.
          1    1    3    3  501    0  0.21028062446E+03  0.51947147904E+02 -0.32954496761E+02  0.21909460526E+03  0.00000000000E+00 0.  1.
         21    1    1    2  502  501  0.32085111627E+02 -0.33764542162E+02  0.37782851507E+02  0.59975349633E+02  0.00000000000E+00 0.  1.
<scales pt_clust_4="550.00000" pt_clust_5="550.00000" pt_clust_6="46.57788"></scales>
<mgrwt>
<rscale>  0 0.30000000E+03</rscale>
<asrwt>  1 0.46577878E+02</asrwt>
<pdfrwt beam="1">  1        1 0.90566169E+00 0.30000000E+03</pdfrwt>
<pdfrwt beam="2">0</pdfrwt>
<totfact> 0.85222719E-05</totfact>
</mgrwt>
<clustering>
<clus scale="   46.578">  1  6  2 -1</clus>
<clus scale="  457.320">  4  5 -1 -1</clus>
<clus scale="  300.000">  1  4  2 -1</clus>
</clustering>
</event>
<event>
 6    1  0.9254630E-012  0.3000000E+03  0.7818608E-02  0.1093470E+00
          1   -1    0    0  502    0  0.00000000000E+00  0.00000000000E+00  0.23733895046E+03  0.23733895046E+03  0.00000000000E+00 0.  1.
         13   -1    0    0    0    0 -0.00000000000E+00 -0.00000000000E+00 -0.27500000000E+03  0.27500000000E+03  0.00000000000E+00 0.  1.
    9000005    2    1    2  501    0 -0.33821134920E+02 -0.90851561367E+01 -0.21438409165E+02  0.47374383043E+03  0.47196101773E+03 0.  0.
         13    1    3    3    0    0  0.84949136861E+02 -0.12849833360E+03  0.16279983928E+03  0.22412488764E+03  0.00000000000E+00 0.  1.
          1    1    3    3  501    0 -0.11877027178E+03  0.11941317746E+03 -0.18423824845E+03  0.24961894279E+03  0.00000000000E+00 0.  1.
         21    1    1    2  502  501  0.33821134920E+02  0.90851561367E+01 -0.16222640373E+02  0.38595120028E+02  0.00000000000E+00 0.  1.
<scales pt_clust_4="550.00000" pt_clust_5="550.00000" pt_clust_6="35.02014"></scales>
<mgrwt>
<rscale>  0 0.30000000E+03</rscale>
<asrwt>  1 0.35020144E+02</asrwt>
<pdfrwt beam="1">  1        1 0.86305073E+00 0.30000000E+03</pdfrwt>
<pdfrwt beam="2">0</pdfrwt>
<totfact> 0.29986451E-04</totfact>
</mgrwt>
<clustering>
<clus scale="   35.020">  1  6  2 -1</clus>
<clus scale="  471.961">  4  5 -1 -1</clus>
<clus scale="  300.000">  1  4  2 -1</clus>
</clustering>
</event>
<event>
 6    1  0.9254630E-012  0.3000000E+03  0.7818608E-02  0.1093470E+00
          1   -1    0    0  502    0  0.00000000000E+00  0.00000000000E+00  0.23226305358E+03  0.23226305358E+03  0.00000000000E+00 0.  1.
         13   -1    0    0    0    0 -0.00000000000E+00 -0.00000000000E+00 -0.27500000000E+03  0.27500000000E+03  0.00000000000E+00 0.  1.
    9000005    2    1    2  501    0 -0.39317320828E+02  0.68933481265E+01 -0.42677846495E+02  0.46734597129E+03  0.46367821637E+03 0.  0.
         13    1    3    3    0    0  0.16120800551E+03 -0.10591792981E+03  0.77372229548E+02  0.20782947530E+03  0.00000000000E+00 0.  1.
          3    1    3    3  501    0 -0.20052532634E+03  0.11281127794E+03 -0.12005007604E+03  0.25951649599E+03  0.00000000000E+00 0.  1.
         21    1    1    2  502  501  0.39317320828E+02 -0.68933481265E+01 -0.59099926123E-01  0.39917082287E+02  0.00000000000E+00 0. -1.
<scales pt_clust_4="550.00000" pt_clust_5="550.00000" pt_clust_6="39.91704"></scales>
<mgrwt>
<rscale>  0 0.30000000E+03</rscale>
<asrwt>  1 0.39917039E+02</asrwt>
<pdfrwt beam="1">  1        1 0.84459292E+00 0.30000000E+03</pdfrwt>
<pdfrwt beam="2">0</pdfrwt>
<totfact> 0.44459479E-04</totfact>
</mgrwt>
<clustering>
<clus scale="   39.917">  1  6  2 -1</clus>
<clus scale="  463.678">  4  5 -1 -1</clus>
<clus scale="  300.000">  1  4  2 -1</clus>
</clustering>
</event>
<event>
 6    1  0.9254630E-012  0.3000000E+03  0.7818608E-02  0.1093470E+00
          1   -1    0    0  502    0  0.00000000000E+00  0.00000000000E+00  0.24233411387E+03  0.24233411387E+03  0.00000000000E+00 0.  1.
         13   -1    0    0    0    0 -0.00000000000E+00 -0.00000000000E+00 -0.27500000000E+03  0.27500000000E+03  0.00000000000E+00 0.  1.
    9000005    2    1    2  501    0 -0.29704836281E+02 -0.16643566068E+02 -0.43952970315E+02  0.48146234420E+03  0.47824129861E+03 0.  0.
         13    1    3    3    0    0  0.18708368431E+03  0.56095447871E+02  0.91505651286E+02  0.21568562405E+03  0.00000000000E+00 0.  1.
          1    1    3    3  501    0 -0.21678852059E+03 -0.72739013940E+02 -0.13545862160E+03  0.26577672015E+03  0.00000000000E+00 0.  1.
         21    1    1    2  502  501  0.29704836281E+02  0.16643566068E+02  0.11287084187E+02  0.35871769672E+02  0.00000000000E+00 0.  1.
<scales pt_clust_4="550.00000" pt_clust_5="550.00000" pt_clust_6="34.04975"></scales>
<mgrwt>
<rscale>  0 0.30000000E+03</rscale>
<asrwt>  1 0.34049752E+02</asrwt>
<pdfrwt beam="1">  1        1 0.88121496E+00 0.30000000E+03</pdfrwt>
<pdfrwt beam="2">0</pdfrwt>
<totfact> 0.19155301E-04</totfact>
</mgrwt>
<clustering>
<clus scale="   34.050">  1  6  2 -1</clus>
<clus scale="  478.241">  4  5 -1 -1</clus>
<clus scale="  300.000">  1  4  2 -1</clus>
</clustering>
</event>
<event>
 6    1  0.9254630E-012  0.3000000E+03  0.7818608E-02  0.1093470E+00
          1   -1    0    0  502    0  0.00000000000E+00  0.00000000000E+00  0.26626557158E+03  0.26626557158E+03  0.00000000000E+00 0.  1.
         13   -1    0    0    0    0 -0.00000000000E+00 -0.00000000000E+00 -0.27500000000E+03  0.27500000000E+03  0.00000000000E+00 0.  1.
    9000005    2    1    2  501    0 -0.28043192433E+02  0.67548724614E+02 -0.32550538549E+02  0.46434705664E+03  0.45739414143E+03 0.  0.
         13    1    3    3    0    0  0.91631673112E-01 -0.18752257800E+03 -0.79132090529E+02  0.20353528787E+03  0.00000000000E+00 0.  1.
          1    1    3    3  501    0 -0.28134824106E+02  0.25507130261E+03  0.46581551980E+02  0.26081176877E+03  0.00000000000E+00 0.  1.
         21    1    1    2  502  501  0.28043192433E+02 -0.67548724614E+02  0.23816110126E+02  0.76918514939E+02  0.00000000000E+00 0.  1.
<scales pt_clust_4="550.00000" pt_clust_5="550.00000" pt_clust_6="73.13857"></scales>
<mgrwt>
<rscale>  0 0.30000000E+03</rscale>
<asrwt>  1 0.73138573E+02</asrwt>
<pdfrwt beam="1">  1        1 0.96823844E+00 0.30000000E+03</pdfrwt>
<pdfrwt beam="2">0</pdfrwt>
<totfact> 0.46199797E-06</totfact>
</mgrwt>
<clustering>
<clus scale="   73.139">  1  6  2 -1</clus>
<clus scale="  457.394">  4  5 -1 -1</clus>
<clus scale="  300.000">  1  4  2 -1</clus>
</clustering>
</event>
<event>
 6    1  0.9254630E-012  0.3000000E+03  0.7818608E-02  0.1093470E+00
          1   -1    0    0  502    0  0.00000000000E+00  0.00000000000E+00  0.24435660292E+03  0.24435660292E+03  0.00000000000E+00 0.  1.
         13   -1    0    0    0    0 -0.00000000000E+00 -0.00000000000E+00 -0.27500000000E+03  0.27500000000E+03  0.00000000000E+00 0.  1.
    9000005    2    1    2  501    0  0.35448871275E+02 -0.38206911772E+02 -0.19917688504E+02  0.46614540667E+03  0.46279416080E+03 0.  0.
         13    1    3    3    0    0  0.18527472608E+03 -0.85488041127E+02 -0.15714397831E+03  0.25754448008E+03  0.00000000000E+00 0.  1.
          3    1    3    3  501    0 -0.14982585481E+03  0.47281129355E+02  0.13722628980E+03  0.20860092659E+03  0.00000000000E+00 0.  1.
         21    1    1    2  502  501 -0.35448871275E+02  0.38206911772E+02 -0.10725708573E+02  0.53211196249E+02  0.00000000000E+00 0. -1.
<scales pt_clust_4="550.00000" pt_clust_5="550.00000" pt_clust_6="52.11903"></scales>
<mgrwt>
<rscale>  0 0.30000000E+03</rscale>
<asrwt>  1 0.52119030E+02</asrwt>
<pdfrwt beam="1">  1        1 0.88856947E+00 0.30000000E+03</pdfrwt>
<pdfrwt beam="2">0</pdfrwt>
<totfact> 0.14104328E-04</totfact>
</mgrwt>
<clustering>
<clus scale="   52.119">  1  6  2 -1</clus>
<clus scale="  462.794">  4  5 -1 -1</clus>
<clus scale="  300.000">  1  4  2 -1</clus>
</clustering>
</event>
<event>
 6    1  0.9254630E-012  0.3000000E+03  0.7818608E-02  0.1093470E+00
          1   -1    0    0  502    0  0.00000000000E+00  0.00000000000E+00  0.23740936189E+03  0.23740936189E+03  0.00000000000E+00 0.  1.
         13   -1    0    0    0    0 -0.00000000000E+00 -0.00000000000E+00 -0.27500000000E+03  0.27500000000E+03  0.00000000000E+00 0.  1.
    9000005    2    1    2  501    0  0.31061139108E+02  0.11164900129E+02 -0.36205242295E+02  0.47937349230E+03  0.47686337267E+03 0.  0.
         13    1    3    3    0    0  0.63577726266E+02 -0.11382180338E+03  0.18315547708E+03  0.22481872472E+03  0.00000000000E+00 0.  1.
          1    1    3    3  501    0 -0.32516587159E+02  0.12498670351E+03 -0.21936071937E+03  0.25455476758E+03  0.00000000000E+00 0.  1.
         21    1    1    2  502  501 -0.31061139108E+02 -0.11164900129E+02 -0.13853958182E+01  0.33035869584E+02  0.00000000000E+00 0.  1.
<scales pt_clust_4="550.00000" pt_clust_5="550.00000" pt_clust_6="33.00681"></scales>
<mgrwt>
<rscale>  0 0.30000000E+03</rscale>
<asrwt>  1 0.33006808E+02</asrwt>
<pdfrwt beam="1">  1        1 0.86330677E+00 0.30000000E+03</pdfrwt>
<pdfrwt beam="2">0</pdfrwt>
<totfact> 0.30129270E-04</totfact>
</mgrwt>
<clustering>
<clus scale="   33.007">  1  6  2 -1</clus>
<clus scale="  476.863">  4  5 -1 -1</clus>
<clus scale="  300.000">  1  4  2 -1</clus>
</clustering>
</event>
<event>
 6    1  0.9254630E-012  0.3000000E+03  0.7818608E-02  0.1093470E+00
          1   -1    0    0  502    0  0.00000000000E+00  0.00000000000E+00  0.24718995959E+03  0.24718995959E+03  0.00000000000E+00 0.  1.
         13   -1    0    0    0    0 -0.00000000000E+00 -0.00000000000E+00 -0.27500000000E+03  0.27500000000E+03  0.00000000000E+00 0.  1.
    9000005    2    1    2  501    0  0.26350180788E+02 -0.18353671466E+02 -0.37527007479E+02  0.48863986670E+03  0.48613727872E+03 0.  0.
         13    1    3    3    0    0 -0.13072065633E+03 -0.96450317890E+02 -0.19437903679E+03  0.25332541080E+03  0.00000000000E+00 0.  1.
          1    1    3    3  501    0  0.15707083712E+03  0.78096646425E+02  0.15685202931E+03  0.23531445590E+03  0.00000000000E+00 0.  1.
         21    1    1    2  502  501 -0.26350180788E+02  0.18353671466E+02  0.97169670721E+01  0.33550092890E+02  0.00000000000E+00 0.  1.
<scales pt_clust_4="550.00000" pt_clust_5="550.00000" pt_clust_6="32.11214"></scales>
<mgrwt>
<rscale>  0 0.30000000E+03</rscale>
<asrwt>  1 0.32112136E+02</asrwt>
<pdfrwt beam="1">  1        1 0.89887258E+00 0.30000000E+03</pdfrwt>
<pdfrwt beam="2">0</pdfrwt>
<totfact> 0.11585484E-04</totfact>
</mgrwt>
<clustering>
<clus scale="   32.112">  1  6  2 -1</clus>
<clus scale="  486.137">  4  5 -1 -1</clus>
<clus scale="  300.000">  1  4  2 -1</clus>
</clustering>
</event>
<event>
 6    1  0.9254630E-012  0.3000000E+03  0.7818608E-02  0.1093470E+00
          1   -1    0    0  502    0  0.00000000000E+00  0.00000000000E+00  0.24534773013E+03  0.24534773013E+03  0.00000000000E+00 0.  1.
         13   -1    0    0    0    0 -0.00000000000E+00 -0.00000000000E+00 -0.27500000000E+03  0.27500000000E+03  0.00000000000E+00 0.  1.
    9000005    2    1    2  501    0 -0.28519009479E+01 -0.33338195623E+02 -0.39613846365E+02  0.48543639053E+03  0.48265895185E+03 0.  0.
         13    1    3    3    0    0 -0.57283779062E+02  0.17024072240E+03  0.12432345603E+03  0.21844829279E+03  0.00000000000E+00 0.  1.
          3    1    3    3  501    0  0.54431878114E+02 -0.20357891802E+03 -0.16393730240E+03  0.26698809774E+03  0.00000000000E+00 0.  1.
         21    1    1    2  502  501  0.28519009479E+01  0.33338195623E+02  0.99615764984E+01  0.34911339601E+02  0.00000000000E+00 0.  1.
<scales pt_clust_4="550.00000" pt_clust_5="550.00000" pt_clust_6="33.45996"></scales>
<mgrwt>
<rscale>  0 0.30000000E+03</rscale>
<asrwt>  1 0.33459956E+02</asrwt>
<pdfrwt beam="1">  1        1 0.89217356E+00 0.30000000E+03</pdfrwt>
<pdfrwt beam="2">0</pdfrwt>
<totfact> 0.13714197E-04</totfact>
</mgrwt>
<clustering>
<clus scale="   33.460">  1  6  2 -1</clus>
<clus scale="  482.659">  4  5 -1 -1</clus>
<clus scale="  300.000">  1  4  2 -1</clus>
</clustering>
</event>
<event>
 6    1  0.9254630E-012  0.3000000E+03  0.7818608E-02  0.1093470E+00
          1   -1    0    0  502    0  0.00000000000E+00  0.00000000000E+00  0.22690523137E+03  0.22690523137E+03  0.00000000000E+00 0.  1.
         13   -1    0    0    0    0 -0.00000000000E+00 -0.00000000000E+00 -0.27500000000E+03  0.27500000000E+03  0.00000000000E+00 0.  1.
    9000005    2    1    2  501    0  0.31817261328E+02  0.35633647334E+01 -0.62569109885E+02  0.46676917807E+03  0.46144721951E+03 0.  0.
         13    1    3    3    0    0  0.12007462266E+03  0.76562620153E+02  0.16138159702E+03  0.21522957434E+03  0.00000000000E+00 0.  1.
          1    1    3    3  501    0 -0.88257361335E+02 -0.72999255420E+02 -0.22395070691E+03  0.25153960373E+03  0.00000000000E+00 0.  1.
         21    1    1    2  502  501 -0.31817261328E+02 -0.35633647334E+01  0.14474341250E+02  0.35136053297E+02  0.00000000000E+00 0. -1.
<scales pt_clust_4="550.00000" pt_clust_5="550.00000" pt_clust_6="32.01618"></scales>
<mgrwt>
<rscale>  0 0.30000000E+03</rscale>
<asrwt>  1 0.32016179E+02</asrwt>
<pdfrwt beam="1">  1        1 0.82510993E+00 0.30000000E+03</pdfrwt>
<pdfrwt beam="2">0</pdfrwt>
<totfact> 0.66274164E-04</totfact>
</mgrwt>
<clustering>
<clus scale="   32.016">  1  6  2 -1</clus>
<clus scale="  461.447">  4  5 -1 -1</clus>
<clus scale="  300.000">  1  4  2 -1</clus>
</clustering>
</event>
<event>
 6    1  0.9254630E-012  0.3000000E+03  0.7818608E-02  0.1093470E+00
          1   -1    0    0  502    0  0.00000000000E+00  0.00000000000E+00  0.24334394733E+03  0.24334394733E+03  0.00000000000E+00 0.  1.
         13   -1    0    0    0    0 -0.00000000000E+00 -0.00000000000E+00 -0.27500000000E+03  0.27500000000E+03  0.00000000000E+00 0.  1.
    9000005    2    1    2  501    0 -0.18921478920E+02 -0.28233162172E+02 -0.43292284649E+02  0.48241992048E+03  0.47926988634E+03 0.  0.
         13    1    3    3    0    0 -0.13974378040E+03 -0.18889969779E+03 -0.12413580721E+03  0.26574634262E+03  0.00000000000E+00 0.  1.
          3    1    3    3  501    0  0.12082230148E+03  0.16066653562E+03  0.80843522560E+02  0.21667357786E+03  0.00000000000E+00 0.  1.
         21    1    1    2  502  501  0.18921478920E+02  0.28233162172E+02  0.11636231979E+02  0.35924026854E+02  0.00000000000E+00 0.  1.
<scales pt_clust_4="550.00000" pt_clust_5="550.00000" pt_clust_6="33.98726"></scales>
<mgrwt>
<rscale>  0 0.30000000E+03</rscale>
<asrwt>  1 0.33987260E+02</asrwt>
<pdfrwt beam="1">  1        1 0.88488708E+00 0.30000000E+03</pdfrwt>
<pdfrwt beam="2">0</pdfrwt>
<totfact> 0.17125367E-04</totfact>
</mgrwt>
<clustering>
<clus scale="   33.987">  1  6  2 -1</clus>
<clus scale="  479.270">  4  5 -1 -1</clus>
<clus scale="  300.000">  1  4  2 -1</clus>
</clustering>
</event>
<event>
 6    1  0.9254630E-012  0.3000000E+03  0.7818608E-02  0.1093470E+00
          1   -1    0    0  502    0  0.00000000000E+00  0.00000000000E+00  0.23098561917E+03  0.23098561917E+03  0.00000000000E+00 0.  1.
         13   -1    0    0    0    0 -0.00000000000E+00 -0.00000000000E+00 -0.27500000000E+03  0.27500000000E+03  0.00000000000E+00 0.  1.
    9000005    2    1    2  501    0  0.10988609305E+02  0.28487949807E+02 -0.53360662383E+02  0.47405341289E+03  0.47004996029E+03 0.  0.
         13    1    3    3    0    0 -0.15546841180E+03 -0.15329517517E+03 -0.63445949513E+02  0.22736584244E+03  0.00000000000E+00 0.  1.
          3    1    3    3  501    0  0.16645702111E+03  0.18178312497E+03  0.10085287130E+02  0.24668757046E+03  0.00000000000E+00 0.  1.
         21    1    1    2  502  501 -0.10988609305E+02 -0.28487949807E+02  0.93462815513E+01  0.31932206274E+02  0.00000000000E+00 0.  1.
<scales pt_clust_4="550.00000" pt_clust_5="550.00000" pt_clust_6="30.53380"></scales>
<mgrwt>
<rscale>  0 0.30000000E+03</rscale>
<asrwt>  1 0.30533798E+02</asrwt>
<pdfrwt beam="1">  1        1 0.83994771E+00 0.30000000E+03</pdfrwt>
<pdfrwt beam="2">0</pdfrwt>
<totfact> 0.51053609E-04</totfact>
</mgrwt>
<clustering>
<clus scale="   30.534">  1  6  2 -1</clus>
<clus scale="  470.050">  4  5 -1 -1</clus>
<clus scale="  300.000">  1  4  2 -1</clus>
</clustering>
</event>
<event>
 6    1  0.9254630E-012  0.3000000E+03  0.7818608E-02  0.1093470E+00
          1   -1    0    0  502    0  0.00000000000E+00  0.00000000000E+00  0.23305119152E+03  0.23305119152E+03  0.00000000000E+00 0.  1.
         13   -1    0    0    0    0 -0.00000000000E+00 -0.00000000000E+00 -0.27500000000E+03  0.27500000000E+03  0.00000000000E+00 0.  1.
    9000005    2    1    2  501    0 -0.15071516172E+02 -0.29491960560E+02 -0.65466392401E+02  0.46743096145E+03  0.46163722646E+03 0.  0.
         13    1    3    3    0    0 -0.15818239085E+01 -0.20331754355E+03 -0.16923461580E+03  0.26453899688E+03  0.00000000000E+00 0.  1.
          3    1    3    3  501    0 -0.13489692263E+02  0.17382558299E+03  0.10376822340E+03  0.20289196457E+03  0.00000000000E+00 0.  1.
         21    1    1    2  502  501  0.15071516172E+02  0.29491960560E+02  0.23517583925E+02  0.40620230071E+02  0.00000000000E+00 0. -1.
<scales pt_clust_4="550.00000" pt_clust_5="550.00000" pt_clust_6="33.11988"></scales>
<mgrwt>
<rscale>  0 0.30000000E+03</rscale>
<asrwt>  1 0.33119878E+02</asrwt>
<pdfrwt beam="1">  1        1 0.84745888E+00 0.30000000E+03</pdfrwt>
<pdfrwt beam="2">0</pdfrwt>
<totfact> 0.43407064E-04</totfact>
</mgrwt>
<clustering>
<clus scale="   33.120">  1  6  2 -1</clus>
<clus scale="  461.637">  4  5 -1 -1</clus>
<clus scale="  300.000">  1  4  2 -1</clus>
</clustering>
</event>
<event>
 6    1  0.9254630E-012  0.3000000E+03  0.7818608E-02  0.1093470E+00
          1   -1    0    0  502    0  0.00000000000E+00  0.00000000000E+00  0.25916352234E+03  0.25916352234E+03  0.00000000000E+00 0.  1.
         13   -1    0    0    0    0 -0.00000000000E+00 -0.00000000000E+00 -0.27500000000E+03  0.27500000000E+03  0.00000000000E+00 0.  1.
    9000005    2    1    2  501    0 -0.16327518497E+02  0.29964795333E+02 -0.56282293504E+02  0.48124527559E+03  0.47672302430E+03 0.  0.
         13    1    3    3    0    0  0.59308597471E+02  0.16263436273E+03  0.14692088844E+03  0.22705328259E+03  0.00000000000E+00 0.  1.
          1    1    3    3  501    0 -0.75636115968E+02 -0.13266956740E+03 -0.20320318194E+03  0.25419199300E+03  0.00000000000E+00 0.  1.
         21    1    1    2  502  501  0.16327518497E+02 -0.29964795333E+02  0.40445815844E+02  0.52918246748E+02  0.00000000000E+00 0.  1.
<scales pt_clust_4="550.00000" pt_clust_5="550.00000" pt_clust_6="34.12443"></scales>
<mgrwt>
<rscale>  0 0.30000000E+03</rscale>
<asrwt>  1 0.34124431E+02</asrwt>
<pdfrwt beam="1">  1        1 0.94241281E+00 0.30000000E+03</pdfrwt>
<pdfrwt beam="2">0</pdfrwt>
<totfact> 0.17465429E-05</totfact>
</mgrwt>
<clustering>
<clus scale="   34.124">  1  6  2 -1</clus>
<clus scale="  476.723">  4  5 -1 -1</clus>
<clus scale="  300.000">  1  4  2 -1</clus>
</clustering>
</event>
<event>
 6    1  0.9254630E-012  0.3000000E+03  0.7818608E-02  0.1093470E+00
          1   -1    0    0  502    0  0.00000000000E+00  0.00000000000E+00  0.21998336336E+03  0.21998336336E+03  0.00000000000E+00 0.  1.
         13   -1    0    0    0    0 -0.00000000000E+00 -0.00000000000E+00 -0.27500000000E+03  0.27500000000E+03  0.00000000000E+00 0.  1.
    9000005    2    1    2  501    0 -0.59041947041E+01  0.32328532630E+02 -0.61419435211E+02  0.46150218407E+03  0.45621477984E+03 0.  0.
         13    1    3    3    0    0 -0.63372000636E+02 -0.18871630479E+03  0.53062841218E+02  0.20602310375E+03  0.00000000000E+00 0.  1.
          1    1    3    3  501    0  0.57467805931E+02  0.22104483742E+03 -0.11448227643E+03  0.25547908033E+03  0.00000000000E+00 0.  1.
         21    1    1    2  502  501  0.59041947041E+01 -0.32328532630E+02  0.64027985752E+01  0.33481179290E+02  0.00000000000E+00 0.  1.
<scales pt_clust_4="550.00000" pt_clust_5="550.00000" pt_clust_6="32.86326"></scales>
<mgrwt>
<rscale>  0 0.30000000E+03</rscale>
<asrwt>  1 0.32863255E+02</asrwt>
<pdfrwt beam="1">  1        1 0.79993950E+00 0.30000000E+03</pdfrwt>
<pdfrwt beam="2">0</pdfrwt>
<totfact> 0.10504449E-03</totfact>
</mgrwt>
<clustering>
<clus scale="   32.863">  1  6  2 -1</clus>
<clus scale="  456.215">  4  5 -1 -1</clus>
<clus scale="  300.000">  1  4  2 -1</clus>
</clustering>
</event>
<event>
 6    1  0.9254630E-012  0.3000000E+03  0.7818608E-02  0.1093470E+00
          1   -1    0    0  502    0  0.00000000000E+00  0.00000000000E+00  0.23274931262E+03  0.23274931262E+03  0.00000000000E+00 0.  1.
         13   -1    0    0    0    0 -0.00000000000E+00 -0.00000000000E+00 -0.27500000000E+03  0.27500000000E+03  0.00000000000E+00 0.  1.
    9000005    2    1    2  501    0  0.35045062345E+02 -0.18023765385E+02 -0.52283273417E+02  0.46708402895E+03  0.46247263368E+03 0.  0.
         13    1    3    3    0    0  0.28005097604E+01 -0.30503024539E+02  0.20510711387E+03  0.20738178686E+03  0.00000000000E+00 0.  1.
          3    1    3    3  501    0  0.32244552584E+02  0.12479259154E+02 -0.25739038728E+03  0.25970224209E+03  0.00000000000E+00 0.  1.
         21    1    1    2  502  501 -0.35045062345E+02  0.18023765385E+02  0.10032586034E+02  0.40665283669E+02  0.00000000000E+00 0.  1.
<scales pt_clust_4="550.00000" pt_clust_5="550.00000" pt_clust_6="39.40828"></scales>
<mgrwt>
<rscale>  0 0.30000000E+03</rscale>
<asrwt>  1 0.39408280E+02</asrwt>
<pdfrwt beam="1">  1        1 0.84636114E+00 0.30000000E+03</pdfrwt>
<pdfrwt beam="2">0</pdfrwt>
<totfact> 0.42994159E-04</totfact>
</mgrwt>
<clustering>
<clus scale="   39.408">  1  6  2 -1</clus>
<clus scale="  462.473">  4  5 -1 -1</clus>
<clus scale="  300.000">  1  4  2 -1</clus>
</clustering>
</event>
<event>
 6    1  0.9254630E-012  0.3000000E+03  0.7818608E-02  0.1093470E+00
          1   -1    0    0  502    0  0.00000000000E+00  0.00000000000E+00  0.25068835148E+03  0.25068835148E+03  0.00000000000E+00 0.  1.
         13   -1    0    0    0    0 -0.00000000000E+00 -0.00000000000E+00 -0.27500000000E+03  0.27500000000E+03  0.00000000000E+00 0.  1.
    9000005    2    1    2  501    0 -0.27416526497E+02 -0.12514173709E+02 -0.68322505200E+02  0.47234769181E+03  0.46640766157E+03 0.  0.
         13    1    3    3    0    0 -0.21311698628E+02 -0.23449731055E+03 -0.83330157225E+02  0.24977408244E+03  0.00000000000E+00 0.  1.
          3    1    3    3  501    0 -0.61048278685E+01  0.22198313685E+03  0.15007652026E+02  0.22257360937E+03  0.00000000000E+00 0.  1.
         21    1    1    2  502  501  0.27416526497E+02  0.12514173709E+02  0.44010856681E+02  0.53340659675E+02  0.00000000000E+00 0.  1.
<scales pt_clust_4="550.00000" pt_clust_5="550.00000" pt_clust_6="30.13753"></scales>
<mgrwt>
<rscale>  0 0.30000000E+03</rscale>
<asrwt>  1 0.30137526E+02</asrwt>
<pdfrwt beam="1">  1        1 0.91159401E+00 0.30000000E+03</pdfrwt>
<pdfrwt beam="2">0</pdfrwt>
<totfact> 0.67514935E-05</totfact>
</mgrwt>
<clustering>
<clus scale="   30.138">  1  6  2 -1</clus>
<clus scale="  466.408">  4  5 -1 -1</clus>
<clus scale="  300.000">  1  4  2 -1</clus>
</clustering>
</event>
<event>
 6    1  0.9254630E-012  0.3000000E+03  0.7818608E-02  0.1093470E+00
          1   -1    0    0  502    0  0.00000000000E+00  0.00000000000E+00  0.22729893532E+03  0.22729893532E+03  0.00000000000E+00 0.  1.
         13   -1    0    0    0    0 -0.00000000000E+00 -0.00000000000E+00 -0.27500000000E+03  0.27500000000E+03  0.00000000000E+00 0.  1.
    9000005    2    1    2  501    0  0.10857515240E+02  0.27986006016E+02 -0.56841756265E+02  0.47091973182E+03  0.46651185021E+03 0.  0.
         13    1    3    3    0    0  0.21338616699E+03 -0.87051573512E+02  0.28339556630E+01  0.23047703578E+03  0.00000000000E+00 0.  1.
          1    1    3    3  501    0 -0.20252865175E+03  0.11503757953E+03 -0.59675711928E+02  0.24044269604E+03  0.00000000000E+00 0.  1.
         21    1    1    2  502  501 -0.10857515240E+02 -0.27986006016E+02  0.91406915852E+01  0.31379203504E+02  0.00000000000E+00 0.  1.
<scales pt_clust_4="550.00000" pt_clust_5="550.00000" pt_clust_6="30.01836"></scales>
<mgrwt>
<rscale>  0 0.30000000E+03</rscale>
<asrwt>  1 0.30018364E+02</asrwt>
<pdfrwt beam="1">  1        1 0.82654158E+00 0.30000000E+03</pdfrwt>
<pdfrwt beam="2">0</pdfrwt>
<totfact> 0.65159697E-04</totfact>
</mgrwt>
<clustering>
<clus scale="   30.018">  1  6  2 -1</clus>
<clus scale="  466.512">  4  5 -1 -1</clus>
<clus scale="  300.000">  1  4  2 -1</clus>
</clustering>
</event>
<event>
 6    1  0.9254630E-012  0.3000000E+03  0.7818608E-02  0.1093470E+00
          1   -1    0    0  502    0  0.00000000000E+00  0.00000000000E+00  0.23501628529E+03  0.23501628529E+03  0.00000000000E+00 0.  1.
         13   -1    0    0    0    0 -0.00000000000E+00 -0.00000000000E+00 -0.27500000000E+03  0.27500000000E+03  0.00000000000E+00 0.  1.
    9000005    2    1    2  501    0  0.22362944823E+02  0.37356415539E+02 -0.51223076658E+02  0.46505045004E+03  0.46016574668E+03 0.  0.
         13    1    3    3    0    0 -0.86900748939E+02  0.21343613329E+03 -0.10150186612E+03  0.25181213630E+03  0.00000000000E+00 0.  1.
          1    1    3    3  501    0  0.10926369376E+03 -0.17607971775E+03  0.50278789463E+02  0.21323831374E+03  0.00000000000E+00 0.  1.
         21    1    1    2  502  501 -0.22362944823E+02 -0.37356415539E+02  0.11239361949E+02  0.44965835254E+02  0.00000000000E+00 0. -1.
<scales pt_clust_4="550.00000" pt_clust_5="550.00000" pt_clust_6="43.53852"></scales>
<mgrwt>
<rscale>  0 0.30000000E+03</rscale>
<asrwt>  1 0.43538524E+02</asrwt>
<pdfrwt beam="1">  1        1 0.85460467E+00 0.30000000E+03</pdfrwt>
<pdfrwt beam="2">0</pdfrwt>
<totfact> 0.35320543E-04</totfact>
</mgrwt>
<clustering>
<clus scale="   43.539">  1  6  2 -1</clus>
<clus scale="  460.166">  4  5 -1 -1</clus>
<clus scale="  300.000">  1  4  2 -1</clus>
</clustering>
</event>
<event>
 6    1  0.9254630E-012  0.3000000E+03  0.7818608E-02  0.1093470E+00
          1   -1    0    0  502    0  0.00000000000E+00  0.00000000000E+00  0.24459187885E+03  0.24459187885E+03  0.00000000000E+00 0.  1.
         13   -1    0    0    0    0 -0.00000000000E+00 -0.00000000000E+00 -0.27500000000E+03  0.27500000000E+03  0.00000000000E+00 0.  1.
    9000005    2    1    2  501    0  0.43535904417E+02  0.30292337016E+02 -0.45502340516E+02  0.46444810211E+03  0.45916072992E+03 0.  0.
         13    1    3    3    0    0  0.10355699160E+03 -0.97467137597E+02 -0.20624720268E+03  0.25052305689E+03  0.00000000000E+00 0.  1.
          1    1    3    3  501    0 -0.60021087180E+02  0.12775947461E+03  0.16074486216E+03  0.21392504522E+03  0.00000000000E+00 0.  1.
         21    1    1    2  502  501 -0.43535904417E+02 -0.30292337016E+02  0.15094219368E+02  0.55143776744E+02  0.00000000000E+00 0.  1.
<scales pt_clust_4="550.00000" pt_clust_5="550.00000" pt_clust_6="53.03773"></scales>
<mgrwt>
<rscale>  0 0.30000000E+03</rscale>
<asrwt>  1 0.53037729E+02</asrwt>
<pdfrwt beam="1">  1        1 0.88942501E+00 0.30000000E+03</pdfrwt>
<pdfrwt beam="2">0</pdfrwt>
<totfact> 0.13690544E-04</totfact>
</mgrwt>
<clustering>
<clus scale="   53.038">  1  6  2 -1</clus>
<clus scale="  459.161">  4  5 -1 -1</clus>
<clus scale="  300.000">  1  4  2 -1</clus>
</clustering>
</event>
<event>
 6    1  0.9254630E-012  0.3000000E+03  0.7818608E-02  0.1093470E+00
          1   -1    0    0  502    0  0.00000000000E+00  0.00000000000E+00  0.22548702245E+03  0.22548702245E+03  0.00000000000E+00 0.  1.
         13   -1    0    0    0    0 -0.00000000000E+00 -0.00000000000E+00 -0.27500000000E+03  0.27500000000E+03  0.00000000000E+00 0.  1.
    9000005    2    1    2  501    0 -0.57424007945E+01  0.29707725752E+02 -0.61161883649E+02  0.46806448169E+03  0.46306377409E+03 0.  0.
         13    1    3    3    0    0  0.23396410406E+02 -0.14194483647E+03  0.14088075683E+03  0.20135321270E+03  0.00000000000E+00 0.  1.
          3    1    3    3  501    0 -0.29138811200E+02  0.17165256222E+03 -0.20204264047E+03  0.26671126899E+03  0.00000000000E+00 0.  1.
         21    1    1    2  502  501  0.57424007945E+01 -0.29707725752E+02  0.11648906102E+02  0.32422540765E+02  0.00000000000E+00 0.  1.
<scales pt_clust_4="550.00000" pt_clust_5="550.00000" pt_clust_6="30.25763"></scales>
<mgrwt>
<rscale>  0 0.30000000E+03</rscale>
<asrwt>  1 0.30257629E+02</asrwt>
<pdfrwt beam="1">  1        1 0.81995281E+00 0.30000000E+03</pdfrwt>
<pdfrwt beam="2">0</pdfrwt>
<totfact> 0.74423795E-04</totfact>
</mgrwt>
<clustering>
<clus scale="   30.258">  1  6  2 -1</clus>
<clus scale="  463.064">  4  5 -1 -1</clus>
<clus scale="  300.000">  1  4  2 -1</clus>
</clustering>
</event>
<event>
 6    1  0.9254630E-012  0.3000000E+03  0.7818608E-02  0.1093470E+00
          1   -1    0    0  502    0  0.00000000000E+00  0.00000000000E+00  0.26376878826E+03  0.26376878826E+03  0.00000000000E+00 0.  1.
         13   -1    0    0    0    0 -0.00000000000E+00 -0.00000000000E+00 -0.27500000000E+03  0.27500000000E+03  0.00000000000E+00 0.  1.
    9000005    2    1    2  501    0  0.11310091741E+02 -0.28021119071E+02 -0.20979813518E+02  0.50701762252E+03  0.50568133808E+03 0.  0.
         13    1    3    3    0    0  0.11164803091E+03  0.18616198177E+03  0.10266435275E+03  0.24012816492E+03  0.00000000000E+00 0.  1.
          3    1    3    3  501    0 -0.10033793917E+03 -0.21418310084E+03 -0.12364416627E+03  0.26688945760E+03  0.00000000000E+00 0.  1.
         21    1    1    2  502  501 -0.11310091741E+02  0.28021119071E+02  0.97486017734E+01  0.31751165738E+02  0.00000000000E+00 0.  1.
<scales pt_clust_4="550.00000" pt_clust_5="550.00000" pt_clust_6="30.21757"></scales>
<mgrwt>
<rscale>  0 0.30000000E+03</rscale>
<asrwt>  1 0.30217566E+02</asrwt>
<pdfrwt beam="1">  1        1 0.95915923E+00 0.30000000E+03</pdfrwt>
<pdfrwt beam="2">0</pdfrwt>
<totfact> 0.81313347E-06</totfact>
</mgrwt>
<clustering>
<clus scale="   30.218">  1  6  2 -1</clus>
<clus scale="  505.681">  4  5 -1 -1</clus>
<clus scale="  300.000">  1  4  2 -1</clus>
</clustering>
</event>
<event>
 6    1  0.9254630E-012  0.3000000E+03  0.7818608E-02  0.1093470E+00
          1   -1    0    0  502    0  0.00000000000E+00  0.00000000000E+00  0.24422309171E+03  0.24422309171E+03  0.00000000000E+00 0.  1.
         13   -1    0    0    0    0 -0.00000000000E+00 -0.00000000000E+00 -0.27500000000E+03  0.27500000000E+03  0.00000000000E+00 0.  1.
    9000005    2    1    2  501    0  0.16721751953E+02 -0.37213968260E+02 -0.68559001943E+02  0.46361748927E+03  0.45670159096E+03 0.  0.
         13    1    3    3    0    0 -0.12373425855E+02 -0.19832406513E+03  0.10523499519E+03  0.22485537728E+03  0.00000000000E+00 0.  1.
          1    1    3    3  501    0  0.29095177808E+02  0.16111009687E+03 -0.17379399713E+03  0.23876211199E+03  0.00000000000E+00 0.  1.
         21    1    1    2  502  501 -0.16721751953E+02  0.37213968260E+02  0.37782093656E+02  0.55605602443E+02  0.00000000000E+00 0.  1.
<scales pt_clust_4="550.00000" pt_clust_5="550.00000" pt_clust_6="40.79824"></scales>
<mgrwt>
<rscale>  0 0.30000000E+03</rscale>
<asrwt>  1 0.40798240E+02</asrwt>
<pdfrwt beam="1">  1        1 0.88808397E+00 0.30000000E+03</pdfrwt>
<pdfrwt beam="2">0</pdfrwt>
<totfact> 0.14959676E-04</totfact>
</mgrwt>
<clustering>
<clus scale="   40.798">  1  6  2 -1</clus>
<clus scale="  456.702">  4  5 -1 -1</clus>
<clus scale="  300.000">  1  4  2 -1</clus>
</clustering>
</event>
<event>
 6    1  0.9254630E-012  0.3000000E+03  0.7818608E-02  0.1093470E+00
          1   -1    0    0  502    0  0.00000000000E+00  0.00000000000E+00  0.24191917761E+03  0.24191917761E+03  0.00000000000E+00 0.  1.
         13   -1    0    0    0    0 -0.00000000000E+00 -0.00000000000E+00 -0.27500000000E+03  0.27500000000E+03  0.00000000000E+00 0.  1.
    9000005    2    1    2  501    0  0.35975238550E+02  0.13718086863E+02 -0.42759074471E+02  0.47721940104E+03  0.47373791762E+03 0.  0.
         13    1    3    3    0    0 -0.54808833427E+02  0.22762264672E+03 -0.67157404034E+02  0.24356969114E+03  0.00000000000E+00 0.  1.
          1    1    3    3  501    0  0.90784071977E+02 -0.21390455986E+03  0.24398329563E+02  0.23364970991E+03  0.00000000000E+00 0.  1.
         21    1    1    2  502  501 -0.35975238550E+02 -0.13718086863E+02  0.96782520779E+01  0.39699776563E+02  0.00000000000E+00 0.  1.
<scales pt_clust_4="550.00000" pt_clust_5="550.00000" pt_clust_6="38.50200"></scales>
<mgrwt>
<rscale>  0 0.30000000E+03</rscale>
<asrwt>  1 0.38501996E+02</asrwt>
<pdfrwt beam="1">  1        1 0.87970610E+00 0.30000000E+03</pdfrwt>
<pdfrwt beam="2">0</pdfrwt>
<totfact> 0.19553375E-04</totfact>
</mgrwt>
<clustering>
<clus scale="   38.502">  1  6  2 -1</clus>
<clus scale="  473.738">  4  5 -1 -1</clus>
<clus scale="  300.000">  1  4  2 -1</clus>
</clustering>
</event>
<event>
 6    1  0.9254630E-012  0.3000000E+03  0.7818608E-02  0.1093470E+00
          1   -1    0    0  502    0  0.00000000000E+00  0.00000000000E+00  0.22472141430E+03  0.22472141430E+03  0.00000000000E+00 0.  1.
         13   -1    0    0    0    0 -0.00000000000E+00 -0.00000000000E+00 -0.27500000000E+03  0.27500000000E+03  0.00000000000E+00 0.  1.
    9000005    2    1    2  501    0 -0.17589824976E+02 -0.24655779482E+02 -0.64437496491E+02  0.46628813508E+03  0.46082005660E+03 0.  0.
         13    1    3    3    0    0 -0.21275351620E+03 -0.97842287507E+02  0.32493452715E+02  0.23641699674E+03  0.00000000000E+00 0.  1.
          1    1    3    3  501    0  0.19516369122E+03  0.73186508026E+02 -0.96930949206E+02  0.22987113834E+03  0.00000000000E+00 0.  1.
         21    1    1    2  502  501  0.17589824976E+02  0.24655779482E+02  0.14158910794E+02  0.33433279220E+02  0.00000000000E+00 0.  1.
<scales pt_clust_4="550.00000" pt_clust_5="550.00000" pt_clust_6="30.28712"></scales>
<mgrwt>
<rscale>  0 0.30000000E+03</rscale>
<asrwt>  1 0.30287116E+02</asrwt>
<pdfrwt beam="1">  1        1 0.81716878E+00 0.30000000E+03</pdfrwt>
<pdfrwt beam="2">0</pdfrwt>
<totfact> 0.78549581E-04</totfact>
</mgrwt>
<clustering>
<clus scale="   30.287">  1  6  2 -1</clus>
<clus scale="  460.820">  4  5 -1 -1</clus>
<clus scale="  300.000">  1  4  2 -1</clus>
</clustering>
</event>
<event>
 6    1  0.9254630E-012  0.3000000E+03  0.7818608E-02  0.1093470E+00
          1   -1    0    0  502    0  0.00000000000E+00  0.00000000000E+00  0.22387612647E+03  0.22387612647E+03  0.00000000000E+00 0.  1.
         13   -1    0    0    0    0 -0.00000000000E+00 -0.00000000000E+00 -0.27500000000E+03  0.27500000000E+03  0.00000000000E+00 0.  1.
    9000005    2    1    2  501    0  0.12724069371E+02  0.29805866459E+02 -0.29721565892E+02  0.46003863956E+03  0.45793218580E+03 0.  0.
         13    1    3    3    0    0  0.15625682476E+03  0.18115870251E+03  0.34670455922E+02  0.24173686375E+03  0.00000000000E+00 0.  1.
          1    1    3    3  501    0 -0.14353275539E+03 -0.15135283605E+03 -0.64392021815E+02  0.21830177582E+03  0.00000000000E+00 0.  1.
         21    1    1    2  502  501 -0.12724069371E+02 -0.29805866459E+02 -0.21402307640E+02  0.38837486905E+02  0.00000000000E+00 0. -1.
<scales pt_clust_4="550.00000" pt_clust_5="550.00000" pt_clust_6="32.40822"></scales>
<mgrwt>
<rscale>  0 0.30000000E+03</rscale>
<asrwt>  1 0.32408219E+02</asrwt>
<pdfrwt beam="1">  1        1 0.81409501E+00 0.30000000E+03</pdfrwt>
<pdfrwt beam="2">0</pdfrwt>
<totfact> 0.82132883E-04</totfact>
</mgrwt>
<clustering>
<clus scale="   32.408">  1  6  2 -1</clus>
<clus scale="  457.932">  4  5 -1 -1</clus>
<clus scale="  300.000">  1  4  2 -1</clus>
</clustering>
</event>
<event>
 6    1  0.9254630E-012  0.3000000E+03  0.7818608E-02  0.1093470E+00
          1   -1    0    0  502    0  0.00000000000E+00  0.00000000000E+00  0.23982502928E+03  0.23982502928E+03  0.00000000000E+00 0.  1.
         13   -1    0    0    0    0 -0.00000000000E+00 -0.00000000000E+00 -0.27500000000E+03  0.27500000000E+03  0.00000000000E+00 0.  1.
    9000005    2    1    2  501    0  0.68334599483E+01  0.31094580584E+02 -0.72463740799E+02  0.46579420744E+03  0.45902034904E+03 0.  0.
         13    1    3    3    0    0  0.17822643645E+03 -0.13125243178E+03 -0.98721817267E+01  0.22156110550E+03  0.00000000000E+00 0.  1.
          1    1    3    3  501    0 -0.17139297650E+03  0.16234701236E+03 -0.62591559072E+02  0.24423310194E+03  0.00000000000E+00 0.  1.
         21    1    1    2  502  501 -0.68334599483E+01 -0.31094580584E+02  0.37288770076E+02  0.49030821840E+02  0.00000000000E+00 0.  1.
<scales pt_clust_4="550.00000" pt_clust_5="550.00000" pt_clust_6="31.83660"></scales>
<mgrwt>
<rscale>  0 0.30000000E+03</rscale>
<asrwt>  1 0.31836600E+02</asrwt>
<pdfrwt beam="1">  1        1 0.87209102E+00 0.30000000E+03</pdfrwt>
<pdfrwt beam="2">0</pdfrwt>
<totfact> 0.24544861E-04</totfact>
</mgrwt>
<clustering>
<clus scale="   31.837">  1  6  2 -1</clus>
<clus scale="  459.020">  4  5 -1 -1</clus>
<clus scale="  300.000">  1  4  2 -1</clus>
</clustering>
</event>
<event>
 6    1  0.9254630E-012  0.3000000E+03  0.7818608E-02  0.1093470E+00
          1   -1    0    0  502    0  0.00000000000E+00  0.00000000000E+00  0.24582465078E+03  0.24582465078E+03  0.00000000000E+00 0.  1.
         13   -1    0    0    0    0 -0.00000000000E+00 -0.00000000000E+00 -0.27500000000E+03  0.27500000000E+03  0.00000000000E+00 0.  1.
    9000005    2    1    2  501    0 -0.23297812903E+02 -0.30719090005E+02 -0.28788458381E+01  0.47415606748E+03  0.47257722967E+03 0.  0.
         13    1    3    3    0    0  0.60969856582E+02 -0.66158267127E+02 -0.22048148076E+03  0.23813089484E+03  0.00000000000E+00 0.  1.
          1    1    3    3  501    0 -0.84267669485E+02  0.35439177122E+02  0.21760263492E+03  0.23602517264E+03  0.00000000000E+00 0.  1.
         21    1    1    2  502  501  0.23297812903E+02  0.30719090005E+02 -0.26296503384E+02  0.46668583298E+02  0.00000000000E+00 0.  1.
<scales pt_clust_4="550.00000" pt_clust_5="550.00000" pt_clust_6="38.55453"></scales>
<mgrwt>
<rscale>  0 0.30000000E+03</rscale>
<asrwt>  1 0.38554534E+02</asrwt>
<pdfrwt beam="1">  1        1 0.89390782E+00 0.30000000E+03</pdfrwt>
<pdfrwt beam="2">0</pdfrwt>
<totfact> 0.12743044E-04</totfact>
</mgrwt>
<clustering>
<clus scale="   38.555">  1  6  2 -1</clus>
<clus scale="  472.577">  4  5 -1 -1</clus>
<clus scale="  300.000">  1  4  2 -1</clus>
</clustering>
</event>
<event>
 6    1  0.9254630E-012  0.3000000E+03  0.7818608E-02  0.1093470E+00
          1   -1    0    0  502    0  0.00000000000E+00  0.00000000000E+00  0.23489537532E+03  0.23489537532E+03  0.00000000000E+00 0.  1.
         13   -1    0    0    0    0 -0.00000000000E+00 -0.00000000000E+00 -0.27500000000E+03  0.27500000000E+03  0.00000000000E+00 0.  1.
    9000005    2    1    2  501    0  0.44130163218E+00  0.42119553975E+02 -0.25354088446E+02  0.46526545381E+03  0.46266063279E+03 0.  0.
         13    1    3    3    0    0 -0.14149673673E+03  0.13921177169E+03 -0.15339782636E+03  0.25086278523E+03  0.00000000000E+00 0.  1.
          1    1    3    3  501    0  0.14193803837E+03 -0.97092217717E+02  0.12804373791E+03  0.21440266858E+03  0.00000000000E+00 0.  1.
         21    1    1    2  502  501 -0.44130163218E+00 -0.42119553975E+02 -0.14750536236E+02  0.44629921504E+02  0.00000000000E+00 0. -1.
<scales pt_clust_4="550.00000" pt_clust_5="550.00000" pt_clust_6="42.12189"></scales>
<mgrwt>
<rscale>  0 0.30000000E+03</rscale>
<asrwt>  1 0.42121887E+02</asrwt>
<pdfrwt beam="1">  1        1 0.85416500E+00 0.30000000E+03</pdfrwt>
<pdfrwt beam="2">0</pdfrwt>
<totfact> 0.35885648E-04</totfact>
</mgrwt>
<clustering>
<clus scale="   42.122">  1  6  2 -1</clus>
<clus scale="  462.661">  4  5 -1 -1</clus>
<clus scale="  300.000">  1  4  2 -1</clus>
</clustering>
</event>
<event>
 6    1  0.9254630E-012  0.3000000E+03  0.7818608E-02  0.1093470E+00
          1   -1    0    0  502    0  0.00000000000E+00  0.00000000000E+00  0.24931543342E+03  0.24931543342E+03  0.00000000000E+00 0.  1.
         13   -1    0    0    0    0 -0.00000000000E+00 -0.00000000000E+00 -0.27500000000E+03  0.27500000000E+03  0.00000000000E+00 0.  1.
    9000005    2    1    2  501    0 -0.38291615517E+02  0.38525182742E+02 -0.40467777578E+02  0.46802173172E+03  0.46309422671E+03 0.  0.
         13    1    3    3    0    0 -0.21767768870E+03  0.50929390769E+02  0.94984838527E+02  0.24289812381E+03  0.00000000000E+00 0.  1.
          1    1    3    3  501    0  0.17938607318E+03 -0.12404208027E+02 -0.13545261610E+03  0.22512360791E+03  0.00000000000E+00 0.  1.
         21    1    1    2  502  501  0.38291615517E+02 -0.38525182742E+02  0.14783210998E+02  0.56293701704E+02  0.00000000000E+00 0.  1.
<scales pt_clust_4="550.00000" pt_clust_5="550.00000" pt_clust_6="54.31793"></scales>
<mgrwt>
<rscale>  0 0.30000000E+03</rscale>
<asrwt>  1 0.54317930E+02</asrwt>
<pdfrwt beam="1">  1        1 0.90660158E+00 0.30000000E+03</pdfrwt>
<pdfrwt beam="2">0</pdfrwt>
<totfact> 0.79375634E-05</totfact>
</mgrwt>
<clustering>
<clus scale="   54.318">  1  6  2 -1</clus>
<clus scale="  463.094">  4  5 -1 -1</clus>
<clus scale="  300.000">  1  4  2 -1</clus>
</clustering>
</event>
<event>
 6    1  0.9254630E-012  0.3000000E+03  0.7818608E-02  0.1093470E+00
          1   -1    0    0  502    0  0.00000000000E+00  0.00000000000E+00  0.25388708447E+03  0.25388708447E+03  0.00000000000E+00 0.  1.
         13   -1    0    0    0    0 -0.00000000000E+00 -0.00000000000E+00 -0.27500000000E+03  0.27500000000E+03  0.00000000000E+00 0.  1.
    9000005    2    1    2  501    0 -0.25773782301E+02 -0.28581841395E+02 -0.31674179991E+02  0.48897781464E+03  0.48643071451E+03 0.  0.
         13    1    3    3    0    0  0.59251358058E+02 -0.22925503284E+03  0.72194605916E+02  0.24754929738E+03  0.00000000000E+00 0.  1.
          1    1    3    3  501    0 -0.85025140359E+02  0.20067319144E+03 -0.10386878591E+03  0.24142851725E+03  0.00000000000E+00 0.  1.
         21    1    1    2  502  501  0.25773782301E+02  0.28581841395E+02  0.10561264460E+02  0.39909269833E+02  0.00000000000E+00 0.  1.
<scales pt_clust_4="550.00000" pt_clust_5="550.00000" pt_clust_6="38.48648"></scales>
<mgrwt>
<rscale>  0 0.30000000E+03</rscale>
<asrwt>  1 0.38486485E+02</asrwt>
<pdfrwt beam="1">  1        1 0.92322576E+00 0.30000000E+03</pdfrwt>
<pdfrwt beam="2">0</pdfrwt>
<totfact> 0.35070499E-05</totfact>
</mgrwt>
<clustering>
<clus scale="   38.486">  1  6  2 -1</clus>
<clus scale="  486.431">  4  5 -1 -1</clus>
<clus scale="  300.000">  1  4  2 -1</clus>
</clustering>
</event>
<event>
 6    1  0.9254630E-012  0.3000000E+03  0.7818608E-02  0.1093470E+00
          1   -1    0    0  502    0  0.00000000000E+00  0.00000000000E+00  0.26959967257E+03  0.26959967257E+03  0.00000000000E+00 0.  1.
         13   -1    0    0    0    0 -0.00000000000E+00 -0.00000000000E+00 -0.27500000000E+03  0.27500000000E+03  0.00000000000E+00 0.  1.
    9000005    2    1    2  501    0 -0.13951291652E+02  0.44444831111E+02 -0.27109923816E+02  0.49320620872E+03  0.49025241947E+03 0.  0.
         13    1    3    3    0    0  0.57783988212E+02  0.21629465426E+03 -0.15054635014E+03  0.26978986322E+03  0.00000000000E+00 0.  1.
          1    1    3    3  501    0 -0.71735279864E+02 -0.17184982315E+03  0.12343642632E+03  0.22341634550E+03  0.00000000000E+00 0.  1.
         21    1    1    2  502  501  0.13951291652E+02 -0.44444831111E+02  0.21709596383E+02  0.51393463849E+02  0.00000000000E+00 0. -1.
<scales pt_clust_4="550.00000" pt_clust_5="550.00000" pt_clust_6="46.58306"></scales>
<mgrwt>
<rscale>  0 0.30000000E+03</rscale>
<asrwt>  1 0.46583061E+02</asrwt>
<pdfrwt beam="1">  1        1 0.98036245E+00 0.30000000E+03</pdfrwt>
<pdfrwt beam="2">0</pdfrwt>
<totfact> 0.26267424E-06</totfact>
</mgrwt>
<clustering>
<clus scale="   46.583">  1  6  2 -1</clus>
<clus scale="  490.252">  4  5 -1 -1</clus>
<clus scale="  300.000">  1  4  2 -1</clus>
</clustering>
</event>
<event>
 6    1  0.9254630E-012  0.3000000E+03  0.7818608E-02  0.1093470E+00
          1   -1    0    0  502    0  0.00000000000E+00  0.00000000000E+00  0.24090329660E+03  0.24090329660E+03  0.00000000000E+00 0.  1.
         13   -1    0    0    0    0 -0.00000000000E+00 -0.00000000000E+00 -0.27500000000E+03  0.27500000000E+03  0.00000000000E+00 0.  1.
    9000005    2    1    2  501    0  0.15191538884E+02  0.51459482260E+02 -0.23409595271E+02  0.46119428958E+03  0.45746399031E+03 0.  0.
         13    1    3    3    0    0  0.32467736085E+02 -0.19712390052E+03 -0.61690918928E+02  0.20908791338E+03  0.00000000000E+00 0.  1.
          1    1    3    3  501    0 -0.17276197201E+02  0.24858338278E+03  0.38281323657E+02  0.25210637621E+03  0.00000000000E+00 0.  1.
         21    1    1    2  502  501 -0.15191538884E+02 -0.51459482260E+02 -0.10687108131E+02  0.54709007013E+02  0.00000000000E+00 0.  1.
<scales pt_clust_4="550.00000" pt_clust_5="550.00000" pt_clust_6="53.65505"></scales>
<mgrwt>
<rscale>  0 0.30000000E+03</rscale>
<asrwt>  1 0.53655047E+02</asrwt>
<pdfrwt beam="1">  1        1 0.87601199E+00 0.30000000E+03</pdfrwt>
<pdfrwt beam="2">0</pdfrwt>
<totfact> 0.20315853E-04</totfact>
</mgrwt>
<clustering>
<clus scale="   53.655">  1  6  2 -1</clus>
<clus scale="  457.464">  4  5 -1 -1</clus>
<clus scale="  300.000">  1  4  2 -1</clus>
</clustering>
</event>
<event>
 6    1  0.9254630E-012  0.3000000E+03  0.7818608E-02  0.1093470E+00
          1   -1    0    0  502    0  0.00000000000E+00  0.00000000000E+00  0.23592281352E+03  0.23592281352E+03  0.00000000000E+00 0.  1.
         13   -1    0    0    0    0 -0.00000000000E+00 -0.00000000000E+00 -0.27500000000E+03  0.27500000000E+03  0.00000000000E+00 0.  1.
    9000005    2    1    2  501    0  0.18428282538E+01 -0.31702629004E+02 -0.54661130287E+02  0.47554892476E+03  0.47132842899E+03 0.  0.
         13    1    3    3    0    0  0.88137347418E+02 -0.14387660661E+02 -0.24774602601E+03  0.26335012852E+03  0.00000000000E+00 0.  1.
          3    1    3    3  501    0 -0.86294519164E+02 -0.17314968344E+02  0.19308489572E+03  0.21219879623E+03  0.00000000000E+00 0.  1.
         21    1    1    2  502  501 -0.18428282538E+01  0.31702629004E+02  0.15583943808E+02  0.35373888765E+02  0.00000000000E+00 0. -1.
<scales pt_clust_4="550.00000" pt_clust_5="550.00000" pt_clust_6="31.75614"></scales>
<mgrwt>
<rscale>  0 0.30000000E+03</rscale>
<asrwt>  1 0.31756144E+02</asrwt>
<pdfrwt beam="1">  1        1 0.85790114E+00 0.30000000E+03</pdfrwt>
<pdfrwt beam="2">0</pdfrwt>
<totfact> 0.34669150E-04</totfact>
</mgrwt>
<clustering>
<clus scale="   31.756">  1  6  2 -1</clus>
<clus scale="  471.328">  4  5 -1 -1</clus>
<clus scale="  300.000">  1  4  2 -1</clus>
</clustering>
</event>
<event>
 6    1  0.9254630E-012  0.3000000E+03  0.7818608E-02  0.1093470E+00
          1   -1    0    0  502    0  0.00000000000E+00  0.00000000000E+00  0.23522177559E+03  0.23522177559E+03  0.00000000000E+00 0.  1.
         13   -1    0    0    0    0 -0.00000000000E+00 -0.00000000000E+00 -0.27500000000E+03  0.27500000000E+03  0.00000000000E+00 0.  1.
    9000005    2    1    2  501    0  0.23696550655E+02  0.27291620962E+02 -0.45796291804E+02  0.47358059353E+03  0.46997331747E+03 0.  0.
         13    1    3    3    0    0  0.21838253169E+03  0.91130688268E+02 -0.10706837607E+03  0.25972941622E+03  0.00000000000E+00 0.  1.
          1    1    3    3  501    0 -0.19468598104E+03 -0.63839067306E+02  0.61272084263E+02  0.21385117731E+03  0.00000000000E+00 0.  1.
         21    1    1    2  502  501 -0.23696550655E+02 -0.27291620962E+02  0.60180673927E+01  0.36641182061E+02  0.00000000000E+00 0. -1.
<scales pt_clust_4="550.00000" pt_clust_5="550.00000" pt_clust_6="36.14359"></scales>
<mgrwt>
<rscale>  0 0.30000000E+03</rscale>
<asrwt>  1 0.36143590E+02</asrwt>
<pdfrwt beam="1">  1        1 0.85535191E+00 0.30000000E+03</pdfrwt>
<pdfrwt beam="2">0</pdfrwt>
<totfact> 0.35925059E-04</totfact>
</mgrwt>
<clustering>
<clus scale="   36.144">  1  6  2 -1</clus>
<clus scale="  469.973">  4  5 -1 -1</clus>
<clus scale="  300.000">  1  4  2 -1</clus>
</clustering>
</event>
<event>
 6    1  0.9254630E-012  0.3000000E+03  0.7818608E-02  0.1093470E+00
          1   -1    0    0  502    0  0.00000000000E+00  0.00000000000E+00  0.22721372290E+03  0.22721372290E+03  0.00000000000E+00 0.  1.
         13   -1    0    0    0    0 -0.00000000000E+00 -0.00000000000E+00 -0.27500000000E+03  0.27500000000E+03  0.00000000000E+00 0.  1.
    9000005    2    1    2  501    0  0.74713193955E+01 -0.33269503681E+02 -0.51901567331E+02  0.46786818313E+03  0.46372856673E+03 0.  0.
         13    1    3    3    0    0  0.44217404546E+02  0.16754371665E+03  0.11177886655E+03  0.20620521541E+03  0.00000000000E+00 0.  1.
          3    1    3    3  501    0 -0.36746085151E+02 -0.20081322034E+03 -0.16368043389E+03  0.26166296771E+03  0.00000000000E+00 0.  1.
         21    1    1    2  502  501 -0.74713193955E+01  0.33269503681E+02  0.41152902312E+01  0.34345539774E+02  0.00000000000E+00 0.  1.
<scales pt_clust_4="550.00000" pt_clust_5="550.00000" pt_clust_6="34.09810"></scales>
<mgrwt>
<rscale>  0 0.30000000E+03</rscale>
<asrwt>  1 0.34098101E+02</asrwt>
<pdfrwt beam="1">  1        1 0.82623172E+00 0.30000000E+03</pdfrwt>
<pdfrwt beam="2">0</pdfrwt>
<totfact> 0.64001876E-04</totfact>
</mgrwt>
<clustering>
<clus scale="   34.098">  1  6  2 -1</clus>
<clus scale="  463.729">  4  5 -1 -1</clus>
<clus scale="  300.000">  1  4  2 -1</clus>
</clustering>
</event>
<event>
 6    1  0.9254630E-012  0.3000000E+03  0.7818608E-02  0.1093470E+00
          1   -1    0    0  502    0  0.00000000000E+00  0.00000000000E+00  0.25066892958E+03  0.25066892958E+03  0.00000000000E+00 0.  1.
         13   -1    0    0    0    0 -0.00000000000E+00 -0.00000000000E+00 -0.27500000000E+03  0.27500000000E+03  0.00000000000E+00 0.  1.
    9000005    2    1    2  501    0  0.90219817389E+01  0.45728925527E+02 -0.35913623682E+02  0.47764095518E+03  0.47400270349E+03 0.  0.
         13    1    3    3    0    0 -0.13221612505E+03 -0.16543052996E+03 -0.66011121421E+02  0.22182387635E+03  0.00000000000E+00 0.  1.
          1    1    3    3  501    0  0.14123810679E+03  0.21115945549E+03  0.30097497739E+02  0.25581707883E+03  0.00000000000E+00 0.  1.
         21    1    1    2  502  501 -0.90219817389E+01 -0.45728925527E+02  0.11582553260E+02  0.48027974394E+02  0.00000000000E+00 0.  1.
<scales pt_clust_4="550.00000" pt_clust_5="550.00000" pt_clust_6="46.61041"></scales>
<mgrwt>
<rscale>  0 0.30000000E+03</rscale>
<asrwt>  1 0.46610415E+02</asrwt>
<pdfrwt beam="1">  1        1 0.91152338E+00 0.30000000E+03</pdfrwt>
<pdfrwt beam="2">0</pdfrwt>
<totfact> 0.62542104E-05</totfact>
</mgrwt>
<clustering>
<clus scale="   46.610">  1  6  2 -1</clus>
<clus scale="  474.003">  4  5 -1 -1</clus>
<clus scale="  300.000">  1  4  2 -1</clus>
</clustering>
</event>
<event>
 6    1  0.9254630E-012  0.3000000E+03  0.7818608E-02  0.1093470E+00
          1   -1    0    0  502    0  0.00000000000E+00  0.00000000000E+00  0.23297157820E+03  0.23297157820E+03  0.00000000000E+00 0.  1.
         13   -1    0    0    0    0 -0.00000000000E+00 -0.00000000000E+00 -0.27500000000E+03  0.27500000000E+03  0.00000000000E+00 0.  1.
    9000005    2    1    2  501    0  0.12495710276E+02 -0.27747850764E+02 -0.38261876461E+02  0.47730770922E+03  0.47479742216E+03 0.  0.
         13    1    3    3    0    0  0.28219706973E+02 -0.21420436991E+03 -0.14659309170E+03  0.26109270095E+03  0.00000000000E+00 0.  1.
          1    1    3    3  501    0 -0.15723996697E+02  0.18645651915E+03  0.10833121524E+03  0.21621500827E+03  0.00000000000E+00 0.  1.
         21    1    1    2  502  501 -0.12495710276E+02  0.27747850764E+02 -0.37665453372E+01  0.30663868984E+02  0.00000000000E+00 0. -1.
<scales pt_clust_4="550.00000" pt_clust_5="550.00000" pt_clust_6="30.43168"></scales>
<mgrwt>
<rscale>  0 0.30000000E+03</rscale>
<asrwt>  1 0.30431676E+02</asrwt>
<pdfrwt beam="1">  1        1 0.84716938E+00 0.30000000E+03</pdfrwt>
<pdfrwt beam="2">0</pdfrwt>
<totfact> 0.44380048E-04</totfact>
</mgrwt>
<clustering>
<clus scale="   30.432">  1  6  2 -1</clus>
<clus scale="  474.797">  4  5 -1 -1</clus>
<clus scale="  300.000">  1  4  2 -1</clus>
</clustering>
</event>
<event>
 6    1  0.9254630E-012  0.3000000E+03  0.7818608E-02  0.1093470E+00
          1   -1    0    0  502    0  0.00000000000E+00  0.00000000000E+00  0.22231152240E+03  0.22231152240E+03  0.00000000000E+00 0.  1.
         13   -1    0    0    0    0 -0.00000000000E+00 -0.00000000000E+00 -0.27500000000E+03  0.27500000000E+03  0.00000000000E+00 0.  1.
    9000005    2    1    2  501    0  0.29428475518E+02  0.14151785338E+02 -0.54044892300E+02  0.46462898791E+03  0.46031830056E+03 0.  0.
         13    1    3    3    0    0 -0.10559056918E+03 -0.18155522455E+03  0.30605944266E+02  0.21224606400E+03  0.00000000000E+00 0.  1.
          1    1    3    3  501    0  0.13501904470E+03  0.19570700989E+03 -0.84650836566E+02  0.25238292391E+03  0.00000000000E+00 0.  1.
         21    1    1    2  502  501 -0.29428475518E+02 -0.14151785338E+02  0.13564146983E+01  0.32682534485E+02  0.00000000000E+00 0.  1.
<scales pt_clust_4="550.00000" pt_clust_5="550.00000" pt_clust_6="32.65437"></scales>
<mgrwt>
<rscale>  0 0.30000000E+03</rscale>
<asrwt>  1 0.32654375E+02</asrwt>
<pdfrwt beam="1">  1        1 0.80840554E+00 0.30000000E+03</pdfrwt>
<pdfrwt beam="2">0</pdfrwt>
<totfact> 0.90915272E-04</totfact>
</mgrwt>
<clustering>
<clus scale="   32.654">  1  6  2 -1</clus>
<clus scale="  460.318">  4  5 -1 -1</clus>
<clus scale="  300.000">  1  4  2 -1</clus>
</clustering>
</event>
<event>
 6    1  0.9254630E-012  0.3000000E+03  0.7818608E-02  0.1093470E+00
          1   -1    0    0  502    0  0.00000000000E+00  0.00000000000E+00  0.24040958888E+03  0.24040958888E+03  0.00000000000E+00 0.  1.
         13   -1    0    0    0    0 -0.00000000000E+00 -0.00000000000E+00 -0.27500000000E+03  0.27500000000E+03  0.00000000000E+00 0.  1.
    9000005    2    1    2  501    0 -0.25325394989E+02  0.26435862603E+02 -0.40024229316E+02  0.47839936268E+03  0.47531440208E+03 0.  0.
         13    1    3    3    0    0 -0.17935291410E+03  0.12831393112E+03  0.10437059262E+03  0.24397777219E+03  0.00000000000E+00 0.  1.
          3    1    3    3  501    0  0.15402751912E+03 -0.10187806852E+03 -0.14439482194E+03  0.23442159050E+03  0.00000000000E+00 0.  1.
         21    1    1    2  502  501  0.25325394989E+02 -0.26435862603E+02  0.54338181961E+01  0.37010226196E+02  0.00000000000E+00 0. -1.
<scales pt_clust_4="550.00000" pt_clust_5="550.00000" pt_clust_6="36.60916"></scales>
<mgrwt>
<rscale>  0 0.30000000E+03</rscale>
<asrwt>  1 0.36609158E+02</asrwt>
<pdfrwt beam="1">  1        1 0.87421669E+00 0.30000000E+03</pdfrwt>
<pdfrwt beam="2">0</pdfrwt>
<totfact> 0.22731906E-04</totfact>
</mgrwt>
<clustering>
<clus scale="   36.609">  1  6  2 -1</clus>
<clus scale="  475.314">  4  5 -1 -1</clus>
<clus scale="  300.000">  1  4  2 -1</clus>
</clustering>
</event>
<event>
 6    1  0.9254630E-012  0.3000000E+03  0.7818608E-02  0.1093470E+00
          1   -1    0    0  502    0  0.00000000000E+00  0.00000000000E+00  0.24482275573E+03  0.24482275573E+03  0.00000000000E+00 0.  1.
         13   -1    0    0    0    0 -0.00000000000E+00 -0.00000000000E+00 -0.27500000000E+03  0.27500000000E+03  0.00000000000E+00 0.  1.
    9000005    2    1    2  501    0  0.28996072837E+02 -0.80891936825E+01 -0.67157727378E+02  0.47213876025E+03  0.46636749596E+03 0.  0.
         13    1    3    3    0    0  0.24191719752E+03 -0.53545516599E+02 -0.14808057899E+02  0.24821428521E+03  0.00000000000E+00 0.  1.
          1    1    3    3  501    0 -0.21292112468E+03  0.45456322917E+02 -0.52349669479E+02  0.22392447504E+03  0.00000000000E+00 0.  1.
         21    1    1    2  502  501 -0.28996072837E+02  0.80891936825E+01  0.36980483106E+02  0.47683995482E+02  0.00000000000E+00 0.  1.
<scales pt_clust_4="550.00000" pt_clust_5="550.00000" pt_clust_6="30.10328"></scales>
<mgrwt>
<rscale>  0 0.30000000E+03</rscale>
<asrwt>  1 0.30103277E+02</asrwt>
<pdfrwt beam="1">  1        1 0.89026457E+00 0.30000000E+03</pdfrwt>
<pdfrwt beam="2">0</pdfrwt>
<totfact> 0.14796094E-04</totfact>
</mgrwt>
<clustering>
<clus scale="   30.103">  1  6  2 -1</clus>
<clus scale="  466.367">  4  5 -1 -1</clus>
<clus scale="  300.000">  1  4  2 -1</clus>
</clustering>
</event>
<event>
 6    1  0.9254630E-012  0.3000000E+03  0.7818608E-02  0.1093470E+00
          1   -1    0    0  502    0  0.00000000000E+00  0.00000000000E+00  0.22513530001E+03  0.22513530001E+03  0.00000000000E+00 0.  1.
         13   -1    0    0    0    0 -0.00000000000E+00 -0.00000000000E+00 -0.27500000000E+03  0.27500000000E+03  0.00000000000E+00 0.  1.
    9000005    2    1    2  501    0  0.19500248874E+02 -0.26125379615E+02 -0.67610922324E+02  0.46301760109E+03  0.45689305853E+03 0.  0.
         13    1    3    3    0    0 -0.25766597474E+01 -0.14477310168E+02 -0.26432120668E+03  0.26472992273E+03  0.00000000000E+00 0.  1.
          3    1    3    3  501    0  0.22076908621E+02 -0.11648069447E+02  0.19671028436E+03  0.19828767836E+03  0.00000000000E+00 0.  1.
         21    1    1    2  502  501 -0.19500248874E+02  0.26125379615E+02  0.17746222334E+02  0.37117698922E+02  0.00000000000E+00 0. -1.
<scales pt_clust_4="550.00000" pt_clust_5="550.00000" pt_clust_6="32.60054"></scales>
<mgrwt>
<rscale>  0 0.30000000E+03</rscale>
<asrwt>  1 0.32600539E+02</asrwt>
<pdfrwt beam="1">  1        1 0.81867382E+00 0.30000000E+03</pdfrwt>
<pdfrwt beam="2">0</pdfrwt>
<totfact> 0.75245614E-04</totfact>
</mgrwt>
<clustering>
<clus scale="   32.601">  1  6  2 -1</clus>
<clus scale="  456.893">  4  5 -1 -1</clus>
<clus scale="  300.000">  1  4  2 -1</clus>
</clustering>
</event>
<event>
 6    1  0.9254630E-012  0.3000000E+03  0.7818608E-02  0.1093470E+00
          1   -1    0    0  502    0  0.00000000000E+00  0.00000000000E+00  0.22929935711E+03  0.22929935711E+03  0.00000000000E+00 0.  1.
         13   -1    0    0    0    0 -0.00000000000E+00 -0.00000000000E+00 -0.27500000000E+03  0.27500000000E+03  0.00000000000E+00 0.  1.
    9000005    2    1    2  501    0  0.35262499434E+02  0.18935152007E+02 -0.34061384377E+02  0.46261655267E+03  0.45962148889E+03 0.  0.
         13    1    3    3    0    0 -0.74889174575E+02  0.20080132678E+03 -0.10476176881E+03  0.23854682876E+03  0.00000000000E+00 0.  1.
          3    1    3    3  501    0  0.11015167401E+03 -0.18186617477E+03  0.70700384433E+02  0.22406972391E+03  0.00000000000E+00 0.  1.
         21    1    1    2  502  501 -0.35262499434E+02 -0.18935152007E+02 -0.11639258511E+02  0.41682804447E+02  0.00000000000E+00 0.  1.
<scales pt_clust_4="550.00000" pt_clust_5="550.00000" pt_clust_6="40.02481"></scales>
<mgrwt>
<rscale>  0 0.30000000E+03</rscale>
<asrwt>  1 0.40024810E+02</asrwt>
<pdfrwt beam="1">  1        1 0.83381584E+00 0.30000000E+03</pdfrwt>
<pdfrwt beam="2">0</pdfrwt>
<totfact> 0.53843564E-04</totfact>
</mgrwt>
<clustering>
<clus scale="   40.025">  1  6  2 -1</clus>
<clus scale="  459.621">  4  5 -1 -1</clus>
<clus scale="  300.000">  1  4  2 -1</clus>
</clustering>
</event>
<event>
 6    1  0.9254630E-012  0.3000000E+03  0.7818608E-02  0.1093470E+00
          1   -1    0    0  502    0  0.00000000000E+00  0.00000000000E+00  0.23665549135E+03  0.23665549135E+03  0.00000000000E+00 0.  1.
         13   -1    0    0    0    0 -0.00000000000E+00 -0.00000000000E+00 -0.27500000000E+03  0.27500000000E+03  0.00000000000E+00 0.  1.
    9000005    2    1    2  501    0 -0.26411697273E+02 -0.27071290951E+02 -0.39896125406E+02  0.47380261747E+03  0.47060257857E+03 0.  0.
         13    1    3    3    0    0 -0.47947093160E+02  0.54830465237E+02  0.20347471420E+03  0.21611863172E+03  0.00000000000E+00 0.  1.
          3    1    3    3  501    0  0.21535395887E+02 -0.81901756188E+02 -0.24337083960E+03  0.25768398575E+03  0.00000000000E+00 0.  1.
         21    1    1    2  502  501  0.26411697273E+02  0.27071290951E+02  0.15516167593E+01  0.37852873883E+02  0.00000000000E+00 0.  1.
<scales pt_clust_4="550.00000" pt_clust_5="550.00000" pt_clust_6="37.82106"></scales>
<mgrwt>
<rscale>  0 0.30000000E+03</rscale>
<asrwt>  1 0.37821060E+02</asrwt>
<pdfrwt beam="1">  1        1 0.86056542E+00 0.30000000E+03</pdfrwt>
<pdfrwt beam="2">0</pdfrwt>
<totfact> 0.31443129E-04</totfact>
</mgrwt>
<clustering>
<clus scale="   37.821">  1  6  2 -1</clus>
<clus scale="  470.603">  4  5 -1 -1</clus>
<clus scale="  300.000">  1  4  2 -1</clus>
</clustering>
</event>
<event>
 6    1  0.9254630E-012  0.3000000E+03  0.7818608E-02  0.1093470E+00
          1   -1    0    0  502    0  0.00000000000E+00  0.00000000000E+00  0.23857596489E+03  0.23857596489E+03  0.00000000000E+00 0.  1.
         13   -1    0    0    0    0 -0.00000000000E+00 -0.00000000000E+00 -0.27500000000E+03  0.27500000000E+03  0.00000000000E+00 0.  1.
    9000005    2    1    2  501    0 -0.22933394723E+02  0.33642160357E+02 -0.62560436636E+02  0.46519366408E+03  0.45916620228E+03 0.  0.
         13    1    3    3    0    0 -0.25384417608E+02 -0.89051801782E+02  0.17489827801E+03  0.19789896338E+03  0.00000000000E+00 0.  1.
          3    1    3    3  501    0  0.24510228844E+01  0.12269396214E+03 -0.23745871464E+03  0.26729470069E+03  0.00000000000E+00 0.  1.
         21    1    1    2  502  501  0.22933394723E+02 -0.33642160357E+02  0.26136401522E+02  0.48382300809E+02  0.00000000000E+00 0.  1.
<scales pt_clust_4="550.00000" pt_clust_5="550.00000" pt_clust_6="40.71530"></scales>
<mgrwt>
<rscale>  0 0.30000000E+03</rscale>
<asrwt>  1 0.40715299E+02</asrwt>
<pdfrwt beam="1">  1        1 0.86754896E+00 0.30000000E+03</pdfrwt>
<pdfrwt beam="2">0</pdfrwt>
<totfact> 0.26105110E-04</totfact>
</mgrwt>
<clustering>
<clus scale="   40.715">  1  6  2 -1</clus>
<clus scale="  459.166">  4  5 -1 -1</clus>
<clus scale="  300.000">  1  4  2 -1</clus>
</clustering>
</event>
<event>
 6    1  0.9254630E-012  0.3000000E+03  0.7818608E-02  0.1093470E+00
          1   -1    0    0  502    0  0.00000000000E+00  0.00000000000E+00  0.22480956967E+03  0.22480956967E+03  0.00000000000E+00 0.  1.
         13   -1    0    0    0    0 -0.00000000000E+00 -0.00000000000E+00 -0.27500000000E+03  0.27500000000E+03  0.00000000000E+00 0.  1.
    9000005    2    1    2  501    0  0.28253778700E+02 -0.23388679418E+02 -0.58197967452E+02  0.46226723375E+03  0.45711999042E+03 0.  0.
         13    1    3    3    0    0  0.83150079234E+02  0.15336465555E+03  0.11486766165E+03  0.20887611865E+03  0.00000000000E+00 0.  1.
          1    1    3    3  501    0 -0.54896300534E+02 -0.17675333496E+03 -0.17306562910E+03  0.25339111510E+03  0.00000000000E+00 0.  1.
         21    1    1    2  502  501 -0.28253778700E+02  0.23388679418E+02  0.80075371195E+01  0.37542335922E+02  0.00000000000E+00 0.  1.
<scales pt_clust_4="550.00000" pt_clust_5="550.00000" pt_clust_6="36.67842"></scales>
<mgrwt>
<rscale>  0 0.30000000E+03</rscale>
<asrwt>  1 0.36678418E+02</asrwt>
<pdfrwt beam="1">  1        1 0.81748934E+00 0.30000000E+03</pdfrwt>
<pdfrwt beam="2">0</pdfrwt>
<totfact> 0.75300636E-04</totfact>
</mgrwt>
<clustering>
<clus scale="   36.678">  1  6  2 -1</clus>
<clus scale="  457.120">  4  5 -1 -1</clus>
<clus scale="  300.000">  1  4  2 -1</clus>
</clustering>
</event>
<event>
 6    1  0.9254630E-012  0.3000000E+03  0.7818608E-02  0.1093470E+00
          1   -1    0    0  502    0  0.00000000000E+00  0.00000000000E+00  0.23947079532E+03  0.23947079532E+03  0.00000000000E+00 0.  1.
         13   -1    0    0    0    0 -0.00000000000E+00 -0.00000000000E+00 -0.27500000000E+03  0.27500000000E+03  0.00000000000E+00 0.  1.
    9000005    2    1    2  501    0  0.43533908501E+02 -0.13809867034E+02 -0.13428756315E+02  0.46373280724E+03  0.46128285400E+03 0.  0.
         13    1    3    3    0    0  0.69206921918E+02 -0.21605581997E+03 -0.92587768160E+02  0.24503512034E+03  0.00000000000E+00 0.  1.
          1    1    3    3  501    0 -0.25673013417E+02  0.20224595294E+03  0.79159011846E+02  0.21869768690E+03  0.00000000000E+00 0.  1.
         21    1    1    2  502  501 -0.43533908501E+02  0.13809867034E+02 -0.22100448365E+02  0.50737988084E+02  0.00000000000E+00 0. -1.
<scales pt_clust_4="550.00000" pt_clust_5="550.00000" pt_clust_6="45.67183"></scales>
<mgrwt>
<rscale>  0 0.30000000E+03</rscale>
<asrwt>  1 0.45671826E+02</asrwt>
<pdfrwt beam="1">  1        1 0.87080289E+00 0.30000000E+03</pdfrwt>
<pdfrwt beam="2">0</pdfrwt>
<totfact> 0.23672929E-04</totfact>
</mgrwt>
<clustering>
<clus scale="   45.672">  1  6  2 -1</clus>
<clus scale="  461.283">  4  5 -1 -1</clus>
<clus scale="  300.000">  1  4  2 -1</clus>
</clustering>
</event>
<event>
 6    1  0.9254630E-012  0.3000000E+03  0.7818608E-02  0.1093470E+00
          1   -1    0    0  502    0  0.00000000000E+00  0.00000000000E+00  0.24514003347E+03  0.24514003347E+03  0.00000000000E+00 0.  1.
         13   -1    0    0    0    0 -0.00000000000E+00 -0.00000000000E+00 -0.27500000000E+03  0.27500000000E+03  0.00000000000E+00 0.  1.
    9000005    2    1    2  501    0  0.35261785752E+02 -0.11248096283E+02 -0.29383710060E+02  0.48312463094E+03  0.48080775097E+03 0.  0.
         13    1    3    3    0    0 -0.31420861832E+02 -0.73457756742E+02  0.21121587480E+03  0.22582174021E+03  0.00000000000E+00 0.  1.
          3    1    3    3  501    0  0.66682647584E+02  0.62209660458E+02 -0.24059958486E+03  0.25730289073E+03  0.00000000000E+00 0.  1.
         21    1    1    2  502  501 -0.35261785752E+02  0.11248096283E+02 -0.47625647008E+00  0.37015402533E+02  0.00000000000E+00 0.  1.
<scales pt_clust_4="550.00000" pt_clust_5="550.00000" pt_clust_6="37.01234"></scales>
<mgrwt>
<rscale>  0 0.30000000E+03</rscale>
<asrwt>  1 0.37012339E+02</asrwt>
<pdfrwt beam="1">  1        1 0.89141830E+00 0.30000000E+03</pdfrwt>
<pdfrwt beam="2">0</pdfrwt>
<totfact> 0.13750461E-04</totfact>
</mgrwt>
<clustering>
<clus scale="   37.012">  1  6  2 -1</clus>
<clus scale="  480.808">  4  5 -1 -1</clus>
<clus scale="  300.000">  1  4  2 -1</clus>
</clustering>
</event>
<event>
 6    1  0.9254630E-012  0.3000000E+03  0.7818608E-02  0.1093470E+00
          1   -1    0    0  502    0  0.00000000000E+00  0.00000000000E+00  0.24166455549E+03  0.24166455549E+03  0.00000000000E+00 0.  1.
         13   -1    0    0    0    0 -0.00000000000E+00 -0.00000000000E+00 -0.27500000000E+03  0.27500000000E+03  0.00000000000E+00 0.  1.
    9000005    2    1    2  501    0 -0.38703263274E+02 -0.30908105049E+02 -0.51834942193E+02  0.46379220960E+03  0.45821730533E+03 0.  0.
         13    1    3    3    0    0 -0.20270703076E+03  0.12204526394E+03 -0.28536750893E+02  0.23832652584E+03  0.00000000000E+00 0.  1.
          1    1    3    3  501    0  0.16400376748E+03 -0.15295336899E+03 -0.23298191299E+02  0.22546568376E+03  0.00000000000E+00 0.  1.
         21    1    1    2  502  501  0.38703263274E+02  0.30908105049E+02  0.18499497685E+02  0.52872345895E+02  0.00000000000E+00 0.  1.
<scales pt_clust_4="550.00000" pt_clust_5="550.00000" pt_clust_6="49.53033"></scales>
<mgrwt>
<rscale>  0 0.30000000E+03</rscale>
<asrwt>  1 0.49530330E+02</asrwt>
<pdfrwt beam="1">  1        1 0.87878020E+00 0.30000000E+03</pdfrwt>
<pdfrwt beam="2">0</pdfrwt>
<totfact> 0.19173228E-04</totfact>
</mgrwt>
<clustering>
<clus scale="   49.530">  1  6  2 -1</clus>
<clus scale="  458.217">  4  5 -1 -1</clus>
<clus scale="  300.000">  1  4  2 -1</clus>
</clustering>
</event>
<event>
 6    1  0.9254630E-012  0.3000000E+03  0.7818608E-02  0.1093470E+00
          1   -1    0    0  502    0  0.00000000000E+00  0.00000000000E+00  0.22909779252E+03  0.22909779252E+03  0.00000000000E+00 0.  1.
         13   -1    0    0    0    0 -0.00000000000E+00 -0.00000000000E+00 -0.27500000000E+03  0.27500000000E+03  0.00000000000E+00 0.  1.
    9000005    2    1    2  501    0  0.14464041032E+02  0.28344611322E+02 -0.24541161778E+02  0.46577130366E+03  0.46403449572E+03 0.  0.
         13    1    3    3    0    0 -0.13005167772E+03  0.19870363912E+03  0.18742502334E+02  0.23821808594E+03  0.00000000000E+00 0.  1.
          3    1    3    3  501    0  0.14451571875E+03 -0.17035902779E+03 -0.43283664112E+02  0.22755321772E+03  0.00000000000E+00 0.  1.
         21    1    1    2  502  501 -0.14464041032E+02 -0.28344611322E+02 -0.21361045706E+02  0.38326488851E+02  0.00000000000E+00 0.  1.
<scales pt_clust_4="550.00000" pt_clust_5="550.00000" pt_clust_6="31.82179"></scales>
<mgrwt>
<rscale>  0 0.30000000E+03</rscale>
<asrwt>  1 0.31821793E+02</asrwt>
<pdfrwt beam="1">  1        1 0.83308288E+00 0.30000000E+03</pdfrwt>
<pdfrwt beam="2">0</pdfrwt>
<totfact> 0.56908255E-04</totfact>
</mgrwt>
<clustering>
<clus scale="   31.822">  1  6  2 -1</clus>
<clus scale="  464.034">  4  5 -1 -1</clus>
<clus scale="  300.000">  1  4  2 -1</clus>
</clustering>
</event>
<event>
 6    1  0.9254630E-012  0.3000000E+03  0.7818608E-02  0.1093470E+00
          1   -1    0    0  502    0  0.00000000000E+00  0.00000000000E+00  0.22716790479E+03  0.22716790479E+03  0.00000000000E+00 0.  1.
         13   -1    0    0    0    0 -0.00000000000E+00 -0.00000000000E+00 -0.27500000000E+03  0.27500000000E+03  0.00000000000E+00 0.  1.
    9000005    2    1    2  501    0 -0.26585694426E+02 -0.23021758150E+02 -0.47518278620E+02  0.46699833019E+03  0.46324146307E+03 0.  0.
         13    1    3    3    0    0 -0.18509627169E+03  0.14087903829E+03  0.64021108093E+01  0.23269834604E+03  0.00000000000E+00 0.  1.
          3    1    3    3  501    0  0.15851057727E+03 -0.16390079644E+03 -0.53920389429E+02  0.23429998416E+03  0.00000000000E+00 0.  1.
         21    1    1    2  502  501  0.26585694426E+02  0.23021758150E+02 -0.31381659013E+00  0.35169574596E+02  0.00000000000E+00 0.  1.
<scales pt_clust_4="550.00000" pt_clust_5="550.00000" pt_clust_6="35.16817"></scales>
<mgrwt>
<rscale>  0 0.30000000E+03</rscale>
<asrwt>  1 0.35168174E+02</asrwt>
<pdfrwt beam="1">  1        1 0.82606511E+00 0.30000000E+03</pdfrwt>
<pdfrwt beam="2">0</pdfrwt>
<totfact> 0.63849214E-04</totfact>
</mgrwt>
<clustering>
<clus scale="   35.168">  1  6  2 -1</clus>
<clus scale="  463.241">  4  5 -1 -1</clus>
<clus scale="  300.000">  1  4  2 -1</clus>
</clustering>
</event>
<event>
 6    1  0.9254630E-012  0.3000000E+03  0.7818608E-02  0.1093470E+00
          1   -1    0    0  502    0  0.00000000000E+00  0.00000000000E+00  0.26034633668E+03  0.26034633668E+03  0.00000000000E+00 0.  1.
         13   -1    0    0    0    0 -0.00000000000E+00 -0.00000000000E+00 -0.27500000000E+03  0.27500000000E+03  0.00000000000E+00 0.  1.
    9000005    2    1    2  501    0 -0.23632866397E+02  0.33066228415E+02 -0.15946704180E+02  0.49468235028E+03  0.49275190762E+03 0.  0.
         13    1    3    3    0    0 -0.17183368694E+03  0.64305727696E+02  0.17324013879E+03  0.25233744920E+03  0.00000000000E+00 0.  1.
          3    1    3    3  501    0  0.14820082054E+03 -0.31239499281E+02 -0.18918684297E+03  0.24234490108E+03  0.00000000000E+00 0.  1.
         21    1    1    2  502  501  0.23632866397E+02 -0.33066228415E+02  0.12930408629E+01  0.40663986406E+02  0.00000000000E+00 0. -1.
<scales pt_clust_4="550.00000" pt_clust_5="550.00000" pt_clust_6="40.64342"></scales>
<mgrwt>
<rscale>  0 0.30000000E+03</rscale>
<asrwt>  1 0.40643423E+02</asrwt>
<pdfrwt beam="1">  1        1 0.94671395E+00 0.30000000E+03</pdfrwt>
<pdfrwt beam="2">0</pdfrwt>
<totfact> 0.13997486E-05</totfact>
</mgrwt>
<clustering>
<clus scale="   40.643">  1  6  2 -1</clus>
<clus scale="  492.752">  4  5 -1 -1</clus>
<clus scale="  300.000">  1  4  2 -1</clus>
</clustering>
</event>
<event>
 6    1  0.9254630E-012  0.3000000E+03  0.7818608E-02  0.1093470E+00
          1   -1    0    0  502    0  0.00000000000E+00  0.00000000000E+00  0.22354582442E+03  0.22354582442E+03  0.00000000000E+00 0.  1.
         13   -1    0    0    0    0 -0.00000000000E+00 -0.00000000000E+00 -0.27500000000E+03  0.27500000000E+03  0.00000000000E+00 0.  1.
    9000005    2    1    2  501    0 -0.17057961197E+02 -0.26228478586E+02 -0.62161619433E+02  0.46547685886E+03  0.46024529555E+03 0.  0.
         13    1    3    3    0    0 -0.70395573099E+01  0.21297275669E+03  0.15846837053E+02  0.21367749695E+03  0.00000000000E+00 0.  1.
          1    1    3    3  501    0 -0.10018403887E+02 -0.23920123528E+03 -0.78008456487E+02  0.25179936191E+03  0.00000000000E+00 0.  1.
         21    1    1    2  502  501  0.17057961197E+02  0.26228478586E+02  0.10707443851E+02  0.33068965556E+02  0.00000000000E+00 0. -1.
<scales pt_clust_4="550.00000" pt_clust_5="550.00000" pt_clust_6="31.28749"></scales>
<mgrwt>
<rscale>  0 0.30000000E+03</rscale>
<asrwt>  1 0.31287492E+02</asrwt>
<pdfrwt beam="1">  1        1 0.81289391E+00 0.30000000E+03</pdfrwt>
<pdfrwt beam="2">0</pdfrwt>
<totfact> 0.84531338E-04</totfact>
</mgrwt>
<clustering>
<clus scale="   31.287">  1  6  2 -1</clus>
<clus scale="  460.245">  4  5 -1 -1</clus>
<clus scale="  300.000">  1  4  2 -1</clus>
</clustering>
</event>
<event>
 6    1  0.9254630E-012  0.3000000E+03  0.7818608E-02  0.1093470E+00
          1   -1    0    0  502    0  0.00000000000E+00  0.00000000000E+00  0.25018654918E+03  0.25018654918E+03  0.00000000000E+00 0.  1.
         13   -1    0    0    0    0 -0.00000000000E+00 -0.00000000000E+00 -0.27500000000E+03  0.27500000000E+03  0.00000000000E+00 0.  1.
    9000005    2    1    2  501    0  0.41112910017E+02  0.72642451563E+01 -0.49337417953E+02  0.47676686732E+03  0.47236577388E+03 0.  0.
         13    1    3    3    0    0 -0.12995356679E+03 -0.17659570375E+03 -0.53134945429E+02  0.22560428748E+03  0.00000000000E+00 0.  1.
          3    1    3    3  501    0  0.17106647680E+03  0.18385994890E+03  0.37975274761E+01  0.25116257984E+03  0.00000000000E+00 0.  1.
         21    1    1    2  502  501 -0.41112910017E+02 -0.72642451563E+01  0.24523967129E+02  0.48419681861E+02  0.00000000000E+00 0. -1.
<scales pt_clust_4="550.00000" pt_clust_5="550.00000" pt_clust_6="41.74974"></scales>
<mgrwt>
<rscale>  0 0.30000000E+03</rscale>
<asrwt>  1 0.41749738E+02</asrwt>
<pdfrwt beam="1">  1        1 0.90976927E+00 0.30000000E+03</pdfrwt>
<pdfrwt beam="2">0</pdfrwt>
<totfact> 0.70465262E-05</totfact>
</mgrwt>
<clustering>
<clus scale="   41.750">  1  6  2 -1</clus>
<clus scale="  472.366">  4  5 -1 -1</clus>
<clus scale="  300.000">  1  4  2 -1</clus>
</clustering>
</event>
<event>
 6    1  0.9254630E-012  0.3000000E+03  0.7818608E-02  0.1093470E+00
          1   -1    0    0  502    0  0.00000000000E+00  0.00000000000E+00  0.23036129891E+03  0.23036129891E+03  0.00000000000E+00 0.  1.
         13   -1    0    0    0    0 -0.00000000000E+00 -0.00000000000E+00 -0.27500000000E+03  0.27500000000E+03  0.00000000000E+00 0.  1.
    9000005    2    1    2  501    0 -0.26623233281E+02  0.30258016159E+02 -0.47060825802E+02  0.46498543012E+03  0.46083878396E+03 0.  0.
         13    1    3    3    0    0 -0.89615118673E+02 -0.75330191186E+01  0.19354374256E+03  0.21341695377E+03  0.00000000000E+00 0.  1.
          3    1    3    3  501    0  0.62991885392E+02  0.37791035278E+02 -0.24060456837E+03  0.25156847635E+03  0.00000000000E+00 0.  1.
         21    1    1    2  502  501  0.26623233281E+02 -0.30258016159E+02  0.24221247087E+01  0.40375868787E+02  0.00000000000E+00 0. -1.
<scales pt_clust_4="550.00000" pt_clust_5="550.00000" pt_clust_6="40.30315"></scales>
<mgrwt>
<rscale>  0 0.30000000E+03</rscale>
<asrwt>  1 0.40303152E+02</asrwt>
<pdfrwt beam="1">  1        1 0.83767745E+00 0.30000000E+03</pdfrwt>
<pdfrwt beam="2">0</pdfrwt>
<totfact> 0.50397723E-04</totfact>
</mgrwt>
<clustering>
<clus scale="   40.303">  1  6  2 -1</clus>
<clus scale="  460.839">  4  5 -1 -1</clus>
<clus scale="  300.000">  1  4  2 -1</clus>
</clustering>
</event>
<event>
 6    1  0.9254630E-012  0.3000000E+03  0.7818608E-02  0.1093470E+00
          1   -1    0    0  502    0  0.00000000000E+00  0.00000000000E+00  0.23017510067E+03  0.23017510067E+03  0.00000000000E+00 0.  1.
         13   -1    0    0    0    0 -0.00000000000E+00 -0.00000000000E+00 -0.27500000000E+03  0.27500000000E+03  0.00000000000E+00 0.  1.
    9000005    2    1    2  501    0 -0.40028324936E+02  0.54578345909E+01 -0.47875505968E+02  0.46466138748E+03  0.46041946765E+03 0.  0.
         13    1    3    3    0    0 -0.11075312264E+03 -0.33033985817E+02 -0.23448514909E+03  0.26142070220E+03  0.00000000000E+00 0.  1.
          1    1    3    3  501    0  0.70724797706E+02  0.38491820408E+02  0.18660964312E+03  0.20324068528E+03  0.00000000000E+00 0.  1.
         21    1    1    2  502  501  0.40028324936E+02 -0.54578345909E+01  0.30506066410E+01  0.40513713190E+02  0.00000000000E+00 0.  1.
<scales pt_clust_4="550.00000" pt_clust_5="550.00000" pt_clust_6="40.39870"></scales>
<mgrwt>
<rscale>  0 0.30000000E+03</rscale>
<asrwt>  1 0.40398697E+02</asrwt>
<pdfrwt beam="1">  1        1 0.83700037E+00 0.30000000E+03</pdfrwt>
<pdfrwt beam="2">0</pdfrwt>
<totfact> 0.50951508E-04</totfact>
</mgrwt>
<clustering>
<clus scale="   40.399">  1  6  2 -1</clus>
<clus scale="  460.419">  4  5 -1 -1</clus>
<clus scale="  300.000">  1  4  2 -1</clus>
</clustering>
</event>
<event>
 6    1  0.9254630E-012  0.3000000E+03  0.7818608E-02  0.1093470E+00
          1   -1    0    0  502    0  0.00000000000E+00  0.00000000000E+00  0.23903577029E+03  0.23903577029E+03  0.00000000000E+00 0.  1.
         13   -1    0    0    0    0 -0.00000000000E+00 -0.00000000000E+00 -0.27500000000E+03  0.27500000000E+03  0.00000000000E+00 0.  1.
    9000005    2    1    2  501    0  0.33129444400E+02  0.13254452870E+02 -0.65681217003E+02  0.46759936280E+03  0.46158628794E+03 0.  0.
         13    1    3    3    0    0  0.21239107941E+03 -0.35788138883E+02  0.81746343847E+02  0.23037627098E+03  0.00000000000E+00 0.  1.
          3    1    3    3  501    0 -0.17926163501E+03  0.49042591753E+02 -0.14742756085E+03  0.23722309182E+03  0.00000000000E+00 0.  1.
         21    1    1    2  502  501 -0.33129444400E+02 -0.13254452870E+02  0.29716987297E+02  0.46436407496E+02  0.00000000000E+00 0. -1.
<scales pt_clust_4="550.00000" pt_clust_5="550.00000" pt_clust_6="35.68250"></scales>
<mgrwt>
<rscale>  0 0.30000000E+03</rscale>
<asrwt>  1 0.35682497E+02</asrwt>
<pdfrwt beam="1">  1        1 0.86922098E+00 0.30000000E+03</pdfrwt>
<pdfrwt beam="2">0</pdfrwt>
<totfact> 0.25702139E-04</totfact>
</mgrwt>
<clustering>
<clus scale="   35.682">  1  6  2 -1</clus>
<clus scale="  461.586">  4  5 -1 -1</clus>
<clus scale="  300.000">  1  4  2 -1</clus>
</clustering>
</event>
<event>
 6    1  0.9254630E-012  0.3000000E+03  0.7818608E-02  0.1093470E+00
          1   -1    0    0  502    0  0.00000000000E+00  0.00000000000E+00  0.24065356369E+03  0.24065356369E+03  0.00000000000E+00 0.  1.
         13   -1    0    0    0    0 -0.00000000000E+00 -0.00000000000E+00 -0.27500000000E+03  0.27500000000E+03  0.00000000000E+00 0.  1.
    9000005    2    1    2  501    0 -0.40770018440E+02 -0.29077925539E+01 -0.24085581257E+02  0.47351172216E+03  0.47112905465E+03 0.  0.
         13    1    3    3    0    0  0.19247605234E+02 -0.18232094028E+03  0.13390789597E+03  0.22703021864E+03  0.00000000000E+00 0.  1.
          3    1    3    3  501    0 -0.60017623674E+02  0.17941314773E+03 -0.15799347723E+03  0.24648150352E+03  0.00000000000E+00 0.  1.
         21    1    1    2  502  501  0.40770018440E+02  0.29077925539E+01 -0.10260855052E+02  0.42141841530E+02  0.00000000000E+00 0. -1.
<scales pt_clust_4="550.00000" pt_clust_5="550.00000" pt_clust_6="40.87360"></scales>
<mgrwt>
<rscale>  0 0.30000000E+03</rscale>
<asrwt>  1 0.40873602E+02</asrwt>
<pdfrwt beam="1">  1        1 0.87510387E+00 0.30000000E+03</pdfrwt>
<pdfrwt beam="2">0</pdfrwt>
<totfact> 0.21803153E-04</totfact>
</mgrwt>
<clustering>
<clus scale="   40.874">  1  6  2 -1</clus>
<clus scale="  471.129">  4  5 -1 -1</clus>
<clus scale="  300.000">  1  4  2 -1</clus>
</clustering>
</event>
<event>
 6    1  0.9254630E-012  0.3000000E+03  0.7818608E-02  0.1093470E+00
          1   -1    0    0  502    0  0.00000000000E+00  0.00000000000E+00  0.22618450909E+03  0.22618450909E+03  0.00000000000E+00 0.  1.
         13   -1    0    0    0    0 -0.00000000000E+00 -0.00000000000E+00 -0.27500000000E+03  0.27500000000E+03  0.00000000000E+00 0.  1.
    9000005    2    1    2  501    0 -0.63088583030E+01  0.34968886265E+02 -0.51294837346E+02  0.46556468514E+03  0.46136394637E+03 0.  0.
         13    1    3    3    0    0  0.32844654064E+02 -0.53431489168E+02 -0.24294387995E+03  0.25090919501E+03  0.00000000000E+00 0.  1.
          1    1    3    3  501    0 -0.39153512367E+02  0.88400375433E+02  0.19164904261E+03  0.21465549012E+03  0.00000000000E+00 0.  1.
         21    1    1    2  502  501  0.63088583030E+01 -0.34968886265E+02  0.24793464369E+01  0.35619823953E+02  0.00000000000E+00 0. -1.
<scales pt_clust_4="550.00000" pt_clust_5="550.00000" pt_clust_6="35.53343"></scales>
<mgrwt>
<rscale>  0 0.30000000E+03</rscale>
<asrwt>  1 0.35533431E+02</asrwt>
<pdfrwt beam="1">  1        1 0.82248912E+00 0.30000000E+03</pdfrwt>
<pdfrwt beam="2">0</pdfrwt>
<totfact> 0.68582132E-04</totfact>
</mgrwt>
<clustering>
<clus scale="   35.533">  1  6  2 -1</clus>
<clus scale="  461.364">  4  5 -1 -1</clus>
<clus scale="  300.000">  1  4  2 -1</clus>
</clustering>
</event>
<event>
 6    1  0.9254630E-012  0.3000000E+03  0.7818608E-02  0.1093470E+00
          1   -1    0    0  502    0  0.00000000000E+00  0.00000000000E+00  0.23718736021E+03  0.23718736021E+03  0.00000000000E+00 0.  1.
         13   -1    0    0    0    0 -0.00000000000E+00 -0.00000000000E+00 -0.27500000000E+03  0.27500000000E+03  0.00000000000E+00 0.  1.
    9000005    2    1    2  501    0  0.69219524463E+00 -0.37455530156E+02 -0.38462098306E+02  0.47471980531E+03  0.47167379053E+03 0.  0.
         13    1    3    3    0    0 -0.11690094749E+03 -0.21647088767E+03 -0.75529574864E+02  0.25735227493E+03  0.00000000000E+00 0.  1.
          3    1    3    3  501    0  0.11759314274E+03  0.17901535752E+03  0.37067476558E+02  0.21736753038E+03  0.00000000000E+00 0.  1.
         21    1    1    2  502  501 -0.69219524463E+00  0.37455530156E+02  0.64945851416E+00  0.37467554896E+02  0.00000000000E+00 0. -1.
<scales pt_clust_4="550.00000" pt_clust_5="550.00000" pt_clust_6="37.46193"></scales>
<mgrwt>
<rscale>  0 0.30000000E+03</rscale>
<asrwt>  1 0.37461926E+02</asrwt>
<pdfrwt beam="1">  1        1 0.86249949E+00 0.30000000E+03</pdfrwt>
<pdfrwt beam="2">0</pdfrwt>
<totfact> 0.30022577E-04</totfact>
</mgrwt>
<clustering>
<clus scale="   37.462">  1  6  2 -1</clus>
<clus scale="  471.674">  4  5 -1 -1</clus>
<clus scale="  300.000">  1  4  2 -1</clus>
</clustering>
</event>
<event>
 6    1  0.9254630E-012  0.3000000E+03  0.7818608E-02  0.1093470E+00
          1   -1    0    0  502    0  0.00000000000E+00  0.00000000000E+00  0.21933409436E+03  0.21933409436E+03  0.00000000000E+00 0.  1.
         13   -1    0    0    0    0 -0.00000000000E+00 -0.00000000000E+00 -0.27500000000E+03  0.27500000000E+03  0.00000000000E+00 0.  1.
    9000005    2    1    2  501    0  0.32013134877E+02  0.38238776648E+01 -0.59517244394E+02  0.46186417512E+03  0.45687717281E+03 0.  0.
         13    1    3    3    0    0 -0.13847536699E+03  0.13339888781E+03  0.77862750658E+02  0.20744468774E+03  0.00000000000E+00 0.  1.
          1    1    3    3  501    0  0.17048850186E+03 -0.12957501014E+03 -0.13737999505E+03  0.25441948739E+03  0.00000000000E+00 0.  1.
         21    1    1    2  502  501 -0.32013134877E+02 -0.38238776648E+01  0.38513387566E+01  0.32469919237E+02  0.00000000000E+00 0.  1.
<scales pt_clust_4="550.00000" pt_clust_5="550.00000" pt_clust_6="32.24070"></scales>
<mgrwt>
<rscale>  0 0.30000000E+03</rscale>
<asrwt>  1 0.32240702E+02</asrwt>
<pdfrwt beam="1">  1        1 0.79757852E+00 0.30000000E+03</pdfrwt>
<pdfrwt beam="2">0</pdfrwt>
<totfact> 0.10966366E-03</totfact>
</mgrwt>
<clustering>
<clus scale="   32.241">  1  6  2 -1</clus>
<clus scale="  456.877">  4  5 -1 -1</clus>
<clus scale="  300.000">  1  4  2 -1</clus>
</clustering>
</event>
<event>
 6    1  0.9254630E-012  0.3000000E+03  0.7818608E-02  0.1093470E+00
          1   -1    0    0  502    0  0.00000000000E+00  0.00000000000E+00  0.23727064550E+03  0.23727064550E+03  0.00000000000E+00 0.  1.
         13   -1    0    0    0    0 -0.00000000000E+00 -0.00000000000E+00 -0.27500000000E+03  0.27500000000E+03  0.00000000000E+00 0.  1.
    9000005    2    1    2  501    0  0.81601866692E+01  0.35030778011E+02 -0.44858881825E+02  0.47560220929E+03  0.47211375551E+03 0.  0.
         13    1    3    3    0    0 -0.82711170865E+02 -0.18734757560E+03  0.60123184718E+02  0.21343628841E+03  0.00000000000E+00 0.  1.
          3    1    3    3  501    0  0.90871357535E+02  0.22237835361E+03 -0.10498206654E+03  0.26216592088E+03  0.00000000000E+00 0.  1.
         21    1    1    2  502  501 -0.81601866692E+01 -0.35030778011E+02  0.71295273277E+01  0.36668436215E+02  0.00000000000E+00 0. -1.
<scales pt_clust_4="550.00000" pt_clust_5="550.00000" pt_clust_6="35.96865"></scales>
<mgrwt>
<rscale>  0 0.30000000E+03</rscale>
<asrwt>  1 0.35968654E+02</asrwt>
<pdfrwt beam="1">  1        1 0.86280235E+00 0.30000000E+03</pdfrwt>
<pdfrwt beam="2">0</pdfrwt>
<totfact> 0.30022563E-04</totfact>
</mgrwt>
<clustering>
<clus scale="   35.969">  1  6  2 -1</clus>
<clus scale="  472.114">  4  5 -1 -1</clus>
<clus scale="  300.000">  1  4  2 -1</clus>
</clustering>
</event>
<event>
 6    1  0.9254630E-012  0.3000000E+03  0.7818608E-02  0.1093470E+00
          1   -1    0    0  502    0  0.00000000000E+00  0.00000000000E+00  0.22593132941E+03  0.22593132941E+03  0.00000000000E+00 0.  1.
         13   -1    0    0    0    0 -0.00000000000E+00 -0.00000000000E+00 -0.27500000000E+03  0.27500000000E+03  0.00000000000E+00 0.  1.
    9000005    2    1    2  501    0  0.46290214617E+01  0.31872831312E+02 -0.39374131715E+02  0.46729668508E+03  0.46451971371E+03 0.  0.
         13    1    3    3    0    0 -0.78976404281E+02  0.16668960451E+03 -0.17821569407E+03  0.25648300197E+03  0.00000000000E+00 0.  1.
          1    1    3    3  501    0  0.83605425742E+02 -0.13481677320E+03  0.13884156235E+03  0.21081368311E+03  0.00000000000E+00 0.  1.
         21    1    1    2  502  501 -0.46290214617E+01 -0.31872831312E+02 -0.96945388714E+01  0.33634644334E+02  0.00000000000E+00 0. -1.
<scales pt_clust_4="550.00000" pt_clust_5="550.00000" pt_clust_6="32.20724"></scales>
<mgrwt>
<rscale>  0 0.30000000E+03</rscale>
<asrwt>  1 0.32207239E+02</asrwt>
<pdfrwt beam="1">  1        1 0.82156847E+00 0.30000000E+03</pdfrwt>
<pdfrwt beam="2">0</pdfrwt>
<totfact> 0.71186875E-04</totfact>
</mgrwt>
<clustering>
<clus scale="   32.207">  1  6  2 -1</clus>
<clus scale="  464.520">  4  5 -1 -1</clus>
<clus scale="  300.000">  1  4  2 -1</clus>
</clustering>
</event>
<event>
 6    1  0.9254630E-012  0.3000000E+03  0.7818608E-02  0.1093470E+00
          1   -1    0    0  502    0  0.00000000000E+00  0.00000000000E+00  0.24550381792E+03  0.24550381792E+03  0.00000000000E+00 0.  1.
         13   -1    0    0    0    0 -0.00000000000E+00 -0.00000000000E+00 -0.27500000000E+03  0.27500000000E+03  0.00000000000E+00 0.  1.
    9000005    2    1    2  501    0 -0.14573859925E+02 -0.31471297952E+02 -0.40541573627E+02  0.48410545721E+03  0.48115655926E+03 0.  0.
         13    1    3    3    0    0 -0.80376911029E+02  0.20975898995E+03 -0.62316175545E+02  0.23311496611E+03  0.00000000000E+00 0.  1.
          1    1    3    3  501    0  0.65803051105E+02 -0.24123028790E+03  0.21774601918E+02  0.25099049110E+03  0.00000000000E+00 0.  1.
         21    1    1    2  502  501  0.14573859925E+02  0.31471297952E+02  0.11045391548E+02  0.36398360710E+02  0.00000000000E+00 0.  1.
<scales pt_clust_4="550.00000" pt_clust_5="550.00000" pt_clust_6="34.68198"></scales>
<mgrwt>
<rscale>  0 0.30000000E+03</rscale>
<asrwt>  1 0.34681984E+02</asrwt>
<pdfrwt beam="1">  1        1 0.89274116E+00 0.30000000E+03</pdfrwt>
<pdfrwt beam="2">0</pdfrwt>
<totfact> 0.13409607E-04</totfact>
</mgrwt>
<clustering>
<clus scale="   34.682">  1  6  2 -1</clus>
<clus scale="  481.157">  4  5 -1 -1</clus>
<clus scale="  300.000">  1  4  2 -1</clus>
</clustering>
</event>
<event>
 6    1  0.9254630E-012  0.3000000E+03  0.7818608E-02  0.1093470E+00
          1   -1    0    0  502    0  0.00000000000E+00  0.00000000000E+00  0.22150675234E+03  0.22150675234E+03  0.00000000000E+00 0.  1.
         13   -1    0    0    0    0 -0.00000000000E+00 -0.00000000000E+00 -0.27500000000E+03  0.27500000000E+03  0.00000000000E+00 0.  1.
    9000005    2    1    2  501    0  0.34734704788E+02 -0.65569317764E+01 -0.50375570579E+02  0.46102136124E+03  0.45689550703E+03 0.  0.
         13    1    3    3    0    0  0.93116704855E+02 -0.21490386489E+03  0.15836980470E+02  0.23474497187E+03  0.00000000000E+00 0.  1.
          1    1    3    3  501    0 -0.58382000067E+02  0.20834693312E+03 -0.66212551048E+02  0.22627638937E+03  0.00000000000E+00 0.  1.
         21    1    1    2  502  501 -0.34734704788E+02  0.65569317764E+01 -0.31176770799E+01  0.35485391099E+02  0.00000000000E+00 0.  1.
<scales pt_clust_4="550.00000" pt_clust_5="550.00000" pt_clust_6="35.34817"></scales>
<mgrwt>
<rscale>  0 0.30000000E+03</rscale>
<asrwt>  1 0.35348169E+02</asrwt>
<pdfrwt beam="1">  1        1 0.80547910E+00 0.30000000E+03</pdfrwt>
<pdfrwt beam="2">0</pdfrwt>
<totfact> 0.94324552E-04</totfact>
</mgrwt>
<clustering>
<clus scale="   35.348">  1  6  2 -1</clus>
<clus scale="  456.896">  4  5 -1 -1</clus>
<clus scale="  300.000">  1  4  2 -1</clus>
</clustering>
</event>
<event>
 6    1  0.9254630E-012  0.3000000E+03  0.7818608E-02  0.1093470E+00
          1   -1    0    0  502    0  0.00000000000E+00  0.00000000000E+00  0.22550345646E+03  0.22550345646E+03  0.00000000000E+00 0.  1.
         13   -1    0    0    0    0 -0.00000000000E+00 -0.00000000000E+00 -0.27500000000E+03  0.27500000000E+03  0.00000000000E+00 0.  1.
    9000005    2    1    2  501    0  0.14930419828E+02 -0.35480339754E+02 -0.51500339938E+02  0.46195754688E+03  0.45746116574E+03 0.  0.
         13    1    3    3    0    0  0.46516786680E+02  0.18842128508E+03  0.68696509664E+02  0.20587763976E+03  0.00000000000E+00 0.  1.
          1    1    3    3  501    0 -0.31586366852E+02 -0.22390162483E+03 -0.12019684960E+03  0.25607990711E+03  0.00000000000E+00 0.  1.
         21    1    1    2  502  501 -0.14930419828E+02  0.35480339754E+02  0.20037963938E+01  0.38545909579E+02  0.00000000000E+00 0.  1.
<scales pt_clust_4="550.00000" pt_clust_5="550.00000" pt_clust_6="38.49379"></scales>
<mgrwt>
<rscale>  0 0.30000000E+03</rscale>
<asrwt>  1 0.38493791E+02</asrwt>
<pdfrwt beam="1">  1        1 0.82001257E+00 0.30000000E+03</pdfrwt>
<pdfrwt beam="2">0</pdfrwt>
<totfact> 0.71046330E-04</totfact>
</mgrwt>
<clustering>
<clus scale="   38.494">  1  6  2 -1</clus>
<clus scale="  457.461">  4  5 -1 -1</clus>
<clus scale="  300.000">  1  4  2 -1</clus>
</clustering>
</event>
<event>
 6    1  0.9254630E-012  0.3000000E+03  0.7818608E-02  0.1093470E+00
          1   -1    0    0  502    0  0.00000000000E+00  0.00000000000E+00  0.22089078115E+03  0.22089078115E+03  0.00000000000E+00 0.  1.
         13   -1    0    0    0    0 -0.00000000000E+00 -0.00000000000E+00 -0.27500000000E+03  0.27500000000E+03  0.00000000000E+00 0.  1.
    9000005    2    1    2  501    0 -0.30102307327E+02  0.17514168483E+02 -0.55519975792E+02  0.46103557725E+03  0.45635341652E+03 0.  0.
         13    1    3    3    0    0 -0.71383694354E+01  0.48168210605E+02 -0.25413658000E+03  0.25875960683E+03  0.00000000000E+00 0.  1.
          1    1    3    3  501    0 -0.22963937892E+02 -0.30654042121E+02  0.19861660421E+03  0.20227597042E+03  0.00000000000E+00 0.  1.
         21    1    1    2  502  501  0.30102307327E+02 -0.17514168483E+02  0.14107569418E+01  0.34855203905E+02  0.00000000000E+00 0.  1.
<scales pt_clust_4="550.00000" pt_clust_5="550.00000" pt_clust_6="34.82664"></scales>
<mgrwt>
<rscale>  0 0.30000000E+03</rscale>
<asrwt>  1 0.34826642E+02</asrwt>
<pdfrwt beam="1">  1        1 0.80323920E+00 0.30000000E+03</pdfrwt>
<pdfrwt beam="2">0</pdfrwt>
<totfact> 0.98313237E-04</totfact>
</mgrwt>
<clustering>
<clus scale="   34.827">  1  6  2 -1</clus>
<clus scale="  456.353">  4  5 -1 -1</clus>
<clus scale="  300.000">  1  4  2 -1</clus>
</clustering>
</event>
<event>
 6    1  0.9254630E-012  0.3000000E+03  0.7818608E-02  0.1093470E+00
          1   -1    0    0  502    0  0.00000000000E+00  0.00000000000E+00  0.23042364441E+03  0.23042364441E+03  0.00000000000E+00 0.  1.
         13   -1    0    0    0    0 -0.00000000000E+00 -0.00000000000E+00 -0.27500000000E+03  0.27500000000E+03  0.00000000000E+00 0.  1.
    9000005    2    1    2  501    0 -0.28568929826E+02 -0.26902345960E+02 -0.41127668302E+02  0.46603058140E+03  0.46255064342E+03 0.  0.
         13    1    3    3    0    0  0.15036182257E+03 -0.17033798538E+03  0.21734529884E+02  0.22824569380E+03  0.00000000000E+00 0.  1.
          1    1    3    3  501    0 -0.17893075240E+03  0.14343563942E+03 -0.62862198186E+02  0.23778488760E+03  0.00000000000E+00 0.  1.
         21    1    1    2  502  501  0.28568929826E+02  0.26902345960E+02 -0.34486872867E+01  0.39393063013E+02  0.00000000000E+00 0.  1.
<scales pt_clust_4="550.00000" pt_clust_5="550.00000" pt_clust_6="39.24181"></scales>
<mgrwt>
<rscale>  0 0.30000000E+03</rscale>
<asrwt>  1 0.39241814E+02</asrwt>
<pdfrwt beam="1">  1        1 0.83790416E+00 0.30000000E+03</pdfrwt>
<pdfrwt beam="2">0</pdfrwt>
<totfact> 0.50450816E-04</totfact>
</mgrwt>
<clustering>
<clus scale="   39.242">  1  6  2 -1</clus>
<clus scale="  462.551">  4  5 -1 -1</clus>
<clus scale="  300.000">  1  4  2 -1</clus>
</clustering>
</event>
<event>
 6    1  0.9254630E-012  0.3000000E+03  0.7818608E-02  0.1093470E+00
          1   -1    0    0  502    0  0.00000000000E+00  0.00000000000E+00  0.22823792711E+03  0.22823792711E+03  0.00000000000E+00 0.  1.
         13   -1    0    0    0    0 -0.00000000000E+00 -0.00000000000E+00 -0.27500000000E+03  0.27500000000E+03  0.00000000000E+00 0.  1.
    9000005    2    1    2  501    0 -0.44268730063E+01 -0.39092097286E+02 -0.45853044580E+02  0.46388547347E+03  0.45993417086E+03 0.  0.
         13    1    3    3    0    0  0.22073435473E+03 -0.71696068788E+02 -0.14896351945E+01  0.23209093185E+03  0.00000000000E+00 0.  1.
          1    1    3    3  501    0 -0.22516122773E+03  0.32603971502E+02 -0.44363409385E+02  0.23179454162E+03  0.00000000000E+00 0.  1.
         21    1    1    2  502  501  0.44268730063E+01  0.39092097286E+02 -0.90902831133E+00  0.39352453638E+02  0.00000000000E+00 0. -1.
<scales pt_clust_4="550.00000" pt_clust_5="550.00000" pt_clust_6="39.34195"></scales>
<mgrwt>
<rscale>  0 0.30000000E+03</rscale>
<asrwt>  1 0.39341953E+02</asrwt>
<pdfrwt beam="1">  1        1 0.82995610E+00 0.30000000E+03</pdfrwt>
<pdfrwt beam="2">0</pdfrwt>
<totfact> 0.57884139E-04</totfact>
</mgrwt>
<clustering>
<clus scale="   39.342">  1  6  2 -1</clus>
<clus scale="  459.934">  4  5 -1 -1</clus>
<clus scale="  300.000">  1  4  2 -1</clus>
</clustering>
</event>
<event>
 6    1  0.9254630E-012  0.3000000E+03  0.7818608E-02  0.1093470E+00
          1   -1    0    0  502    0  0.00000000000E+00  0.00000000000E+00  0.22176079637E+03  0.22176079637E+03  0.00000000000E+00 0.  1.
         13   -1    0    0    0    0 -0.00000000000E+00 -0.00000000000E+00 -0.27500000000E+03  0.27500000000E+03  0.00000000000E+00 0.  1.
    9000005    2    1    2  501    0  0.13274042033E+02 -0.29330756878E+02 -0.58940312463E+02  0.46406529006E+03  0.45917985530E+03 0.  0.
         13    1    3    3    0    0  0.20238672992E+03 -0.12360711456E+03  0.21145658568E+02  0.23808873576E+03  0.00000000000E+00 0.  1.
          3    1    3    3  501    0 -0.18911268789E+03  0.94276357685E+02 -0.80085971031E+02  0.22597655430E+03  0.00000000000E+00 0.  1.
         21    1    1    2  502  501 -0.13274042033E+02  0.29330756878E+02  0.57011088297E+01  0.32695506310E+02  0.00000000000E+00 0.  1.
<scales pt_clust_4="550.00000" pt_clust_5="550.00000" pt_clust_6="32.19462"></scales>
<mgrwt>
<rscale>  0 0.30000000E+03</rscale>
<asrwt>  1 0.32194619E+02</asrwt>
<pdfrwt beam="1">  1        1 0.80640290E+00 0.30000000E+03</pdfrwt>
<pdfrwt beam="2">0</pdfrwt>
<totfact> 0.94451277E-04</totfact>
</mgrwt>
<clustering>
<clus scale="   32.195">  1  6  2 -1</clus>
<clus scale="  459.180">  4  5 -1 -1</clus>
<clus scale="  300.000">  1  4  2 -1</clus>
</clustering>
</event>
<event>
 6    1  0.9254630E-012  0.3000000E+03  0.7818608E-02  0.1093470E+00
          1   -1    0    0  502    0  0.00000000000E+00  0.00000000000E+00  0.23225177691E+03  0.23225177691E+03  0.00000000000E+00 0.  1.
         13   -1    0    0    0    0 -0.00000000000E+00 -0.00000000000E+00 -0.27500000000E+03  0.27500000000E+03  0.00000000000E+00 0.  1.
    9000005    2    1    2  501    0  0.22605457273E+02 -0.22951073494E+02 -0.65394082740E+02  0.46787420166E+03  0.46216027961E+03 0.  0.
         13    1    3    3    0    0  0.28981547641E+02 -0.90759478188E+02 -0.25190332867E+03  0.26931858454E+03  0.00000000000E+00 0.  1.
          3    1    3    3  501    0 -0.63760903676E+01  0.67808404694E+02  0.18650924593E+03  0.19855561712E+03  0.00000000000E+00 0.  1.
         21    1    1    2  502  501 -0.22605457273E+02  0.22951073494E+02  0.22645859647E+02  0.39377575246E+02  0.00000000000E+00 0. -1.
<scales pt_clust_4="550.00000" pt_clust_5="550.00000" pt_clust_6="32.21426"></scales>
<mgrwt>
<rscale>  0 0.30000000E+03</rscale>
<asrwt>  1 0.32214259E+02</asrwt>
<pdfrwt beam="1">  1        1 0.84455192E+00 0.30000000E+03</pdfrwt>
<pdfrwt beam="2">0</pdfrwt>
<totfact> 0.46308268E-04</totfact>
</mgrwt>
<clustering>
<clus scale="   32.214">  1  6  2 -1</clus>
<clus scale="  462.160">  4  5 -1 -1</clus>
<clus scale="  300.000">  1  4  2 -1</clus>
</clustering>
</event>
<event>
 6    1  0.9254630E-012  0.3000000E+03  0.7818608E-02  0.1093470E+00
          1   -1    0    0  502    0  0.00000000000E+00  0.00000000000E+00  0.22132477445E+03  0.22132477445E+03  0.00000000000E+00 0.  1.
         13   -1    0    0    0    0 -0.00000000000E+00 -0.00000000000E+00 -0.27500000000E+03  0.27500000000E+03  0.00000000000E+00 0.  1.
    9000005    2    1    2  501    0  0.28550780456E+02  0.14556066294E+02 -0.50607689766E+02  0.46413104981E+03  0.46024935307E+03 0.  0.
         13    1    3    3    0    0  0.13603982868E+03  0.17862524003E+03 -0.12183357131E+03  0.25545494801E+03  0.00000000000E+00 0.  1.
          3    1    3    3  501    0 -0.10748904823E+03 -0.16406917374E+03  0.71225881542E+02  0.20867610180E+03  0.00000000000E+00 0.  1.
         21    1    1    2  502  501 -0.28550780456E+02 -0.14556066294E+02 -0.30675357860E+01  0.32193724643E+02  0.00000000000E+00 0. -1.
<scales pt_clust_4="550.00000" pt_clust_5="550.00000" pt_clust_6="32.04725"></scales>
<mgrwt>
<rscale>  0 0.30000000E+03</rscale>
<asrwt>  1 0.32047248E+02</asrwt>
<pdfrwt beam="1">  1        1 0.80481736E+00 0.30000000E+03</pdfrwt>
<pdfrwt beam="2">0</pdfrwt>
<totfact> 0.97199983E-04</totfact>
</mgrwt>
<clustering>
<clus scale="   32.047">  1  6  2 -1</clus>
<clus scale="  460.249">  4  5 -1 -1</clus>
<clus scale="  300.000">  1  4  2 -1</clus>
</clustering>
</event>
<event>
 6    1  0.9254630E-012  0.3000000E+03  0.7818608E-02  0.1093470E+00
          1   -1    0    0  502    0  0.00000000000E+00  0.00000000000E+00  0.22488523430E+03  0.22488523430E+03  0.00000000000E+00 0.  1.
         13   -1    0    0    0    0 -0.00000000000E+00 -0.00000000000E+00 -0.27500000000E+03  0.27500000000E+03  0.00000000000E+00 0.  1.
    9000005    2    1    2  501    0  0.32927718671E+01 -0.31909147025E+02 -0.67512112554E+02  0.46339271879E+03  0.45732471011E+03 0.  0.
         13    1    3    3    0    0  0.16007805248E+03 -0.12568554073E+03 -0.15975645089E+03  0.25873531192E+03  0.00000000000E+00 0.  1.
          3    1    3    3  501    0 -0.15678528061E+03  0.93776393706E+02  0.92244338338E+02  0.20465740687E+03  0.00000000000E+00 0.  1.
         21    1    1    2  502  501 -0.32927718671E+01  0.31909147025E+02  0.17397346850E+02  0.36492515505E+02  0.00000000000E+00 0. -1.
<scales pt_clust_4="550.00000" pt_clust_5="550.00000" pt_clust_6="32.07859"></scales>
<mgrwt>
<rscale>  0 0.30000000E+03</rscale>
<asrwt>  1 0.32078591E+02</asrwt>
<pdfrwt beam="1">  1        1 0.81776449E+00 0.30000000E+03</pdfrwt>
<pdfrwt beam="2">0</pdfrwt>
<totfact> 0.76814552E-04</totfact>
</mgrwt>
<clustering>
<clus scale="   32.079">  1  6  2 -1</clus>
<clus scale="  457.325">  4  5 -1 -1</clus>
<clus scale="  300.000">  1  4  2 -1</clus>
</clustering>
</event>
<event>
 6    1  0.9254630E-012  0.3000000E+03  0.7818608E-02  0.1093470E+00
          1   -1    0    0  502    0  0.00000000000E+00  0.00000000000E+00  0.23396571519E+03  0.23396571519E+03  0.00000000000E+00 0.  1.
         13   -1    0    0    0    0 -0.00000000000E+00 -0.00000000000E+00 -0.27500000000E+03  0.27500000000E+03  0.00000000000E+00 0.  1.
    9000005    2    1    2  501    0 -0.16886321569E+02 -0.31915450990E+02 -0.55408512559E+02  0.47010233536E+03  0.46542707117E+03 0.  0.
         13    1    3    3    0    0  0.13611254121E+03  0.14176211597E+03 -0.11940820294E+03  0.22995964935E+03  0.00000000000E+00 0.  1.
          3    1    3    3  501    0 -0.15299886278E+03 -0.17367756696E+03  0.63999690382E+02  0.24014268601E+03  0.00000000000E+00 0.  1.
         21    1    1    2  502  501  0.16886321569E+02  0.31915450990E+02  0.14374227746E+02  0.38863379823E+02  0.00000000000E+00 0. -1.
<scales pt_clust_4="550.00000" pt_clust_5="550.00000" pt_clust_6="36.10739"></scales>
<mgrwt>
<rscale>  0 0.30000000E+03</rscale>
<asrwt>  1 0.36107394E+02</asrwt>
<pdfrwt beam="1">  1        1 0.85078442E+00 0.30000000E+03</pdfrwt>
<pdfrwt beam="2">0</pdfrwt>
<totfact> 0.39780047E-04</totfact>
</mgrwt>
<clustering>
<clus scale="   36.107">  1  6  2 -1</clus>
<clus scale="  465.427">  4  5 -1 -1</clus>
<clus scale="  300.000">  1  4  2 -1</clus>
</clustering>
</event>
<event>
 6    1  0.9254630E-012  0.3000000E+03  0.7818608E-02  0.1093470E+00
          1   -1    0    0  502    0  0.00000000000E+00  0.00000000000E+00  0.25419983291E+03  0.25419983291E+03  0.00000000000E+00 0.  1.
         13   -1    0    0    0    0 -0.00000000000E+00 -0.00000000000E+00 -0.27500000000E+03  0.27500000000E+03  0.00000000000E+00 0.  1.
    9000005    2    1    2  501    0 -0.35582915723E+02 -0.10815722925E+02 -0.44093098000E+02  0.48531721239E+03  0.48187702954E+03 0.  0.
         13    1    3    3    0    0 -0.77510503650E+02  0.22709270876E+03 -0.11713031986E+01  0.23995905588E+03  0.00000000000E+00 0.  1.
          1    1    3    3  501    0  0.41927587927E+02 -0.23790843168E+03 -0.42921794801E+02  0.24535815651E+03  0.00000000000E+00 0.  1.
         21    1    1    2  502  501  0.35582915723E+02  0.10815722925E+02  0.23292930912E+02  0.43882620526E+02  0.00000000000E+00 0.  1.
<scales pt_clust_4="550.00000" pt_clust_5="550.00000" pt_clust_6="37.19037"></scales>
<mgrwt>
<rscale>  0 0.30000000E+03</rscale>
<asrwt>  1 0.37190372E+02</asrwt>
<pdfrwt beam="1">  1        1 0.92436303E+00 0.30000000E+03</pdfrwt>
<pdfrwt beam="2">0</pdfrwt>
<totfact> 0.33423648E-05</totfact>
</mgrwt>
<clustering>
<clus scale="   37.190">  1  6  2 -1</clus>
<clus scale="  481.877">  4  5 -1 -1</clus>
<clus scale="  300.000">  1  4  2 -1</clus>
</clustering>
</event>
<event>
 6    1  0.9254630E-012  0.3000000E+03  0.7818608E-02  0.1093470E+00
          1   -1    0    0  502    0  0.00000000000E+00  0.00000000000E+00  0.24729579532E+03  0.24729579532E+03  0.00000000000E+00 0.  1.
         13   -1    0    0    0    0 -0.00000000000E+00 -0.00000000000E+00 -0.27500000000E+03  0.27500000000E+03  0.00000000000E+00 0.  1.
    9000005    2    1    2  501    0 -0.14359500760E+02 -0.51432407959E+02 -0.45759178509E+02  0.46592674414E+03  0.46058912345E+03 0.  0.
         13    1    3    3    0    0  0.49163247114E+02 -0.15234588364E+03 -0.20931835731E+03  0.26351559316E+03  0.00000000000E+00 0.  1.
          3    1    3    3  501    0 -0.63522747874E+02  0.10091347568E+03  0.16355917881E+03  0.20241115099E+03  0.00000000000E+00 0.  1.
         21    1    1    2  502  501  0.14359500760E+02  0.51432407959E+02  0.18054973828E+02  0.56369051176E+02  0.00000000000E+00 0.  1.
<scales pt_clust_4="550.00000" pt_clust_5="550.00000" pt_clust_6="53.39932"></scales>
<mgrwt>
<rscale>  0 0.30000000E+03</rscale>
<asrwt>  1 0.53399324E+02</asrwt>
<pdfrwt beam="1">  1        1 0.89925744E+00 0.30000000E+03</pdfrwt>
<pdfrwt beam="2">0</pdfrwt>
<totfact> 0.10452950E-04</totfact>
</mgrwt>
<clustering>
<clus scale="   53.399">  1  6  2 -1</clus>
<clus scale="  460.589">  4  5 -1 -1</clus>
<clus scale="  300.000">  1  4  2 -1</clus>
</clustering>
</event>
<event>
 6    1  0.9254630E-012  0.3000000E+03  0.7818608E-02  0.1093470E+00
          1   -1    0    0  502    0  0.00000000000E+00  0.00000000000E+00  0.21993358933E+03  0.21993358933E+03  0.00000000000E+00 0.  1.
         13   -1    0    0    0    0 -0.00000000000E+00 -0.00000000000E+00 -0.27500000000E+03  0.27500000000E+03  0.00000000000E+00 0.  1.
    9000005    2    1    2  501    0 -0.33846995534E+02 -0.50344302559E+01 -0.53962481833E+02  0.46069642745E+03  0.45624366760E+03 0.  0.
         13    1    3    3    0    0  0.15942977264E+03 -0.14236835738E+03  0.13545178382E+02  0.21417299886E+03  0.00000000000E+00 0.  1.
          1    1    3    3  501    0 -0.19327676817E+03  0.13733392712E+03 -0.67507660215E+02  0.24652342858E+03  0.00000000000E+00 0.  1.
         21    1    1    2  502  501  0.33846995534E+02  0.50344302559E+01 -0.11039288408E+01  0.34237161880E+02  0.00000000000E+00 0. -1.
<scales pt_clust_4="550.00000" pt_clust_5="550.00000" pt_clust_6="34.21936"></scales>
<mgrwt>
<rscale>  0 0.30000000E+03</rscale>
<asrwt>  1 0.34219360E+02</asrwt>
<pdfrwt beam="1">  1        1 0.79975851E+00 0.30000000E+03</pdfrwt>
<pdfrwt beam="2">0</pdfrwt>
<totfact> 0.10456153E-03</totfact>
</mgrwt>
<clustering>
<clus scale="   34.219">  1  6  2 -1</clus>
<clus scale="  456.244">  4  5 -1 -1</clus>
<clus scale="  300.000">  1  4  2 -1</clus>
</clustering>
</event>
<event>
 6    1  0.9254630E-012  0.3000000E+03  0.7818608E-02  0.1093470E+00
          1   -1    0    0  502    0  0.00000000000E+00  0.00000000000E+00  0.23702042861E+03  0.23702042861E+03  0.00000000000E+00 0.  1.
         13   -1    0    0    0    0 -0.00000000000E+00 -0.00000000000E+00 -0.27500000000E+03  0.27500000000E+03  0.00000000000E+00 0.  1.
    9000005    2    1    2  501    0 -0.31742584449E+02  0.36833604960E+02 -0.44605136339E+02  0.46294697109E+03  0.45822044229E+03 0.  0.
         13    1    3    3    0    0  0.13031200164E+03  0.76652261899E+02 -0.18917018299E+03  0.24216140311E+03  0.00000000000E+00 0.  1.
          1    1    3    3  501    0 -0.16205458609E+03 -0.39818656939E+02  0.14456504665E+03  0.22078556798E+03  0.00000000000E+00 0.  1.
         21    1    1    2  502  501  0.31742584449E+02 -0.36833604960E+02  0.66255649464E+01  0.49073457517E+02  0.00000000000E+00 0.  1.
<scales pt_clust_4="550.00000" pt_clust_5="550.00000" pt_clust_6="48.62413"></scales>
<mgrwt>
<rscale>  0 0.30000000E+03</rscale>
<asrwt>  1 0.48624131E+02</asrwt>
<pdfrwt beam="1">  1        1 0.86189247E+00 0.30000000E+03</pdfrwt>
<pdfrwt beam="2">0</pdfrwt>
<totfact> 0.29078955E-04</totfact>
</mgrwt>
<clustering>
<clus scale="   48.624">  1  6  2 -1</clus>
<clus scale="  458.220">  4  5 -1 -1</clus>
<clus scale="  300.000">  1  4  2 -1</clus>
</clustering>
</event>
<event>
 6    1  0.9254630E-012  0.3000000E+03  0.7818608E-02  0.1093470E+00
          1   -1    0    0  502    0  0.00000000000E+00  0.00000000000E+00  0.24166923254E+03  0.24166923254E+03  0.00000000000E+00 0.  1.
         13   -1    0    0    0    0 -0.00000000000E+00 -0.00000000000E+00 -0.27500000000E+03  0.27500000000E+03  0.00000000000E+00 0.  1.
    9000005    2    1    2  501    0  0.29872700526E+02  0.46316523121E+01 -0.30958482227E+02  0.48634666377E+03  0.48441802123E+03 0.  0.
         13    1    3    3    0    0  0.14971982623E+03  0.16231543634E+03  0.10659807752E+03  0.24520497012E+03  0.00000000000E+00 0.  1.
          3    1    3    3  501    0 -0.11984712571E+03 -0.15768378403E+03 -0.13755655975E+03  0.24114169365E+03  0.00000000000E+00 0.  1.
         21    1    1    2  502  501 -0.29872700526E+02 -0.46316523121E+01 -0.23722852310E+01  0.30322568775E+02  0.00000000000E+00 0. -1.
<scales pt_clust_4="550.00000" pt_clust_5="550.00000" pt_clust_6="30.22964"></scales>
<mgrwt>
<rscale>  0 0.30000000E+03</rscale>
<asrwt>  1 0.30229644E+02</asrwt>
<pdfrwt beam="1">  1        1 0.87879721E+00 0.30000000E+03</pdfrwt>
<pdfrwt beam="2">0</pdfrwt>
<totfact> 0.20984108E-04</totfact>
</mgrwt>
<clustering>
<clus scale="   30.230">  1  6  2 -1</clus>
<clus scale="  484.418">  4  5 -1 -1</clus>
<clus scale="  300.000">  1  4  2 -1</clus>
</clustering>
</event>
<event>
 6    1  0.9254630E-012  0.3000000E+03  0.7818608E-02  0.1093470E+00
          1   -1    0    0  502    0  0.00000000000E+00  0.00000000000E+00  0.22206705864E+03  0.22206705864E+03  0.00000000000E+00 0.  1.
         13   -1    0    0    0    0 -0.00000000000E+00 -0.00000000000E+00 -0.27500000000E+03  0.27500000000E+03  0.00000000000E+00 0.  1.
    9000005    2    1    2  501    0 -0.10522164675E+02 -0.34629915287E+02 -0.51982345507E+02  0.46086138761E+03  0.45648779542E+03 0.  0.
         13    1    3    3    0    0  0.21517373370E+03  0.32875296018E+02 -0.57801798147E+02  0.22521449472E+03  0.00000000000E+00 0.  1.
          3    1    3    3  501    0 -0.22569589838E+03 -0.67505211305E+02  0.58194526403E+01  0.23564689289E+03  0.00000000000E+00 0.  1.
         21    1    1    2  502  501  0.10522164675E+02  0.34629915287E+02 -0.95059585179E+00  0.36205671029E+02  0.00000000000E+00 0.  1.
<scales pt_clust_4="550.00000" pt_clust_5="550.00000" pt_clust_6="36.19319"></scales>
<mgrwt>
<rscale>  0 0.30000000E+03</rscale>
<asrwt>  1 0.36193190E+02</asrwt>
<pdfrwt beam="1">  1        1 0.80751658E+00 0.30000000E+03</pdfrwt>
<pdfrwt beam="2">0</pdfrwt>
<totfact> 0.90595543E-04</totfact>
</mgrwt>
<clustering>
<clus scale="   36.193">  1  6  2 -1</clus>
<clus scale="  456.488">  4  5 -1 -1</clus>
<clus scale="  300.000">  1  4  2 -1</clus>
</clustering>
</event>
<event>
 6    1  0.9254630E-012  0.3000000E+03  0.7818608E-02  0.1093470E+00
          1   -1    0    0  502    0  0.00000000000E+00  0.00000000000E+00  0.23981796133E+03  0.23981796133E+03  0.00000000000E+00 0.  1.
         13   -1    0    0    0    0 -0.00000000000E+00 -0.00000000000E+00 -0.27500000000E+03  0.27500000000E+03  0.00000000000E+00 0.  1.
    9000005    2    1    2  501    0  0.77159572536E+01  0.38343806397E+02 -0.12618314662E+02  0.46966372425E+03  0.46786216830E+03 0.  0.
         13    1    3    3    0    0 -0.27247660451E+02 -0.14192118329E+03  0.16142674662E+03  0.21666252974E+03  0.00000000000E+00 0.  1.
          1    1    3    3  501    0  0.34963617704E+02  0.18026498969E+03 -0.17404506128E+03  0.25300119452E+03  0.00000000000E+00 0.  1.
         21    1    1    2  502  501 -0.77159572536E+01 -0.38343806397E+02 -0.22563724005E+02  0.45154237080E+02  0.00000000000E+00 0.  1.
<scales pt_clust_4="550.00000" pt_clust_5="550.00000" pt_clust_6="39.11247"></scales>
<mgrwt>
<rscale>  0 0.30000000E+03</rscale>
<asrwt>  1 0.39112466E+02</asrwt>
<pdfrwt beam="1">  1        1 0.87206531E+00 0.30000000E+03</pdfrwt>
<pdfrwt beam="2">0</pdfrwt>
<totfact> 0.23633494E-04</totfact>
</mgrwt>
<clustering>
<clus scale="   39.112">  1  6  2 -1</clus>
<clus scale="  467.862">  4  5 -1 -1</clus>
<clus scale="  300.000">  1  4  2 -1</clus>
</clustering>
</event>
<event>
 6    1  0.9254630E-012  0.3000000E+03  0.7818608E-02  0.1093470E+00
          1   -1    0    0  502    0  0.00000000000E+00  0.00000000000E+00  0.24328075700E+03  0.24328075700E+03  0.00000000000E+00 0.  1.
         13   -1    0    0    0    0 -0.00000000000E+00 -0.00000000000E+00 -0.27500000000E+03  0.27500000000E+03  0.00000000000E+00 0.  1.
    9000005    2    1    2  501    0 -0.40783985977E+01  0.35363169016E+02 -0.35062795448E+02  0.48252650689E+03  0.47993254023E+03 0.  0.
         13    1    3    3    0    0  0.78510516748E+02  0.19043569536E+03 -0.16506745731E+03  0.26396386262E+03  0.00000000000E+00 0.  1.
          3    1    3    3  501    0 -0.82588915346E+02 -0.15507252635E+03  0.13000466186E+03  0.21856264427E+03  0.00000000000E+00 0.  1.
         21    1    1    2  502  501  0.40783985977E+01 -0.35363169016E+02  0.33435524470E+01  0.35754250110E+02  0.00000000000E+00 0. -1.
<scales pt_clust_4="550.00000" pt_clust_5="550.00000" pt_clust_6="35.59757"></scales>
<mgrwt>
<rscale>  0 0.30000000E+03</rscale>
<asrwt>  1 0.35597571E+02</asrwt>
<pdfrwt beam="1">  1        1 0.88465730E+00 0.30000000E+03</pdfrwt>
<pdfrwt beam="2">0</pdfrwt>
<totfact> 0.17100786E-04</totfact>
</mgrwt>
<clustering>
<clus scale="   35.598">  1  6  2 -1</clus>
<clus scale="  479.933">  4  5 -1 -1</clus>
<clus scale="  300.000">  1  4  2 -1</clus>
</clustering>
</event>
<event>
 6    1  0.9254630E-012  0.3000000E+03  0.7818608E-02  0.1093470E+00
          1   -1    0    0  502    0  0.00000000000E+00  0.00000000000E+00  0.22737082560E+03  0.22737082560E+03  0.00000000000E+00 0.  1.
         13   -1    0    0    0    0 -0.00000000000E+00 -0.00000000000E+00 -0.27500000000E+03  0.27500000000E+03  0.00000000000E+00 0.  1.
    9000005    2    1    2  501    0 -0.31495010496E+02  0.35506065710E+01 -0.65590526418E+02  0.46594071910E+03  0.46021092345E+03 0.  0.
         13    1    3    3    0    0 -0.16580223001E+02 -0.21860811227E+03  0.34297779120E+02  0.22190256465E+03  0.00000000000E+00 0.  1.
          1    1    3    3  501    0 -0.14914787495E+02  0.22215871884E+03 -0.99888305538E+02  0.24403815445E+03  0.00000000000E+00 0.  1.
         21    1    1    2  502  501  0.31495010496E+02 -0.35506065710E+01  0.17961352014E+02  0.36430106496E+02  0.00000000000E+00 0.  1.
<scales pt_clust_4="550.00000" pt_clust_5="550.00000" pt_clust_6="31.69452"></scales>
<mgrwt>
<rscale>  0 0.30000000E+03</rscale>
<asrwt>  1 0.31694518E+02</asrwt>
<pdfrwt beam="1">  1        1 0.82680300E+00 0.30000000E+03</pdfrwt>
<pdfrwt beam="2">0</pdfrwt>
<totfact> 0.64143200E-04</totfact>
</mgrwt>
<clustering>
<clus scale="   31.695">  1  6  2 -1</clus>
<clus scale="  460.211">  4  5 -1 -1</clus>
<clus scale="  300.000">  1  4  2 -1</clus>
</clustering>
</event>
<event>
 6    1  0.9254630E-012  0.3000000E+03  0.7818608E-02  0.1093470E+00
          1   -1    0    0  502    0  0.00000000000E+00  0.00000000000E+00  0.26199361502E+03  0.26199361502E+03  0.00000000000E+00 0.  1.
         13   -1    0    0    0    0 -0.00000000000E+00 -0.00000000000E+00 -0.27500000000E+03  0.27500000000E+03  0.00000000000E+00 0.  1.
    9000005    2    1    2  501    0 -0.44394062068E+01 -0.36296663659E+02 -0.42927847717E+02  0.48974480496E+03  0.48648742815E+03 0.  0.
         13    1    3    3    0    0  0.98595315276E+02 -0.21189755215E+03 -0.13099106189E+03  0.26791839634E+03  0.00000000000E+00 0.  1.
          1    1    3    3  501    0 -0.10303472148E+03  0.17560088849E+03  0.88063214174E+02  0.22182640862E+03  0.00000000000E+00 0.  1.
         21    1    1    2  502  501  0.44394062068E+01  0.36296663659E+02  0.29921462741E+02  0.47248810068E+02  0.00000000000E+00 0.  1.
<scales pt_clust_4="550.00000" pt_clust_5="550.00000" pt_clust_6="36.56715"></scales>
<mgrwt>
<rscale>  0 0.30000000E+03</rscale>
<asrwt>  1 0.36567145E+02</asrwt>
<pdfrwt beam="1">  1        1 0.95270405E+00 0.30000000E+03</pdfrwt>
<pdfrwt beam="2">0</pdfrwt>
<totfact> 0.10759677E-05</totfact>
</mgrwt>
<clustering>
<clus scale="   36.567">  1  6  2 -1</clus>
<clus scale="  486.487">  4  5 -1 -1</clus>
<clus scale="  300.000">  1  4  2 -1</clus>
</clustering>
</event>
<event>
 6    1  0.9254630E-012  0.3000000E+03  0.7818608E-02  0.1093470E+00
          1   -1    0    0  502    0  0.00000000000E+00  0.00000000000E+00  0.22460909870E+03  0.22460909870E+03  0.00000000000E+00 0.  1.
         13   -1    0    0    0    0 -0.00000000000E+00 -0.00000000000E+00 -0.27500000000E+03  0.27500000000E+03  0.00000000000E+00 0.  1.
    9000005    2    1    2  501    0  0.24820814430E+02  0.19136214271E+02 -0.52542089491E+02  0.46819421153E+03  0.46417979384E+03 0.  0.
         13    1    3    3    0    0 -0.59053194079E+02  0.16251899534E+03  0.13374388301E+03  0.21860267569E+03  0.00000000000E+00 0.  1.
          3    1    3    3  501    0  0.83874008509E+02 -0.14338278107E+03 -0.18628597250E+03  0.24959153583E+03  0.00000000000E+00 0.  1.
         21    1    1    2  502  501 -0.24820814430E+02 -0.19136214271E+02  0.21511881919E+01  0.31414887176E+02  0.00000000000E+00 0.  1.
<scales pt_clust_4="550.00000" pt_clust_5="550.00000" pt_clust_6="31.34115"></scales>
<mgrwt>
<rscale>  0 0.30000000E+03</rscale>
<asrwt>  1 0.31341147E+02</asrwt>
<pdfrwt beam="1">  1        1 0.81676036E+00 0.30000000E+03</pdfrwt>
<pdfrwt beam="2">0</pdfrwt>
<totfact> 0.78642477E-04</totfact>
</mgrwt>
<clustering>
<clus scale="   31.341">  1  6  2 -1</clus>
<clus scale="  464.180">  4  5 -1 -1</clus>
<clus scale="  300.000">  1  4  2 -1</clus>
</clustering>
</event>
<event>
 6    1  0.9254630E-012  0.3000000E+03  0.7818608E-02  0.1093470E+00
          1   -1    0    0  502    0  0.00000000000E+00  0.00000000000E+00  0.23650281004E+03  0.23650281004E+03  0.00000000000E+00 0.  1.
         13   -1    0    0    0    0 -0.00000000000E+00 -0.00000000000E+00 -0.27500000000E+03  0.27500000000E+03  0.00000000000E+00 0.  1.
    9000005    2    1    2  501    0 -0.36220816570E+02  0.87679274883E+01 -0.39699236532E+02  0.47421649860E+03  0.47108007181E+03 0.  0.
         13    1    3    3    0    0  0.64511798282E+02  0.44683976089E+02  0.19831644599E+03  0.21327879076E+03  0.00000000000E+00 0.  1.
          1    1    3    3  501    0 -0.10073261485E+03 -0.35916048601E+02 -0.23801568253E+03  0.26093770784E+03  0.00000000000E+00 0.  1.
         21    1    1    2  502  501  0.36220816570E+02 -0.87679274883E+01  0.12020465764E+01  0.37286311448E+02  0.00000000000E+00 0.  1.
<scales pt_clust_4="550.00000" pt_clust_5="550.00000" pt_clust_6="37.26693"></scales>
<mgrwt>
<rscale>  0 0.30000000E+03</rscale>
<asrwt>  1 0.37266930E+02</asrwt>
<pdfrwt beam="1">  1        1 0.86001022E+00 0.30000000E+03</pdfrwt>
<pdfrwt beam="2">0</pdfrwt>
<totfact> 0.31962962E-04</totfact>
</mgrwt>
<clustering>
<clus scale="   37.267">  1  6  2 -1</clus>
<clus scale="  471.080">  4  5 -1 -1</clus>
<clus scale="  300.000">  1  4  2 -1</clus>
</clustering>
</event>
<event>
 6    1  0.9254630E-012  0.3000000E+03  0.7818608E-02  0.1093470E+00
          1   -1    0    0  502    0  0.00000000000E+00  0.00000000000E+00  0.22780599135E+03  0.22780599135E+03  0.00000000000E+00 0.  1.
         13   -1    0    0    0    0 -0.00000000000E+00 -0.00000000000E+00 -0.27500000000E+03  0.27500000000E+03  0.00000000000E+00 0.  1.
    9000005    2    1    2  501    0  0.70597884224E+01 -0.34129227136E+02 -0.64758092627E+02  0.46377854199E+03  0.45791077809E+03 0.  0.
         13    1    3    3    0    0 -0.54866074124E+02  0.16315775644E+03 -0.16100597468E+03  0.23569824661E+03  0.00000000000E+00 0.  1.
          3    1    3    3  501    0  0.61925862546E+02 -0.19728698358E+03  0.96247882049E+02  0.22808029538E+03  0.00000000000E+00 0.  1.
         21    1    1    2  502  501 -0.70597884224E+01  0.34129227136E+02  0.17564083977E+02  0.39027449359E+02  0.00000000000E+00 0.  1.
<scales pt_clust_4="550.00000" pt_clust_5="550.00000" pt_clust_6="34.85175"></scales>
<mgrwt>
<rscale>  0 0.30000000E+03</rscale>
<asrwt>  1 0.34851754E+02</asrwt>
<pdfrwt beam="1">  1        1 0.82838542E+00 0.30000000E+03</pdfrwt>
<pdfrwt beam="2">0</pdfrwt>
<totfact> 0.61034067E-04</totfact>
</mgrwt>
<clustering>
<clus scale="   34.852">  1  6  2 -1</clus>
<clus scale="  457.911">  4  5 -1 -1</clus>
<clus scale="  300.000">  1  4  2 -1</clus>
</clustering>
</event>
<event>
 6    1  0.9254630E-012  0.3000000E+03  0.7818608E-02  0.1093470E+00
          1   -1    0    0  502    0  0.00000000000E+00  0.00000000000E+00  0.23389593478E+03  0.23389593478E+03  0.00000000000E+00 0.  1.
         13   -1    0    0    0    0 -0.00000000000E+00 -0.00000000000E+00 -0.27500000000E+03  0.27500000000E+03  0.00000000000E+00 0.  1.
    9000005    2    1    2  501    0  0.14824535719E+02  0.30141897073E+02 -0.69717256590E+02  0.46477093576E+03  0.45828291048E+03 0.  0.
         13    1    3    3    0    0  0.96935155758E+02 -0.19563360095E+03 -0.48016209723E+02  0.22354974086E+03  0.00000000000E+00 0.  1.
          1    1    3    3  501    0 -0.82110620038E+02  0.22577549802E+03 -0.21701046867E+02  0.24122119490E+03  0.00000000000E+00 0.  1.
         21    1    1    2  502  501 -0.14824535719E+02 -0.30141897073E+02  0.28613191372E+02  0.44124999024E+02  0.00000000000E+00 0.  1.
<scales pt_clust_4="550.00000" pt_clust_5="550.00000" pt_clust_6="33.59019"></scales>
<mgrwt>
<rscale>  0 0.30000000E+03</rscale>
<asrwt>  1 0.33590189E+02</asrwt>
<pdfrwt beam="1">  1        1 0.85053067E+00 0.30000000E+03</pdfrwt>
<pdfrwt beam="2">0</pdfrwt>
<totfact> 0.40545113E-04</totfact>
</mgrwt>
<clustering>
<clus scale="   33.590">  1  6  2 -1</clus>
<clus scale="  458.283">  4  5 -1 -1</clus>
<clus scale="  300.000">  1  4  2 -1</clus>
</clustering>
</event>
<event>
 6    1  0.9254630E-012  0.3000000E+03  0.7818608E-02  0.1093470E+00
          1   -1    0    0  502    0  0.00000000000E+00  0.00000000000E+00  0.23485787093E+03  0.23485787093E+03  0.00000000000E+00 0.  1.
         13   -1    0    0    0    0 -0.00000000000E+00 -0.00000000000E+00 -0.27500000000E+03  0.27500000000E+03  0.00000000000E+00 0.  1.
    9000005    2    1    2  501    0  0.35863281566E+02  0.26578870001E+02 -0.50256514912E+02  0.46408766123E+03  0.45919389011E+03 0.  0.
         13    1    3    3    0    0 -0.10390226368E+02 -0.21118828189E+03 -0.65577175310E+02  0.22137934215E+03  0.00000000000E+00 0.  1.
          1    1    3    3  501    0  0.46253507934E+02  0.23776715189E+03  0.15320660398E+02  0.24270831908E+03  0.00000000000E+00 0.  1.
         21    1    1    2  502  501 -0.35863281566E+02 -0.26578870001E+02  0.10114385845E+02  0.45770209703E+02  0.00000000000E+00 0.  1.
<scales pt_clust_4="550.00000" pt_clust_5="550.00000" pt_clust_6="44.63867"></scales>
<mgrwt>
<rscale>  0 0.30000000E+03</rscale>
<asrwt>  1 0.44638675E+02</asrwt>
<pdfrwt beam="1">  1        1 0.85402862E+00 0.30000000E+03</pdfrwt>
<pdfrwt beam="2">0</pdfrwt>
<totfact> 0.35621697E-04</totfact>
</mgrwt>
<clustering>
<clus scale="   44.639">  1  6  2 -1</clus>
<clus scale="  459.194">  4  5 -1 -1</clus>
<clus scale="  300.000">  1  4  2 -1</clus>
</clustering>
</event>
<event>
 6    1  0.9254630E-012  0.3000000E+03  0.7818608E-02  0.1093470E+00
          1   -1    0    0  502    0  0.00000000000E+00  0.00000000000E+00  0.24355054196E+03  0.24355054196E+03  0.00000000000E+00 0.  1.
         13   -1    0    0    0    0 -0.00000000000E+00 -0.00000000000E+00 -0.27500000000E+03  0.27500000000E+03  0.00000000000E+00 0.  1.
    9000005    2    1    2  501    0  0.46333185713E+02 -0.87816597186E+01 -0.52572492311E+02  0.46687787779E+03  0.46150536744E+03 0.  0.
         13    1    3    3    0    0  0.96684676985E+02 -0.19825732028E+03 -0.13006347604E+03  0.25606717792E+03  0.00000000000E+00 0.  1.
          1    1    3    3  501    0 -0.50351491272E+02  0.18947566056E+03  0.77490983730E+02  0.21081069987E+03  0.00000000000E+00 0.  1.
         21    1    1    2  502  501 -0.46333185713E+02  0.87816597186E+01  0.21123034275E+02  0.51672664173E+02  0.00000000000E+00 0. -1.
<scales pt_clust_4="550.00000" pt_clust_5="550.00000" pt_clust_6="47.15805"></scales>
<mgrwt>
<rscale>  0 0.30000000E+03</rscale>
<asrwt>  1 0.47158050E+02</asrwt>
<pdfrwt beam="1">  1        1 0.88563833E+00 0.30000000E+03</pdfrwt>
<pdfrwt beam="2">0</pdfrwt>
<totfact> 0.15753039E-04</totfact>
</mgrwt>
<clustering>
<clus scale="   47.158">  1  6  2 -1</clus>
<clus scale="  461.505">  4  5 -1 -1</clus>
<clus scale="  300.000">  1  4  2 -1</clus>
</clustering>
</event>
<event>
 6    1  0.9254630E-012  0.3000000E+03  0.7818608E-02  0.1093470E+00
          1   -1    0    0  502    0  0.00000000000E+00  0.00000000000E+00  0.24617486720E+03  0.24617486720E+03  0.00000000000E+00 0.  1.
         13   -1    0    0    0    0 -0.00000000000E+00 -0.00000000000E+00 -0.27500000000E+03  0.27500000000E+03  0.00000000000E+00 0.  1.
    9000005    2    1    2  501    0  0.83442438498E+01 -0.49524485149E+02 -0.44773354884E+02  0.46848096981E+03  0.46362427107E+03 0.  0.
         13    1    3    3    0    0 -0.34721656274E+02 -0.23596552745E+03 -0.11482950122E+03  0.26470953498E+03  0.00000000000E+00 0.  1.
          3    1    3    3  501    0  0.43065900124E+02  0.18644104231E+03  0.70056146337E+02  0.20377143482E+03  0.00000000000E+00 0.  1.
         21    1    1    2  502  501 -0.83442438498E+01  0.49524485149E+02  0.15948222081E+02  0.52693897390E+02  0.00000000000E+00 0.  1.
<scales pt_clust_4="550.00000" pt_clust_5="550.00000" pt_clust_6="50.22252"></scales>
<mgrwt>
<rscale>  0 0.30000000E+03</rscale>
<asrwt>  1 0.50222515E+02</asrwt>
<pdfrwt beam="1">  1        1 0.89518134E+00 0.30000000E+03</pdfrwt>
<pdfrwt beam="2">0</pdfrwt>
<totfact> 0.11756314E-04</totfact>
</mgrwt>
<clustering>
<clus scale="   50.223">  1  6  2 -1</clus>
<clus scale="  463.624">  4  5 -1 -1</clus>
<clus scale="  300.000">  1  4  2 -1</clus>
</clustering>
</event>
<event>
 6    1  0.9254630E-012  0.3000000E+03  0.7818608E-02  0.1093470E+00
          1   -1    0    0  502    0  0.00000000000E+00  0.00000000000E+00  0.24253804750E+03  0.24253804750E+03  0.00000000000E+00 0.  1.
         13   -1    0    0    0    0 -0.00000000000E+00 -0.00000000000E+00 -0.27500000000E+03  0.27500000000E+03  0.00000000000E+00 0.  1.
    9000005    2    1    2  501    0  0.13311976734E+02  0.26937496470E+02 -0.59475014324E+02  0.47713330830E+03  0.47245748922E+03 0.  0.
         13    1    3    3    0    0 -0.15600522906E+03  0.15779653399E+03 -0.12326810404E+03  0.25383538584E+03  0.00000000000E+00 0.  1.
          1    1    3    3  501    0  0.16931720579E+03 -0.13085903752E+03  0.63793089714E+02  0.22329792246E+03  0.00000000000E+00 0.  1.
         21    1    1    2  502  501 -0.13311976734E+02 -0.26937496470E+02  0.27013061819E+02  0.40404739196E+02  0.00000000000E+00 0. -1.
<scales pt_clust_4="550.00000" pt_clust_5="550.00000" pt_clust_6="30.04725"></scales>
<mgrwt>
<rscale>  0 0.30000000E+03</rscale>
<asrwt>  1 0.30047253E+02</asrwt>
<pdfrwt beam="1">  1        1 0.88195654E+00 0.30000000E+03</pdfrwt>
<pdfrwt beam="2">0</pdfrwt>
<totfact> 0.19189324E-04</totfact>
</mgrwt>
<clustering>
<clus scale="   30.047">  1  6  2 -1</clus>
<clus scale="  472.457">  4  5 -1 -1</clus>
<clus scale="  300.000">  1  4  2 -1</clus>
</clustering>
</event>
<event>
 6    1  0.9254630E-012  0.3000000E+03  0.7818608E-02  0.1093470E+00
          1   -1    0    0  502    0  0.00000000000E+00  0.00000000000E+00  0.24526959468E+03  0.24526959468E+03  0.00000000000E+00 0.  1.
         13   -1    0    0    0    0 -0.00000000000E+00 -0.00000000000E+00 -0.27500000000E+03  0.27500000000E+03  0.00000000000E+00 0.  1.
    9000005    2    1    2  501    0  0.21451888329E+02  0.26168399614E+02 -0.33730356170E+02  0.48619661040E+03  0.48384340275E+03 0.  0.
         13    1    3    3    0    0  0.19493301387E+03  0.16976013148E+03 -0.36009730863E+02  0.26098674843E+03  0.00000000000E+00 0.  1.
          3    1    3    3  501    0 -0.17348112554E+03 -0.14359173187E+03  0.22793746927E+01  0.22520986197E+03  0.00000000000E+00 0.  1.
         21    1    1    2  502  501 -0.21451888329E+02 -0.26168399614E+02  0.39999508516E+01  0.34072984284E+02  0.00000000000E+00 0.  1.
<scales pt_clust_4="550.00000" pt_clust_5="550.00000" pt_clust_6="33.83739"></scales>
<mgrwt>
<rscale>  0 0.30000000E+03</rscale>
<asrwt>  1 0.33837385E+02</asrwt>
<pdfrwt beam="1">  1        1 0.89188944E+00 0.30000000E+03</pdfrwt>
<pdfrwt beam="2">0</pdfrwt>
<totfact> 0.13795234E-04</totfact>
</mgrwt>
<clustering>
<clus scale="   33.837">  1  6  2 -1</clus>
<clus scale="  483.843">  4  5 -1 -1</clus>
<clus scale="  300.000">  1  4  2 -1</clus>
</clustering>
</event>
<event>
 6    1  0.9254630E-012  0.3000000E+03  0.7818608E-02  0.1093470E+00
          1   -1    0    0  502    0  0.00000000000E+00  0.00000000000E+00  0.23777004041E+03  0.23777004041E+03  0.00000000000E+00 0.  1.
         13   -1    0    0    0    0 -0.00000000000E+00 -0.00000000000E+00 -0.27500000000E+03  0.27500000000E+03  0.00000000000E+00 0.  1.
    9000005    2    1    2  501    0 -0.31831816121E+02 -0.20202620043E+02 -0.68252265460E+01  0.46433598043E+03  0.46275253498E+03 0.  0.
         13    1    3    3    0    0  0.48671754739E+02 -0.20850245898E+03 -0.10357558278E+03  0.23784473183E+03  0.00000000000E+00 0.  1.
          1    1    3    3  501    0 -0.80503570860E+02  0.18829983894E+03  0.96750356231E+02  0.22649124861E+03  0.00000000000E+00 0.  1.
         21    1    1    2  502  501  0.31831816121E+02  0.20202620043E+02 -0.30404733045E+02  0.48434059975E+02  0.00000000000E+00 0. -1.
<scales pt_clust_4="550.00000" pt_clust_5="550.00000" pt_clust_6="37.70162"></scales>
<mgrwt>
<rscale>  0 0.30000000E+03</rscale>
<asrwt>  1 0.37701615E+02</asrwt>
<pdfrwt beam="1">  1        1 0.86461833E+00 0.30000000E+03</pdfrwt>
<pdfrwt beam="2">0</pdfrwt>
<totfact> 0.28446215E-04</totfact>
</mgrwt>
<clustering>
<clus scale="   37.702">  1  6  2 -1</clus>
<clus scale="  462.753">  4  5 -1 -1</clus>
<clus scale="  300.000">  1  4  2 -1</clus>
</clustering>
</event>
<event>
 6    1  0.9254630E-012  0.3000000E+03  0.7818608E-02  0.1093470E+00
          1   -1    0    0  502    0  0.00000000000E+00  0.00000000000E+00  0.23539941261E+03  0.23539941261E+03  0.00000000000E+00 0.  1.
         13   -1    0    0    0    0 -0.00000000000E+00 -0.00000000000E+00 -0.27500000000E+03  0.27500000000E+03  0.00000000000E+00 0.  1.
    9000005    2    1    2  501    0 -0.98132668533E+01  0.28426748313E+02 -0.54004199106E+02  0.47705508391E+03  0.47303352877E+03 0.  0.
         13    1    3    3    0    0 -0.90832235978E+02  0.15345090862E+03 -0.20035517817E+03  0.26821609547E+03  0.00000000000E+00 0.  1.
          1    1    3    3  501    0  0.81018969124E+02 -0.12502416031E+03  0.14635097907E+03  0.20883898844E+03  0.00000000000E+00 0.  1.
         21    1    1    2  502  501  0.98132668533E+01 -0.28426748313E+02  0.14403611718E+02  0.33344328701E+02  0.00000000000E+00 0. -1.
<scales pt_clust_4="550.00000" pt_clust_5="550.00000" pt_clust_6="30.07292"></scales>
<mgrwt>
<rscale>  0 0.30000000E+03</rscale>
<asrwt>  1 0.30072915E+02</asrwt>
<pdfrwt beam="1">  1        1 0.85599786E+00 0.30000000E+03</pdfrwt>
<pdfrwt beam="2">0</pdfrwt>
<totfact> 0.36645001E-04</totfact>
</mgrwt>
<clustering>
<clus scale="   30.073">  1  6  2 -1</clus>
<clus scale="  473.034">  4  5 -1 -1</clus>
<clus scale="  300.000">  1  4  2 -1</clus>
</clustering>
</event>
<event>
 6    1  0.9254630E-012  0.3000000E+03  0.7818608E-02  0.1093470E+00
          1   -1    0    0  502    0  0.00000000000E+00  0.00000000000E+00  0.22677377569E+03  0.22677377569E+03  0.00000000000E+00 0.  1.
         13   -1    0    0    0    0 -0.00000000000E+00 -0.00000000000E+00 -0.27500000000E+03  0.27500000000E+03  0.00000000000E+00 0.  1.
    9000005    2    1    2  501    0 -0.30208895268E+01 -0.39526258732E+02 -0.47916787796E+02  0.46213103797E+03  0.45792753444E+03 0.  0.
         13    1    3    3    0    0  0.14587427256E+03  0.10500804578E+03  0.10150732249E+03  0.20642124307E+03  0.00000000000E+00 0.  1.
          1    1    3    3  501    0 -0.14889516208E+03 -0.14453430451E+03 -0.14942411028E+03  0.25570979490E+03  0.00000000000E+00 0.  1.
         21    1    1    2  502  501  0.30208895268E+01  0.39526258732E+02 -0.30943651531E+00  0.39642737718E+02  0.00000000000E+00 0.  1.
<scales pt_clust_4="550.00000" pt_clust_5="550.00000" pt_clust_6="39.64153"></scales>
<mgrwt>
<rscale>  0 0.30000000E+03</rscale>
<asrwt>  1 0.39641530E+02</asrwt>
<pdfrwt beam="1">  1        1 0.82463191E+00 0.30000000E+03</pdfrwt>
<pdfrwt beam="2">0</pdfrwt>
<totfact> 0.64315291E-04</totfact>
</mgrwt>
<clustering>
<clus scale="   39.642">  1  6  2 -1</clus>
<clus scale="  457.928">  4  5 -1 -1</clus>
<clus scale="  300.000">  1  4  2 -1</clus>
</clustering>
</event>
<event>
 6    1  0.9254630E-012  0.3000000E+03  0.7818608E-02  0.1093470E+00
          1   -1    0    0  502    0  0.00000000000E+00  0.00000000000E+00  0.22540104124E+03  0.22540104124E+03  0.00000000000E+00 0.  1.
         13   -1    0    0    0    0 -0.00000000000E+00 -0.00000000000E+00 -0.27500000000E+03  0.27500000000E+03  0.00000000000E+00 0.  1.
    9000005    2    1    2  501    0 -0.19382463139E+02  0.23794327852E+02 -0.59636261961E+02  0.46811176484E+03  0.46328208548E+03 0.  0.
         13    1    3    3    0    0  0.13093700436E+03  0.14764625491E+03 -0.15529561437E+03  0.25111878373E+03  0.00000000000E+00 0.  1.
          3    1    3    3  501    0 -0.15031946750E+03 -0.12385192706E+03  0.95659352409E+02  0.21699298110E+03  0.00000000000E+00 0.  1.
         21    1    1    2  502  501  0.19382463139E+02 -0.23794327852E+02  0.10037303205E+02  0.32289276407E+02  0.00000000000E+00 0.  1.
<scales pt_clust_4="550.00000" pt_clust_5="550.00000" pt_clust_6="30.68957"></scales>
<mgrwt>
<rscale>  0 0.30000000E+03</rscale>
<asrwt>  1 0.30689573E+02</asrwt>
<pdfrwt beam="1">  1        1 0.81964015E+00 0.30000000E+03</pdfrwt>
<pdfrwt beam="2">0</pdfrwt>
<totfact> 0.74684115E-04</totfact>
</mgrwt>
<clustering>
<clus scale="   30.690">  1  6  2 -1</clus>
<clus scale="  463.282">  4  5 -1 -1</clus>
<clus scale="  300.000">  1  4  2 -1</clus>
</clustering>
</event>
<event>
 6    1  0.9254630E-012  0.3000000E+03  0.7818608E-02  0.1093470E+00
          1   -1    0    0  502    0  0.00000000000E+00  0.00000000000E+00  0.22819611610E+03  0.22819611610E+03  0.00000000000E+00 0.  1.
         13   -1    0    0    0    0 -0.00000000000E+00 -0.00000000000E+00 -0.27500000000E+03  0.27500000000E+03  0.00000000000E+00 0.  1.
    9000005    2    1    2  501    0  0.27153860506E+00 -0.38704946464E+02 -0.52752513131E+02  0.46403576876E+03  0.45939984810E+03 0.  0.
         13    1    3    3    0    0  0.92776308589E+02 -0.13470094764E+03 -0.20461998427E+03  0.26195634501E+03  0.00000000000E+00 0.  1.
          1    1    3    3  501    0 -0.92504769984E+02  0.95996001172E+02  0.15186747114E+03  0.20207942374E+03  0.00000000000E+00 0.  1.
         21    1    1    2  502  501 -0.27153860506E+00  0.38704946464E+02  0.59486292267E+01  0.39160347338E+02  0.00000000000E+00 0. -1.
<scales pt_clust_4="550.00000" pt_clust_5="550.00000" pt_clust_6="38.70590"></scales>
<mgrwt>
<rscale>  0 0.30000000E+03</rscale>
<asrwt>  1 0.38705899E+02</asrwt>
<pdfrwt beam="1">  1        1 0.82980406E+00 0.30000000E+03</pdfrwt>
<pdfrwt beam="2">0</pdfrwt>
<totfact> 0.58225986E-04</totfact>
</mgrwt>
<clustering>
<clus scale="   38.706">  1  6  2 -1</clus>
<clus scale="  459.400">  4  5 -1 -1</clus>
<clus scale="  300.000">  1  4  2 -1</clus>
</clustering>
</event>
<event>
 6    1  0.9254630E-012  0.3000000E+03  0.7818608E-02  0.1093470E+00
          1   -1    0    0  502    0  0.00000000000E+00  0.00000000000E+00  0.22854897137E+03  0.22854897137E+03  0.00000000000E+00 0.  1.
         13   -1    0    0    0    0 -0.00000000000E+00 -0.00000000000E+00 -0.27500000000E+03  0.27500000000E+03  0.00000000000E+00 0.  1.
    9000005    2    1    2  501    0 -0.70333772635E+01 -0.30163175807E+02 -0.51728489458E+02  0.47213023232E+03  0.46826470514E+03 0.  0.
         13    1    3    3    0    0 -0.86121560352E+02  0.86245661041E+01  0.19327635955E+03  0.21177123850E+03  0.00000000000E+00 0.  1.
          3    1    3    3  501    0  0.79088183088E+02 -0.38787741911E+02 -0.24500484900E+03  0.26035899382E+03  0.00000000000E+00 0.  1.
         21    1    1    2  502  501  0.70333772635E+01  0.30163175807E+02  0.52774608236E+01  0.31418739046E+02  0.00000000000E+00 0. -1.
<scales pt_clust_4="550.00000" pt_clust_5="550.00000" pt_clust_6="30.97234"></scales>
<mgrwt>
<rscale>  0 0.30000000E+03</rscale>
<asrwt>  1 0.30972336E+02</asrwt>
<pdfrwt beam="1">  1        1 0.83108717E+00 0.30000000E+03</pdfrwt>
<pdfrwt beam="2">0</pdfrwt>
<totfact> 0.59270261E-04</totfact>
</mgrwt>
<clustering>
<clus scale="   30.972">  1  6  2 -1</clus>
<clus scale="  468.265">  4  5 -1 -1</clus>
<clus scale="  300.000">  1  4  2 -1</clus>
</clustering>
</event>
<event>
 6    1  0.9254630E-012  0.3000000E+03  0.7818608E-02  0.1093470E+00
          1   -1    0    0  502    0  0.00000000000E+00  0.00000000000E+00  0.22671362661E+03  0.22671362661E+03  0.00000000000E+00 0.  1.
         13   -1    0    0    0    0 -0.00000000000E+00 -0.00000000000E+00 -0.27500000000E+03  0.27500000000E+03  0.00000000000E+00 0.  1.
    9000005    2    1    2  501    0 -0.29147755574E+02  0.15701395121E+02 -0.62260690415E+02  0.46577747490E+03  0.46040866313E+03 0.  0.
         13    1    3    3    0    0 -0.67657485531E+02 -0.76783589115E+02 -0.24046901160E+03  0.26134000927E+03  0.00000000000E+00 0.  1.
          3    1    3    3  501    0  0.38509729957E+02  0.92484984236E+02  0.17820832119E+03  0.20443746562E+03  0.00000000000E+00 0.  1.
         21    1    1    2  502  501  0.29147755574E+02 -0.15701395121E+02  0.13974317030E+02  0.35936151717E+02  0.00000000000E+00 0.  1.
<scales pt_clust_4="550.00000" pt_clust_5="550.00000" pt_clust_6="33.10779"></scales>
<mgrwt>
<rscale>  0 0.30000000E+03</rscale>
<asrwt>  1 0.33107786E+02</asrwt>
<pdfrwt beam="1">  1        1 0.82441319E+00 0.30000000E+03</pdfrwt>
<pdfrwt beam="2">0</pdfrwt>
<totfact> 0.66804680E-04</totfact>
</mgrwt>
<clustering>
<clus scale="   33.108">  1  6  2 -1</clus>
<clus scale="  460.409">  4  5 -1 -1</clus>
<clus scale="  300.000">  1  4  2 -1</clus>
</clustering>
</event>
<event>
 6    1  0.9254630E-012  0.3000000E+03  0.7818608E-02  0.1093470E+00
          1   -1    0    0  502    0  0.00000000000E+00  0.00000000000E+00  0.22532851221E+03  0.22532851221E+03  0.00000000000E+00 0.  1.
         13   -1    0    0    0    0 -0.00000000000E+00 -0.00000000000E+00 -0.27500000000E+03  0.27500000000E+03  0.00000000000E+00 0.  1.
    9000005    2    1    2  501    0  0.11008716166E+02  0.28205694286E+02 -0.41779116521E+02  0.46903885664E+03  0.46619223657E+03 0.  0.
         13    1    3    3    0    0 -0.20191684380E+03 -0.90354305884E+02  0.30997083991E+01  0.22123272948E+03  0.00000000000E+00 0.  1.
          1    1    3    3  501    0  0.21292555997E+03  0.11856000017E+03 -0.44878824920E+02  0.24780612715E+03  0.00000000000E+00 0.  1.
         21    1    1    2  502  501 -0.11008716166E+02 -0.28205694286E+02 -0.78923712668E+01  0.31289655575E+02  0.00000000000E+00 0.  1.
<scales pt_clust_4="550.00000" pt_clust_5="550.00000" pt_clust_6="30.27794"></scales>
<mgrwt>
<rscale>  0 0.30000000E+03</rscale>
<asrwt>  1 0.30277945E+02</asrwt>
<pdfrwt beam="1">  1        1 0.81937641E+00 0.30000000E+03</pdfrwt>
<pdfrwt beam="2">0</pdfrwt>
<totfact> 0.75269859E-04</totfact>
</mgrwt>
<clustering>
<clus scale="   30.278">  1  6  2 -1</clus>
<clus scale="  466.192">  4  5 -1 -1</clus>
<clus scale="  300.000">  1  4  2 -1</clus>
</clustering>
</event>
<event>
 6    1  0.9254630E-012  0.3000000E+03  0.7818608E-02  0.1093470E+00
          1   -1    0    0  502    0  0.00000000000E+00  0.00000000000E+00  0.24694094340E+03  0.24694094340E+03  0.00000000000E+00 0.  1.
         13   -1    0    0    0    0 -0.00000000000E+00 -0.00000000000E+00 -0.27500000000E+03  0.27500000000E+03  0.00000000000E+00 0.  1.
    9000005    2    1    2  501    0  0.30953965684E+02  0.64799226298E+00 -0.63080632609E+02  0.47519611832E+03  0.46997193190E+03 0.  0.
         13    1    3    3    0    0  0.46103941719E+02 -0.61764759910E+02 -0.25836782588E+03  0.26961897644E+03  0.00000000000E+00 0.  1.
          3    1    3    3  501    0 -0.15149976035E+02  0.62412752173E+02  0.19528719327E+03  0.20557714188E+03  0.00000000000E+00 0.  1.
         21    1    1    2  502  501 -0.30953965684E+02 -0.64799226298E+00  0.35021576014E+02  0.46744825083E+02  0.00000000000E+00 0.  1.
<scales pt_clust_4="550.00000" pt_clust_5="550.00000" pt_clust_6="30.96075"></scales>
<mgrwt>
<rscale>  0 0.30000000E+03</rscale>
<asrwt>  1 0.30960747E+02</asrwt>
<pdfrwt beam="1">  1        1 0.89796707E+00 0.30000000E+03</pdfrwt>
<pdfrwt beam="2">0</pdfrwt>
<totfact> 0.11953016E-04</totfact>
</mgrwt>
<clustering>
<clus scale="   30.961">  1  6  2 -1</clus>
<clus scale="  469.972">  4  5 -1 -1</clus>
<clus scale="  300.000">  1  4  2 -1</clus>
</clustering>
</event>
<event>
 6    1  0.9254630E-012  0.3000000E+03  0.7818608E-02  0.1093470E+00
          1   -1    0    0  502    0  0.00000000000E+00  0.00000000000E+00  0.23591658740E+03  0.23591658740E+03  0.00000000000E+00 0.  1.
         13   -1    0    0    0    0 -0.00000000000E+00 -0.00000000000E+00 -0.27500000000E+03  0.27500000000E+03  0.00000000000E+00 0.  1.
    9000005    2    1    2  501    0 -0.27206587399E+02 -0.22885971386E+02 -0.47246471823E+02  0.47443917493E+03  0.47074019961E+03 0.  0.
         13    1    3    3    0    0  0.31905985441E+02 -0.30722054141E+02  0.20782392292E+03  0.21249145737E+03  0.00000000000E+00 0.  1.
          3    1    3    3  501    0 -0.59112572840E+02  0.78360827544E+01 -0.25507039474E+03  0.26194771756E+03  0.00000000000E+00 0.  1.
         21    1    1    2  502  501  0.27206587399E+02  0.22885971386E+02  0.81630592187E+01  0.36477412463E+02  0.00000000000E+00 0. -1.
<scales pt_clust_4="550.00000" pt_clust_5="550.00000" pt_clust_6="35.55230"></scales>
<mgrwt>
<rscale>  0 0.30000000E+03</rscale>
<asrwt>  1 0.35552301E+02</asrwt>
<pdfrwt beam="1">  1        1 0.85787850E+00 0.30000000E+03</pdfrwt>
<pdfrwt beam="2">0</pdfrwt>
<totfact> 0.33957643E-04</totfact>
</mgrwt>
<clustering>
<clus scale="   35.552">  1  6  2 -1</clus>
<clus scale="  470.740">  4  5 -1 -1</clus>
<clus scale="  300.000">  1  4  2 -1</clus>
</clustering>
</event>
<event>
 6    1  0.9254630E-012  0.3000000E+03  0.7818608E-02  0.1093470E+00
          1   -1    0    0  502    0  0.00000000000E+00  0.00000000000E+00  0.24255113417E+03  0.24255113417E+03  0.00000000000E+00 0.  1.
         13   -1    0    0    0    0 -0.00000000000E+00 -0.00000000000E+00 -0.27500000000E+03  0.27500000000E+03  0.00000000000E+00 0.  1.
    9000005    2    1    2  501    0  0.30275821227E+02  0.91442859729E+01 -0.71809180357E+02  0.46705878151E+03  0.46042057262E+03 0.  0.
         13    1    3    3    0    0 -0.34043944703E+02  0.18611185406E+03  0.98380653839E+02  0.21324953797E+03  0.00000000000E+00 0.  1.
          1    1    3    3  501    0  0.64319765930E+02 -0.17696756809E+03 -0.17018983420E+03  0.25380924355E+03  0.00000000000E+00 0.  1.
         21    1    1    2  502  501 -0.30275821227E+02 -0.91442859729E+01  0.39360314525E+02  0.50492352653E+02  0.00000000000E+00 0.  1.
<scales pt_clust_4="550.00000" pt_clust_5="550.00000" pt_clust_6="31.62662"></scales>
<mgrwt>
<rscale>  0 0.30000000E+03</rscale>
<asrwt>  1 0.31626624E+02</asrwt>
<pdfrwt beam="1">  1        1 0.88200412E+00 0.30000000E+03</pdfrwt>
<pdfrwt beam="2">0</pdfrwt>
<totfact> 0.18974767E-04</totfact>
</mgrwt>
<clustering>
<clus scale="   31.627">  1  6  2 -1</clus>
<clus scale="  460.421">  4  5 -1 -1</clus>
<clus scale="  300.000">  1  4  2 -1</clus>
</clustering>
</event>
<event>
 6    1  0.9254630E-012  0.3000000E+03  0.7818608E-02  0.1093470E+00
          1   -1    0    0  502    0  0.00000000000E+00  0.00000000000E+00  0.23677088853E+03  0.23677088853E+03  0.00000000000E+00 0.  1.
         13   -1    0    0    0    0 -0.00000000000E+00 -0.00000000000E+00 -0.27500000000E+03  0.27500000000E+03  0.00000000000E+00 0.  1.
    9000005    2    1    2  501    0  0.17961171544E+02 -0.32547729078E+02 -0.55078372452E+02  0.47095598994E+03  0.46624452704E+03 0.  0.
         13    1    3    3    0    0  0.23159248286E+03  0.21313645510E+02  0.30580784241E+02  0.23457308875E+03  0.00000000000E+00 0.  1.
          1    1    3    3  501    0 -0.21363131132E+03 -0.53861374588E+02 -0.85659156693E+02  0.23638290119E+03  0.00000000000E+00 0.  1.
         21    1    1    2  502  501 -0.17961171544E+02  0.32547729078E+02  0.16849260981E+02  0.40814898591E+02  0.00000000000E+00 0.  1.
<scales pt_clust_4="550.00000" pt_clust_5="550.00000" pt_clust_6="37.17470"></scales>
<mgrwt>
<rscale>  0 0.30000000E+03</rscale>
<asrwt>  1 0.37174700E+02</asrwt>
<pdfrwt beam="1">  1        1 0.86098505E+00 0.30000000E+03</pdfrwt>
<pdfrwt beam="2">0</pdfrwt>
<totfact> 0.31217950E-04</totfact>
</mgrwt>
<clustering>
<clus scale="   37.175">  1  6  2 -1</clus>
<clus scale="  466.245">  4  5 -1 -1</clus>
<clus scale="  300.000">  1  4  2 -1</clus>
</clustering>
</event>
<event>
 6    1  0.9254630E-012  0.3000000E+03  0.7818608E-02  0.1093470E+00
          1   -1    0    0  502    0  0.00000000000E+00  0.00000000000E+00  0.24459889476E+03  0.24459889476E+03  0.00000000000E+00 0.  1.
         13   -1    0    0    0    0 -0.00000000000E+00 -0.00000000000E+00 -0.27500000000E+03  0.27500000000E+03  0.00000000000E+00 0.  1.
    9000005    2    1    2  501    0 -0.29935286659E+02 -0.88872065937E+01 -0.36013338560E+02  0.48787191900E+03  0.48553778943E+03 0.  0.
         13    1    3    3    0    0 -0.24671603640E+03 -0.78423509093E+02 -0.18904807666E+02  0.25956972310E+03  0.00000000000E+00 0.  1.
          1    1    3    3  501    0  0.21678074974E+03  0.69536302499E+02 -0.17108530895E+02  0.22830219590E+03  0.00000000000E+00 0.  1.
         21    1    1    2  502  501  0.29935286659E+02  0.88872065937E+01  0.56122333221E+01  0.31726975766E+02  0.00000000000E+00 0. -1.
<scales pt_clust_4="550.00000" pt_clust_5="550.00000" pt_clust_6="31.22665"></scales>
<mgrwt>
<rscale>  0 0.30000000E+03</rscale>
<asrwt>  1 0.31226653E+02</asrwt>
<pdfrwt beam="1">  1        1 0.88945053E+00 0.30000000E+03</pdfrwt>
<pdfrwt beam="2">0</pdfrwt>
<totfact> 0.15064588E-04</totfact>
</mgrwt>
<clustering>
<clus scale="   31.227">  1  6  2 -1</clus>
<clus scale="  485.538">  4  5 -1 -1</clus>
<clus scale="  300.000">  1  4  2 -1</clus>
</clustering>
</event>
<event>
 6    1  0.9254630E-012  0.3000000E+03  0.7818608E-02  0.1093470E+00
          1   -1    0    0  502    0  0.00000000000E+00  0.00000000000E+00  0.24188413024E+03  0.24188413024E+03  0.00000000000E+00 0.  1.
         13   -1    0    0    0    0 -0.00000000000E+00 -0.00000000000E+00 -0.27500000000E+03  0.27500000000E+03  0.00000000000E+00 0.  1.
    9000005    2    1    2  501    0  0.37673573083E+02  0.21735957282E+02 -0.34546132949E+02  0.47336636834E+03  0.47009630229E+03 0.  0.
         13    1    3    3    0    0 -0.54907122413E+02  0.12817169132E+03 -0.20761247047E+03  0.25009140817E+03  0.00000000000E+00 0.  1.
          1    1    3    3  501    0  0.92580695495E+02 -0.10643573404E+03  0.17306633752E+03  0.22327496017E+03  0.00000000000E+00 0.  1.
         21    1    1    2  502  501 -0.37673573083E+02 -0.21735957282E+02  0.14302631911E+01  0.43517761897E+02  0.00000000000E+00 0.  1.
<scales pt_clust_4="550.00000" pt_clust_5="550.00000" pt_clust_6="43.49425"></scales>
<mgrwt>
<rscale>  0 0.30000000E+03</rscale>
<asrwt>  1 0.43494252E+02</asrwt>
<pdfrwt beam="1">  1        1 0.87957866E+00 0.30000000E+03</pdfrwt>
<pdfrwt beam="2">0</pdfrwt>
<totfact> 0.19193459E-04</totfact>
</mgrwt>
<clustering>
<clus scale="   43.494">  1  6  2 -1</clus>
<clus scale="  470.096">  4  5 -1 -1</clus>
<clus scale="  300.000">  1  4  2 -1</clus>
</clustering>
</event>
<event>
 6    1  0.9254630E-012  0.3000000E+03  0.7818608E-02  0.1093470E+00
          1   -1    0    0  502    0  0.00000000000E+00  0.00000000000E+00  0.22952833032E+03  0.22952833032E+03  0.00000000000E+00 0.  1.
         13   -1    0    0    0    0 -0.00000000000E+00 -0.00000000000E+00 -0.27500000000E+03  0.27500000000E+03  0.00000000000E+00 0.  1.
    9000005    2    1    2  501    0  0.78593728124E+01 -0.35262231818E+02 -0.49750907605E+02  0.46814829993E+03  0.46409318373E+03 0.  0.
         13    1    3    3    0    0 -0.20863855460E+03 -0.90541869408E+02 -0.83274706084E+02  0.24220353683E+03  0.00000000000E+00 0.  1.
          3    1    3    3  501    0  0.21649792741E+03  0.55279637591E+02  0.33523798479E+02  0.22594476310E+03  0.00000000000E+00 0.  1.
         21    1    1    2  502  501 -0.78593728124E+01  0.35262231818E+02  0.42792379217E+01  0.36380030387E+02  0.00000000000E+00 0. -1.
<scales pt_clust_4="550.00000" pt_clust_5="550.00000" pt_clust_6="36.12748"></scales>
<mgrwt>
<rscale>  0 0.30000000E+03</rscale>
<asrwt>  1 0.36127479E+02</asrwt>
<pdfrwt beam="1">  1        1 0.83464847E+00 0.30000000E+03</pdfrwt>
<pdfrwt beam="2">0</pdfrwt>
<totfact> 0.54099376E-04</totfact>
</mgrwt>
<clustering>
<clus scale="   36.127">  1  6  2 -1</clus>
<clus scale="  464.093">  4  5 -1 -1</clus>
<clus scale="  300.000">  1  4  2 -1</clus>
</clustering>
</event>
<event>
 6    1  0.9254630E-012  0.3000000E+03  0.7818608E-02  0.1093470E+00
          1   -1    0    0  502    0  0.00000000000E+00  0.00000000000E+00  0.21856698675E+03  0.21856698675E+03  0.00000000000E+00 0.  1.
         13   -1    0    0    0    0 -0.00000000000E+00 -0.00000000000E+00 -0.27500000000E+03  0.27500000000E+03  0.00000000000E+00 0.  1.
    9000005    2    1    2  501    0 -0.17480722269E+02 -0.24995491636E+02 -0.64439990139E+02  0.46203189626E+03  0.45649820436E+03 0.  0.
         13    1    3    3    0    0 -0.58670330558E+02 -0.22787220066E+03  0.24786511371E+02  0.23660582974E+03  0.00000000000E+00 0.  1.
          1    1    3    3  501    0  0.41189608289E+02  0.20287670902E+03 -0.89226501510E+02  0.22542606652E+03  0.00000000000E+00 0.  1.
         21    1    1    2  502  501  0.17480722269E+02  0.24995491636E+02  0.80069768909E+01  0.31535090488E+02  0.00000000000E+00 0.  1.
<scales pt_clust_4="550.00000" pt_clust_5="550.00000" pt_clust_6="30.50164"></scales>
<mgrwt>
<rscale>  0 0.30000000E+03</rscale>
<asrwt>  1 0.30501643E+02</asrwt>
<pdfrwt beam="1">  1        1 0.79478904E+00 0.30000000E+03</pdfrwt>
<pdfrwt beam="2">0</pdfrwt>
<totfact> 0.11621067E-03</totfact>
</mgrwt>
<clustering>
<clus scale="   30.502">  1  6  2 -1</clus>
<clus scale="  456.498">  4  5 -1 -1</clus>
<clus scale="  300.000">  1  4  2 -1</clus>
</clustering>
</event>
<event>
 6    1  0.9254630E-012  0.3000000E+03  0.7818608E-02  0.1093470E+00
          1   -1    0    0  502    0  0.00000000000E+00  0.00000000000E+00  0.25518087635E+03  0.25518087635E+03  0.00000000000E+00 0.  1.
         13   -1    0    0    0    0 -0.00000000000E+00 -0.00000000000E+00 -0.27500000000E+03  0.27500000000E+03  0.00000000000E+00 0.  1.
    9000005    2    1    2  501    0 -0.36411727044E+02 -0.13762836892E+02 -0.19616026264E+02  0.49125439701E+03  0.48931673234E+03 0.  0.
         13    1    3    3    0    0 -0.22213778425E+03 -0.13108494277E+03 -0.67070681059E+02  0.26650878723E+03  0.00000000000E+00 0.  1.
          1    1    3    3  501    0  0.18572605721E+03  0.11732210588E+03  0.47454654795E+02  0.22474560978E+03  0.00000000000E+00 0.  1.
         21    1    1    2  502  501  0.36411727044E+02  0.13762836892E+02 -0.20309738207E+00  0.38926479345E+02  0.00000000000E+00 0.  1.
<scales pt_clust_4="550.00000" pt_clust_5="550.00000" pt_clust_6="38.92595"></scales>
<mgrwt>
<rscale>  0 0.30000000E+03</rscale>
<asrwt>  1 0.38925950E+02</asrwt>
<pdfrwt beam="1">  1        1 0.92793046E+00 0.30000000E+03</pdfrwt>
<pdfrwt beam="2">0</pdfrwt>
<totfact> 0.28020059E-05</totfact>
</mgrwt>
<clustering>
<clus scale="   38.926">  1  6  2 -1</clus>
<clus scale="  489.317">  4  5 -1 -1</clus>
<clus scale="  300.000">  1  4  2 -1</clus>
</clustering>
</event>
<event>
 6    1  0.9254630E-012  0.3000000E+03  0.7818608E-02  0.1093470E+00
          1   -1    0    0  502    0  0.00000000000E+00  0.00000000000E+00  0.24241639317E+03  0.24241639317E+03  0.00000000000E+00 0.  1.
         13   -1    0    0    0    0 -0.00000000000E+00 -0.00000000000E+00 -0.27500000000E+03  0.27500000000E+03  0.00000000000E+00 0.  1.
    9000005    2    1    2  501    0 -0.10621569425E+02 -0.35581030949E+02 -0.60631786567E+02  0.47088116042E+03  0.46548257346E+03 0.  0.
         13    1    3    3    0    0  0.81458400171E+01 -0.42192858375E+02 -0.26352949801E+03  0.26701009031E+03  0.00000000000E+00 0.  1.
          3    1    3    3  501    0 -0.18767409442E+02  0.66118274265E+01  0.20289771144E+03  0.20387107011E+03  0.00000000000E+00 0.  1.
         21    1    1    2  502  501  0.10621569425E+02  0.35581030949E+02  0.28048179738E+02  0.46535232750E+02  0.00000000000E+00 0.  1.
<scales pt_clust_4="550.00000" pt_clust_5="550.00000" pt_clust_6="37.13257"></scales>
<mgrwt>
<rscale>  0 0.30000000E+03</rscale>
<asrwt>  1 0.37132567E+02</asrwt>
<pdfrwt beam="1">  1        1 0.88151416E+00 0.30000000E+03</pdfrwt>
<pdfrwt beam="2">0</pdfrwt>
<totfact> 0.18682380E-04</totfact>
</mgrwt>
<clustering>
<clus scale="   37.133">  1  6  2 -1</clus>
<clus scale="  465.483">  4  5 -1 -1</clus>
<clus scale="  300.000">  1  4  2 -1</clus>
</clustering>
</event>
<event>
 6    1  0.9254630E-012  0.3000000E+03  0.7818608E-02  0.1093470E+00
          1   -1    0    0  502    0  0.00000000000E+00  0.00000000000E+00  0.23958792124E+03  0.23958792124E+03  0.00000000000E+00 0.  1.
         13   -1    0    0    0    0 -0.00000000000E+00 -0.00000000000E+00 -0.27500000000E+03  0.27500000000E+03  0.00000000000E+00 0.  1.
    9000005    2    1    2  501    0  0.13101943808E+02  0.27058661796E+02 -0.53541904638E+02  0.47948061863E+03  0.47553243421E+03 0.  0.
         13    1    3    3    0    0  0.21605109736E+03 -0.34853398088E+02  0.75070959735E+02  0.23136223768E+03  0.00000000000E+00 0.  1.
          1    1    3    3  501    0 -0.20294915355E+03  0.61912059884E+02 -0.12861286437E+03  0.24811838096E+03  0.00000000000E+00 0.  1.
         21    1    1    2  502  501 -0.13101943808E+02 -0.27058661796E+02  0.18129825876E+02  0.35107302603E+02  0.00000000000E+00 0.  1.
<scales pt_clust_4="550.00000" pt_clust_5="550.00000" pt_clust_6="30.06380"></scales>
<mgrwt>
<rscale>  0 0.30000000E+03</rscale>
<asrwt>  1 0.30063801E+02</asrwt>
<pdfrwt beam="1">  1        1 0.87122880E+00 0.30000000E+03</pdfrwt>
<pdfrwt beam="2">0</pdfrwt>
<totfact> 0.25323974E-04</totfact>
</mgrwt>
<clustering>
<clus scale="   30.064">  1  6  2 -1</clus>
<clus scale="  475.532">  4  5 -1 -1</clus>
<clus scale="  300.000">  1  4  2 -1</clus>
</clustering>
</event>
<event>
 6    1  0.9254630E-012  0.3000000E+03  0.7818608E-02  0.1093470E+00
          1   -1    0    0  502    0  0.00000000000E+00  0.00000000000E+00  0.23877021856E+03  0.23877021856E+03  0.00000000000E+00 0.  1.
         13   -1    0    0    0    0 -0.00000000000E+00 -0.00000000000E+00 -0.27500000000E+03  0.27500000000E+03  0.00000000000E+00 0.  1.
    9000005    2    1    2  501    0  0.10150271655E+02  0.30319976364E+02 -0.72506650338E+02  0.46541383120E+03  0.45861802292E+03 0.  0.
         13    1    3    3    0    0  0.14921196771E+03 -0.15374748618E+03 -0.93512258662E+02  0.23376707068E+03  0.00000000000E+00 0.  1.
          1    1    3    3  501    0 -0.13906169606E+03  0.18406746254E+03  0.21005608324E+02  0.23164676052E+03  0.00000000000E+00 0.  1.
         21    1    1    2  502  501 -0.10150271655E+02 -0.30319976364E+02  0.36276868894E+02  0.48356387356E+02  0.00000000000E+00 0. -1.
<scales pt_clust_4="550.00000" pt_clust_5="550.00000" pt_clust_6="31.97388"></scales>
<mgrwt>
<rscale>  0 0.30000000E+03</rscale>
<asrwt>  1 0.31973880E+02</asrwt>
<pdfrwt beam="1">  1        1 0.86825534E+00 0.30000000E+03</pdfrwt>
<pdfrwt beam="2">0</pdfrwt>
<totfact> 0.26847361E-04</totfact>
</mgrwt>
<clustering>
<clus scale="   31.974">  1  6  2 -1</clus>
<clus scale="  458.618">  4  5 -1 -1</clus>
<clus scale="  300.000">  1  4  2 -1</clus>
</clustering>
</event>
<event>
 6    1  0.9254630E-012  0.3000000E+03  0.7818608E-02  0.1093470E+00
          1   -1    0    0  502    0  0.00000000000E+00  0.00000000000E+00  0.21940762230E+03  0.21940762230E+03  0.00000000000E+00 0.  1.
         13   -1    0    0    0    0 -0.00000000000E+00 -0.00000000000E+00 -0.27500000000E+03  0.27500000000E+03  0.00000000000E+00 0.  1.
    9000005    2    1    2  501    0 -0.11436842422E+02  0.28029801208E+02 -0.63846673318E+02  0.46302921386E+03  0.45760592661E+03 0.  0.
         13    1    3    3    0    0 -0.86691177189E+02 -0.15029116172E+03  0.10785752094E+03  0.20429399970E+03  0.00000000000E+00 0.  1.
          3    1    3    3  501    0  0.75254334768E+02  0.17832096292E+03 -0.17170419425E+03  0.25873521415E+03  0.00000000000E+00 0.  1.
         21    1    1    2  502  501  0.11436842422E+02 -0.28029801208E+02  0.82542956200E+01  0.31378408444E+02  0.00000000000E+00 0.  1.
<scales pt_clust_4="550.00000" pt_clust_5="550.00000" pt_clust_6="30.27327"></scales>
<mgrwt>
<rscale>  0 0.30000000E+03</rscale>
<asrwt>  1 0.30273274E+02</asrwt>
<pdfrwt beam="1">  1        1 0.79784590E+00 0.30000000E+03</pdfrwt>
<pdfrwt beam="2">0</pdfrwt>
<totfact> 0.11049494E-03</totfact>
</mgrwt>
<clustering>
<clus scale="   30.273">  1  6  2 -1</clus>
<clus scale="  457.606">  4  5 -1 -1</clus>
<clus scale="  300.000">  1  4  2 -1</clus>
</clustering>
</event>
<event>
 6    1  0.9254630E-012  0.3000000E+03  0.7818608E-02  0.1093470E+00
          1   -1    0    0  502    0  0.00000000000E+00  0.00000000000E+00  0.22912190389E+03  0.22912190389E+03  0.00000000000E+00 0.  1.
         13   -1    0    0    0    0 -0.00000000000E+00 -0.00000000000E+00 -0.27500000000E+03  0.27500000000E+03  0.00000000000E+00 0.  1.
    9000005    2    1    2  501    0  0.34971319764E+02 -0.18454355817E+02 -0.54194683248E+02  0.46371494810E+03  0.45883649914E+03 0.  0.
         13    1    3    3    0    0 -0.30199681628E+02 -0.14045233223E+03 -0.21059419584E+03  0.25492899740E+03  0.00000000000E+00 0.  1.
          3    1    3    3  501    0  0.65171001392E+02  0.12199797641E+03  0.15639951259E+03  0.20878595070E+03  0.00000000000E+00 0.  1.
         21    1    1    2  502  501 -0.34971319764E+02  0.18454355817E+02  0.83165871395E+01  0.40406955791E+02  0.00000000000E+00 0. -1.
<scales pt_clust_4="550.00000" pt_clust_5="550.00000" pt_clust_6="39.54183"></scales>
<mgrwt>
<rscale>  0 0.30000000E+03</rscale>
<asrwt>  1 0.39541832E+02</asrwt>
<pdfrwt beam="1">  1        1 0.83317056E+00 0.30000000E+03</pdfrwt>
<pdfrwt beam="2">0</pdfrwt>
<totfact> 0.54564986E-04</totfact>
</mgrwt>
<clustering>
<clus scale="   39.542">  1  6  2 -1</clus>
<clus scale="  458.836">  4  5 -1 -1</clus>
<clus scale="  300.000">  1  4  2 -1</clus>
</clustering>
</event>
<event>
 6    1  0.9254630E-012  0.3000000E+03  0.7818608E-02  0.1093470E+00
          1   -1    0    0  502    0  0.00000000000E+00  0.00000000000E+00  0.23165890239E+03  0.23165890239E+03  0.00000000000E+00 0.  1.
         13   -1    0    0    0    0 -0.00000000000E+00 -0.00000000000E+00 -0.27500000000E+03  0.27500000000E+03  0.00000000000E+00 0.  1.
    9000005    2    1    2  501    0 -0.27365538722E+01 -0.37147366168E+02 -0.65481736251E+02  0.46332735015E+03  0.45716185326E+03 0.  0.
         13    1    3    3    0    0 -0.94818540557E+02 -0.20259404672E+03  0.65518011648E+02  0.23308263180E+03  0.00000000000E+00 0.  1.
          3    1    3    3  501    0  0.92081986685E+02  0.16544668055E+03 -0.13099974790E+03  0.23024471834E+03  0.00000000000E+00 0.  1.
         21    1    1    2  502  501  0.27365538722E+01  0.37147366168E+02  0.22140638642E+02  0.43331552243E+02  0.00000000000E+00 0.  1.
<scales pt_clust_4="550.00000" pt_clust_5="550.00000" pt_clust_6="37.24803"></scales>
<mgrwt>
<rscale>  0 0.30000000E+03</rscale>
<asrwt>  1 0.37248027E+02</asrwt>
<pdfrwt beam="1">  1        1 0.84239601E+00 0.30000000E+03</pdfrwt>
<pdfrwt beam="2">0</pdfrwt>
<totfact> 0.47007971E-04</totfact>
</mgrwt>
<clustering>
<clus scale="   37.248">  1  6  2 -1</clus>
<clus scale="  457.162">  4  5 -1 -1</clus>
<clus scale="  300.000">  1  4  2 -1</clus>
</clustering>
</event>
<event>
 6    1  0.9254630E-012  0.3000000E+03  0.7818608E-02  0.1093470E+00
          1   -1    0    0  502    0  0.00000000000E+00  0.00000000000E+00  0.23128627154E+03  0.23128627154E+03  0.00000000000E+00 0.  1.
         13   -1    0    0    0    0 -0.00000000000E+00 -0.00000000000E+00 -0.27500000000E+03  0.27500000000E+03  0.00000000000E+00 0.  1.
    9000005    2    1    2  501    0  0.52108729471E+01 -0.43795678097E+02 -0.40283223609E+02  0.46204847118E+03  0.45817118744E+03 0.  0.
         13    1    3    3    0    0  0.15987798072E+03 -0.18922688266E+03 -0.29459308885E+02  0.24947070513E+03  0.00000000000E+00 0.  1.
          1    1    3    3  501    0 -0.15466710777E+03  0.14543120456E+03 -0.10823914724E+02  0.21257776605E+03  0.00000000000E+00 0.  1.
         21    1    1    2  502  501 -0.52108729471E+01  0.43795678097E+02 -0.34305048536E+01  0.44237800356E+02  0.00000000000E+00 0. -1.
<scales pt_clust_4="550.00000" pt_clust_5="550.00000" pt_clust_6="44.10459"></scales>
<mgrwt>
<rscale>  0 0.30000000E+03</rscale>
<asrwt>  1 0.44104587E+02</asrwt>
<pdfrwt beam="1">  1        1 0.84104099E+00 0.30000000E+03</pdfrwt>
<pdfrwt beam="2">0</pdfrwt>
<totfact> 0.46760564E-04</totfact>
</mgrwt>
<clustering>
<clus scale="   44.105">  1  6  2 -1</clus>
<clus scale="  458.171">  4  5 -1 -1</clus>
<clus scale="  300.000">  1  4  2 -1</clus>
</clustering>
</event>
<event>
 6    1  0.9254630E-012  0.3000000E+03  0.7818608E-02  0.1093470E+00
          1   -1    0    0  502    0  0.00000000000E+00  0.00000000000E+00  0.26094833749E+03  0.26094833749E+03  0.00000000000E+00 0.  1.
         13   -1    0    0    0    0 -0.00000000000E+00 -0.00000000000E+00 -0.27500000000E+03  0.27500000000E+03  0.00000000000E+00 0.  1.
    9000005    2    1    2  501    0  0.17292837150E+02  0.25102990584E+02 -0.56847728626E+01  0.50433809872E+03  0.50338394772E+03 0.  0.
         13    1    3    3    0    0  0.19131173149E+03  0.15486740817E+03  0.96545262853E+02  0.26439568925E+03  0.00000000000E+00 0.  1.
          1    1    3    3  501    0 -0.17401889434E+03 -0.12976441758E+03 -0.10223003572E+03  0.23994240946E+03  0.00000000000E+00 0.  1.
         21    1    1    2  502  501 -0.17292837150E+02 -0.25102990584E+02 -0.83668896456E+01  0.31610238773E+02  0.00000000000E+00 0.  1.
<scales pt_clust_4="550.00000" pt_clust_5="550.00000" pt_clust_6="30.48284"></scales>
<mgrwt>
<rscale>  0 0.30000000E+03</rscale>
<asrwt>  1 0.30482836E+02</asrwt>
<pdfrwt beam="1">  1        1 0.94890305E+00 0.30000000E+03</pdfrwt>
<pdfrwt beam="2">0</pdfrwt>
<totfact> 0.13338203E-05</totfact>
</mgrwt>
<clustering>
<clus scale="   30.483">  1  6  2 -1</clus>
<clus scale="  503.384">  4  5 -1 -1</clus>
<clus scale="  300.000">  1  4  2 -1</clus>
</clustering>
</event>
<event>
 6    1  0.9254630E-012  0.3000000E+03  0.7818608E-02  0.1093470E+00
          1   -1    0    0  502    0  0.00000000000E+00  0.00000000000E+00  0.24318925877E+03  0.24318925877E+03  0.00000000000E+00 0.  1.
         13   -1    0    0    0    0 -0.00000000000E+00 -0.00000000000E+00 -0.27500000000E+03  0.27500000000E+03  0.00000000000E+00 0.  1.
    9000005    2    1    2  501    0  0.38152604984E+02  0.39990814782E+01 -0.56478049731E+02  0.47258125477E+03  0.46762341509E+03 0.  0.
         13    1    3    3    0    0  0.72744623204E+02 -0.13559209614E+03 -0.21122264938E+03  0.26132738921E+03  0.00000000000E+00 0.  1.
          1    1    3    3  501    0 -0.34592018220E+02  0.13959117762E+03  0.15474459965E+03  0.21125386556E+03  0.00000000000E+00 0.  1.
         21    1    1    2  502  501 -0.38152604984E+02 -0.39990814782E+01  0.24667308499E+02  0.45608003993E+02  0.00000000000E+00 0. -1.
<scales pt_clust_4="550.00000" pt_clust_5="550.00000" pt_clust_6="38.36162"></scales>
<mgrwt>
<rscale>  0 0.30000000E+03</rscale>
<asrwt>  1 0.38361620E+02</asrwt>
<pdfrwt beam="1">  1        1 0.88432458E+00 0.30000000E+03</pdfrwt>
<pdfrwt beam="2">0</pdfrwt>
<totfact> 0.17042507E-04</totfact>
</mgrwt>
<clustering>
<clus scale="   38.362">  1  6  2 -1</clus>
<clus scale="  467.623">  4  5 -1 -1</clus>
<clus scale="  300.000">  1  4  2 -1</clus>
</clustering>
</event>
<event>
 6    1  0.9254630E-012  0.3000000E+03  0.7818608E-02  0.1093470E+00
          1   -1    0    0  502    0  0.00000000000E+00  0.00000000000E+00  0.24352846141E+03  0.24352846141E+03  0.00000000000E+00 0.  1.
         13   -1    0    0    0    0 -0.00000000000E+00 -0.00000000000E+00 -0.27500000000E+03  0.27500000000E+03  0.00000000000E+00 0.  1.
    9000005    2    1    2  501    0  0.16560974248E+02 -0.35685215597E+02 -0.13048850125E+02  0.47508774399E+03  0.47327623172E+03 0.  0.
         13    1    3    3    0    0  0.50184587539E+02  0.21098691103E+03  0.40036345391E+02  0.22053770291E+03  0.00000000000E+00 0.  1.
          3    1    3    3  501    0 -0.33623613292E+02 -0.24667212663E+03 -0.53085195516E+02  0.25455004107E+03  0.00000000000E+00 0.  1.
         21    1    1    2  502  501 -0.16560974248E+02  0.35685215597E+02 -0.18422688464E+02  0.43440717426E+02  0.00000000000E+00 0.  1.
<scales pt_clust_4="550.00000" pt_clust_5="550.00000" pt_clust_6="39.34084"></scales>
<mgrwt>
<rscale>  0 0.30000000E+03</rscale>
<asrwt>  1 0.39340844E+02</asrwt>
<pdfrwt beam="1">  1        1 0.88555804E+00 0.30000000E+03</pdfrwt>
<pdfrwt beam="2">0</pdfrwt>
<totfact> 0.16317108E-04</totfact>
</mgrwt>
<clustering>
<clus scale="   39.341">  1  6  2 -1</clus>
<clus scale="  473.276">  4  5 -1 -1</clus>
<clus scale="  300.000">  1  4  2 -1</clus>
</clustering>
</event>
<event>
 6    1  0.9254630E-012  0.3000000E+03  0.7818608E-02  0.1093470E+00
          1   -1    0    0  502    0  0.00000000000E+00  0.00000000000E+00  0.24024171190E+03  0.24024171190E+03  0.00000000000E+00 0.  1.
         13   -1    0    0    0    0 -0.00000000000E+00 -0.00000000000E+00 -0.27500000000E+03  0.27500000000E+03  0.00000000000E+00 0.  1.
    9000005    2    1    2  501    0  0.42697246925E+02  0.90432541285E+01 -0.48032828614E+02  0.46962319849E+03  0.46511714717E+03 0.  0.
         13    1    3    3    0    0  0.16827762615E+03 -0.13488349220E+03 -0.14051471648E+03  0.25740105182E+03  0.00000000000E+00 0.  1.
          3    1    3    3  501    0 -0.12558037922E+03  0.14392674632E+03  0.92481887867E+02  0.21222214667E+03  0.00000000000E+00 0.  1.
         21    1    1    2  502  501 -0.42697246925E+02 -0.90432541285E+01  0.13274540514E+02  0.45618513414E+02  0.00000000000E+00 0.  1.
<scales pt_clust_4="550.00000" pt_clust_5="550.00000" pt_clust_6="43.64442"></scales>
<mgrwt>
<rscale>  0 0.30000000E+03</rscale>
<asrwt>  1 0.43644419E+02</asrwt>
<pdfrwt beam="1">  1        1 0.87360623E+00 0.30000000E+03</pdfrwt>
<pdfrwt beam="2">0</pdfrwt>
<totfact> 0.22338275E-04</totfact>
</mgrwt>
<clustering>
<clus scale="   43.644">  1  6  2 -1</clus>
<clus scale="  465.117">  4  5 -1 -1</clus>
<clus scale="  300.000">  1  4  2 -1</clus>
</clustering>
</event>
<event>
 6    1  0.9254630E-012  0.3000000E+03  0.7818608E-02  0.1093470E+00
          1   -1    0    0  502    0  0.00000000000E+00  0.00000000000E+00  0.23098227196E+03  0.23098227196E+03  0.00000000000E+00 0.  1.
         13   -1    0    0    0    0 -0.00000000000E+00 -0.00000000000E+00 -0.27500000000E+03  0.27500000000E+03  0.00000000000E+00 0.  1.
    9000005    2    1    2  501    0  0.24516607351E+02 -0.25658122501E+02 -0.65433724350E+02  0.46453292716E+03  0.45853011335E+03 0.  0.
         13    1    3    3    0    0 -0.20245475738E+03 -0.56487772720E+02 -0.10020781170E+03  0.23285274913E+03  0.00000000000E+00 0.  1.
          1    1    3    3  501    0  0.22697136473E+03  0.30829650220E+02  0.34774087354E+02  0.23168017803E+03  0.00000000000E+00 0.  1.
         21    1    1    2  502  501 -0.24516607351E+02  0.25658122501E+02  0.21415996312E+02  0.41449344800E+02  0.00000000000E+00 0. -1.
<scales pt_clust_4="550.00000" pt_clust_5="550.00000" pt_clust_6="35.48807"></scales>
<mgrwt>
<rscale>  0 0.30000000E+03</rscale>
<asrwt>  1 0.35488072E+02</asrwt>
<pdfrwt beam="1">  1        1 0.83993553E+00 0.30000000E+03</pdfrwt>
<pdfrwt beam="2">0</pdfrwt>
<totfact> 0.49632317E-04</totfact>
</mgrwt>
<clustering>
<clus scale="   35.488">  1  6  2 -1</clus>
<clus scale="  458.530">  4  5 -1 -1</clus>
<clus scale="  300.000">  1  4  2 -1</clus>
</clustering>
</event>
<event>
 6    1  0.9254630E-012  0.3000000E+03  0.7818608E-02  0.1093470E+00
          1   -1    0    0  502    0  0.00000000000E+00  0.00000000000E+00  0.23564004411E+03  0.23564004411E+03  0.00000000000E+00 0.  1.
         13   -1    0    0    0    0 -0.00000000000E+00 -0.00000000000E+00 -0.27500000000E+03  0.27500000000E+03  0.00000000000E+00 0.  1.
    9000005    2    1    2  501    0  0.35265683301E+02  0.49423601877E+01 -0.60386278711E+02  0.46928546040E+03  0.46401966051E+03 0.  0.
         13    1    3    3    0    0  0.60225527822E+01 -0.14490983963E+03  0.15044877608E+03  0.20897360357E+03  0.00000000000E+00 0.  1.
          1    1    3    3  501    0  0.29243130519E+02  0.14985219982E+03 -0.21083505479E+03  0.26031185682E+03  0.00000000000E+00 0.  1.
         21    1    1    2  502  501 -0.35265683301E+02 -0.49423601877E+01  0.21026322822E+02  0.41354583716E+02  0.00000000000E+00 0. -1.
<scales pt_clust_4="550.00000" pt_clust_5="550.00000" pt_clust_6="35.61033"></scales>
<mgrwt>
<rscale>  0 0.30000000E+03</rscale>
<asrwt>  1 0.35610326E+02</asrwt>
<pdfrwt beam="1">  1        1 0.85687289E+00 0.30000000E+03</pdfrwt>
<pdfrwt beam="2">0</pdfrwt>
<totfact> 0.34769676E-04</totfact>
</mgrwt>
<clustering>
<clus scale="   35.610">  1  6  2 -1</clus>
<clus scale="  464.020">  4  5 -1 -1</clus>
<clus scale="  300.000">  1  4  2 -1</clus>
</clustering>
</event>
<event>
 6    1  0.9254630E-012  0.3000000E+03  0.7818608E-02  0.1093470E+00
          1   -1    0    0  502    0  0.00000000000E+00  0.00000000000E+00  0.23448082381E+03  0.23448082381E+03  0.00000000000E+00 0.  1.
         13   -1    0    0    0    0 -0.00000000000E+00 -0.00000000000E+00 -0.27500000000E+03  0.27500000000E+03  0.00000000000E+00 0.  1.
    9000005    2    1    2  501    0  0.23806953684E+02 -0.25325466512E+02 -0.50903497496E+02  0.47320432416E+03  0.46917269320E+03 0.  0.
         13    1    3    3    0    0  0.63857047857E+02 -0.42477087125E+02  0.20226346865E+03  0.21631582523E+03  0.00000000000E+00 0.  1.
          1    1    3    3  501    0 -0.40050094174E+02  0.17151620613E+02 -0.25316696615E+03  0.25688849893E+03  0.00000000000E+00 0.  1.
         21    1    1    2  502  501 -0.23806953684E+02  0.25325466512E+02  0.10384321302E+02  0.36276499647E+02  0.00000000000E+00 0.  1.
<scales pt_clust_4="550.00000" pt_clust_5="550.00000" pt_clust_6="34.75846"></scales>
<mgrwt>
<rscale>  0 0.30000000E+03</rscale>
<asrwt>  1 0.34758456E+02</asrwt>
<pdfrwt beam="1">  1        1 0.85265754E+00 0.30000000E+03</pdfrwt>
<pdfrwt beam="2">0</pdfrwt>
<totfact> 0.38447311E-04</totfact>
</mgrwt>
<clustering>
<clus scale="   34.758">  1  6  2 -1</clus>
<clus scale="  469.173">  4  5 -1 -1</clus>
<clus scale="  300.000">  1  4  2 -1</clus>
</clustering>
</event>
<event>
 6    1  0.9254630E-012  0.3000000E+03  0.7818608E-02  0.1093470E+00
          1   -1    0    0  502    0  0.00000000000E+00  0.00000000000E+00  0.24437034520E+03  0.24437034520E+03  0.00000000000E+00 0.  1.
         13   -1    0    0    0    0 -0.00000000000E+00 -0.00000000000E+00 -0.27500000000E+03  0.27500000000E+03  0.00000000000E+00 0.  1.
    9000005    2    1    2  501    0 -0.18868277805E+02 -0.24809260974E+02 -0.63628828535E+02  0.47397809030E+03  0.46865242017E+03 0.  0.
         13    1    3    3    0    0  0.17550232616E+03  0.39825885990E+02 -0.16613578064E+03  0.24492501973E+03  0.00000000000E+00 0.  1.
          1    1    3    3  501    0 -0.19437060396E+03 -0.64635146964E+02  0.10250695211E+03  0.22905307057E+03  0.00000000000E+00 0.  1.
         21    1    1    2  502  501  0.18868277805E+02  0.24809260974E+02  0.32999173730E+02  0.45392254893E+02  0.00000000000E+00 0.  1.
<scales pt_clust_4="550.00000" pt_clust_5="550.00000" pt_clust_6="31.16908"></scales>
<mgrwt>
<rscale>  0 0.30000000E+03</rscale>
<asrwt>  1 0.31169077E+02</asrwt>
<pdfrwt beam="1">  1        1 0.88861944E+00 0.30000000E+03</pdfrwt>
<pdfrwt beam="2">0</pdfrwt>
<totfact> 0.15466232E-04</totfact>
</mgrwt>
<clustering>
<clus scale="   31.169">  1  6  2 -1</clus>
<clus scale="  468.652">  4  5 -1 -1</clus>
<clus scale="  300.000">  1  4  2 -1</clus>
</clustering>
</event>
<event>
 6    1  0.9254630E-012  0.3000000E+03  0.7818608E-02  0.1093470E+00
          1   -1    0    0  502    0  0.00000000000E+00  0.00000000000E+00  0.24580230695E+03  0.24580230695E+03  0.00000000000E+00 0.  1.
         13   -1    0    0    0    0 -0.00000000000E+00 -0.00000000000E+00 -0.27500000000E+03  0.27500000000E+03  0.00000000000E+00 0.  1.
    9000005    2    1    2  501    0 -0.15138529698E+00 -0.35740504090E+02 -0.51666928771E+02  0.47858533046E+03  0.47444392762E+03 0.  0.
         13    1    3    3    0    0  0.21007304719E+03  0.90935027076E+02 -0.43515534616E+02  0.23300958362E+03  0.00000000000E+00 0.  1.
          3    1    3    3  501    0 -0.21022443249E+03 -0.12667553117E+03 -0.81513941555E+01  0.24557574684E+03  0.00000000000E+00 0.  1.
         21    1    1    2  502  501  0.15138529698E+00  0.35740504090E+02  0.22469235720E+02  0.42216976490E+02  0.00000000000E+00 0. -1.
<scales pt_clust_4="550.00000" pt_clust_5="550.00000" pt_clust_6="35.74082"></scales>
<mgrwt>
<rscale>  0 0.30000000E+03</rscale>
<asrwt>  1 0.35740825E+02</asrwt>
<pdfrwt beam="1">  1        1 0.89382657E+00 0.30000000E+03</pdfrwt>
<pdfrwt beam="2">0</pdfrwt>
<totfact> 0.12950789E-04</totfact>
</mgrwt>
<clustering>
<clus scale="   35.741">  1  6  2 -1</clus>
<clus scale="  474.444">  4  5 -1 -1</clus>
<clus scale="  300.000">  1  4  2 -1</clus>
</clustering>
</event>
<event>
 6    1  0.9254630E-012  0.3000000E+03  0.7818608E-02  0.1093470E+00
          1   -1    0    0  502    0  0.00000000000E+00  0.00000000000E+00  0.23931339410E+03  0.23931339410E+03  0.00000000000E+00 0.  1.
         13   -1    0    0    0    0 -0.00000000000E+00 -0.00000000000E+00 -0.27500000000E+03  0.27500000000E+03  0.00000000000E+00 0.  1.
    9000005    2    1    2  501    0  0.29717745450E+02 -0.25730492138E+02 -0.51965880412E+02  0.47176674442E+03  0.46724533790E+03 0.  0.
         13    1    3    3    0    0 -0.53543704984E+02  0.12402050952E+03  0.15334053827E+03  0.20435590474E+03  0.00000000000E+00 0.  1.
          3    1    3    3  501    0  0.83261450434E+02 -0.14975100165E+03 -0.20530641869E+03  0.26741083968E+03  0.00000000000E+00 0.  1.
         21    1    1    2  502  501 -0.29717745450E+02  0.25730492138E+02  0.16279274510E+02  0.42546649678E+02  0.00000000000E+00 0. -1.
<scales pt_clust_4="550.00000" pt_clust_5="550.00000" pt_clust_6="39.30907"></scales>
<mgrwt>
<rscale>  0 0.30000000E+03</rscale>
<asrwt>  1 0.39309065E+02</asrwt>
<pdfrwt beam="1">  1        1 0.87023052E+00 0.30000000E+03</pdfrwt>
<pdfrwt beam="2">0</pdfrwt>
<totfact> 0.24652616E-04</totfact>
</mgrwt>
<clustering>
<clus scale="   39.309">  1  6  2 -1</clus>
<clus scale="  467.245">  4  5 -1 -1</clus>
<clus scale="  300.000">  1  4  2 -1</clus>
</clustering>
</event>
<event>
 6    1  0.9254630E-012  0.3000000E+03  0.7818608E-02  0.1093470E+00
          1   -1    0    0  502    0  0.00000000000E+00  0.00000000000E+00  0.22666882894E+03  0.22666882894E+03  0.00000000000E+00 0.  1.
         13   -1    0    0    0    0 -0.00000000000E+00 -0.00000000000E+00 -0.27500000000E+03  0.27500000000E+03  0.00000000000E+00 0.  1.
    9000005    2    1    2  501    0  0.83280807051E+01  0.29015713071E+02 -0.47033517558E+02  0.47145372613E+03  0.46812946455E+03 0.  0.
         13    1    3    3    0    0 -0.21490003540E+03  0.79094046352E+02  0.27972747957E+02  0.23069540093E+03  0.00000000000E+00 0.  1.
          1    1    3    3  501    0  0.22322811611E+03 -0.50078333281E+02 -0.75006265515E+02  0.24075832520E+03  0.00000000000E+00 0.  1.
         21    1    1    2  502  501 -0.83280807051E+01 -0.29015713071E+02 -0.12976534998E+01  0.30215102811E+02  0.00000000000E+00 0.  1.
<scales pt_clust_4="550.00000" pt_clust_5="550.00000" pt_clust_6="30.18722"></scales>
<mgrwt>
<rscale>  0 0.30000000E+03</rscale>
<asrwt>  1 0.30187225E+02</asrwt>
<pdfrwt beam="1">  1        1 0.82425029E+00 0.30000000E+03</pdfrwt>
<pdfrwt beam="2">0</pdfrwt>
<totfact> 0.68219761E-04</totfact>
</mgrwt>
<clustering>
<clus scale="   30.187">  1  6  2 -1</clus>
<clus scale="  468.129">  4  5 -1 -1</clus>
<clus scale="  300.000">  1  4  2 -1</clus>
</clustering>
</event>
<event>
 6    1  0.9254630E-012  0.3000000E+03  0.7818608E-02  0.1093470E+00
          1   -1    0    0  502    0  0.00000000000E+00  0.00000000000E+00  0.23098992259E+03  0.23098992259E+03  0.00000000000E+00 0.  1.
         13   -1    0    0    0    0 -0.00000000000E+00 -0.00000000000E+00 -0.27500000000E+03  0.27500000000E+03  0.00000000000E+00 0.  1.
    9000005    2    1    2  501    0 -0.48688689630E+01 -0.32719634146E+02 -0.31886214934E+02  0.47075828362E+03  0.46851077954E+03 0.  0.
         13    1    3    3    0    0 -0.55493024841E+02  0.18566931145E+03 -0.12217054515E+03  0.22908123258E+03  0.00000000000E+00 0.  1.
          3    1    3    3  501    0  0.50624155878E+02 -0.21838894559E+03  0.90284330211E+02  0.24167705104E+03  0.00000000000E+00 0.  1.
         21    1    1    2  502  501  0.48688689630E+01  0.32719634146E+02 -0.12123862472E+02  0.35231638975E+02  0.00000000000E+00 0. -1.
<scales pt_clust_4="550.00000" pt_clust_5="550.00000" pt_clust_6="33.07992"></scales>
<mgrwt>
<rscale>  0 0.30000000E+03</rscale>
<asrwt>  1 0.33079925E+02</asrwt>
<pdfrwt beam="1">  1        1 0.83996335E+00 0.30000000E+03</pdfrwt>
<pdfrwt beam="2">0</pdfrwt>
<totfact> 0.50266805E-04</totfact>
</mgrwt>
<clustering>
<clus scale="   33.080">  1  6  2 -1</clus>
<clus scale="  468.511">  4  5 -1 -1</clus>
<clus scale="  300.000">  1  4  2 -1</clus>
</clustering>
</event>
<event>
 6    1  0.9254630E-012  0.3000000E+03  0.7818608E-02  0.1093470E+00
          1   -1    0    0  502    0  0.00000000000E+00  0.00000000000E+00  0.22717346713E+03  0.22717346713E+03  0.00000000000E+00 0.  1.
         13   -1    0    0    0    0 -0.00000000000E+00 -0.00000000000E+00 -0.27500000000E+03  0.27500000000E+03  0.00000000000E+00 0.  1.
    9000005    2    1    2  501    0 -0.20210660382E+02  0.22488028576E+02 -0.63826438066E+02  0.46796558517E+03  0.46260543931E+03 0.  0.
         13    1    3    3    0    0 -0.18005119615E+03  0.12819035560E+03 -0.14013189003E+03  0.26170240180E+03  0.00000000000E+00 0.  1.
          1    1    3    3  501    0  0.15984053577E+03 -0.10570232703E+03  0.76305451962E+02  0.20626318337E+03  0.00000000000E+00 0.  1.
         21    1    1    2  502  501  0.20210660382E+02 -0.22488028576E+02  0.15999905199E+02  0.34207881967E+02  0.00000000000E+00 0. -1.
<scales pt_clust_4="550.00000" pt_clust_5="550.00000" pt_clust_6="30.23545"></scales>
<mgrwt>
<rscale>  0 0.30000000E+03</rscale>
<asrwt>  1 0.30235446E+02</asrwt>
<pdfrwt beam="1">  1        1 0.82608534E+00 0.30000000E+03</pdfrwt>
<pdfrwt beam="2">0</pdfrwt>
<totfact> 0.65677494E-04</totfact>
</mgrwt>
<clustering>
<clus scale="   30.235">  1  6  2 -1</clus>
<clus scale="  462.605">  4  5 -1 -1</clus>
<clus scale="  300.000">  1  4  2 -1</clus>
</clustering>
</event>
<event>
 6    1  0.9254630E-012  0.3000000E+03  0.7818608E-02  0.1093470E+00
          1   -1    0    0  502    0  0.00000000000E+00  0.00000000000E+00  0.22346474312E+03  0.22346474312E+03  0.00000000000E+00 0.  1.
         13   -1    0    0    0    0 -0.00000000000E+00 -0.00000000000E+00 -0.27500000000E+03  0.27500000000E+03  0.00000000000E+00 0.  1.
    9000005    2    1    2  501    0 -0.31302177532E+02  0.16456514304E+02 -0.53058258950E+02  0.46306752972E+03  0.45865642376E+03 0.  0.
         13    1    3    3    0    0 -0.23276851431E+03  0.66944081636E+02 -0.76632390828E+02  0.25403782129E+03  0.00000000000E+00 0.  1.
          1    1    3    3  501    0  0.20146633678E+03 -0.50487567332E+02  0.23574131878E+02  0.20902970843E+03  0.00000000000E+00 0.  1.
         21    1    1    2  502  501  0.31302177532E+02 -0.16456514304E+02  0.15230020680E+01  0.35397213401E+02  0.00000000000E+00 0.  1.
<scales pt_clust_4="550.00000" pt_clust_5="550.00000" pt_clust_6="35.36443"></scales>
<mgrwt>
<rscale>  0 0.30000000E+03</rscale>
<asrwt>  1 0.35364434E+02</asrwt>
<pdfrwt beam="1">  1        1 0.81259907E+00 0.30000000E+03</pdfrwt>
<pdfrwt beam="2">0</pdfrwt>
<totfact> 0.83045268E-04</totfact>
</mgrwt>
<clustering>
<clus scale="   35.364">  1  6  2 -1</clus>
<clus scale="  458.656">  4  5 -1 -1</clus>
<clus scale="  300.000">  1  4  2 -1</clus>
</clustering>
</event>
<event>
 6    1  0.9254630E-012  0.3000000E+03  0.7818608E-02  0.1093470E+00
          1   -1    0    0  502    0  0.00000000000E+00  0.00000000000E+00  0.22336945107E+03  0.22336945107E+03  0.00000000000E+00 0.  1.
         13   -1    0    0    0    0 -0.00000000000E+00 -0.00000000000E+00 -0.27500000000E+03  0.27500000000E+03  0.00000000000E+00 0.  1.
    9000005    2    1    2  501    0  0.84332627532E+00 -0.30519112525E+02 -0.68951865337E+02  0.46326737947E+03  0.45708880726E+03 0.  0.
         13    1    3    3    0    0 -0.15476526422E+03 -0.12151638750E+03  0.95986108145E+02  0.21893344285E+03  0.00000000000E+00 0.  1.
          3    1    3    3  501    0  0.15560859050E+03  0.90997274976E+02 -0.16493797348E+03  0.24433393662E+03  0.00000000000E+00 0.  1.
         21    1    1    2  502  501 -0.84332627532E+00  0.30519112525E+02  0.17321316406E+02  0.35102071599E+02  0.00000000000E+00 0.  1.
<scales pt_clust_4="550.00000" pt_clust_5="550.00000" pt_clust_6="30.53076"></scales>
<mgrwt>
<rscale>  0 0.30000000E+03</rscale>
<asrwt>  1 0.30530762E+02</asrwt>
<pdfrwt beam="1">  1        1 0.81225255E+00 0.30000000E+03</pdfrwt>
<pdfrwt beam="2">0</pdfrwt>
<totfact> 0.85929132E-04</totfact>
</mgrwt>
<clustering>
<clus scale="   30.531">  1  6  2 -1</clus>
<clus scale="  457.089">  4  5 -1 -1</clus>
<clus scale="  300.000">  1  4  2 -1</clus>
</clustering>
</event>
<event>
 6    1  0.9254630E-012  0.3000000E+03  0.7818608E-02  0.1093470E+00
          1   -1    0    0  502    0  0.00000000000E+00  0.00000000000E+00  0.22992490764E+03  0.22992490764E+03  0.00000000000E+00 0.  1.
         13   -1    0    0    0    0 -0.00000000000E+00 -0.00000000000E+00 -0.27500000000E+03  0.27500000000E+03  0.00000000000E+00 0.  1.
    9000005    2    1    2  501    0 -0.34858551462E+02  0.90527400348E+01 -0.65190897954E+02  0.46367304287E+03  0.45765245198E+03 0.  0.
         13    1    3    3    0    0 -0.26638607248E+02 -0.20038963356E+03 -0.13461424331E+03  0.24287160216E+03  0.00000000000E+00 0.  1.
          3    1    3    3  501    0 -0.82199442131E+01  0.20944237360E+03  0.69423345351E+02  0.22080144071E+03  0.00000000000E+00 0.  1.
         21    1    1    2  502  501  0.34858551462E+02 -0.90527400348E+01  0.20115805596E+02  0.41251864769E+02  0.00000000000E+00 0.  1.
<scales pt_clust_4="550.00000" pt_clust_5="550.00000" pt_clust_6="36.01487"></scales>
<mgrwt>
<rscale>  0 0.30000000E+03</rscale>
<asrwt>  1 0.36014868E+02</asrwt>
<pdfrwt beam="1">  1        1 0.83609057E+00 0.30000000E+03</pdfrwt>
<pdfrwt beam="2">0</pdfrwt>
<totfact> 0.52837645E-04</totfact>
</mgrwt>
<clustering>
<clus scale="   36.015">  1  6  2 -1</clus>
<clus scale="  457.652">  4  5 -1 -1</clus>
<clus scale="  300.000">  1  4  2 -1</clus>
</clustering>
</event>
<event>
 6    1  0.9254630E-012  0.3000000E+03  0.7818608E-02  0.1093470E+00
          1   -1    0    0  502    0  0.00000000000E+00  0.00000000000E+00  0.23341870549E+03  0.23341870549E+03  0.00000000000E+00 0.  1.
         13   -1    0    0    0    0 -0.00000000000E+00 -0.00000000000E+00 -0.27500000000E+03  0.27500000000E+03  0.00000000000E+00 0.  1.
    9000005    2    1    2  501    0  0.16079597023E+02  0.33889366153E+02 -0.55551789038E+02  0.46839099888E+03  0.46356993431E+03 0.  0.
         13    1    3    3    0    0  0.12665448163E+02 -0.21537892732E+03 -0.28926871322E+02  0.21768155593E+03  0.00000000000E+00 0.  1.
          3    1    3    3  501    0  0.34141488596E+01  0.24926829347E+03 -0.26624917716E+02  0.25070944295E+03  0.00000000000E+00 0.  1.
         21    1    1    2  502  501 -0.16079597023E+02 -0.33889366153E+02  0.13970494526E+02  0.40027706604E+02  0.00000000000E+00 0. -1.
<scales pt_clust_4="550.00000" pt_clust_5="550.00000" pt_clust_6="37.51057"></scales>
<mgrwt>
<rscale>  0 0.30000000E+03</rscale>
<asrwt>  1 0.37510566E+02</asrwt>
<pdfrwt beam="1">  1        1 0.84879529E+00 0.30000000E+03</pdfrwt>
<pdfrwt beam="2">0</pdfrwt>
<totfact> 0.41229808E-04</totfact>
</mgrwt>
<clustering>
<clus scale="   37.511">  1  6  2 -1</clus>
<clus scale="  463.570">  4  5 -1 -1</clus>
<clus scale="  300.000">  1  4  2 -1</clus>
</clustering>
</event>
<event>
 6    1  0.9254630E-012  0.3000000E+03  0.7818608E-02  0.1093470E+00
          1   -1    0    0  502    0  0.00000000000E+00  0.00000000000E+00  0.25535035958E+03  0.25535035958E+03  0.00000000000E+00 0.  1.
         13   -1    0    0    0    0 -0.00000000000E+00 -0.00000000000E+00 -0.27500000000E+03  0.27500000000E+03  0.00000000000E+00 0.  1.
    9000005    2    1    2  501    0 -0.17070746127E+02  0.59787717247E+02 -0.73467672622E+01  0.46696785257E+03  0.46275157357E+03 0.  0.
         13    1    3    3    0    0  0.21225291069E+03 -0.40693256579E+02 -0.13281167097E+02  0.21652627699E+03  0.00000000000E+00 0.  1.
          1    1    3    3  501    0 -0.22932365682E+03  0.10048097383E+03  0.59343998343E+01  0.25044157558E+03  0.00000000000E+00 0.  1.
         21    1    1    2  502  501  0.17070746127E+02 -0.59787717247E+02 -0.12302873155E+02  0.63382507010E+02  0.00000000000E+00 0. -1.
<scales pt_clust_4="550.00000" pt_clust_5="550.00000" pt_clust_6="62.17705"></scales>
<mgrwt>
<rscale>  0 0.30000000E+03</rscale>
<asrwt>  1 0.62177049E+02</asrwt>
<pdfrwt beam="1">  1        1 0.92854676E+00 0.30000000E+03</pdfrwt>
<pdfrwt beam="2">0</pdfrwt>
<totfact> 0.25130607E-05</totfact>
</mgrwt>
<clustering>
<clus scale="   62.177">  1  6  2 -1</clus>
<clus scale="  462.752">  4  5 -1 -1</clus>
<clus scale="  300.000">  1  4  2 -1</clus>
</clustering>
</event>
<event>
 6    1  0.9254630E-012  0.3000000E+03  0.7818608E-02  0.1093470E+00
          1   -1    0    0  502    0  0.00000000000E+00  0.00000000000E+00  0.23569280762E+03  0.23569280762E+03  0.00000000000E+00 0.  1.
         13   -1    0    0    0    0 -0.00000000000E+00 -0.00000000000E+00 -0.27500000000E+03  0.27500000000E+03  0.00000000000E+00 0.  1.
    9000005    2    1    2  501    0  0.38932684648E+02 -0.19008905355E+02 -0.57790141816E+02  0.46358960352E+03  0.45792851799E+03 0.  0.
         13    1    3    3    0    0  0.86319046015E+01 -0.15653888968E+03  0.14709071978E+03  0.21497584423E+03  0.00000000000E+00 0.  1.
          3    1    3    3  501    0  0.30300780047E+02  0.13752998432E+03 -0.20488086159E+03  0.24861375929E+03  0.00000000000E+00 0.  1.
         21    1    1    2  502  501 -0.38932684648E+02  0.19008905355E+02  0.18482949438E+02  0.47103204102E+02  0.00000000000E+00 0.  1.
<scales pt_clust_4="550.00000" pt_clust_5="550.00000" pt_clust_6="43.32542"></scales>
<mgrwt>
<rscale>  0 0.30000000E+03</rscale>
<asrwt>  1 0.43325425E+02</asrwt>
<pdfrwt beam="1">  1        1 0.85706475E+00 0.30000000E+03</pdfrwt>
<pdfrwt beam="2">0</pdfrwt>
<totfact> 0.33391416E-04</totfact>
</mgrwt>
<clustering>
<clus scale="   43.325">  1  6  2 -1</clus>
<clus scale="  457.929">  4  5 -1 -1</clus>
<clus scale="  300.000">  1  4  2 -1</clus>
</clustering>
</event>
<event>
 6    1  0.9254630E-012  0.3000000E+03  0.7818608E-02  0.1093470E+00
          1   -1    0    0  502    0  0.00000000000E+00  0.00000000000E+00  0.24877806356E+03  0.24877806356E+03  0.00000000000E+00 0.  1.
         13   -1    0    0    0    0 -0.00000000000E+00 -0.00000000000E+00 -0.27500000000E+03  0.27500000000E+03  0.00000000000E+00 0.  1.
    9000005    2    1    2  501    0  0.38790231431E+02  0.61892979465E+01 -0.35167063859E+02  0.48349153022E+03  0.48060831033E+03 0.  0.
         13    1    3    3    0    0  0.18495116567E+03  0.17740394795E+03 -0.46983591991E+01  0.25632239272E+03  0.00000000000E+00 0.  1.
          1    1    3    3  501    0 -0.14616093423E+03 -0.17121465000E+03 -0.30468704659E+02  0.22716913751E+03  0.00000000000E+00 0.  1.
         21    1    1    2  502  501 -0.38790231431E+02 -0.61892979465E+01  0.89451274161E+01  0.40286533333E+02  0.00000000000E+00 0.  1.
<scales pt_clust_4="550.00000" pt_clust_5="550.00000" pt_clust_6="39.28090"></scales>
<mgrwt>
<rscale>  0 0.30000000E+03</rscale>
<asrwt>  1 0.39280905E+02</asrwt>
<pdfrwt beam="1">  1        1 0.90464750E+00 0.30000000E+03</pdfrwt>
<pdfrwt beam="2">0</pdfrwt>
<totfact> 0.91892312E-05</totfact>
</mgrwt>
<clustering>
<clus scale="   39.281">  1  6  2 -1</clus>
<clus scale="  480.608">  4  5 -1 -1</clus>
<clus scale="  300.000">  1  4  2 -1</clus>
</clustering>
</event>
<event>
 6    1  0.9254630E-012  0.3000000E+03  0.7818608E-02  0.1093470E+00
          1   -1    0    0  502    0  0.00000000000E+00  0.00000000000E+00  0.23852601205E+03  0.23852601205E+03  0.00000000000E+00 0.  1.
         13   -1    0    0    0    0 -0.00000000000E+00 -0.00000000000E+00 -0.27500000000E+03  0.27500000000E+03  0.00000000000E+00 0.  1.
    9000005    2    1    2  501    0 -0.32224747906E+02  0.61353699578E+01 -0.41834299120E+02  0.48028732860E+03  0.47733607897E+03 0.  0.
         13    1    3    3    0    0 -0.80646610477E+02  0.10204454441E+03  0.18682696321E+03  0.22764287603E+03  0.00000000000E+00 0.  1.
          1    1    3    3  501    0  0.48421862571E+02 -0.95909174454E+02 -0.22866126233E+03  0.25264445256E+03  0.00000000000E+00 0.  1.
         21    1    1    2  502  501  0.32224747906E+02 -0.61353699578E+01  0.53603111734E+01  0.33238683457E+02  0.00000000000E+00 0. -1.
<scales pt_clust_4="550.00000" pt_clust_5="550.00000" pt_clust_6="32.80361"></scales>
<mgrwt>
<rscale>  0 0.30000000E+03</rscale>
<asrwt>  1 0.32803615E+02</asrwt>
<pdfrwt beam="1">  1        1 0.86736732E+00 0.30000000E+03</pdfrwt>
<pdfrwt beam="2">0</pdfrwt>
<totfact> 0.27292103E-04</totfact>
</mgrwt>
<clustering>
<clus scale="   32.804">  1  6  2 -1</clus>
<clus scale="  477.336">  4  5 -1 -1</clus>
<clus scale="  300.000">  1  4  2 -1</clus>
</clustering>
</event>
<event>
 6    1  0.9254630E-012  0.3000000E+03  0.7818608E-02  0.1093470E+00
          1   -1    0    0  502    0  0.00000000000E+00  0.00000000000E+00  0.21843403120E+03  0.21843403120E+03  0.00000000000E+00 0.  1.
         13   -1    0    0    0    0 -0.00000000000E+00 -0.00000000000E+00 -0.27500000000E+03  0.27500000000E+03  0.00000000000E+00 0.  1.
    9000005    2    1    2  501    0  0.27660647666E+02  0.13023584370E+02 -0.53890501935E+02  0.46274391386E+03  0.45857716738E+03 0.  0.
         13    1    3    3    0    0  0.27184251787E+02 -0.18750436936E+02 -0.25601528656E+03  0.25813637749E+03  0.00000000000E+00 0.  1.
          3    1    3    3  501    0  0.47639587898E+00  0.31774021306E+02  0.20212478462E+03  0.20460753638E+03  0.00000000000E+00 0.  1.
         21    1    1    2  502  501 -0.27660647666E+02 -0.13023584370E+02 -0.26754668664E+01  0.30690117336E+02  0.00000000000E+00 0.  1.
<scales pt_clust_4="550.00000" pt_clust_5="550.00000" pt_clust_6="30.57328"></scales>
<mgrwt>
<rscale>  0 0.30000000E+03</rscale>
<asrwt>  1 0.30573276E+02</asrwt>
<pdfrwt beam="1">  1        1 0.79430557E+00 0.30000000E+03</pdfrwt>
<pdfrwt beam="2">0</pdfrwt>
<totfact> 0.11713491E-03</totfact>
</mgrwt>
<clustering>
<clus scale="   30.573">  1  6  2 -1</clus>
<clus scale="  458.577">  4  5 -1 -1</clus>
<clus scale="  300.000">  1  4  2 -1</clus>
</clustering>
</event>
<event>
 6    1  0.9254630E-012  0.3000000E+03  0.7818608E-02  0.1093470E+00
          1   -1    0    0  502    0  0.00000000000E+00  0.00000000000E+00  0.25116339311E+03  0.25116339311E+03  0.00000000000E+00 0.  1.
         13   -1    0    0    0    0 -0.00000000000E+00 -0.00000000000E+00 -0.27500000000E+03  0.27500000000E+03  0.00000000000E+00 0.  1.
    9000005    2    1    2  501    0  0.24422684723E+02  0.20184913416E+02 -0.42450898440E+02  0.48941573865E+03  0.48654063366E+03 0.  0.
         13    1    3    3    0    0 -0.12779669763E+03 -0.17247846672E+03 -0.10062483390E+03  0.23707841446E+03  0.00000000000E+00 0.  1.
          3    1    3    3  501    0  0.15221938235E+03  0.19266338013E+03  0.58173935463E+02  0.25233732418E+03  0.00000000000E+00 0.  1.
         21    1    1    2  502  501 -0.24422684723E+02 -0.20184913416E+02  0.18614291554E+02  0.36747654466E+02  0.00000000000E+00 0.  1.
<scales pt_clust_4="550.00000" pt_clust_5="550.00000" pt_clust_6="31.68435"></scales>
<mgrwt>
<rscale>  0 0.30000000E+03</rscale>
<asrwt>  1 0.31684354E+02</asrwt>
<pdfrwt beam="1">  1        1 0.91332143E+00 0.30000000E+03</pdfrwt>
<pdfrwt beam="2">0</pdfrwt>
<totfact> 0.60547121E-05</totfact>
</mgrwt>
<clustering>
<clus scale="   31.684">  1  6  2 -1</clus>
<clus scale="  486.541">  4  5 -1 -1</clus>
<clus scale="  300.000">  1  4  2 -1</clus>
</clustering>
</event>
<event>
 6    1  0.9254630E-012  0.3000000E+03  0.7818608E-02  0.1093470E+00
          1   -1    0    0  502    0  0.00000000000E+00  0.00000000000E+00  0.22460635617E+03  0.22460635617E+03  0.00000000000E+00 0.  1.
         13   -1    0    0    0    0 -0.00000000000E+00 -0.00000000000E+00 -0.27500000000E+03  0.27500000000E+03  0.00000000000E+00 0.  1.
    9000005    2    1    2  501    0  0.23061701706E+02 -0.19274366332E+02 -0.60050912471E+02  0.46803728712E+03  0.46319482593E+03 0.  0.
         13    1    3    3    0    0 -0.51361982532E+01 -0.18087187768E+03  0.12562492385E+03  0.22027854675E+03  0.00000000000E+00 0.  1.
          1    1    3    3  501    0  0.28197899959E+02  0.16159751135E+03 -0.18567583632E+03  0.24775874037E+03  0.00000000000E+00 0.  1.
         21    1    1    2  502  501 -0.23061701706E+02  0.19274366332E+02  0.96572686456E+01  0.31569069051E+02  0.00000000000E+00 0. -1.
<scales pt_clust_4="550.00000" pt_clust_5="550.00000" pt_clust_6="30.05567"></scales>
<mgrwt>
<rscale>  0 0.30000000E+03</rscale>
<asrwt>  1 0.30055670E+02</asrwt>
<pdfrwt beam="1">  1        1 0.81675039E+00 0.30000000E+03</pdfrwt>
<pdfrwt beam="2">0</pdfrwt>
<totfact> 0.79291728E-04</totfact>
</mgrwt>
<clustering>
<clus scale="   30.056">  1  6  2 -1</clus>
<clus scale="  463.195">  4  5 -1 -1</clus>
<clus scale="  300.000">  1  4  2 -1</clus>
</clustering>
</event>
<event>
 6    1  0.9254630E-012  0.3000000E+03  0.7818608E-02  0.1093470E+00
          1   -1    0    0  502    0  0.00000000000E+00  0.00000000000E+00  0.24158101054E+03  0.24158101054E+03  0.00000000000E+00 0.  1.
         13   -1    0    0    0    0 -0.00000000000E+00 -0.00000000000E+00 -0.27500000000E+03  0.27500000000E+03  0.00000000000E+00 0.  1.
    9000005    2    1    2  501    0  0.28229189019E+02 -0.15223081045E+02 -0.74541195051E+02  0.46443060209E+03  0.45728630538E+03 0.  0.
         13    1    3    3    0    0  0.15896079408E+03  0.16773105495E+03 -0.61788551394E+02  0.23920716112E+03  0.00000000000E+00 0.  1.
          3    1    3    3  501    0 -0.13073160506E+03 -0.18295413600E+03 -0.12752643657E+02  0.22522344096E+03  0.00000000000E+00 0.  1.
         21    1    1    2  502  501 -0.28229189019E+02  0.15223081045E+02  0.41122205594E+02  0.52150408455E+02  0.00000000000E+00 0.  1.
<scales pt_clust_4="550.00000" pt_clust_5="550.00000" pt_clust_6="32.07225"></scales>
<mgrwt>
<rscale>  0 0.30000000E+03</rscale>
<asrwt>  1 0.32072251E+02</asrwt>
<pdfrwt beam="1">  1        1 0.87847640E+00 0.30000000E+03</pdfrwt>
<pdfrwt beam="2">0</pdfrwt>
<totfact> 0.20928890E-04</totfact>
</mgrwt>
<clustering>
<clus scale="   32.072">  1  6  2 -1</clus>
<clus scale="  457.286">  4  5 -1 -1</clus>
<clus scale="  300.000">  1  4  2 -1</clus>
</clustering>
</event>
<event>
 6    1  0.9254630E-012  0.3000000E+03  0.7818608E-02  0.1093470E+00
          1   -1    0    0  502    0  0.00000000000E+00  0.00000000000E+00  0.24196023564E+03  0.24196023564E+03  0.00000000000E+00 0.  1.
         13   -1    0    0    0    0 -0.00000000000E+00 -0.00000000000E+00 -0.27500000000E+03  0.27500000000E+03  0.00000000000E+00 0.  1.
    9000005    2    1    2  501    0 -0.27743030745E+02  0.17185317779E+02 -0.60304452760E+02  0.47443525315E+03  0.46945412077E+03 0.  0.
         13    1    3    3    0    0 -0.19392776461E+03  0.11497390847E+03 -0.14045304187E+03  0.26562009428E+03  0.00000000000E+00 0.  1.
          3    1    3    3  501    0  0.16618473386E+03 -0.97788590686E+02  0.80148589113E+02  0.20881515887E+03  0.00000000000E+00 0.  1.
         21    1    1    2  502  501  0.27743030745E+02 -0.17185317779E+02  0.27264688397E+02  0.42524982486E+02  0.00000000000E+00 0.  1.
<scales pt_clust_4="550.00000" pt_clust_5="550.00000" pt_clust_6="32.63450"></scales>
<mgrwt>
<rscale>  0 0.30000000E+03</rscale>
<asrwt>  1 0.32634505E+02</asrwt>
<pdfrwt beam="1">  1        1 0.87985540E+00 0.30000000E+03</pdfrwt>
<pdfrwt beam="2">0</pdfrwt>
<totfact> 0.20081457E-04</totfact>
</mgrwt>
<clustering>
<clus scale="   32.635">  1  6  2 -1</clus>
<clus scale="  469.454">  4  5 -1 -1</clus>
<clus scale="  300.000">  1  4  2 -1</clus>
</clustering>
</event>
<event>
 6    1  0.9254630E-012  0.3000000E+03  0.7818608E-02  0.1093470E+00
          1   -1    0    0  502    0  0.00000000000E+00  0.00000000000E+00  0.22746043538E+03  0.22746043538E+03  0.00000000000E+00 0.  1.
         13   -1    0    0    0    0 -0.00000000000E+00 -0.00000000000E+00 -0.27500000000E+03  0.27500000000E+03  0.00000000000E+00 0.  1.
    9000005    2    1    2  501    0 -0.35243385493E+02 -0.14161684887E+02 -0.49284258991E+02  0.46443815904E+03  0.46025125295E+03 0.  0.
         13    1    3    3    0    0 -0.24161925330E+03  0.11091643378E+01  0.28639193602E+02  0.24331316697E+03  0.00000000000E+00 0.  1.
          1    1    3    3  501    0  0.20637586781E+03 -0.15270849225E+02 -0.77923452592E+02  0.22112499206E+03  0.00000000000E+00 0.  1.
         21    1    1    2  502  501  0.35243385493E+02  0.14161684887E+02  0.17446943706E+01  0.38022276343E+02  0.00000000000E+00 0.  1.
<scales pt_clust_4="550.00000" pt_clust_5="550.00000" pt_clust_6="37.98223"></scales>
<mgrwt>
<rscale>  0 0.30000000E+03</rscale>
<asrwt>  1 0.37982227E+02</asrwt>
<pdfrwt beam="1">  1        1 0.82712886E+00 0.30000000E+03</pdfrwt>
<pdfrwt beam="2">0</pdfrwt>
<totfact> 0.61596907E-04</totfact>
</mgrwt>
<clustering>
<clus scale="   37.982">  1  6  2 -1</clus>
<clus scale="  460.251">  4  5 -1 -1</clus>
<clus scale="  300.000">  1  4  2 -1</clus>
</clustering>
</event>
<event>
 6    1  0.9254630E-012  0.3000000E+03  0.7818608E-02  0.1093470E+00
          1   -1    0    0  502    0  0.00000000000E+00  0.00000000000E+00  0.22945222326E+03  0.22945222326E+03  0.00000000000E+00 0.  1.
         13   -1    0    0    0    0 -0.00000000000E+00 -0.00000000000E+00 -0.27500000000E+03  0.27500000000E+03  0.00000000000E+00 0.  1.
    9000005    2    1    2  501    0  0.30834869966E+02 -0.12253539116E+02 -0.59453669214E+02  0.46847567156E+03  0.46350164793E+03 0.  0.
         13    1    3    3    0    0  0.18006831160E+02  0.20780530033E+03 -0.11899984178E+03  0.24014214782E+03  0.00000000000E+00 0.  1.
          3    1    3    3  501    0  0.12828038806E+02 -0.22005883945E+03  0.59546172567E+02  0.22833352375E+03  0.00000000000E+00 0.  1.
         21    1    1    2  502  501 -0.30834869966E+02  0.12253539116E+02  0.13905892476E+02  0.35976551700E+02  0.00000000000E+00 0. -1.
<scales pt_clust_4="550.00000" pt_clust_5="550.00000" pt_clust_6="33.18039"></scales>
<mgrwt>
<rscale>  0 0.30000000E+03</rscale>
<asrwt>  1 0.33180392E+02</asrwt>
<pdfrwt beam="1">  1        1 0.83437172E+00 0.30000000E+03</pdfrwt>
<pdfrwt beam="2">0</pdfrwt>
<totfact> 0.55226766E-04</totfact>
</mgrwt>
<clustering>
<clus scale="   33.180">  1  6  2 -1</clus>
<clus scale="  463.502">  4  5 -1 -1</clus>
<clus scale="  300.000">  1  4  2 -1</clus>
</clustering>
</event>
<event>
 6    1  0.9254630E-012  0.3000000E+03  0.7818608E-02  0.1093470E+00
          1   -1    0    0  502    0  0.00000000000E+00  0.00000000000E+00  0.24967296671E+03  0.24967296671E+03  0.00000000000E+00 0.  1.
         13   -1    0    0    0    0 -0.00000000000E+00 -0.00000000000E+00 -0.27500000000E+03  0.27500000000E+03  0.00000000000E+00 0.  1.
    9000005    2    1    2  501    0 -0.35119790146E+02 -0.53276023700E+01 -0.14330403373E+02  0.48748817309E+03  0.48598104432E+03 0.  0.
         13    1    3    3    0    0  0.73726119157E+02  0.21056177498E+03 -0.79910790241E+02  0.23697581338E+03  0.00000000000E+00 0.  1.
          3    1    3    3  501    0 -0.10884590930E+03 -0.21588937735E+03  0.65580386868E+02  0.25051235971E+03  0.00000000000E+00 0.  1.
         21    1    1    2  502  501  0.35119790146E+02  0.53276023700E+01 -0.10996629918E+02  0.37184793619E+02  0.00000000000E+00 0. -1.
<scales pt_clust_4="550.00000" pt_clust_5="550.00000" pt_clust_6="35.52160"></scales>
<mgrwt>
<rscale>  0 0.30000000E+03</rscale>
<asrwt>  1 0.35521603E+02</asrwt>
<pdfrwt beam="1">  1        1 0.90790170E+00 0.30000000E+03</pdfrwt>
<pdfrwt beam="2">0</pdfrwt>
<totfact> 0.80262681E-05</totfact>
</mgrwt>
<clustering>
<clus scale="   35.522">  1  6  2 -1</clus>
<clus scale="  485.981">  4  5 -1 -1</clus>
<clus scale="  300.000">  1  4  2 -1</clus>
</clustering>
</event>
<event>
 6    1  0.9254630E-012  0.3000000E+03  0.7818608E-02  0.1093470E+00
          1   -1    0    0  502    0  0.00000000000E+00  0.00000000000E+00  0.22265462387E+03  0.22265462387E+03  0.00000000000E+00 0.  1.
         13   -1    0    0    0    0 -0.00000000000E+00 -0.00000000000E+00 -0.27500000000E+03  0.27500000000E+03  0.00000000000E+00 0.  1.
    9000005    2    1    2  501    0  0.28350722053E+02 -0.11275647142E+02 -0.55618822846E+02  0.46696881098E+03  0.46263972302E+03 0.  0.
         13    1    3    3    0    0 -0.11766728690E+03  0.18408923549E+03 -0.43461470822E+02  0.22276296029E+03  0.00000000000E+00 0.  1.
          3    1    3    3  501    0  0.14601800896E+03 -0.19536488263E+03 -0.12157352025E+02  0.24420585069E+03  0.00000000000E+00 0.  1.
         21    1    1    2  502  501 -0.28350722053E+02  0.11275647142E+02  0.32734467184E+01  0.30685812892E+02  0.00000000000E+00 0. -1.
<scales pt_clust_4="550.00000" pt_clust_5="550.00000" pt_clust_6="30.51071"></scales>
<mgrwt>
<rscale>  0 0.30000000E+03</rscale>
<asrwt>  1 0.30510714E+02</asrwt>
<pdfrwt beam="1">  1        1 0.80965318E+00 0.30000000E+03</pdfrwt>
<pdfrwt beam="2">0</pdfrwt>
<totfact> 0.90071203E-04</totfact>
</mgrwt>
<clustering>
<clus scale="   30.511">  1  6  2 -1</clus>
<clus scale="  462.640">  4  5 -1 -1</clus>
<clus scale="  300.000">  1  4  2 -1</clus>
</clustering>
</event>
<event>
 6    1  0.9254630E-012  0.3000000E+03  0.7818608E-02  0.1093470E+00
          1   -1    0    0  502    0  0.00000000000E+00  0.00000000000E+00  0.23125910948E+03  0.23125910948E+03  0.00000000000E+00 0.  1.
         13   -1    0    0    0    0 -0.00000000000E+00 -0.00000000000E+00 -0.27500000000E+03  0.27500000000E+03  0.00000000000E+00 0.  1.
    9000005    2    1    2  501    0 -0.29088245645E+02  0.80853084423E+01 -0.31662168359E+02  0.47374151768E+03  0.47171711271E+03 0.  0.
         13    1    3    3    0    0  0.65138265536E+02 -0.17375405484E+03  0.11815888864E+03  0.21998860919E+03  0.00000000000E+00 0.  1.
          3    1    3    3  501    0 -0.94226511181E+02  0.18183936328E+03 -0.14982105700E+03  0.25375290849E+03  0.00000000000E+00 0.  1.
         21    1    1    2  502  501  0.29088245645E+02 -0.80853084423E+01 -0.12078722159E+02  0.32517591798E+02  0.00000000000E+00 0. -1.
<scales pt_clust_4="550.00000" pt_clust_5="550.00000" pt_clust_6="30.19104"></scales>
<mgrwt>
<rscale>  0 0.30000000E+03</rscale>
<asrwt>  1 0.30191044E+02</asrwt>
<pdfrwt beam="1">  1        1 0.84094222E+00 0.30000000E+03</pdfrwt>
<pdfrwt beam="2">0</pdfrwt>
<totfact> 0.50260317E-04</totfact>
</mgrwt>
<clustering>
<clus scale="   30.191">  1  6  2 -1</clus>
<clus scale="  471.717">  4  5 -1 -1</clus>
<clus scale="  300.000">  1  4  2 -1</clus>
</clustering>
</event>
<event>
 6    1  0.9254630E-012  0.3000000E+03  0.7818608E-02  0.1093470E+00
          1   -1    0    0  502    0  0.00000000000E+00  0.00000000000E+00  0.23119881396E+03  0.23119881396E+03  0.00000000000E+00 0.  1.
         13   -1    0    0    0    0 -0.00000000000E+00 -0.00000000000E+00 -0.27500000000E+03  0.27500000000E+03  0.00000000000E+00 0.  1.
    9000005    2    1    2  501    0  0.30706865117E+02  0.14627003907E+02 -0.65465465747E+02  0.46587262118E+03  0.45999425122E+03 0.  0.
         13    1    3    3    0    0 -0.16978272375E+03  0.12402247778E+03 -0.10347354466E+03  0.23433847897E+03  0.00000000000E+00 0.  1.
          1    1    3    3  501    0  0.20048958887E+03 -0.10939547388E+03  0.38008078910E+02  0.23153414222E+03  0.00000000000E+00 0.  1.
         21    1    1    2  502  501 -0.30706865117E+02 -0.14627003907E+02  0.21664279703E+02  0.40326192774E+02  0.00000000000E+00 0.  1.
<scales pt_clust_4="550.00000" pt_clust_5="550.00000" pt_clust_6="34.01266"></scales>
<mgrwt>
<rscale>  0 0.30000000E+03</rscale>
<asrwt>  1 0.34012657E+02</asrwt>
<pdfrwt beam="1">  1        1 0.84072296E+00 0.30000000E+03</pdfrwt>
<pdfrwt beam="2">0</pdfrwt>
<totfact> 0.49330069E-04</totfact>
</mgrwt>
<clustering>
<clus scale="   34.013">  1  6  2 -1</clus>
<clus scale="  459.994">  4  5 -1 -1</clus>
<clus scale="  300.000">  1  4  2 -1</clus>
</clustering>
</event>
<event>
 6    1  0.9254630E-012  0.3000000E+03  0.7818608E-02  0.1093470E+00
          1   -1    0    0  502    0  0.00000000000E+00  0.00000000000E+00  0.23549407328E+03  0.23549407328E+03  0.00000000000E+00 0.  1.
         13   -1    0    0    0    0 -0.00000000000E+00 -0.00000000000E+00 -0.27500000000E+03  0.27500000000E+03  0.00000000000E+00 0.  1.
    9000005    2    1    2  501    0 -0.30036581004E+01 -0.33147457176E+02 -0.31031509448E+02  0.47614888981E+03  0.47396944502E+03 0.  0.
         13    1    3    3    0    0 -0.22559988402E+03 -0.93576728378E+02 -0.82979003029E+01  0.24437832742E+03  0.00000000000E+00 0.  1.
          3    1    3    3  501    0  0.22259622591E+03  0.60429271203E+02 -0.22733609145E+02  0.23177056240E+03  0.00000000000E+00 0.  1.
         21    1    1    2  502  501  0.30036581004E+01  0.33147457176E+02 -0.84744172716E+01  0.34345183466E+02  0.00000000000E+00 0.  1.
<scales pt_clust_4="550.00000" pt_clust_5="550.00000" pt_clust_6="33.28328"></scales>
<mgrwt>
<rscale>  0 0.30000000E+03</rscale>
<asrwt>  1 0.33283284E+02</asrwt>
<pdfrwt beam="1">  1        1 0.85634208E+00 0.30000000E+03</pdfrwt>
<pdfrwt beam="2">0</pdfrwt>
<totfact> 0.35655562E-04</totfact>
</mgrwt>
<clustering>
<clus scale="   33.283">  1  6  2 -1</clus>
<clus scale="  473.969">  4  5 -1 -1</clus>
<clus scale="  300.000">  1  4  2 -1</clus>
</clustering>
</event>
<event>
 6    1  0.9254630E-012  0.3000000E+03  0.7818608E-02  0.1093470E+00
          1   -1    0    0  502    0  0.00000000000E+00  0.00000000000E+00  0.23622337900E+03  0.23622337900E+03  0.00000000000E+00 0.  1.
         13   -1    0    0    0    0 -0.00000000000E+00 -0.00000000000E+00 -0.27500000000E+03  0.27500000000E+03  0.00000000000E+00 0.  1.
    9000005    2    1    2  501    0 -0.30327384662E+02  0.25542461535E+02 -0.53118743682E+02  0.46905865340E+03  0.46435143135E+03 0.  0.
         13    1    3    3    0    0  0.87004555744E+01  0.62267508339E+02  0.20035163650E+03  0.20998504416E+03  0.00000000000E+00 0.  1.
          1    1    3    3  501    0 -0.39027840236E+02 -0.36725046804E+02 -0.25347038018E+03  0.25907360924E+03  0.00000000000E+00 0.  1.
         21    1    1    2  502  501  0.30327384662E+02 -0.25542461535E+02  0.14342122678E+02  0.42164725596E+02  0.00000000000E+00 0. -1.
<scales pt_clust_4="550.00000" pt_clust_5="550.00000" pt_clust_6="39.65057"></scales>
<mgrwt>
<rscale>  0 0.30000000E+03</rscale>
<asrwt>  1 0.39650569E+02</asrwt>
<pdfrwt beam="1">  1        1 0.85899411E+00 0.30000000E+03</pdfrwt>
<pdfrwt beam="2">0</pdfrwt>
<totfact> 0.32395617E-04</totfact>
</mgrwt>
<clustering>
<clus scale="   39.651">  1  6  2 -1</clus>
<clus scale="  464.351">  4  5 -1 -1</clus>
<clus scale="  300.000">  1  4  2 -1</clus>
</clustering>
</event>
<event>
 6    1  0.9254630E-012  0.3000000E+03  0.7818608E-02  0.1093470E+00
          1   -1    0    0  502    0  0.00000000000E+00  0.00000000000E+00  0.24109920394E+03  0.24109920394E+03  0.00000000000E+00 0.  1.
         13   -1    0    0    0    0 -0.00000000000E+00 -0.00000000000E+00 -0.27500000000E+03  0.27500000000E+03  0.00000000000E+00 0.  1.
    9000005    2    1    2  501    0  0.36478640821E+02  0.65742763711E+01 -0.57138875894E+02  0.47235082454E+03  0.46741473870E+03 0.  0.
         13    1    3    3    0    0  0.22924983688E+03 -0.97015162047E+02 -0.46593834803E+02  0.25325563136E+03  0.00000000000E+00 0.  1.
          3    1    3    3  501    0 -0.19277119606E+03  0.10358943842E+03 -0.10545041091E+02  0.21909519317E+03  0.00000000000E+00 0.  1.
         21    1    1    2  502  501 -0.36478640821E+02 -0.65742763711E+01  0.23238079835E+02  0.43748379403E+02  0.00000000000E+00 0.  1.
<scales pt_clust_4="550.00000" pt_clust_5="550.00000" pt_clust_6="37.06632"></scales>
<mgrwt>
<rscale>  0 0.30000000E+03</rscale>
<asrwt>  1 0.37066324E+02</asrwt>
<pdfrwt beam="1">  1        1 0.87672438E+00 0.30000000E+03</pdfrwt>
<pdfrwt beam="2">0</pdfrwt>
<totfact> 0.21321117E-04</totfact>
</mgrwt>
<clustering>
<clus scale="   37.066">  1  6  2 -1</clus>
<clus scale="  467.415">  4  5 -1 -1</clus>
<clus scale="  300.000">  1  4  2 -1</clus>
</clustering>
</event>
<event>
 6    1  0.9254630E-012  0.3000000E+03  0.7818608E-02  0.1093470E+00
          1   -1    0    0  502    0  0.00000000000E+00  0.00000000000E+00  0.22433836747E+03  0.22433836747E+03  0.00000000000E+00 0.  1.
         13   -1    0    0    0    0 -0.00000000000E+00 -0.00000000000E+00 -0.27500000000E+03  0.27500000000E+03  0.00000000000E+00 0.  1.
    9000005    2    1    2  501    0  0.51942012056E+00 -0.36365537276E+02 -0.60322572041E+02  0.46170784992E+03  0.45630319294E+03 0.  0.
         13    1    3    3    0    0  0.32447105945E+02 -0.59852721391E+02 -0.25453972607E+03  0.26348744769E+03  0.00000000000E+00 0.  1.
          3    1    3    3  501    0 -0.31927685825E+02  0.23487184116E+02  0.19421715403E+03  0.19822040223E+03  0.00000000000E+00 0.  1.
         21    1    1    2  502  501 -0.51942012056E+00  0.36365537276E+02  0.96609395092E+01  0.37630517546E+02  0.00000000000E+00 0.  1.
<scales pt_clust_4="550.00000" pt_clust_5="550.00000" pt_clust_6="36.36925"></scales>
<mgrwt>
<rscale>  0 0.30000000E+03</rscale>
<asrwt>  1 0.36369247E+02</asrwt>
<pdfrwt beam="1">  1        1 0.81577588E+00 0.30000000E+03</pdfrwt>
<pdfrwt beam="2">0</pdfrwt>
<totfact> 0.77899968E-04</totfact>
</mgrwt>
<clustering>
<clus scale="   36.369">  1  6  2 -1</clus>
<clus scale="  456.303">  4  5 -1 -1</clus>
<clus scale="  300.000">  1  4  2 -1</clus>
</clustering>
</event>
<event>
 6    1  0.9254630E-012  0.3000000E+03  0.7818608E-02  0.1093470E+00
          1   -1    0    0  502    0  0.00000000000E+00  0.00000000000E+00  0.22324380489E+03  0.22324380489E+03  0.00000000000E+00 0.  1.
         13   -1    0    0    0    0 -0.00000000000E+00 -0.00000000000E+00 -0.27500000000E+03  0.27500000000E+03  0.00000000000E+00 0.  1.
    9000005    2    1    2  501    0 -0.12504961260E+02  0.28182108192E+02 -0.63786282686E+02  0.46514806067E+03  0.45972102759E+03 0.  0.
         13    1    3    3    0    0  0.20626168121E+03  0.42309191207E+02  0.52486305939E+02  0.21699944956E+03  0.00000000000E+00 0.  1.
          3    1    3    3  501    0 -0.21876664247E+03 -0.14127083016E+02 -0.11627258862E+03  0.24814861112E+03  0.00000000000E+00 0.  1.
         21    1    1    2  502  501  0.12504961260E+02 -0.28182108192E+02  0.12030087578E+02  0.33095744219E+02  0.00000000000E+00 0.  1.
<scales pt_clust_4="550.00000" pt_clust_5="550.00000" pt_clust_6="30.83189"></scales>
<mgrwt>
<rscale>  0 0.30000000E+03</rscale>
<asrwt>  1 0.30831887E+02</asrwt>
<pdfrwt beam="1">  1        1 0.81179565E+00 0.30000000E+03</pdfrwt>
<pdfrwt beam="2">0</pdfrwt>
<totfact> 0.86483245E-04</totfact>
</mgrwt>
<clustering>
<clus scale="   30.832">  1  6  2 -1</clus>
<clus scale="  459.721">  4  5 -1 -1</clus>
<clus scale="  300.000">  1  4  2 -1</clus>
</clustering>
</event>
<event>
 6    1  0.9254630E-012  0.3000000E+03  0.7818608E-02  0.1093470E+00
          1   -1    0    0  502    0  0.00000000000E+00  0.00000000000E+00  0.22318457712E+03  0.22318457712E+03  0.00000000000E+00 0.  1.
         13   -1    0    0    0    0 -0.00000000000E+00 -0.00000000000E+00 -0.27500000000E+03  0.27500000000E+03  0.00000000000E+00 0.  1.
    9000005    2    1    2  501    0 -0.19271061349E+02  0.28828578660E+02 -0.44411063774E+02  0.46272635823E+03  0.45928300564E+03 0.  0.
         13    1    3    3    0    0  0.17836853282E+03 -0.15470251165E+02 -0.15067173812E+03  0.23400135649E+03  0.00000000000E+00 0.  1.
          3    1    3    3  501    0 -0.19763959417E+03  0.44298829825E+02  0.10626067434E+03  0.22872500174E+03  0.00000000000E+00 0.  1.
         21    1    1    2  502  501  0.19271061349E+02 -0.28828578660E+02 -0.74043591025E+01  0.35458218889E+02  0.00000000000E+00 0.  1.
<scales pt_clust_4="550.00000" pt_clust_5="550.00000" pt_clust_6="34.67653"></scales>
<mgrwt>
<rscale>  0 0.30000000E+03</rscale>
<asrwt>  1 0.34676533E+02</asrwt>
<pdfrwt beam="1">  1        1 0.81158028E+00 0.30000000E+03</pdfrwt>
<pdfrwt beam="2">0</pdfrwt>
<totfact> 0.84910598E-04</totfact>
</mgrwt>
<clustering>
<clus scale="   34.677">  1  6  2 -1</clus>
<clus scale="  459.283">  4  5 -1 -1</clus>
<clus scale="  300.000">  1  4  2 -1</clus>
</clustering>
</event>
<event>
 6    1  0.9254630E-012  0.3000000E+03  0.7818608E-02  0.1093470E+00
          1   -1    0    0  502    0  0.00000000000E+00  0.00000000000E+00  0.24349763120E+03  0.24349763120E+03  0.00000000000E+00 0.  1.
         13   -1    0    0    0    0 -0.00000000000E+00 -0.00000000000E+00 -0.27500000000E+03  0.27500000000E+03  0.00000000000E+00 0.  1.
    9000005    2    1    2  501    0 -0.29973997705E+02 -0.14674488600E+02 -0.50638253267E+02  0.48002734100E+03  0.47618088397E+03 0.  0.
         13    1    3    3    0    0 -0.14121012423E+03 -0.20968593072E+03 -0.29985692845E+02  0.25457342851E+03  0.00000000000E+00 0.  1.
          1    1    3    3  501    0  0.11123612652E+03  0.19501144212E+03 -0.20652560422E+02  0.22545391249E+03  0.00000000000E+00 0.  1.
         21    1    1    2  502  501  0.29973997705E+02  0.14674488600E+02  0.19135884469E+02  0.38470290205E+02  0.00000000000E+00 0.  1.
<scales pt_clust_4="550.00000" pt_clust_5="550.00000" pt_clust_6="33.37336"></scales>
<mgrwt>
<rscale>  0 0.30000000E+03</rscale>
<asrwt>  1 0.33373360E+02</asrwt>
<pdfrwt beam="1">  1        1 0.88544593E+00 0.30000000E+03</pdfrwt>
<pdfrwt beam="2">0</pdfrwt>
<totfact> 0.16883553E-04</totfact>
</mgrwt>
<clustering>
<clus scale="   33.373">  1  6  2 -1</clus>
<clus scale="  476.181">  4  5 -1 -1</clus>
<clus scale="  300.000">  1  4  2 -1</clus>
</clustering>
</event>
<event>
 6    1  0.9254630E-012  0.3000000E+03  0.7818608E-02  0.1093470E+00
          1   -1    0    0  502    0  0.00000000000E+00  0.00000000000E+00  0.25998827868E+03  0.25998827868E+03  0.00000000000E+00 0.  1.
         13   -1    0    0    0    0 -0.00000000000E+00 -0.00000000000E+00 -0.27500000000E+03  0.27500000000E+03  0.00000000000E+00 0.  1.
    9000005    2    1    2  501    0 -0.29694953297E+02  0.62076606934E+01 -0.22957151860E+02  0.50362818989E+03  0.50218920491E+03 0.  0.
         13    1    3    3    0    0 -0.25194725366E+02 -0.13871703757E+03 -0.21859500976E+03  0.26011722163E+03  0.00000000000E+00 0.  1.
          3    1    3    3  501    0 -0.45002279314E+01  0.14492469826E+03  0.19563785790E+03  0.24351096826E+03  0.00000000000E+00 0.  1.
         21    1    1    2  502  501  0.29694953297E+02 -0.62076606934E+01  0.79454305398E+01  0.31360088793E+02  0.00000000000E+00 0. -1.
<scales pt_clust_4="550.00000" pt_clust_5="550.00000" pt_clust_6="30.33686"></scales>
<mgrwt>
<rscale>  0 0.30000000E+03</rscale>
<asrwt>  1 0.30336864E+02</asrwt>
<pdfrwt beam="1">  1        1 0.94541192E+00 0.30000000E+03</pdfrwt>
<pdfrwt beam="2">0</pdfrwt>
<totfact> 0.15684034E-05</totfact>
</mgrwt>
<clustering>
<clus scale="   30.337">  1  6  2 -1</clus>
<clus scale="  502.189">  4  5 -1 -1</clus>
<clus scale="  300.000">  1  4  2 -1</clus>
</clustering>
</event>
<event>
 6    1  0.9254630E-012  0.3000000E+03  0.7818608E-02  0.1093470E+00
          1   -1    0    0  502    0  0.00000000000E+00  0.00000000000E+00  0.23612222874E+03  0.23612222874E+03  0.00000000000E+00 0.  1.
         13   -1    0    0    0    0 -0.00000000000E+00 -0.00000000000E+00 -0.27500000000E+03  0.27500000000E+03  0.00000000000E+00 0.  1.
    9000005    2    1    2  501    0  0.13062223987E+02  0.28029801386E+02 -0.10705217050E+02  0.46928941539E+03  0.46814705197E+03 0.  0.
         13    1    3    3    0    0  0.53275726272E+02  0.69270481333E+01 -0.23468302605E+03  0.24075383636E+03  0.00000000000E+00 0.  1.
          3    1    3    3  501    0 -0.40213502284E+02  0.21102753253E+02  0.22397780900E+03  0.22853557904E+03  0.00000000000E+00 0.  1.
         21    1    1    2  502  501 -0.13062223987E+02 -0.28029801386E+02 -0.28172554213E+02  0.41832813342E+02  0.00000000000E+00 0.  1.
<scales pt_clust_4="550.00000" pt_clust_5="550.00000" pt_clust_6="30.92398"></scales>
<mgrwt>
<rscale>  0 0.30000000E+03</rscale>
<asrwt>  1 0.30923978E+02</asrwt>
<pdfrwt beam="1">  1        1 0.85862629E+00 0.30000000E+03</pdfrwt>
<pdfrwt beam="2">0</pdfrwt>
<totfact> 0.34241730E-04</totfact>
</mgrwt>
<clustering>
<clus scale="   30.924">  1  6  2 -1</clus>
<clus scale="  468.147">  4  5 -1 -1</clus>
<clus scale="  300.000">  1  4  2 -1</clus>
</clustering>
</event>
<event>
 6    1  0.9254630E-012  0.3000000E+03  0.7818608E-02  0.1093470E+00
          1   -1    0    0  502    0  0.00000000000E+00  0.00000000000E+00  0.23701303812E+03  0.23701303812E+03  0.00000000000E+00 0.  1.
         13   -1    0    0    0    0 -0.00000000000E+00 -0.00000000000E+00 -0.27500000000E+03  0.27500000000E+03  0.00000000000E+00 0.  1.
    9000005    2    1    2  501    0 -0.31208165886E+02  0.18277439227E+02 -0.59487003584E+02  0.46993850668E+03  0.46475314099E+03 0.  0.
         13    1    3    3    0    0 -0.61266373030E+02  0.26197148853E+02 -0.25929885986E+03  0.26772328587E+03  0.00000000000E+00 0.  1.
          3    1    3    3  501    0  0.30058207144E+02 -0.79197096261E+01  0.19981185628E+03  0.20221522081E+03  0.00000000000E+00 0.  1.
         21    1    1    2  502  501  0.31208165886E+02 -0.18277439227E+02  0.21500041704E+02  0.42074531440E+02  0.00000000000E+00 0. -1.
<scales pt_clust_4="550.00000" pt_clust_5="550.00000" pt_clust_6="36.16648"></scales>
<mgrwt>
<rscale>  0 0.30000000E+03</rscale>
<asrwt>  1 0.36166482E+02</asrwt>
<pdfrwt beam="1">  1        1 0.86186559E+00 0.30000000E+03</pdfrwt>
<pdfrwt beam="2">0</pdfrwt>
<totfact> 0.30699564E-04</totfact>
</mgrwt>
<clustering>
<clus scale="   36.166">  1  6  2 -1</clus>
<clus scale="  464.753">  4  5 -1 -1</clus>
<clus scale="  300.000">  1  4  2 -1</clus>
</clustering>
</event>
<event>
 6    1  0.9254630E-012  0.3000000E+03  0.7818608E-02  0.1093470E+00
          1   -1    0    0  502    0  0.00000000000E+00  0.00000000000E+00  0.22182628799E+03  0.22182628799E+03  0.00000000000E+00 0.  1.
         13   -1    0    0    0    0 -0.00000000000E+00 -0.00000000000E+00 -0.27500000000E+03  0.27500000000E+03  0.00000000000E+00 0.  1.
    9000005    2    1    2  501    0 -0.21672718405E+02 -0.26108113860E+02 -0.61694407948E+02  0.46184139709E+03  0.45644269712E+03 0.  0.
         13    1    3    3    0    0  0.13946954113E+03  0.91532062369E+02 -0.16716434901E+03  0.23616475377E+03  0.00000000000E+00 0.  1.
          1    1    3    3  501    0 -0.16114225954E+03 -0.11764017623E+03  0.10546994106E+03  0.22567664332E+03  0.00000000000E+00 0.  1.
         21    1    1    2  502  501  0.21672718405E+02  0.26108113860E+02  0.85206959404E+01  0.34984890906E+02  0.00000000000E+00 0.  1.
<scales pt_clust_4="550.00000" pt_clust_5="550.00000" pt_clust_6="33.93141"></scales>
<mgrwt>
<rscale>  0 0.30000000E+03</rscale>
<asrwt>  1 0.33931406E+02</asrwt>
<pdfrwt beam="1">  1        1 0.80664105E+00 0.30000000E+03</pdfrwt>
<pdfrwt beam="2">0</pdfrwt>
<totfact> 0.93125931E-04</totfact>
</mgrwt>
<clustering>
<clus scale="   33.931">  1  6  2 -1</clus>
<clus scale="  456.443">  4  5 -1 -1</clus>
<clus scale="  300.000">  1  4  2 -1</clus>
</clustering>
</event>
<event>
 6    1  0.9254630E-012  0.3000000E+03  0.7818608E-02  0.1093470E+00
          1   -1    0    0  502    0  0.00000000000E+00  0.00000000000E+00  0.24238232617E+03  0.24238232617E+03  0.00000000000E+00 0.  1.
         13   -1    0    0    0    0 -0.00000000000E+00 -0.00000000000E+00 -0.27500000000E+03  0.27500000000E+03  0.00000000000E+00 0.  1.
    9000005    2    1    2  501    0 -0.71989678708E+01  0.30473621033E+02 -0.51234695541E+02  0.48095348849E+03  0.47719052521E+03 0.  0.
         13    1    3    3    0    0  0.80739284719E+02  0.23325042236E+03  0.22750780899E+02  0.24787535106E+03  0.00000000000E+00 0.  1.
          3    1    3    3  501    0 -0.87938252590E+02 -0.20277680133E+03 -0.73985476440E+02  0.23307813743E+03  0.00000000000E+00 0.  1.
         21    1    1    2  502  501  0.71989678708E+01 -0.30473621033E+02  0.18617021709E+02  0.36428837678E+02  0.00000000000E+00 0.  1.
<scales pt_clust_4="550.00000" pt_clust_5="550.00000" pt_clust_6="31.31241"></scales>
<mgrwt>
<rscale>  0 0.30000000E+03</rscale>
<asrwt>  1 0.31312405E+02</asrwt>
<pdfrwt beam="1">  1        1 0.88139028E+00 0.30000000E+03</pdfrwt>
<pdfrwt beam="2">0</pdfrwt>
<totfact> 0.19361584E-04</totfact>
</mgrwt>
<clustering>
<clus scale="   31.312">  1  6  2 -1</clus>
<clus scale="  477.191">  4  5 -1 -1</clus>
<clus scale="  300.000">  1  4  2 -1</clus>
</clustering>
</event>
<event>
 6    1  0.9254630E-012  0.3000000E+03  0.7818608E-02  0.1093470E+00
          1   -1    0    0  502    0  0.00000000000E+00  0.00000000000E+00  0.22399144156E+03  0.22399144156E+03  0.00000000000E+00 0.  1.
         13   -1    0    0    0    0 -0.00000000000E+00 -0.00000000000E+00 -0.27500000000E+03  0.27500000000E+03  0.00000000000E+00 0.  1.
    9000005    2    1    2  501    0 -0.31922614388E+01 -0.31510131723E+02 -0.57515147278E+02  0.46665856924E+03  0.46201639488E+03 0.  0.
         13    1    3    3    0    0 -0.15865842599E+02  0.40051700098E+02  0.19716268923E+03  0.20181424545E+03  0.00000000000E+00 0.  1.
          3    1    3    3  501    0  0.12673581160E+02 -0.71561831821E+02 -0.25467783651E+03  0.26484432379E+03  0.00000000000E+00 0.  1.
         21    1    1    2  502  501  0.31922614388E+01  0.31510131723E+02  0.65065888375E+01  0.32332872322E+02  0.00000000000E+00 0. -1.
<scales pt_clust_4="550.00000" pt_clust_5="550.00000" pt_clust_6="31.67142"></scales>
<mgrwt>
<rscale>  0 0.30000000E+03</rscale>
<asrwt>  1 0.31671421E+02</asrwt>
<pdfrwt beam="1">  1        1 0.81451433E+00 0.30000000E+03</pdfrwt>
<pdfrwt beam="2">0</pdfrwt>
<totfact> 0.81855243E-04</totfact>
</mgrwt>
<clustering>
<clus scale="   31.671">  1  6  2 -1</clus>
<clus scale="  462.016">  4  5 -1 -1</clus>
<clus scale="  300.000">  1  4  2 -1</clus>
</clustering>
</event>
<event>
 6    1  0.9254630E-012  0.3000000E+03  0.7818608E-02  0.1093470E+00
          1   -1    0    0  502    0  0.00000000000E+00  0.00000000000E+00  0.22812096090E+03  0.22812096090E+03  0.00000000000E+00 0.  1.
         13   -1    0    0    0    0 -0.00000000000E+00 -0.00000000000E+00 -0.27500000000E+03  0.27500000000E+03  0.00000000000E+00 0.  1.
    9000005    2    1    2  501    0  0.35599881346E+02 -0.23246053337E+01 -0.48601528798E+02  0.46740370579E+03  0.46349904018E+03 0.  0.
         13    1    3    3    0    0  0.50153184764E+02  0.11438424798E+03  0.17485814704E+03  0.21488245558E+03  0.00000000000E+00 0.  1.
          3    1    3    3  501    0 -0.14553303418E+02 -0.11670885331E+03 -0.22345967584E+03  0.25252125021E+03  0.00000000000E+00 0.  1.
         21    1    1    2  502  501 -0.35599881346E+02  0.23246053337E+01  0.17224897007E+01  0.35717255110E+02  0.00000000000E+00 0.  1.
<scales pt_clust_4="550.00000" pt_clust_5="550.00000" pt_clust_6="35.67570"></scales>
<mgrwt>
<rscale>  0 0.30000000E+03</rscale>
<asrwt>  1 0.35675697E+02</asrwt>
<pdfrwt beam="1">  1        1 0.82953077E+00 0.30000000E+03</pdfrwt>
<pdfrwt beam="2">0</pdfrwt>
<totfact> 0.59422130E-04</totfact>
</mgrwt>
<clustering>
<clus scale="   35.676">  1  6  2 -1</clus>
<clus scale="  463.499">  4  5 -1 -1</clus>
<clus scale="  300.000">  1  4  2 -1</clus>
</clustering>
</event>
<event>
 6    1  0.9254630E-012  0.3000000E+03  0.7818608E-02  0.1093470E+00
          1   -1    0    0  502    0  0.00000000000E+00  0.00000000000E+00  0.23284426038E+03  0.23284426038E+03  0.00000000000E+00 0.  1.
         13   -1    0    0    0    0 -0.00000000000E+00 -0.00000000000E+00 -0.27500000000E+03  0.27500000000E+03  0.00000000000E+00 0.  1.
    9000005    2    1    2  501    0 -0.42275335166E+01  0.44611052705E+02 -0.47665263471E+02  0.46269591693E+03  0.45804750424E+03 0.  0.
         13    1    3    3    0    0  0.90474884584E+02 -0.62052819342E+02 -0.21587329151E+03  0.24215188439E+03  0.00000000000E+00 0.  1.
          3    1    3    3  501    0 -0.94702418100E+02  0.10666387205E+03  0.16820802803E+03  0.22054403254E+03  0.00000000000E+00 0.  1.
         21    1    1    2  502  501  0.42275335166E+01 -0.44611052705E+02  0.55095238514E+01  0.45148343449E+02  0.00000000000E+00 0. -1.
<scales pt_clust_4="550.00000" pt_clust_5="550.00000" pt_clust_6="44.81091"></scales>
<mgrwt>
<rscale>  0 0.30000000E+03</rscale>
<asrwt>  1 0.44810915E+02</asrwt>
<pdfrwt beam="1">  1        1 0.84670640E+00 0.30000000E+03</pdfrwt>
<pdfrwt beam="2">0</pdfrwt>
<totfact> 0.41708644E-04</totfact>
</mgrwt>
<clustering>
<clus scale="   44.811">  1  6  2 -1</clus>
<clus scale="  458.048">  4  5 -1 -1</clus>
<clus scale="  300.000">  1  4  2 -1</clus>
</clustering>
</event>
<event>
 6    1  0.9254630E-012  0.3000000E+03  0.7818608E-02  0.1093470E+00
          1   -1    0    0  502    0  0.00000000000E+00  0.00000000000E+00  0.22673915412E+03  0.22673915412E+03  0.00000000000E+00 0.  1.
         13   -1    0    0    0    0 -0.00000000000E+00 -0.00000000000E+00 -0.27500000000E+03  0.27500000000E+03  0.00000000000E+00 0.  1.
    9000005    2    1    2  501    0 -0.19586475446E+02 -0.26087909063E+02 -0.69915882952E+02  0.46258369920E+03  0.45610441683E+03 0.  0.
         13    1    3    3    0    0  0.20322921510E+02 -0.22803347780E+03  0.34902033195E+02  0.23158246924E+03  0.00000000000E+00 0.  1.
          3    1    3    3  501    0 -0.39909396956E+02  0.20194556874E+03 -0.10481791615E+03  0.23100122996E+03  0.00000000000E+00 0.  1.
         21    1    1    2  502  501  0.19586475446E+02  0.26087909063E+02  0.21655037069E+02  0.39155454922E+02  0.00000000000E+00 0. -1.
<scales pt_clust_4="550.00000" pt_clust_5="550.00000" pt_clust_6="32.62222"></scales>
<mgrwt>
<rscale>  0 0.30000000E+03</rscale>
<asrwt>  1 0.32622217E+02</asrwt>
<pdfrwt beam="1">  1        1 0.82450601E+00 0.30000000E+03</pdfrwt>
<pdfrwt beam="2">0</pdfrwt>
<totfact> 0.66863865E-04</totfact>
</mgrwt>
<clustering>
<clus scale="   32.622">  1  6  2 -1</clus>
<clus scale="  456.104">  4  5 -1 -1</clus>
<clus scale="  300.000">  1  4  2 -1</clus>
</clustering>
</event>
<event>
 6    1  0.9254630E-012  0.3000000E+03  0.7818608E-02  0.1093470E+00
          1   -1    0    0  502    0  0.00000000000E+00  0.00000000000E+00  0.25344637469E+03  0.25344637469E+03  0.00000000000E+00 0.  1.
         13   -1    0    0    0    0 -0.00000000000E+00 -0.00000000000E+00 -0.27500000000E+03  0.27500000000E+03  0.00000000000E+00 0.  1.
    9000005    2    1    2  501    0 -0.25123313244E+02 -0.40468134927E+02 -0.34540618990E+02  0.47907520074E+03  0.47544835975E+03 0.  0.
         13    1    3    3    0    0  0.45205987201E+01 -0.22091251877E+03  0.10920996400E+03  0.24647432523E+03  0.00000000000E+00 0.  1.
          1    1    3    3  501    0 -0.29643911964E+02  0.18044438384E+03 -0.14375058299E+03  0.23260087551E+03  0.00000000000E+00 0.  1.
         21    1    1    2  502  501  0.25123313244E+02  0.40468134927E+02  0.12986993681E+02  0.49371173955E+02  0.00000000000E+00 0.  1.
<scales pt_clust_4="550.00000" pt_clust_5="550.00000" pt_clust_6="47.63246"></scales>
<mgrwt>
<rscale>  0 0.30000000E+03</rscale>
<asrwt>  1 0.47632455E+02</asrwt>
<pdfrwt beam="1">  1        1 0.92162318E+00 0.30000000E+03</pdfrwt>
<pdfrwt beam="2">0</pdfrwt>
<totfact> 0.36474376E-05</totfact>
</mgrwt>
<clustering>
<clus scale="   47.632">  1  6  2 -1</clus>
<clus scale="  475.448">  4  5 -1 -1</clus>
<clus scale="  300.000">  1  4  2 -1</clus>
</clustering>
</event>
<event>
 6    1  0.9254630E-012  0.3000000E+03  0.7818608E-02  0.1093470E+00
          1   -1    0    0  502    0  0.00000000000E+00  0.00000000000E+00  0.25212035339E+03  0.25212035339E+03  0.00000000000E+00 0.  1.
         13   -1    0    0    0    0 -0.00000000000E+00 -0.00000000000E+00 -0.27500000000E+03  0.27500000000E+03  0.00000000000E+00 0.  1.
    9000005    2    1    2  501    0 -0.10901855329E+02  0.32265384334E+02 -0.28020934455E+02  0.49267709111E+03  0.49069913171E+03 0.  0.
         13    1    3    3    0    0  0.65591824873E+02 -0.12035729444E+03  0.17829093849E+03  0.22489069470E+03  0.00000000000E+00 0.  1.
          3    1    3    3  501    0 -0.76493680202E+02  0.15262267878E+03 -0.20631187294E+03  0.26778639641E+03  0.00000000000E+00 0.  1.
         21    1    1    2  502  501  0.10901855329E+02 -0.32265384334E+02  0.51412878490E+01  0.34443262281E+02  0.00000000000E+00 0.  1.
<scales pt_clust_4="550.00000" pt_clust_5="550.00000" pt_clust_6="34.05739"></scales>
<mgrwt>
<rscale>  0 0.30000000E+03</rscale>
<asrwt>  1 0.34057385E+02</asrwt>
<pdfrwt beam="1">  1        1 0.91680129E+00 0.30000000E+03</pdfrwt>
<pdfrwt beam="2">0</pdfrwt>
<totfact> 0.49478650E-05</totfact>
</mgrwt>
<clustering>
<clus scale="   34.057">  1  6  2 -1</clus>
<clus scale="  490.699">  4  5 -1 -1</clus>
<clus scale="  300.000">  1  4  2 -1</clus>
</clustering>
</event>
<event>
 6    1  0.9254630E-012  0.3000000E+03  0.7818608E-02  0.1093470E+00
          1   -1    0    0  502    0  0.00000000000E+00  0.00000000000E+00  0.24052747752E+03  0.24052747752E+03  0.00000000000E+00 0.  1.
         13   -1    0    0    0    0 -0.00000000000E+00 -0.00000000000E+00 -0.27500000000E+03  0.27500000000E+03  0.00000000000E+00 0.  1.
    9000005    2    1    2  501    0  0.22443384762E+02  0.21030454083E+02 -0.45717336213E+02  0.48277947980E+03  0.47962481772E+03 0.  0.
         13    1    3    3    0    0 -0.50113487361E+02  0.20159551368E+03 -0.15537688820E+03  0.25941104475E+03  0.00000000000E+00 0.  1.
          3    1    3    3  501    0  0.72556872123E+02 -0.18056505959E+03  0.10965955198E+03  0.22336843506E+03  0.00000000000E+00 0.  1.
         21    1    1    2  502  501 -0.22443384762E+02 -0.21030454083E+02  0.11244813728E+02  0.32747997714E+02  0.00000000000E+00 0.  1.
<scales pt_clust_4="550.00000" pt_clust_5="550.00000" pt_clust_6="30.75688"></scales>
<mgrwt>
<rscale>  0 0.30000000E+03</rscale>
<asrwt>  1 0.30756878E+02</asrwt>
<pdfrwt beam="1">  1        1 0.87464537E+00 0.30000000E+03</pdfrwt>
<pdfrwt beam="2">0</pdfrwt>
<totfact> 0.23249156E-04</totfact>
</mgrwt>
<clustering>
<clus scale="   30.757">  1  6  2 -1</clus>
<clus scale="  479.625">  4  5 -1 -1</clus>
<clus scale="  300.000">  1  4  2 -1</clus>
</clustering>
</event>
<event>
 6    1  0.9254630E-012  0.3000000E+03  0.7818608E-02  0.1093470E+00
          1   -1    0    0  502    0  0.00000000000E+00  0.00000000000E+00  0.23736126681E+03  0.23736126681E+03  0.00000000000E+00 0.  1.
         13   -1    0    0    0    0 -0.00000000000E+00 -0.00000000000E+00 -0.27500000000E+03  0.27500000000E+03  0.00000000000E+00 0.  1.
    9000005    2    1    2  501    0  0.50786835427E+01 -0.29790444897E+02 -0.71496192248E+02  0.46697854799E+03  0.46048235052E+03 0.  0.
         13    1    3    3    0    0  0.77079178384E+02  0.16903676819E+03 -0.15267775319E+03  0.24046855316E+03  0.00000000000E+00 0.  1.
          1    1    3    3  501    0 -0.72000494841E+02 -0.19882721309E+03  0.81181560940E+02  0.22650999483E+03  0.00000000000E+00 0.  1.
         21    1    1    2  502  501 -0.50786835427E+01  0.29790444897E+02  0.33857459059E+02  0.45382718821E+02  0.00000000000E+00 0.  1.
<scales pt_clust_4="550.00000" pt_clust_5="550.00000" pt_clust_6="30.22025"></scales>
<mgrwt>
<rscale>  0 0.30000000E+03</rscale>
<asrwt>  1 0.30220252E+02</asrwt>
<pdfrwt beam="1">  1        1 0.86313188E+00 0.30000000E+03</pdfrwt>
<pdfrwt beam="2">0</pdfrwt>
<totfact> 0.30774202E-04</totfact>
</mgrwt>
<clustering>
<clus scale="   30.220">  1  6  2 -1</clus>
<clus scale="  460.482">  4  5 -1 -1</clus>
<clus scale="  300.000">  1  4  2 -1</clus>
</clustering>
</event>
<event>
 6    1  0.9254630E-012  0.3000000E+03  0.7818608E-02  0.1093470E+00
          1   -1    0    0  502    0  0.00000000000E+00  0.00000000000E+00  0.25462629996E+03  0.25462629996E+03  0.00000000000E+00 0.  1.
         13   -1    0    0    0    0 -0.00000000000E+00 -0.00000000000E+00 -0.27500000000E+03  0.27500000000E+03  0.00000000000E+00 0.  1.
    9000005    2    1    2  501    0 -0.38538117201E+02  0.23962615959E+01 -0.70132229950E+02  0.46664344637E+03  0.45972453471E+03 0.  0.
         13    1    3    3    0    0  0.97925879558E+02 -0.19259816120E+03 -0.74655515557E+02  0.22859784686E+03  0.00000000000E+00 0.  1.
          3    1    3    3  501    0 -0.13646399676E+03  0.19499442280E+03  0.45232856068E+01  0.23804559951E+03  0.00000000000E+00 0.  1.
         21    1    1    2  502  501  0.38538117201E+02 -0.23962615959E+01  0.49758529908E+02  0.62982853584E+02  0.00000000000E+00 0.  1.
<scales pt_clust_4="550.00000" pt_clust_5="550.00000" pt_clust_6="38.61254"></scales>
<mgrwt>
<rscale>  0 0.30000000E+03</rscale>
<asrwt>  1 0.38612544E+02</asrwt>
<pdfrwt beam="1">  1        1 0.92591382E+00 0.30000000E+03</pdfrwt>
<pdfrwt beam="2">0</pdfrwt>
<totfact> 0.30835843E-05</totfact>
</mgrwt>
<clustering>
<clus scale="   38.613">  1  6  2 -1</clus>
<clus scale="  459.725">  4  5 -1 -1</clus>
<clus scale="  300.000">  1  4  2 -1</clus>
</clustering>
</event>
<event>
 6    1  0.9254630E-012  0.3000000E+03  0.7818608E-02  0.1093470E+00
          1   -1    0    0  502    0  0.00000000000E+00  0.00000000000E+00  0.22539153475E+03  0.22539153475E+03  0.00000000000E+00 0.  1.
         13   -1    0    0    0    0 -0.00000000000E+00 -0.00000000000E+00 -0.27500000000E+03  0.27500000000E+03  0.00000000000E+00 0.  1.
    9000005    2    1    2  501    0  0.64943714181E+01  0.32088179453E+02 -0.40794727449E+02  0.46648710886E+03  0.46354523493E+03 0.  0.
         13    1    3    3    0    0  0.19560067236E+03 -0.11335741378E+03 -0.16235102401E+02  0.22665635848E+03  0.00000000000E+00 0.  1.
          3    1    3    3  501    0 -0.18910630095E+03  0.14544559323E+03 -0.24559625048E+02  0.23983075039E+03  0.00000000000E+00 0.  1.
         21    1    1    2  502  501 -0.64943714181E+01 -0.32088179453E+02 -0.88137378018E+01  0.33904425888E+02  0.00000000000E+00 0.  1.
<scales pt_clust_4="550.00000" pt_clust_5="550.00000" pt_clust_6="32.73880"></scales>
<mgrwt>
<rscale>  0 0.30000000E+03</rscale>
<asrwt>  1 0.32738803E+02</asrwt>
<pdfrwt beam="1">  1        1 0.81960558E+00 0.30000000E+03</pdfrwt>
<pdfrwt beam="2">0</pdfrwt>
<totfact> 0.73820382E-04</totfact>
</mgrwt>
<clustering>
<clus scale="   32.739">  1  6  2 -1</clus>
<clus scale="  463.545">  4  5 -1 -1</clus>
<clus scale="  300.000">  1  4  2 -1</clus>
</clustering>
</event>
<event>
 6    1  0.9254630E-012  0.3000000E+03  0.7818608E-02  0.1093470E+00
          1   -1    0    0  502    0  0.00000000000E+00  0.00000000000E+00  0.22293103664E+03  0.22293103664E+03  0.00000000000E+00 0.  1.
         13   -1    0    0    0    0 -0.00000000000E+00 -0.00000000000E+00 -0.27500000000E+03  0.27500000000E+03  0.00000000000E+00 0.  1.
    9000005    2    1    2  501    0 -0.36538363608E+02 -0.15387339214E+00 -0.46320696324E+02  0.46094295389E+03  0.45715175176E+03 0.  0.
         13    1    3    3    0    0 -0.22769539876E+03  0.61425769447E+02 -0.95075530676E+02  0.25427873741E+03  0.00000000000E+00 0.  1.
          1    1    3    3  501    0  0.19115703515E+03 -0.61579642839E+02  0.48754834352E+02  0.20666421647E+03  0.00000000000E+00 0.  1.
         21    1    1    2  502  501  0.36538363608E+02  0.15387339214E+00 -0.57482670317E+01  0.36988082757E+02  0.00000000000E+00 0. -1.
<scales pt_clust_4="550.00000" pt_clust_5="550.00000" pt_clust_6="36.53871"></scales>
<mgrwt>
<rscale>  0 0.30000000E+03</rscale>
<asrwt>  1 0.36538706E+02</asrwt>
<pdfrwt beam="1">  1        1 0.81065832E+00 0.30000000E+03</pdfrwt>
<pdfrwt beam="2">0</pdfrwt>
<totfact> 0.85499702E-04</totfact>
</mgrwt>
<clustering>
<clus scale="   36.539">  1  6  2 -1</clus>
<clus scale="  457.152">  4  5 -1 -1</clus>
<clus scale="  300.000">  1  4  2 -1</clus>
</clustering>
</event>
<event>
 6    1  0.9254630E-012  0.3000000E+03  0.7818608E-02  0.1093470E+00
          1   -1    0    0  502    0  0.00000000000E+00  0.00000000000E+00  0.24486159848E+03  0.24486159848E+03  0.00000000000E+00 0.  1.
         13   -1    0    0    0    0 -0.00000000000E+00 -0.00000000000E+00 -0.27500000000E+03  0.27500000000E+03  0.00000000000E+00 0.  1.
    9000005    2    1    2  501    0 -0.12181441029E+02  0.37381006859E+02 -0.35456633121E+02  0.48018779394E+03  0.47726032460E+03 0.  0.
         13    1    3    3    0    0 -0.59452539829E+02  0.14878093359E+03 -0.21225670375E+03  0.26593848721E+03  0.00000000000E+00 0.  1.
          1    1    3    3  501    0  0.47271098799E+02 -0.11139992673E+03  0.17680007063E+03  0.21424930673E+03  0.00000000000E+00 0.  1.
         21    1    1    2  502  501  0.12181441029E+02 -0.37381006859E+02  0.53182315977E+01  0.39673804540E+02  0.00000000000E+00 0.  1.
<scales pt_clust_4="550.00000" pt_clust_5="550.00000" pt_clust_6="39.31574"></scales>
<mgrwt>
<rscale>  0 0.30000000E+03</rscale>
<asrwt>  1 0.39315737E+02</asrwt>
<pdfrwt beam="1">  1        1 0.89040581E+00 0.30000000E+03</pdfrwt>
<pdfrwt beam="2">0</pdfrwt>
<totfact> 0.14012703E-04</totfact>
</mgrwt>
<clustering>
<clus scale="   39.316">  1  6  2 -1</clus>
<clus scale="  477.260">  4  5 -1 -1</clus>
<clus scale="  300.000">  1  4  2 -1</clus>
</clustering>
</event>
<event>
 6    1  0.9254630E-012  0.3000000E+03  0.7818608E-02  0.1093470E+00
          1   -1    0    0  502    0  0.00000000000E+00  0.00000000000E+00  0.24791430142E+03  0.24791430142E+03  0.00000000000E+00 0.  1.
         13   -1    0    0    0    0 -0.00000000000E+00 -0.00000000000E+00 -0.27500000000E+03  0.27500000000E+03  0.00000000000E+00 0.  1.
    9000005    2    1    2  501    0 -0.35199406798E+02 -0.21710733989E+02 -0.19967597189E+02  0.48094977382E+03  0.47875215487E+03 0.  0.
         13    1    3    3    0    0  0.16082902785E+03 -0.14516450234E+03 -0.96220775630E+02  0.23705937358E+03  0.00000000000E+00 0.  1.
          3    1    3    3  501    0 -0.19602843465E+03  0.12345376835E+03  0.76253178440E+02  0.24389040024E+03  0.00000000000E+00 0.  1.
         21    1    1    2  502  501  0.35199406798E+02  0.21710733989E+02 -0.71181013917E+01  0.41964527600E+02  0.00000000000E+00 0.  1.
<scales pt_clust_4="550.00000" pt_clust_5="550.00000" pt_clust_6="41.35645"></scales>
<mgrwt>
<rscale>  0 0.30000000E+03</rscale>
<asrwt>  1 0.41356450E+02</asrwt>
<pdfrwt beam="1">  1        1 0.90150655E+00 0.30000000E+03</pdfrwt>
<pdfrwt beam="2">0</pdfrwt>
<totfact> 0.10229947E-04</totfact>
</mgrwt>
<clustering>
<clus scale="   41.356">  1  6  2 -1</clus>
<clus scale="  478.752">  4  5 -1 -1</clus>
<clus scale="  300.000">  1  4  2 -1</clus>
</clustering>
</event>
<event>
 6    1  0.9254630E-012  0.3000000E+03  0.7818608E-02  0.1093470E+00
          1   -1    0    0  502    0  0.00000000000E+00  0.00000000000E+00  0.24690244555E+03  0.24690244555E+03  0.00000000000E+00 0.  1.
         13   -1    0    0    0    0 -0.00000000000E+00 -0.00000000000E+00 -0.27500000000E+03  0.27500000000E+03  0.00000000000E+00 0.  1.
    9000005    2    1    2  501    0 -0.35893898754E+02 -0.10900167761E+02 -0.25541479005E+02  0.48430298882E+03  0.48217199442E+03 0.  0.
         13    1    3    3    0    0  0.81210304189E+02  0.21437072405E+03 -0.23123681016E+02  0.23040101011E+03  0.00000000000E+00 0.  1.
          3    1    3    3  501    0 -0.11710420294E+03 -0.22527089181E+03 -0.24177979892E+01  0.25390197871E+03  0.00000000000E+00 0.  1.
         21    1    1    2  502  501  0.35893898754E+02  0.10900167761E+02 -0.25560754443E+01  0.37599456734E+02  0.00000000000E+00 0.  1.
<scales pt_clust_4="550.00000" pt_clust_5="550.00000" pt_clust_6="37.51249"></scales>
<mgrwt>
<rscale>  0 0.30000000E+03</rscale>
<asrwt>  1 0.37512492E+02</asrwt>
<pdfrwt beam="1">  1        1 0.89782707E+00 0.30000000E+03</pdfrwt>
<pdfrwt beam="2">0</pdfrwt>
<totfact> 0.11571946E-04</totfact>
</mgrwt>
<clustering>
<clus scale="   37.512">  1  6  2 -1</clus>
<clus scale="  482.172">  4  5 -1 -1</clus>
<clus scale="  300.000">  1  4  2 -1</clus>
</clustering>
</event>
<event>
 6    1  0.9254630E-012  0.3000000E+03  0.7818608E-02  0.1093470E+00
          1   -1    0    0  502    0  0.00000000000E+00  0.00000000000E+00  0.23096380701E+03  0.23096380701E+03  0.00000000000E+00 0.  1.
         13   -1    0    0    0    0 -0.00000000000E+00 -0.00000000000E+00 -0.27500000000E+03  0.27500000000E+03  0.00000000000E+00 0.  1.
    9000005    2    1    2  501    0  0.37218460518E+02 -0.87265353428E+01 -0.60271502986E+02  0.46443127141E+03  0.45891435538E+03 0.  0.
         13    1    3    3    0    0 -0.19415986118E+03  0.34733199053E+02 -0.10702738403E+03  0.22440879605E+03  0.00000000000E+00 0.  1.
          3    1    3    3  501    0  0.23137832170E+03 -0.43459734396E+02  0.46755881043E+02  0.24002247536E+03  0.00000000000E+00 0.  1.
         21    1    1    2  502  501 -0.37218460518E+02  0.87265353428E+01  0.16235309995E+02  0.41532535597E+02  0.00000000000E+00 0. -1.
<scales pt_clust_4="550.00000" pt_clust_5="550.00000" pt_clust_6="38.22782"></scales>
<mgrwt>
<rscale>  0 0.30000000E+03</rscale>
<asrwt>  1 0.38227820E+02</asrwt>
<pdfrwt beam="1">  1        1 0.83986839E+00 0.30000000E+03</pdfrwt>
<pdfrwt beam="2">0</pdfrwt>
<totfact> 0.49010886E-04</totfact>
</mgrwt>
<clustering>
<clus scale="   38.228">  1  6  2 -1</clus>
<clus scale="  458.914">  4  5 -1 -1</clus>
<clus scale="  300.000">  1  4  2 -1</clus>
</clustering>
</event>
<event>
 6    1  0.9254630E-012  0.3000000E+03  0.7818608E-02  0.1093470E+00
          1   -1    0    0  502    0  0.00000000000E+00  0.00000000000E+00  0.24517047591E+03  0.24517047591E+03  0.00000000000E+00 0.  1.
         13   -1    0    0    0    0 -0.00000000000E+00 -0.00000000000E+00 -0.27500000000E+03  0.27500000000E+03  0.00000000000E+00 0.  1.
    9000005    2    1    2  501    0  0.25781764689E+02  0.28088733077E+02 -0.42538054215E+02  0.47998113585E+03  0.47656975187E+03 0.  0.
         13    1    3    3    0    0 -0.12617419826E+02  0.21181348441E+03 -0.15354581744E+03  0.26191691338E+03  0.00000000000E+00 0.  1.
          3    1    3    3  501    0  0.38399184515E+02 -0.18372475134E+03  0.11100776322E+03  0.21806422247E+03  0.00000000000E+00 0.  1.
         21    1    1    2  502  501 -0.25781764689E+02 -0.28088733077E+02  0.12708530121E+02  0.40189340056E+02  0.00000000000E+00 0. -1.
<scales pt_clust_4="550.00000" pt_clust_5="550.00000" pt_clust_6="38.12711"></scales>
<mgrwt>
<rscale>  0 0.30000000E+03</rscale>
<asrwt>  1 0.38127107E+02</asrwt>
<pdfrwt beam="1">  1        1 0.89152900E+00 0.30000000E+03</pdfrwt>
<pdfrwt beam="2">0</pdfrwt>
<totfact> 0.13631699E-04</totfact>
</mgrwt>
<clustering>
<clus scale="   38.127">  1  6  2 -1</clus>
<clus scale="  476.570">  4  5 -1 -1</clus>
<clus scale="  300.000">  1  4  2 -1</clus>
</clustering>
</event>
<event>
 6    1  0.9254630E-012  0.3000000E+03  0.7818608E-02  0.1093470E+00
          1   -1    0    0  502    0  0.00000000000E+00  0.00000000000E+00  0.24888852270E+03  0.24888852270E+03  0.00000000000E+00 0.  1.
         13   -1    0    0    0    0 -0.00000000000E+00 -0.00000000000E+00 -0.27500000000E+03  0.27500000000E+03  0.00000000000E+00 0.  1.
    9000005    2    1    2  501    0 -0.29641259022E+02 -0.12898716231E+02 -0.24148571963E+02  0.49150281421E+03  0.48984373195E+03 0.  0.
         13    1    3    3    0    0 -0.60466119924E+02 -0.13574087284E+03 -0.21566133641E+03  0.26189988209E+03  0.00000000000E+00 0.  1.
          3    1    3    3  501    0  0.30824860901E+02  0.12284215660E+03  0.19151276445E+03  0.22960293212E+03  0.00000000000E+00 0.  1.
         21    1    1    2  502  501  0.29641259022E+02  0.12898716231E+02 -0.19629053410E+01  0.32385708487E+02  0.00000000000E+00 0. -1.
<scales pt_clust_4="550.00000" pt_clust_5="550.00000" pt_clust_6="32.32618"></scales>
<mgrwt>
<rscale>  0 0.30000000E+03</rscale>
<asrwt>  1 0.32326184E+02</asrwt>
<pdfrwt beam="1">  1        1 0.90504917E+00 0.30000000E+03</pdfrwt>
<pdfrwt beam="2">0</pdfrwt>
<totfact> 0.93658723E-05</totfact>
</mgrwt>
<clustering>
<clus scale="   32.326">  1  6  2 -1</clus>
<clus scale="  489.844">  4  5 -1 -1</clus>
<clus scale="  300.000">  1  4  2 -1</clus>
</clustering>
</event>
<event>
 6    1  0.9254630E-012  0.3000000E+03  0.7818608E-02  0.1093470E+00
          1   -1    0    0  502    0  0.00000000000E+00  0.00000000000E+00  0.23055142349E+03  0.23055142349E+03  0.00000000000E+00 0.  1.
         13   -1    0    0    0    0 -0.00000000000E+00 -0.00000000000E+00 -0.27500000000E+03  0.27500000000E+03  0.00000000000E+00 0.  1.
    9000005    2    1    2  501    0  0.90262551377E+01  0.33658048252E+02 -0.37085408708E+02  0.46993466150E+03  0.46717119030E+03 0.  0.
         13    1    3    3    0    0  0.18255855624E+02  0.22897622849E+03  0.78553691969E+02  0.24276340746E+03  0.00000000000E+00 0.  1.
          1    1    3    3  501    0 -0.92296004864E+01 -0.19531818024E+03 -0.11563910068E+03  0.22717125404E+03  0.00000000000E+00 0.  1.
         21    1    1    2  502  501 -0.90262551377E+01 -0.33658048252E+02 -0.73631678060E+01  0.35616761982E+02  0.00000000000E+00 0.  1.
<scales pt_clust_4="550.00000" pt_clust_5="550.00000" pt_clust_6="34.84736"></scales>
<mgrwt>
<rscale>  0 0.30000000E+03</rscale>
<asrwt>  1 0.34847363E+02</asrwt>
<pdfrwt beam="1">  1        1 0.83836881E+00 0.30000000E+03</pdfrwt>
<pdfrwt beam="2">0</pdfrwt>
<totfact> 0.51168441E-04</totfact>
</mgrwt>
<clustering>
<clus scale="   34.847">  1  6  2 -1</clus>
<clus scale="  467.171">  4  5 -1 -1</clus>
<clus scale="  300.000">  1  4  2 -1</clus>
</clustering>
</event>
<event>
 6    1  0.9254630E-012  0.3000000E+03  0.7818608E-02  0.1093470E+00
          1   -1    0    0  502    0  0.00000000000E+00  0.00000000000E+00  0.23146543137E+03  0.23146543137E+03  0.00000000000E+00 0.  1.
         13   -1    0    0    0    0 -0.00000000000E+00 -0.00000000000E+00 -0.27500000000E+03  0.27500000000E+03  0.00000000000E+00 0.  1.
    9000005    2    1    2  501    0 -0.30468817094E+02 -0.16604605824E+02 -0.47482162242E+02  0.47154201165E+03  0.46786029033E+03 0.  0.
         13    1    3    3    0    0 -0.57609666008E+02 -0.14974985400E+03  0.15800661315E+03  0.22518877013E+03  0.00000000000E+00 0.  1.
          1    1    3    3  501    0  0.27140848914E+02  0.13314524818E+03 -0.20548877540E+03  0.24635324152E+03  0.00000000000E+00 0.  1.
         21    1    1    2  502  501  0.30468817094E+02  0.16604605824E+02  0.39475936086E+01  0.34923419721E+02  0.00000000000E+00 0.  1.
<scales pt_clust_4="550.00000" pt_clust_5="550.00000" pt_clust_6="34.69959"></scales>
<mgrwt>
<rscale>  0 0.30000000E+03</rscale>
<asrwt>  1 0.34699593E+02</asrwt>
<pdfrwt beam="1">  1        1 0.84169248E+00 0.30000000E+03</pdfrwt>
<pdfrwt beam="2">0</pdfrwt>
<totfact> 0.48274301E-04</totfact>
</mgrwt>
<clustering>
<clus scale="   34.700">  1  6  2 -1</clus>
<clus scale="  467.860">  4  5 -1 -1</clus>
<clus scale="  300.000">  1  4  2 -1</clus>
</clustering>
</event>
<event>
 6    1  0.9254630E-012  0.3000000E+03  0.7818608E-02  0.1093470E+00
          1   -1    0    0  502    0  0.00000000000E+00  0.00000000000E+00  0.22867569739E+03  0.22867569739E+03  0.00000000000E+00 0.  1.
         13   -1    0    0    0    0 -0.00000000000E+00 -0.00000000000E+00 -0.27500000000E+03  0.27500000000E+03  0.00000000000E+00 0.  1.
    9000005    2    1    2  501    0 -0.23559073956E+02  0.21082281220E+02 -0.27550810410E+02  0.46690700749E+03  0.46502001456E+03 0.  0.
         13    1    3    3    0    0  0.67676260584E+02 -0.18334025900E+03  0.88750794836E+02  0.21464023481E+03  0.00000000000E+00 0.  1.
          3    1    3    3  501    0 -0.91235334540E+02  0.20442254022E+03 -0.11630160525E+03  0.25226677268E+03  0.00000000000E+00 0.  1.
         21    1    1    2  502  501  0.23559073956E+02 -0.21082281220E+02 -0.18773492201E+02  0.36768689894E+02  0.00000000000E+00 0.  1.
<scales pt_clust_4="550.00000" pt_clust_5="550.00000" pt_clust_6="31.61477"></scales>
<mgrwt>
<rscale>  0 0.30000000E+03</rscale>
<asrwt>  1 0.31614768E+02</asrwt>
<pdfrwt beam="1">  1        1 0.83154799E+00 0.30000000E+03</pdfrwt>
<pdfrwt beam="2">0</pdfrwt>
<totfact> 0.58545788E-04</totfact>
</mgrwt>
<clustering>
<clus scale="   31.615">  1  6  2 -1</clus>
<clus scale="  465.020">  4  5 -1 -1</clus>
<clus scale="  300.000">  1  4  2 -1</clus>
</clustering>
</event>
<event>
 6    1  0.9254630E-012  0.3000000E+03  0.7818608E-02  0.1093470E+00
          1   -1    0    0  502    0  0.00000000000E+00  0.00000000000E+00  0.22422453564E+03  0.22422453564E+03  0.00000000000E+00 0.  1.
         13   -1    0    0    0    0 -0.00000000000E+00 -0.00000000000E+00 -0.27500000000E+03  0.27500000000E+03  0.00000000000E+00 0.  1.
    9000005    2    1    2  501    0 -0.69653979118E+01 -0.34791519717E+02 -0.44213519284E+02  0.46314094192E+03  0.45965827544E+03 0.  0.
         13    1    3    3    0    0  0.42479526014E+02 -0.16518874354E+03  0.14789320550E+03  0.22575258881E+03  0.00000000000E+00 0.  1.
          3    1    3    3  501    0 -0.49444923925E+02  0.13039722383E+03 -0.19210672478E+03  0.23738835311E+03  0.00000000000E+00 0.  1.
         21    1    1    2  502  501  0.69653979118E+01  0.34791519717E+02 -0.65619450800E+01  0.36083593716E+02  0.00000000000E+00 0.  1.
<scales pt_clust_4="550.00000" pt_clust_5="550.00000" pt_clust_6="35.48194"></scales>
<mgrwt>
<rscale>  0 0.30000000E+03</rscale>
<asrwt>  1 0.35481937E+02</asrwt>
<pdfrwt beam="1">  1        1 0.81536195E+00 0.30000000E+03</pdfrwt>
<pdfrwt beam="2">0</pdfrwt>
<totfact> 0.78867279E-04</totfact>
</mgrwt>
<clustering>
<clus scale="   35.482">  1  6  2 -1</clus>
<clus scale="  459.658">  4  5 -1 -1</clus>
<clus scale="  300.000">  1  4  2 -1</clus>
</clustering>
</event>
<event>
 6    1  0.9254630E-012  0.3000000E+03  0.7818608E-02  0.1093470E+00
          1   -1    0    0  502    0  0.00000000000E+00  0.00000000000E+00  0.22942068619E+03  0.22942068619E+03  0.00000000000E+00 0.  1.
         13   -1    0    0    0    0 -0.00000000000E+00 -0.00000000000E+00 -0.27500000000E+03  0.27500000000E+03  0.00000000000E+00 0.  1.
    9000005    2    1    2  501    0  0.73921638117E+01 -0.32541363725E+02 -0.69969812439E+02  0.46308691232E+03  0.45655243869E+03 0.  0.
         13    1    3    3    0    0  0.19617933846E+03 -0.11409234426E+03  0.39127959329E+02  0.23029197350E+03  0.00000000000E+00 0.  1.
          1    1    3    3  501    0 -0.18878717464E+03  0.81550980539E+02 -0.10909777177E+03  0.23279493882E+03  0.00000000000E+00 0.  1.
         21    1    1    2  502  501 -0.73921638117E+01  0.32541363725E+02  0.24390498634E+02  0.41333773872E+02  0.00000000000E+00 0.  1.
<scales pt_clust_4="550.00000" pt_clust_5="550.00000" pt_clust_6="33.37041"></scales>
<mgrwt>
<rscale>  0 0.30000000E+03</rscale>
<asrwt>  1 0.33370413E+02</asrwt>
<pdfrwt beam="1">  1        1 0.83425704E+00 0.30000000E+03</pdfrwt>
<pdfrwt beam="2">0</pdfrwt>
<totfact> 0.55274595E-04</totfact>
</mgrwt>
<clustering>
<clus scale="   33.370">  1  6  2 -1</clus>
<clus scale="  456.552">  4  5 -1 -1</clus>
<clus scale="  300.000">  1  4  2 -1</clus>
</clustering>
</event>
<event>
 6    1  0.9254630E-012  0.3000000E+03  0.7818608E-02  0.1093470E+00
          1   -1    0    0  502    0  0.00000000000E+00  0.00000000000E+00  0.22524782936E+03  0.22524782936E+03  0.00000000000E+00 0.  1.
         13   -1    0    0    0    0 -0.00000000000E+00 -0.00000000000E+00 -0.27500000000E+03  0.27500000000E+03  0.00000000000E+00 0.  1.
    9000005    2    1    2  501    0 -0.18736045067E+02  0.25560288178E+02 -0.66345384031E+02  0.46447490039E+03  0.45861842025E+03 0.  0.
         13    1    3    3    0    0  0.67740494551E+02  0.22416530906E+03 -0.79908995243E+02  0.24743546210E+03  0.00000000000E+00 0.  1.
          1    1    3    3  501    0 -0.86476539618E+02 -0.19860502088E+03  0.13563611212E+02  0.21703943828E+03  0.00000000000E+00 0.  1.
         21    1    1    2  502  501  0.18736045067E+02 -0.25560288178E+02  0.16593213390E+02  0.35772928970E+02  0.00000000000E+00 0. -1.
<scales pt_clust_4="550.00000" pt_clust_5="550.00000" pt_clust_6="31.69176"></scales>
<mgrwt>
<rscale>  0 0.30000000E+03</rscale>
<asrwt>  1 0.31691761E+02</asrwt>
<pdfrwt beam="1">  1        1 0.81908302E+00 0.30000000E+03</pdfrwt>
<pdfrwt beam="2">0</pdfrwt>
<totfact> 0.75047473E-04</totfact>
</mgrwt>
<clustering>
<clus scale="   31.692">  1  6  2 -1</clus>
<clus scale="  458.618">  4  5 -1 -1</clus>
<clus scale="  300.000">  1  4  2 -1</clus>
</clustering>
</event>
<event>
 6    1  0.9254630E-012  0.3000000E+03  0.7818608E-02  0.1093470E+00
          1   -1    0    0  502    0  0.00000000000E+00  0.00000000000E+00  0.22154689946E+03  0.22154689946E+03  0.00000000000E+00 0.  1.
         13   -1    0    0    0    0 -0.00000000000E+00 -0.00000000000E+00 -0.27500000000E+03  0.27500000000E+03  0.00000000000E+00 0.  1.
    9000005    2    1    2  501    0 -0.17597063865E+02  0.28099022891E+02 -0.59916571706E+02  0.46276838256E+03  0.45767386706E+03 0.  0.
         13    1    3    3    0    0  0.20615569399E+03  0.35803871147E+02  0.47320286997E+02  0.21452574884E+03  0.00000000000E+00 0.  1.
          1    1    3    3  501    0 -0.22375275785E+03 -0.77048482564E+01 -0.10723685870E+03  0.24824263373E+03  0.00000000000E+00 0.  1.
         21    1    1    2  502  501  0.17597063865E+02 -0.28099022891E+02  0.64634711652E+01  0.33778516895E+02  0.00000000000E+00 0.  1.
<scales pt_clust_4="550.00000" pt_clust_5="550.00000" pt_clust_6="33.15436"></scales>
<mgrwt>
<rscale>  0 0.30000000E+03</rscale>
<asrwt>  1 0.33154362E+02</asrwt>
<pdfrwt beam="1">  1        1 0.80562509E+00 0.30000000E+03</pdfrwt>
<pdfrwt beam="2">0</pdfrwt>
<totfact> 0.95221771E-04</totfact>
</mgrwt>
<clustering>
<clus scale="   33.154">  1  6  2 -1</clus>
<clus scale="  457.674">  4  5 -1 -1</clus>
<clus scale="  300.000">  1  4  2 -1</clus>
</clustering>
</event>
<event>
 6    1  0.9254630E-012  0.3000000E+03  0.7818608E-02  0.1093470E+00
          1   -1    0    0  502    0  0.00000000000E+00  0.00000000000E+00  0.23468060605E+03  0.23468060605E+03  0.00000000000E+00 0.  1.
         13   -1    0    0    0    0 -0.00000000000E+00 -0.00000000000E+00 -0.27500000000E+03  0.27500000000E+03  0.00000000000E+00 0.  1.
    9000005    2    1    2  501    0 -0.17806334967E+02  0.26150918677E+02 -0.33453974933E+02  0.47730669540E+03  0.47508060045E+03 0.  0.
         13    1    3    3    0    0 -0.92066359217E+02  0.12447743010E+03  0.17593163536E+03  0.23435610814E+03  0.00000000000E+00 0.  1.
          1    1    3    3  501    0  0.74260024250E+02 -0.98326511424E+02 -0.20938561029E+03  0.24295058726E+03  0.00000000000E+00 0.  1.
         21    1    1    2  502  501  0.17806334967E+02 -0.26150918677E+02 -0.68654190159E+01  0.32373910652E+02  0.00000000000E+00 0.  1.
<scales pt_clust_4="550.00000" pt_clust_5="550.00000" pt_clust_6="31.63759"></scales>
<mgrwt>
<rscale>  0 0.30000000E+03</rscale>
<asrwt>  1 0.31637590E+02</asrwt>
<pdfrwt beam="1">  1        1 0.85338402E+00 0.30000000E+03</pdfrwt>
<pdfrwt beam="2">0</pdfrwt>
<totfact> 0.38509801E-04</totfact>
</mgrwt>
<clustering>
<clus scale="   31.638">  1  6  2 -1</clus>
<clus scale="  475.081">  4  5 -1 -1</clus>
<clus scale="  300.000">  1  4  2 -1</clus>
</clustering>
</event>
<event>
 6    1  0.9254630E-012  0.3000000E+03  0.7818608E-02  0.1093470E+00
          1   -1    0    0  502    0  0.00000000000E+00  0.00000000000E+00  0.23188993372E+03  0.23188993372E+03  0.00000000000E+00 0.  1.
         13   -1    0    0    0    0 -0.00000000000E+00 -0.00000000000E+00 -0.27500000000E+03  0.27500000000E+03  0.00000000000E+00 0.  1.
    9000005    2    1    2  501    0 -0.45089411667E+01  0.38325166073E+02 -0.29930985873E+02  0.46611203449E+03  0.46354656279E+03 0.  0.
         13    1    3    3    0    0  0.97759281234E+02  0.53251822870E+02 -0.22180495885E+03  0.24817347456E+03  0.00000000000E+00 0.  1.
          1    1    3    3  501    0 -0.10226822240E+03 -0.14926656797E+02  0.19187397298E+03  0.21793855992E+03  0.00000000000E+00 0.  1.
         21    1    1    2  502  501  0.45089411667E+01 -0.38325166073E+02 -0.13179080411E+02  0.40777899228E+02  0.00000000000E+00 0.  1.
<scales pt_clust_4="550.00000" pt_clust_5="550.00000" pt_clust_6="38.58951"></scales>
<mgrwt>
<rscale>  0 0.30000000E+03</rscale>
<asrwt>  1 0.38589511E+02</asrwt>
<pdfrwt beam="1">  1        1 0.84323612E+00 0.30000000E+03</pdfrwt>
<pdfrwt beam="2">0</pdfrwt>
<totfact> 0.45949880E-04</totfact>
</mgrwt>
<clustering>
<clus scale="   38.590">  1  6  2 -1</clus>
<clus scale="  463.547">  4  5 -1 -1</clus>
<clus scale="  300.000">  1  4  2 -1</clus>
</clustering>
</event>
<event>
 6    1  0.9254630E-012  0.3000000E+03  0.7818608E-02  0.1093470E+00
          1   -1    0    0  502    0  0.00000000000E+00  0.00000000000E+00  0.22257068388E+03  0.22257068388E+03  0.00000000000E+00 0.  1.
         13   -1    0    0    0    0 -0.00000000000E+00 -0.00000000000E+00 -0.27500000000E+03  0.27500000000E+03  0.00000000000E+00 0.  1.
    9000005    2    1    2  501    0  0.22481875324E+02 -0.24611806023E+02 -0.32680641290E+02  0.45882554390E+03  0.45644460749E+03 0.  0.
         13    1    3    3    0    0  0.21615738022E+03 -0.47035770447E+02  0.78080664867E+02  0.23459106324E+03  0.00000000000E+00 0.  1.
          3    1    3    3  501    0 -0.19367550490E+03  0.22423964424E+02 -0.11076130616E+03  0.22423448067E+03  0.00000000000E+00 0.  1.
         21    1    1    2  502  501 -0.22481875324E+02  0.24611806023E+02 -0.19748674833E+02  0.38745139972E+02  0.00000000000E+00 0.  1.
<scales pt_clust_4="550.00000" pt_clust_5="550.00000" pt_clust_6="33.33432"></scales>
<mgrwt>
<rscale>  0 0.30000000E+03</rscale>
<asrwt>  1 0.33334319E+02</asrwt>
<pdfrwt beam="1">  1        1 0.80934794E+00 0.30000000E+03</pdfrwt>
<pdfrwt beam="2">0</pdfrwt>
<totfact> 0.89051770E-04</totfact>
</mgrwt>
<clustering>
<clus scale="   33.334">  1  6  2 -1</clus>
<clus scale="  456.445">  4  5 -1 -1</clus>
<clus scale="  300.000">  1  4  2 -1</clus>
</clustering>
</event>
<event>
 6    1  0.9254630E-012  0.3000000E+03  0.7818608E-02  0.1093470E+00
          1   -1    0    0  502    0  0.00000000000E+00  0.00000000000E+00  0.24958932305E+03  0.24958932305E+03  0.00000000000E+00 0.  1.
         13   -1    0    0    0    0 -0.00000000000E+00 -0.00000000000E+00 -0.27500000000E+03  0.27500000000E+03  0.00000000000E+00 0.  1.
    9000005    2    1    2  501    0 -0.35290263883E+02  0.87349188777E+01 -0.73390107636E+02  0.46439192027E+03  0.45711272809E+03 0.  0.
         13    1    3    3    0    0 -0.22253353954E+03  0.10710473584E+03 -0.35237135131E+02  0.24946794655E+03  0.00000000000E+00 0.  1.
          1    1    3    3  501    0  0.18724327566E+03 -0.98369816965E+02 -0.38152972504E+02  0.21492397372E+03  0.00000000000E+00 0.  1.
         21    1    1    2  502  501  0.35290263883E+02 -0.87349188777E+01  0.47979430690E+02  0.60197402785E+02  0.00000000000E+00 0.  1.
<scales pt_clust_4="550.00000" pt_clust_5="550.00000" pt_clust_6="36.35521"></scales>
<mgrwt>
<rscale>  0 0.30000000E+03</rscale>
<asrwt>  1 0.36355213E+02</asrwt>
<pdfrwt beam="1">  1        1 0.90759754E+00 0.30000000E+03</pdfrwt>
<pdfrwt beam="2">0</pdfrwt>
<totfact> 0.81175702E-05</totfact>
</mgrwt>
<clustering>
<clus scale="   36.355">  1  6  2 -1</clus>
<clus scale="  457.113">  4  5 -1 -1</clus>
<clus scale="  300.000">  1  4  2 -1</clus>
</clustering>
</event>
<event>
 6    1  0.9254630E-012  0.3000000E+03  0.7818608E-02  0.1093470E+00
          1   -1    0    0  502    0  0.00000000000E+00  0.00000000000E+00  0.24329655150E+03  0.24329655150E+03  0.00000000000E+00 0.  1.
         13   -1    0    0    0    0 -0.00000000000E+00 -0.00000000000E+00 -0.27500000000E+03  0.27500000000E+03  0.00000000000E+00 0.  1.
    9000005    2    1    2  501    0  0.76114639697E+01  0.34539145645E+02 -0.28140626435E+02  0.48274967166E+03  0.48062923722E+03 0.  0.
         13    1    3    3    0    0 -0.11905116157E+03 -0.22588748501E+02 -0.21684618856E+03  0.24840632062E+03  0.00000000000E+00 0.  1.
          1    1    3    3  501    0  0.12666262554E+03  0.57127894146E+02  0.18870556213E+03  0.23434335104E+03  0.00000000000E+00 0.  1.
         21    1    1    2  502  501 -0.76114639697E+01 -0.34539145645E+02 -0.35628220607E+01  0.35546879845E+02  0.00000000000E+00 0. -1.
<scales pt_clust_4="550.00000" pt_clust_5="550.00000" pt_clust_6="35.36790"></scales>
<mgrwt>
<rscale>  0 0.30000000E+03</rscale>
<asrwt>  1 0.35367898E+02</asrwt>
<pdfrwt beam="1">  1        1 0.88471473E+00 0.30000000E+03</pdfrwt>
<pdfrwt beam="2">0</pdfrwt>
<totfact> 0.17090562E-04</totfact>
</mgrwt>
<clustering>
<clus scale="   35.368">  1  6  2 -1</clus>
<clus scale="  480.629">  4  5 -1 -1</clus>
<clus scale="  300.000">  1  4  2 -1</clus>
</clustering>
</event>
<event>
 6    1  0.9254630E-012  0.3000000E+03  0.7818608E-02  0.1093470E+00
          1   -1    0    0  502    0  0.00000000000E+00  0.00000000000E+00  0.22981673379E+03  0.22981673379E+03  0.00000000000E+00 0.  1.
         13   -1    0    0    0    0 -0.00000000000E+00 -0.00000000000E+00 -0.27500000000E+03  0.27500000000E+03  0.00000000000E+00 0.  1.
    9000005    2    1    2  501    0  0.19626784042E+02 -0.39312890047E+02 -0.41168973747E+02  0.46069385401E+03  0.45674197174E+03 0.  0.
         13    1    3    3    0    0 -0.12759881196E+03 -0.16629568597E+03  0.87939061841E+02  0.22730814016E+03  0.00000000000E+00 0.  1.
          1    1    3    3  501    0  0.14722559600E+03  0.12698279592E+03 -0.12910803559E+03  0.23338571385E+03  0.00000000000E+00 0.  1.
         21    1    1    2  502  501 -0.19626784042E+02  0.39312890047E+02 -0.40142924643E+01  0.44122879775E+02  0.00000000000E+00 0. -1.
<scales pt_clust_4="550.00000" pt_clust_5="550.00000" pt_clust_6="43.93991"></scales>
<mgrwt>
<rscale>  0 0.30000000E+03</rscale>
<asrwt>  1 0.43939912E+02</asrwt>
<pdfrwt beam="1">  1        1 0.83569721E+00 0.30000000E+03</pdfrwt>
<pdfrwt beam="2">0</pdfrwt>
<totfact> 0.51288356E-04</totfact>
</mgrwt>
<clustering>
<clus scale="   43.940">  1  6  2 -1</clus>
<clus scale="  456.742">  4  5 -1 -1</clus>
<clus scale="  300.000">  1  4  2 -1</clus>
</clustering>
</event>
<event>
 6    1  0.9254630E-012  0.3000000E+03  0.7818608E-02  0.1093470E+00
          1   -1    0    0  502    0  0.00000000000E+00  0.00000000000E+00  0.23830160863E+03  0.23830160863E+03  0.00000000000E+00 0.  1.
         13   -1    0    0    0    0 -0.00000000000E+00 -0.00000000000E+00 -0.27500000000E+03  0.27500000000E+03  0.00000000000E+00 0.  1.
    9000005    2    1    2  501    0 -0.30426641960E+02 -0.41524617881E+01 -0.26829841366E+02  0.48104619422E+03  0.47931469527E+03 0.  0.
         13    1    3    3    0    0 -0.17359136718E+03 -0.62516264635E+02 -0.18400564843E+03  0.26057690757E+03  0.00000000000E+00 0.  1.
          1    1    3    3  501    0  0.14316472522E+03  0.58363802847E+02  0.15717580706E+03  0.22046928665E+03  0.00000000000E+00 0.  1.
         21    1    1    2  502  501  0.30426641960E+02  0.41524617881E+01 -0.98685500009E+01  0.32255414413E+02  0.00000000000E+00 0. -1.
<scales pt_clust_4="550.00000" pt_clust_5="550.00000" pt_clust_6="30.70870"></scales>
<mgrwt>
<rscale>  0 0.30000000E+03</rscale>
<asrwt>  1 0.30708703E+02</asrwt>
<pdfrwt beam="1">  1        1 0.86655130E+00 0.30000000E+03</pdfrwt>
<pdfrwt beam="2">0</pdfrwt>
<totfact> 0.28189539E-04</totfact>
</mgrwt>
<clustering>
<clus scale="   30.709">  1  6  2 -1</clus>
<clus scale="  479.315">  4  5 -1 -1</clus>
<clus scale="  300.000">  1  4  2 -1</clus>
</clustering>
</event>
<event>
 6    1  0.9254630E-012  0.3000000E+03  0.7818608E-02  0.1093470E+00
          1   -1    0    0  502    0  0.00000000000E+00  0.00000000000E+00  0.25330627767E+03  0.25330627767E+03  0.00000000000E+00 0.  1.
         13   -1    0    0    0    0 -0.00000000000E+00 -0.00000000000E+00 -0.27500000000E+03  0.27500000000E+03  0.00000000000E+00 0.  1.
    9000005    2    1    2  501    0 -0.14952837532E+02 -0.30184337757E+02 -0.34188533599E+02  0.49237854598E+03  0.49003376936E+03 0.  0.
         13    1    3    3    0    0 -0.18326150013E+03  0.12127116004E+03 -0.11983098595E+03  0.25030169173E+03  0.00000000000E+00 0.  1.
          1    1    3    3  501    0  0.16830866260E+03 -0.15145549780E+03  0.85642452347E+02  0.24207685425E+03  0.00000000000E+00 0.  1.
         21    1    1    2  502  501  0.14952837532E+02  0.30184337757E+02  0.12494811270E+02  0.35927731695E+02  0.00000000000E+00 0. -1.
<scales pt_clust_4="550.00000" pt_clust_5="550.00000" pt_clust_6="33.68504"></scales>
<mgrwt>
<rscale>  0 0.30000000E+03</rscale>
<asrwt>  1 0.33685035E+02</asrwt>
<pdfrwt beam="1">  1        1 0.92111374E+00 0.30000000E+03</pdfrwt>
<pdfrwt beam="2">0</pdfrwt>
<totfact> 0.39838830E-05</totfact>
</mgrwt>
<clustering>
<clus scale="   33.685">  1  6  2 -1</clus>
<clus scale="  490.034">  4  5 -1 -1</clus>
<clus scale="  300.000">  1  4  2 -1</clus>
</clustering>
</event>
<event>
 6    1  0.9254630E-012  0.3000000E+03  0.7818608E-02  0.1093470E+00
          1   -1    0    0  502    0  0.00000000000E+00  0.00000000000E+00  0.23348800312E+03  0.23348800312E+03  0.00000000000E+00 0.  1.
         13   -1    0    0    0    0 -0.00000000000E+00 -0.00000000000E+00 -0.27500000000E+03  0.27500000000E+03  0.00000000000E+00 0.  1.
    9000005    2    1    2  501    0 -0.26126096162E+02  0.20353792975E+02 -0.67670179001E+02  0.46628491933E+03  0.46015815008E+03 0.  0.
         13    1    3    3    0    0  0.31511404414E+02 -0.15075195899E+03 -0.19268881852E+03  0.24667408159E+03  0.00000000000E+00 0.  1.
          1    1    3    3  501    0 -0.57637500576E+02  0.17110575196E+03  0.12501863952E+03  0.21961083774E+03  0.00000000000E+00 0.  1.
         21    1    1    2  502  501  0.26126096162E+02 -0.20353792975E+02  0.26158182123E+02  0.42203083787E+02  0.00000000000E+00 0.  1.
<scales pt_clust_4="550.00000" pt_clust_5="550.00000" pt_clust_6="33.11872"></scales>
<mgrwt>
<rscale>  0 0.30000000E+03</rscale>
<asrwt>  1 0.33118723E+02</asrwt>
<pdfrwt beam="1">  1        1 0.84904728E+00 0.30000000E+03</pdfrwt>
<pdfrwt beam="2">0</pdfrwt>
<totfact> 0.41973987E-04</totfact>
</mgrwt>
<clustering>
<clus scale="   33.119">  1  6  2 -1</clus>
<clus scale="  460.158">  4  5 -1 -1</clus>
<clus scale="  300.000">  1  4  2 -1</clus>
</clustering>
</event>
<event>
 6    1  0.9254630E-012  0.3000000E+03  0.7818608E-02  0.1093470E+00
          1   -1    0    0  502    0  0.00000000000E+00  0.00000000000E+00  0.24090875133E+03  0.24090875133E+03  0.00000000000E+00 0.  1.
         13   -1    0    0    0    0 -0.00000000000E+00 -0.00000000000E+00 -0.27500000000E+03  0.27500000000E+03  0.00000000000E+00 0.  1.
    9000005    2    1    2  501    0 -0.28270158702E+02  0.17671635659E+02 -0.57673580775E+02  0.47507230967E+03  0.47037853790E+03 0.  0.
         13    1    3    3    0    0 -0.22901988291E+03  0.67097500482E+02  0.47169075178E+02  0.24326344360E+03  0.00000000000E+00 0.  1.
          3    1    3    3  501    0  0.20074972421E+03 -0.49425864823E+02 -0.10484265595E+03  0.23180886607E+03  0.00000000000E+00 0.  1.
         21    1    1    2  502  501  0.28270158702E+02 -0.17671635659E+02  0.23582332110E+02  0.40836441662E+02  0.00000000000E+00 0. -1.
<scales pt_clust_4="550.00000" pt_clust_5="550.00000" pt_clust_6="33.33899"></scales>
<mgrwt>
<rscale>  0 0.30000000E+03</rscale>
<asrwt>  1 0.33338995E+02</asrwt>
<pdfrwt beam="1">  1        1 0.87603182E+00 0.30000000E+03</pdfrwt>
<pdfrwt beam="2">0</pdfrwt>
<totfact> 0.22129615E-04</totfact>
</mgrwt>
<clustering>
<clus scale="   33.339">  1  6  2 -1</clus>
<clus scale="  470.379">  4  5 -1 -1</clus>
<clus scale="  300.000">  1  4  2 -1</clus>
</clustering>
</event>
<event>
 6    1  0.9254630E-012  0.3000000E+03  0.7818608E-02  0.1093470E+00
          1   -1    0    0  502    0  0.00000000000E+00  0.00000000000E+00  0.22565140134E+03  0.22565140134E+03  0.00000000000E+00 0.  1.
         13   -1    0    0    0    0 -0.00000000000E+00 -0.00000000000E+00 -0.27500000000E+03  0.27500000000E+03  0.00000000000E+00 0.  1.
    9000005    2    1    2  501    0  0.27258672915E+02  0.18600778252E+02 -0.68129614188E+02  0.46268100834E+03  0.45644610519E+03 0.  0.
         13    1    3    3    0    0  0.17859418113E+03 -0.10170516126E+03  0.78533414961E+02  0.22001663261E+03  0.00000000000E+00 0.  1.
          3    1    3    3  501    0 -0.15133550821E+03  0.12030593951E+03 -0.14666302915E+03  0.24266437573E+03  0.00000000000E+00 0.  1.
         21    1    1    2  502  501 -0.27258672915E+02 -0.18600778252E+02  0.18781015528E+02  0.37970393005E+02  0.00000000000E+00 0.  1.
<scales pt_clust_4="550.00000" pt_clust_5="550.00000" pt_clust_6="33.00037"></scales>
<mgrwt>
<rscale>  0 0.30000000E+03</rscale>
<asrwt>  1 0.33000367E+02</asrwt>
<pdfrwt beam="1">  1        1 0.82055055E+00 0.30000000E+03</pdfrwt>
<pdfrwt beam="2">0</pdfrwt>
<totfact> 0.72332224E-04</totfact>
</mgrwt>
<clustering>
<clus scale="   33.000">  1  6  2 -1</clus>
<clus scale="  456.446">  4  5 -1 -1</clus>
<clus scale="  300.000">  1  4  2 -1</clus>
</clustering>
</event>
<event>
 6    1  0.9254630E-012  0.3000000E+03  0.7818608E-02  0.1093470E+00
          1   -1    0    0  502    0  0.00000000000E+00  0.00000000000E+00  0.26900862556E+03  0.26900862556E+03  0.00000000000E+00 0.  1.
         13   -1    0    0    0    0 -0.00000000000E+00 -0.00000000000E+00 -0.27500000000E+03  0.27500000000E+03  0.00000000000E+00 0.  1.
    9000005    2    1    2  501    0 -0.32058302514E+02  0.10568843051E+02 -0.18115146772E+02  0.50814191315E+03  0.50669577673E+03 0.  0.
         13    1    3    3    0    0 -0.38668666295E+02  0.25168632153E+03 -0.64114184926E+02  0.26258693591E+03  0.00000000000E+00 0.  1.
          1    1    3    3  501    0  0.66103637811E+01 -0.24111747848E+03  0.45999038154E+02  0.24555497725E+03  0.00000000000E+00 0.  1.
         21    1    1    2  502  501  0.32058302514E+02 -0.10568843051E+02  0.12123772335E+02  0.35866712410E+02  0.00000000000E+00 0. -1.
<scales pt_clust_4="550.00000" pt_clust_5="550.00000" pt_clust_6="33.75552"></scales>
<mgrwt>
<rscale>  0 0.30000000E+03</rscale>
<asrwt>  1 0.33755521E+02</asrwt>
<pdfrwt beam="1">  1        1 0.97821318E+00 0.30000000E+03</pdfrwt>
<pdfrwt beam="2">0</pdfrwt>
<totfact> 0.33524309E-06</totfact>
</mgrwt>
<clustering>
<clus scale="   33.756">  1  6  2 -1</clus>
<clus scale="  506.696">  4  5 -1 -1</clus>
<clus scale="  300.000">  1  4  2 -1</clus>
</clustering>
</event>
<event>
 6    1  0.9254630E-012  0.3000000E+03  0.7818608E-02  0.1093470E+00
          1   -1    0    0  502    0  0.00000000000E+00  0.00000000000E+00  0.23724937760E+03  0.23724937760E+03  0.00000000000E+00 0.  1.
         13   -1    0    0    0    0 -0.00000000000E+00 -0.00000000000E+00 -0.27500000000E+03  0.27500000000E+03  0.00000000000E+00 0.  1.
    9000005    2    1    2  501    0  0.26211704806E+02 -0.31575988134E+02 -0.48293360749E+02  0.46987903624E+03  0.46558561351E+03 0.  0.
         13    1    3    3    0    0  0.11927870085E+03  0.18456127935E+03  0.30187993552E+02  0.22181431258E+03  0.00000000000E+00 0.  1.
          3    1    3    3  501    0 -0.93066996043E+02 -0.21613726749E+03 -0.78481354302E+02  0.24806472365E+03  0.00000000000E+00 0.  1.
         21    1    1    2  502  501 -0.26211704806E+02  0.31575988134E+02  0.10542738352E+02  0.42370341365E+02  0.00000000000E+00 0. -1.
<scales pt_clust_4="550.00000" pt_clust_5="550.00000" pt_clust_6="41.03774"></scales>
<mgrwt>
<rscale>  0 0.30000000E+03</rscale>
<asrwt>  1 0.41037745E+02</asrwt>
<pdfrwt beam="1">  1        1 0.86272501E+00 0.30000000E+03</pdfrwt>
<pdfrwt beam="2">0</pdfrwt>
<totfact> 0.29360102E-04</totfact>
</mgrwt>
<clustering>
<clus scale="   41.038">  1  6  2 -1</clus>
<clus scale="  465.586">  4  5 -1 -1</clus>
<clus scale="  300.000">  1  4  2 -1</clus>
</clustering>
</event>
<event>
 6    1  0.9254630E-012  0.3000000E+03  0.7818608E-02  0.1093470E+00
          1   -1    0    0  502    0  0.00000000000E+00  0.00000000000E+00  0.23443382265E+03  0.23443382265E+03  0.00000000000E+00 0.  1.
         13   -1    0    0    0    0 -0.00000000000E+00 -0.00000000000E+00 -0.27500000000E+03  0.27500000000E+03  0.00000000000E+00 0.  1.
    9000005    2    1    2  501    0  0.31904559154E+02 -0.55927524801E+00 -0.40001920244E+02  0.47751937342E+03  0.47476982284E+03 0.  0.
         13    1    3    3    0    0 -0.26100270584E+02  0.23319430271E+03 -0.10616424712E+02  0.23489043279E+03  0.00000000000E+00 0.  1.
          1    1    3    3  501    0  0.58004829737E+02 -0.23375357796E+03 -0.29385495532E+02  0.24262894063E+03  0.00000000000E+00 0.  1.
         21    1    1    2  502  501 -0.31904559154E+02  0.55927524801E+00 -0.56425710738E+00  0.31914449230E+02  0.00000000000E+00 0.  1.
<scales pt_clust_4="550.00000" pt_clust_5="550.00000" pt_clust_6="31.90946"></scales>
<mgrwt>
<rscale>  0 0.30000000E+03</rscale>
<asrwt>  1 0.31909461E+02</asrwt>
<pdfrwt beam="1">  1        1 0.85248663E+00 0.30000000E+03</pdfrwt>
<pdfrwt beam="2">0</pdfrwt>
<totfact> 0.39221173E-04</totfact>
</mgrwt>
<clustering>
<clus scale="   31.909">  1  6  2 -1</clus>
<clus scale="  474.770">  4  5 -1 -1</clus>
<clus scale="  300.000">  1  4  2 -1</clus>
</clustering>
</event>
<event>
 6    1  0.9254630E-012  0.3000000E+03  0.7818608E-02  0.1093470E+00
          1   -1    0    0  502    0  0.00000000000E+00  0.00000000000E+00  0.23440109828E+03  0.23440109828E+03  0.00000000000E+00 0.  1.
         13   -1    0    0    0    0 -0.00000000000E+00 -0.00000000000E+00 -0.27500000000E+03  0.27500000000E+03  0.00000000000E+00 0.  1.
    9000005    2    1    2  501    0 -0.43235101180E+01 -0.36267270277E+02 -0.40728703033E+02  0.47287679840E+03  0.46970164103E+03 0.  0.
         13    1    3    3    0    0 -0.16260320771E+03  0.50295885138E+02 -0.17792921919E+03  0.24622811833E+03  0.00000000000E+00 0.  1.
          3    1    3    3  501    0  0.15827969759E+03 -0.86563155415E+02  0.13720051615E+03  0.22664868007E+03  0.00000000000E+00 0.  1.
         21    1    1    2  502  501  0.43235101180E+01  0.36267270277E+02  0.12980131036E+00  0.36524299877E+02  0.00000000000E+00 0. -1.
<scales pt_clust_4="550.00000" pt_clust_5="550.00000" pt_clust_6="36.52407"></scales>
<mgrwt>
<rscale>  0 0.30000000E+03</rscale>
<asrwt>  1 0.36524069E+02</asrwt>
<pdfrwt beam="1">  1        1 0.85236763E+00 0.30000000E+03</pdfrwt>
<pdfrwt beam="2">0</pdfrwt>
<totfact> 0.38339059E-04</totfact>
</mgrwt>
<clustering>
<clus scale="   36.524">  1  6  2 -1</clus>
<clus scale="  469.702">  4  5 -1 -1</clus>
<clus scale="  300.000">  1  4  2 -1</clus>
</clustering>
</event>
<event>
 6    1  0.9254630E-012  0.3000000E+03  0.7818608E-02  0.1093470E+00
          1   -1    0    0  502    0  0.00000000000E+00  0.00000000000E+00  0.22473993280E+03  0.22473993280E+03  0.00000000000E+00 0.  1.
         13   -1    0    0    0    0 -0.00000000000E+00 -0.00000000000E+00 -0.27500000000E+03  0.27500000000E+03  0.00000000000E+00 0.  1.
    9000005    2    1    2  501    0 -0.29037649339E+02  0.82836327544E+01 -0.51841253403E+02  0.46950247589E+03  0.46565357903E+03 0.  0.
         13    1    3    3    0    0 -0.83593585354E+02 -0.63634685206E+02  0.18682354641E+03  0.21433688009E+03  0.00000000000E+00 0.  1.
          3    1    3    3  501    0  0.54555936015E+02  0.71918317961E+02 -0.23866479981E+03  0.25516559580E+03  0.00000000000E+00 0.  1.
         21    1    1    2  502  501  0.29037649339E+02 -0.82836327544E+01  0.15811862046E+01  0.30237456913E+02  0.00000000000E+00 0.  1.
<scales pt_clust_4="550.00000" pt_clust_5="550.00000" pt_clust_6="30.19609"></scales>
<mgrwt>
<rscale>  0 0.30000000E+03</rscale>
<asrwt>  1 0.30196087E+02</asrwt>
<pdfrwt beam="1">  1        1 0.81723612E+00 0.30000000E+03</pdfrwt>
<pdfrwt beam="2">0</pdfrwt>
<totfact> 0.78494635E-04</totfact>
</mgrwt>
<clustering>
<clus scale="   30.196">  1  6  2 -1</clus>
<clus scale="  465.654">  4  5 -1 -1</clus>
<clus scale="  300.000">  1  4  2 -1</clus>
</clustering>
</event>
<event>
 6    1  0.9254630E-012  0.3000000E+03  0.7818608E-02  0.1093470E+00
          1   -1    0    0  502    0  0.00000000000E+00  0.00000000000E+00  0.22733657774E+03  0.22733657774E+03  0.00000000000E+00 0.  1.
         13   -1    0    0    0    0 -0.00000000000E+00 -0.00000000000E+00 -0.27500000000E+03  0.27500000000E+03  0.00000000000E+00 0.  1.
    9000005    2    1    2  501    0  0.33263240025E+02 -0.16338955916E+02 -0.45992779426E+02  0.46523946646E+03  0.46147483222E+03 0.  0.
         13    1    3    3    0    0  0.10604617076E+02  0.16598563075E+03 -0.17447064037E+03  0.24104707397E+03  0.00000000000E+00 0.  1.
          3    1    3    3  501    0  0.22658622950E+02 -0.18232458667E+03  0.12847786095E+03  0.22419239249E+03  0.00000000000E+00 0.  1.
         21    1    1    2  502  501 -0.33263240025E+02  0.16338955916E+02 -0.16706428381E+01  0.37097111274E+02  0.00000000000E+00 0.  1.
<scales pt_clust_4="550.00000" pt_clust_5="550.00000" pt_clust_6="37.05947"></scales>
<mgrwt>
<rscale>  0 0.30000000E+03</rscale>
<asrwt>  1 0.37059474E+02</asrwt>
<pdfrwt beam="1">  1        1 0.82667846E+00 0.30000000E+03</pdfrwt>
<pdfrwt beam="2">0</pdfrwt>
<totfact> 0.62444677E-04</totfact>
</mgrwt>
<clustering>
<clus scale="   37.059">  1  6  2 -1</clus>
<clus scale="  461.475">  4  5 -1 -1</clus>
<clus scale="  300.000">  1  4  2 -1</clus>
</clustering>
</event>
<event>
 6    1  0.9254630E-012  0.3000000E+03  0.7818608E-02  0.1093470E+00
          1   -1    0    0  502    0  0.00000000000E+00  0.00000000000E+00  0.23682347492E+03  0.23682347492E+03  0.00000000000E+00 0.  1.
         13   -1    0    0    0    0 -0.00000000000E+00 -0.00000000000E+00 -0.27500000000E+03  0.27500000000E+03  0.00000000000E+00 0.  1.
    9000005    2    1    2  501    0  0.32227344229E+02 -0.13831413892E+02 -0.27586938013E+02  0.47518948687E+03  0.47308994870E+03 0.  0.
         13    1    3    3    0    0 -0.30026563284E+02 -0.18988799190E+03 -0.15681791556E+03  0.24809454369E+03  0.00000000000E+00 0.  1.
          1    1    3    3  501    0  0.62253907513E+02  0.17605657801E+03  0.12923097755E+03  0.22709494318E+03  0.00000000000E+00 0.  1.
         21    1    1    2  502  501 -0.32227344229E+02  0.13831413892E+02 -0.10589587063E+02  0.36633988050E+02  0.00000000000E+00 0. -1.
<scales pt_clust_4="550.00000" pt_clust_5="550.00000" pt_clust_6="35.07009"></scales>
<mgrwt>
<rscale>  0 0.30000000E+03</rscale>
<asrwt>  1 0.35070086E+02</asrwt>
<pdfrwt beam="1">  1        1 0.86117627E+00 0.30000000E+03</pdfrwt>
<pdfrwt beam="2">0</pdfrwt>
<totfact> 0.31409136E-04</totfact>
</mgrwt>
<clustering>
<clus scale="   35.070">  1  6  2 -1</clus>
<clus scale="  473.090">  4  5 -1 -1</clus>
<clus scale="  300.000">  1  4  2 -1</clus>
</clustering>
</event>
<event>
 6    1  0.9254630E-012  0.3000000E+03  0.7818608E-02  0.1093470E+00
          1   -1    0    0  502    0  0.00000000000E+00  0.00000000000E+00  0.24543825448E+03  0.24543825448E+03  0.00000000000E+00 0.  1.
         13   -1    0    0    0    0 -0.00000000000E+00 -0.00000000000E+00 -0.27500000000E+03  0.27500000000E+03  0.00000000000E+00 0.  1.
    9000005    2    1    2  501    0 -0.36416330109E+02  0.23815745435E+02 -0.50349766556E+02  0.47221501685E+03  0.46750249659E+03 0.  0.
         13    1    3    3    0    0 -0.68442175814E+02  0.14263993739E+03 -0.21482485584E+03  0.26679618036E+03  0.00000000000E+00 0.  1.
          1    1    3    3  501    0  0.32025845706E+02 -0.11882419195E+03  0.16447508929E+03  0.20541883649E+03  0.00000000000E+00 0.  1.
         21    1    1    2  502  501  0.36416330109E+02 -0.23815745435E+02  0.20788021040E+02  0.48223237634E+02  0.00000000000E+00 0.  1.
<scales pt_clust_4="550.00000" pt_clust_5="550.00000" pt_clust_6="43.51251"></scales>
<mgrwt>
<rscale>  0 0.30000000E+03</rscale>
<asrwt>  1 0.43512513E+02</asrwt>
<pdfrwt beam="1">  1        1 0.89250274E+00 0.30000000E+03</pdfrwt>
<pdfrwt beam="2">0</pdfrwt>
<totfact> 0.12947617E-04</totfact>
</mgrwt>
<clustering>
<clus scale="   43.513">  1  6  2 -1</clus>
<clus scale="  467.502">  4  5 -1 -1</clus>
<clus scale="  300.000">  1  4  2 -1</clus>
</clustering>
</event>
<event>
 6    1  0.9254630E-012  0.3000000E+03  0.7818608E-02  0.1093470E+00
          1   -1    0    0  502    0  0.00000000000E+00  0.00000000000E+00  0.24264754102E+03  0.24264754102E+03  0.00000000000E+00 0.  1.
         13   -1    0    0    0    0 -0.00000000000E+00 -0.00000000000E+00 -0.27500000000E+03  0.27500000000E+03  0.00000000000E+00 0.  1.
    9000005    2    1    2  501    0 -0.16116317682E+02  0.42043677590E+02 -0.61740073142E+02  0.46387916381E+03  0.45754194941E+03 0.  0.
         13    1    3    3    0    0 -0.14063521011E+02 -0.20644607458E+03 -0.59730061192E+02  0.21537280363E+03  0.00000000000E+00 0.  1.
          3    1    3    3  501    0 -0.20527966712E+01  0.24848975217E+03 -0.20100119501E+01  0.24850636019E+03  0.00000000000E+00 0.  1.
         21    1    1    2  502  501  0.16116317682E+02 -0.42043677590E+02  0.29387614158E+02  0.53768377201E+02  0.00000000000E+00 0. -1.
<scales pt_clust_4="550.00000" pt_clust_5="550.00000" pt_clust_6="45.02673"></scales>
<mgrwt>
<rscale>  0 0.30000000E+03</rscale>
<asrwt>  1 0.45026731E+02</asrwt>
<pdfrwt beam="1">  1        1 0.88235469E+00 0.30000000E+03</pdfrwt>
<pdfrwt beam="2">0</pdfrwt>
<totfact> 0.17590788E-04</totfact>
</mgrwt>
<clustering>
<clus scale="   45.027">  1  6  2 -1</clus>
<clus scale="  457.542">  4  5 -1 -1</clus>
<clus scale="  300.000">  1  4  2 -1</clus>
</clustering>
</event>
<event>
 6    1  0.9254630E-012  0.3000000E+03  0.7818608E-02  0.1093470E+00
          1   -1    0    0  502    0  0.00000000000E+00  0.00000000000E+00  0.27007707932E+03  0.27007707932E+03  0.00000000000E+00 0.  1.
         13   -1    0    0    0    0 -0.00000000000E+00 -0.00000000000E+00 -0.27500000000E+03  0.27500000000E+03  0.00000000000E+00 0.  1.
    9000005    2    1    2  501    0 -0.88213431214E+01  0.31445740635E+02 -0.43923183290E+02  0.49420792184E+03  0.49116756131E+03 0.  0.
         13    1    3    3    0    0 -0.23619607037E+03  0.15246473243E+01 -0.10254323442E+03  0.25749955948E+03  0.00000000000E+00 0.  1.
          3    1    3    3  501    0  0.22737472725E+03  0.29921093311E+02  0.58620051126E+02  0.23670836236E+03  0.00000000000E+00 0.  1.
         21    1    1    2  502  501  0.88213431214E+01 -0.31445740635E+02  0.39000262609E+02  0.50869157474E+02  0.00000000000E+00 0. -1.
<scales pt_clust_4="550.00000" pt_clust_5="550.00000" pt_clust_6="32.65962"></scales>
<mgrwt>
<rscale>  0 0.30000000E+03</rscale>
<asrwt>  1 0.32659619E+02</asrwt>
<pdfrwt beam="1">  1        1 0.98209847E+00 0.30000000E+03</pdfrwt>
<pdfrwt beam="2">0</pdfrwt>
<totfact> 0.23400800E-06</totfact>
</mgrwt>
<clustering>
<clus scale="   32.660">  1  6  2 -1</clus>
<clus scale="  491.168">  4  5 -1 -1</clus>
<clus scale="  300.000">  1  4  2 -1</clus>
</clustering>
</event>
<event>
 6    1  0.9254630E-012  0.3000000E+03  0.7818608E-02  0.1093470E+00
          1   -1    0    0  502    0  0.00000000000E+00  0.00000000000E+00  0.24492657280E+03  0.24492657280E+03  0.00000000000E+00 0.  1.
         13   -1    0    0    0    0 -0.00000000000E+00 -0.00000000000E+00 -0.27500000000E+03  0.27500000000E+03  0.00000000000E+00 0.  1.
    9000005    2    1    2  501    0  0.32431160337E+02 -0.20692910056E+02 -0.32966318492E+02  0.48134749159E+03  0.47867384806E+03 0.  0.
         13    1    3    3    0    0 -0.24992369446E+02 -0.21194333714E+03  0.10578267093E+03  0.23819019744E+03  0.00000000000E+00 0.  1.
          3    1    3    3  501    0  0.57423529784E+02  0.19125042708E+03 -0.13874898942E+03  0.24315729415E+03  0.00000000000E+00 0.  1.
         21    1    1    2  502  501 -0.32431160337E+02  0.20692910056E+02  0.28928912974E+01  0.38579081216E+02  0.00000000000E+00 0.  1.
<scales pt_clust_4="550.00000" pt_clust_5="550.00000" pt_clust_6="38.47047"></scales>
<mgrwt>
<rscale>  0 0.30000000E+03</rscale>
<asrwt>  1 0.38470465E+02</asrwt>
<pdfrwt beam="1">  1        1 0.89064208E+00 0.30000000E+03</pdfrwt>
<pdfrwt beam="2">0</pdfrwt>
<totfact> 0.13968718E-04</totfact>
</mgrwt>
<clustering>
<clus scale="   38.470">  1  6  2 -1</clus>
<clus scale="  478.674">  4  5 -1 -1</clus>
<clus scale="  300.000">  1  4  2 -1</clus>
</clustering>
</event>
<event>
 6    1  0.9254630E-012  0.3000000E+03  0.7818608E-02  0.1093470E+00
          1   -1    0    0  502    0  0.00000000000E+00  0.00000000000E+00  0.23474936318E+03  0.23474936318E+03  0.00000000000E+00 0.  1.
         13   -1    0    0    0    0 -0.00000000000E+00 -0.00000000000E+00 -0.27500000000E+03  0.27500000000E+03  0.00000000000E+00 0.  1.
    9000005    2    1    2  501    0  0.12723473539E+02  0.28437443391E+02 -0.37023708002E+02  0.47842863466E+03  0.47597544952E+03 0.  0.
         13    1    3    3    0    0  0.21851647191E+03  0.99430235061E+02  0.47810087238E+02  0.24478893884E+03  0.00000000000E+00 0.  1.
          3    1    3    3  501    0 -0.20579299837E+03 -0.70992791671E+02 -0.84833795240E+02  0.23363969582E+03  0.00000000000E+00 0.  1.
         21    1    1    2  502  501 -0.12723473539E+02 -0.28437443391E+02 -0.32269288185E+01  0.31320728521E+02  0.00000000000E+00 0.  1.
<scales pt_clust_4="550.00000" pt_clust_5="550.00000" pt_clust_6="31.15407"></scales>
<mgrwt>
<rscale>  0 0.30000000E+03</rscale>
<asrwt>  1 0.31154068E+02</asrwt>
<pdfrwt beam="1">  1        1 0.85363405E+00 0.30000000E+03</pdfrwt>
<pdfrwt beam="2">0</pdfrwt>
<totfact> 0.38408418E-04</totfact>
</mgrwt>
<clustering>
<clus scale="   31.154">  1  6  2 -1</clus>
<clus scale="  475.975">  4  5 -1 -1</clus>
<clus scale="  300.000">  1  4  2 -1</clus>
</clustering>
</event>
<event>
 6    1  0.9254630E-012  0.3000000E+03  0.7818608E-02  0.1093470E+00
          1   -1    0    0  502    0  0.00000000000E+00  0.00000000000E+00  0.23924875723E+03  0.23924875723E+03  0.00000000000E+00 0.  1.
         13   -1    0    0    0    0 -0.00000000000E+00 -0.00000000000E+00 -0.27500000000E+03  0.27500000000E+03  0.00000000000E+00 0.  1.
    9000005    2    1    2  501    0  0.43187607942E+02 -0.29097286100E+02 -0.39422315087E+02  0.46204436747E+03  0.45740469723E+03 0.  0.
         13    1    3    3    0    0 -0.14660761328E+03 -0.36901277358E+02  0.13609513793E+03  0.20341431393E+03  0.00000000000E+00 0.  1.
          3    1    3    3  501    0  0.18979522122E+03  0.78039912587E+01 -0.17551745302E+03  0.25863005354E+03  0.00000000000E+00 0.  1.
         21    1    1    2  502  501 -0.43187607942E+02  0.29097286100E+02  0.36710723130E+01  0.52204389758E+02  0.00000000000E+00 0.  1.
<scales pt_clust_4="550.00000" pt_clust_5="550.00000" pt_clust_6="52.07515"></scales>
<mgrwt>
<rscale>  0 0.30000000E+03</rscale>
<asrwt>  1 0.52075153E+02</asrwt>
<pdfrwt beam="1">  1        1 0.86999548E+00 0.30000000E+03</pdfrwt>
<pdfrwt beam="2">0</pdfrwt>
<totfact> 0.23575723E-04</totfact>
</mgrwt>
<clustering>
<clus scale="   52.075">  1  6  2 -1</clus>
<clus scale="  457.405">  4  5 -1 -1</clus>
<clus scale="  300.000">  1  4  2 -1</clus>
</clustering>
</event>
<event>
 6    1  0.9254630E-012  0.3000000E+03  0.7818608E-02  0.1093470E+00
          1   -1    0    0  502    0  0.00000000000E+00  0.00000000000E+00  0.22828494448E+03  0.22828494448E+03  0.00000000000E+00 0.  1.
         13   -1    0    0    0    0 -0.00000000000E+00 -0.00000000000E+00 -0.27500000000E+03  0.27500000000E+03  0.00000000000E+00 0.  1.
    9000005    2    1    2  501    0 -0.28107977455E+01  0.30815176355E+02 -0.62756780280E+02  0.46843078245E+03  0.46317546221E+03 0.  0.
         13    1    3    3    0    0 -0.19611106194E+03 -0.74802320219E+02 -0.11874485628E+03  0.24115405163E+03  0.00000000000E+00 0.  1.
          1    1    3    3  501    0  0.19330026419E+03  0.10561749657E+03  0.55988075997E+02  0.22727673082E+03  0.00000000000E+00 0.  1.
         21    1    1    2  502  501  0.28107977455E+01 -0.30815176355E+02  0.16041724765E+02  0.34854162035E+02  0.00000000000E+00 0.  1.
<scales pt_clust_4="550.00000" pt_clust_5="550.00000" pt_clust_6="30.94310"></scales>
<mgrwt>
<rscale>  0 0.30000000E+03</rscale>
<asrwt>  1 0.30943104E+02</asrwt>
<pdfrwt beam="1">  1        1 0.83012707E+00 0.30000000E+03</pdfrwt>
<pdfrwt beam="2">0</pdfrwt>
<totfact> 0.60349301E-04</totfact>
</mgrwt>
<clustering>
<clus scale="   30.943">  1  6  2 -1</clus>
<clus scale="  463.175">  4  5 -1 -1</clus>
<clus scale="  300.000">  1  4  2 -1</clus>
</clustering>
</event>
<event>
 6    1  0.9254630E-012  0.3000000E+03  0.7818608E-02  0.1093470E+00
          1   -1    0    0  502    0  0.00000000000E+00  0.00000000000E+00  0.24315679896E+03  0.24315679896E+03  0.00000000000E+00 0.  1.
         13   -1    0    0    0    0 -0.00000000000E+00 -0.00000000000E+00 -0.27500000000E+03  0.27500000000E+03  0.00000000000E+00 0.  1.
    9000005    2    1    2  501    0 -0.79306248379E+01 -0.51869910730E+02 -0.20504910746E+02  0.46447310240E+03  0.46104384720E+03 0.  0.
         13    1    3    3    0    0 -0.19683060012E+03  0.87654996416E+02 -0.65829465020E+02  0.22529802930E+03  0.00000000000E+00 0.  1.
          1    1    3    3  501    0  0.18889997528E+03 -0.13952490715E+03  0.45324554274E+02  0.23917507311E+03  0.00000000000E+00 0.  1.
         21    1    1    2  502  501  0.79306248379E+01  0.51869910730E+02 -0.11338290293E+02  0.53683696559E+02  0.00000000000E+00 0. -1.
<scales pt_clust_4="550.00000" pt_clust_5="550.00000" pt_clust_6="52.47271"></scales>
<mgrwt>
<rscale>  0 0.30000000E+03</rscale>
<asrwt>  1 0.52472709E+02</asrwt>
<pdfrwt beam="1">  1        1 0.88420654E+00 0.30000000E+03</pdfrwt>
<pdfrwt beam="2">0</pdfrwt>
<totfact> 0.16174010E-04</totfact>
</mgrwt>
<clustering>
<clus scale="   52.473">  1  6  2 -1</clus>
<clus scale="  461.044">  4  5 -1 -1</clus>
<clus scale="  300.000">  1  4  2 -1</clus>
</clustering>
</event>
<event>
 6    1  0.9254630E-012  0.3000000E+03  0.7818608E-02  0.1093470E+00
          1   -1    0    0  502    0  0.00000000000E+00  0.00000000000E+00  0.25206874586E+03  0.25206874586E+03  0.00000000000E+00 0.  1.
         13   -1    0    0    0    0 -0.00000000000E+00 -0.00000000000E+00 -0.27500000000E+03  0.27500000000E+03  0.00000000000E+00 0.  1.
    9000005    2    1    2  501    0 -0.71980103970E+01 -0.33315590313E+02 -0.68898368439E+02  0.46984361582E+03  0.46351299684E+03 0.  0.
         13    1    3    3    0    0 -0.19112877646E+03  0.11962539308E+03 -0.37681929822E+02  0.22860527486E+03  0.00000000000E+00 0.  1.
          3    1    3    3  501    0  0.18393076606E+03 -0.15294098340E+03 -0.31216438617E+02  0.24123834095E+03  0.00000000000E+00 0.  1.
         21    1    1    2  502  501  0.71980103970E+01  0.33315590313E+02  0.45967114299E+02  0.57225130044E+02  0.00000000000E+00 0.  1.
<scales pt_clust_4="550.00000" pt_clust_5="550.00000" pt_clust_6="34.08431"></scales>
<mgrwt>
<rscale>  0 0.30000000E+03</rscale>
<asrwt>  1 0.34084306E+02</asrwt>
<pdfrwt beam="1">  1        1 0.91661362E+00 0.30000000E+03</pdfrwt>
<pdfrwt beam="2">0</pdfrwt>
<totfact> 0.49959563E-05</totfact>
</mgrwt>
<clustering>
<clus scale="   34.084">  1  6  2 -1</clus>
<clus scale="  463.513">  4  5 -1 -1</clus>
<clus scale="  300.000">  1  4  2 -1</clus>
</clustering>
</event>
<event>
 6    1  0.9254630E-012  0.3000000E+03  0.7818608E-02  0.1093470E+00
          1   -1    0    0  502    0  0.00000000000E+00  0.00000000000E+00  0.22576257425E+03  0.22576257425E+03  0.00000000000E+00 0.  1.
         13   -1    0    0    0    0 -0.00000000000E+00 -0.00000000000E+00 -0.27500000000E+03  0.27500000000E+03  0.00000000000E+00 0.  1.
    9000005    2    1    2  501    0  0.67967703922E+01 -0.29981973815E+02 -0.64990896512E+02  0.46621859239E+03  0.46064177451E+03 0.  0.
         13    1    3    3    0    0  0.45457455286E+02 -0.62092290691E+02 -0.25672344335E+03  0.26800887890E+03  0.00000000000E+00 0.  1.
          1    1    3    3  501    0 -0.38660684894E+02  0.32110316876E+02  0.19173254684E+03  0.19820971349E+03  0.00000000000E+00 0.  1.
         21    1    1    2  502  501 -0.67967703922E+01  0.29981973815E+02  0.15753470766E+02  0.34543981861E+02  0.00000000000E+00 0. -1.
<scales pt_clust_4="550.00000" pt_clust_5="550.00000" pt_clust_6="30.74272"></scales>
<mgrwt>
<rscale>  0 0.30000000E+03</rscale>
<asrwt>  1 0.30742720E+02</asrwt>
<pdfrwt beam="1">  1        1 0.82095482E+00 0.30000000E+03</pdfrwt>
<pdfrwt beam="2">0</pdfrwt>
<totfact> 0.72720240E-04</totfact>
</mgrwt>
<clustering>
<clus scale="   30.743">  1  6  2 -1</clus>
<clus scale="  460.642">  4  5 -1 -1</clus>
<clus scale="  300.000">  1  4  2 -1</clus>
</clustering>
</event>
<event>
 6    1  0.9254630E-012  0.3000000E+03  0.7818608E-02  0.1093470E+00
          1   -1    0    0  502    0  0.00000000000E+00  0.00000000000E+00  0.24042947587E+03  0.24042947587E+03  0.00000000000E+00 0.  1.
         13   -1    0    0    0    0 -0.00000000000E+00 -0.00000000000E+00 -0.27500000000E+03  0.27500000000E+03  0.00000000000E+00 0.  1.
    9000005    2    1    2  501    0  0.46003585880E+02  0.91942113539E+01 -0.23531485420E+02  0.46723483081E+03  0.46427771095E+03 0.  0.
         13    1    3    3    0    0  0.25431804466E+03  0.33698505844E+02 -0.21948141800E+02  0.25747811182E+03  0.00000000000E+00 0.  1.
          3    1    3    3  501    0 -0.20831445878E+03 -0.24504294490E+02 -0.15833436203E+01  0.20975671899E+03  0.00000000000E+00 0.  1.
         21    1    1    2  502  501 -0.46003585880E+02 -0.91942113539E+01 -0.11039038713E+02  0.48194645055E+02  0.00000000000E+00 0. -1.
<scales pt_clust_4="550.00000" pt_clust_5="550.00000" pt_clust_6="46.91338"></scales>
<mgrwt>
<rscale>  0 0.30000000E+03</rscale>
<asrwt>  1 0.46913384E+02</asrwt>
<pdfrwt beam="1">  1        1 0.87428900E+00 0.30000000E+03</pdfrwt>
<pdfrwt beam="2">0</pdfrwt>
<totfact> 0.21694413E-04</totfact>
</mgrwt>
<clustering>
<clus scale="   46.913">  1  6  2 -1</clus>
<clus scale="  464.278">  4  5 -1 -1</clus>
<clus scale="  300.000">  1  4  2 -1</clus>
</clustering>
</event>
<event>
 6    1  0.9254630E-012  0.3000000E+03  0.7818608E-02  0.1093470E+00
          1   -1    0    0  502    0  0.00000000000E+00  0.00000000000E+00  0.25144315119E+03  0.25144315119E+03  0.00000000000E+00 0.  1.
         13   -1    0    0    0    0 -0.00000000000E+00 -0.00000000000E+00 -0.27500000000E+03  0.27500000000E+03  0.00000000000E+00 0.  1.
    9000005    2    1    2  501    0 -0.18521289333E+02 -0.25952844020E+02 -0.29702460952E+02  0.49397229010E+03  0.49204654143E+03 0.  0.
         13    1    3    3    0    0  0.22742422761E+03 -0.87947732223E+01 -0.82050722544E+02  0.24193273530E+03  0.00000000000E+00 0.  1.
          3    1    3    3  501    0 -0.24594551694E+03 -0.17158070797E+02  0.52348261593E+02  0.25203955481E+03  0.00000000000E+00 0.  1.
         21    1    1    2  502  501  0.18521289333E+02  0.25952844020E+02  0.61456121433E+01  0.32470861089E+02  0.00000000000E+00 0.  1.
<scales pt_clust_4="550.00000" pt_clust_5="550.00000" pt_clust_6="31.88398"></scales>
<mgrwt>
<rscale>  0 0.30000000E+03</rscale>
<asrwt>  1 0.31883981E+02</asrwt>
<pdfrwt beam="1">  1        1 0.91433873E+00 0.30000000E+03</pdfrwt>
<pdfrwt beam="2">0</pdfrwt>
<totfact> 0.57118062E-05</totfact>
</mgrwt>
<clustering>
<clus scale="   31.884">  1  6  2 -1</clus>
<clus scale="  492.047">  4  5 -1 -1</clus>
<clus scale="  300.000">  1  4  2 -1</clus>
</clustering>
</event>
<event>
 6    1  0.9254630E-012  0.3000000E+03  0.7818608E-02  0.1093470E+00
          1   -1    0    0  502    0  0.00000000000E+00  0.00000000000E+00  0.23553647360E+03  0.23553647360E+03  0.00000000000E+00 0.  1.
         13   -1    0    0    0    0 -0.00000000000E+00 -0.00000000000E+00 -0.27500000000E+03  0.27500000000E+03  0.00000000000E+00 0.  1.
    9000005    2    1    2  501    0 -0.10195641085E+02  0.29817646810E+02 -0.35931862924E+02  0.47882660439E+03  0.47643548896E+03 0.  0.
         13    1    3    3    0    0  0.95427983892E+02  0.19193040617E+03  0.10575058449E+03  0.23901248302E+03  0.00000000000E+00 0.  1.
          3    1    3    3  501    0 -0.10562362498E+03 -0.16211275936E+03 -0.14168244741E+03  0.23981412136E+03  0.00000000000E+00 0.  1.
         21    1    1    2  502  501  0.10195641085E+02 -0.29817646810E+02 -0.35316634795E+01  0.31709869211E+02  0.00000000000E+00 0.  1.
<scales pt_clust_4="550.00000" pt_clust_5="550.00000" pt_clust_6="31.51260"></scales>
<mgrwt>
<rscale>  0 0.30000000E+03</rscale>
<asrwt>  1 0.31512603E+02</asrwt>
<pdfrwt beam="1">  1        1 0.85649627E+00 0.30000000E+03</pdfrwt>
<pdfrwt beam="2">0</pdfrwt>
<totfact> 0.35897386E-04</totfact>
</mgrwt>
<clustering>
<clus scale="   31.513">  1  6  2 -1</clus>
<clus scale="  476.435">  4  5 -1 -1</clus>
<clus scale="  300.000">  1  4  2 -1</clus>
</clustering>
</event>
<event>
 6    1  0.9254630E-012  0.3000000E+03  0.7818608E-02  0.1093470E+00
          1   -1    0    0  502    0  0.00000000000E+00  0.00000000000E+00  0.23513705822E+03  0.23513705822E+03  0.00000000000E+00 0.  1.
         13   -1    0    0    0    0 -0.00000000000E+00 -0.00000000000E+00 -0.27500000000E+03  0.27500000000E+03  0.00000000000E+00 0.  1.
    9000005    2    1    2  501    0  0.29690111380E+02  0.13925068121E+02 -0.73338171268E+02  0.46327554709E+03  0.45625687384E+03 0.  0.
         13    1    3    3    0    0 -0.10728601924E+03 -0.16740485540E+03 -0.11866058286E+03  0.23154915128E+03  0.00000000000E+00 0.  1.
          1    1    3    3  501    0  0.13697613062E+03  0.18132992352E+03  0.45322411594E+02  0.23172639581E+03  0.00000000000E+00 0.  1.
         21    1    1    2  502  501 -0.29690111380E+02 -0.13925068121E+02  0.33475229484E+02  0.46861511126E+02  0.00000000000E+00 0. -1.
<scales pt_clust_4="550.00000" pt_clust_5="550.00000" pt_clust_6="32.79345"></scales>
<mgrwt>
<rscale>  0 0.30000000E+03</rscale>
<asrwt>  1 0.32793448E+02</asrwt>
<pdfrwt beam="1">  1        1 0.85504385E+00 0.30000000E+03</pdfrwt>
<pdfrwt beam="2">0</pdfrwt>
<totfact> 0.36845892E-04</totfact>
</mgrwt>
<clustering>
<clus scale="   32.793">  1  6  2 -1</clus>
<clus scale="  456.257">  4  5 -1 -1</clus>
<clus scale="  300.000">  1  4  2 -1</clus>
</clustering>
</event>
<event>
 6    1  0.9254630E-012  0.3000000E+03  0.7818608E-02  0.1093470E+00
          1   -1    0    0  502    0  0.00000000000E+00  0.00000000000E+00  0.25889745799E+03  0.25889745799E+03  0.00000000000E+00 0.  1.
         13   -1    0    0    0    0 -0.00000000000E+00 -0.00000000000E+00 -0.27500000000E+03  0.27500000000E+03  0.00000000000E+00 0.  1.
    9000005    2    1    2  501    0 -0.54311594631E+02  0.60529981641E+01 -0.64155408583E+01  0.47839767340E+03  0.47522288103E+03 0.  0.
         13    1    3    3    0    0 -0.68175333421E+01  0.21689366854E+03  0.98317180825E+02  0.23823435994E+03  0.00000000000E+00 0.  1.
          1    1    3    3  501    0 -0.47494061289E+02 -0.21084067037E+03 -0.10473272168E+03  0.24016331346E+03  0.00000000000E+00 0.  1.
         21    1    1    2  502  501  0.54311594631E+02 -0.60529981641E+01 -0.96870011522E+01  0.55499784589E+02  0.00000000000E+00 0. -1.
<scales pt_clust_4="550.00000" pt_clust_5="550.00000" pt_clust_6="54.64788"></scales>
<mgrwt>
<rscale>  0 0.30000000E+03</rscale>
<asrwt>  1 0.54647883E+02</asrwt>
<pdfrwt beam="1">  1        1 0.94144530E+00 0.30000000E+03</pdfrwt>
<pdfrwt beam="2">0</pdfrwt>
<totfact> 0.16697278E-05</totfact>
</mgrwt>
<clustering>
<clus scale="   54.648">  1  6  2 -1</clus>
<clus scale="  475.223">  4  5 -1 -1</clus>
<clus scale="  300.000">  1  4  2 -1</clus>
</clustering>
</event>
<event>
 6    1  0.9254630E-012  0.3000000E+03  0.7818608E-02  0.1093470E+00
          1   -1    0    0  502    0  0.00000000000E+00  0.00000000000E+00  0.24780606904E+03  0.24780606904E+03  0.00000000000E+00 0.  1.
         13   -1    0    0    0    0 -0.00000000000E+00 -0.00000000000E+00 -0.27500000000E+03  0.27500000000E+03  0.00000000000E+00 0.  1.
    9000005    2    1    2  501    0  0.33192150855E+01  0.37178492384E+02 -0.40072670183E+01  0.47886430224E+03  0.47739051550E+03 0.  0.
         13    1    3    3    0    0  0.16245882517E+03 -0.15702699090E+03 -0.22749964956E+02  0.22708568130E+03  0.00000000000E+00 0.  1.
          1    1    3    3  501    0 -0.15913961009E+03  0.19420548328E+03  0.18742697938E+02  0.25177862094E+03  0.00000000000E+00 0.  1.
         21    1    1    2  502  501 -0.33192150855E+01 -0.37178492384E+02 -0.23186663940E+02  0.43941766799E+02  0.00000000000E+00 0. -1.
<scales pt_clust_4="550.00000" pt_clust_5="550.00000" pt_clust_6="37.32638"></scales>
<mgrwt>
<rscale>  0 0.30000000E+03</rscale>
<asrwt>  1 0.37326383E+02</asrwt>
<pdfrwt beam="1">  1        1 0.90111298E+00 0.30000000E+03</pdfrwt>
<pdfrwt beam="2">0</pdfrwt>
<totfact> 0.10554536E-04</totfact>
</mgrwt>
<clustering>
<clus scale="   37.326">  1  6  2 -1</clus>
<clus scale="  477.391">  4  5 -1 -1</clus>
<clus scale="  300.000">  1  4  2 -1</clus>
</clustering>
</event>
<event>
 6    1  0.9254630E-012  0.3000000E+03  0.7818608E-02  0.1093470E+00
          1   -1    0    0  502    0  0.00000000000E+00  0.00000000000E+00  0.22576178334E+03  0.22576178334E+03  0.00000000000E+00 0.  1.
         13   -1    0    0    0    0 -0.00000000000E+00 -0.00000000000E+00 -0.27500000000E+03  0.27500000000E+03  0.00000000000E+00 0.  1.
    9000005    2    1    2  501    0 -0.63090088809E+01 -0.37969953849E+02 -0.50228494981E+02  0.46225851543E+03  0.45790666341E+03 0.  0.
         13    1    3    3    0    0 -0.70612126777E+02  0.14203451155E+03 -0.17329057874E+03  0.23492445509E+03  0.00000000000E+00 0.  1.
          3    1    3    3  501    0  0.64303117896E+02 -0.18000446540E+03  0.12306208376E+03  0.22733406035E+03  0.00000000000E+00 0.  1.
         21    1    1    2  502  501  0.63090088809E+01  0.37969953849E+02  0.99027832189E+00  0.38503267907E+02  0.00000000000E+00 0.  1.
<scales pt_clust_4="550.00000" pt_clust_5="550.00000" pt_clust_6="38.49053"></scales>
<mgrwt>
<rscale>  0 0.30000000E+03</rscale>
<asrwt>  1 0.38490531E+02</asrwt>
<pdfrwt beam="1">  1        1 0.82095194E+00 0.30000000E+03</pdfrwt>
<pdfrwt beam="2">0</pdfrwt>
<totfact> 0.69720592E-04</totfact>
</mgrwt>
<clustering>
<clus scale="   38.491">  1  6  2 -1</clus>
<clus scale="  457.907">  4  5 -1 -1</clus>
<clus scale="  300.000">  1  4  2 -1</clus>
</clustering>
</event>
<event>
 6    1  0.9254630E-012  0.3000000E+03  0.7818608E-02  0.1093470E+00
          1   -1    0    0  502    0  0.00000000000E+00  0.00000000000E+00  0.24007587250E+03  0.24007587250E+03  0.00000000000E+00 0.  1.
         13   -1    0    0    0    0 -0.00000000000E+00 -0.00000000000E+00 -0.27500000000E+03  0.27500000000E+03  0.00000000000E+00 0.  1.
    9000005    2    1    2  501    0 -0.19417408499E+02  0.33014573163E+02 -0.65515048947E+02  0.46605748545E+03  0.45983731940E+03 0.  0.
         13    1    3    3    0    0  0.19388060136E+03  0.11411533918E+03 -0.76433079017E+02  0.23760053406E+03  0.00000000000E+00 0.  1.
          3    1    3    3  501    0 -0.21329800985E+03 -0.81100766022E+02  0.10918030070E+02  0.22845695139E+03  0.00000000000E+00 0.  1.
         21    1    1    2  502  501  0.19417408499E+02 -0.33014573163E+02  0.30590921449E+02  0.49018387051E+02  0.00000000000E+00 0.  1.
<scales pt_clust_4="550.00000" pt_clust_5="550.00000" pt_clust_6="38.30141"></scales>
<mgrwt>
<rscale>  0 0.30000000E+03</rscale>
<asrwt>  1 0.38301407E+02</asrwt>
<pdfrwt beam="1">  1        1 0.87300317E+00 0.30000000E+03</pdfrwt>
<pdfrwt beam="2">0</pdfrwt>
<totfact> 0.23204950E-04</totfact>
</mgrwt>
<clustering>
<clus scale="   38.301">  1  6  2 -1</clus>
<clus scale="  459.837">  4  5 -1 -1</clus>
<clus scale="  300.000">  1  4  2 -1</clus>
</clustering>
</event>
<event>
 6    1  0.9254630E-012  0.3000000E+03  0.7818608E-02  0.1093470E+00
          1   -1    0    0  502    0  0.00000000000E+00  0.00000000000E+00  0.26218821132E+03  0.26218821132E+03  0.00000000000E+00 0.  1.
         13   -1    0    0    0    0 -0.00000000000E+00 -0.00000000000E+00 -0.27500000000E+03  0.27500000000E+03  0.00000000000E+00 0.  1.
    9000005    2    1    2  501    0 -0.51889325732E+02 -0.24006538087E+02 -0.51492521637E+02  0.46815912254E+03  0.46179288457E+03 0.  0.
         13    1    3    3    0    0 -0.29969208677E+02 -0.24209253942E+03 -0.44405374380E+01  0.24398087934E+03  0.00000000000E+00 0.  1.
          3    1    3    3  501    0 -0.21920117055E+02  0.21808600133E+03 -0.47051984199E+02  0.22417824320E+03  0.00000000000E+00 0.  1.
         21    1    1    2  502  501  0.51889325732E+02  0.24006538087E+02  0.38680732958E+02  0.69029088781E+02  0.00000000000E+00 0.  1.
<scales pt_clust_4="550.00000" pt_clust_5="550.00000" pt_clust_6="57.17356"></scales>
<mgrwt>
<rscale>  0 0.30000000E+03</rscale>
<asrwt>  1 0.57173560E+02</asrwt>
<pdfrwt beam="1">  1        1 0.95341168E+00 0.30000000E+03</pdfrwt>
<pdfrwt beam="2">0</pdfrwt>
<totfact> 0.96034626E-06</totfact>
</mgrwt>
<clustering>
<clus scale="   57.174">  1  6  2 -1</clus>
<clus scale="  461.793">  4  5 -1 -1</clus>
<clus scale="  300.000">  1  4  2 -1</clus>
</clustering>
</event>
<event>
 6    1  0.9254630E-012  0.3000000E+03  0.7818608E-02  0.1093470E+00
          1   -1    0    0  502    0  0.00000000000E+00  0.00000000000E+00  0.22802947444E+03  0.22802947444E+03  0.00000000000E+00 0.  1.
         13   -1    0    0    0    0 -0.00000000000E+00 -0.00000000000E+00 -0.27500000000E+03  0.27500000000E+03  0.00000000000E+00 0.  1.
    9000005    2    1    2  501    0  0.30051715683E+02 -0.19961841054E+02 -0.64816551872E+02  0.46277948849E+03  0.45679545626E+03 0.  0.
         13    1    3    3    0    0 -0.11999339259E+02 -0.59274189383E+02 -0.25603688062E+03  0.26308230253E+03  0.00000000000E+00 0.  1.
          1    1    3    3  501    0  0.42051054942E+02  0.39312348329E+02  0.19122032875E+03  0.19969718596E+03  0.00000000000E+00 0.  1.
         21    1    1    2  502  501 -0.30051715683E+02  0.19961841054E+02  0.17846026312E+02  0.40249985949E+02  0.00000000000E+00 0. -1.
<scales pt_clust_4="550.00000" pt_clust_5="550.00000" pt_clust_6="36.07743"></scales>
<mgrwt>
<rscale>  0 0.30000000E+03</rscale>
<asrwt>  1 0.36077427E+02</asrwt>
<pdfrwt beam="1">  1        1 0.82919809E+00 0.30000000E+03</pdfrwt>
<pdfrwt beam="2">0</pdfrwt>
<totfact> 0.59681747E-04</totfact>
</mgrwt>
<clustering>
<clus scale="   36.077">  1  6  2 -1</clus>
<clus scale="  456.795">  4  5 -1 -1</clus>
<clus scale="  300.000">  1  4  2 -1</clus>
</clustering>
</event>
<event>
 6    1  0.9254630E-012  0.3000000E+03  0.7818608E-02  0.1093470E+00
          1   -1    0    0  502    0  0.00000000000E+00  0.00000000000E+00  0.22229784609E+03  0.22229784609E+03  0.00000000000E+00 0.  1.
         13   -1    0    0    0    0 -0.00000000000E+00 -0.00000000000E+00 -0.27500000000E+03  0.27500000000E+03  0.00000000000E+00 0.  1.
    9000005    2    1    2  501    0  0.14133702887E+02  0.31190922831E+02 -0.53560340274E+02  0.46304333240E+03  0.45865867745E+03 0.  0.
         13    1    3    3    0    0  0.20528596448E+03  0.11093145791E+03 -0.94793904415E+02  0.25186107258E+03  0.00000000000E+00 0.  1.
          3    1    3    3  501    0 -0.19115226160E+03 -0.79740535083E+02  0.41233564141E+02  0.21118225981E+03  0.00000000000E+00 0.  1.
         21    1    1    2  502  501 -0.14133702887E+02 -0.31190922831E+02  0.85818636329E+00  0.34254513691E+02  0.00000000000E+00 0.  1.
<scales pt_clust_4="550.00000" pt_clust_5="550.00000" pt_clust_6="34.24376"></scales>
<mgrwt>
<rscale>  0 0.30000000E+03</rscale>
<asrwt>  1 0.34243762E+02</asrwt>
<pdfrwt beam="1">  1        1 0.80835580E+00 0.30000000E+03</pdfrwt>
<pdfrwt beam="2">0</pdfrwt>
<totfact> 0.90183805E-04</totfact>
</mgrwt>
<clustering>
<clus scale="   34.244">  1  6  2 -1</clus>
<clus scale="  458.659">  4  5 -1 -1</clus>
<clus scale="  300.000">  1  4  2 -1</clus>
</clustering>
</event>
<event>
 6    1  0.9254630E-012  0.3000000E+03  0.7818608E-02  0.1093470E+00
          1   -1    0    0  502    0  0.00000000000E+00  0.00000000000E+00  0.24375695103E+03  0.24375695103E+03  0.00000000000E+00 0.  1.
         13   -1    0    0    0    0 -0.00000000000E+00 -0.00000000000E+00 -0.27500000000E+03  0.27500000000E+03  0.00000000000E+00 0.  1.
    9000005    2    1    2  501    0  0.18062202248E+01 -0.35760862450E+02 -0.39166018527E+02  0.48208441143E+03  0.47915477773E+03 0.  0.
         13    1    3    3    0    0  0.54999659337E+02  0.10356624485E+03 -0.21902299522E+03  0.24843913144E+03  0.00000000000E+00 0.  1.
          1    1    3    3  501    0 -0.53193439112E+02 -0.13932710730E+03  0.17985697669E+03  0.23364527998E+03  0.00000000000E+00 0.  1.
         21    1    1    2  502  501 -0.18062202248E+01  0.35760862450E+02  0.79229695602E+01  0.36672539608E+02  0.00000000000E+00 0. -1.
<scales pt_clust_4="550.00000" pt_clust_5="550.00000" pt_clust_6="35.80645"></scales>
<mgrwt>
<rscale>  0 0.30000000E+03</rscale>
<asrwt>  1 0.35806448E+02</asrwt>
<pdfrwt beam="1">  1        1 0.88638891E+00 0.30000000E+03</pdfrwt>
<pdfrwt beam="2">0</pdfrwt>
<totfact> 0.16170901E-04</totfact>
</mgrwt>
<clustering>
<clus scale="   35.806">  1  6  2 -1</clus>
<clus scale="  479.155">  4  5 -1 -1</clus>
<clus scale="  300.000">  1  4  2 -1</clus>
</clustering>
</event>
<event>
 6    1  0.9254630E-012  0.3000000E+03  0.7818608E-02  0.1093470E+00
          1   -1    0    0  502    0  0.00000000000E+00  0.00000000000E+00  0.23653829322E+03  0.23653829322E+03  0.00000000000E+00 0.  1.
         13   -1    0    0    0    0 -0.00000000000E+00 -0.00000000000E+00 -0.27500000000E+03  0.27500000000E+03  0.00000000000E+00 0.  1.
    9000005    2    1    2  501    0  0.21117632767E+02 -0.29551017364E+02 -0.52396233556E+02  0.47263600437E+03  0.46831635707E+03 0.  0.
         13    1    3    3    0    0  0.10859894931E+03 -0.12690126429E+02  0.18732237272E+03  0.21689730847E+03  0.00000000000E+00 0.  1.
          1    1    3    3  501    0 -0.87481316546E+02 -0.16860890935E+02 -0.23971860628E+03  0.25573869590E+03  0.00000000000E+00 0.  1.
         21    1    1    2  502  501 -0.21117632767E+02  0.29551017364E+02  0.13934526774E+02  0.38902288844E+02  0.00000000000E+00 0. -1.
<scales pt_clust_4="550.00000" pt_clust_5="550.00000" pt_clust_6="36.32103"></scales>
<mgrwt>
<rscale>  0 0.30000000E+03</rscale>
<asrwt>  1 0.36321028E+02</asrwt>
<pdfrwt beam="1">  1        1 0.86013925E+00 0.30000000E+03</pdfrwt>
<pdfrwt beam="2">0</pdfrwt>
<totfact> 0.32013977E-04</totfact>
</mgrwt>
<clustering>
<clus scale="   36.321">  1  6  2 -1</clus>
<clus scale="  468.316">  4  5 -1 -1</clus>
<clus scale="  300.000">  1  4  2 -1</clus>
</clustering>
</event>
<event>
 6    1  0.9254630E-012  0.3000000E+03  0.7818608E-02  0.1093470E+00
          1   -1    0    0  502    0  0.00000000000E+00  0.00000000000E+00  0.25066011948E+03  0.25066011948E+03  0.00000000000E+00 0.  1.
         13   -1    0    0    0    0 -0.00000000000E+00 -0.00000000000E+00 -0.27500000000E+03  0.27500000000E+03  0.00000000000E+00 0.  1.
    9000005    2    1    2  501    0 -0.79223143053E+01 -0.35429490028E+02 -0.47667981010E+02  0.48250676387E+03  0.47877189657E+03 0.  0.
         13    1    3    3    0    0  0.21229414286E+03 -0.11439104056E+03  0.10705693406E+02  0.24138915702E+03  0.00000000000E+00 0.  1.
          1    1    3    3  501    0 -0.22021645717E+03  0.78961550537E+02 -0.58373674416E+02  0.24111760685E+03  0.00000000000E+00 0.  1.
         21    1    1    2  502  501  0.79223143053E+01  0.35429490028E+02  0.23328100486E+02  0.43153355603E+02  0.00000000000E+00 0. -1.
<scales pt_clust_4="550.00000" pt_clust_5="550.00000" pt_clust_6="36.30443"></scales>
<mgrwt>
<rscale>  0 0.30000000E+03</rscale>
<asrwt>  1 0.36304433E+02</asrwt>
<pdfrwt beam="1">  1        1 0.91149134E+00 0.30000000E+03</pdfrwt>
<pdfrwt beam="2">0</pdfrwt>
<totfact> 0.65566261E-05</totfact>
</mgrwt>
<clustering>
<clus scale="   36.304">  1  6  2 -1</clus>
<clus scale="  478.772">  4  5 -1 -1</clus>
<clus scale="  300.000">  1  4  2 -1</clus>
</clustering>
</event>
<event>
 6    1  0.9254630E-012  0.3000000E+03  0.7818608E-02  0.1093470E+00
          1   -1    0    0  502    0  0.00000000000E+00  0.00000000000E+00  0.23257114263E+03  0.23257114263E+03  0.00000000000E+00 0.  1.
         13   -1    0    0    0    0 -0.00000000000E+00 -0.00000000000E+00 -0.27500000000E+03  0.27500000000E+03  0.00000000000E+00 0.  1.
    9000005    2    1    2  501    0 -0.17035785429E+02  0.27385272341E+02 -0.51804011957E+02  0.47398446894E+03  0.47003983875E+03 0.  0.
         13    1    3    3    0    0  0.17967657143E+03  0.51620955650E+02 -0.16185959900E+03  0.24727903908E+03  0.00000000000E+00 0.  1.
          1    1    3    3  501    0 -0.19671235686E+03 -0.24235683309E+02  0.11005558704E+03  0.22670542985E+03  0.00000000000E+00 0.  1.
         21    1    1    2  502  501  0.17035785429E+02 -0.27385272341E+02  0.93751545908E+01  0.33586673696E+02  0.00000000000E+00 0. -1.
<scales pt_clust_4="550.00000" pt_clust_5="550.00000" pt_clust_6="32.25168"></scales>
<mgrwt>
<rscale>  0 0.30000000E+03</rscale>
<asrwt>  1 0.32251684E+02</asrwt>
<pdfrwt beam="1">  1        1 0.84571325E+00 0.30000000E+03</pdfrwt>
<pdfrwt beam="2">0</pdfrwt>
<totfact> 0.45226484E-04</totfact>
</mgrwt>
<clustering>
<clus scale="   32.252">  1  6  2 -1</clus>
<clus scale="  470.040">  4  5 -1 -1</clus>
<clus scale="  300.000">  1  4  2 -1</clus>
</clustering>
</event>
<event>
 6    1  0.9254630E-012  0.3000000E+03  0.7818608E-02  0.1093470E+00
          1   -1    0    0  502    0  0.00000000000E+00  0.00000000000E+00  0.22976219001E+03  0.22976219001E+03  0.00000000000E+00 0.  1.
         13   -1    0    0    0    0 -0.00000000000E+00 -0.00000000000E+00 -0.27500000000E+03  0.27500000000E+03  0.00000000000E+00 0.  1.
    9000005    2    1    2  501    0 -0.78637999291E+01 -0.30047155528E+02 -0.45553901124E+02  0.47370142991E+03  0.47048189751E+03 0.  0.
         13    1    3    3    0    0  0.20550499353E+03  0.21272863821E+02 -0.12363539856E+03  0.24077073925E+03  0.00000000000E+00 0.  1.
          1    1    3    3  501    0 -0.21336879346E+03 -0.51320019349E+02  0.78081497435E+02  0.23293069066E+03  0.00000000000E+00 0.  1.
         21    1    1    2  502  501  0.78637999291E+01  0.30047155528E+02  0.31609113584E+00  0.31060760105E+02  0.00000000000E+00 0. -1.
<scales pt_clust_4="550.00000" pt_clust_5="550.00000" pt_clust_6="31.05915"></scales>
<mgrwt>
<rscale>  0 0.30000000E+03</rscale>
<asrwt>  1 0.31059152E+02</asrwt>
<pdfrwt beam="1">  1        1 0.83549887E+00 0.30000000E+03</pdfrwt>
<pdfrwt beam="2">0</pdfrwt>
<totfact> 0.54874089E-04</totfact>
</mgrwt>
<clustering>
<clus scale="   31.059">  1  6  2 -1</clus>
<clus scale="  470.482">  4  5 -1 -1</clus>
<clus scale="  300.000">  1  4  2 -1</clus>
</clustering>
</event>
<event>
 6    1  0.9254630E-012  0.3000000E+03  0.7818608E-02  0.1093470E+00
          1   -1    0    0  502    0  0.00000000000E+00  0.00000000000E+00  0.24909535940E+03  0.24909535940E+03  0.00000000000E+00 0.  1.
         13   -1    0    0    0    0 -0.00000000000E+00 -0.00000000000E+00 -0.27500000000E+03  0.27500000000E+03  0.00000000000E+00 0.  1.
    9000005    2    1    2  501    0 -0.60950529338E+01  0.55676905469E+02 -0.45853242466E+02  0.46463937409E+03  0.45896640470E+03 0.  0.
         13    1    3    3    0    0  0.15342691920E+03  0.19215561493E+03  0.14135372780E+02  0.24629942885E+03  0.00000000000E+00 0.  1.
          1    1    3    3  501    0 -0.15952197214E+03 -0.13647870946E+03 -0.59988615247E+02  0.21833994525E+03  0.00000000000E+00 0.  1.
         21    1    1    2  502  501  0.60950529338E+01 -0.55676905469E+02  0.19948601871E+02  0.59455985312E+02  0.00000000000E+00 0. -1.
<scales pt_clust_4="550.00000" pt_clust_5="550.00000" pt_clust_6="56.00953"></scales>
<mgrwt>
<rscale>  0 0.30000000E+03</rscale>
<asrwt>  1 0.56009530E+02</asrwt>
<pdfrwt beam="1">  1        1 0.90580131E+00 0.30000000E+03</pdfrwt>
<pdfrwt beam="2">0</pdfrwt>
<totfact> 0.81995239E-05</totfact>
</mgrwt>
<clustering>
<clus scale="   56.010">  1  6  2 -1</clus>
<clus scale="  458.966">  4  5 -1 -1</clus>
<clus scale="  300.000">  1  4  2 -1</clus>
</clustering>
</event>
<event>
 6    1  0.9254630E-012  0.3000000E+03  0.7818608E-02  0.1093470E+00
          1   -1    0    0  502    0  0.00000000000E+00  0.00000000000E+00  0.23365804061E+03  0.23365804061E+03  0.00000000000E+00 0.  1.
         13   -1    0    0    0    0 -0.00000000000E+00 -0.00000000000E+00 -0.27500000000E+03  0.27500000000E+03  0.00000000000E+00 0.  1.
    9000005    2    1    2  501    0  0.18583198909E+02  0.38105832569E+02 -0.41413888576E+02  0.46626234588E+03  0.46248035122E+03 0.  0.
         13    1    3    3    0    0  0.66868024819E+01  0.66781972404E+01  0.21120595576E+03  0.21141728263E+03  0.00000000000E+00 0.  1.
          3    1    3    3  501    0  0.11896396427E+02  0.31427635329E+02 -0.25261984434E+03  0.25484506325E+03  0.00000000000E+00 0.  1.
         21    1    1    2  502  501 -0.18583198909E+02 -0.38105832569E+02  0.71929182117E-01  0.42395694726E+02  0.00000000000E+00 0. -1.
<scales pt_clust_4="550.00000" pt_clust_5="550.00000" pt_clust_6="42.39563"></scales>
<mgrwt>
<rscale>  0 0.30000000E+03</rscale>
<asrwt>  1 0.42395634E+02</asrwt>
<pdfrwt beam="1">  1        1 0.84966560E+00 0.30000000E+03</pdfrwt>
<pdfrwt beam="2">0</pdfrwt>
<totfact> 0.39574304E-04</totfact>
</mgrwt>
<clustering>
<clus scale="   42.396">  1  6  2 -1</clus>
<clus scale="  462.480">  4  5 -1 -1</clus>
<clus scale="  300.000">  1  4  2 -1</clus>
</clustering>
</event>
<event>
 6    1  0.9254630E-012  0.3000000E+03  0.7818608E-02  0.1093470E+00
          1   -1    0    0  502    0  0.00000000000E+00  0.00000000000E+00  0.22826475803E+03  0.22826475803E+03  0.00000000000E+00 0.  1.
         13   -1    0    0    0    0 -0.00000000000E+00 -0.00000000000E+00 -0.27500000000E+03  0.27500000000E+03  0.00000000000E+00 0.  1.
    9000005    2    1    2  501    0 -0.20699910811E+02  0.25941953868E+02 -0.68020742335E+02  0.46383705452E+03  0.45762049832E+03 0.  0.
         13    1    3    3    0    0 -0.21285559323E+03  0.69117090046E+02  0.56512638201E+02  0.23082104319E+03  0.00000000000E+00 0.  1.
          3    1    3    3  501    0  0.19215568242E+03 -0.43175136178E+02 -0.12453338054E+03  0.23301601133E+03  0.00000000000E+00 0.  1.
         21    1    1    2  502  501  0.20699910811E+02 -0.25941953868E+02  0.21285500369E+02  0.39427703509E+02  0.00000000000E+00 0.  1.
<scales pt_clust_4="550.00000" pt_clust_5="550.00000" pt_clust_6="33.18842"></scales>
<mgrwt>
<rscale>  0 0.30000000E+03</rscale>
<asrwt>  1 0.33188421E+02</asrwt>
<pdfrwt beam="1">  1        1 0.83005367E+00 0.30000000E+03</pdfrwt>
<pdfrwt beam="2">0</pdfrwt>
<totfact> 0.59633587E-04</totfact>
</mgrwt>
<clustering>
<clus scale="   33.188">  1  6  2 -1</clus>
<clus scale="  457.620">  4  5 -1 -1</clus>
<clus scale="  300.000">  1  4  2 -1</clus>
</clustering>
</event>
<event>
 6    1  0.9254630E-012  0.3000000E+03  0.7818608E-02  0.1093470E+00
          1   -1    0    0  502    0  0.00000000000E+00  0.00000000000E+00  0.24214599716E+03  0.24214599716E+03  0.00000000000E+00 0.  1.
         13   -1    0    0    0    0 -0.00000000000E+00 -0.00000000000E+00 -0.27500000000E+03  0.27500000000E+03  0.00000000000E+00 0.  1.
    9000005    2    1    2  501    0 -0.34700257782E+02  0.28780305324E+02 -0.60884858261E+02  0.46405981515E+03  0.45783417545E+03 0.  0.
         13    1    3    3    0    0 -0.14550245917E+03  0.11514129085E+03 -0.19547025110E+03  0.26951271129E+03  0.00000000000E+00 0.  1.
          3    1    3    3  501    0  0.11080220139E+03 -0.86360985527E+02  0.13458539283E+03  0.19454710386E+03  0.00000000000E+00 0.  1.
         21    1    1    2  502  501  0.34700257782E+02 -0.28780305324E+02  0.28030855420E+02  0.53086182009E+02  0.00000000000E+00 0.  1.
<scales pt_clust_4="550.00000" pt_clust_5="550.00000" pt_clust_6="45.08230"></scales>
<mgrwt>
<rscale>  0 0.30000000E+03</rscale>
<asrwt>  1 0.45082301E+02</asrwt>
<pdfrwt beam="1">  1        1 0.88053090E+00 0.30000000E+03</pdfrwt>
<pdfrwt beam="2">0</pdfrwt>
<totfact> 0.18561323E-04</totfact>
</mgrwt>
<clustering>
<clus scale="   45.082">  1  6  2 -1</clus>
<clus scale="  457.834">  4  5 -1 -1</clus>
<clus scale="  300.000">  1  4  2 -1</clus>
</clustering>
</event>
<event>
 6    1  0.9254630E-012  0.3000000E+03  0.7818608E-02  0.1093470E+00
          1   -1    0    0  502    0  0.00000000000E+00  0.00000000000E+00  0.24642678278E+03  0.24642678278E+03  0.00000000000E+00 0.  1.
         13   -1    0    0    0    0 -0.00000000000E+00 -0.00000000000E+00 -0.27500000000E+03  0.27500000000E+03  0.00000000000E+00 0.  1.
    9000005    2    1    2  501    0  0.34308009508E+02 -0.12692221499E+02 -0.45346047069E+02  0.48118427013E+03  0.47764412049E+03 0.  0.
         13    1    3    3    0    0 -0.88013857659E+02 -0.22008644868E+03 -0.39726742693E+02  0.24033871540E+03  0.00000000000E+00 0.  1.
          1    1    3    3  501    0  0.12232186717E+03  0.20739422718E+03 -0.56193043758E+01  0.24084555474E+03  0.00000000000E+00 0.  1.
         21    1    1    2  502  501 -0.34308009508E+02  0.12692221499E+02  0.16772829851E+02  0.40242512648E+02  0.00000000000E+00 0.  1.
<scales pt_clust_4="550.00000" pt_clust_5="550.00000" pt_clust_6="36.58049"></scales>
<mgrwt>
<rscale>  0 0.30000000E+03</rscale>
<asrwt>  1 0.36580487E+02</asrwt>
<pdfrwt beam="1">  1        1 0.89609739E+00 0.30000000E+03</pdfrwt>
<pdfrwt beam="2">0</pdfrwt>
<totfact> 0.12158024E-04</totfact>
</mgrwt>
<clustering>
<clus scale="   36.580">  1  6  2 -1</clus>
<clus scale="  477.644">  4  5 -1 -1</clus>
<clus scale="  300.000">  1  4  2 -1</clus>
</clustering>
</event>
<event>
 6    1  0.9254630E-012  0.3000000E+03  0.7818608E-02  0.1093470E+00
          1   -1    0    0  502    0  0.00000000000E+00  0.00000000000E+00  0.24233310818E+03  0.24233310818E+03  0.00000000000E+00 0.  1.
         13   -1    0    0    0    0 -0.00000000000E+00 -0.00000000000E+00 -0.27500000000E+03  0.27500000000E+03  0.00000000000E+00 0.  1.
    9000005    2    1    2  501    0  0.44013706888E+01 -0.34830016918E+02 -0.58635417778E+02  0.47366542582E+03  0.46870920756E+03 0.  0.
         13    1    3    3    0    0 -0.51201141355E+02  0.10240535137E+03  0.16778514092E+03  0.20312623262E+03  0.00000000000E+00 0.  1.
          1    1    3    3  501    0  0.55602512044E+02 -0.13723536828E+03 -0.22642055870E+03  0.27053919320E+03  0.00000000000E+00 0.  1.
         21    1    1    2  502  501 -0.44013706888E+01  0.34830016918E+02  0.25968525955E+02  0.43667682360E+02  0.00000000000E+00 0. -1.
<scales pt_clust_4="550.00000" pt_clust_5="550.00000" pt_clust_6="35.10701"></scales>
<mgrwt>
<rscale>  0 0.30000000E+03</rscale>
<asrwt>  1 0.35107010E+02</asrwt>
<pdfrwt beam="1">  1        1 0.88121130E+00 0.30000000E+03</pdfrwt>
<pdfrwt beam="2">0</pdfrwt>
<totfact> 0.19047874E-04</totfact>
</mgrwt>
<clustering>
<clus scale="   35.107">  1  6  2 -1</clus>
<clus scale="  468.709">  4  5 -1 -1</clus>
<clus scale="  300.000">  1  4  2 -1</clus>
</clustering>
</event>
<event>
 6    1  0.9254630E-012  0.3000000E+03  0.7818608E-02  0.1093470E+00
          1   -1    0    0  502    0  0.00000000000E+00  0.00000000000E+00  0.25333977388E+03  0.25333977388E+03  0.00000000000E+00 0.  1.
         13   -1    0    0    0    0 -0.00000000000E+00 -0.00000000000E+00 -0.27500000000E+03  0.27500000000E+03  0.00000000000E+00 0.  1.
    9000005    2    1    2  501    0 -0.32754626406E+02  0.14660218318E+02 -0.44094785560E+02  0.48601841982E+03  0.48268184837E+03 0.  0.
         13    1    3    3    0    0  0.10184867038E+03 -0.94570288066E+02 -0.20621167945E+03  0.24867639169E+03  0.00000000000E+00 0.  1.
          3    1    3    3  501    0 -0.13460329678E+03  0.10923050638E+03  0.16211689390E+03  0.23734202813E+03  0.00000000000E+00 0.  1.
         21    1    1    2  502  501  0.32754626406E+02 -0.14660218318E+02  0.22434559442E+02  0.42321354060E+02  0.00000000000E+00 0.  1.
<scales pt_clust_4="550.00000" pt_clust_5="550.00000" pt_clust_6="35.88576"></scales>
<mgrwt>
<rscale>  0 0.30000000E+03</rscale>
<asrwt>  1 0.35885757E+02</asrwt>
<pdfrwt beam="1">  1        1 0.92123554E+00 0.30000000E+03</pdfrwt>
<pdfrwt beam="2">0</pdfrwt>
<totfact> 0.39134271E-05</totfact>
</mgrwt>
<clustering>
<clus scale="   35.886">  1  6  2 -1</clus>
<clus scale="  482.682">  4  5 -1 -1</clus>
<clus scale="  300.000">  1  4  2 -1</clus>
</clustering>
</event>
<event>
 6    1  0.9254630E-012  0.3000000E+03  0.7818608E-02  0.1093470E+00
          1   -1    0    0  502    0  0.00000000000E+00  0.00000000000E+00  0.23401375331E+03  0.23401375331E+03  0.00000000000E+00 0.  1.
         13   -1    0    0    0    0 -0.00000000000E+00 -0.00000000000E+00 -0.27500000000E+03  0.27500000000E+03  0.00000000000E+00 0.  1.
    9000005    2    1    2  501    0 -0.31952567267E+02 -0.14105243297E+02 -0.50207526161E+02  0.47288957251E+03  0.46891771950E+03 0.  0.
         13    1    3    3    0    0  0.10336773841E+03  0.16452158845E+03  0.83999732305E+02  0.21167946862E+03  0.00000000000E+00 0.  1.
          1    1    3    3  501    0 -0.13532030567E+03 -0.17862683175E+03 -0.13420725847E+03  0.26121010389E+03  0.00000000000E+00 0.  1.
         21    1    1    2  502  501  0.31952567267E+02  0.14105243297E+02  0.92212794717E+01  0.36124180801E+02  0.00000000000E+00 0. -1.
<scales pt_clust_4="550.00000" pt_clust_5="550.00000" pt_clust_6="34.92742"></scales>
<mgrwt>
<rscale>  0 0.30000000E+03</rscale>
<asrwt>  1 0.34927417E+02</asrwt>
<pdfrwt beam="1">  1        1 0.85095910E+00 0.30000000E+03</pdfrwt>
<pdfrwt beam="2">0</pdfrwt>
<totfact> 0.39875179E-04</totfact>
</mgrwt>
<clustering>
<clus scale="   34.927">  1  6  2 -1</clus>
<clus scale="  468.918">  4  5 -1 -1</clus>
<clus scale="  300.000">  1  4  2 -1</clus>
</clustering>
</event>
<event>
 6    1  0.9254630E-012  0.3000000E+03  0.7818608E-02  0.1093470E+00
          1   -1    0    0  502    0  0.00000000000E+00  0.00000000000E+00  0.23209031013E+03  0.23209031013E+03  0.00000000000E+00 0.  1.
         13   -1    0    0    0    0 -0.00000000000E+00 -0.00000000000E+00 -0.27500000000E+03  0.27500000000E+03  0.00000000000E+00 0.  1.
    9000005    2    1    2  501    0 -0.29126935434E+02  0.24376301323E+02 -0.40851571896E+02  0.46905324553E+03  0.46572471889E+03 0.  0.
         13    1    3    3    0    0  0.12400502255E+03  0.65783630830E+02 -0.20000200769E+03  0.24434716038E+03  0.00000000000E+00 0.  1.
          1    1    3    3  501    0 -0.15313195798E+03 -0.41407329507E+02  0.15915043580E+03  0.22470608516E+03  0.00000000000E+00 0.  1.
         21    1    1    2  502  501  0.29126935434E+02 -0.24376301323E+02 -0.20581179698E+01  0.38037064602E+02  0.00000000000E+00 0.  1.
<scales pt_clust_4="550.00000" pt_clust_5="550.00000" pt_clust_6="37.98134"></scales>
<mgrwt>
<rscale>  0 0.30000000E+03</rscale>
<asrwt>  1 0.37981343E+02</asrwt>
<pdfrwt beam="1">  1        1 0.84396476E+00 0.30000000E+03</pdfrwt>
<pdfrwt beam="2">0</pdfrwt>
<totfact> 0.45430028E-04</totfact>
</mgrwt>
<clustering>
<clus scale="   37.981">  1  6  2 -1</clus>
<clus scale="  465.725">  4  5 -1 -1</clus>
<clus scale="  300.000">  1  4  2 -1</clus>
</clustering>
</event>
<event>
 6    1  0.9254630E-012  0.3000000E+03  0.7818608E-02  0.1093470E+00
          1   -1    0    0  502    0  0.00000000000E+00  0.00000000000E+00  0.24708014529E+03  0.24708014529E+03  0.00000000000E+00 0.  1.
         13   -1    0    0    0    0 -0.00000000000E+00 -0.00000000000E+00 -0.27500000000E+03  0.27500000000E+03  0.00000000000E+00 0.  1.
    9000005    2    1    2  501    0 -0.29863934606E+02 -0.11341176057E+02 -0.39372226715E+02  0.48814441649E+03  0.48550419385E+03 0.  0.
         13    1    3    3    0    0 -0.11774006668E+03  0.21118185376E+03 -0.56453996181E+02  0.24828925137E+03  0.00000000000E+00 0.  1.
          1    1    3    3  501    0  0.87876132076E+02 -0.22252302982E+03  0.17081769466E+02  0.23985516512E+03  0.00000000000E+00 0.  1.
         21    1    1    2  502  501  0.29863934606E+02  0.11341176057E+02  0.11452372004E+02  0.33935728797E+02  0.00000000000E+00 0. -1.
<scales pt_clust_4="550.00000" pt_clust_5="550.00000" pt_clust_6="31.94490"></scales>
<mgrwt>
<rscale>  0 0.30000000E+03</rscale>
<asrwt>  1 0.31944904E+02</asrwt>
<pdfrwt beam="1">  1        1 0.89847326E+00 0.30000000E+03</pdfrwt>
<pdfrwt beam="2">0</pdfrwt>
<totfact> 0.11722920E-04</totfact>
</mgrwt>
<clustering>
<clus scale="   31.945">  1  6  2 -1</clus>
<clus scale="  485.504">  4  5 -1 -1</clus>
<clus scale="  300.000">  1  4  2 -1</clus>
</clustering>
</event>
<event>
 6    1  0.9254630E-012  0.3000000E+03  0.7818608E-02  0.1093470E+00
          1   -1    0    0  502    0  0.00000000000E+00  0.00000000000E+00  0.24971448394E+03  0.24971448394E+03  0.00000000000E+00 0.  1.
         13   -1    0    0    0    0 -0.00000000000E+00 -0.00000000000E+00 -0.27500000000E+03  0.27500000000E+03  0.00000000000E+00 0.  1.
    9000005    2    1    2  501    0  0.27175544961E+02 -0.15850516997E+02 -0.58699078260E+02  0.47882096292E+03  0.47416683099E+03 0.  0.
         13    1    3    3    0    0  0.73577850659E+00  0.18264991840E+03 -0.17016508223E+03  0.24963511226E+03  0.00000000000E+00 0.  1.
          3    1    3    3  501    0  0.26439766455E+02 -0.19850043540E+03  0.11146600397E+03  0.22918585066E+03  0.00000000000E+00 0.  1.
         21    1    1    2  502  501 -0.27175544961E+02  0.15850516997E+02  0.33413562203E+02  0.45893521025E+02  0.00000000000E+00 0. -1.
<scales pt_clust_4="550.00000" pt_clust_5="550.00000" pt_clust_6="31.46028"></scales>
<mgrwt>
<rscale>  0 0.30000000E+03</rscale>
<asrwt>  1 0.31460279E+02</asrwt>
<pdfrwt beam="1">  1        1 0.90805267E+00 0.30000000E+03</pdfrwt>
<pdfrwt beam="2">0</pdfrwt>
<totfact> 0.81480641E-05</totfact>
</mgrwt>
<clustering>
<clus scale="   31.460">  1  6  2 -1</clus>
<clus scale="  474.167">  4  5 -1 -1</clus>
<clus scale="  300.000">  1  4  2 -1</clus>
</clustering>
</event>
<event>
 6    1  0.9254630E-012  0.3000000E+03  0.7818608E-02  0.1093470E+00
          1   -1    0    0  502    0  0.00000000000E+00  0.00000000000E+00  0.23571395280E+03  0.23571395280E+03  0.00000000000E+00 0.  1.
         13   -1    0    0    0    0 -0.00000000000E+00 -0.00000000000E+00 -0.27500000000E+03  0.27500000000E+03  0.00000000000E+00 0.  1.
    9000005    2    1    2  501    0 -0.29766587609E+02  0.11265623446E+02 -0.23032202356E+02  0.47497669659E+03  0.47334914804E+03 0.  0.
         13    1    3    3    0    0  0.17893969762E+03  0.16528309258E+02  0.12512786577E+03  0.21897393266E+03  0.00000000000E+00 0.  1.
          3    1    3    3  501    0 -0.20870628523E+03 -0.52626858121E+01 -0.14816006812E+03  0.25600276394E+03  0.00000000000E+00 0.  1.
         21    1    1    2  502  501  0.29766587609E+02 -0.11265623446E+02 -0.16253844839E+02  0.35737256212E+02  0.00000000000E+00 0.  1.
<scales pt_clust_4="550.00000" pt_clust_5="550.00000" pt_clust_6="31.82711"></scales>
<mgrwt>
<rscale>  0 0.30000000E+03</rscale>
<asrwt>  1 0.31827111E+02</asrwt>
<pdfrwt beam="1">  1        1 0.85714165E+00 0.30000000E+03</pdfrwt>
<pdfrwt beam="2">0</pdfrwt>
<totfact> 0.35287986E-04</totfact>
</mgrwt>
<clustering>
<clus scale="   31.827">  1  6  2 -1</clus>
<clus scale="  473.349">  4  5 -1 -1</clus>
<clus scale="  300.000">  1  4  2 -1</clus>
</clustering>
</event>
<event>
 6    1  0.9254630E-012  0.3000000E+03  0.7818608E-02  0.1093470E+00
          1   -1    0    0  502    0  0.00000000000E+00  0.00000000000E+00  0.24754981206E+03  0.24754981206E+03  0.00000000000E+00 0.  1.
         13   -1    0    0    0    0 -0.00000000000E+00 -0.00000000000E+00 -0.27500000000E+03  0.27500000000E+03  0.00000000000E+00 0.  1.
    9000005    2    1    2  501    0 -0.20067259152E+02  0.31705226607E+02 -0.55678766897E+02  0.47559484476E+03  0.47083162064E+03 0.  0.
         13    1    3    3    0    0  0.18203888945E+03 -0.11749535840E+03 -0.58292600082E+02  0.22436876731E+03  0.00000000000E+00 0.  1.
          1    1    3    3  501    0 -0.20210614860E+03  0.14920058500E+03  0.26138331847E+01  0.25122607745E+03  0.00000000000E+00 0.  1.
         21    1    1    2  502  501  0.20067259152E+02 -0.31705226607E+02  0.28228578953E+02  0.46954967296E+02  0.00000000000E+00 0.  1.
<scales pt_clust_4="550.00000" pt_clust_5="550.00000" pt_clust_6="37.52221"></scales>
<mgrwt>
<rscale>  0 0.30000000E+03</rscale>
<asrwt>  1 0.37522211E+02</asrwt>
<pdfrwt beam="1">  1        1 0.90018113E+00 0.30000000E+03</pdfrwt>
<pdfrwt beam="2">0</pdfrwt>
<totfact> 0.10845034E-04</totfact>
</mgrwt>
<clustering>
<clus scale="   37.522">  1  6  2 -1</clus>
<clus scale="  470.832">  4  5 -1 -1</clus>
<clus scale="  300.000">  1  4  2 -1</clus>
</clustering>
</event>
<event>
 6    1  0.9254630E-012  0.3000000E+03  0.7818608E-02  0.1093470E+00
          1   -1    0    0  502    0  0.00000000000E+00  0.00000000000E+00  0.25579983898E+03  0.25579983898E+03  0.00000000000E+00 0.  1.
         13   -1    0    0    0    0 -0.00000000000E+00 -0.00000000000E+00 -0.27500000000E+03  0.27500000000E+03  0.00000000000E+00 0.  1.
    9000005    2    1    2  501    0 -0.31124615949E+02  0.50042700988E+00 -0.26942840029E+02  0.49872272528E+03  0.49702057094E+03 0.  0.
         13    1    3    3    0    0  0.94551916752E+02 -0.18057691715E+03 -0.14360123545E+03  0.24933792891E+03  0.00000000000E+00 0.  1.
          3    1    3    3  501    0 -0.12567653270E+03  0.18107734416E+03  0.11665839542E+03  0.24938479637E+03  0.00000000000E+00 0.  1.
         21    1    1    2  502  501  0.31124615949E+02 -0.50042700988E+00  0.77426790130E+01  0.32077113702E+02  0.00000000000E+00 0. -1.
<scales pt_clust_4="550.00000" pt_clust_5="550.00000" pt_clust_6="31.12864"></scales>
<mgrwt>
<rscale>  0 0.30000000E+03</rscale>
<asrwt>  1 0.31128639E+02</asrwt>
<pdfrwt beam="1">  1        1 0.93018123E+00 0.30000000E+03</pdfrwt>
<pdfrwt beam="2">0</pdfrwt>
<totfact> 0.26704979E-05</totfact>
</mgrwt>
<clustering>
<clus scale="   31.129">  1  6  2 -1</clus>
<clus scale="  497.021">  4  5 -1 -1</clus>
<clus scale="  300.000">  1  4  2 -1</clus>
</clustering>
</event>
<event>
 6    1  0.9254630E-012  0.3000000E+03  0.7818608E-02  0.1093470E+00
          1   -1    0    0  502    0  0.00000000000E+00  0.00000000000E+00  0.22233636441E+03  0.22233636441E+03  0.00000000000E+00 0.  1.
         13   -1    0    0    0    0 -0.00000000000E+00 -0.00000000000E+00 -0.27500000000E+03  0.27500000000E+03  0.00000000000E+00 0.  1.
    9000005    2    1    2  501    0  0.31135866945E+02  0.54200565129E+01 -0.65887678757E+02  0.46307713878E+03  0.45727500591E+03 0.  0.
         13    1    3    3    0    0 -0.80238390880E+02 -0.10372943280E+03 -0.21206297312E+03  0.24933651792E+03  0.00000000000E+00 0.  1.
          3    1    3    3  501    0  0.11137425783E+03  0.10914948931E+03  0.14617529436E+03  0.21374062086E+03  0.00000000000E+00 0.  1.
         21    1    1    2  502  501 -0.31135866945E+02 -0.54200565129E+01  0.13224043167E+02  0.34259225629E+02  0.00000000000E+00 0.  1.
<scales pt_clust_4="550.00000" pt_clust_5="550.00000" pt_clust_6="31.60410"></scales>
<mgrwt>
<rscale>  0 0.30000000E+03</rscale>
<asrwt>  1 0.31604101E+02</asrwt>
<pdfrwt beam="1">  1        1 0.80849587E+00 0.30000000E+03</pdfrwt>
<pdfrwt beam="2">0</pdfrwt>
<totfact> 0.91334923E-04</totfact>
</mgrwt>
<clustering>
<clus scale="   31.604">  1  6  2 -1</clus>
<clus scale="  457.275">  4  5 -1 -1</clus>
<clus scale="  300.000">  1  4  2 -1</clus>
</clustering>
</event>
<event>
 6    1  0.9254630E-012  0.3000000E+03  0.7818608E-02  0.1093470E+00
          1   -1    0    0  502    0  0.00000000000E+00  0.00000000000E+00  0.23765271721E+03  0.23765271721E+03  0.00000000000E+00 0.  1.
         13   -1    0    0    0    0 -0.00000000000E+00 -0.00000000000E+00 -0.27500000000E+03  0.27500000000E+03  0.00000000000E+00 0.  1.
    9000005    2    1    2  501    0  0.35111882774E+02  0.17622761014E+02 -0.55954030823E+02  0.46918299108E+03  0.46417498805E+03 0.  0.
         13    1    3    3    0    0  0.11449307296E+03 -0.11696352863E+03 -0.19877767083E+03  0.25749115170E+03  0.00000000000E+00 0.  1.
          3    1    3    3  501    0 -0.79381190185E+02  0.13458628964E+03  0.14282364000E+03  0.21169183938E+03  0.00000000000E+00 0.  1.
         21    1    1    2  502  501 -0.35111882774E+02 -0.17622761014E+02  0.18606748037E+02  0.43469726134E+02  0.00000000000E+00 0.  1.
<scales pt_clust_4="550.00000" pt_clust_5="550.00000" pt_clust_6="39.28621"></scales>
<mgrwt>
<rscale>  0 0.30000000E+03</rscale>
<asrwt>  1 0.39286206E+02</asrwt>
<pdfrwt beam="1">  1        1 0.86419170E+00 0.30000000E+03</pdfrwt>
<pdfrwt beam="2">0</pdfrwt>
<totfact> 0.28532763E-04</totfact>
</mgrwt>
<clustering>
<clus scale="   39.286">  1  6  2 -1</clus>
<clus scale="  464.175">  4  5 -1 -1</clus>
<clus scale="  300.000">  1  4  2 -1</clus>
</clustering>
</event>
<event>
 6    1  0.9254630E-012  0.3000000E+03  0.7818608E-02  0.1093470E+00
          1   -1    0    0  502    0  0.00000000000E+00  0.00000000000E+00  0.23071141408E+03  0.23071141408E+03  0.00000000000E+00 0.  1.
         13   -1    0    0    0    0 -0.00000000000E+00 -0.00000000000E+00 -0.27500000000E+03  0.27500000000E+03  0.00000000000E+00 0.  1.
    9000005    2    1    2  501    0  0.26799026225E+02 -0.24332255028E+02 -0.61345788384E+02  0.46569648440E+03  0.46021697425E+03 0.  0.
         13    1    3    3    0    0  0.13592157311E+03 -0.63400492200E+02 -0.22180552992E+03  0.26775359858E+03  0.00000000000E+00 0.  1.
          3    1    3    3  501    0 -0.10912254689E+03  0.39068237172E+02  0.16045974154E+03  0.19794288582E+03  0.00000000000E+00 0.  1.
         21    1    1    2  502  501 -0.26799026225E+02  0.24332255028E+02  0.17057202467E+02  0.40014929681E+02  0.00000000000E+00 0.  1.
<scales pt_clust_4="550.00000" pt_clust_5="550.00000" pt_clust_6="36.19733"></scales>
<mgrwt>
<rscale>  0 0.30000000E+03</rscale>
<asrwt>  1 0.36197326E+02</asrwt>
<pdfrwt beam="1">  1        1 0.83895060E+00 0.30000000E+03</pdfrwt>
<pdfrwt beam="2">0</pdfrwt>
<totfact> 0.50304347E-04</totfact>
</mgrwt>
<clustering>
<clus scale="   36.197">  1  6  2 -1</clus>
<clus scale="  460.217">  4  5 -1 -1</clus>
<clus scale="  300.000">  1  4  2 -1</clus>
</clustering>
</event>
<event>
 6    1  0.9254630E-012  0.3000000E+03  0.7818608E-02  0.1093470E+00
          1   -1    0    0  502    0  0.00000000000E+00  0.00000000000E+00  0.23355167040E+03  0.23355167040E+03  0.00000000000E+00 0.  1.
         13   -1    0    0    0    0 -0.00000000000E+00 -0.00000000000E+00 -0.27500000000E+03  0.27500000000E+03  0.00000000000E+00 0.  1.
    9000005    2    1    2  501    0  0.14233147948E+02 -0.37107924823E+02 -0.25585599857E+02  0.46575906847E+03  0.46335440686E+03 0.  0.
         13    1    3    3    0    0 -0.19800475729E+03  0.34922850509E+02  0.82009308926E+02  0.21714284734E+03  0.00000000000E+00 0.  1.
          3    1    3    3  501    0  0.21223790524E+03 -0.72030775333E+02 -0.10759490878E+03  0.24861622114E+03  0.00000000000E+00 0.  1.
         21    1    1    2  502  501 -0.14233147948E+02  0.37107924823E+02 -0.15862729739E+02  0.42792601931E+02  0.00000000000E+00 0.  1.
<scales pt_clust_4="550.00000" pt_clust_5="550.00000" pt_clust_6="39.74396"></scales>
<mgrwt>
<rscale>  0 0.30000000E+03</rscale>
<asrwt>  1 0.39743958E+02</asrwt>
<pdfrwt beam="1">  1        1 0.84927880E+00 0.30000000E+03</pdfrwt>
<pdfrwt beam="2">0</pdfrwt>
<totfact> 0.40375091E-04</totfact>
</mgrwt>
<clustering>
<clus scale="   39.744">  1  6  2 -1</clus>
<clus scale="  463.354">  4  5 -1 -1</clus>
<clus scale="  300.000">  1  4  2 -1</clus>
</clustering>
</event>
<event>
 6    1  0.9254630E-012  0.3000000E+03  0.7818608E-02  0.1093470E+00
          1   -1    0    0  502    0  0.00000000000E+00  0.00000000000E+00  0.22804035590E+03  0.22804035590E+03  0.00000000000E+00 0.  1.
         13   -1    0    0    0    0 -0.00000000000E+00 -0.00000000000E+00 -0.27500000000E+03  0.27500000000E+03  0.00000000000E+00 0.  1.
    9000005    2    1    2  501    0  0.70227811740E+01  0.35299829296E+02 -0.57639476211E+02  0.46549763067E+03  0.46051095268E+03 0.  0.
         13    1    3    3    0    0 -0.36546540884E+02 -0.10413407751E+03 -0.22058777042E+03  0.24665465779E+03  0.00000000000E+00 0.  1.
          3    1    3    3  501    0  0.43569322058E+02  0.13943390681E+03  0.16294829421E+03  0.21884297288E+03  0.00000000000E+00 0.  1.
         21    1    1    2  502  501 -0.70227811740E+01 -0.35299829296E+02  0.10679832113E+02  0.37542725230E+02  0.00000000000E+00 0. -1.
<scales pt_clust_4="550.00000" pt_clust_5="550.00000" pt_clust_6="35.99163"></scales>
<mgrwt>
<rscale>  0 0.30000000E+03</rscale>
<asrwt>  1 0.35991630E+02</asrwt>
<pdfrwt beam="1">  1        1 0.82923766E+00 0.30000000E+03</pdfrwt>
<pdfrwt beam="2">0</pdfrwt>
<totfact> 0.59662275E-04</totfact>
</mgrwt>
<clustering>
<clus scale="   35.992">  1  6  2 -1</clus>
<clus scale="  460.511">  4  5 -1 -1</clus>
<clus scale="  300.000">  1  4  2 -1</clus>
</clustering>
</event>
<event>
 6    1  0.9254630E-012  0.3000000E+03  0.7818608E-02  0.1093470E+00
          1   -1    0    0  502    0  0.00000000000E+00  0.00000000000E+00  0.22240250533E+03  0.22240250533E+03  0.00000000000E+00 0.  1.
         13   -1    0    0    0    0 -0.00000000000E+00 -0.00000000000E+00 -0.27500000000E+03  0.27500000000E+03  0.00000000000E+00 0.  1.
    9000005    2    1    2  501    0 -0.30251016470E+02 -0.13237163332E+02 -0.59130839180E+02  0.46374197828E+03  0.45876989852E+03 0.  0.
         13    1    3    3    0    0  0.11503350453E+03  0.17096201785E+03  0.38521928847E+02  0.20962981113E+03  0.00000000000E+00 0.  1.
          3    1    3    3  501    0 -0.14528452100E+03 -0.18419918118E+03 -0.97652768027E+02  0.25411216715E+03  0.00000000000E+00 0.  1.
         21    1    1    2  502  501  0.30251016470E+02  0.13237163332E+02  0.65333445104E+01  0.33660527046E+02  0.00000000000E+00 0.  1.
<scales pt_clust_4="550.00000" pt_clust_5="550.00000" pt_clust_6="33.02040"></scales>
<mgrwt>
<rscale>  0 0.30000000E+03</rscale>
<asrwt>  1 0.33020395E+02</asrwt>
<pdfrwt beam="1">  1        1 0.80873638E+00 0.30000000E+03</pdfrwt>
<pdfrwt beam="2">0</pdfrwt>
<totfact> 0.90190634E-04</totfact>
</mgrwt>
<clustering>
<clus scale="   33.020">  1  6  2 -1</clus>
<clus scale="  458.770">  4  5 -1 -1</clus>
<clus scale="  300.000">  1  4  2 -1</clus>
</clustering>
</event>
<event>
 6    1  0.9254630E-012  0.3000000E+03  0.7818608E-02  0.1093470E+00
          1   -1    0    0  502    0  0.00000000000E+00  0.00000000000E+00  0.26210754694E+03  0.26210754694E+03  0.00000000000E+00 0.  1.
         13   -1    0    0    0    0 -0.00000000000E+00 -0.00000000000E+00 -0.27500000000E+03  0.27500000000E+03  0.00000000000E+00 0.  1.
    9000005    2    1    2  501    0 -0.22086432580E+02 -0.33984904325E+02 -0.63360416767E+02  0.47237888569E+03  0.46635231854E+03 0.  0.
         13    1    3    3    0    0  0.18682149916E+03  0.10748240884E+03 -0.21105585721E+02  0.21656450888E+03  0.00000000000E+00 0.  1.
          3    1    3    3  501    0 -0.20890793174E+03 -0.14146731317E+03 -0.42254831046E+02  0.25581437681E+03  0.00000000000E+00 0.  1.
         21    1    1    2  502  501  0.22086432580E+02  0.33984904325E+02  0.50467963712E+02  0.64728661250E+02  0.00000000000E+00 0.  1.
<scales pt_clust_4="550.00000" pt_clust_5="550.00000" pt_clust_6="40.53127"></scales>
<mgrwt>
<rscale>  0 0.30000000E+03</rscale>
<asrwt>  1 0.40531275E+02</asrwt>
<pdfrwt beam="1">  1        1 0.95311835E+00 0.30000000E+03</pdfrwt>
<pdfrwt beam="2">0</pdfrwt>
<totfact> 0.10350096E-05</totfact>
</mgrwt>
<clustering>
<clus scale="   40.531">  1  6  2 -1</clus>
<clus scale="  466.352">  4  5 -1 -1</clus>
<clus scale="  300.000">  1  4  2 -1</clus>
</clustering>
</event>
<event>
 6    1  0.9254630E-012  0.3000000E+03  0.7818608E-02  0.1093470E+00
          1   -1    0    0  502    0  0.00000000000E+00  0.00000000000E+00  0.24183244842E+03  0.24183244842E+03  0.00000000000E+00 0.  1.
         13   -1    0    0    0    0 -0.00000000000E+00 -0.00000000000E+00 -0.27500000000E+03  0.27500000000E+03  0.00000000000E+00 0.  1.
    9000005    2    1    2  501    0  0.24568305935E+02 -0.23239961850E+02 -0.37469142475E+02  0.48274137675E+03  0.48009541000E+03 0.  0.
         13    1    3    3    0    0 -0.20596051935E+03 -0.11194913674E+02  0.83019816043E+02  0.22234511795E+03  0.00000000000E+00 0.  1.
          3    1    3    3  501    0  0.23052882528E+03 -0.12045048176E+02 -0.12048895852E+03  0.26039625880E+03  0.00000000000E+00 0.  1.
         21    1    1    2  502  501 -0.24568305935E+02  0.23239961850E+02  0.43015908971E+01  0.34091071669E+02  0.00000000000E+00 0.  1.
<scales pt_clust_4="550.00000" pt_clust_5="550.00000" pt_clust_6="33.81860"></scales>
<mgrwt>
<rscale>  0 0.30000000E+03</rscale>
<asrwt>  1 0.33818597E+02</asrwt>
<pdfrwt beam="1">  1        1 0.87939072E+00 0.30000000E+03</pdfrwt>
<pdfrwt beam="2">0</pdfrwt>
<totfact> 0.20208225E-04</totfact>
</mgrwt>
<clustering>
<clus scale="   33.819">  1  6  2 -1</clus>
<clus scale="  480.095">  4  5 -1 -1</clus>
<clus scale="  300.000">  1  4  2 -1</clus>
</clustering>
</event>
<event>
 6    1  0.9254630E-012  0.3000000E+03  0.7818608E-02  0.1093470E+00
          1   -1    0    0  502    0  0.00000000000E+00  0.00000000000E+00  0.22233636589E+03  0.22233636589E+03  0.00000000000E+00 0.  1.
         13   -1    0    0    0    0 -0.00000000000E+00 -0.00000000000E+00 -0.27500000000E+03  0.27500000000E+03  0.00000000000E+00 0.  1.
    9000005    2    1    2  501    0  0.26605355588E+02  0.14070500222E+02 -0.61553035091E+02  0.46595411976E+03  0.46088896892E+03 0.  0.
         13    1    3    3    0    0  0.21250576258E+03  0.76823087678E+02  0.61711570729E+02  0.23424090995E+03  0.00000000000E+00 0.  1.
          1    1    3    3  501    0 -0.18590040700E+03 -0.62752587456E+02 -0.12326460582E+03  0.23171320981E+03  0.00000000000E+00 0.  1.
         21    1    1    2  502  501 -0.26605355588E+02 -0.14070500222E+02  0.88894009842E+01  0.31382246132E+02  0.00000000000E+00 0. -1.
<scales pt_clust_4="550.00000" pt_clust_5="550.00000" pt_clust_6="30.09691"></scales>
<mgrwt>
<rscale>  0 0.30000000E+03</rscale>
<asrwt>  1 0.30096909E+02</asrwt>
<pdfrwt beam="1">  1        1 0.80849588E+00 0.30000000E+03</pdfrwt>
<pdfrwt beam="2">0</pdfrwt>
<totfact> 0.92194152E-04</totfact>
</mgrwt>
<clustering>
<clus scale="   30.097">  1  6  2 -1</clus>
<clus scale="  460.889">  4  5 -1 -1</clus>
<clus scale="  300.000">  1  4  2 -1</clus>
</clustering>
</event>
<event>
 6    1  0.9254630E-012  0.3000000E+03  0.7818608E-02  0.1093470E+00
          1   -1    0    0  502    0  0.00000000000E+00  0.00000000000E+00  0.24029183631E+03  0.24029183631E+03  0.00000000000E+00 0.  1.
         13   -1    0    0    0    0 -0.00000000000E+00 -0.00000000000E+00 -0.27500000000E+03  0.27500000000E+03  0.00000000000E+00 0.  1.
    9000005    2    1    2  501    0 -0.26235196389E+02  0.17002766913E+02 -0.64958664863E+02  0.47178927968E+03  0.46624898570E+03 0.  0.
         13    1    3    3    0    0 -0.19176639640E+03  0.15693300122E+03 -0.91269293548E+01  0.24796293775E+03  0.00000000000E+00 0.  1.
          3    1    3    3  501    0  0.16553120001E+03 -0.13993023431E+03 -0.55831735508E+02  0.22382634193E+03  0.00000000000E+00 0.  1.
         21    1    1    2  502  501  0.26235196389E+02 -0.17002766913E+02  0.30250501170E+02  0.43502556629E+02  0.00000000000E+00 0.  1.
<scales pt_clust_4="550.00000" pt_clust_5="550.00000" pt_clust_6="31.26307"></scales>
<mgrwt>
<rscale>  0 0.30000000E+03</rscale>
<asrwt>  1 0.31263071E+02</asrwt>
<pdfrwt beam="1">  1        1 0.87378850E+00 0.30000000E+03</pdfrwt>
<pdfrwt beam="2">0</pdfrwt>
<totfact> 0.23659071E-04</totfact>
</mgrwt>
<clustering>
<clus scale="   31.263">  1  6  2 -1</clus>
<clus scale="  466.249">  4  5 -1 -1</clus>
<clus scale="  300.000">  1  4  2 -1</clus>
</clustering>
</event>
<event>
 6    1  0.9254630E-012  0.3000000E+03  0.7818608E-02  0.1093470E+00
          1   -1    0    0  502    0  0.00000000000E+00  0.00000000000E+00  0.22865304583E+03  0.22865304583E+03  0.00000000000E+00 0.  1.
         13   -1    0    0    0    0 -0.00000000000E+00 -0.00000000000E+00 -0.27500000000E+03  0.27500000000E+03  0.00000000000E+00 0.  1.
    9000005    2    1    2  501    0  0.34993440069E+02  0.21562844441E+02 -0.36106058939E+02  0.46129300519E+03  0.45803721687E+03 0.  0.
         13    1    3    3    0    0  0.12944959185E+03 -0.39253595607E+02  0.17557964296E+03  0.22164442835E+03  0.00000000000E+00 0.  1.
          1    1    3    3  501    0 -0.94456151781E+02  0.60816440048E+02 -0.21168570190E+03  0.23964857683E+03  0.00000000000E+00 0.  1.
         21    1    1    2  502  501 -0.34993440069E+02 -0.21562844441E+02 -0.10240895228E+02  0.42360040644E+02  0.00000000000E+00 0. -1.
<scales pt_clust_4="550.00000" pt_clust_5="550.00000" pt_clust_6="41.10351"></scales>
<mgrwt>
<rscale>  0 0.30000000E+03</rscale>
<asrwt>  1 0.41103513E+02</asrwt>
<pdfrwt beam="1">  1        1 0.83146562E+00 0.30000000E+03</pdfrwt>
<pdfrwt beam="2">0</pdfrwt>
<totfact> 0.55838769E-04</totfact>
</mgrwt>
<clustering>
<clus scale="   41.104">  1  6  2 -1</clus>
<clus scale="  458.037">  4  5 -1 -1</clus>
<clus scale="  300.000">  1  4  2 -1</clus>
</clustering>
</event>
<event>
 6    1  0.9254630E-012  0.3000000E+03  0.7818608E-02  0.1093470E+00
          1   -1    0    0  502    0  0.00000000000E+00  0.00000000000E+00  0.25896151827E+03  0.25896151827E+03  0.00000000000E+00 0.  1.
         13   -1    0    0    0    0 -0.00000000000E+00 -0.00000000000E+00 -0.27500000000E+03  0.27500000000E+03  0.00000000000E+00 0.  1.
    9000005    2    1    2  501    0 -0.52935225526E+02 -0.15491386262E+02 -0.47262521762E+02  0.47058122302E+03  0.46494173866E+03 0.  0.
         13    1    3    3    0    0 -0.40354817886E+02  0.21580065516E+03 -0.85897539167E+02  0.23574736760E+03  0.00000000000E+00 0.  1.
          1    1    3    3  501    0 -0.12580407641E+02 -0.23129204142E+03  0.38635017405E+02  0.23483385542E+03  0.00000000000E+00 0.  1.
         21    1    1    2  502  501  0.52935225526E+02  0.15491386262E+02  0.31224040028E+02  0.63380295246E+02  0.00000000000E+00 0.  1.
<scales pt_clust_4="550.00000" pt_clust_5="550.00000" pt_clust_6="55.15543"></scales>
<mgrwt>
<rscale>  0 0.30000000E+03</rscale>
<asrwt>  1 0.55155427E+02</asrwt>
<pdfrwt beam="1">  1        1 0.94167825E+00 0.30000000E+03</pdfrwt>
<pdfrwt beam="2">0</pdfrwt>
<totfact> 0.16513246E-05</totfact>
</mgrwt>
<clustering>
<clus scale="   55.155">  1  6  2 -1</clus>
<clus scale="  464.942">  4  5 -1 -1</clus>
<clus scale="  300.000">  1  4  2 -1</clus>
</clustering>
</event>
<event>
 6    1  0.9254630E-012  0.3000000E+03  0.7818608E-02  0.1093470E+00
          1   -1    0    0  502    0  0.00000000000E+00  0.00000000000E+00  0.24886377522E+03  0.24886377522E+03  0.00000000000E+00 0.  1.
         13   -1    0    0    0    0 -0.00000000000E+00 -0.00000000000E+00 -0.27500000000E+03  0.27500000000E+03  0.00000000000E+00 0.  1.
    9000005    2    1    2  501    0  0.21694102145E+02 -0.23065789166E+02 -0.64497000781E+02  0.47412230527E+03  0.46864638326E+03 0.  0.
         13    1    3    3    0    0 -0.10829232810E+02  0.16611105246E+02 -0.26572170383E+03  0.26646055052E+03  0.00000000000E+00 0.  1.
          3    1    3    3  501    0  0.32523334955E+02 -0.39676894413E+02  0.20122470305E+03  0.20766175474E+03  0.00000000000E+00 0.  1.
         21    1    1    2  502  501 -0.21694102145E+02  0.23065789166E+02  0.38360775998E+02  0.49741469951E+02  0.00000000000E+00 0.  1.
<scales pt_clust_4="550.00000" pt_clust_5="550.00000" pt_clust_6="31.66488"></scales>
<mgrwt>
<rscale>  0 0.30000000E+03</rscale>
<asrwt>  1 0.31664881E+02</asrwt>
<pdfrwt beam="1">  1        1 0.90495918E+00 0.30000000E+03</pdfrwt>
<pdfrwt beam="2">0</pdfrwt>
<totfact> 0.94396794E-05</totfact>
</mgrwt>
<clustering>
<clus scale="   31.665">  1  6  2 -1</clus>
<clus scale="  468.646">  4  5 -1 -1</clus>
<clus scale="  300.000">  1  4  2 -1</clus>
</clustering>
</event>
<event>
 6    1  0.9254630E-012  0.3000000E+03  0.7818608E-02  0.1093470E+00
          1   -1    0    0  502    0  0.00000000000E+00  0.00000000000E+00  0.24871196275E+03  0.24871196275E+03  0.00000000000E+00 0.  1.
         13   -1    0    0    0    0 -0.00000000000E+00 -0.00000000000E+00 -0.27500000000E+03  0.27500000000E+03  0.00000000000E+00 0.  1.
    9000005    2    1    2  501    0 -0.17806365719E+02 -0.55334734686E+02 -0.20352163240E+02  0.46528051468E+03  0.46118623925E+03 0.  0.
         13    1    3    3    0    0  0.11874608548E+03  0.11569385827E+03  0.12055690197E+03  0.20498699537E+03  0.00000000000E+00 0.  1.
          1    1    3    3  501    0 -0.13655245120E+03 -0.17102859295E+03 -0.14090906521E+03  0.26029351931E+03  0.00000000000E+00 0.  1.
         21    1    1    2  502  501  0.17806365719E+02  0.55334734686E+02 -0.59358740117E+01  0.58431448067E+02  0.00000000000E+00 0. -1.
<scales pt_clust_4="550.00000" pt_clust_5="550.00000" pt_clust_6="58.12919"></scales>
<mgrwt>
<rscale>  0 0.30000000E+03</rscale>
<asrwt>  1 0.58129191E+02</asrwt>
<pdfrwt beam="1">  1        1 0.90440714E+00 0.30000000E+03</pdfrwt>
<pdfrwt beam="2">0</pdfrwt>
<totfact> 0.86609884E-05</totfact>
</mgrwt>
<clustering>
<clus scale="   58.129">  1  6  2 -1</clus>
<clus scale="  461.186">  4  5 -1 -1</clus>
<clus scale="  300.000">  1  4  2 -1</clus>
</clustering>
</event>
<event>
 6    1  0.9254630E-012  0.3000000E+03  0.7818608E-02  0.1093470E+00
          1   -1    0    0  502    0  0.00000000000E+00  0.00000000000E+00  0.22913688931E+03  0.22913688931E+03  0.00000000000E+00 0.  1.
         13   -1    0    0    0    0 -0.00000000000E+00 -0.00000000000E+00 -0.27500000000E+03  0.27500000000E+03  0.00000000000E+00 0.  1.
    9000005    2    1    2  501    0 -0.93712769106E+01 -0.33613785060E+02 -0.65975358316E+02  0.46386022260E+03  0.45781639423E+03 0.  0.
         13    1    3    3    0    0  0.28389258916E+02  0.94813550157E+02  0.16760196187E+03  0.19464320419E+03  0.00000000000E+00 0.  1.
          1    1    3    3  501    0 -0.37760535827E+02 -0.12842733522E+03 -0.23357732018E+03  0.26921701841E+03  0.00000000000E+00 0.  1.
         21    1    1    2  502  501  0.93712769106E+01  0.33613785060E+02  0.20112247629E+02  0.40276666715E+02  0.00000000000E+00 0.  1.
<scales pt_clust_4="550.00000" pt_clust_5="550.00000" pt_clust_6="34.89566"></scales>
<mgrwt>
<rscale>  0 0.30000000E+03</rscale>
<asrwt>  1 0.34895664E+02</asrwt>
<pdfrwt beam="1">  1        1 0.83322505E+00 0.30000000E+03</pdfrwt>
<pdfrwt beam="2">0</pdfrwt>
<totfact> 0.55788978E-04</totfact>
</mgrwt>
<clustering>
<clus scale="   34.896">  1  6  2 -1</clus>
<clus scale="  457.816">  4  5 -1 -1</clus>
<clus scale="  300.000">  1  4  2 -1</clus>
</clustering>
</event>
<event>
 6    1  0.9254630E-012  0.3000000E+03  0.7818608E-02  0.1093470E+00
          1   -1    0    0  502    0  0.00000000000E+00  0.00000000000E+00  0.23613849859E+03  0.23613849859E+03  0.00000000000E+00 0.  1.
         13   -1    0    0    0    0 -0.00000000000E+00 -0.00000000000E+00 -0.27500000000E+03  0.27500000000E+03  0.00000000000E+00 0.  1.
    9000005    2    1    2  501    0  0.14452405912E+02 -0.29213534908E+02 -0.24439946399E+02  0.47549745613E+03  0.47374910781E+03 0.  0.
         13    1    3    3    0    0 -0.21541991904E+03 -0.50322744602E+02 -0.84768852286E+02  0.23690478776E+03  0.00000000000E+00 0.  1.
          1    1    3    3  501    0  0.22987232496E+03  0.21109209693E+02  0.60328905887E+02  0.23859266837E+03  0.00000000000E+00 0.  1.
         21    1    1    2  502  501 -0.14452405912E+02  0.29213534908E+02 -0.14421555014E+02  0.35641042458E+02  0.00000000000E+00 0. -1.
<scales pt_clust_4="550.00000" pt_clust_5="550.00000" pt_clust_6="32.59300"></scales>
<mgrwt>
<rscale>  0 0.30000000E+03</rscale>
<asrwt>  1 0.32593001E+02</asrwt>
<pdfrwt beam="1">  1        1 0.85868545E+00 0.30000000E+03</pdfrwt>
<pdfrwt beam="2">0</pdfrwt>
<totfact> 0.33852001E-04</totfact>
</mgrwt>
<clustering>
<clus scale="   32.593">  1  6  2 -1</clus>
<clus scale="  473.749">  4  5 -1 -1</clus>
<clus scale="  300.000">  1  4  2 -1</clus>
</clustering>
</event>
<event>
 6    1  0.9254630E-012  0.3000000E+03  0.7818608E-02  0.1093470E+00
          1   -1    0    0  502    0  0.00000000000E+00  0.00000000000E+00  0.23314085097E+03  0.23314085097E+03  0.00000000000E+00 0.  1.
         13   -1    0    0    0    0 -0.00000000000E+00 -0.00000000000E+00 -0.27500000000E+03  0.27500000000E+03  0.00000000000E+00 0.  1.
    9000005    2    1    2  501    0  0.33096765109E+02  0.14488955716E+01 -0.51617577727E+02  0.47360504217E+03  0.46961672295E+03 0.  0.
         13    1    3    3    0    0  0.66642998999E+02  0.15964737868E+03  0.14022755044E+03  0.22269337829E+03  0.00000000000E+00 0.  1.
          3    1    3    3  501    0 -0.33546233890E+02 -0.15819848310E+03 -0.19184512817E+03  0.25091166387E+03  0.00000000000E+00 0.  1.
         21    1    1    2  502  501 -0.33096765109E+02 -0.14488955716E+01  0.97584286952E+01  0.34535808803E+02  0.00000000000E+00 0. -1.
<scales pt_clust_4="550.00000" pt_clust_5="550.00000" pt_clust_6="33.12846"></scales>
<mgrwt>
<rscale>  0 0.30000000E+03</rscale>
<asrwt>  1 0.33128464E+02</asrwt>
<pdfrwt beam="1">  1        1 0.84778491E+00 0.30000000E+03</pdfrwt>
<pdfrwt beam="2">0</pdfrwt>
<totfact> 0.43109351E-04</totfact>
</mgrwt>
<clustering>
<clus scale="   33.128">  1  6  2 -1</clus>
<clus scale="  469.617">  4  5 -1 -1</clus>
<clus scale="  300.000">  1  4  2 -1</clus>
</clustering>
</event>
<event>
 6    1  0.9254630E-012  0.3000000E+03  0.7818608E-02  0.1093470E+00
          1   -1    0    0  502    0  0.00000000000E+00  0.00000000000E+00  0.24831231700E+03  0.24831231700E+03  0.00000000000E+00 0.  1.
         13   -1    0    0    0    0 -0.00000000000E+00 -0.00000000000E+00 -0.27500000000E+03  0.27500000000E+03  0.00000000000E+00 0.  1.
    9000005    2    1    2  501    0  0.19003949413E+02  0.26778483192E+02 -0.68343819184E+02  0.47027015512E+03  0.46411733852E+03 0.  0.
         13    1    3    3    0    0 -0.70948985805E+02  0.11505236310E+03  0.16000067163E+03  0.20945409942E+03  0.00000000000E+00 0.  1.
          3    1    3    3  501    0  0.89952935219E+02 -0.88273879906E+02 -0.22834449081E+03  0.26081605570E+03  0.00000000000E+00 0.  1.
         21    1    1    2  502  501 -0.19003949413E+02 -0.26778483192E+02  0.41656136189E+02  0.53042161886E+02  0.00000000000E+00 0. -1.
<scales pt_clust_4="550.00000" pt_clust_5="550.00000" pt_clust_6="32.83652"></scales>
<mgrwt>
<rscale>  0 0.30000000E+03</rscale>
<asrwt>  1 0.32836523E+02</asrwt>
<pdfrwt beam="1">  1        1 0.90295388E+00 0.30000000E+03</pdfrwt>
<pdfrwt beam="2">0</pdfrwt>
<totfact> 0.10159542E-04</totfact>
</mgrwt>
<clustering>
<clus scale="   32.837">  1  6  2 -1</clus>
<clus scale="  464.117">  4  5 -1 -1</clus>
<clus scale="  300.000">  1  4  2 -1</clus>
</clustering>
</event>
<event>
 6    1  0.9254630E-012  0.3000000E+03  0.7818608E-02  0.1093470E+00
          1   -1    0    0  502    0  0.00000000000E+00  0.00000000000E+00  0.22656143859E+03  0.22656143859E+03  0.00000000000E+00 0.  1.
         13   -1    0    0    0    0 -0.00000000000E+00 -0.00000000000E+00 -0.27500000000E+03  0.27500000000E+03  0.00000000000E+00 0.  1.
    9000005    2    1    2  501    0  0.17428582445E+02 -0.25846870725E+02 -0.46001220503E+02  0.47029233494E+03  0.46699780707E+03 0.  0.
         13    1    3    3    0    0  0.11066996746E+03  0.18816324178E+03  0.39203506791E+02  0.22178855291E+03  0.00000000000E+00 0.  1.
          3    1    3    3  501    0 -0.93241385020E+02 -0.21401011250E+03 -0.85204727294E+02  0.24850378204E+03  0.00000000000E+00 0.  1.
         21    1    1    2  502  501 -0.17428582445E+02  0.25846870725E+02 -0.24373409049E+01  0.31269103649E+02  0.00000000000E+00 0. -1.
<scales pt_clust_4="550.00000" pt_clust_5="550.00000" pt_clust_6="31.17397"></scales>
<mgrwt>
<rscale>  0 0.30000000E+03</rscale>
<asrwt>  1 0.31173967E+02</asrwt>
<pdfrwt beam="1">  1        1 0.82385978E+00 0.30000000E+03</pdfrwt>
<pdfrwt beam="2">0</pdfrwt>
<totfact> 0.68347163E-04</totfact>
</mgrwt>
<clustering>
<clus scale="   31.174">  1  6  2 -1</clus>
<clus scale="  466.998">  4  5 -1 -1</clus>
<clus scale="  300.000">  1  4  2 -1</clus>
</clustering>
</event>
<event>
 6    1  0.9254630E-012  0.3000000E+03  0.7818608E-02  0.1093470E+00
          1   -1    0    0  502    0  0.00000000000E+00  0.00000000000E+00  0.23342828498E+03  0.23342828498E+03  0.00000000000E+00 0.  1.
         13   -1    0    0    0    0 -0.00000000000E+00 -0.00000000000E+00 -0.27500000000E+03  0.27500000000E+03  0.00000000000E+00 0.  1.
    9000005    2    1    2  501    0  0.25554972574E+02  0.25069951526E+02 -0.53399781908E+02  0.47072600045E+03  0.46631520638E+03 0.  0.
         13    1    3    3    0    0 -0.73295348611E+02 -0.18780135292E+03 -0.10949297286E+03  0.22941287539E+03  0.00000000000E+00 0.  1.
          1    1    3    3  501    0  0.98850321185E+02  0.21287130445E+03  0.56093190951E+02  0.24131312506E+03  0.00000000000E+00 0.  1.
         21    1    1    2  502  501 -0.25554972574E+02 -0.25069951526E+02  0.11828066889E+02  0.37702284534E+02  0.00000000000E+00 0. -1.
<scales pt_clust_4="550.00000" pt_clust_5="550.00000" pt_clust_6="35.79887"></scales>
<mgrwt>
<rscale>  0 0.30000000E+03</rscale>
<asrwt>  1 0.35798870E+02</asrwt>
<pdfrwt beam="1">  1        1 0.84883013E+00 0.30000000E+03</pdfrwt>
<pdfrwt beam="2">0</pdfrwt>
<totfact> 0.41557780E-04</totfact>
</mgrwt>
<clustering>
<clus scale="   35.799">  1  6  2 -1</clus>
<clus scale="  466.315">  4  5 -1 -1</clus>
<clus scale="  300.000">  1  4  2 -1</clus>
</clustering>
</event>
<event>
 6    1  0.9254630E-012  0.3000000E+03  0.7818608E-02  0.1093470E+00
          1   -1    0    0  502    0  0.00000000000E+00  0.00000000000E+00  0.22996399852E+03  0.22996399852E+03  0.00000000000E+00 0.  1.
         13   -1    0    0    0    0 -0.00000000000E+00 -0.00000000000E+00 -0.27500000000E+03  0.27500000000E+03  0.00000000000E+00 0.  1.
    9000005    2    1    2  501    0 -0.15586545619E+02 -0.27934659971E+02 -0.28941530665E+02  0.46915453577E+03  0.46716707997E+03 0.  0.
         13    1    3    3    0    0  0.17818801974E+03 -0.13182086210E+03  0.63622808014E+02  0.23059829090E+03  0.00000000000E+00 0.  1.
          3    1    3    3  501    0 -0.19377456536E+03  0.10388620213E+03 -0.92564338680E+02  0.23855624487E+03  0.00000000000E+00 0.  1.
         21    1    1    2  502  501  0.15586545619E+02  0.27934659971E+02 -0.16094470810E+02  0.35809462753E+02  0.00000000000E+00 0. -1.
<scales pt_clust_4="550.00000" pt_clust_5="550.00000" pt_clust_6="31.98885"></scales>
<mgrwt>
<rscale>  0 0.30000000E+03</rscale>
<asrwt>  1 0.31988852E+02</asrwt>
<pdfrwt beam="1">  1        1 0.83623272E+00 0.30000000E+03</pdfrwt>
<pdfrwt beam="2">0</pdfrwt>
<totfact> 0.53900918E-04</totfact>
</mgrwt>
<clustering>
<clus scale="   31.989">  1  6  2 -1</clus>
<clus scale="  467.167">  4  5 -1 -1</clus>
<clus scale="  300.000">  1  4  2 -1</clus>
</clustering>
</event>
<event>
 6    1  0.9254630E-012  0.3000000E+03  0.7818608E-02  0.1093470E+00
          1   -1    0    0  502    0  0.00000000000E+00  0.00000000000E+00  0.22306605797E+03  0.22306605797E+03  0.00000000000E+00 0.  1.
         13   -1    0    0    0    0 -0.00000000000E+00 -0.00000000000E+00 -0.27500000000E+03  0.27500000000E+03  0.00000000000E+00 0.  1.
    9000005    2    1    2  501    0  0.34137521470E+02  0.71686575293E+01 -0.62316114112E+02  0.46167169687E+03  0.45611478554E+03 0.  0.
         13    1    3    3    0    0  0.21117827543E+03  0.75177016914E+02  0.64823472377E+02  0.23334508878E+03  0.00000000000E+00 0.  1.
          1    1    3    3  501    0 -0.17704075396E+03 -0.68008359385E+02 -0.12713958649E+03  0.22832660809E+03  0.00000000000E+00 0.  1.
         21    1    1    2  502  501 -0.34137521470E+02 -0.71686575293E+01  0.10382172083E+02  0.36394361102E+02  0.00000000000E+00 0. -1.
<scales pt_clust_4="550.00000" pt_clust_5="550.00000" pt_clust_6="34.88209"></scales>
<mgrwt>
<rscale>  0 0.30000000E+03</rscale>
<asrwt>  1 0.34882087E+02</asrwt>
<pdfrwt beam="1">  1        1 0.81114930E+00 0.30000000E+03</pdfrwt>
<pdfrwt beam="2">0</pdfrwt>
<totfact> 0.85481208E-04</totfact>
</mgrwt>
<clustering>
<clus scale="   34.882">  1  6  2 -1</clus>
<clus scale="  456.115">  4  5 -1 -1</clus>
<clus scale="  300.000">  1  4  2 -1</clus>
</clustering>
</event>
<event>
 6    1  0.9254630E-012  0.3000000E+03  0.7818608E-02  0.1093470E+00
          1   -1    0    0  502    0  0.00000000000E+00  0.00000000000E+00  0.25988000942E+03  0.25988000942E+03  0.00000000000E+00 0.  1.
         13   -1    0    0    0    0 -0.00000000000E+00 -0.00000000000E+00 -0.27500000000E+03  0.27500000000E+03  0.00000000000E+00 0.  1.
    9000005    2    1    2  501    0 -0.38126770138E+02 -0.23944019496E+02 -0.11253120158E+01  0.48773324178E+03  0.48564954663E+03 0.  0.
         13    1    3    3    0    0  0.32998176489E+02  0.15254252265E+03  0.17074326725E+03  0.23132523463E+03  0.00000000000E+00 0.  1.
          3    1    3    3  501    0 -0.71124946626E+02 -0.17648654215E+03 -0.17186857926E+03  0.25640800715E+03  0.00000000000E+00 0.  1.
         21    1    1    2  502  501  0.38126770138E+02  0.23944019496E+02 -0.13994678563E+02  0.47146767639E+02  0.00000000000E+00 0.  1.
<scales pt_clust_4="550.00000" pt_clust_5="550.00000" pt_clust_6="45.02187"></scales>
<mgrwt>
<rscale>  0 0.30000000E+03</rscale>
<asrwt>  1 0.45021869E+02</asrwt>
<pdfrwt beam="1">  1        1 0.94501822E+00 0.30000000E+03</pdfrwt>
<pdfrwt beam="2">0</pdfrwt>
<totfact> 0.14836479E-05</totfact>
</mgrwt>
<clustering>
<clus scale="   45.022">  1  6  2 -1</clus>
<clus scale="  485.650">  4  5 -1 -1</clus>
<clus scale="  300.000">  1  4  2 -1</clus>
</clustering>
</event>
<event>
 6    1  0.9254630E-012  0.3000000E+03  0.7818608E-02  0.1093470E+00
          1   -1    0    0  502    0  0.00000000000E+00  0.00000000000E+00  0.23442738514E+03  0.23442738514E+03  0.00000000000E+00 0.  1.
         13   -1    0    0    0    0 -0.00000000000E+00 -0.00000000000E+00 -0.27500000000E+03  0.27500000000E+03  0.00000000000E+00 0.  1.
    9000005    2    1    2  501    0 -0.16056209224E+02  0.39624008196E+02 -0.54373106352E+02  0.46450169710E+03  0.45932290171E+03 0.  0.
         13    1    3    3    0    0  0.16358851137E+03  0.13634665888E+03 -0.12697614409E+03  0.24794062516E+03  0.00000000000E+00 0.  1.
          1    1    3    3  501    0 -0.17964472059E+03 -0.96722650679E+02  0.72603037735E+02  0.21656107194E+03  0.00000000000E+00 0.  1.
         21    1    1    2  502  501  0.16056209224E+02 -0.39624008196E+02  0.13800491488E+02  0.44925688036E+02  0.00000000000E+00 0. -1.
<scales pt_clust_4="550.00000" pt_clust_5="550.00000" pt_clust_6="42.75352"></scales>
<mgrwt>
<rscale>  0 0.30000000E+03</rscale>
<asrwt>  1 0.42753525E+02</asrwt>
<pdfrwt beam="1">  1        1 0.85246322E+00 0.30000000E+03</pdfrwt>
<pdfrwt beam="2">0</pdfrwt>
<totfact> 0.37171904E-04</totfact>
</mgrwt>
<clustering>
<clus scale="   42.754">  1  6  2 -1</clus>
<clus scale="  459.323">  4  5 -1 -1</clus>
<clus scale="  300.000">  1  4  2 -1</clus>
</clustering>
</event>
<event>
 6    1  0.9254630E-012  0.3000000E+03  0.7818608E-02  0.1093470E+00
          1   -1    0    0  502    0  0.00000000000E+00  0.00000000000E+00  0.22009643560E+03  0.22009643560E+03  0.00000000000E+00 0.  1.
         13   -1    0    0    0    0 -0.00000000000E+00 -0.00000000000E+00 -0.27500000000E+03  0.27500000000E+03  0.00000000000E+00 0.  1.
    9000005    2    1    2  501    0  0.13306923216E+02 -0.30472083766E+02 -0.59554594932E+02  0.46152182943E+03  0.45645375140E+03 0.  0.
         13    1    3    3    0    0 -0.91753654605E+02  0.21915713851E+02 -0.23340363985E+03  0.25174648109E+03  0.00000000000E+00 0.  1.
          3    1    3    3  501    0  0.10506057782E+03 -0.52387797617E+02  0.17384904492E+03  0.20977534834E+03  0.00000000000E+00 0.  1.
         21    1    1    2  502  501 -0.13306923216E+02  0.30472083766E+02  0.46510305290E+01  0.33574606170E+02  0.00000000000E+00 0. -1.
<scales pt_clust_4="550.00000" pt_clust_5="550.00000" pt_clust_6="33.25090"></scales>
<mgrwt>
<rscale>  0 0.30000000E+03</rscale>
<asrwt>  1 0.33250896E+02</asrwt>
<pdfrwt beam="1">  1        1 0.80035067E+00 0.30000000E+03</pdfrwt>
<pdfrwt beam="2">0</pdfrwt>
<totfact> 0.10409669E-03</totfact>
</mgrwt>
<clustering>
<clus scale="   33.251">  1  6  2 -1</clus>
<clus scale="  456.454">  4  5 -1 -1</clus>
<clus scale="  300.000">  1  4  2 -1</clus>
</clustering>
</event>
<event>
 6    1  0.9254630E-012  0.3000000E+03  0.7818608E-02  0.1093470E+00
          1   -1    0    0  502    0  0.00000000000E+00  0.00000000000E+00  0.22570093435E+03  0.22570093435E+03  0.00000000000E+00 0.  1.
         13   -1    0    0    0    0 -0.00000000000E+00 -0.00000000000E+00 -0.27500000000E+03  0.27500000000E+03  0.00000000000E+00 0.  1.
    9000005    2    1    2  501    0 -0.16696455572E+02 -0.25095463005E+02 -0.62525505953E+02  0.46778448535E+03  0.46260602238E+03 0.  0.
         13    1    3    3    0    0  0.81839921581E+02 -0.12905444790E+03 -0.21162316533E+03  0.26103100849E+03  0.00000000000E+00 0.  1.
          1    1    3    3  501    0 -0.98536377153E+02  0.10395898489E+03  0.14909765938E+03  0.20675347686E+03  0.00000000000E+00 0.  1.
         21    1    1    2  502  501  0.16696455572E+02  0.25095463005E+02  0.13226440307E+02  0.32916449008E+02  0.00000000000E+00 0. -1.
<scales pt_clust_4="550.00000" pt_clust_5="550.00000" pt_clust_6="30.14223"></scales>
<mgrwt>
<rscale>  0 0.30000000E+03</rscale>
<asrwt>  1 0.30142228E+02</asrwt>
<pdfrwt beam="1">  1        1 0.82073067E+00 0.30000000E+03</pdfrwt>
<pdfrwt beam="2">0</pdfrwt>
<totfact> 0.73327007E-04</totfact>
</mgrwt>
<clustering>
<clus scale="   30.142">  1  6  2 -1</clus>
<clus scale="  462.606">  4  5 -1 -1</clus>
<clus scale="  300.000">  1  4  2 -1</clus>
</clustering>
</event>
<event>
 6    1  0.9254630E-012  0.3000000E+03  0.7818608E-02  0.1093470E+00
          1   -1    0    0  502    0  0.00000000000E+00  0.00000000000E+00  0.23772602350E+03  0.23772602350E+03  0.00000000000E+00 0.  1.
         13   -1    0    0    0    0 -0.00000000000E+00 -0.00000000000E+00 -0.27500000000E+03  0.27500000000E+03  0.00000000000E+00 0.  1.
    9000005    2    1    2  501    0  0.30501091331E+02  0.19883495530E+02 -0.51721139730E+02  0.47355472671E+03  0.46931155209E+03 0.  0.
         13    1    3    3    0    0  0.85445983118E+02 -0.80110301621E+02 -0.23218132267E+03  0.26005161613E+03  0.00000000000E+00 0.  1.
          1    1    3    3  501    0 -0.54944891788E+02  0.99993797151E+02  0.18046018294E+03  0.21350311058E+03  0.00000000000E+00 0.  1.
         21    1    1    2  502  501 -0.30501091331E+02 -0.19883495530E+02  0.14447163233E+02  0.39171296791E+02  0.00000000000E+00 0.  1.
<scales pt_clust_4="550.00000" pt_clust_5="550.00000" pt_clust_6="36.40975"></scales>
<mgrwt>
<rscale>  0 0.30000000E+03</rscale>
<asrwt>  1 0.36409751E+02</asrwt>
<pdfrwt beam="1">  1        1 0.86445827E+00 0.30000000E+03</pdfrwt>
<pdfrwt beam="2">0</pdfrwt>
<totfact> 0.28744498E-04</totfact>
</mgrwt>
<clustering>
<clus scale="   36.410">  1  6  2 -1</clus>
<clus scale="  469.312">  4  5 -1 -1</clus>
<clus scale="  300.000">  1  4  2 -1</clus>
</clustering>
</event>
<event>
 6    1  0.9254630E-012  0.3000000E+03  0.7818608E-02  0.1093470E+00
          1   -1    0    0  502    0  0.00000000000E+00  0.00000000000E+00  0.24007890790E+03  0.24007890790E+03  0.00000000000E+00 0.  1.
         13   -1    0    0    0    0 -0.00000000000E+00 -0.00000000000E+00 -0.27500000000E+03  0.27500000000E+03  0.00000000000E+00 0.  1.
    9000005    2    1    2  501    0 -0.10941935139E+02 -0.30280462980E+02 -0.55124637842E+02  0.47706817726E+03  0.47277763026E+03 0.  0.
         13    1    3    3    0    0 -0.49719239801E+02 -0.23265545424E+03 -0.11250843660E+03  0.26317049891E+03  0.00000000000E+00 0.  1.
          3    1    3    3  501    0  0.38777304661E+02  0.20237499126E+03  0.57383798761E+02  0.21389767835E+03  0.00000000000E+00 0.  1.
         21    1    1    2  502  501  0.10941935139E+02  0.30280462980E+02  0.20203545739E+02  0.38010730634E+02  0.00000000000E+00 0. -1.
<scales pt_clust_4="550.00000" pt_clust_5="550.00000" pt_clust_6="32.19678"></scales>
<mgrwt>
<rscale>  0 0.30000000E+03</rscale>
<asrwt>  1 0.32196776E+02</asrwt>
<pdfrwt beam="1">  1        1 0.87301421E+00 0.30000000E+03</pdfrwt>
<pdfrwt beam="2">0</pdfrwt>
<totfact> 0.23964196E-04</totfact>
</mgrwt>
<clustering>
<clus scale="   32.197">  1  6  2 -1</clus>
<clus scale="  472.778">  4  5 -1 -1</clus>
<clus scale="  300.000">  1  4  2 -1</clus>
</clustering>
</event>
<event>
 6    1  0.9254630E-012  0.3000000E+03  0.7818608E-02  0.1093470E+00
          1   -1    0    0  502    0  0.00000000000E+00  0.00000000000E+00  0.24691912339E+03  0.24691912339E+03  0.00000000000E+00 0.  1.
         13   -1    0    0    0    0 -0.00000000000E+00 -0.00000000000E+00 -0.27500000000E+03  0.27500000000E+03  0.00000000000E+00 0.  1.
    9000005    2    1    2  501    0 -0.25463470389E+02  0.34174093490E+02 -0.20969583618E+02  0.47871232441E+03  0.47635019588E+03 0.  0.
         13    1    3    3    0    0  0.13560645005E+03 -0.11271381996E+03 -0.14465675568E+03  0.22807694199E+03  0.00000000000E+00 0.  1.
          3    1    3    3  501    0 -0.16106992044E+03  0.14688791345E+03  0.12368717206E+03  0.25063538242E+03  0.00000000000E+00 0.  1.
         21    1    1    2  502  501  0.25463470389E+02 -0.34174093490E+02 -0.71112929900E+01  0.43206798980E+02  0.00000000000E+00 0.  1.
<scales pt_clust_4="550.00000" pt_clust_5="550.00000" pt_clust_6="42.61759"></scales>
<mgrwt>
<rscale>  0 0.30000000E+03</rscale>
<asrwt>  1 0.42617588E+02</asrwt>
<pdfrwt beam="1">  1        1 0.89788772E+00 0.30000000E+03</pdfrwt>
<pdfrwt beam="2">0</pdfrwt>
<totfact> 0.11287617E-04</totfact>
</mgrwt>
<clustering>
<clus scale="   42.618">  1  6  2 -1</clus>
<clus scale="  476.350">  4  5 -1 -1</clus>
<clus scale="  300.000">  1  4  2 -1</clus>
</clustering>
</event>
<event>
 6    1  0.9254630E-012  0.3000000E+03  0.7818608E-02  0.1093470E+00
          1   -1    0    0  502    0  0.00000000000E+00  0.00000000000E+00  0.22042628618E+03  0.22042628618E+03  0.00000000000E+00 0.  1.
         13   -1    0    0    0    0 -0.00000000000E+00 -0.00000000000E+00 -0.27500000000E+03  0.27500000000E+03  0.00000000000E+00 0.  1.
    9000005    2    1    2  501    0 -0.31272249524E+02 -0.74582427518E+01 -0.54299175671E+02  0.46327579090E+03  0.45895803619E+03 0.  0.
         13    1    3    3    0    0  0.11644842444E+03  0.18030398286E+03  0.13119783891E+02  0.21503927669E+03  0.00000000000E+00 0.  1.
          3    1    3    3  501    0 -0.14772067396E+03 -0.18776222561E+03 -0.67418959563E+02  0.24823651422E+03  0.00000000000E+00 0.  1.
         21    1    1    2  502  501  0.31272249524E+02  0.74582427518E+01 -0.27453814947E+00  0.32150495275E+02  0.00000000000E+00 0. -1.
<scales pt_clust_4="550.00000" pt_clust_5="550.00000" pt_clust_6="32.14932"></scales>
<mgrwt>
<rscale>  0 0.30000000E+03</rscale>
<asrwt>  1 0.32149323E+02</asrwt>
<pdfrwt beam="1">  1        1 0.80155013E+00 0.30000000E+03</pdfrwt>
<pdfrwt beam="2">0</pdfrwt>
<totfact> 0.10268698E-03</totfact>
</mgrwt>
<clustering>
<clus scale="   32.149">  1  6  2 -1</clus>
<clus scale="  458.958">  4  5 -1 -1</clus>
<clus scale="  300.000">  1  4  2 -1</clus>
</clustering>
</event>
<event>
 6    1  0.9254630E-012  0.3000000E+03  0.7818608E-02  0.1093470E+00
          1   -1    0    0  502    0  0.00000000000E+00  0.00000000000E+00  0.23867262928E+03  0.23867262928E+03  0.00000000000E+00 0.  1.
         13   -1    0    0    0    0 -0.00000000000E+00 -0.00000000000E+00 -0.27500000000E+03  0.27500000000E+03  0.00000000000E+00 0.  1.
    9000005    2    1    2  501    0 -0.24848229266E+02  0.28219040835E+02 -0.53717721519E+02  0.47224591007E+03  0.46767174088E+03 0.  0.
         13    1    3    3    0    0 -0.63340670369E+01  0.23164307385E+03  0.58756091732E+02  0.23906257002E+03  0.00000000000E+00 0.  1.
          1    1    3    3  501    0 -0.18514162229E+02 -0.20342403302E+03 -0.11247381325E+03  0.23318334005E+03  0.00000000000E+00 0.  1.
         21    1    1    2  502  501  0.24848229266E+02 -0.28219040835E+02  0.17390350800E+02  0.41426719207E+02  0.00000000000E+00 0.  1.
<scales pt_clust_4="550.00000" pt_clust_5="550.00000" pt_clust_6="37.59985"></scales>
<mgrwt>
<rscale>  0 0.30000000E+03</rscale>
<asrwt>  1 0.37599851E+02</asrwt>
<pdfrwt beam="1">  1        1 0.86790047E+00 0.30000000E+03</pdfrwt>
<pdfrwt beam="2">0</pdfrwt>
<totfact> 0.26266085E-04</totfact>
</mgrwt>
<clustering>
<clus scale="   37.600">  1  6  2 -1</clus>
<clus scale="  467.672">  4  5 -1 -1</clus>
<clus scale="  300.000">  1  4  2 -1</clus>
</clustering>
</event>
<event>
 6    1  0.9254630E-012  0.3000000E+03  0.7818608E-02  0.1093470E+00
          1   -1    0    0  502    0  0.00000000000E+00  0.00000000000E+00  0.22849425608E+03  0.22849425608E+03  0.00000000000E+00 0.  1.
         13   -1    0    0    0    0 -0.00000000000E+00 -0.00000000000E+00 -0.27500000000E+03  0.27500000000E+03  0.00000000000E+00 0.  1.
    9000005    2    1    2  501    0  0.13484782017E+02  0.28599015922E+02 -0.44283037752E+02  0.47179751365E+03  0.46864929680E+03 0.  0.
         13    1    3    3    0    0  0.50319506824E+02  0.23973257949E+03 -0.72896741635E+02  0.25557327203E+03  0.00000000000E+00 0.  1.
          3    1    3    3  501    0 -0.36834724807E+02 -0.21113356356E+03  0.28613703883E+02  0.21622424162E+03  0.00000000000E+00 0.  1.
         21    1    1    2  502  501 -0.13484782017E+02 -0.28599015922E+02 -0.22227061714E+01  0.31696742427E+02  0.00000000000E+00 0.  1.
<scales pt_clust_4="550.00000" pt_clust_5="550.00000" pt_clust_6="31.61871"></scales>
<mgrwt>
<rscale>  0 0.30000000E+03</rscale>
<asrwt>  1 0.31618714E+02</asrwt>
<pdfrwt beam="1">  1        1 0.83088820E+00 0.30000000E+03</pdfrwt>
<pdfrwt beam="2">0</pdfrwt>
<totfact> 0.59252973E-04</totfact>
</mgrwt>
<clustering>
<clus scale="   31.619">  1  6  2 -1</clus>
<clus scale="  468.649">  4  5 -1 -1</clus>
<clus scale="  300.000">  1  4  2 -1</clus>
</clustering>
</event>
<event>
 6    1  0.9254630E-012  0.3000000E+03  0.7818608E-02  0.1093470E+00
          1   -1    0    0  502    0  0.00000000000E+00  0.00000000000E+00  0.24621145633E+03  0.24621145633E+03  0.00000000000E+00 0.  1.
         13   -1    0    0    0    0 -0.00000000000E+00 -0.00000000000E+00 -0.27500000000E+03  0.27500000000E+03  0.00000000000E+00 0.  1.
    9000005    2    1    2  501    0  0.29486196924E+02  0.83089997888E+01 -0.76875999095E+02  0.46419497927E+03  0.45675878126E+03 0.  0.
         13    1    3    3    0    0  0.14458063963E+03  0.11537045393E+03 -0.19408990702E+03  0.26811339953E+03  0.00000000000E+00 0.  1.
          3    1    3    3  501    0 -0.11509444271E+03 -0.10706145414E+03  0.11721390793E+03  0.19608157975E+03  0.00000000000E+00 0.  1.
         21    1    1    2  502  501 -0.29486196924E+02 -0.83089997888E+01  0.48087455425E+02  0.57016477055E+02  0.00000000000E+00 0. -1.
<scales pt_clust_4="550.00000" pt_clust_5="550.00000" pt_clust_6="30.63454"></scales>
<mgrwt>
<rscale>  0 0.30000000E+03</rscale>
<asrwt>  1 0.30634544E+02</asrwt>
<pdfrwt beam="1">  1        1 0.89531439E+00 0.30000000E+03</pdfrwt>
<pdfrwt beam="2">0</pdfrwt>
<totfact> 0.12827022E-04</totfact>
</mgrwt>
<clustering>
<clus scale="   30.635">  1  6  2 -1</clus>
<clus scale="  456.759">  4  5 -1 -1</clus>
<clus scale="  300.000">  1  4  2 -1</clus>
</clustering>
</event>
<event>
 6    1  0.9254630E-012  0.3000000E+03  0.7818608E-02  0.1093470E+00
          1   -1    0    0  502    0  0.00000000000E+00  0.00000000000E+00  0.24237031096E+03  0.24237031096E+03  0.00000000000E+00 0.  1.
         13   -1    0    0    0    0 -0.00000000000E+00 -0.00000000000E+00 -0.27500000000E+03  0.27500000000E+03  0.00000000000E+00 0.  1.
    9000005    2    1    2  501    0  0.11954606988E+02  0.36474328036E+02 -0.68169186502E+02  0.46506022480E+03  0.45843285819E+03 0.  0.
         13    1    3    3    0    0  0.84734252169E+02  0.23301668061E+03 -0.12751552478E+02  0.24827257002E+03  0.00000000000E+00 0.  1.
          1    1    3    3  501    0 -0.72779645181E+02 -0.19654235257E+03 -0.55417634024E+02  0.21678765479E+03  0.00000000000E+00 0.  1.
         21    1    1    2  502  501 -0.11954606988E+02 -0.36474328036E+02  0.35539497464E+02  0.52310086159E+02  0.00000000000E+00 0.  1.
<scales pt_clust_4="550.00000" pt_clust_5="550.00000" pt_clust_6="38.38345"></scales>
<mgrwt>
<rscale>  0 0.30000000E+03</rscale>
<asrwt>  1 0.38383450E+02</asrwt>
<pdfrwt beam="1">  1        1 0.88134659E+00 0.30000000E+03</pdfrwt>
<pdfrwt beam="2">0</pdfrwt>
<totfact> 0.18660797E-04</totfact>
</mgrwt>
<clustering>
<clus scale="   38.383">  1  6  2 -1</clus>
<clus scale="  458.433">  4  5 -1 -1</clus>
<clus scale="  300.000">  1  4  2 -1</clus>
</clustering>
</event>
<event>
 6    1  0.9254630E-012  0.3000000E+03  0.7818608E-02  0.1093470E+00
          1   -1    0    0  502    0  0.00000000000E+00  0.00000000000E+00  0.24020608980E+03  0.24020608980E+03  0.00000000000E+00 0.  1.
         13   -1    0    0    0    0 -0.00000000000E+00 -0.00000000000E+00 -0.27500000000E+03  0.27500000000E+03  0.00000000000E+00 0.  1.
    9000005    2    1    2  501    0  0.35541147169E+02 -0.14089291648E+02 -0.65286739259E+02  0.46630318697E+03  0.46012457289E+03 0.  0.
         13    1    3    3    0    0 -0.69713825400E+02 -0.13534334875E+03 -0.20370556579E+03  0.25431043438E+03  0.00000000000E+00 0.  1.
          1    1    3    3  501    0  0.10525497257E+03  0.12125405710E+03  0.13841882653E+03  0.21199275259E+03  0.00000000000E+00 0.  1.
         21    1    1    2  502  501 -0.35541147169E+02  0.14089291648E+02  0.30492829062E+02  0.48902902833E+02  0.00000000000E+00 0. -1.
<scales pt_clust_4="550.00000" pt_clust_5="550.00000" pt_clust_6="38.23194"></scales>
<mgrwt>
<rscale>  0 0.30000000E+03</rscale>
<asrwt>  1 0.38231941E+02</asrwt>
<pdfrwt beam="1">  1        1 0.87347669E+00 0.30000000E+03</pdfrwt>
<pdfrwt beam="2">0</pdfrwt>
<totfact> 0.22953120E-04</totfact>
</mgrwt>
<clustering>
<clus scale="   38.232">  1  6  2 -1</clus>
<clus scale="  460.125">  4  5 -1 -1</clus>
<clus scale="  300.000">  1  4  2 -1</clus>
</clustering>
</event>
<event>
 6    1  0.9254630E-012  0.3000000E+03  0.7818608E-02  0.1093470E+00
          1   -1    0    0  502    0  0.00000000000E+00  0.00000000000E+00  0.23482722403E+03  0.23482722403E+03  0.00000000000E+00 0.  1.
         13   -1    0    0    0    0 -0.00000000000E+00 -0.00000000000E+00 -0.27500000000E+03  0.27500000000E+03  0.00000000000E+00 0.  1.
    9000005    2    1    2  501    0 -0.24343024885E+02 -0.32150890603E+02 -0.43731267118E+02  0.46934357935E+03  0.46555849163E+03 0.  0.
         13    1    3    3    0    0 -0.49381495518E+02 -0.22828301535E+03  0.66661632632E+02  0.24288977019E+03  0.00000000000E+00 0.  1.
          1    1    3    3  501    0  0.25038470632E+02  0.19613212475E+03 -0.11039289975E+03  0.22645380916E+03  0.00000000000E+00 0.  1.
         21    1    1    2  502  501  0.24343024885E+02  0.32150890603E+02  0.35584911462E+01  0.40483644677E+02  0.00000000000E+00 0. -1.
<scales pt_clust_4="550.00000" pt_clust_5="550.00000" pt_clust_6="40.32695"></scales>
<mgrwt>
<rscale>  0 0.30000000E+03</rscale>
<asrwt>  1 0.40326947E+02</asrwt>
<pdfrwt beam="1">  1        1 0.85391718E+00 0.30000000E+03</pdfrwt>
<pdfrwt beam="2">0</pdfrwt>
<totfact> 0.36371553E-04</totfact>
</mgrwt>
<clustering>
<clus scale="   40.327">  1  6  2 -1</clus>
<clus scale="  465.558">  4  5 -1 -1</clus>
<clus scale="  300.000">  1  4  2 -1</clus>
</clustering>
</event>
<event>
 6    1  0.9254630E-012  0.3000000E+03  0.7818608E-02  0.1093470E+00
          1   -1    0    0  502    0  0.00000000000E+00  0.00000000000E+00  0.22010160304E+03  0.22010160304E+03  0.00000000000E+00 0.  1.
         13   -1    0    0    0    0 -0.00000000000E+00 -0.00000000000E+00 -0.27500000000E+03  0.27500000000E+03  0.00000000000E+00 0.  1.
    9000005    2    1    2  501    0 -0.11625534367E+02  0.30044619579E+02 -0.61142818526E+02  0.46228659099E+03  0.45709147415E+03 0.  0.
         13    1    3    3    0    0  0.10734885905E+03  0.12537237692E+03  0.13544465773E+03  0.21351174614E+03  0.00000000000E+00 0.  1.
          1    1    3    3  501    0 -0.11897439342E+03 -0.95327757341E+02 -0.19658747626E+03  0.24877484485E+03  0.00000000000E+00 0.  1.
         21    1    1    2  502  501  0.11625534367E+02 -0.30044619579E+02  0.62444215624E+01  0.32815012046E+02  0.00000000000E+00 0. -1.
<scales pt_clust_4="550.00000" pt_clust_5="550.00000" pt_clust_6="32.21540"></scales>
<mgrwt>
<rscale>  0 0.30000000E+03</rscale>
<asrwt>  1 0.32215403E+02</asrwt>
<pdfrwt beam="1">  1        1 0.80036947E+00 0.30000000E+03</pdfrwt>
<pdfrwt beam="2">0</pdfrwt>
<totfact> 0.10468943E-03</totfact>
</mgrwt>
<clustering>
<clus scale="   32.215">  1  6  2 -1</clus>
<clus scale="  457.091">  4  5 -1 -1</clus>
<clus scale="  300.000">  1  4  2 -1</clus>
</clustering>
</event>
<event>
 6    1  0.9254630E-012  0.3000000E+03  0.7818608E-02  0.1093470E+00
          1   -1    0    0  502    0  0.00000000000E+00  0.00000000000E+00  0.23576575653E+03  0.23576575653E+03  0.00000000000E+00 0.  1.
         13   -1    0    0    0    0 -0.00000000000E+00 -0.00000000000E+00 -0.27500000000E+03  0.27500000000E+03  0.00000000000E+00 0.  1.
    9000005    2    1    2  501    0 -0.29062996528E+02 -0.25309391326E+02 -0.58128979200E+02  0.46784450195E+03  0.46261677091E+03 0.  0.
         13    1    3    3    0    0  0.15620029153E+03  0.11969781428E+03 -0.11208588349E+03  0.22647150615E+03  0.00000000000E+00 0.  1.
          1    1    3    3  501    0 -0.18526328806E+03 -0.14500720561E+03  0.53956904293E+02  0.24137299580E+03  0.00000000000E+00 0.  1.
         21    1    1    2  502  501  0.29062996528E+02  0.25309391326E+02  0.18894735730E+02  0.42921254580E+02  0.00000000000E+00 0.  1.
<scales pt_clust_4="550.00000" pt_clust_5="550.00000" pt_clust_6="38.53859"></scales>
<mgrwt>
<rscale>  0 0.30000000E+03</rscale>
<asrwt>  1 0.38538592E+02</asrwt>
<pdfrwt beam="1">  1        1 0.85733002E+00 0.30000000E+03</pdfrwt>
<pdfrwt beam="2">0</pdfrwt>
<totfact> 0.33895423E-04</totfact>
</mgrwt>
<clustering>
<clus scale="   38.539">  1  6  2 -1</clus>
<clus scale="  462.617">  4  5 -1 -1</clus>
<clus scale="  300.000">  1  4  2 -1</clus>
</clustering>
</event>
<event>
 6    1  0.9254630E-012  0.3000000E+03  0.7818608E-02  0.1093470E+00
          1   -1    0    0  502    0  0.00000000000E+00  0.00000000000E+00  0.23527131265E+03  0.23527131265E+03  0.00000000000E+00 0.  1.
         13   -1    0    0    0    0 -0.00000000000E+00 -0.00000000000E+00 -0.27500000000E+03  0.27500000000E+03  0.00000000000E+00 0.  1.
    9000005    2    1    2  501    0 -0.31936799495E+02  0.22602272990E+02 -0.45773260836E+02  0.47068143042E+03  0.46681366265E+03 0.  0.
         13    1    3    3    0    0  0.79057658680E+02 -0.11500592997E+03  0.15136358086E+03  0.20588203160E+03  0.00000000000E+00 0.  1.
          3    1    3    3  501    0 -0.11099445817E+03  0.13760820296E+03 -0.19713684169E+03  0.26479939883E+03  0.00000000000E+00 0.  1.
         21    1    1    2  502  501  0.31936799495E+02 -0.22602272990E+02  0.60445734891E+01  0.39589882229E+02  0.00000000000E+00 0.  1.
<scales pt_clust_4="550.00000" pt_clust_5="550.00000" pt_clust_6="39.12572"></scales>
<mgrwt>
<rscale>  0 0.30000000E+03</rscale>
<asrwt>  1 0.39125719E+02</asrwt>
<pdfrwt beam="1">  1        1 0.85553205E+00 0.30000000E+03</pdfrwt>
<pdfrwt beam="2">0</pdfrwt>
<totfact> 0.35256549E-04</totfact>
</mgrwt>
<clustering>
<clus scale="   39.126">  1  6  2 -1</clus>
<clus scale="  466.814">  4  5 -1 -1</clus>
<clus scale="  300.000">  1  4  2 -1</clus>
</clustering>
</event>
<event>
 6    1  0.9254630E-012  0.3000000E+03  0.7818608E-02  0.1093470E+00
          1   -1    0    0  502    0  0.00000000000E+00  0.00000000000E+00  0.24380198735E+03  0.24380198735E+03  0.00000000000E+00 0.  1.
         13   -1    0    0    0    0 -0.00000000000E+00 -0.00000000000E+00 -0.27500000000E+03  0.27500000000E+03  0.00000000000E+00 0.  1.
    9000005    2    1    2  501    0  0.20536277421E+02  0.33216254141E+02 -0.38424467987E+02  0.47908700421E+03  0.47594417701E+03 0.  0.
         13    1    3    3    0    0 -0.22518466844E+03 -0.17958864271E+02 -0.30686479904E+02  0.22797437522E+03  0.00000000000E+00 0.  1.
          3    1    3    3  501    0  0.24572094586E+03  0.51175118412E+02 -0.77379880830E+01  0.25111262899E+03  0.00000000000E+00 0.  1.
         21    1    1    2  502  501 -0.20536277421E+02 -0.33216254141E+02  0.72264553400E+01  0.39714983146E+02  0.00000000000E+00 0.  1.
<scales pt_clust_4="550.00000" pt_clust_5="550.00000" pt_clust_6="39.05199"></scales>
<mgrwt>
<rscale>  0 0.30000000E+03</rscale>
<asrwt>  1 0.39051994E+02</asrwt>
<pdfrwt beam="1">  1        1 0.88655268E+00 0.30000000E+03</pdfrwt>
<pdfrwt beam="2">0</pdfrwt>
<totfact> 0.15831003E-04</totfact>
</mgrwt>
<clustering>
<clus scale="   39.052">  1  6  2 -1</clus>
<clus scale="  475.944">  4  5 -1 -1</clus>
<clus scale="  300.000">  1  4  2 -1</clus>
</clustering>
</event>
<event>
 6    1  0.9254630E-012  0.3000000E+03  0.7818608E-02  0.1093470E+00
          1   -1    0    0  502    0  0.00000000000E+00  0.00000000000E+00  0.22620327343E+03  0.22620327343E+03  0.00000000000E+00 0.  1.
         13   -1    0    0    0    0 -0.00000000000E+00 -0.00000000000E+00 -0.27500000000E+03  0.27500000000E+03  0.00000000000E+00 0.  1.
    9000005    2    1    2  501    0 -0.33078265637E+02 -0.17981858841E+02 -0.42183294045E+02  0.46297688994E+03  0.45951131805E+03 0.  0.
         13    1    3    3    0    0  0.11540792894E+03 -0.15712881748E+03  0.95688863183E+02  0.21717461611E+03  0.00000000000E+00 0.  1.
          3    1    3    3  501    0 -0.14848619458E+03  0.13914695864E+03 -0.13787215723E+03  0.24580227382E+03  0.00000000000E+00 0.  1.
         21    1    1    2  502  501  0.33078265637E+02  0.17981858841E+02 -0.66134325299E+01  0.38226383490E+02  0.00000000000E+00 0.  1.
<scales pt_clust_4="550.00000" pt_clust_5="550.00000" pt_clust_6="37.64997"></scales>
<mgrwt>
<rscale>  0 0.30000000E+03</rscale>
<asrwt>  1 0.37649971E+02</asrwt>
<pdfrwt beam="1">  1        1 0.82255736E+00 0.30000000E+03</pdfrwt>
<pdfrwt beam="2">0</pdfrwt>
<totfact> 0.67754970E-04</totfact>
</mgrwt>
<clustering>
<clus scale="   37.650">  1  6  2 -1</clus>
<clus scale="  459.511">  4  5 -1 -1</clus>
<clus scale="  300.000">  1  4  2 -1</clus>
</clustering>
</event>
<event>
 6    1  0.9254630E-012  0.3000000E+03  0.7818608E-02  0.1093470E+00
          1   -1    0    0  502    0  0.00000000000E+00  0.00000000000E+00  0.22496730439E+03  0.22496730439E+03  0.00000000000E+00 0.  1.
         13   -1    0    0    0    0 -0.00000000000E+00 -0.00000000000E+00 -0.27500000000E+03  0.27500000000E+03  0.00000000000E+00 0.  1.
    9000005    2    1    2  501    0 -0.70819013339E+01 -0.33665773770E+02 -0.58860308032E+02  0.46445020441E+03  0.45941911025E+03 0.  0.
         13    1    3    3    0    0 -0.10268475959E+03  0.86125366897E+02 -0.21004994955E+03  0.24916404231E+03  0.00000000000E+00 0.  1.
          3    1    3    3  501    0  0.95602858256E+02 -0.11979114067E+03  0.15118964152E+03  0.21528616210E+03  0.00000000000E+00 0.  1.
         21    1    1    2  502  501  0.70819013339E+01  0.33665773770E+02  0.88276124222E+01  0.35517099981E+02  0.00000000000E+00 0. -1.
<scales pt_clust_4="550.00000" pt_clust_5="550.00000" pt_clust_6="34.40258"></scales>
<mgrwt>
<rscale>  0 0.30000000E+03</rscale>
<asrwt>  1 0.34402582E+02</asrwt>
<pdfrwt beam="1">  1        1 0.81806293E+00 0.30000000E+03</pdfrwt>
<pdfrwt beam="2">0</pdfrwt>
<totfact> 0.75373448E-04</totfact>
</mgrwt>
<clustering>
<clus scale="   34.403">  1  6  2 -1</clus>
<clus scale="  459.419">  4  5 -1 -1</clus>
<clus scale="  300.000">  1  4  2 -1</clus>
</clustering>
</event>
<event>
 6    1  0.9254630E-012  0.3000000E+03  0.7818608E-02  0.1093470E+00
          1   -1    0    0  502    0  0.00000000000E+00  0.00000000000E+00  0.21924480025E+03  0.21924480025E+03  0.00000000000E+00 0.  1.
         13   -1    0    0    0    0 -0.00000000000E+00 -0.00000000000E+00 -0.27500000000E+03  0.27500000000E+03  0.00000000000E+00 0.  1.
    9000005    2    1    2  501    0 -0.11162302566E+02 -0.29018165597E+02 -0.42804057675E+02  0.46056419731E+03  0.45751561892E+03 0.  0.
         13    1    3    3    0    0 -0.81864378821E+02  0.19051915656E+03  0.47739135268E+02  0.21278710152E+03  0.00000000000E+00 0.  1.
          3    1    3    3  501    0  0.70702076254E+02 -0.21953732216E+03 -0.90543192943E+02  0.24777709579E+03  0.00000000000E+00 0.  1.
         21    1    1    2  502  501  0.11162302566E+02  0.29018165597E+02 -0.12951142079E+02  0.33680602939E+02  0.00000000000E+00 0.  1.
<scales pt_clust_4="550.00000" pt_clust_5="550.00000" pt_clust_6="31.09103"></scales>
<mgrwt>
<rscale>  0 0.30000000E+03</rscale>
<asrwt>  1 0.31091026E+02</asrwt>
<pdfrwt beam="1">  1        1 0.79725382E+00 0.30000000E+03</pdfrwt>
<pdfrwt beam="2">0</pdfrwt>
<totfact> 0.11102920E-03</totfact>
</mgrwt>
<clustering>
<clus scale="   31.091">  1  6  2 -1</clus>
<clus scale="  457.516">  4  5 -1 -1</clus>
<clus scale="  300.000">  1  4  2 -1</clus>
</clustering>
</event>
<event>
 6    1  0.9254630E-012  0.3000000E+03  0.7818608E-02  0.1093470E+00
          1   -1    0    0  502    0  0.00000000000E+00  0.00000000000E+00  0.23472367066E+03  0.23472367066E+03  0.00000000000E+00 0.  1.
         13   -1    0    0    0    0 -0.00000000000E+00 -0.00000000000E+00 -0.27500000000E+03  0.27500000000E+03  0.00000000000E+00 0.  1.
    9000005    2    1    2  501    0  0.41652268848E+02 -0.55987333950E+01 -0.61616055878E+02  0.46258938118E+03  0.45653711779E+03 0.  0.
         13    1    3    3    0    0  0.17281267804E+03  0.14083708721E+03 -0.12556447307E+03  0.25586274391E+03  0.00000000000E+00 0.  1.
          3    1    3    3  501    0 -0.13116040919E+03 -0.14643582061E+03  0.63948417195E+02  0.20672663727E+03  0.00000000000E+00 0.  1.
         21    1    1    2  502  501 -0.41652268848E+02  0.55987333950E+01  0.21339726537E+02  0.47134289477E+02  0.00000000000E+00 0.  1.
<scales pt_clust_4="550.00000" pt_clust_5="550.00000" pt_clust_6="42.02686"></scales>
<mgrwt>
<rscale>  0 0.30000000E+03</rscale>
<asrwt>  1 0.42026864E+02</asrwt>
<pdfrwt beam="1">  1        1 0.85354062E+00 0.30000000E+03</pdfrwt>
<pdfrwt beam="2">0</pdfrwt>
<totfact> 0.36404948E-04</totfact>
</mgrwt>
<clustering>
<clus scale="   42.027">  1  6  2 -1</clus>
<clus scale="  456.537">  4  5 -1 -1</clus>
<clus scale="  300.000">  1  4  2 -1</clus>
</clustering>
</event>
<event>
 6    1  0.9254630E-012  0.3000000E+03  0.7818608E-02  0.1093470E+00
          1   -1    0    0  502    0  0.00000000000E+00  0.00000000000E+00  0.23682672930E+03  0.23682672930E+03  0.00000000000E+00 0.  1.
         13   -1    0    0    0    0 -0.00000000000E+00 -0.00000000000E+00 -0.27500000000E+03  0.27500000000E+03  0.00000000000E+00 0.  1.
    9000005    2    1    2  501    0  0.28599288138E+02  0.10513817805E+02 -0.50765164768E+02  0.47885681206E+03  0.47518237010E+03 0.  0.
         13    1    3    3    0    0 -0.12477759675E+03 -0.44586671477E+02  0.16299300478E+03  0.21005746722E+03  0.00000000000E+00 0.  1.
          1    1    3    3  501    0  0.15337688489E+03  0.55100489282E+02 -0.21375816955E+03  0.26879934484E+03  0.00000000000E+00 0.  1.
         21    1    1    2  502  501 -0.28599288138E+02 -0.10513817805E+02  0.12591894068E+02  0.32969917243E+02  0.00000000000E+00 0.  1.
<scales pt_clust_4="550.00000" pt_clust_5="550.00000" pt_clust_6="30.47064"></scales>
<mgrwt>
<rscale>  0 0.30000000E+03</rscale>
<asrwt>  1 0.30470636E+02</asrwt>
<pdfrwt beam="1">  1        1 0.86118811E+00 0.30000000E+03</pdfrwt>
<pdfrwt beam="2">0</pdfrwt>
<totfact> 0.32247455E-04</totfact>
</mgrwt>
<clustering>
<clus scale="   30.471">  1  6  2 -1</clus>
<clus scale="  475.182">  4  5 -1 -1</clus>
<clus scale="  300.000">  1  4  2 -1</clus>
</clustering>
</event>
<event>
 6    1  0.9254630E-012  0.3000000E+03  0.7818608E-02  0.1093470E+00
          1   -1    0    0  502    0  0.00000000000E+00  0.00000000000E+00  0.23085565085E+03  0.23085565085E+03  0.00000000000E+00 0.  1.
         13   -1    0    0    0    0 -0.00000000000E+00 -0.00000000000E+00 -0.27500000000E+03  0.27500000000E+03  0.00000000000E+00 0.  1.
    9000005    2    1    2  501    0 -0.17071464039E+02 -0.28420111742E+02 -0.31049623810E+02  0.47021004148E+03  0.46801096818E+03 0.  0.
         13    1    3    3    0    0 -0.98041311189E+02 -0.21802024347E+03  0.57442881330E+02  0.24585485531E+03  0.00000000000E+00 0.  1.
          1    1    3    3  501    0  0.80969847149E+02  0.18960013173E+03 -0.88492505140E+02  0.22435518618E+03  0.00000000000E+00 0.  1.
         21    1    1    2  502  501  0.17071464039E+02  0.28420111742E+02 -0.13094725336E+02  0.35645609372E+02  0.00000000000E+00 0. -1.
<scales pt_clust_4="550.00000" pt_clust_5="550.00000" pt_clust_6="33.15326"></scales>
<mgrwt>
<rscale>  0 0.30000000E+03</rscale>
<asrwt>  1 0.33153261E+02</asrwt>
<pdfrwt beam="1">  1        1 0.83947509E+00 0.30000000E+03</pdfrwt>
<pdfrwt beam="2">0</pdfrwt>
<totfact> 0.50677511E-04</totfact>
</mgrwt>
<clustering>
<clus scale="   33.153">  1  6  2 -1</clus>
<clus scale="  468.011">  4  5 -1 -1</clus>
<clus scale="  300.000">  1  4  2 -1</clus>
</clustering>
</event>
<event>
 6    1  0.9254630E-012  0.3000000E+03  0.7818608E-02  0.1093470E+00
          1   -1    0    0  502    0  0.00000000000E+00  0.00000000000E+00  0.24686496943E+03  0.24686496943E+03  0.00000000000E+00 0.  1.
         13   -1    0    0    0    0 -0.00000000000E+00 -0.00000000000E+00 -0.27500000000E+03  0.27500000000E+03  0.00000000000E+00 0.  1.
    9000005    2    1    2  501    0 -0.15601396230E+02 -0.27664777629E+02 -0.53617400388E+02  0.48114526097E+03  0.47709243658E+03 0.  0.
         13    1    3    3    0    0  0.16861808222E+03 -0.17443241422E+03 -0.26280093576E+02  0.24402739211E+03  0.00000000000E+00 0.  1.
          1    1    3    3  501    0 -0.18421947845E+03  0.14676763659E+03 -0.27337306812E+02  0.23711786886E+03  0.00000000000E+00 0.  1.
         21    1    1    2  502  501  0.15601396230E+02  0.27664777629E+02  0.25482369818E+02  0.40719708461E+02  0.00000000000E+00 0.  1.
<scales pt_clust_4="550.00000" pt_clust_5="550.00000" pt_clust_6="31.76072"></scales>
<mgrwt>
<rscale>  0 0.30000000E+03</rscale>
<asrwt>  1 0.31760722E+02</asrwt>
<pdfrwt beam="1">  1        1 0.89769080E+00 0.30000000E+03</pdfrwt>
<pdfrwt beam="2">0</pdfrwt>
<totfact> 0.11981620E-04</totfact>
</mgrwt>
<clustering>
<clus scale="   31.761">  1  6  2 -1</clus>
<clus scale="  477.092">  4  5 -1 -1</clus>
<clus scale="  300.000">  1  4  2 -1</clus>
</clustering>
</event>
<event>
 6    1  0.9254630E-012  0.3000000E+03  0.7818608E-02  0.1093470E+00
          1   -1    0    0  502    0  0.00000000000E+00  0.00000000000E+00  0.22460886300E+03  0.22460886300E+03  0.00000000000E+00 0.  1.
         13   -1    0    0    0    0 -0.00000000000E+00 -0.00000000000E+00 -0.27500000000E+03  0.27500000000E+03  0.00000000000E+00 0.  1.
    9000005    2    1    2  501    0  0.34218665986E+02 -0.10541518919E+02 -0.58672921615E+02  0.46285796261E+03  0.45772583617E+03 0.  0.
         13    1    3    3    0    0 -0.20613966447E+03 -0.51143446589E+02 -0.11191914727E+01  0.21239224559E+03  0.00000000000E+00 0.  1.
          1    1    3    3  501    0  0.24035833046E+03  0.40601927670E+02 -0.57553730142E+02  0.25046571702E+03  0.00000000000E+00 0.  1.
         21    1    1    2  502  501 -0.34218665986E+02  0.10541518919E+02  0.82817846147E+01  0.36750900389E+02  0.00000000000E+00 0.  1.
<scales pt_clust_4="550.00000" pt_clust_5="550.00000" pt_clust_6="35.80560"></scales>
<mgrwt>
<rscale>  0 0.30000000E+03</rscale>
<asrwt>  1 0.35805596E+02</asrwt>
<pdfrwt beam="1">  1        1 0.81675950E+00 0.30000000E+03</pdfrwt>
<pdfrwt beam="2">0</pdfrwt>
<totfact> 0.76693469E-04</totfact>
</mgrwt>
<clustering>
<clus scale="   35.806">  1  6  2 -1</clus>
<clus scale="  457.726">  4  5 -1 -1</clus>
<clus scale="  300.000">  1  4  2 -1</clus>
</clustering>
</event>
<event>
 6    1  0.9254630E-012  0.3000000E+03  0.7818608E-02  0.1093470E+00
          1   -1    0    0  502    0  0.00000000000E+00  0.00000000000E+00  0.22170040907E+03  0.22170040907E+03  0.00000000000E+00 0.  1.
         13   -1    0    0    0    0 -0.00000000000E+00 -0.00000000000E+00 -0.27500000000E+03  0.27500000000E+03  0.00000000000E+00 0.  1.
    9000005    2    1    2  501    0 -0.32656077936E+02  0.76612301470E+01 -0.58981140110E+02  0.46267991709E+03  0.45767763427E+03 0.  0.
         13    1    3    3    0    0  0.77498105389E+02 -0.19608880703E+01 -0.23908622145E+03  0.25134045180E+03  0.00000000000E+00 0.  1.
          3    1    3    3  501    0 -0.11015418332E+03  0.96221182173E+01  0.18010508134E+03  0.21133946529E+03  0.00000000000E+00 0.  1.
         21    1    1    2  502  501  0.32656077936E+02 -0.76612301470E+01  0.56815491756E+01  0.34020491980E+02  0.00000000000E+00 0. -1.
<scales pt_clust_4="550.00000" pt_clust_5="550.00000" pt_clust_6="33.54272"></scales>
<mgrwt>
<rscale>  0 0.30000000E+03</rscale>
<asrwt>  1 0.33542717E+02</asrwt>
<pdfrwt beam="1">  1        1 0.80618331E+00 0.30000000E+03</pdfrwt>
<pdfrwt beam="2">0</pdfrwt>
<totfact> 0.94084324E-04</totfact>
</mgrwt>
<clustering>
<clus scale="   33.543">  1  6  2 -1</clus>
<clus scale="  457.678">  4  5 -1 -1</clus>
<clus scale="  300.000">  1  4  2 -1</clus>
</clustering>
</event>
<event>
 6    1  0.9254630E-012  0.3000000E+03  0.7818608E-02  0.1093470E+00
          1   -1    0    0  502    0  0.00000000000E+00  0.00000000000E+00  0.23882658137E+03  0.23882658137E+03  0.00000000000E+00 0.  1.
         13   -1    0    0    0    0 -0.00000000000E+00 -0.00000000000E+00 -0.27500000000E+03  0.27500000000E+03  0.00000000000E+00 0.  1.
    9000005    2    1    2  501    0 -0.69300434177E+00  0.43180619066E+02 -0.33426864987E+02  0.47055315217E+03  0.46737337065E+03 0.  0.
         13    1    3    3    0    0  0.22777600750E+03  0.33272809900E+02  0.32691008951E+02  0.23250310006E+03  0.00000000000E+00 0.  1.
          1    1    3    3  501    0 -0.22846901184E+03  0.99078091654E+01 -0.66117873937E+02  0.23805005211E+03  0.00000000000E+00 0.  1.
         21    1    1    2  502  501  0.69300434177E+00 -0.43180619066E+02 -0.27465536447E+01  0.43273429201E+02  0.00000000000E+00 0.  1.
<scales pt_clust_4="550.00000" pt_clust_5="550.00000" pt_clust_6="43.18618"></scales>
<mgrwt>
<rscale>  0 0.30000000E+03</rscale>
<asrwt>  1 0.43186180E+02</asrwt>
<pdfrwt beam="1">  1        1 0.86846030E+00 0.30000000E+03</pdfrwt>
<pdfrwt beam="2">0</pdfrwt>
<totfact> 0.25271355E-04</totfact>
</mgrwt>
<clustering>
<clus scale="   43.186">  1  6  2 -1</clus>
<clus scale="  467.373">  4  5 -1 -1</clus>
<clus scale="  300.000">  1  4  2 -1</clus>
</clustering>
</event>
<event>
 6    1  0.9254630E-012  0.3000000E+03  0.7818608E-02  0.1093470E+00
          1   -1    0    0  502    0  0.00000000000E+00  0.00000000000E+00  0.22346121177E+03  0.22346121177E+03  0.00000000000E+00 0.  1.
         13   -1    0    0    0    0 -0.00000000000E+00 -0.00000000000E+00 -0.27500000000E+03  0.27500000000E+03  0.00000000000E+00 0.  1.
    9000005    2    1    2  501    0 -0.31753689729E+02 -0.14392297001E+02 -0.47374190264E+02  0.46335026048E+03  0.45960169164E+03 0.  0.
         13    1    3    3    0    0  0.10883763610E+03  0.24573328737E+02 -0.21432967698E+03  0.24163337922E+03  0.00000000000E+00 0.  1.
          3    1    3    3  501    0 -0.14059132583E+03 -0.38965625738E+02  0.16695548672E+03  0.22171688126E+03  0.00000000000E+00 0.  1.
         21    1    1    2  502  501  0.31753689729E+02  0.14392297001E+02 -0.41645979668E+01  0.35110951291E+02  0.00000000000E+00 0.  1.
<scales pt_clust_4="550.00000" pt_clust_5="550.00000" pt_clust_6="34.86311"></scales>
<mgrwt>
<rscale>  0 0.30000000E+03</rscale>
<asrwt>  1 0.34863107E+02</asrwt>
<pdfrwt beam="1">  1        1 0.81258622E+00 0.30000000E+03</pdfrwt>
<pdfrwt beam="2">0</pdfrwt>
<totfact> 0.83286721E-04</totfact>
</mgrwt>
<clustering>
<clus scale="   34.863">  1  6  2 -1</clus>
<clus scale="  459.602">  4  5 -1 -1</clus>
<clus scale="  300.000">  1  4  2 -1</clus>
</clustering>
</event>
<event>
 6    1  0.9254630E-012  0.3000000E+03  0.7818608E-02  0.1093470E+00
          1   -1    0    0  502    0  0.00000000000E+00  0.00000000000E+00  0.23463610880E+03  0.23463610880E+03  0.00000000000E+00 0.  1.
         13   -1    0    0    0    0 -0.00000000000E+00 -0.00000000000E+00 -0.27500000000E+03  0.27500000000E+03  0.00000000000E+00 0.  1.
    9000005    2    1    2  501    0  0.16896143365E+02  0.25510094890E+02 -0.70246616136E+02  0.46686670558E+03  0.46053630595E+03 0.  0.
         13    1    3    3    0    0  0.23803283083E+03  0.59659873413E+01 -0.17896940502E+02  0.23877923284E+03  0.00000000000E+00 0.  1.
          1    1    3    3  501    0 -0.22113668746E+03  0.19544107548E+02 -0.52349675635E+02  0.22808747274E+03  0.00000000000E+00 0.  1.
         21    1    1    2  502  501 -0.16896143365E+02 -0.25510094890E+02  0.29882724938E+02  0.42769403218E+02  0.00000000000E+00 0.  1.
<scales pt_clust_4="550.00000" pt_clust_5="550.00000" pt_clust_6="30.59811"></scales>
<mgrwt>
<rscale>  0 0.30000000E+03</rscale>
<asrwt>  1 0.30598114E+02</asrwt>
<pdfrwt beam="1">  1        1 0.85322221E+00 0.30000000E+03</pdfrwt>
<pdfrwt beam="2">0</pdfrwt>
<totfact> 0.38896600E-04</totfact>
</mgrwt>
<clustering>
<clus scale="   30.598">  1  6  2 -1</clus>
<clus scale="  460.536">  4  5 -1 -1</clus>
<clus scale="  300.000">  1  4  2 -1</clus>
</clustering>
</event>
<event>
 6    1  0.9254630E-012  0.3000000E+03  0.7818608E-02  0.1093470E+00
          1   -1    0    0  502    0  0.00000000000E+00  0.00000000000E+00  0.24116130955E+03  0.24116130955E+03  0.00000000000E+00 0.  1.
         13   -1    0    0    0    0 -0.00000000000E+00 -0.00000000000E+00 -0.27500000000E+03  0.27500000000E+03  0.00000000000E+00 0.  1.
    9000005    2    1    2  501    0 -0.21530101950E+02  0.27363664209E+02 -0.44385146654E+02  0.47978077702E+03  0.47645276507E+03 0.  0.
         13    1    3    3    0    0 -0.15737552975E+03 -0.60165051416E+02 -0.19581124978E+03  0.25831944626E+03  0.00000000000E+00 0.  1.
          3    1    3    3  501    0  0.13584542780E+03  0.87528715626E+02  0.15142610312E+03  0.22146133076E+03  0.00000000000E+00 0.  1.
         21    1    1    2  502  501  0.21530101950E+02 -0.27363664209E+02  0.10546456201E+02  0.36380532532E+02  0.00000000000E+00 0.  1.
<scales pt_clust_4="550.00000" pt_clust_5="550.00000" pt_clust_6="34.81832"></scales>
<mgrwt>
<rscale>  0 0.30000000E+03</rscale>
<asrwt>  1 0.34818320E+02</asrwt>
<pdfrwt beam="1">  1        1 0.87695022E+00 0.30000000E+03</pdfrwt>
<pdfrwt beam="2">0</pdfrwt>
<totfact> 0.21447262E-04</totfact>
</mgrwt>
<clustering>
<clus scale="   34.818">  1  6  2 -1</clus>
<clus scale="  476.453">  4  5 -1 -1</clus>
<clus scale="  300.000">  1  4  2 -1</clus>
</clustering>
</event>
<event>
 6    1  0.9254630E-012  0.3000000E+03  0.7818608E-02  0.1093470E+00
          1   -1    0    0  502    0  0.00000000000E+00  0.00000000000E+00  0.24414937401E+03  0.24414937401E+03  0.00000000000E+00 0.  1.
         13   -1    0    0    0    0 -0.00000000000E+00 -0.00000000000E+00 -0.27500000000E+03  0.27500000000E+03  0.00000000000E+00 0.  1.
    9000005    2    1    2  501    0  0.13751202717E+02 -0.34647193697E+02 -0.60301627936E+02  0.47164268898E+03  0.46628426536E+03 0.  0.
         13    1    3    3    0    0  0.16935296494E+03 -0.16432774560E+03  0.49689843562E+02  0.24114957031E+03  0.00000000000E+00 0.  1.
          3    1    3    3  501    0 -0.15560176222E+03  0.12968055190E+03 -0.10999147150E+03  0.23049311866E+03  0.00000000000E+00 0.  1.
         21    1    1    2  502  501 -0.13751202717E+02  0.34647193697E+02  0.29451001942E+02  0.47506685031E+02  0.00000000000E+00 0.  1.
<scales pt_clust_4="550.00000" pt_clust_5="550.00000" pt_clust_6="37.27631"></scales>
<mgrwt>
<rscale>  0 0.30000000E+03</rscale>
<asrwt>  1 0.37276314E+02</asrwt>
<pdfrwt beam="1">  1        1 0.88781591E+00 0.30000000E+03</pdfrwt>
<pdfrwt beam="2">0</pdfrwt>
<totfact> 0.15338934E-04</totfact>
</mgrwt>
<clustering>
<clus scale="   37.276">  1  6  2 -1</clus>
<clus scale="  466.284">  4  5 -1 -1</clus>
<clus scale="  300.000">  1  4  2 -1</clus>
</clustering>
</event>
<event>
 6    1  0.9254630E-012  0.3000000E+03  0.7818608E-02  0.1093470E+00
          1   -1    0    0  502    0  0.00000000000E+00  0.00000000000E+00  0.25528953852E+03  0.25528953852E+03  0.00000000000E+00 0.  1.
         13   -1    0    0    0    0 -0.00000000000E+00 -0.00000000000E+00 -0.27500000000E+03  0.27500000000E+03  0.00000000000E+00 0.  1.
    9000005    2    1    2  501    0  0.27790173201E+01  0.41371416203E+02 -0.33395016522E+02  0.48662509002E+03  0.48370387025E+03 0.  0.
         13    1    3    3    0    0 -0.16283056825E+03  0.19371473019E+03 -0.59885340776E+02  0.26004892749E+03  0.00000000000E+00 0.  1.
          1    1    3    3  501    0  0.16560958557E+03 -0.15234331398E+03  0.26490324253E+02  0.22657616253E+03  0.00000000000E+00 0.  1.
         21    1    1    2  502  501 -0.27790173201E+01 -0.41371416203E+02  0.13684555046E+02  0.43664448499E+02  0.00000000000E+00 0.  1.
<scales pt_clust_4="550.00000" pt_clust_5="550.00000" pt_clust_6="41.46465"></scales>
<mgrwt>
<rscale>  0 0.30000000E+03</rscale>
<asrwt>  1 0.41464648E+02</asrwt>
<pdfrwt beam="1">  1        1 0.92832559E+00 0.30000000E+03</pdfrwt>
<pdfrwt beam="2">0</pdfrwt>
<totfact> 0.27229131E-05</totfact>
</mgrwt>
<clustering>
<clus scale="   41.465">  1  6  2 -1</clus>
<clus scale="  483.704">  4  5 -1 -1</clus>
<clus scale="  300.000">  1  4  2 -1</clus>
</clustering>
</event>
<event>
 6    1  0.9254630E-012  0.3000000E+03  0.7818608E-02  0.1093470E+00
          1   -1    0    0  502    0  0.00000000000E+00  0.00000000000E+00  0.22145740592E+03  0.22145740592E+03  0.00000000000E+00 0.  1.
         13   -1    0    0    0    0 -0.00000000000E+00 -0.00000000000E+00 -0.27500000000E+03  0.27500000000E+03  0.00000000000E+00 0.  1.
    9000005    2    1    2  501    0 -0.29126432298E+02  0.12213421551E+02 -0.53701299447E+02  0.46487351902E+03  0.46067997829E+03 0.  0.
         13    1    3    3    0    0 -0.94689751024E+02 -0.18496254808E+02  0.18867696870E+03  0.21191332876E+03  0.00000000000E+00 0.  1.
          3    1    3    3  501    0  0.65563318726E+02  0.30709676359E+02 -0.24237826814E+03  0.25296019025E+03  0.00000000000E+00 0.  1.
         21    1    1    2  502  501  0.29126432298E+02 -0.12213421551E+02  0.15870536669E+00  0.31583886902E+02  0.00000000000E+00 0.  1.
<scales pt_clust_4="550.00000" pt_clust_5="550.00000" pt_clust_6="31.58349"></scales>
<mgrwt>
<rscale>  0 0.30000000E+03</rscale>
<asrwt>  1 0.31583488E+02</asrwt>
<pdfrwt beam="1">  1        1 0.80529966E+00 0.30000000E+03</pdfrwt>
<pdfrwt beam="2">0</pdfrwt>
<totfact> 0.96653639E-04</totfact>
</mgrwt>
<clustering>
<clus scale="   31.583">  1  6  2 -1</clus>
<clus scale="  460.680">  4  5 -1 -1</clus>
<clus scale="  300.000">  1  4  2 -1</clus>
</clustering>
</event>
<event>
 6    1  0.9254630E-012  0.3000000E+03  0.7818608E-02  0.1093470E+00
          1   -1    0    0  502    0  0.00000000000E+00  0.00000000000E+00  0.24025550663E+03  0.24025550663E+03  0.00000000000E+00 0.  1.
         13   -1    0    0    0    0 -0.00000000000E+00 -0.00000000000E+00 -0.27500000000E+03  0.27500000000E+03  0.00000000000E+00 0.  1.
    9000005    2    1    2  501    0 -0.85017418655E+01 -0.31890276847E+02 -0.47828272536E+02  0.47975262436E+03  0.47622029309E+03 0.  0.
         13    1    3    3    0    0  0.19749202413E+03  0.10434316377E+03 -0.63723237371E+02  0.23227407604E+03  0.00000000000E+00 0.  1.
          1    1    3    3  501    0 -0.20599376600E+03 -0.13623344061E+03  0.15894964835E+02  0.24747854832E+03  0.00000000000E+00 0.  1.
         21    1    1    2  502  501  0.85017418655E+01  0.31890276847E+02  0.13083779165E+02  0.35502882268E+02  0.00000000000E+00 0.  1.
<scales pt_clust_4="550.00000" pt_clust_5="550.00000" pt_clust_6="33.00408"></scales>
<mgrwt>
<rscale>  0 0.30000000E+03</rscale>
<asrwt>  1 0.33004081E+02</asrwt>
<pdfrwt beam="1">  1        1 0.87365639E+00 0.30000000E+03</pdfrwt>
<pdfrwt beam="2">0</pdfrwt>
<totfact> 0.23490612E-04</totfact>
</mgrwt>
<clustering>
<clus scale="   33.004">  1  6  2 -1</clus>
<clus scale="  476.220">  4  5 -1 -1</clus>
<clus scale="  300.000">  1  4  2 -1</clus>
</clustering>
</event>
<event>
 6    1  0.9254630E-012  0.3000000E+03  0.7818608E-02  0.1093470E+00
          1   -1    0    0  502    0  0.00000000000E+00  0.00000000000E+00  0.24647163728E+03  0.24647163728E+03  0.00000000000E+00 0.  1.
         13   -1    0    0    0    0 -0.00000000000E+00 -0.00000000000E+00 -0.27500000000E+03  0.27500000000E+03  0.00000000000E+00 0.  1.
    9000005    2    1    2  501    0 -0.45956403368E+02 -0.20635908808E+02 -0.42895645238E+02  0.46908604241E+03  0.46439621775E+03 0.  0.
         13    1    3    3    0    0  0.19654603565E+03 -0.47102378436E+02 -0.88975867605E+02  0.22082953426E+03  0.00000000000E+00 0.  1.
          3    1    3    3  501    0 -0.24250243902E+03  0.26466469628E+02  0.46080222368E+02  0.24825650815E+03  0.00000000000E+00 0.  1.
         21    1    1    2  502  501  0.45956403368E+02  0.20635908808E+02  0.14367282520E+02  0.52385594870E+02  0.00000000000E+00 0.  1.
<scales pt_clust_4="550.00000" pt_clust_5="550.00000" pt_clust_6="50.37690"></scales>
<mgrwt>
<rscale>  0 0.30000000E+03</rscale>
<asrwt>  1 0.50376897E+02</asrwt>
<pdfrwt beam="1">  1        1 0.89626050E+00 0.30000000E+03</pdfrwt>
<pdfrwt beam="2">0</pdfrwt>
<totfact> 0.11428781E-04</totfact>
</mgrwt>
<clustering>
<clus scale="   50.377">  1  6  2 -1</clus>
<clus scale="  464.396">  4  5 -1 -1</clus>
<clus scale="  300.000">  1  4  2 -1</clus>
</clustering>
</event>
<event>
 6    1  0.9254630E-012  0.3000000E+03  0.7818608E-02  0.1093470E+00
          1   -1    0    0  502    0  0.00000000000E+00  0.00000000000E+00  0.24000682025E+03  0.24000682025E+03  0.00000000000E+00 0.  1.
         13   -1    0    0    0    0 -0.00000000000E+00 -0.00000000000E+00 -0.27500000000E+03  0.27500000000E+03  0.00000000000E+00 0.  1.
    9000005    2    1    2  501    0 -0.29390431200E+02 -0.38682846953E+02 -0.48390862643E+02  0.46461180064E+03  0.45952398154E+03 0.  0.
         13    1    3    3    0    0 -0.72892062868E+01 -0.23488556947E+03 -0.10762905989E+03  0.25847316651E+03  0.00000000000E+00 0.  1.
          1    1    3    3  501    0 -0.22101224913E+02  0.19620272252E+03  0.59238197248E+02  0.20613863413E+03  0.00000000000E+00 0.  1.
         21    1    1    2  502  501  0.29390431200E+02  0.38682846953E+02  0.13397682891E+02  0.50395019609E+02  0.00000000000E+00 0. -1.
<scales pt_clust_4="550.00000" pt_clust_5="550.00000" pt_clust_6="48.58148"></scales>
<mgrwt>
<rscale>  0 0.30000000E+03</rscale>
<asrwt>  1 0.48581479E+02</asrwt>
<pdfrwt beam="1">  1        1 0.87275207E+00 0.30000000E+03</pdfrwt>
<pdfrwt beam="2">0</pdfrwt>
<totfact> 0.22365220E-04</totfact>
</mgrwt>
<clustering>
<clus scale="   48.581">  1  6  2 -1</clus>
<clus scale="  459.524">  4  5 -1 -1</clus>
<clus scale="  300.000">  1  4  2 -1</clus>
</clustering>
</event>
<event>
 6    1  0.9254630E-012  0.3000000E+03  0.7818608E-02  0.1093470E+00
          1   -1    0    0  502    0  0.00000000000E+00  0.00000000000E+00  0.22505170657E+03  0.22505170657E+03  0.00000000000E+00 0.  1.
         13   -1    0    0    0    0 -0.00000000000E+00 -0.00000000000E+00 -0.27500000000E+03  0.27500000000E+03  0.00000000000E+00 0.  1.
    9000005    2    1    2  501    0  0.20878593120E+02  0.25837522235E+02 -0.54825290522E+02  0.46647674110E+03  0.46205112737E+03 0.  0.
         13    1    3    3    0    0  0.18012843686E+03 -0.13916900644E+03  0.11009802966E+02  0.22789357578E+03  0.00000000000E+00 0.  1.
          3    1    3    3  501    0 -0.15924984374E+03  0.16500652868E+03 -0.65835093487E+02  0.23858316532E+03  0.00000000000E+00 0.  1.
         21    1    1    2  502  501 -0.20878593120E+02 -0.25837522235E+02  0.48769970964E+01  0.33574965475E+02  0.00000000000E+00 0.  1.
<scales pt_clust_4="550.00000" pt_clust_5="550.00000" pt_clust_6="33.21887"></scales>
<mgrwt>
<rscale>  0 0.30000000E+03</rscale>
<asrwt>  1 0.33218868E+02</asrwt>
<pdfrwt beam="1">  1        1 0.81836984E+00 0.30000000E+03</pdfrwt>
<pdfrwt beam="2">0</pdfrwt>
<totfact> 0.75423097E-04</totfact>
</mgrwt>
<clustering>
<clus scale="   33.219">  1  6  2 -1</clus>
<clus scale="  462.051">  4  5 -1 -1</clus>
<clus scale="  300.000">  1  4  2 -1</clus>
</clustering>
</event>
<event>
 6    1  0.9254630E-012  0.3000000E+03  0.7818608E-02  0.1093470E+00
          1   -1    0    0  502    0  0.00000000000E+00  0.00000000000E+00  0.22034354104E+03  0.22034354104E+03  0.00000000000E+00 0.  1.
         13   -1    0    0    0    0 -0.00000000000E+00 -0.00000000000E+00 -0.27500000000E+03  0.27500000000E+03  0.00000000000E+00 0.  1.
    9000005    2    1    2  501    0 -0.10250462024E+02  0.30110000213E+02 -0.58412805324E+02  0.46331551859E+03  0.45851666257E+03 0.  0.
         13    1    3    3    0    0 -0.17328051384E+03  0.81371863219E+02  0.11214820829E+03  0.22186648513E+03  0.00000000000E+00 0.  1.
          1    1    3    3  501    0  0.16303005182E+03 -0.51261863006E+02 -0.17056101361E+03  0.24144903346E+03  0.00000000000E+00 0.  1.
         21    1    1    2  502  501  0.10250462024E+02 -0.30110000213E+02  0.37563463690E+01  0.32028022458E+02  0.00000000000E+00 0.  1.
<scales pt_clust_4="550.00000" pt_clust_5="550.00000" pt_clust_6="31.80698"></scales>
<mgrwt>
<rscale>  0 0.30000000E+03</rscale>
<asrwt>  1 0.31806982E+02</asrwt>
<pdfrwt beam="1">  1        1 0.80124924E+00 0.30000000E+03</pdfrwt>
<pdfrwt beam="2">0</pdfrwt>
<totfact> 0.10341520E-03</totfact>
</mgrwt>
<clustering>
<clus scale="   31.807">  1  6  2 -1</clus>
<clus scale="  458.517">  4  5 -1 -1</clus>
<clus scale="  300.000">  1  4  2 -1</clus>
</clustering>
</event>
<event>
 6    1  0.9254630E-012  0.3000000E+03  0.7818608E-02  0.1093470E+00
          1   -1    0    0  502    0  0.00000000000E+00  0.00000000000E+00  0.22548715109E+03  0.22548715109E+03  0.00000000000E+00 0.  1.
         13   -1    0    0    0    0 -0.00000000000E+00 -0.00000000000E+00 -0.27500000000E+03  0.27500000000E+03  0.00000000000E+00 0.  1.
    9000005    2    1    2  501    0 -0.26747515342E+02 -0.15654065589E+02 -0.70876530133E+02  0.46284560195E+03  0.45633550089E+03 0.  0.
         13    1    3    3    0    0  0.19181569755E+03  0.86930177099E+02 -0.68294125710E+02  0.22139151999E+03  0.00000000000E+00 0.  1.
          3    1    3    3  501    0 -0.21856321290E+03 -0.10258424269E+03 -0.25824044231E+01  0.24145408195E+03  0.00000000000E+00 0.  1.
         21    1    1    2  502  501  0.26747515342E+02  0.15654065589E+02  0.21363681219E+02  0.37641549140E+02  0.00000000000E+00 0. -1.
<scales pt_clust_4="550.00000" pt_clust_5="550.00000" pt_clust_6="30.99160"></scales>
<mgrwt>
<rscale>  0 0.30000000E+03</rscale>
<asrwt>  1 0.30991601E+02</asrwt>
<pdfrwt beam="1">  1        1 0.81995328E+00 0.30000000E+03</pdfrwt>
<pdfrwt beam="2">0</pdfrwt>
<totfact> 0.74081580E-04</totfact>
</mgrwt>
<clustering>
<clus scale="   30.992">  1  6  2 -1</clus>
<clus scale="  456.336">  4  5 -1 -1</clus>
<clus scale="  300.000">  1  4  2 -1</clus>
</clustering>
</event>
<event>
 6    1  0.9254630E-012  0.3000000E+03  0.7818608E-02  0.1093470E+00
          1   -1    0    0  502    0  0.00000000000E+00  0.00000000000E+00  0.24789439885E+03  0.24789439885E+03  0.00000000000E+00 0.  1.
         13   -1    0    0    0    0 -0.00000000000E+00 -0.00000000000E+00 -0.27500000000E+03  0.27500000000E+03  0.00000000000E+00 0.  1.
    9000005    2    1    2  501    0 -0.44636845992E+02 -0.35183202473E+02 -0.18785089200E+02  0.46545280524E+03  0.46158761744E+03 0.  0.
         13    1    3    3    0    0  0.14166042127E+03  0.12538169014E+03  0.73235715686E+02  0.20285885051E+03  0.00000000000E+00 0.  1.
          3    1    3    3  501    0 -0.18629726727E+03 -0.16056489261E+03 -0.92020804885E+02  0.26259395473E+03  0.00000000000E+00 0.  1.
         21    1    1    2  502  501  0.44636845992E+02  0.35183202473E+02 -0.83205119554E+01  0.57441593602E+02  0.00000000000E+00 0. -1.
<scales pt_clust_4="550.00000" pt_clust_5="550.00000" pt_clust_6="56.83581"></scales>
<mgrwt>
<rscale>  0 0.30000000E+03</rscale>
<asrwt>  1 0.56835807E+02</asrwt>
<pdfrwt beam="1">  1        1 0.90143418E+00 0.30000000E+03</pdfrwt>
<pdfrwt beam="2">0</pdfrwt>
<totfact> 0.96946396E-05</totfact>
</mgrwt>
<clustering>
<clus scale="   56.836">  1  6  2 -1</clus>
<clus scale="  461.588">  4  5 -1 -1</clus>
<clus scale="  300.000">  1  4  2 -1</clus>
</clustering>
</event>
<event>
 6    1  0.9254630E-012  0.3000000E+03  0.7818608E-02  0.1093470E+00
          1   -1    0    0  502    0  0.00000000000E+00  0.00000000000E+00  0.23577457676E+03  0.23577457676E+03  0.00000000000E+00 0.  1.
         13   -1    0    0    0    0 -0.00000000000E+00 -0.00000000000E+00 -0.27500000000E+03  0.27500000000E+03  0.00000000000E+00 0.  1.
    9000005    2    1    2  501    0  0.22844678180E+02 -0.21670735129E+02 -0.41411444143E+02  0.47921069281E+03  0.47637850531E+03 0.  0.
         13    1    3    3    0    0  0.63523458747E+02 -0.42114309202E+02 -0.25225006445E+03  0.26351269393E+03  0.00000000000E+00 0.  1.
          3    1    3    3  501    0 -0.40678780567E+02  0.20443574073E+02  0.21083862030E+03  0.21569799888E+03  0.00000000000E+00 0.  1.
         21    1    1    2  502  501 -0.22844678180E+02  0.21670735129E+02  0.21860208980E+01  0.31563883943E+02  0.00000000000E+00 0. -1.
<scales pt_clust_4="550.00000" pt_clust_5="550.00000" pt_clust_6="31.48809"></scales>
<mgrwt>
<rscale>  0 0.30000000E+03</rscale>
<asrwt>  1 0.31488094E+02</asrwt>
<pdfrwt beam="1">  1        1 0.85736210E+00 0.30000000E+03</pdfrwt>
<pdfrwt beam="2">0</pdfrwt>
<totfact> 0.35175364E-04</totfact>
</mgrwt>
<clustering>
<clus scale="   31.488">  1  6  2 -1</clus>
<clus scale="  476.379">  4  5 -1 -1</clus>
<clus scale="  300.000">  1  4  2 -1</clus>
</clustering>
</event>
<event>
 6    1  0.9254630E-012  0.3000000E+03  0.7818608E-02  0.1093470E+00
          1   -1    0    0  502    0  0.00000000000E+00  0.00000000000E+00  0.22311482420E+03  0.22311482420E+03  0.00000000000E+00 0.  1.
         13   -1    0    0    0    0 -0.00000000000E+00 -0.00000000000E+00 -0.27500000000E+03  0.27500000000E+03  0.00000000000E+00 0.  1.
    9000005    2    1    2  501    0 -0.32062352865E+02  0.10285724065E+02 -0.54026240451E+02  0.46437501465E+03  0.45999079228E+03 0.  0.
         13    1    3    3    0    0 -0.10205166234E+03  0.51321173159E+02 -0.23762162913E+03  0.26365212541E+03  0.00000000000E+00 0.  1.
          3    1    3    3  501    0  0.69989309472E+02 -0.41035449094E+02  0.18359538868E+03  0.20072288925E+03  0.00000000000E+00 0.  1.
         21    1    1    2  502  501  0.32062352865E+02 -0.10285724065E+02  0.21410646535E+01  0.33739809552E+02  0.00000000000E+00 0. -1.
<scales pt_clust_4="550.00000" pt_clust_5="550.00000" pt_clust_6="33.67181"></scales>
<mgrwt>
<rscale>  0 0.30000000E+03</rscale>
<asrwt>  1 0.33671807E+02</asrwt>
<pdfrwt beam="1">  1        1 0.81132663E+00 0.30000000E+03</pdfrwt>
<pdfrwt beam="2">0</pdfrwt>
<totfact> 0.85774138E-04</totfact>
</mgrwt>
<clustering>
<clus scale="   33.672">  1  6  2 -1</clus>
<clus scale="  459.991">  4  5 -1 -1</clus>
<clus scale="  300.000">  1  4  2 -1</clus>
</clustering>
</event>
<event>
 6    1  0.9254630E-012  0.3000000E+03  0.7818608E-02  0.1093470E+00
          1   -1    0    0  502    0  0.00000000000E+00  0.00000000000E+00  0.22709723340E+03  0.22709723340E+03  0.00000000000E+00 0.  1.
         13   -1    0    0    0    0 -0.00000000000E+00 -0.00000000000E+00 -0.27500000000E+03  0.27500000000E+03  0.00000000000E+00 0.  1.
    9000005    2    1    2  501    0  0.96456577506E+01 -0.38985824279E+02 -0.48756099367E+02  0.46192682905E+03  0.45758748340E+03 0.  0.
         13    1    3    3    0    0 -0.46883668880E+02  0.18631300867E+03 -0.11042846596E+03  0.22159661934E+03  0.00000000000E+00 0.  1.
          1    1    3    3  501    0  0.56529326631E+02 -0.22529883295E+03  0.61672366592E+02  0.24033020971E+03  0.00000000000E+00 0.  1.
         21    1    1    2  502  501 -0.96456577506E+01  0.38985824279E+02  0.85333276286E+00  0.40170404342E+02  0.00000000000E+00 0.  1.
<scales pt_clust_4="550.00000" pt_clust_5="550.00000" pt_clust_6="40.16134"></scales>
<mgrwt>
<rscale>  0 0.30000000E+03</rscale>
<asrwt>  1 0.40161340E+02</asrwt>
<pdfrwt beam="1">  1        1 0.82580812E+00 0.30000000E+03</pdfrwt>
<pdfrwt beam="2">0</pdfrwt>
<totfact> 0.62631645E-04</totfact>
</mgrwt>
<clustering>
<clus scale="   40.161">  1  6  2 -1</clus>
<clus scale="  457.587">  4  5 -1 -1</clus>
<clus scale="  300.000">  1  4  2 -1</clus>
</clustering>
</event>
<event>
 6    1  0.9254630E-012  0.3000000E+03  0.7818608E-02  0.1093470E+00
          1   -1    0    0  502    0  0.00000000000E+00  0.00000000000E+00  0.25120870987E+03  0.25120870987E+03  0.00000000000E+00 0.  1.
         13   -1    0    0    0    0 -0.00000000000E+00 -0.00000000000E+00 -0.27500000000E+03  0.27500000000E+03  0.00000000000E+00 0.  1.
    9000005    2    1    2  501    0 -0.20325532115E+02  0.43051601627E+02 -0.49288806118E+02  0.47220231228E+03  0.46720345639E+03 0.  0.
         13    1    3    3    0    0 -0.59615845310E+02 -0.12877637277E+03 -0.19661552758E+03  0.24247694505E+03  0.00000000000E+00 0.  1.
          1    1    3    3  501    0  0.39290313195E+02  0.17182797439E+03  0.14732672146E+03  0.22972536724E+03  0.00000000000E+00 0.  1.
         21    1    1    2  502  501  0.20325532115E+02 -0.43051601627E+02  0.25497515985E+02  0.54006397582E+02  0.00000000000E+00 0. -1.
<scales pt_clust_4="550.00000" pt_clust_5="550.00000" pt_clust_6="47.60848"></scales>
<mgrwt>
<rscale>  0 0.30000000E+03</rscale>
<asrwt>  1 0.47608483E+02</asrwt>
<pdfrwt beam="1">  1        1 0.91348622E+00 0.30000000E+03</pdfrwt>
<pdfrwt beam="2">0</pdfrwt>
<totfact> 0.55662790E-05</totfact>
</mgrwt>
<clustering>
<clus scale="   47.608">  1  6  2 -1</clus>
<clus scale="  467.203">  4  5 -1 -1</clus>
<clus scale="  300.000">  1  4  2 -1</clus>
</clustering>
</event>
<event>
 6    1  0.9254630E-012  0.3000000E+03  0.7818608E-02  0.1093470E+00
          1   -1    0    0  502    0  0.00000000000E+00  0.00000000000E+00  0.22991832854E+03  0.22991832854E+03  0.00000000000E+00 0.  1.
         13   -1    0    0    0    0 -0.00000000000E+00 -0.00000000000E+00 -0.27500000000E+03  0.27500000000E+03  0.00000000000E+00 0.  1.
    9000005    2    1    2  501    0 -0.23107211975E+02  0.19223562906E+02 -0.50450252773E+02  0.47438457212E+03  0.47073560057E+03 0.  0.
         13    1    3    3    0    0 -0.19787006218E+03  0.71300976843E+02 -0.15765244985E+03  0.26285107143E+03  0.00000000000E+00 0.  1.
          1    1    3    3  501    0  0.17476285021E+03 -0.52077413937E+02  0.10720219708E+03  0.21153350069E+03  0.00000000000E+00 0.  1.
         21    1    1    2  502  501  0.23107211975E+02 -0.19223562906E+02  0.53685813141E+01  0.30533756424E+02  0.00000000000E+00 0. -1.
<scales pt_clust_4="550.00000" pt_clust_5="550.00000" pt_clust_6="30.05809"></scales>
<mgrwt>
<rscale>  0 0.30000000E+03</rscale>
<asrwt>  1 0.30058087E+02</asrwt>
<pdfrwt beam="1">  1        1 0.83606665E+00 0.30000000E+03</pdfrwt>
<pdfrwt beam="2">0</pdfrwt>
<totfact> 0.54698595E-04</totfact>
</mgrwt>
<clustering>
<clus scale="   30.058">  1  6  2 -1</clus>
<clus scale="  470.736">  4  5 -1 -1</clus>
<clus scale="  300.000">  1  4  2 -1</clus>
</clustering>
</event>
<event>
 6    1  0.9254630E-012  0.3000000E+03  0.7818608E-02  0.1093470E+00
          1   -1    0    0  502    0  0.00000000000E+00  0.00000000000E+00  0.22425896699E+03  0.22425896699E+03  0.00000000000E+00 0.  1.
         13   -1    0    0    0    0 -0.00000000000E+00 -0.00000000000E+00 -0.27500000000E+03  0.27500000000E+03  0.00000000000E+00 0.  1.
    9000005    2    1    2  501    0 -0.29900498622E+02 -0.13194421816E+02 -0.42008818630E+02  0.46543021955E+03  0.46237691967E+03 0.  0.
         13    1    3    3    0    0 -0.79722615915E+02 -0.78834716841E+02 -0.23236612289E+03  0.25800120763E+03  0.00000000000E+00 0.  1.
          3    1    3    3  501    0  0.49822117294E+02  0.65640295024E+02  0.19035730426E+03  0.20742901193E+03  0.00000000000E+00 0.  1.
         21    1    1    2  502  501  0.29900498622E+02  0.13194421816E+02 -0.87322143847E+01  0.33828747434E+02  0.00000000000E+00 0. -1.
<scales pt_clust_4="550.00000" pt_clust_5="550.00000" pt_clust_6="32.68231"></scales>
<mgrwt>
<rscale>  0 0.30000000E+03</rscale>
<asrwt>  1 0.32682314E+02</asrwt>
<pdfrwt beam="1">  1        1 0.81548715E+00 0.30000000E+03</pdfrwt>
<pdfrwt beam="2">0</pdfrwt>
<totfact> 0.79908057E-04</totfact>
</mgrwt>
<clustering>
<clus scale="   32.682">  1  6  2 -1</clus>
<clus scale="  462.377">  4  5 -1 -1</clus>
<clus scale="  300.000">  1  4  2 -1</clus>
</clustering>
</event>
<event>
 6    1  0.9254630E-012  0.3000000E+03  0.7818608E-02  0.1093470E+00
          1   -1    0    0  502    0  0.00000000000E+00  0.00000000000E+00  0.23364774146E+03  0.23364774146E+03  0.00000000000E+00 0.  1.
         13   -1    0    0    0    0 -0.00000000000E+00 -0.00000000000E+00 -0.27500000000E+03  0.27500000000E+03  0.00000000000E+00 0.  1.
    9000005    2    1    2  501    0  0.22598573187E+02  0.40337035394E+02 -0.46305262607E+02  0.46214715884E+03  0.45749103504E+03 0.  0.
         13    1    3    3    0    0 -0.20860648315E+03  0.73548137223E+02  0.11607967340E+02  0.22149658734E+03  0.00000000000E+00 0.  1.
          1    1    3    3  501    0  0.23120505633E+03 -0.33211101830E+02 -0.57913229947E+02  0.24065057150E+03  0.00000000000E+00 0.  1.
         21    1    1    2  502  501 -0.22598573187E+02 -0.40337035394E+02  0.49530040649E+01  0.46500582617E+02  0.00000000000E+00 0.  1.
<scales pt_clust_4="550.00000" pt_clust_5="550.00000" pt_clust_6="46.23605"></scales>
<mgrwt>
<rscale>  0 0.30000000E+03</rscale>
<asrwt>  1 0.46236046E+02</asrwt>
<pdfrwt beam="1">  1        1 0.84962815E+00 0.30000000E+03</pdfrwt>
<pdfrwt beam="2">0</pdfrwt>
<totfact> 0.38995475E-04</totfact>
</mgrwt>
<clustering>
<clus scale="   46.236">  1  6  2 -1</clus>
<clus scale="  457.491">  4  5 -1 -1</clus>
<clus scale="  300.000">  1  4  2 -1</clus>
</clustering>
</event>
<event>
 6    1  0.9254630E-012  0.3000000E+03  0.7818608E-02  0.1093470E+00
          1   -1    0    0  502    0  0.00000000000E+00  0.00000000000E+00  0.22186371411E+03  0.22186371411E+03  0.00000000000E+00 0.  1.
         13   -1    0    0    0    0 -0.00000000000E+00 -0.00000000000E+00 -0.27500000000E+03  0.27500000000E+03  0.00000000000E+00 0.  1.
    9000005    2    1    2  501    0 -0.34950653784E+02 -0.69675082076E+01 -0.50594555401E+02  0.46113480754E+03  0.45696324505E+03 0.  0.
         13    1    3    3    0    0  0.82801544736E+02 -0.17103707901E+03 -0.14420025788E+03  0.23854452955E+03  0.00000000000E+00 0.  1.
          1    1    3    3  501    0 -0.11775219852E+03  0.16406957080E+03  0.93605702478E+02  0.22259027799E+03  0.00000000000E+00 0.  1.
         21    1    1    2  502  501  0.34950653784E+02  0.69675082076E+01 -0.25417304883E+01  0.35728906566E+02  0.00000000000E+00 0.  1.
<scales pt_clust_4="550.00000" pt_clust_5="550.00000" pt_clust_6="35.63838"></scales>
<mgrwt>
<rscale>  0 0.30000000E+03</rscale>
<asrwt>  1 0.35638383E+02</asrwt>
<pdfrwt beam="1">  1        1 0.80677714E+00 0.30000000E+03</pdfrwt>
<pdfrwt beam="2">0</pdfrwt>
<totfact> 0.92052568E-04</totfact>
</mgrwt>
<clustering>
<clus scale="   35.638">  1  6  2 -1</clus>
<clus scale="  456.963">  4  5 -1 -1</clus>
<clus scale="  300.000">  1  4  2 -1</clus>
</clustering>
</event>
<event>
 6    1  0.9254630E-012  0.3000000E+03  0.7818608E-02  0.1093470E+00
          1   -1    0    0  502    0  0.00000000000E+00  0.00000000000E+00  0.23699870135E+03  0.23699870135E+03  0.00000000000E+00 0.  1.
         13   -1    0    0    0    0 -0.00000000000E+00 -0.00000000000E+00 -0.27500000000E+03  0.27500000000E+03  0.00000000000E+00 0.  1.
    9000005    2    1    2  501    0 -0.35537695588E+02  0.27619049485E+01 -0.49062262671E+02  0.47467711441E+03  0.47078732077E+03 0.  0.
         13    1    3    3    0    0 -0.20818095720E+03  0.10672638841E+03  0.65395562689E+02  0.24291235568E+03  0.00000000000E+00 0.  1.
          3    1    3    3  501    0  0.17264326161E+03 -0.10396448347E+03 -0.11445782536E+03  0.23176475873E+03  0.00000000000E+00 0.  1.
         21    1    1    2  502  501  0.35537695588E+02 -0.27619049485E+01  0.11060964024E+02  0.37321586941E+02  0.00000000000E+00 0.  1.
<scales pt_clust_4="550.00000" pt_clust_5="550.00000" pt_clust_6="35.64486"></scales>
<mgrwt>
<rscale>  0 0.30000000E+03</rscale>
<asrwt>  1 0.35644858E+02</asrwt>
<pdfrwt beam="1">  1        1 0.86181346E+00 0.30000000E+03</pdfrwt>
<pdfrwt beam="2">0</pdfrwt>
<totfact> 0.30822640E-04</totfact>
</mgrwt>
<clustering>
<clus scale="   35.645">  1  6  2 -1</clus>
<clus scale="  470.787">  4  5 -1 -1</clus>
<clus scale="  300.000">  1  4  2 -1</clus>
</clustering>
</event>
<event>
 6    1  0.9254630E-012  0.3000000E+03  0.7818608E-02  0.1093470E+00
          1   -1    0    0  502    0  0.00000000000E+00  0.00000000000E+00  0.23795797681E+03  0.23795797681E+03  0.00000000000E+00 0.  1.
         13   -1    0    0    0    0 -0.00000000000E+00 -0.00000000000E+00 -0.27500000000E+03  0.27500000000E+03  0.00000000000E+00 0.  1.
    9000005    2    1    2  501    0 -0.31030990438E+02 -0.71844313036E+01 -0.42878913654E+02  0.48057576393E+03  0.47759807916E+03 0.  0.
         13    1    3    3    0    0  0.11346971571E+03 -0.42101196793E+02  0.17744496626E+03  0.21478967202E+03  0.00000000000E+00 0.  1.
          3    1    3    3  501    0 -0.14450070615E+03  0.34916765490E+02 -0.22032387991E+03  0.26578609191E+03  0.00000000000E+00 0.  1.
         21    1    1    2  502  501  0.31030990438E+02  0.71844313036E+01  0.58368904589E+01  0.32382212879E+02  0.00000000000E+00 0. -1.
<scales pt_clust_4="550.00000" pt_clust_5="550.00000" pt_clust_6="31.85182"></scales>
<mgrwt>
<rscale>  0 0.30000000E+03</rscale>
<asrwt>  1 0.31851820E+02</asrwt>
<pdfrwt beam="1">  1        1 0.86530173E+00 0.30000000E+03</pdfrwt>
<pdfrwt beam="2">0</pdfrwt>
<totfact> 0.28866377E-04</totfact>
</mgrwt>
<clustering>
<clus scale="   31.852">  1  6  2 -1</clus>
<clus scale="  477.598">  4  5 -1 -1</clus>
<clus scale="  300.000">  1  4  2 -1</clus>
</clustering>
</event>
<event>
 6    1  0.9254630E-012  0.3000000E+03  0.7818608E-02  0.1093470E+00
          1   -1    0    0  502    0  0.00000000000E+00  0.00000000000E+00  0.23432340189E+03  0.23432340189E+03  0.00000000000E+00 0.  1.
         13   -1    0    0    0    0 -0.00000000000E+00 -0.00000000000E+00 -0.27500000000E+03  0.27500000000E+03  0.00000000000E+00 0.  1.
    9000005    2    1    2  501    0  0.36386333004E+02 -0.12514192883E+02 -0.49858981482E+02  0.46976475660E+03  0.46552383210E+03 0.  0.
         13    1    3    3    0    0  0.73601110196E+02 -0.22568713001E+03  0.29636207806E+02  0.23922815237E+03  0.00000000000E+00 0.  1.
          3    1    3    3  501    0 -0.37214777192E+02  0.21317293713E+03 -0.79495189288E+02  0.23053660422E+03  0.00000000000E+00 0.  1.
         21    1    1    2  502  501 -0.36386333004E+02  0.12514192883E+02  0.91823833683E+01  0.39558645292E+02  0.00000000000E+00 0.  1.
<scales pt_clust_4="550.00000" pt_clust_5="550.00000" pt_clust_6="38.47818"></scales>
<mgrwt>
<rscale>  0 0.30000000E+03</rscale>
<asrwt>  1 0.38478179E+02</asrwt>
<pdfrwt beam="1">  1        1 0.85208510E+00 0.30000000E+03</pdfrwt>
<pdfrwt beam="2">0</pdfrwt>
<totfact> 0.38209436E-04</totfact>
</mgrwt>
<clustering>
<clus scale="   38.478">  1  6  2 -1</clus>
<clus scale="  465.524">  4  5 -1 -1</clus>
<clus scale="  300.000">  1  4  2 -1</clus>
</clustering>
</event>
<event>
 6    1  0.9254630E-012  0.3000000E+03  0.7818608E-02  0.1093470E+00
          1   -1    0    0  502    0  0.00000000000E+00  0.00000000000E+00  0.25158811884E+03  0.25158811884E+03  0.00000000000E+00 0.  1.
         13   -1    0    0    0    0 -0.00000000000E+00 -0.00000000000E+00 -0.27500000000E+03  0.27500000000E+03  0.00000000000E+00 0.  1.
    9000005    2    1    2  501    0  0.16399696907E+02 -0.27298123428E+02 -0.39462338271E+02  0.49092644789E+03  0.48830048484E+03 0.  0.
         13    1    3    3    0    0 -0.12281941834E+03 -0.27537356750E+02  0.18680872156E+03  0.22525632952E+03  0.00000000000E+00 0.  1.
          3    1    3    3  501    0  0.13921911524E+03  0.23923332283E+00 -0.22627105983E+03  0.26567011838E+03  0.00000000000E+00 0.  1.
         21    1    1    2  502  501 -0.16399696907E+02  0.27298123428E+02  0.16050457115E+02  0.35661670949E+02  0.00000000000E+00 0. -1.
<scales pt_clust_4="550.00000" pt_clust_5="550.00000" pt_clust_6="31.84553"></scales>
<mgrwt>
<rscale>  0 0.30000000E+03</rscale>
<asrwt>  1 0.31845527E+02</asrwt>
<pdfrwt beam="1">  1        1 0.91486589E+00 0.30000000E+03</pdfrwt>
<pdfrwt beam="2">0</pdfrwt>
<totfact> 0.55517108E-05</totfact>
</mgrwt>
<clustering>
<clus scale="   31.846">  1  6  2 -1</clus>
<clus scale="  488.300">  4  5 -1 -1</clus>
<clus scale="  300.000">  1  4  2 -1</clus>
</clustering>
</event>
<event>
 6    1  0.9254630E-012  0.3000000E+03  0.7818608E-02  0.1093470E+00
          1   -1    0    0  502    0  0.00000000000E+00  0.00000000000E+00  0.23478574161E+03  0.23478574161E+03  0.00000000000E+00 0.  1.
         13   -1    0    0    0    0 -0.00000000000E+00 -0.00000000000E+00 -0.27500000000E+03  0.27500000000E+03  0.00000000000E+00 0.  1.
    9000005    2    1    2  501    0  0.32540854099E+02  0.17375550295E+02 -0.41946488712E+02  0.47285584105E+03  0.46954480251E+03 0.  0.
         13    1    3    3    0    0  0.91637329136E+02 -0.19031854624E+03  0.78800941040E+02  0.22545096461E+03  0.00000000000E+00 0.  1.
          3    1    3    3  501    0 -0.59096475037E+02  0.20769409653E+03 -0.12074742975E+03  0.24740487644E+03  0.00000000000E+00 0.  1.
         21    1    1    2  502  501 -0.32540854099E+02 -0.17375550295E+02  0.17322303207E+01  0.36929900561E+02  0.00000000000E+00 0.  1.
<scales pt_clust_4="550.00000" pt_clust_5="550.00000" pt_clust_6="36.88925"></scales>
<mgrwt>
<rscale>  0 0.30000000E+03</rscale>
<asrwt>  1 0.36889252E+02</asrwt>
<pdfrwt beam="1">  1        1 0.85376633E+00 0.30000000E+03</pdfrwt>
<pdfrwt beam="2">0</pdfrwt>
<totfact> 0.37096640E-04</totfact>
</mgrwt>
<clustering>
<clus scale="   36.889">  1  6  2 -1</clus>
<clus scale="  469.545">  4  5 -1 -1</clus>
<clus scale="  300.000">  1  4  2 -1</clus>
</clustering>
</event>
<event>
 6    1  0.9254630E-012  0.3000000E+03  0.7818608E-02  0.1093470E+00
          1   -1    0    0  502    0  0.00000000000E+00  0.00000000000E+00  0.23625629090E+03  0.23625629090E+03  0.00000000000E+00 0.  1.
         13   -1    0    0    0    0 -0.00000000000E+00 -0.00000000000E+00 -0.27500000000E+03  0.27500000000E+03  0.00000000000E+00 0.  1.
    9000005    2    1    2  501    0  0.31915191264E+02  0.41016023334E+01 -0.63737597067E+02  0.47051200282E+03  0.46506307201E+03 0.  0.
         13    1    3    3    0    0 -0.14272090571E+03  0.10269134034E+03 -0.16912530662E+03  0.24396339407E+03  0.00000000000E+00 0.  1.
          3    1    3    3  501    0  0.17463609697E+03 -0.98589738002E+02  0.10538770955E+03  0.22654860876E+03  0.00000000000E+00 0.  1.
         21    1    1    2  502  501 -0.31915191264E+02 -0.41016023334E+01  0.24993887962E+02  0.40744288073E+02  0.00000000000E+00 0.  1.
<scales pt_clust_4="550.00000" pt_clust_5="550.00000" pt_clust_6="32.17767"></scales>
<mgrwt>
<rscale>  0 0.30000000E+03</rscale>
<asrwt>  1 0.32177672E+02</asrwt>
<pdfrwt beam="1">  1        1 0.85911379E+00 0.30000000E+03</pdfrwt>
<pdfrwt beam="2">0</pdfrwt>
<totfact> 0.33583234E-04</totfact>
</mgrwt>
<clustering>
<clus scale="   32.178">  1  6  2 -1</clus>
<clus scale="  465.063">  4  5 -1 -1</clus>
<clus scale="  300.000">  1  4  2 -1</clus>
</clustering>
</event>
<event>
 6    1  0.9254630E-012  0.3000000E+03  0.7818608E-02  0.1093470E+00
          1   -1    0    0  502    0  0.00000000000E+00  0.00000000000E+00  0.22334105423E+03  0.22334105423E+03  0.00000000000E+00 0.  1.
         13   -1    0    0    0    0 -0.00000000000E+00 -0.00000000000E+00 -0.27500000000E+03  0.27500000000E+03  0.00000000000E+00 0.  1.
    9000005    2    1    2  501    0 -0.69324776642E+01  0.31453113936E+02 -0.60162542646E+02  0.46502936285E+03  0.45999502079E+03 0.  0.
         13    1    3    3    0    0 -0.73530470821E+01  0.17056636251E+02 -0.26201058968E+03  0.26266812758E+03  0.00000000000E+00 0.  1.
          1    1    3    3  501    0  0.42056941787E+00  0.14396477685E+02  0.20184804703E+03  0.20236123527E+03  0.00000000000E+00 0.  1.
         21    1    1    2  502  501  0.69324776642E+01 -0.31453113936E+02  0.85035968765E+01  0.33311691381E+02  0.00000000000E+00 0.  1.
<scales pt_clust_4="550.00000" pt_clust_5="550.00000" pt_clust_6="32.20804"></scales>
<mgrwt>
<rscale>  0 0.30000000E+03</rscale>
<asrwt>  1 0.32208037E+02</asrwt>
<pdfrwt beam="1">  1        1 0.81214929E+00 0.30000000E+03</pdfrwt>
<pdfrwt beam="2">0</pdfrwt>
<totfact> 0.85216049E-04</totfact>
</mgrwt>
<clustering>
<clus scale="   32.208">  1  6  2 -1</clus>
<clus scale="  459.995">  4  5 -1 -1</clus>
<clus scale="  300.000">  1  4  2 -1</clus>
</clustering>
</event>
<event>
 6    1  0.9254630E-012  0.3000000E+03  0.7818608E-02  0.1093470E+00
          1   -1    0    0  502    0  0.00000000000E+00  0.00000000000E+00  0.22301896372E+03  0.22301896372E+03  0.00000000000E+00 0.  1.
         13   -1    0    0    0    0 -0.00000000000E+00 -0.00000000000E+00 -0.27500000000E+03  0.27500000000E+03  0.00000000000E+00 0.  1.
    9000005    2    1    2  501    0  0.34184911015E+02 -0.11656194277E+02 -0.42909879349E+02  0.46077972508E+03  0.45735349818E+03 0.  0.
         13    1    3    3    0    0  0.65456957461E+02 -0.75884904223E+02 -0.23519374482E+03  0.25565451213E+03  0.00000000000E+00 0.  1.
          3    1    3    3  501    0 -0.31272046446E+02  0.64228709945E+02  0.19228386547E+03  0.20512521296E+03  0.00000000000E+00 0.  1.
         21    1    1    2  502  501 -0.34184911015E+02  0.11656194277E+02 -0.90711569307E+01  0.37239238636E+02  0.00000000000E+00 0.  1.
<scales pt_clust_4="550.00000" pt_clust_5="550.00000" pt_clust_6="36.11753"></scales>
<mgrwt>
<rscale>  0 0.30000000E+03</rscale>
<asrwt>  1 0.36117535E+02</asrwt>
<pdfrwt beam="1">  1        1 0.81097805E+00 0.30000000E+03</pdfrwt>
<pdfrwt beam="2">0</pdfrwt>
<totfact> 0.85191181E-04</totfact>
</mgrwt>
<clustering>
<clus scale="   36.118">  1  6  2 -1</clus>
<clus scale="  457.353">  4  5 -1 -1</clus>
<clus scale="  300.000">  1  4  2 -1</clus>
</clustering>
</event>
<event>
 6    1  0.9254630E-012  0.3000000E+03  0.7818608E-02  0.1093470E+00
          1   -1    0    0  502    0  0.00000000000E+00  0.00000000000E+00  0.23649875920E+03  0.23649875920E+03  0.00000000000E+00 0.  1.
         13   -1    0    0    0    0 -0.00000000000E+00 -0.00000000000E+00 -0.27500000000E+03  0.27500000000E+03  0.00000000000E+00 0.  1.
    9000005    2    1    2  501    0  0.15090319050E+02 -0.26938285596E+02 -0.70328637323E+02  0.46715496449E+03  0.46079741173E+03 0.  0.
         13    1    3    3    0    0 -0.99642534102E+01 -0.16030511707E+03 -0.21528212807E+03  0.26859525605E+03  0.00000000000E+00 0.  1.
          1    1    3    3  501    0  0.25054572460E+02  0.13336683147E+03  0.14495349075E+03  0.19855970844E+03  0.00000000000E+00 0.  1.
         21    1    1    2  502  501 -0.15090319050E+02  0.26938285596E+02  0.31827396523E+02  0.44343794710E+02  0.00000000000E+00 0.  1.
<scales pt_clust_4="550.00000" pt_clust_5="550.00000" pt_clust_6="30.87700"></scales>
<mgrwt>
<rscale>  0 0.30000000E+03</rscale>
<asrwt>  1 0.30876997E+02</asrwt>
<pdfrwt beam="1">  1        1 0.85999549E+00 0.30000000E+03</pdfrwt>
<pdfrwt beam="2">0</pdfrwt>
<totfact> 0.33126420E-04</totfact>
</mgrwt>
<clustering>
<clus scale="   30.877">  1  6  2 -1</clus>
<clus scale="  460.797">  4  5 -1 -1</clus>
<clus scale="  300.000">  1  4  2 -1</clus>
</clustering>
</event>
<event>
 6    1  0.9254630E-012  0.3000000E+03  0.7818608E-02  0.1093470E+00
          1   -1    0    0  502    0  0.00000000000E+00  0.00000000000E+00  0.23773930851E+03  0.23773930851E+03  0.00000000000E+00 0.  1.
         13   -1    0    0    0    0 -0.00000000000E+00 -0.00000000000E+00 -0.27500000000E+03  0.27500000000E+03  0.00000000000E+00 0.  1.
    9000005    2    1    2  501    0 -0.76667372814E+01  0.30850267275E+02 -0.70972582128E+02  0.46640347549E+03  0.45987452276E+03 0.  0.
         13    1    3    3    0    0  0.21849910573E+03  0.68156473017E+02 -0.61430813952E+02  0.23698292960E+03  0.00000000000E+00 0.  1.
          3    1    3    3  501    0 -0.22616584302E+03 -0.37306205742E+02 -0.95417681761E+01  0.22942054588E+03  0.00000000000E+00 0.  1.
         21    1    1    2  502  501  0.76667372814E+01 -0.30850267275E+02  0.33711890635E+02  0.46335833020E+02  0.00000000000E+00 0. -1.
<scales pt_clust_4="550.00000" pt_clust_5="550.00000" pt_clust_6="31.78864"></scales>
<mgrwt>
<rscale>  0 0.30000000E+03</rscale>
<asrwt>  1 0.31788643E+02</asrwt>
<pdfrwt beam="1">  1        1 0.86450658E+00 0.30000000E+03</pdfrwt>
<pdfrwt beam="2">0</pdfrwt>
<totfact> 0.29452136E-04</totfact>
</mgrwt>
<clustering>
<clus scale="   31.789">  1  6  2 -1</clus>
<clus scale="  459.875">  4  5 -1 -1</clus>
<clus scale="  300.000">  1  4  2 -1</clus>
</clustering>
</event>
<event>
 6    1  0.9254630E-012  0.3000000E+03  0.7818608E-02  0.1093470E+00
          1   -1    0    0  502    0  0.00000000000E+00  0.00000000000E+00  0.23386474809E+03  0.23386474809E+03  0.00000000000E+00 0.  1.
         13   -1    0    0    0    0 -0.00000000000E+00 -0.00000000000E+00 -0.27500000000E+03  0.27500000000E+03  0.00000000000E+00 0.  1.
    9000005    2    1    2  501    0 -0.39370971430E+02 -0.69569615489E+01 -0.54466614241E+02  0.46671978484E+03  0.46180328365E+03 0.  0.
         13    1    3    3    0    0 -0.24609148679E+03 -0.57812219551E+01 -0.79046562103E+02  0.25853974816E+03  0.00000000000E+00 0.  1.
          1    1    3    3  501    0  0.20672051536E+03 -0.11757395937E+01  0.24579947862E+02  0.20818003668E+03  0.00000000000E+00 0.  1.
         21    1    1    2  502  501  0.39370971430E+02  0.69569615489E+01  0.13331362326E+02  0.42144963243E+02  0.00000000000E+00 0.  1.
<scales pt_clust_4="550.00000" pt_clust_5="550.00000" pt_clust_6="39.98090"></scales>
<mgrwt>
<rscale>  0 0.30000000E+03</rscale>
<asrwt>  1 0.39980904E+02</asrwt>
<pdfrwt beam="1">  1        1 0.85041727E+00 0.30000000E+03</pdfrwt>
<pdfrwt beam="2">0</pdfrwt>
<totfact> 0.39353138E-04</totfact>
</mgrwt>
<clustering>
<clus scale="   39.981">  1  6  2 -1</clus>
<clus scale="  461.803">  4  5 -1 -1</clus>
<clus scale="  300.000">  1  4  2 -1</clus>
</clustering>
</event>
<event>
 6    1  0.9254630E-012  0.3000000E+03  0.7818608E-02  0.1093470E+00
          1   -1    0    0  502    0  0.00000000000E+00  0.00000000000E+00  0.24793295164E+03  0.24793295164E+03  0.00000000000E+00 0.  1.
         13   -1    0    0    0    0 -0.00000000000E+00 -0.00000000000E+00 -0.27500000000E+03  0.27500000000E+03  0.00000000000E+00 0.  1.
    9000005    2    1    2  501    0 -0.23342613564E+02  0.23108439268E+02 -0.40388766643E+02  0.48748798371E+03  0.48470032414E+03 0.  0.
         13    1    3    3    0    0 -0.67524452847E+02  0.16262868115E+03 -0.20299090515E+03  0.26872466809E+03  0.00000000000E+00 0.  1.
          1    1    3    3  501    0  0.44181839282E+02 -0.13952024188E+03  0.16260213851E+03  0.21876331563E+03  0.00000000000E+00 0.  1.
         21    1    1    2  502  501  0.23342613564E+02 -0.23108439268E+02  0.13321718282E+02  0.35444967927E+02  0.00000000000E+00 0. -1.
<scales pt_clust_4="550.00000" pt_clust_5="550.00000" pt_clust_6="32.84627"></scales>
<mgrwt>
<rscale>  0 0.30000000E+03</rscale>
<asrwt>  1 0.32846272E+02</asrwt>
<pdfrwt beam="1">  1        1 0.90157437E+00 0.30000000E+03</pdfrwt>
<pdfrwt beam="2">0</pdfrwt>
<totfact> 0.10652718E-04</totfact>
</mgrwt>
<clustering>
<clus scale="   32.846">  1  6  2 -1</clus>
<clus scale="  484.700">  4  5 -1 -1</clus>
<clus scale="  300.000">  1  4  2 -1</clus>
</clustering>
</event>
<event>
 6    1  0.9254630E-012  0.3000000E+03  0.7818608E-02  0.1093470E+00
          1   -1    0    0  502    0  0.00000000000E+00  0.00000000000E+00  0.23550437376E+03  0.23550437376E+03  0.00000000000E+00 0.  1.
         13   -1    0    0    0    0 -0.00000000000E+00 -0.00000000000E+00 -0.27500000000E+03  0.27500000000E+03  0.00000000000E+00 0.  1.
    9000005    2    1    2  501    0 -0.21854263796E+02 -0.23368015060E+02 -0.73912131340E+02  0.46351321717E+03  0.45646229457E+03 0.  0.
         13    1    3    3    0    0  0.10125966511E+03  0.10480395495E+03 -0.19865939868E+03  0.24637967740E+03  0.00000000000E+00 0.  1.
          1    1    3    3  501    0 -0.12311392890E+03 -0.12817197001E+03  0.12474726734E+03  0.21713353978E+03  0.00000000000E+00 0.  1.
         21    1    1    2  502  501  0.21854263796E+02  0.23368015060E+02  0.34416505095E+02  0.46991156581E+02  0.00000000000E+00 0. -1.
<scales pt_clust_4="550.00000" pt_clust_5="550.00000" pt_clust_6="31.99489"></scales>
<mgrwt>
<rscale>  0 0.30000000E+03</rscale>
<asrwt>  1 0.31994890E+02</asrwt>
<pdfrwt beam="1">  1        1 0.85637954E+00 0.30000000E+03</pdfrwt>
<pdfrwt beam="2">0</pdfrwt>
<totfact> 0.35891779E-04</totfact>
</mgrwt>
<clustering>
<clus scale="   31.995">  1  6  2 -1</clus>
<clus scale="  456.462">  4  5 -1 -1</clus>
<clus scale="  300.000">  1  4  2 -1</clus>
</clustering>
</event>
<event>
 6    1  0.9254630E-012  0.3000000E+03  0.7818608E-02  0.1093470E+00
          1   -1    0    0  502    0  0.00000000000E+00  0.00000000000E+00  0.24065482276E+03  0.24065482276E+03  0.00000000000E+00 0.  1.
         13   -1    0    0    0    0 -0.00000000000E+00 -0.00000000000E+00 -0.27500000000E+03  0.27500000000E+03  0.00000000000E+00 0.  1.
    9000005    2    1    2  501    0 -0.32667527228E+02  0.12527101549E+02 -0.53519997527E+02  0.47575783865E+03  0.47144144418E+03 0.  0.
         13    1    3    3    0    0  0.13214227145E+01  0.23187409125E+03  0.39268213744E+02  0.23517936338E+03  0.00000000000E+00 0.  1.
          3    1    3    3  501    0 -0.33988949942E+02 -0.21934698970E+03 -0.92788211271E+02  0.24057847526E+03  0.00000000000E+00 0.  1.
         21    1    1    2  502  501  0.32667527228E+02 -0.12527101549E+02  0.19174820286E+02  0.39896984114E+02  0.00000000000E+00 0.  1.
<scales pt_clust_4="550.00000" pt_clust_5="550.00000" pt_clust_6="34.98708"></scales>
<mgrwt>
<rscale>  0 0.30000000E+03</rscale>
<asrwt>  1 0.34987078E+02</asrwt>
<pdfrwt beam="1">  1        1 0.87510845E+00 0.30000000E+03</pdfrwt>
<pdfrwt beam="2">0</pdfrwt>
<totfact> 0.22434885E-04</totfact>
</mgrwt>
<clustering>
<clus scale="   34.987">  1  6  2 -1</clus>
<clus scale="  471.441">  4  5 -1 -1</clus>
<clus scale="  300.000">  1  4  2 -1</clus>
</clustering>
</event>
<event>
 6    1  0.9254630E-012  0.3000000E+03  0.7818608E-02  0.1093470E+00
          1   -1    0    0  502    0  0.00000000000E+00  0.00000000000E+00  0.22460522921E+03  0.22460522921E+03  0.00000000000E+00 0.  1.
         13   -1    0    0    0    0 -0.00000000000E+00 -0.00000000000E+00 -0.27500000000E+03  0.27500000000E+03  0.00000000000E+00 0.  1.
    9000005    2    1    2  501    0  0.31230543727E+02  0.13815062489E+02 -0.61152209646E+02  0.46380124474E+03  0.45848205970E+03 0.  0.
         13    1    3    3    0    0  0.19045589972E+03 -0.14140552029E+03 -0.25142936723E+02  0.23853959456E+03  0.00000000000E+00 0.  1.
          1    1    3    3  501    0 -0.15922535599E+03  0.15522058278E+03 -0.36009272923E+02  0.22526165019E+03  0.00000000000E+00 0.  1.
         21    1    1    2  502  501 -0.31230543727E+02 -0.13815062489E+02  0.10757438859E+02  0.35803984469E+02  0.00000000000E+00 0.  1.
<scales pt_clust_4="550.00000" pt_clust_5="550.00000" pt_clust_6="34.14971"></scales>
<mgrwt>
<rscale>  0 0.30000000E+03</rscale>
<asrwt>  1 0.34149712E+02</asrwt>
<pdfrwt beam="1">  1        1 0.81674629E+00 0.30000000E+03</pdfrwt>
<pdfrwt beam="2">0</pdfrwt>
<totfact> 0.77395129E-04</totfact>
</mgrwt>
<clustering>
<clus scale="   34.150">  1  6  2 -1</clus>
<clus scale="  458.482">  4  5 -1 -1</clus>
<clus scale="  300.000">  1  4  2 -1</clus>
</clustering>
</event>
<event>
 6    1  0.9254630E-012  0.3000000E+03  0.7818608E-02  0.1093470E+00
          1   -1    0    0  502    0  0.00000000000E+00  0.00000000000E+00  0.25039513142E+03  0.25039513142E+03  0.00000000000E+00 0.  1.
         13   -1    0    0    0    0 -0.00000000000E+00 -0.00000000000E+00 -0.27500000000E+03  0.27500000000E+03  0.00000000000E+00 0.  1.
    9000005    2    1    2  501    0  0.13622745735E+01 -0.33309288328E+02 -0.44365472803E+02  0.48664147404E+03  0.48346692193E+03 0.  0.
         13    1    3    3    0    0 -0.20571564062E+03  0.32437315668E+02 -0.13824108680E+03  0.24996340197E+03  0.00000000000E+00 0.  1.
          1    1    3    3  501    0  0.20707791519E+03 -0.65746603995E+02  0.93875613999E+02  0.23667807207E+03  0.00000000000E+00 0.  1.
         21    1    1    2  502  501 -0.13622745735E+01  0.33309288328E+02  0.19760604222E+02  0.38753657377E+02  0.00000000000E+00 0.  1.
<scales pt_clust_4="550.00000" pt_clust_5="550.00000" pt_clust_6="33.33713"></scales>
<mgrwt>
<rscale>  0 0.30000000E+03</rscale>
<asrwt>  1 0.33337134E+02</asrwt>
<pdfrwt beam="1">  1        1 0.91052775E+00 0.30000000E+03</pdfrwt>
<pdfrwt beam="2">0</pdfrwt>
<totfact> 0.70393842E-05</totfact>
</mgrwt>
<clustering>
<clus scale="   33.337">  1  6  2 -1</clus>
<clus scale="  483.467">  4  5 -1 -1</clus>
<clus scale="  300.000">  1  4  2 -1</clus>
</clustering>
</event>
<event>
 6    1  0.9254630E-012  0.3000000E+03  0.7818608E-02  0.1093470E+00
          1   -1    0    0  502    0  0.00000000000E+00  0.00000000000E+00  0.23456661378E+03  0.23456661378E+03  0.00000000000E+00 0.  1.
         13   -1    0    0    0    0 -0.00000000000E+00 -0.00000000000E+00 -0.27500000000E+03  0.27500000000E+03  0.00000000000E+00 0.  1.
    9000005    2    1    2  501    0 -0.36712782138E+02 -0.22989830640E+02 -0.49203515708E+02  0.46537073324E+03  0.46073047731E+03 0.  0.
         13    1    3    3    0    0 -0.44084121664E+02  0.20575824568E+03  0.49428889386E+02  0.21615522329E+03  0.00000000000E+00 0.  1.
          3    1    3    3  501    0  0.73713395263E+01 -0.22874807632E+03 -0.98632405094E+02  0.24921550996E+03  0.00000000000E+00 0.  1.
         21    1    1    2  502  501  0.36712782138E+02  0.22989830640E+02  0.87701294890E+01  0.44195880537E+02  0.00000000000E+00 0.  1.
<scales pt_clust_4="550.00000" pt_clust_5="550.00000" pt_clust_6="43.31698"></scales>
<mgrwt>
<rscale>  0 0.30000000E+03</rscale>
<asrwt>  1 0.43316979E+02</asrwt>
<pdfrwt beam="1">  1        1 0.85296950E+00 0.30000000E+03</pdfrwt>
<pdfrwt beam="2">0</pdfrwt>
<totfact> 0.36670324E-04</totfact>
</mgrwt>
<clustering>
<clus scale="   43.317">  1  6  2 -1</clus>
<clus scale="  460.730">  4  5 -1 -1</clus>
<clus scale="  300.000">  1  4  2 -1</clus>
</clustering>
</event>
<event>
 6    1  0.9254630E-012  0.3000000E+03  0.7818608E-02  0.1093470E+00
          1   -1    0    0  502    0  0.00000000000E+00  0.00000000000E+00  0.23343767440E+03  0.23343767440E+03  0.00000000000E+00 0.  1.
         13   -1    0    0    0    0 -0.00000000000E+00 -0.00000000000E+00 -0.27500000000E+03  0.27500000000E+03  0.00000000000E+00 0.  1.
    9000005    2    1    2  501    0 -0.38301511681E+02 -0.12188392122E+02 -0.40934489887E+02  0.46823870828E+03  0.46471097767E+03 0.  0.
         13    1    3    3    0    0  0.10214101715E+03  0.19255869967E+03 -0.12483041933E+02  0.21832880373E+03  0.00000000000E+00 0.  1.
          1    1    3    3  501    0 -0.14044252883E+03 -0.20474709179E+03 -0.28451447954E+02  0.24990990455E+03  0.00000000000E+00 0.  1.
         21    1    1    2  502  501  0.38301511681E+02  0.12188392122E+02 -0.62783571034E+00  0.40198966121E+02  0.00000000000E+00 0. -1.
<scales pt_clust_4="550.00000" pt_clust_5="550.00000" pt_clust_6="40.19406"></scales>
<mgrwt>
<rscale>  0 0.30000000E+03</rscale>
<asrwt>  1 0.40194063E+02</asrwt>
<pdfrwt beam="1">  1        1 0.84886427E+00 0.30000000E+03</pdfrwt>
<pdfrwt beam="2">0</pdfrwt>
<totfact> 0.40650683E-04</totfact>
</mgrwt>
<clustering>
<clus scale="   40.194">  1  6  2 -1</clus>
<clus scale="  464.711">  4  5 -1 -1</clus>
<clus scale="  300.000">  1  4  2 -1</clus>
</clustering>
</event>
<event>
 6    1  0.9254630E-012  0.3000000E+03  0.7818608E-02  0.1093470E+00
          1   -1    0    0  502    0  0.00000000000E+00  0.00000000000E+00  0.21950210242E+03  0.21950210242E+03  0.00000000000E+00 0.  1.
         13   -1    0    0    0    0 -0.00000000000E+00 -0.00000000000E+00 -0.27500000000E+03  0.27500000000E+03  0.00000000000E+00 0.  1.
    9000005    2    1    2  501    0 -0.16294998277E+02 -0.28833319452E+02 -0.46215761499E+02  0.46010667643E+03  0.45658008038E+03 0.  0.
         13    1    3    3    0    0 -0.13692916477E+03 -0.13491695119E+03  0.12186558578E+03  0.22760360472E+03  0.00000000000E+00 0.  1.
          1    1    3    3  501    0  0.12063416650E+03  0.10608363174E+03 -0.16808134728E+03  0.23250307171E+03  0.00000000000E+00 0.  1.
         21    1    1    2  502  501  0.16294998277E+02  0.28833319452E+02 -0.92821360763E+01  0.34395425998E+02  0.00000000000E+00 0.  1.
<scales pt_clust_4="550.00000" pt_clust_5="550.00000" pt_clust_6="33.11931"></scales>
<mgrwt>
<rscale>  0 0.30000000E+03</rscale>
<asrwt>  1 0.33119305E+02</asrwt>
<pdfrwt beam="1">  1        1 0.79818946E+00 0.30000000E+03</pdfrwt>
<pdfrwt beam="2">0</pdfrwt>
<totfact> 0.10799592E-03</totfact>
</mgrwt>
<clustering>
<clus scale="   33.119">  1  6  2 -1</clus>
<clus scale="  456.580">  4  5 -1 -1</clus>
<clus scale="  300.000">  1  4  2 -1</clus>
</clustering>
</event>
<event>
 6    1  0.9254630E-012  0.3000000E+03  0.7818608E-02  0.1093470E+00
          1   -1    0    0  502    0  0.00000000000E+00  0.00000000000E+00  0.22303913957E+03  0.22303913957E+03  0.00000000000E+00 0.  1.
         13   -1    0    0    0    0 -0.00000000000E+00 -0.00000000000E+00 -0.27500000000E+03  0.27500000000E+03  0.00000000000E+00 0.  1.
    9000005    2    1    2  501    0 -0.19872433483E+02 -0.25308742036E+02 -0.63758004431E+02  0.46376642969E+03  0.45823440742E+03 0.  0.
         13    1    3    3    0    0 -0.64736450490E+02 -0.93830884682E+02  0.17639886050E+03  0.21002761944E+03  0.00000000000E+00 0.  1.
          3    1    3    3  501    0  0.44864017007E+02  0.68522142646E+02 -0.24015686493E+03  0.25373881025E+03  0.00000000000E+00 0.  1.
         21    1    1    2  502  501  0.19872433483E+02  0.25308742036E+02  0.11797143999E+02  0.34272709880E+02  0.00000000000E+00 0.  1.
<scales pt_clust_4="550.00000" pt_clust_5="550.00000" pt_clust_6="32.17835"></scales>
<mgrwt>
<rscale>  0 0.30000000E+03</rscale>
<asrwt>  1 0.32178347E+02</asrwt>
<pdfrwt beam="1">  1        1 0.81105142E+00 0.30000000E+03</pdfrwt>
<pdfrwt beam="2">0</pdfrwt>
<totfact> 0.86945120E-04</totfact>
</mgrwt>
<clustering>
<clus scale="   32.178">  1  6  2 -1</clus>
<clus scale="  458.234">  4  5 -1 -1</clus>
<clus scale="  300.000">  1  4  2 -1</clus>
</clustering>
</event>
<event>
 6    1  0.9254630E-012  0.3000000E+03  0.7818608E-02  0.1093470E+00
          1   -1    0    0  502    0  0.00000000000E+00  0.00000000000E+00  0.23826827426E+03  0.23826827426E+03  0.00000000000E+00 0.  1.
         13   -1    0    0    0    0 -0.00000000000E+00 -0.00000000000E+00 -0.27500000000E+03  0.27500000000E+03  0.00000000000E+00 0.  1.
    9000005    2    1    2  501    0 -0.34245774059E+02  0.15691240372E+01 -0.27333786384E+02  0.47772173498E+03  0.47570546034E+03 0.  0.
         13    1    3    3    0    0  0.19541621717E+01 -0.21388172689E+03  0.87278486639E+02  0.23101243706E+03  0.00000000000E+00 0.  1.
          3    1    3    3  501    0 -0.36199936231E+02  0.21545085093E+03 -0.11461227302E+03  0.24670929791E+03  0.00000000000E+00 0.  1.
         21    1    1    2  502  501  0.34245774059E+02 -0.15691240372E+01 -0.93979393533E+01  0.35546539287E+02  0.00000000000E+00 0. -1.
<scales pt_clust_4="550.00000" pt_clust_5="550.00000" pt_clust_6="34.28172"></scales>
<mgrwt>
<rscale>  0 0.30000000E+03</rscale>
<asrwt>  1 0.34281721E+02</asrwt>
<pdfrwt beam="1">  1        1 0.86643009E+00 0.30000000E+03</pdfrwt>
<pdfrwt beam="2">0</pdfrwt>
<totfact> 0.27688829E-04</totfact>
</mgrwt>
<clustering>
<clus scale="   34.282">  1  6  2 -1</clus>
<clus scale="  475.705">  4  5 -1 -1</clus>
<clus scale="  300.000">  1  4  2 -1</clus>
</clustering>
</event>
<event>
 6    1  0.9254630E-012  0.3000000E+03  0.7818608E-02  0.1093470E+00
          1   -1    0    0  502    0  0.00000000000E+00  0.00000000000E+00  0.26593017957E+03  0.26593017957E+03  0.00000000000E+00 0.  1.
         13   -1    0    0    0    0 -0.00000000000E+00 -0.00000000000E+00 -0.27500000000E+03  0.27500000000E+03  0.00000000000E+00 0.  1.
    9000005    2    1    2  501    0 -0.46410611822E+02  0.12027956874E+02 -0.33766542561E+02  0.48699925412E+03  0.48345576579E+03 0.  0.
         13    1    3    3    0    0 -0.73995369383E+02  0.16971778536E+03 -0.18859815982E+03  0.26428906001E+03  0.00000000000E+00 0.  1.
          1    1    3    3  501    0  0.27584757561E+02 -0.15768982848E+03  0.15483161725E+03  0.22271019410E+03  0.00000000000E+00 0.  1.
         21    1    1    2  502  501  0.46410611822E+02 -0.12027956874E+02  0.24696722129E+02  0.53930925452E+02  0.00000000000E+00 0.  1.
<scales pt_clust_4="550.00000" pt_clust_5="550.00000" pt_clust_6="47.94389"></scales>
<mgrwt>
<rscale>  0 0.30000000E+03</rscale>
<asrwt>  1 0.47943890E+02</asrwt>
<pdfrwt beam="1">  1        1 0.96701883E+00 0.30000000E+03</pdfrwt>
<pdfrwt beam="2">0</pdfrwt>
<totfact> 0.51867149E-06</totfact>
</mgrwt>
<clustering>
<clus scale="   47.944">  1  6  2 -1</clus>
<clus scale="  483.456">  4  5 -1 -1</clus>
<clus scale="  300.000">  1  4  2 -1</clus>
</clustering>
</event>
<event>
 6    1  0.9254630E-012  0.3000000E+03  0.7818608E-02  0.1093470E+00
          1   -1    0    0  502    0  0.00000000000E+00  0.00000000000E+00  0.22945623578E+03  0.22945623578E+03  0.00000000000E+00 0.  1.
         13   -1    0    0    0    0 -0.00000000000E+00 -0.00000000000E+00 -0.27500000000E+03  0.27500000000E+03  0.00000000000E+00 0.  1.
    9000005    2    1    2  501    0 -0.38980259438E+02 -0.64515804479E+01 -0.44991633124E+02  0.46494182873E+03  0.46107003105E+03 0.  0.
         13    1    3    3    0    0  0.80144106925E+02  0.11435298181E+03 -0.19407217752E+03  0.23908929799E+03  0.00000000000E+00 0.  1.
          1    1    3    3  501    0 -0.11912436636E+03 -0.12080456226E+03  0.14908054440E+03  0.22585253074E+03  0.00000000000E+00 0.  1.
         21    1    1    2  502  501  0.38980259438E+02  0.64515804479E+01 -0.55213109251E+00  0.39514407054E+02  0.00000000000E+00 0. -1.
<scales pt_clust_4="550.00000" pt_clust_5="550.00000" pt_clust_6="39.51055"></scales>
<mgrwt>
<rscale>  0 0.30000000E+03</rscale>
<asrwt>  1 0.39510549E+02</asrwt>
<pdfrwt beam="1">  1        1 0.83438631E+00 0.30000000E+03</pdfrwt>
<pdfrwt beam="2">0</pdfrwt>
<totfact> 0.53449856E-04</totfact>
</mgrwt>
<clustering>
<clus scale="   39.511">  1  6  2 -1</clus>
<clus scale="  461.070">  4  5 -1 -1</clus>
<clus scale="  300.000">  1  4  2 -1</clus>
</clustering>
</event>
<event>
 6    1  0.9254630E-012  0.3000000E+03  0.7818608E-02  0.1093470E+00
          1   -1    0    0  502    0  0.00000000000E+00  0.00000000000E+00  0.22467326956E+03  0.22467326956E+03  0.00000000000E+00 0.  1.
         13   -1    0    0    0    0 -0.00000000000E+00 -0.00000000000E+00 -0.27500000000E+03  0.27500000000E+03  0.00000000000E+00 0.  1.
    9000005    2    1    2  501    0 -0.10006509692E+02 -0.31405188985E+02 -0.64171094935E+02  0.46392298901E+03  0.45827960261E+03 0.  0.
         13    1    3    3    0    0 -0.58227565304E+02  0.20619719560E+03 -0.55451025469E+02  0.22132001504E+03  0.00000000000E+00 0.  1.
          3    1    3    3  501    0  0.48221055612E+02 -0.23760238458E+03 -0.87200694664E+01  0.24260297396E+03  0.00000000000E+00 0.  1.
         21    1    1    2  502  501  0.10006509692E+02  0.31405188985E+02  0.13844364494E+02  0.35750280554E+02  0.00000000000E+00 0.  1.
<scales pt_clust_4="550.00000" pt_clust_5="550.00000" pt_clust_6="32.96083"></scales>
<mgrwt>
<rscale>  0 0.30000000E+03</rscale>
<asrwt>  1 0.32960827E+02</asrwt>
<pdfrwt beam="1">  1        1 0.81699371E+00 0.30000000E+03</pdfrwt>
<pdfrwt beam="2">0</pdfrwt>
<totfact> 0.77549673E-04</totfact>
</mgrwt>
<clustering>
<clus scale="   32.961">  1  6  2 -1</clus>
<clus scale="  458.280">  4  5 -1 -1</clus>
<clus scale="  300.000">  1  4  2 -1</clus>
</clustering>
</event>
<event>
 6    1  0.9254630E-012  0.3000000E+03  0.7818608E-02  0.1093470E+00
          1   -1    0    0  502    0  0.00000000000E+00  0.00000000000E+00  0.23149932011E+03  0.23149932011E+03  0.00000000000E+00 0.  1.
         13   -1    0    0    0    0 -0.00000000000E+00 -0.00000000000E+00 -0.27500000000E+03  0.27500000000E+03  0.00000000000E+00 0.  1.
    9000005    2    1    2  501    0 -0.31744840149E+01  0.36797246586E+02 -0.57714694885E+02  0.46692467005E+03  0.46186962099E+03 0.  0.
         13    1    3    3    0    0  0.36058073870E+02  0.74090459320E+02  0.19330546614E+03  0.21013468084E+03  0.00000000000E+00 0.  1.
          3    1    3    3  501    0 -0.39232557885E+02 -0.37293212734E+02 -0.25102016103E+03  0.25678998921E+03  0.00000000000E+00 0.  1.
         21    1    1    2  502  501  0.31744840149E+01 -0.36797246586E+02  0.14214014994E+02  0.39574650059E+02  0.00000000000E+00 0.  1.
<scales pt_clust_4="550.00000" pt_clust_5="550.00000" pt_clust_6="36.93392"></scales>
<mgrwt>
<rscale>  0 0.30000000E+03</rscale>
<asrwt>  1 0.36933923E+02</asrwt>
<pdfrwt beam="1">  1        1 0.84181571E+00 0.30000000E+03</pdfrwt>
<pdfrwt beam="2">0</pdfrwt>
<totfact> 0.47605514E-04</totfact>
</mgrwt>
<clustering>
<clus scale="   36.934">  1  6  2 -1</clus>
<clus scale="  461.870">  4  5 -1 -1</clus>
<clus scale="  300.000">  1  4  2 -1</clus>
</clustering>
</event>
<event>
 6    1  0.9254630E-012  0.3000000E+03  0.7818608E-02  0.1093470E+00
          1   -1    0    0  502    0  0.00000000000E+00  0.00000000000E+00  0.24409848891E+03  0.24409848891E+03  0.00000000000E+00 0.  1.
         13   -1    0    0    0    0 -0.00000000000E+00 -0.00000000000E+00 -0.27500000000E+03  0.27500000000E+03  0.00000000000E+00 0.  1.
    9000005    2    1    2  501    0 -0.33642607997E+02  0.97759858105E+01 -0.38233391898E+02  0.48330531292E+03  0.48051518006E+03 0.  0.
         13    1    3    3    0    0  0.11559109754E+03  0.10530865342E+03 -0.19275211815E+03  0.24820272635E+03  0.00000000000E+00 0.  1.
          3    1    3    3  501    0 -0.14923370554E+03 -0.95532667606E+02  0.15451872625E+03  0.23510258657E+03  0.00000000000E+00 0.  1.
         21    1    1    2  502  501  0.33642607997E+02 -0.97759858105E+01  0.73318808074E+01  0.35793175992E+02  0.00000000000E+00 0.  1.
<scales pt_clust_4="550.00000" pt_clust_5="550.00000" pt_clust_6="35.03420"></scales>
<mgrwt>
<rscale>  0 0.30000000E+03</rscale>
<asrwt>  1 0.35034197E+02</asrwt>
<pdfrwt beam="1">  1        1 0.88763087E+00 0.30000000E+03</pdfrwt>
<pdfrwt beam="2">0</pdfrwt>
<totfact> 0.15608244E-04</totfact>
</mgrwt>
<clustering>
<clus scale="   35.034">  1  6  2 -1</clus>
<clus scale="  480.515">  4  5 -1 -1</clus>
<clus scale="  300.000">  1  4  2 -1</clus>
</clustering>
</event>
<event>
 6    1  0.9254630E-012  0.3000000E+03  0.7818608E-02  0.1093470E+00
          1   -1    0    0  502    0  0.00000000000E+00  0.00000000000E+00  0.24385018668E+03  0.24385018668E+03  0.00000000000E+00 0.  1.
         13   -1    0    0    0    0 -0.00000000000E+00 -0.00000000000E+00 -0.27500000000E+03  0.27500000000E+03  0.00000000000E+00 0.  1.
    9000005    2    1    2  501    0 -0.30349687228E+02 -0.57651467167E+01 -0.56770570262E+02  0.47871586698E+03  0.47433284012E+03 0.  0.
         13    1    3    3    0    0 -0.70522996914E+02 -0.90955225058E+02  0.18576757730E+03  0.21853132232E+03  0.00000000000E+00 0.  1.
          1    1    3    3  501    0  0.40173309687E+02  0.85190078342E+02 -0.24253814756E+03  0.26018454466E+03  0.00000000000E+00 0.  1.
         21    1    1    2  502  501  0.30349687228E+02  0.57651467167E+01  0.25620756945E+02  0.40134319702E+02  0.00000000000E+00 0.  1.
<scales pt_clust_4="550.00000" pt_clust_5="550.00000" pt_clust_6="30.89240"></scales>
<mgrwt>
<rscale>  0 0.30000000E+03</rscale>
<asrwt>  1 0.30892401E+02</asrwt>
<pdfrwt beam="1">  1        1 0.88672795E+00 0.30000000E+03</pdfrwt>
<pdfrwt beam="2">0</pdfrwt>
<totfact> 0.16449635E-04</totfact>
</mgrwt>
<clustering>
<clus scale="   30.892">  1  6  2 -1</clus>
<clus scale="  474.333">  4  5 -1 -1</clus>
<clus scale="  300.000">  1  4  2 -1</clus>
</clustering>
</event>
<event>
 6    1  0.9254630E-012  0.3000000E+03  0.7818608E-02  0.1093470E+00
          1   -1    0    0  502    0  0.00000000000E+00  0.00000000000E+00  0.22328818121E+03  0.22328818121E+03  0.00000000000E+00 0.  1.
         13   -1    0    0    0    0 -0.00000000000E+00 -0.00000000000E+00 -0.27500000000E+03  0.27500000000E+03  0.00000000000E+00 0.  1.
    9000005    2    1    2  501    0  0.17190599718E+02 -0.30362930434E+02 -0.53952329336E+02  0.46332471241E+03  0.45884802606E+03 0.  0.
         13    1    3    3    0    0  0.15732009033E+03  0.59594929202E+02  0.13190944172E+03  0.21377854716E+03  0.00000000000E+00 0.  1.
          3    1    3    3  501    0 -0.14012949061E+03 -0.89957859635E+02 -0.18586177106E+03  0.24954616525E+03  0.00000000000E+00 0.  1.
         21    1    1    2  502  501 -0.17190599718E+02  0.30362930434E+02  0.22405105433E+01  0.34963468802E+02  0.00000000000E+00 0. -1.
<scales pt_clust_4="550.00000" pt_clust_5="550.00000" pt_clust_6="34.89161"></scales>
<mgrwt>
<rscale>  0 0.30000000E+03</rscale>
<asrwt>  1 0.34891607E+02</asrwt>
<pdfrwt beam="1">  1        1 0.81195702E+00 0.30000000E+03</pdfrwt>
<pdfrwt beam="2">0</pdfrwt>
<totfact> 0.84234168E-04</totfact>
</mgrwt>
<clustering>
<clus scale="   34.892">  1  6  2 -1</clus>
<clus scale="  458.848">  4  5 -1 -1</clus>
<clus scale="  300.000">  1  4  2 -1</clus>
</clustering>
</event>
<event>
 6    1  0.9254630E-012  0.3000000E+03  0.7818608E-02  0.1093470E+00
          1   -1    0    0  502    0  0.00000000000E+00  0.00000000000E+00  0.24195569064E+03  0.24195569064E+03  0.00000000000E+00 0.  1.
         13   -1    0    0    0    0 -0.00000000000E+00 -0.00000000000E+00 -0.27500000000E+03  0.27500000000E+03  0.00000000000E+00 0.  1.
    9000005    2    1    2  501    0 -0.12933612426E+02  0.29801273037E+02 -0.34836637873E+02  0.48441945474E+03  0.48207180231E+03 0.  0.
         13    1    3    3    0    0  0.50020527223E+02  0.21453852304E+03 -0.14167880306E+03  0.26191928957E+03  0.00000000000E+00 0.  1.
          3    1    3    3  501    0 -0.62954139650E+02 -0.18473725000E+03  0.10684216519E+03  0.22250016517E+03  0.00000000000E+00 0.  1.
         21    1    1    2  502  501  0.12933612426E+02 -0.29801273037E+02  0.17923285127E+01  0.32536235900E+02  0.00000000000E+00 0.  1.
<scales pt_clust_4="550.00000" pt_clust_5="550.00000" pt_clust_6="32.48683"></scales>
<mgrwt>
<rscale>  0 0.30000000E+03</rscale>
<asrwt>  1 0.32486831E+02</asrwt>
<pdfrwt beam="1">  1        1 0.87983888E+00 0.30000000E+03</pdfrwt>
<pdfrwt beam="2">0</pdfrwt>
<totfact> 0.20108109E-04</totfact>
</mgrwt>
<clustering>
<clus scale="   32.487">  1  6  2 -1</clus>
<clus scale="  482.072">  4  5 -1 -1</clus>
<clus scale="  300.000">  1  4  2 -1</clus>
</clustering>
</event>
<event>
 6    1  0.9254630E-012  0.3000000E+03  0.7818608E-02  0.1093470E+00
          1   -1    0    0  502    0  0.00000000000E+00  0.00000000000E+00  0.23903528916E+03  0.23903528916E+03  0.00000000000E+00 0.  1.
         13   -1    0    0    0    0 -0.00000000000E+00 -0.00000000000E+00 -0.27500000000E+03  0.27500000000E+03  0.00000000000E+00 0.  1.
    9000005    2    1    2  501    0 -0.24404582458E+02 -0.21375442358E+02 -0.37662248929E+02  0.48154875631E+03  0.47897626928E+03 0.  0.
         13    1    3    3    0    0 -0.16721524872E+03 -0.27837356433E+02 -0.20201924817E+03  0.26371885494E+03  0.00000000000E+00 0.  1.
          1    1    3    3  501    0  0.14281066626E+03  0.64619140745E+01  0.16435699924E+03  0.21782990137E+03  0.00000000000E+00 0.  1.
         21    1    1    2  502  501  0.24404582458E+02  0.21375442358E+02  0.16975380930E+01  0.32486532849E+02  0.00000000000E+00 0. -1.
<scales pt_clust_4="550.00000" pt_clust_5="550.00000" pt_clust_6="32.44215"></scales>
<mgrwt>
<rscale>  0 0.30000000E+03</rscale>
<asrwt>  1 0.32442151E+02</asrwt>
<pdfrwt beam="1">  1        1 0.86921923E+00 0.30000000E+03</pdfrwt>
<pdfrwt beam="2">0</pdfrwt>
<totfact> 0.26167387E-04</totfact>
</mgrwt>
<clustering>
<clus scale="   32.442">  1  6  2 -1</clus>
<clus scale="  478.976">  4  5 -1 -1</clus>
<clus scale="  300.000">  1  4  2 -1</clus>
</clustering>
</event>
<event>
 6    1  0.9254630E-012  0.3000000E+03  0.7818608E-02  0.1093470E+00
          1   -1    0    0  502    0  0.00000000000E+00  0.00000000000E+00  0.22587293183E+03  0.22587293183E+03  0.00000000000E+00 0.  1.
         13   -1    0    0    0    0 -0.00000000000E+00 -0.00000000000E+00 -0.27500000000E+03  0.27500000000E+03  0.00000000000E+00 0.  1.
    9000005    2    1    2  501    0 -0.39050011291E+01  0.34230660624E+02 -0.50453000054E+02  0.46639474661E+03  0.46237600207E+03 0.  0.
         13    1    3    3    0    0 -0.15486814840E+02  0.22464203127E+03 -0.12966400725E+03  0.25983963982E+03  0.00000000000E+00 0.  1.
          3    1    3    3  501    0  0.11581813711E+02 -0.19041137064E+03  0.79211007196E+02  0.20655510679E+03  0.00000000000E+00 0.  1.
         21    1    1    2  502  501  0.39050011291E+01 -0.34230660624E+02  0.13259318829E+01  0.34478185218E+02  0.00000000000E+00 0. -1.
<scales pt_clust_4="550.00000" pt_clust_5="550.00000" pt_clust_6="34.45268"></scales>
<mgrwt>
<rscale>  0 0.30000000E+03</rscale>
<asrwt>  1 0.34452680E+02</asrwt>
<pdfrwt beam="1">  1        1 0.82135612E+00 0.30000000E+03</pdfrwt>
<pdfrwt beam="2">0</pdfrwt>
<totfact> 0.70590727E-04</totfact>
</mgrwt>
<clustering>
<clus scale="   34.453">  1  6  2 -1</clus>
<clus scale="  462.376">  4  5 -1 -1</clus>
<clus scale="  300.000">  1  4  2 -1</clus>
</clustering>
</event>
<event>
 6    1  0.9254630E-012  0.3000000E+03  0.7818608E-02  0.1093470E+00
          1   -1    0    0  502    0  0.00000000000E+00  0.00000000000E+00  0.25681477841E+03  0.25681477841E+03  0.00000000000E+00 0.  1.
         13   -1    0    0    0    0 -0.00000000000E+00 -0.00000000000E+00 -0.27500000000E+03  0.27500000000E+03  0.00000000000E+00 0.  1.
    9000005    2    1    2  501    0 -0.66926177323E+02  0.53887330373E+01 -0.13927087847E+02  0.46453711973E+03  0.45944816920E+03 0.  0.
         13    1    3    3    0    0 -0.24964808811E+03  0.30558921877E+02  0.71197079098E+02  0.26139441401E+03  0.00000000000E+00 0.  1.
          3    1    3    3  501    0  0.18272191079E+03 -0.25170188840E+02 -0.85124166945E+02  0.20314270572E+03  0.00000000000E+00 0.  1.
         21    1    1    2  502  501  0.66926177323E+02 -0.53887330373E+01 -0.42581337387E+01  0.67277658682E+02  0.00000000000E+00 0. -1.
<scales pt_clust_4="550.00000" pt_clust_5="550.00000" pt_clust_6="67.14280"></scales>
<mgrwt>
<rscale>  0 0.30000000E+03</rscale>
<asrwt>  1 0.67142804E+02</asrwt>
<pdfrwt beam="1">  1        1 0.93387192E+00 0.30000000E+03</pdfrwt>
<pdfrwt beam="2">0</pdfrwt>
<totfact> 0.20725248E-05</totfact>
</mgrwt>
<clustering>
<clus scale="   67.143">  1  6  2 -1</clus>
<clus scale="  459.448">  4  5 -1 -1</clus>
<clus scale="  300.000">  1  4  2 -1</clus>
</clustering>
</event>
<event>
 6    1  0.9254630E-012  0.3000000E+03  0.7818608E-02  0.1093470E+00
          1   -1    0    0  502    0  0.00000000000E+00  0.00000000000E+00  0.24892822389E+03  0.24892822389E+03  0.00000000000E+00 0.  1.
         13   -1    0    0    0    0 -0.00000000000E+00 -0.00000000000E+00 -0.27500000000E+03  0.27500000000E+03  0.00000000000E+00 0.  1.
    9000005    2    1    2  501    0 -0.52153300876E+02  0.49333270061E+01 -0.39948465401E+02  0.46973535524E+03  0.46509259246E+03 0.  0.
         13    1    3    3    0    0  0.11261091029E+03  0.15463369450E+03 -0.12818637756E+03  0.23027058862E+03  0.00000000000E+00 0.  1.
          1    1    3    3  501    0 -0.16476421116E+03 -0.14970036750E+03  0.88237912159E+02  0.23946476662E+03  0.00000000000E+00 0.  1.
         21    1    1    2  502  501  0.52153300876E+02 -0.49333270061E+01  0.13876689295E+02  0.54192868658E+02  0.00000000000E+00 0. -1.
<scales pt_clust_4="550.00000" pt_clust_5="550.00000" pt_clust_6="52.38611"></scales>
<mgrwt>
<rscale>  0 0.30000000E+03</rscale>
<asrwt>  1 0.52386110E+02</asrwt>
<pdfrwt beam="1">  1        1 0.90519354E+00 0.30000000E+03</pdfrwt>
<pdfrwt beam="2">0</pdfrwt>
<totfact> 0.85253121E-05</totfact>
</mgrwt>
<clustering>
<clus scale="   52.386">  1  6  2 -1</clus>
<clus scale="  465.093">  4  5 -1 -1</clus>
<clus scale="  300.000">  1  4  2 -1</clus>
</clustering>
</event>
<event>
 6    1  0.9254630E-012  0.3000000E+03  0.7818608E-02  0.1093470E+00
          1   -1    0    0  502    0  0.00000000000E+00  0.00000000000E+00  0.23090003677E+03  0.23090003677E+03  0.00000000000E+00 0.  1.
         13   -1    0    0    0    0 -0.00000000000E+00 -0.00000000000E+00 -0.27500000000E+03  0.27500000000E+03  0.00000000000E+00 0.  1.
    9000005    2    1    2  501    0 -0.10339812771E+02 -0.41923531595E+02 -0.48643755734E+02  0.46248183460E+03  0.45788507087E+03 0.  0.
         13    1    3    3    0    0  0.16044361367E+03 -0.45923869594E+02 -0.18113499581E+03  0.24629462372E+03  0.00000000000E+00 0.  1.
          1    1    3    3  501    0 -0.17078342644E+03  0.40003379986E+01  0.13249124008E+03  0.21618721088E+03  0.00000000000E+00 0.  1.
         21    1    1    2  502  501  0.10339812771E+02  0.41923531595E+02  0.45437925022E+01  0.43418202172E+02  0.00000000000E+00 0. -1.
<scales pt_clust_4="550.00000" pt_clust_5="550.00000" pt_clust_6="43.17979"></scales>
<mgrwt>
<rscale>  0 0.30000000E+03</rscale>
<asrwt>  1 0.43179790E+02</asrwt>
<pdfrwt beam="1">  1        1 0.83963650E+00 0.30000000E+03</pdfrwt>
<pdfrwt beam="2">0</pdfrwt>
<totfact> 0.48132040E-04</totfact>
</mgrwt>
<clustering>
<clus scale="   43.180">  1  6  2 -1</clus>
<clus scale="  457.885">  4  5 -1 -1</clus>
<clus scale="  300.000">  1  4  2 -1</clus>
</clustering>
</event>
<event>
 6    1  0.9254630E-012  0.3000000E+03  0.7818608E-02  0.1093470E+00
          1   -1    0    0  502    0  0.00000000000E+00  0.00000000000E+00  0.23996217615E+03  0.23996217615E+03  0.00000000000E+00 0.  1.
         13   -1    0    0    0    0 -0.00000000000E+00 -0.00000000000E+00 -0.27500000000E+03  0.27500000000E+03  0.00000000000E+00 0.  1.
    9000005    2    1    2  501    0 -0.26619469199E+02  0.15102577881E+02 -0.73696001934E+02  0.46565559716E+03  0.45876720727E+03 0.  0.
         13    1    3    3    0    0 -0.17656336004E+02  0.22058150673E+03  0.48334499377E+02  0.22650424089E+03  0.00000000000E+00 0.  1.
          1    1    3    3  501    0 -0.89631331950E+01 -0.20547892884E+03 -0.12203050131E+03  0.23915135627E+03  0.00000000000E+00 0.  1.
         21    1    1    2  502  501  0.26619469199E+02 -0.15102577881E+02  0.38658178081E+02  0.49306578990E+02  0.00000000000E+00 0.  1.
<scales pt_clust_4="550.00000" pt_clust_5="550.00000" pt_clust_6="30.60529"></scales>
<mgrwt>
<rscale>  0 0.30000000E+03</rscale>
<asrwt>  1 0.30605294E+02</asrwt>
<pdfrwt beam="1">  1        1 0.87258973E+00 0.30000000E+03</pdfrwt>
<pdfrwt beam="2">0</pdfrwt>
<totfact> 0.24441476E-04</totfact>
</mgrwt>
<clustering>
<clus scale="   30.605">  1  6  2 -1</clus>
<clus scale="  458.767">  4  5 -1 -1</clus>
<clus scale="  300.000">  1  4  2 -1</clus>
</clustering>
</event>
<event>
 6    1  0.9254630E-012  0.3000000E+03  0.7818608E-02  0.1093470E+00
          1   -1    0    0  502    0  0.00000000000E+00  0.00000000000E+00  0.23748584238E+03  0.23748584238E+03  0.00000000000E+00 0.  1.
         13   -1    0    0    0    0 -0.00000000000E+00 -0.00000000000E+00 -0.27500000000E+03  0.27500000000E+03  0.00000000000E+00 0.  1.
    9000005    2    1    2  501    0  0.32458007335E+02 -0.52281210246E+01 -0.70817863319E+02  0.46568848879E+03  0.45909666013E+03 0.  0.
         13    1    3    3    0    0 -0.17346621039E+03  0.12218477470E+03  0.40736915639E+01  0.21221743633E+03  0.00000000000E+00 0.  1.
          1    1    3    3  501    0  0.20592421773E+03 -0.12741289573E+03 -0.74891554883E+02  0.25347105247E+03  0.00000000000E+00 0.  1.
         21    1    1    2  502  501 -0.32458007335E+02  0.52281210246E+01  0.33303705700E+02  0.46797353589E+02  0.00000000000E+00 0. -1.
<scales pt_clust_4="550.00000" pt_clust_5="550.00000" pt_clust_6="32.87637"></scales>
<mgrwt>
<rscale>  0 0.30000000E+03</rscale>
<asrwt>  1 0.32876367E+02</asrwt>
<pdfrwt beam="1">  1        1 0.86358488E+00 0.30000000E+03</pdfrwt>
<pdfrwt beam="2">0</pdfrwt>
<totfact> 0.29943617E-04</totfact>
</mgrwt>
<clustering>
<clus scale="   32.876">  1  6  2 -1</clus>
<clus scale="  459.097">  4  5 -1 -1</clus>
<clus scale="  300.000">  1  4  2 -1</clus>
</clustering>
</event>
<event>
 6    1  0.9254630E-012  0.3000000E+03  0.7818608E-02  0.1093470E+00
          1   -1    0    0  502    0  0.00000000000E+00  0.00000000000E+00  0.22292975496E+03  0.22292975496E+03  0.00000000000E+00 0.  1.
         13   -1    0    0    0    0 -0.00000000000E+00 -0.00000000000E+00 -0.27500000000E+03  0.27500000000E+03  0.00000000000E+00 0.  1.
    9000005    2    1    2  501    0 -0.30076437828E+02 -0.90532142346E+01 -0.55460637047E+02  0.46633786426E+03  0.46196165271E+03 0.  0.
         13    1    3    3    0    0 -0.21094821584E+03  0.11134846671E+03  0.11974338135E+02  0.23883260996E+03  0.00000000000E+00 0.  1.
          1    1    3    3  501    0  0.18087177801E+03 -0.12040168095E+03 -0.67434975182E+02  0.22750525430E+03  0.00000000000E+00 0.  1.
         21    1    1    2  502  501  0.30076437828E+02  0.90532142346E+01  0.33903920113E+01  0.31591890706E+02  0.00000000000E+00 0. -1.
<scales pt_clust_4="550.00000" pt_clust_5="550.00000" pt_clust_6="31.40944"></scales>
<mgrwt>
<rscale>  0 0.30000000E+03</rscale>
<asrwt>  1 0.31409438E+02</asrwt>
<pdfrwt beam="1">  1        1 0.81065365E+00 0.30000000E+03</pdfrwt>
<pdfrwt beam="2">0</pdfrwt>
<totfact> 0.87975830E-04</totfact>
</mgrwt>
<clustering>
<clus scale="   31.409">  1  6  2 -1</clus>
<clus scale="  461.962">  4  5 -1 -1</clus>
<clus scale="  300.000">  1  4  2 -1</clus>
</clustering>
</event>
<event>
 6    1  0.9254630E-012  0.3000000E+03  0.7818608E-02  0.1093470E+00
          1   -1    0    0  502    0  0.00000000000E+00  0.00000000000E+00  0.25076778888E+03  0.25076778888E+03  0.00000000000E+00 0.  1.
         13   -1    0    0    0    0 -0.00000000000E+00 -0.00000000000E+00 -0.27500000000E+03  0.27500000000E+03  0.00000000000E+00 0.  1.
    9000005    2    1    2  501    0  0.20719569046E+01 -0.29964661524E+02 -0.45328798217E+02  0.48906302171E+03  0.48603062179E+03 0.  0.
         13    1    3    3    0    0 -0.16010759824E+03 -0.19607135465E+03 -0.34183782047E+01  0.25316023471E+03  0.00000000000E+00 0.  1.
          1    1    3    3  501    0  0.16217955515E+03  0.16610669313E+03 -0.41910420012E+02  0.23590278700E+03  0.00000000000E+00 0.  1.
         21    1    1    2  502  501 -0.20719569046E+01  0.29964661524E+02  0.21096587101E+02  0.36704767170E+02  0.00000000000E+00 0.  1.
<scales pt_clust_4="550.00000" pt_clust_5="550.00000" pt_clust_6="30.03621"></scales>
<mgrwt>
<rscale>  0 0.30000000E+03</rscale>
<asrwt>  1 0.30036211E+02</asrwt>
<pdfrwt beam="1">  1        1 0.91188287E+00 0.30000000E+03</pdfrwt>
<pdfrwt beam="2">0</pdfrwt>
<totfact> 0.66443534E-05</totfact>
</mgrwt>
<clustering>
<clus scale="   30.036">  1  6  2 -1</clus>
<clus scale="  486.031">  4  5 -1 -1</clus>
<clus scale="  300.000">  1  4  2 -1</clus>
</clustering>
</event>
<event>
 6    1  0.9254630E-012  0.3000000E+03  0.7818608E-02  0.1093470E+00
          1   -1    0    0  502    0  0.00000000000E+00  0.00000000000E+00  0.23449178976E+03  0.23449178976E+03  0.00000000000E+00 0.  1.
         13   -1    0    0    0    0 -0.00000000000E+00 -0.00000000000E+00 -0.27500000000E+03  0.27500000000E+03  0.00000000000E+00 0.  1.
    9000005    2    1    2  501    0  0.45367544649E+02  0.15140378695E+02 -0.46866958359E+02  0.46124369288E+03  0.45635708306E+03 0.  0.
         13    1    3    3    0    0  0.16616185054E+02 -0.15321429049E+03 -0.18557339403E+03  0.24122230616E+03  0.00000000000E+00 0.  1.
          3    1    3    3  501    0  0.28751359595E+02  0.16835466919E+03  0.13870643567E+03  0.22002138672E+03  0.00000000000E+00 0.  1.
         21    1    1    2  502  501 -0.45367544649E+02 -0.15140378695E+02  0.63587481155E+01  0.48248096876E+02  0.00000000000E+00 0. -1.
<scales pt_clust_4="550.00000" pt_clust_5="550.00000" pt_clust_6="47.82724"></scales>
<mgrwt>
<rscale>  0 0.30000000E+03</rscale>
<asrwt>  1 0.47827243E+02</asrwt>
<pdfrwt beam="1">  1        1 0.85269742E+00 0.30000000E+03</pdfrwt>
<pdfrwt beam="2">0</pdfrwt>
<totfact> 0.36246550E-04</totfact>
</mgrwt>
<clustering>
<clus scale="   47.827">  1  6  2 -1</clus>
<clus scale="  456.357">  4  5 -1 -1</clus>
<clus scale="  300.000">  1  4  2 -1</clus>
</clustering>
</event>
<event>
 6    1  0.9254630E-012  0.3000000E+03  0.7818608E-02  0.1093470E+00
          1   -1    0    0  502    0  0.00000000000E+00  0.00000000000E+00  0.23571205081E+03  0.23571205081E+03  0.00000000000E+00 0.  1.
         13   -1    0    0    0    0 -0.00000000000E+00 -0.00000000000E+00 -0.27500000000E+03  0.27500000000E+03  0.00000000000E+00 0.  1.
    9000005    2    1    2  501    0  0.25512830568E+02  0.29525910138E+02 -0.38202250693E+02  0.47167536763E+03  0.46850352888E+03 0.  0.
         13    1    3    3    0    0 -0.10054898741E+03  0.19486884577E+03 -0.11794748555E+03  0.24898910672E+03  0.00000000000E+00 0.  1.
          3    1    3    3  501    0  0.12606181798E+03 -0.16534293563E+03  0.79745234857E+02  0.22268626090E+03  0.00000000000E+00 0.  1.
         21    1    1    2  502  501 -0.25512830568E+02 -0.29525910138E+02 -0.10856984923E+01  0.39036683187E+02  0.00000000000E+00 0.  1.
<scales pt_clust_4="550.00000" pt_clust_5="550.00000" pt_clust_6="39.02158"></scales>
<mgrwt>
<rscale>  0 0.30000000E+03</rscale>
<asrwt>  1 0.39021582E+02</asrwt>
<pdfrwt beam="1">  1        1 0.85713473E+00 0.30000000E+03</pdfrwt>
<pdfrwt beam="2">0</pdfrwt>
<totfact> 0.33975283E-04</totfact>
</mgrwt>
<clustering>
<clus scale="   39.022">  1  6  2 -1</clus>
<clus scale="  468.504">  4  5 -1 -1</clus>
<clus scale="  300.000">  1  4  2 -1</clus>
</clustering>
</event>
<event>
 6    1  0.9254630E-012  0.3000000E+03  0.7818608E-02  0.1093470E+00
          1   -1    0    0  502    0  0.00000000000E+00  0.00000000000E+00  0.22452591148E+03  0.22452591148E+03  0.00000000000E+00 0.  1.
         13   -1    0    0    0    0 -0.00000000000E+00 -0.00000000000E+00 -0.27500000000E+03  0.27500000000E+03  0.00000000000E+00 0.  1.
    9000005    2    1    2  501    0 -0.28978311404E+02 -0.21018666214E+02 -0.62538636104E+02  0.46174919683E+03  0.45609178123E+03 0.  0.
         13    1    3    3    0    0  0.12500002648E+03 -0.78281860625E+02  0.13836277112E+03  0.20223084026E+03  0.00000000000E+00 0.  1.
          3    1    3    3  501    0 -0.15397833788E+03  0.57263194411E+02 -0.20090140722E+03  0.25951835657E+03  0.00000000000E+00 0.  1.
         21    1    1    2  502  501  0.28978311404E+02  0.21018666214E+02  0.12064547580E+02  0.37776714647E+02  0.00000000000E+00 0.  1.
<scales pt_clust_4="550.00000" pt_clust_5="550.00000" pt_clust_6="35.79842"></scales>
<mgrwt>
<rscale>  0 0.30000000E+03</rscale>
<asrwt>  1 0.35798420E+02</asrwt>
<pdfrwt beam="1">  1        1 0.81645786E+00 0.30000000E+03</pdfrwt>
<pdfrwt beam="2">0</pdfrwt>
<totfact> 0.77134434E-04</totfact>
</mgrwt>
<clustering>
<clus scale="   35.798">  1  6  2 -1</clus>
<clus scale="  456.092">  4  5 -1 -1</clus>
<clus scale="  300.000">  1  4  2 -1</clus>
</clustering>
</event>
<event>
 6    1  0.9254630E-012  0.3000000E+03  0.7818608E-02  0.1093470E+00
          1   -1    0    0  502    0  0.00000000000E+00  0.00000000000E+00  0.22829929219E+03  0.22829929219E+03  0.00000000000E+00 0.  1.
         13   -1    0    0    0    0 -0.00000000000E+00 -0.00000000000E+00 -0.27500000000E+03  0.27500000000E+03  0.00000000000E+00 0.  1.
    9000005    2    1    2  501    0 -0.27178211972E+02 -0.14477786475E+02 -0.67657789640E+02  0.46605065750E+03  0.46008409813E+03 0.  0.
         13    1    3    3    0    0  0.12939276112E+03 -0.18728079012E+03 -0.25078498088E+02  0.22900985141E+03  0.00000000000E+00 0.  1.
          1    1    3    3  501    0 -0.15657097309E+03  0.17280300364E+03 -0.42579291552E+02  0.23704080609E+03  0.00000000000E+00 0.  1.
         21    1    1    2  502  501  0.27178211972E+02  0.14477786475E+02  0.20957081826E+02  0.37248634685E+02  0.00000000000E+00 0. -1.
<scales pt_clust_4="550.00000" pt_clust_5="550.00000" pt_clust_6="30.79386"></scales>
<mgrwt>
<rscale>  0 0.30000000E+03</rscale>
<asrwt>  1 0.30793855E+02</asrwt>
<pdfrwt beam="1">  1        1 0.83017924E+00 0.30000000E+03</pdfrwt>
<pdfrwt beam="2">0</pdfrwt>
<totfact> 0.60345711E-04</totfact>
</mgrwt>
<clustering>
<clus scale="   30.794">  1  6  2 -1</clus>
<clus scale="  460.084">  4  5 -1 -1</clus>
<clus scale="  300.000">  1  4  2 -1</clus>
</clustering>
</event>
<event>
 6    1  0.9254630E-012  0.3000000E+03  0.7818608E-02  0.1093470E+00
          1   -1    0    0  502    0  0.00000000000E+00  0.00000000000E+00  0.24067796797E+03  0.24067796797E+03  0.00000000000E+00 0.  1.
         13   -1    0    0    0    0 -0.00000000000E+00 -0.00000000000E+00 -0.27500000000E+03  0.27500000000E+03  0.00000000000E+00 0.  1.
    9000005    2    1    2  501    0 -0.31496788646E+02  0.12100251252E+01 -0.31621511958E+02  0.48404247107E+03  0.48197892270E+03 0.  0.
         13    1    3    3    0    0  0.12505970443E+03 -0.77724410750E+02 -0.19502856296E+03  0.24437093540E+03  0.00000000000E+00 0.  1.
          3    1    3    3  501    0 -0.15655649308E+03  0.78934435875E+02  0.16340705100E+03  0.23967153567E+03  0.00000000000E+00 0.  1.
         21    1    1    2  502  501  0.31496788646E+02 -0.12100251252E+01 -0.27005200672E+01  0.31635496906E+02  0.00000000000E+00 0.  1.
<scales pt_clust_4="550.00000" pt_clust_5="550.00000" pt_clust_6="31.52004"></scales>
<mgrwt>
<rscale>  0 0.30000000E+03</rscale>
<asrwt>  1 0.31520039E+02</asrwt>
<pdfrwt beam="1">  1        1 0.87519261E+00 0.30000000E+03</pdfrwt>
<pdfrwt beam="2">0</pdfrwt>
<totfact> 0.22834425E-04</totfact>
</mgrwt>
<clustering>
<clus scale="   31.520">  1  6  2 -1</clus>
<clus scale="  481.979">  4  5 -1 -1</clus>
<clus scale="  300.000">  1  4  2 -1</clus>
</clustering>
</event>
<event>
 6    1  0.9254630E-012  0.3000000E+03  0.7818608E-02  0.1093470E+00
          1   -1    0    0  502    0  0.00000000000E+00  0.00000000000E+00  0.24684118783E+03  0.24684118783E+03  0.00000000000E+00 0.  1.
         13   -1    0    0    0    0 -0.00000000000E+00 -0.00000000000E+00 -0.27500000000E+03  0.27500000000E+03  0.00000000000E+00 0.  1.
    9000005    2    1    2  501    0 -0.22265574533E+02 -0.29240024277E+02 -0.43991122496E+02  0.48182373065E+03  0.47840166568E+03 0.  0.
         13    1    3    3    0    0 -0.22706118502E+03  0.28891005494E+02  0.71279008036E+02  0.23973353735E+03  0.00000000000E+00 0.  1.
          1    1    3    3  501    0  0.20479561049E+03 -0.58131029771E+02 -0.11527013053E+03  0.24209019330E+03  0.00000000000E+00 0.  1.
         21    1    1    2  502  501  0.22265574533E+02  0.29240024277E+02  0.15832310325E+02  0.40017457181E+02  0.00000000000E+00 0.  1.
<scales pt_clust_4="550.00000" pt_clust_5="550.00000" pt_clust_6="36.75234"></scales>
<mgrwt>
<rscale>  0 0.30000000E+03</rscale>
<asrwt>  1 0.36752345E+02</asrwt>
<pdfrwt beam="1">  1        1 0.89760432E+00 0.30000000E+03</pdfrwt>
<pdfrwt beam="2">0</pdfrwt>
<totfact> 0.11683880E-04</totfact>
</mgrwt>
<clustering>
<clus scale="   36.752">  1  6  2 -1</clus>
<clus scale="  478.402">  4  5 -1 -1</clus>
<clus scale="  300.000">  1  4  2 -1</clus>
</clustering>
</event>
<event>
 6    1  0.9254630E-012  0.3000000E+03  0.7818608E-02  0.1093470E+00
          1   -1    0    0  502    0  0.00000000000E+00  0.00000000000E+00  0.23032908981E+03  0.23032908981E+03  0.00000000000E+00 0.  1.
         13   -1    0    0    0    0 -0.00000000000E+00 -0.00000000000E+00 -0.27500000000E+03  0.27500000000E+03  0.00000000000E+00 0.  1.
    9000005    2    1    2  501    0  0.32624914712E+02  0.10197126125E+02 -0.55988906681E+02  0.46932265308E+03  0.46471564272E+03 0.  0.
         13    1    3    3    0    0 -0.86128101506E+02  0.21152524479E+03 -0.57742518026E+02  0.23557414425E+03  0.00000000000E+00 0.  1.
          1    1    3    3  501    0  0.11875301622E+03 -0.20132811867E+03  0.17536113448E+01  0.23374850883E+03  0.00000000000E+00 0.  1.
         21    1    1    2  502  501 -0.32624914712E+02 -0.10197126125E+02  0.11317996491E+02  0.36006436726E+02  0.00000000000E+00 0.  1.
<scales pt_clust_4="550.00000" pt_clust_5="550.00000" pt_clust_6="34.18138"></scales>
<mgrwt>
<rscale>  0 0.30000000E+03</rscale>
<asrwt>  1 0.34181376E+02</asrwt>
<pdfrwt beam="1">  1        1 0.83756033E+00 0.30000000E+03</pdfrwt>
<pdfrwt beam="2">0</pdfrwt>
<totfact> 0.52060152E-04</totfact>
</mgrwt>
<clustering>
<clus scale="   34.181">  1  6  2 -1</clus>
<clus scale="  464.716">  4  5 -1 -1</clus>
<clus scale="  300.000">  1  4  2 -1</clus>
</clustering>
</event>
<event>
 6    1  0.9254630E-012  0.3000000E+03  0.7818608E-02  0.1093470E+00
          1   -1    0    0  502    0  0.00000000000E+00  0.00000000000E+00  0.23011717934E+03  0.23011717934E+03  0.00000000000E+00 0.  1.
         13   -1    0    0    0    0 -0.00000000000E+00 -0.00000000000E+00 -0.27500000000E+03  0.27500000000E+03  0.00000000000E+00 0.  1.
    9000005    2    1    2  501    0 -0.45630835331E+01  0.31504564131E+02 -0.64057981364E+02  0.46795475099E+03  0.46245525698E+03 0.  0.
         13    1    3    3    0    0 -0.18834501080E+03 -0.38707194443E+02 -0.15900110387E+03  0.24950639476E+03  0.00000000000E+00 0.  1.
          1    1    3    3  501    0  0.18378192727E+03  0.70211758573E+02  0.94943122503E+02  0.21844835624E+03  0.00000000000E+00 0.  1.
         21    1    1    2  502  501  0.45630835331E+01 -0.31504564131E+02  0.19175160699E+02  0.37162428341E+02  0.00000000000E+00 0.  1.
<scales pt_clust_4="550.00000" pt_clust_5="550.00000" pt_clust_6="31.83330"></scales>
<mgrwt>
<rscale>  0 0.30000000E+03</rscale>
<asrwt>  1 0.31833305E+02</asrwt>
<pdfrwt beam="1">  1        1 0.83678974E+00 0.30000000E+03</pdfrwt>
<pdfrwt beam="2">0</pdfrwt>
<totfact> 0.53451215E-04</totfact>
</mgrwt>
<clustering>
<clus scale="   31.833">  1  6  2 -1</clus>
<clus scale="  462.455">  4  5 -1 -1</clus>
<clus scale="  300.000">  1  4  2 -1</clus>
</clustering>
</event>
<event>
 6    1  0.9254630E-012  0.3000000E+03  0.7818608E-02  0.1093470E+00
          1   -1    0    0  502    0  0.00000000000E+00  0.00000000000E+00  0.23856560058E+03  0.23856560058E+03  0.00000000000E+00 0.  1.
         13   -1    0    0    0    0 -0.00000000000E+00 -0.00000000000E+00 -0.27500000000E+03  0.27500000000E+03  0.00000000000E+00 0.  1.
    9000005    2    1    2  501    0  0.12764996611E+02 -0.29617838769E+02 -0.70188308431E+02  0.46688061493E+03  0.46044646642E+03 0.  0.
         13    1    3    3    0    0 -0.13218097104E+03 -0.38884033703E+02  0.14963603875E+03  0.20340777093E+03  0.00000000000E+00 0.  1.
          1    1    3    3  501    0  0.14494596765E+03  0.92661949344E+01 -0.21982434718E+03  0.26347284399E+03  0.00000000000E+00 0.  1.
         21    1    1    2  502  501 -0.12764996611E+02  0.29617838769E+02  0.33753909010E+02  0.46684985652E+02  0.00000000000E+00 0. -1.
<scales pt_clust_4="550.00000" pt_clust_5="550.00000" pt_clust_6="32.25154"></scales>
<mgrwt>
<rscale>  0 0.30000000E+03</rscale>
<asrwt>  1 0.32251535E+02</asrwt>
<pdfrwt beam="1">  1        1 0.86751127E+00 0.30000000E+03</pdfrwt>
<pdfrwt beam="2">0</pdfrwt>
<totfact> 0.27285308E-04</totfact>
</mgrwt>
<clustering>
<clus scale="   32.252">  1  6  2 -1</clus>
<clus scale="  460.446">  4  5 -1 -1</clus>
<clus scale="  300.000">  1  4  2 -1</clus>
</clustering>
</event>
<event>
 6    1  0.9254630E-012  0.3000000E+03  0.7818608E-02  0.1093470E+00
          1   -1    0    0  502    0  0.00000000000E+00  0.00000000000E+00  0.24548405294E+03  0.24548405294E+03  0.00000000000E+00 0.  1.
         13   -1    0    0    0    0 -0.00000000000E+00 -0.00000000000E+00 -0.27500000000E+03  0.27500000000E+03  0.00000000000E+00 0.  1.
    9000005    2    1    2  501    0 -0.45216788906E+02  0.11894802297E+02 -0.46898310160E+02  0.47060228405E+03  0.46591953590E+03 0.  0.
         13    1    3    3    0    0 -0.98233654505E+02 -0.47062965052E+02  0.19097903658E+03  0.21985851352E+03  0.00000000000E+00 0.  1.
          1    1    3    3  501    0  0.53016865599E+02  0.58957767349E+02 -0.23787734674E+03  0.25074377053E+03  0.00000000000E+00 0.  1.
         21    1    1    2  502  501  0.45216788906E+02 -0.11894802297E+02  0.17382363102E+02  0.49881768891E+02  0.00000000000E+00 0.  1.
<scales pt_clust_4="550.00000" pt_clust_5="550.00000" pt_clust_6="46.75515"></scales>
<mgrwt>
<rscale>  0 0.30000000E+03</rscale>
<asrwt>  1 0.46755153E+02</asrwt>
<pdfrwt beam="1">  1        1 0.89266928E+00 0.30000000E+03</pdfrwt>
<pdfrwt beam="2">0</pdfrwt>
<totfact> 0.12723923E-04</totfact>
</mgrwt>
<clustering>
<clus scale="   46.755">  1  6  2 -1</clus>
<clus scale="  465.920">  4  5 -1 -1</clus>
<clus scale="  300.000">  1  4  2 -1</clus>
</clustering>
</event>
<event>
 6    1  0.9254630E-012  0.3000000E+03  0.7818608E-02  0.1093470E+00
          1   -1    0    0  502    0  0.00000000000E+00  0.00000000000E+00  0.25923816168E+03  0.25923816168E+03  0.00000000000E+00 0.  1.
         13   -1    0    0    0    0 -0.00000000000E+00 -0.00000000000E+00 -0.27500000000E+03  0.27500000000E+03  0.00000000000E+00 0.  1.
    9000005    2    1    2  501    0  0.39875522760E+02  0.11841719132E+02 -0.44920305042E+02  0.48343954153E+03  0.47954736250E+03 0.  0.
         13    1    3    3    0    0  0.22999995720E+03 -0.51056397546E+02 -0.12625308509E+03  0.26729492614E+03  0.00000000000E+00 0.  1.
          1    1    3    3  501    0 -0.19012443444E+03  0.62898116678E+02  0.81332780052E+02  0.21614461539E+03  0.00000000000E+00 0.  1.
         21    1    1    2  502  501 -0.39875522760E+02 -0.11841719132E+02  0.29158466721E+02  0.50798620148E+02  0.00000000000E+00 0. -1.
<scales pt_clust_4="550.00000" pt_clust_5="550.00000" pt_clust_6="41.59668"></scales>
<mgrwt>
<rscale>  0 0.30000000E+03</rscale>
<asrwt>  1 0.41596678E+02</asrwt>
<pdfrwt beam="1">  1        1 0.94268422E+00 0.30000000E+03</pdfrwt>
<pdfrwt beam="2">0</pdfrwt>
<totfact> 0.16648565E-05</totfact>
</mgrwt>
<clustering>
<clus scale="   41.597">  1  6  2 -1</clus>
<clus scale="  479.547">  4  5 -1 -1</clus>
<clus scale="  300.000">  1  4  2 -1</clus>
</clustering>
</event>
<event>
 6    1  0.9254630E-012  0.3000000E+03  0.7818608E-02  0.1093470E+00
          1   -1    0    0  502    0  0.00000000000E+00  0.00000000000E+00  0.22722079085E+03  0.22722079085E+03  0.00000000000E+00 0.  1.
         13   -1    0    0    0    0 -0.00000000000E+00 -0.00000000000E+00 -0.27500000000E+03  0.27500000000E+03  0.00000000000E+00 0.  1.
    9000005    2    1    2  501    0  0.34487332318E+02  0.58799891461E+01 -0.60060836314E+02  0.46514264730E+03  0.45992002340E+03 0.  0.
         13    1    3    3    0    0  0.10097411981E+03  0.53296769259E+02 -0.24097261945E+03  0.26665356140E+03  0.00000000000E+00 0.  1.
          1    1    3    3  501    0 -0.66486787487E+02 -0.47416780113E+02  0.18091178313E+03  0.19848908590E+03  0.00000000000E+00 0.  1.
         21    1    1    2  502  501 -0.34487332318E+02 -0.58799891461E+01  0.12281627159E+02  0.37078143541E+02  0.00000000000E+00 0.  1.
<scales pt_clust_4="550.00000" pt_clust_5="550.00000" pt_clust_6="34.98500"></scales>
<mgrwt>
<rscale>  0 0.30000000E+03</rscale>
<asrwt>  1 0.34985002E+02</asrwt>
<pdfrwt beam="1">  1        1 0.82625742E+00 0.30000000E+03</pdfrwt>
<pdfrwt beam="2">0</pdfrwt>
<totfact> 0.63661129E-04</totfact>
</mgrwt>
<clustering>
<clus scale="   34.985">  1  6  2 -1</clus>
<clus scale="  459.920">  4  5 -1 -1</clus>
<clus scale="  300.000">  1  4  2 -1</clus>
</clustering>
</event>
<event>
 6    1  0.9254630E-012  0.3000000E+03  0.7818608E-02  0.1093470E+00
          1   -1    0    0  502    0  0.00000000000E+00  0.00000000000E+00  0.23026846027E+03  0.23026846027E+03  0.00000000000E+00 0.  1.
         13   -1    0    0    0    0 -0.00000000000E+00 -0.00000000000E+00 -0.27500000000E+03  0.27500000000E+03  0.00000000000E+00 0.  1.
    9000005    2    1    2  501    0 -0.17701313952E+02  0.28443087873E+02 -0.50458066023E+02  0.47128112635E+03  0.46737301790E+03 0.  0.
         13    1    3    3    0    0 -0.75147671506E+02 -0.19195270195E+03 -0.11301614853E+03  0.23508649928E+03  0.00000000000E+00 0.  1.
          1    1    3    3  501    0  0.57446357554E+02  0.22039578982E+03  0.62558082503E+02  0.23619462706E+03  0.00000000000E+00 0.  1.
         21    1    1    2  502  501  0.17701313952E+02 -0.28443087873E+02  0.57265262886E+01  0.33987333917E+02  0.00000000000E+00 0.  1.
<scales pt_clust_4="550.00000" pt_clust_5="550.00000" pt_clust_6="33.50143"></scales>
<mgrwt>
<rscale>  0 0.30000000E+03</rscale>
<asrwt>  1 0.33501429E+02</asrwt>
<pdfrwt beam="1">  1        1 0.83733986E+00 0.30000000E+03</pdfrwt>
<pdfrwt beam="2">0</pdfrwt>
<totfact> 0.52451177E-04</totfact>
</mgrwt>
<clustering>
<clus scale="   33.501">  1  6  2 -1</clus>
<clus scale="  467.373">  4  5 -1 -1</clus>
<clus scale="  300.000">  1  4  2 -1</clus>
</clustering>
</event>
<event>
 6    1  0.9254630E-012  0.3000000E+03  0.7818608E-02  0.1093470E+00
          1   -1    0    0  502    0  0.00000000000E+00  0.00000000000E+00  0.22413104140E+03  0.22413104140E+03  0.00000000000E+00 0.  1.
         13   -1    0    0    0    0 -0.00000000000E+00 -0.00000000000E+00 -0.27500000000E+03  0.27500000000E+03  0.00000000000E+00 0.  1.
    9000005    2    1    2  501    0  0.30739707057E+02  0.10083602588E+02 -0.33215642999E+02  0.46227662264E+03  0.45994541879E+03 0.  0.
         13    1    3    3    0    0  0.12971092395E+02 -0.47195831583E+02  0.20801861884E+03  0.21369941867E+03  0.00000000000E+00 0.  1.
          3    1    3    3  501    0  0.17768614662E+02  0.57279434171E+02 -0.24123426184E+03  0.24857720396E+03  0.00000000000E+00 0.  1.
         21    1    1    2  502  501 -0.30739707057E+02 -0.10083602588E+02 -0.17653315597E+02  0.36854418767E+02  0.00000000000E+00 0.  1.
<scales pt_clust_4="550.00000" pt_clust_5="550.00000" pt_clust_6="32.35135"></scales>
<mgrwt>
<rscale>  0 0.30000000E+03</rscale>
<asrwt>  1 0.32351347E+02</asrwt>
<pdfrwt beam="1">  1        1 0.81502197E+00 0.30000000E+03</pdfrwt>
<pdfrwt beam="2">0</pdfrwt>
<totfact> 0.80760120E-04</totfact>
</mgrwt>
<clustering>
<clus scale="   32.351">  1  6  2 -1</clus>
<clus scale="  459.945">  4  5 -1 -1</clus>
<clus scale="  300.000">  1  4  2 -1</clus>
</clustering>
</event>
<event>
 6    1  0.9254630E-012  0.3000000E+03  0.7818608E-02  0.1093470E+00
          1   -1    0    0  502    0  0.00000000000E+00  0.00000000000E+00  0.24376855959E+03  0.24376855959E+03  0.00000000000E+00 0.  1.
         13   -1    0    0    0    0 -0.00000000000E+00 -0.00000000000E+00 -0.27500000000E+03  0.27500000000E+03  0.00000000000E+00 0.  1.
    9000005    2    1    2  501    0 -0.36063052884E+02  0.18106252424E+02 -0.46059325840E+02  0.47577732389E+03  0.47182011432E+03 0.  0.
         13    1    3    3    0    0 -0.13970379310E+03  0.21134078649E+03 -0.39522507693E+02  0.25640613576E+03  0.00000000000E+00 0.  1.
          1    1    3    3  501    0  0.10364074022E+03 -0.19323453407E+03 -0.65368181469E+01  0.21937118813E+03  0.00000000000E+00 0.  1.
         21    1    1    2  502  501  0.36063052884E+02 -0.18106252424E+02  0.14827885427E+02  0.42991235693E+02  0.00000000000E+00 0. -1.
<scales pt_clust_4="550.00000" pt_clust_5="550.00000" pt_clust_6="40.35319"></scales>
<mgrwt>
<rscale>  0 0.30000000E+03</rscale>
<asrwt>  1 0.40353193E+02</asrwt>
<pdfrwt beam="1">  1        1 0.88643113E+00 0.30000000E+03</pdfrwt>
<pdfrwt beam="2">0</pdfrwt>
<totfact> 0.15797454E-04</totfact>
</mgrwt>
<clustering>
<clus scale="   40.353">  1  6  2 -1</clus>
<clus scale="  471.820">  4  5 -1 -1</clus>
<clus scale="  300.000">  1  4  2 -1</clus>
</clustering>
</event>
<event>
 6    1  0.9254630E-012  0.3000000E+03  0.7818608E-02  0.1093470E+00
          1   -1    0    0  502    0  0.00000000000E+00  0.00000000000E+00  0.23022779521E+03  0.23022779521E+03  0.00000000000E+00 0.  1.
         13   -1    0    0    0    0 -0.00000000000E+00 -0.00000000000E+00 -0.27500000000E+03  0.27500000000E+03  0.00000000000E+00 0.  1.
    9000005    2    1    2  501    0  0.27401088523E+02 -0.13902925631E+02 -0.68935134855E+02  0.46613868953E+03  0.45998816731E+03 0.  0.
         13    1    3    3    0    0  0.24416062605E+02 -0.20602576182E+03 -0.15161138340E+03  0.25696063944E+03  0.00000000000E+00 0.  1.
          1    1    3    3  501    0  0.29850259179E+01  0.19212283619E+03  0.82676248547E+02  0.20917805009E+03  0.00000000000E+00 0.  1.
         21    1    1    2  502  501 -0.27401088523E+02  0.13902925631E+02  0.24162930062E+02  0.39089105676E+02  0.00000000000E+00 0.  1.
<scales pt_clust_4="550.00000" pt_clust_5="550.00000" pt_clust_6="30.72639"></scales>
<mgrwt>
<rscale>  0 0.30000000E+03</rscale>
<asrwt>  1 0.30726389E+02</asrwt>
<pdfrwt beam="1">  1        1 0.83719198E+00 0.30000000E+03</pdfrwt>
<pdfrwt beam="2">0</pdfrwt>
<totfact> 0.53452873E-04</totfact>
</mgrwt>
<clustering>
<clus scale="   30.726">  1  6  2 -1</clus>
<clus scale="  459.988">  4  5 -1 -1</clus>
<clus scale="  300.000">  1  4  2 -1</clus>
</clustering>
</event>
<event>
 6    1  0.9254630E-012  0.3000000E+03  0.7818608E-02  0.1093470E+00
          1   -1    0    0  502    0  0.00000000000E+00  0.00000000000E+00  0.24867759569E+03  0.24867759569E+03  0.00000000000E+00 0.  1.
         13   -1    0    0    0    0 -0.00000000000E+00 -0.00000000000E+00 -0.27500000000E+03  0.27500000000E+03  0.00000000000E+00 0.  1.
    9000005    2    1    2  501    0  0.29087823415E+02 -0.25646193060E+02 -0.64866667510E+02  0.46900137677E+03  0.46287231303E+03 0.  0.
         13    1    3    3    0    0 -0.24236800570E+02 -0.31373512246E+02 -0.26185688696E+03  0.26484098818E+03  0.00000000000E+00 0.  1.
          1    1    3    3  501    0  0.53324623985E+02  0.57273191853E+01  0.19699021945E+03  0.20416038859E+03  0.00000000000E+00 0.  1.
         21    1    1    2  502  501 -0.29087823415E+02  0.25646193060E+02  0.38544263202E+02  0.54676218919E+02  0.00000000000E+00 0. -1.
<scales pt_clust_4="550.00000" pt_clust_5="550.00000" pt_clust_6="38.77923"></scales>
<mgrwt>
<rscale>  0 0.30000000E+03</rscale>
<asrwt>  1 0.38779230E+02</asrwt>
<pdfrwt beam="1">  1        1 0.90428217E+00 0.30000000E+03</pdfrwt>
<pdfrwt beam="2">0</pdfrwt>
<totfact> 0.93526471E-05</totfact>
</mgrwt>
<clustering>
<clus scale="   38.779">  1  6  2 -1</clus>
<clus scale="  462.872">  4  5 -1 -1</clus>
<clus scale="  300.000">  1  4  2 -1</clus>
</clustering>
</event>
<event>
 6    1  0.9254630E-012  0.3000000E+03  0.7818608E-02  0.1093470E+00
          1   -1    0    0  502    0  0.00000000000E+00  0.00000000000E+00  0.25526016501E+03  0.25526016501E+03  0.00000000000E+00 0.  1.
         13   -1    0    0    0    0 -0.00000000000E+00 -0.00000000000E+00 -0.27500000000E+03  0.27500000000E+03  0.00000000000E+00 0.  1.
    9000005    2    1    2  501    0 -0.15662886306E+02 -0.30594598273E+02 -0.69451073890E+02  0.46982372961E+03  0.46338917746E+03 0.  0.
         13    1    3    3    0    0  0.19716939762E+03 -0.55343637174E+02  0.67385310772E+02  0.21559097764E+03  0.00000000000E+00 0.  1.
          3    1    3    3  501    0 -0.21283228392E+03  0.24749038901E+02 -0.13683638466E+03  0.25423275197E+03  0.00000000000E+00 0.  1.
         21    1    1    2  502  501  0.15662886306E+02  0.30594598273E+02  0.49711238905E+02  0.60436435404E+02  0.00000000000E+00 0.  1.
<scales pt_clust_4="550.00000" pt_clust_5="550.00000" pt_clust_6="34.37085"></scales>
<mgrwt>
<rscale>  0 0.30000000E+03</rscale>
<asrwt>  1 0.34370852E+02</asrwt>
<pdfrwt beam="1">  1        1 0.92821878E+00 0.30000000E+03</pdfrwt>
<pdfrwt beam="2">0</pdfrwt>
<totfact> 0.28317057E-05</totfact>
</mgrwt>
<clustering>
<clus scale="   34.371">  1  6  2 -1</clus>
<clus scale="  463.389">  4  5 -1 -1</clus>
<clus scale="  300.000">  1  4  2 -1</clus>
</clustering>
</event>
<event>
 6    1  0.9254630E-012  0.3000000E+03  0.7818608E-02  0.1093470E+00
          1   -1    0    0  502    0  0.00000000000E+00  0.00000000000E+00  0.23373136836E+03  0.23373136836E+03  0.00000000000E+00 0.  1.
         13   -1    0    0    0    0 -0.00000000000E+00 -0.00000000000E+00 -0.27500000000E+03  0.27500000000E+03  0.00000000000E+00 0.  1.
    9000005    2    1    2  501    0 -0.94060251348E+00  0.41827918338E+02 -0.15601881569E+02  0.45964734301E+03  0.45747327981E+03 0.  0.
         13    1    3    3    0    0  0.17630886715E+03  0.16592702159E+03 -0.22587620034E+02  0.24316001667E+03  0.00000000000E+00 0.  1.
          3    1    3    3  501    0 -0.17724946966E+03 -0.12409910325E+03  0.69857384652E+01  0.21648732634E+03  0.00000000000E+00 0.  1.
         21    1    1    2  502  501  0.94060251348E+00 -0.41827918338E+02 -0.25666750067E+02  0.49084025351E+02  0.00000000000E+00 0. -1.
<scales pt_clust_4="550.00000" pt_clust_5="550.00000" pt_clust_6="41.83851"></scales>
<mgrwt>
<rscale>  0 0.30000000E+03</rscale>
<asrwt>  1 0.41838514E+02</asrwt>
<pdfrwt beam="1">  1        1 0.84993225E+00 0.30000000E+03</pdfrwt>
<pdfrwt beam="2">0</pdfrwt>
<totfact> 0.39441690E-04</totfact>
</mgrwt>
<clustering>
<clus scale="   41.839">  1  6  2 -1</clus>
<clus scale="  457.473">  4  5 -1 -1</clus>
<clus scale="  300.000">  1  4  2 -1</clus>
</clustering>
</event>
<event>
 6    1  0.9254630E-012  0.3000000E+03  0.7818608E-02  0.1093470E+00
          1   -1    0    0  502    0  0.00000000000E+00  0.00000000000E+00  0.23397211839E+03  0.23397211839E+03  0.00000000000E+00 0.  1.
         13   -1    0    0    0    0 -0.00000000000E+00 -0.00000000000E+00 -0.27500000000E+03  0.27500000000E+03  0.00000000000E+00 0.  1.
    9000005    2    1    2  501    0  0.16700213574E+02 -0.25902309203E+02 -0.73991064344E+02  0.46384564976E+03  0.45686790480E+03 0.  0.
         13    1    3    3    0    0 -0.14304929967E+03  0.28577333438E+02 -0.20400383667E+03  0.25079340402E+03  0.00000000000E+00 0.  1.
          3    1    3    3  501    0  0.15974951324E+03 -0.54479642641E+02  0.13001277233E+03  0.21305224573E+03  0.00000000000E+00 0.  1.
         21    1    1    2  502  501 -0.16700213574E+02  0.25902309203E+02  0.32963182733E+02  0.45126468634E+02  0.00000000000E+00 0. -1.
<scales pt_clust_4="550.00000" pt_clust_5="550.00000" pt_clust_6="30.81926"></scales>
<mgrwt>
<rscale>  0 0.30000000E+03</rscale>
<asrwt>  1 0.30819259E+02</asrwt>
<pdfrwt beam="1">  1        1 0.85080770E+00 0.30000000E+03</pdfrwt>
<pdfrwt beam="2">0</pdfrwt>
<totfact> 0.40966094E-04</totfact>
</mgrwt>
<clustering>
<clus scale="   30.819">  1  6  2 -1</clus>
<clus scale="  456.868">  4  5 -1 -1</clus>
<clus scale="  300.000">  1  4  2 -1</clus>
</clustering>
</event>
<event>
 6    1  0.9254630E-012  0.3000000E+03  0.7818608E-02  0.1093470E+00
          1   -1    0    0  502    0  0.00000000000E+00  0.00000000000E+00  0.23381849598E+03  0.23381849598E+03  0.00000000000E+00 0.  1.
         13   -1    0    0    0    0 -0.00000000000E+00 -0.00000000000E+00 -0.27500000000E+03  0.27500000000E+03  0.00000000000E+00 0.  1.
    9000005    2    1    2  501    0 -0.25760623926E+02  0.16528951046E+02 -0.62340529743E+02  0.47160935279E+03  0.46646781670E+03 0.  0.
         13    1    3    3    0    0  0.13729048024E+03 -0.14252152799E+03 -0.12662248939E+03  0.23493470736E+03  0.00000000000E+00 0.  1.
          1    1    3    3  501    0 -0.16305110417E+03  0.15905047903E+03  0.64281959644E+02  0.23667464542E+03  0.00000000000E+00 0.  1.
         21    1    1    2  502  501  0.25760623926E+02 -0.16528951046E+02  0.21159025727E+02  0.37209143197E+02  0.00000000000E+00 0.  1.
<scales pt_clust_4="550.00000" pt_clust_5="550.00000" pt_clust_6="30.60745"></scales>
<mgrwt>
<rscale>  0 0.30000000E+03</rscale>
<asrwt>  1 0.30607450E+02</asrwt>
<pdfrwt beam="1">  1        1 0.85024908E+00 0.30000000E+03</pdfrwt>
<pdfrwt beam="2">0</pdfrwt>
<totfact> 0.41521310E-04</totfact>
</mgrwt>
<clustering>
<clus scale="   30.607">  1  6  2 -1</clus>
<clus scale="  466.468">  4  5 -1 -1</clus>
<clus scale="  300.000">  1  4  2 -1</clus>
</clustering>
</event>
<event>
 6    1  0.9254630E-012  0.3000000E+03  0.7818608E-02  0.1093470E+00
          1   -1    0    0  502    0  0.00000000000E+00  0.00000000000E+00  0.22910522066E+03  0.22910522066E+03  0.00000000000E+00 0.  1.
         13   -1    0    0    0    0 -0.00000000000E+00 -0.00000000000E+00 -0.27500000000E+03  0.27500000000E+03  0.00000000000E+00 0.  1.
    9000005    2    1    2  501    0 -0.28704612740E+01  0.41693583679E+02 -0.40414659816E+02  0.46195517703E+03  0.45828227806E+03 0.  0.
         13    1    3    3    0    0 -0.97156138400E+02 -0.39066540009E+02 -0.21999217096E+03  0.24364331524E+03  0.00000000000E+00 0.  1.
          1    1    3    3  501    0  0.94285677126E+02  0.80760123688E+02  0.17957751114E+03  0.21831186179E+03  0.00000000000E+00 0.  1.
         21    1    1    2  502  501  0.28704612740E+01 -0.41693583679E+02 -0.54801195283E+01  0.42150043630E+02  0.00000000000E+00 0. -1.
<scales pt_clust_4="550.00000" pt_clust_5="550.00000" pt_clust_6="41.79230"></scales>
<mgrwt>
<rscale>  0 0.30000000E+03</rscale>
<asrwt>  1 0.41792299E+02</asrwt>
<pdfrwt beam="1">  1        1 0.83310989E+00 0.30000000E+03</pdfrwt>
<pdfrwt beam="2">0</pdfrwt>
<totfact> 0.54075134E-04</totfact>
</mgrwt>
<clustering>
<clus scale="   41.792">  1  6  2 -1</clus>
<clus scale="  458.282">  4  5 -1 -1</clus>
<clus scale="  300.000">  1  4  2 -1</clus>
</clustering>
</event>
<event>
 6    1  0.9254630E-012  0.3000000E+03  0.7818608E-02  0.1093470E+00
          1   -1    0    0  502    0  0.00000000000E+00  0.00000000000E+00  0.24152396551E+03  0.24152396551E+03  0.00000000000E+00 0.  1.
         13   -1    0    0    0    0 -0.00000000000E+00 -0.00000000000E+00 -0.27500000000E+03  0.27500000000E+03  0.00000000000E+00 0.  1.
    9000005    2    1    2  501    0  0.39923874949E+02  0.39072914889E+01 -0.53496640325E+02  0.47169085971E+03  0.46692739681E+03 0.  0.
         13    1    3    3    0    0  0.15149530706E+02  0.23186478476E+03 -0.67496881392E+02  0.24196407934E+03  0.00000000000E+00 0.  1.
          3    1    3    3  501    0  0.24774344243E+02 -0.22795749327E+03  0.14000241068E+02  0.22972678037E+03  0.00000000000E+00 0.  1.
         21    1    1    2  502  501 -0.39923874949E+02 -0.39072914889E+01  0.20020605837E+02  0.44833105802E+02  0.00000000000E+00 0.  1.
<scales pt_clust_4="550.00000" pt_clust_5="550.00000" pt_clust_6="40.11462"></scales>
<mgrwt>
<rscale>  0 0.30000000E+03</rscale>
<asrwt>  1 0.40114620E+02</asrwt>
<pdfrwt beam="1">  1        1 0.87826897E+00 0.30000000E+03</pdfrwt>
<pdfrwt beam="2">0</pdfrwt>
<totfact> 0.20186704E-04</totfact>
</mgrwt>
<clustering>
<clus scale="   40.115">  1  6  2 -1</clus>
<clus scale="  466.927">  4  5 -1 -1</clus>
<clus scale="  300.000">  1  4  2 -1</clus>
</clustering>
</event>
<event>
 6    1  0.9254630E-012  0.3000000E+03  0.7818608E-02  0.1093470E+00
          1   -1    0    0  502    0  0.00000000000E+00  0.00000000000E+00  0.24621045357E+03  0.24621045357E+03  0.00000000000E+00 0.  1.
         13   -1    0    0    0    0 -0.00000000000E+00 -0.00000000000E+00 -0.27500000000E+03  0.27500000000E+03  0.00000000000E+00 0.  1.
    9000005    2    1    2  501    0  0.19555128386E+02 -0.32567550757E+02 -0.56871750887E+02  0.47397001945E+03  0.46900973858E+03 0.  0.
         13    1    3    3    0    0  0.22513278341E+03 -0.10246166003E+03  0.75911212398E+01  0.24746875977E+03  0.00000000000E+00 0.  1.
          1    1    3    3  501    0 -0.20557765502E+03  0.69894109269E+02 -0.64462872127E+02  0.22650125968E+03  0.00000000000E+00 0.  1.
         21    1    1    2  502  501 -0.19555128386E+02  0.32567550757E+02  0.28082204456E+02  0.47240434118E+02  0.00000000000E+00 0.  1.
<scales pt_clust_4="550.00000" pt_clust_5="550.00000" pt_clust_6="37.98748"></scales>
<mgrwt>
<rscale>  0 0.30000000E+03</rscale>
<asrwt>  1 0.37987477E+02</asrwt>
<pdfrwt beam="1">  1        1 0.89531074E+00 0.30000000E+03</pdfrwt>
<pdfrwt beam="2">0</pdfrwt>
<totfact> 0.12319831E-04</totfact>
</mgrwt>
<clustering>
<clus scale="   37.987">  1  6  2 -1</clus>
<clus scale="  469.010">  4  5 -1 -1</clus>
<clus scale="  300.000">  1  4  2 -1</clus>
</clustering>
</event>
<event>
 6    1  0.9254630E-012  0.3000000E+03  0.7818608E-02  0.1093470E+00
          1   -1    0    0  502    0  0.00000000000E+00  0.00000000000E+00  0.23351968807E+03  0.23351968807E+03  0.00000000000E+00 0.  1.
         13   -1    0    0    0    0 -0.00000000000E+00 -0.00000000000E+00 -0.27500000000E+03  0.27500000000E+03  0.00000000000E+00 0.  1.
    9000005    2    1    2  501    0 -0.15611936047E+02 -0.26898731407E+02 -0.62963957714E+02  0.47071993497E+03  0.46545195553E+03 0.  0.
         13    1    3    3    0    0 -0.21941034653E+03  0.62971063840E+02  0.28296390213E+02  0.23001508808E+03  0.00000000000E+00 0.  1.
          3    1    3    3  501    0  0.20379841048E+03 -0.89869795246E+02 -0.91260347927E+02  0.24070484689E+03  0.00000000000E+00 0.  1.
         21    1    1    2  502  501  0.15611936047E+02  0.26898731407E+02  0.21483645782E+02  0.37799753101E+02  0.00000000000E+00 0. -1.
<scales pt_clust_4="550.00000" pt_clust_5="550.00000" pt_clust_6="31.10103"></scales>
<mgrwt>
<rscale>  0 0.30000000E+03</rscale>
<asrwt>  1 0.31101034E+02</asrwt>
<pdfrwt beam="1">  1        1 0.84916250E+00 0.30000000E+03</pdfrwt>
<pdfrwt beam="2">0</pdfrwt>
<totfact> 0.42374051E-04</totfact>
</mgrwt>
<clustering>
<clus scale="   31.101">  1  6  2 -1</clus>
<clus scale="  465.452">  4  5 -1 -1</clus>
<clus scale="  300.000">  1  4  2 -1</clus>
</clustering>
</event>
<event>
 6    1  0.9254630E-012  0.3000000E+03  0.7818608E-02  0.1093470E+00
          1   -1    0    0  502    0  0.00000000000E+00  0.00000000000E+00  0.24471700158E+03  0.24471700158E+03  0.00000000000E+00 0.  1.
         13   -1    0    0    0    0 -0.00000000000E+00 -0.00000000000E+00 -0.27500000000E+03  0.27500000000E+03  0.00000000000E+00 0.  1.
    9000005    2    1    2  501    0 -0.25524317665E+02 -0.24045115342E+02 -0.35003264204E+02  0.48433424769E+03  0.48179329241E+03 0.  0.
         13    1    3    3    0    0  0.10808972531E+03 -0.12074363995E+03  0.16081775632E+03  0.22830848879E+03  0.00000000000E+00 0.  1.
          3    1    3    3  501    0 -0.13361404298E+03  0.96698524607E+02 -0.19582102052E+03  0.25602575890E+03  0.00000000000E+00 0.  1.
         21    1    1    2  502  501  0.25524317665E+02  0.24045115342E+02  0.47202657849E+01  0.35382753895E+02  0.00000000000E+00 0.  1.
<scales pt_clust_4="550.00000" pt_clust_5="550.00000" pt_clust_6="35.06648"></scales>
<mgrwt>
<rscale>  0 0.30000000E+03</rscale>
<asrwt>  1 0.35066485E+02</asrwt>
<pdfrwt beam="1">  1        1 0.88988001E+00 0.30000000E+03</pdfrwt>
<pdfrwt beam="2">0</pdfrwt>
<totfact> 0.14543905E-04</totfact>
</mgrwt>
<clustering>
<clus scale="   35.066">  1  6  2 -1</clus>
<clus scale="  481.793">  4  5 -1 -1</clus>
<clus scale="  300.000">  1  4  2 -1</clus>
</clustering>
</event>
<event>
 6    1  0.9254630E-012  0.3000000E+03  0.7818608E-02  0.1093470E+00
          1   -1    0    0  502    0  0.00000000000E+00  0.00000000000E+00  0.23329679709E+03  0.23329679709E+03  0.00000000000E+00 0.  1.
         13   -1    0    0    0    0 -0.00000000000E+00 -0.00000000000E+00 -0.27500000000E+03  0.27500000000E+03  0.00000000000E+00 0.  1.
    9000005    2    1    2  501    0 -0.84418724774E+01  0.31164319553E+02 -0.64746259478E+02  0.46862990308E+03  0.46301126112E+03 0.  0.
         13    1    3    3    0    0  0.20867996353E+03  0.10524606257E+03 -0.17258569180E+02  0.23435425977E+03  0.00000000000E+00 0.  1.
          1    1    3    3  501    0 -0.21712183600E+03 -0.74081743013E+02 -0.47487690297E+02  0.23427564331E+03  0.00000000000E+00 0.  1.
         21    1    1    2  502  501  0.84418724774E+01 -0.31164319553E+02  0.23043056565E+02  0.39666894005E+02  0.00000000000E+00 0.  1.
<scales pt_clust_4="550.00000" pt_clust_5="550.00000" pt_clust_6="32.28746"></scales>
<mgrwt>
<rscale>  0 0.30000000E+03</rscale>
<asrwt>  1 0.32287459E+02</asrwt>
<pdfrwt beam="1">  1        1 0.84835199E+00 0.30000000E+03</pdfrwt>
<pdfrwt beam="2">0</pdfrwt>
<totfact> 0.42804824E-04</totfact>
</mgrwt>
<clustering>
<clus scale="   32.287">  1  6  2 -1</clus>
<clus scale="  463.011">  4  5 -1 -1</clus>
<clus scale="  300.000">  1  4  2 -1</clus>
</clustering>
</event>
<event>
 6    1  0.9254630E-012  0.3000000E+03  0.7818608E-02  0.1093470E+00
          1   -1    0    0  502    0  0.00000000000E+00  0.00000000000E+00  0.23355273226E+03  0.23355273226E+03  0.00000000000E+00 0.  1.
         13   -1    0    0    0    0 -0.00000000000E+00 -0.00000000000E+00 -0.27500000000E+03  0.27500000000E+03  0.00000000000E+00 0.  1.
    9000005    2    1    2  501    0  0.36920920067E+02 -0.12223865042E+02 -0.61401931210E+02  0.46484042496E+03  0.45912290981E+03 0.  0.
         13    1    3    3    0    0 -0.66845094410E+02  0.69562278863E+02  0.17167223861E+03  0.19692266196E+03  0.00000000000E+00 0.  1.
          3    1    3    3  501    0  0.10376601448E+03 -0.81786143905E+02 -0.23307416982E+03  0.26791776300E+03  0.00000000000E+00 0.  1.
         21    1    1    2  502  501 -0.36920920067E+02  0.12223865042E+02  0.19954663474E+02  0.43712307300E+02  0.00000000000E+00 0.  1.
<scales pt_clust_4="550.00000" pt_clust_5="550.00000" pt_clust_6="38.89187"></scales>
<mgrwt>
<rscale>  0 0.30000000E+03</rscale>
<asrwt>  1 0.38891866E+02</asrwt>
<pdfrwt beam="1">  1        1 0.84928266E+00 0.30000000E+03</pdfrwt>
<pdfrwt beam="2">0</pdfrwt>
<totfact> 0.40532204E-04</totfact>
</mgrwt>
<clustering>
<clus scale="   38.892">  1  6  2 -1</clus>
<clus scale="  459.123">  4  5 -1 -1</clus>
<clus scale="  300.000">  1  4  2 -1</clus>
</clustering>
</event>
<event>
 6    1  0.9254630E-012  0.3000000E+03  0.7818608E-02  0.1093470E+00
          1   -1    0    0  502    0  0.00000000000E+00  0.00000000000E+00  0.26300847148E+03  0.26300847148E+03  0.00000000000E+00 0.  1.
         13   -1    0    0    0    0 -0.00000000000E+00 -0.00000000000E+00 -0.27500000000E+03  0.27500000000E+03  0.00000000000E+00 0.  1.
    9000005    2    1    2  501    0 -0.27895132811E+02  0.21596719293E+02 -0.74825263188E+02  0.46594853163E+03  0.45854624347E+03 0.  0.
         13    1    3    3    0    0 -0.18397606381E+03 -0.14173828234E+03 -0.58161990987E+02  0.23941543378E+03  0.00000000000E+00 0.  1.
          1    1    3    3  501    0  0.15608093100E+03  0.16333500164E+03 -0.16663272201E+02  0.22653309785E+03  0.00000000000E+00 0.  1.
         21    1    1    2  502  501  0.27895132811E+02 -0.21596719293E+02  0.62833734666E+02  0.72059939848E+02  0.00000000000E+00 0.  1.
<scales pt_clust_4="550.00000" pt_clust_5="550.00000" pt_clust_6="35.27828"></scales>
<mgrwt>
<rscale>  0 0.30000000E+03</rscale>
<asrwt>  1 0.35278275E+02</asrwt>
<pdfrwt beam="1">  1        1 0.95639444E+00 0.30000000E+03</pdfrwt>
<pdfrwt beam="2">0</pdfrwt>
<totfact> 0.90530476E-06</totfact>
</mgrwt>
<clustering>
<clus scale="   35.278">  1  6  2 -1</clus>
<clus scale="  458.546">  4  5 -1 -1</clus>
<clus scale="  300.000">  1  4  2 -1</clus>
</clustering>
</event>
<event>
 6    1  0.9254630E-012  0.3000000E+03  0.7818608E-02  0.1093470E+00
          1   -1    0    0  502    0  0.00000000000E+00  0.00000000000E+00  0.23995339985E+03  0.23995339985E+03  0.00000000000E+00 0.  1.
         13   -1    0    0    0    0 -0.00000000000E+00 -0.00000000000E+00 -0.27500000000E+03  0.27500000000E+03  0.00000000000E+00 0.  1.
    9000005    2    1    2  501    0  0.30596298603E+02  0.91418435577E-01 -0.40830387095E+02  0.48381509487E+03  0.48111722446E+03 0.  0.
         13    1    3    3    0    0 -0.20679761523E+03  0.93403981221E+02 -0.14272068087E+02  0.22736149476E+03  0.00000000000E+00 0.  1.
          3    1    3    3  501    0  0.23739391384E+03 -0.93312562785E+02 -0.26558319008E+02  0.25645360011E+03  0.00000000000E+00 0.  1.
         21    1    1    2  502  501 -0.30596298603E+02 -0.91418435577E-01  0.57837869488E+01  0.31138304980E+02  0.00000000000E+00 0. -1.
<scales pt_clust_4="550.00000" pt_clust_5="550.00000" pt_clust_6="30.59644"></scales>
<mgrwt>
<rscale>  0 0.30000000E+03</rscale>
<asrwt>  1 0.30596435E+02</asrwt>
<pdfrwt beam="1">  1        1 0.87255782E+00 0.30000000E+03</pdfrwt>
<pdfrwt beam="2">0</pdfrwt>
<totfact> 0.24461262E-04</totfact>
</mgrwt>
<clustering>
<clus scale="   30.596">  1  6  2 -1</clus>
<clus scale="  481.117">  4  5 -1 -1</clus>
<clus scale="  300.000">  1  4  2 -1</clus>
</clustering>
</event>
<event>
 6    1  0.9254630E-012  0.3000000E+03  0.7818608E-02  0.1093470E+00
          1   -1    0    0  502    0  0.00000000000E+00  0.00000000000E+00  0.23931148608E+03  0.23931148608E+03  0.00000000000E+00 0.  1.
         13   -1    0    0    0    0 -0.00000000000E+00 -0.00000000000E+00 -0.27500000000E+03  0.27500000000E+03  0.00000000000E+00 0.  1.
    9000005    2    1    2  501    0  0.20146925383E+02 -0.23943704270E+02 -0.73110113093E+02  0.46553059165E+03  0.45868774079E+03 0.  0.
         13    1    3    3    0    0  0.15055291677E+03  0.14020934806E+03  0.63494272485E+02  0.21530528250E+03  0.00000000000E+00 0.  1.
          1    1    3    3  501    0 -0.13040599139E+03 -0.16415305233E+03 -0.13660438558E+03  0.25022530915E+03  0.00000000000E+00 0.  1.
         21    1    1    2  502  501 -0.20146925383E+02  0.23943704270E+02  0.37421599177E+02  0.48780894431E+02  0.00000000000E+00 0.  1.
<scales pt_clust_4="550.00000" pt_clust_5="550.00000" pt_clust_6="31.29216"></scales>
<mgrwt>
<rscale>  0 0.30000000E+03</rscale>
<asrwt>  1 0.31292165E+02</asrwt>
<pdfrwt beam="1">  1        1 0.87022359E+00 0.30000000E+03</pdfrwt>
<pdfrwt beam="2">0</pdfrwt>
<totfact> 0.25731011E-04</totfact>
</mgrwt>
<clustering>
<clus scale="   31.292">  1  6  2 -1</clus>
<clus scale="  458.688">  4  5 -1 -1</clus>
<clus scale="  300.000">  1  4  2 -1</clus>
</clustering>
</event>
<event>
 6    1  0.9254630E-012  0.3000000E+03  0.7818608E-02  0.1093470E+00
          1   -1    0    0  502    0  0.00000000000E+00  0.00000000000E+00  0.23593958583E+03  0.23593958583E+03  0.00000000000E+00 0.  1.
         13   -1    0    0    0    0 -0.00000000000E+00 -0.00000000000E+00 -0.27500000000E+03  0.27500000000E+03  0.00000000000E+00 0.  1.
    9000005    2    1    2  501    0  0.24091923409E+02 -0.18637529280E+02 -0.57695372534E+02  0.47523188436E+03  0.47073220585E+03 0.  0.
         13    1    3    3    0    0 -0.89193371286E+02  0.20358670208E+03 -0.29083505980E+02  0.22416255946E+03  0.00000000000E+00 0.  1.
          3    1    3    3  501    0  0.11328529470E+03 -0.22222423136E+03 -0.28611866554E+02  0.25106932490E+03  0.00000000000E+00 0.  1.
         21    1    1    2  502  501 -0.24091923409E+02  0.18637529280E+02  0.18634958367E+02  0.35707701474E+02  0.00000000000E+00 0.  1.
<scales pt_clust_4="550.00000" pt_clust_5="550.00000" pt_clust_6="30.45945"></scales>
<mgrwt>
<rscale>  0 0.30000000E+03</rscale>
<asrwt>  1 0.30459453E+02</asrwt>
<pdfrwt beam="1">  1        1 0.85796213E+00 0.30000000E+03</pdfrwt>
<pdfrwt beam="2">0</pdfrwt>
<totfact> 0.34895635E-04</totfact>
</mgrwt>
<clustering>
<clus scale="   30.459">  1  6  2 -1</clus>
<clus scale="  470.732">  4  5 -1 -1</clus>
<clus scale="  300.000">  1  4  2 -1</clus>
</clustering>
</event>
<event>
 6    1  0.9254630E-012  0.3000000E+03  0.7818608E-02  0.1093470E+00
          1   -1    0    0  502    0  0.00000000000E+00  0.00000000000E+00  0.24711964808E+03  0.24711964808E+03  0.00000000000E+00 0.  1.
         13   -1    0    0    0    0 -0.00000000000E+00 -0.00000000000E+00 -0.27500000000E+03  0.27500000000E+03  0.00000000000E+00 0.  1.
    9000005    2    1    2  501    0  0.25547041329E+02  0.32063200069E+02 -0.50650930591E+02  0.47522402598E+03  0.47073523129E+03 0.  0.
         13    1    3    3    0    0  0.10521337424E+03  0.16366502212E+03  0.13298099265E+03  0.23566934037E+03  0.00000000000E+00 0.  1.
          3    1    3    3  501    0 -0.79666332909E+02 -0.13160182205E+03 -0.18363192324E+03  0.23955468561E+03  0.00000000000E+00 0.  1.
         21    1    1    2  502  501 -0.25547041329E+02 -0.32063200069E+02  0.22770578675E+02  0.46895622105E+02  0.00000000000E+00 0.  1.
<scales pt_clust_4="550.00000" pt_clust_5="550.00000" pt_clust_6="40.99634"></scales>
<mgrwt>
<rscale>  0 0.30000000E+03</rscale>
<asrwt>  1 0.40996343E+02</asrwt>
<pdfrwt beam="1">  1        1 0.89861690E+00 0.30000000E+03</pdfrwt>
<pdfrwt beam="2">0</pdfrwt>
<totfact> 0.11148490E-04</totfact>
</mgrwt>
<clustering>
<clus scale="   40.996">  1  6  2 -1</clus>
<clus scale="  470.735">  4  5 -1 -1</clus>
<clus scale="  300.000">  1  4  2 -1</clus>
</clustering>
</event>
<event>
 6    1  0.9254630E-012  0.3000000E+03  0.7818608E-02  0.1093470E+00
          1   -1    0    0  502    0  0.00000000000E+00  0.00000000000E+00  0.23482263415E+03  0.23482263415E+03  0.00000000000E+00 0.  1.
         13   -1    0    0    0    0 -0.00000000000E+00 -0.00000000000E+00 -0.27500000000E+03  0.27500000000E+03  0.00000000000E+00 0.  1.
    9000005    2    1    2  501    0  0.25865986913E+02 -0.17169320096E+02 -0.57240415794E+02  0.47439690191E+03  0.46990650188E+03 0.  0.
         13    1    3    3    0    0 -0.17430508364E+02  0.13593817723E+03  0.15644135674E+03  0.20798295303E+03  0.00000000000E+00 0.  1.
          3    1    3    3  501    0  0.43296495277E+02 -0.15310749733E+03 -0.21368177254E+03  0.26641394888E+03  0.00000000000E+00 0.  1.
         21    1    1    2  502  501 -0.25865986913E+02  0.17169320096E+02  0.17063049940E+02  0.35425732241E+02  0.00000000000E+00 0. -1.
<scales pt_clust_4="550.00000" pt_clust_5="550.00000" pt_clust_6="31.04569"></scales>
<mgrwt>
<rscale>  0 0.30000000E+03</rscale>
<asrwt>  1 0.31045689E+02</asrwt>
<pdfrwt beam="1">  1        1 0.85390049E+00 0.30000000E+03</pdfrwt>
<pdfrwt beam="2">0</pdfrwt>
<totfact> 0.38205924E-04</totfact>
</mgrwt>
<clustering>
<clus scale="   31.046">  1  6  2 -1</clus>
<clus scale="  469.907">  4  5 -1 -1</clus>
<clus scale="  300.000">  1  4  2 -1</clus>
</clustering>
</event>
<event>
 6    1  0.9254630E-012  0.3000000E+03  0.7818608E-02  0.1093470E+00
          1   -1    0    0  502    0  0.00000000000E+00  0.00000000000E+00  0.24246529026E+03  0.24246529026E+03  0.00000000000E+00 0.  1.
         13   -1    0    0    0    0 -0.00000000000E+00 -0.00000000000E+00 -0.27500000000E+03  0.27500000000E+03  0.00000000000E+00 0.  1.
    9000005    2    1    2  501    0 -0.20532338655E+02 -0.33823929935E+02 -0.38432848640E+02  0.47746000049E+03  0.47426293662E+03 0.  0.
         13    1    3    3    0    0  0.15651680072E+03  0.15136595965E+03  0.39469664406E+01  0.21777222319E+03  0.00000000000E+00 0.  1.
          3    1    3    3  501    0 -0.17704913937E+03 -0.18518988958E+03 -0.42379815081E+02  0.25968777731E+03  0.00000000000E+00 0.  1.
         21    1    1    2  502  501  0.20532338655E+02  0.33823929935E+02  0.58981389007E+01  0.40005289768E+02  0.00000000000E+00 0.  1.
<scales pt_clust_4="550.00000" pt_clust_5="550.00000" pt_clust_6="39.56811"></scales>
<mgrwt>
<rscale>  0 0.30000000E+03</rscale>
<asrwt>  1 0.39568108E+02</asrwt>
<pdfrwt beam="1">  1        1 0.88169196E+00 0.30000000E+03</pdfrwt>
<pdfrwt beam="2">0</pdfrwt>
<totfact> 0.18368099E-04</totfact>
</mgrwt>
<clustering>
<clus scale="   39.568">  1  6  2 -1</clus>
<clus scale="  474.263">  4  5 -1 -1</clus>
<clus scale="  300.000">  1  4  2 -1</clus>
</clustering>
</event>
<event>
 6    1  0.9254630E-012  0.3000000E+03  0.7818608E-02  0.1093470E+00
          1   -1    0    0  502    0  0.00000000000E+00  0.00000000000E+00  0.26723099425E+03  0.26723099425E+03  0.00000000000E+00 0.  1.
         13   -1    0    0    0    0 -0.00000000000E+00 -0.00000000000E+00 -0.27500000000E+03  0.27500000000E+03  0.00000000000E+00 0.  1.
    9000005    2    1    2  501    0 -0.44706911732E+02 -0.27992934411E+01 -0.20810024539E+02  0.49557681789E+03  0.49310929956E+03 0.  0.
         13    1    3    3    0    0 -0.53193792182E+02  0.48504132491E+02 -0.25020844527E+03  0.26035840006E+03  0.00000000000E+00 0.  1.
          3    1    3    3  501    0  0.84868804500E+01 -0.51303425932E+02  0.22939842074E+03  0.23521841783E+03  0.00000000000E+00 0.  1.
         21    1    1    2  502  501  0.44706911732E+02  0.27992934411E+01  0.13041018788E+02  0.46654176355E+02  0.00000000000E+00 0. -1.
<scales pt_clust_4="550.00000" pt_clust_5="550.00000" pt_clust_6="44.79446"></scales>
<mgrwt>
<rscale>  0 0.30000000E+03</rscale>
<asrwt>  1 0.44794464E+02</asrwt>
<pdfrwt beam="1">  1        1 0.97174907E+00 0.30000000E+03</pdfrwt>
<pdfrwt beam="2">0</pdfrwt>
<totfact> 0.44604759E-06</totfact>
</mgrwt>
<clustering>
<clus scale="   44.794">  1  6  2 -1</clus>
<clus scale="  493.109">  4  5 -1 -1</clus>
<clus scale="  300.000">  1  4  2 -1</clus>
</clustering>
</event>
<event>
 6    1  0.9254630E-012  0.3000000E+03  0.7818608E-02  0.1093470E+00
          1   -1    0    0  502    0  0.00000000000E+00  0.00000000000E+00  0.23612407619E+03  0.23612407619E+03  0.00000000000E+00 0.  1.
         13   -1    0    0    0    0 -0.00000000000E+00 -0.00000000000E+00 -0.27500000000E+03  0.27500000000E+03  0.00000000000E+00 0.  1.
    9000005    2    1    2  501    0 -0.20153341489E+02  0.25232621869E+02 -0.59942121015E+02  0.47256727336E+03  0.46763653365E+03 0.  0.
         13    1    3    3    0    0  0.71609073444E+02 -0.20665926150E+03 -0.15615747141E+02  0.21927097693E+03  0.00000000000E+00 0.  1.
          1    1    3    3  501    0 -0.91762414933E+02  0.23189188337E+03 -0.44326373873E+02  0.25329629643E+03  0.00000000000E+00 0.  1.
         21    1    1    2  502  501  0.20153341489E+02 -0.25232621869E+02  0.21066197200E+02  0.38556802824E+02  0.00000000000E+00 0.  1.
<scales pt_clust_4="550.00000" pt_clust_5="550.00000" pt_clust_6="32.29307"></scales>
<mgrwt>
<rscale>  0 0.30000000E+03</rscale>
<asrwt>  1 0.32293070E+02</asrwt>
<pdfrwt beam="1">  1        1 0.85863300E+00 0.30000000E+03</pdfrwt>
<pdfrwt beam="2">0</pdfrwt>
<totfact> 0.33954523E-04</totfact>
</mgrwt>
<clustering>
<clus scale="   32.293">  1  6  2 -1</clus>
<clus scale="  467.637">  4  5 -1 -1</clus>
<clus scale="  300.000">  1  4  2 -1</clus>
</clustering>
</event>
<event>
 6    1  0.9254630E-012  0.3000000E+03  0.7818608E-02  0.1093470E+00
          1   -1    0    0  502    0  0.00000000000E+00  0.00000000000E+00  0.23631277175E+03  0.23631277175E+03  0.00000000000E+00 0.  1.
         13   -1    0    0    0    0 -0.00000000000E+00 -0.00000000000E+00 -0.27500000000E+03  0.27500000000E+03  0.00000000000E+00 0.  1.
    9000005    2    1    2  501    0  0.31989950951E+02 -0.28110972128E+02 -0.58085245709E+02  0.46451675913E+03  0.45889905211E+03 0.  0.
         13    1    3    3    0    0 -0.17795374111E+03 -0.58522690785E+02 -0.14335277801E+03  0.23588653687E+03  0.00000000000E+00 0.  1.
          3    1    3    3  501    0  0.20994369206E+03  0.30411718656E+02  0.85267532304E+02  0.22863022226E+03  0.00000000000E+00 0.  1.
         21    1    1    2  502  501 -0.31989950951E+02  0.28110972128E+02  0.19398017458E+02  0.46796012620E+02  0.00000000000E+00 0.  1.
<scales pt_clust_4="550.00000" pt_clust_5="550.00000" pt_clust_6="42.58619"></scales>
<mgrwt>
<rscale>  0 0.30000000E+03</rscale>
<asrwt>  1 0.42586192E+02</asrwt>
<pdfrwt beam="1">  1        1 0.85931917E+00 0.30000000E+03</pdfrwt>
<pdfrwt beam="2">0</pdfrwt>
<totfact> 0.31726027E-04</totfact>
</mgrwt>
<clustering>
<clus scale="   42.586">  1  6  2 -1</clus>
<clus scale="  458.899">  4  5 -1 -1</clus>
<clus scale="  300.000">  1  4  2 -1</clus>
</clustering>
</event>
<event>
 6    1  0.9254630E-012  0.3000000E+03  0.7818608E-02  0.1093470E+00
          1   -1    0    0  502    0  0.00000000000E+00  0.00000000000E+00  0.24024312501E+03  0.24024312501E+03  0.00000000000E+00 0.  1.
         13   -1    0    0    0    0 -0.00000000000E+00 -0.00000000000E+00 -0.27500000000E+03  0.27500000000E+03  0.00000000000E+00 0.  1.
    9000005    2    1    2  501    0 -0.30431029077E+02  0.81488998130E+01 -0.41151199724E+02  0.48309752674E+03  0.48030963660E+03 0.  0.
         13    1    3    3    0    0 -0.68198449259E+02 -0.21756494709E+02 -0.25450085274E+03  0.26437673420E+03  0.00000000000E+00 0.  1.
          3    1    3    3  501    0  0.37767420182E+02  0.29905394522E+02  0.21334965301E+03  0.21872079254E+03  0.00000000000E+00 0.  1.
         21    1    1    2  502  501  0.30431029077E+02 -0.81488998130E+01  0.63943247298E+01  0.32145598262E+02  0.00000000000E+00 0.  1.
<scales pt_clust_4="550.00000" pt_clust_5="550.00000" pt_clust_6="31.50321"></scales>
<mgrwt>
<rscale>  0 0.30000000E+03</rscale>
<asrwt>  1 0.31503208E+02</asrwt>
<pdfrwt beam="1">  1        1 0.87361136E+00 0.30000000E+03</pdfrwt>
<pdfrwt beam="2">0</pdfrwt>
<totfact> 0.23724632E-04</totfact>
</mgrwt>
<clustering>
<clus scale="   31.503">  1  6  2 -1</clus>
<clus scale="  480.310">  4  5 -1 -1</clus>
<clus scale="  300.000">  1  4  2 -1</clus>
</clustering>
</event>
<event>
 6    1  0.9254630E-012  0.3000000E+03  0.7818608E-02  0.1093470E+00
          1   -1    0    0  502    0  0.00000000000E+00  0.00000000000E+00  0.25258302326E+03  0.25258302326E+03  0.00000000000E+00 0.  1.
         13   -1    0    0    0    0 -0.00000000000E+00 -0.00000000000E+00 -0.27500000000E+03  0.27500000000E+03  0.00000000000E+00 0.  1.
    9000005    2    1    2  501    0  0.43956355662E+02 -0.90856137977E+00 -0.43364365278E+02  0.47888210157E+03  0.47488378825E+03 0.  0.
         13    1    3    3    0    0 -0.48977714506E+02  0.55001495001E+02  0.19963040983E+03  0.21278223962E+03  0.00000000000E+00 0.  1.
          3    1    3    3  501    0  0.92934070168E+02 -0.55910056381E+02 -0.24299477510E+03  0.26609986195E+03  0.00000000000E+00 0.  1.
         21    1    1    2  502  501 -0.43956355662E+02  0.90856137977E+00  0.20947388540E+02  0.48700921690E+02  0.00000000000E+00 0.  1.
<scales pt_clust_4="550.00000" pt_clust_5="550.00000" pt_clust_6="43.96574"></scales>
<mgrwt>
<rscale>  0 0.30000000E+03</rscale>
<asrwt>  1 0.43965744E+02</asrwt>
<pdfrwt beam="1">  1        1 0.91848372E+00 0.30000000E+03</pdfrwt>
<pdfrwt beam="2">0</pdfrwt>
<totfact> 0.43281534E-05</totfact>
</mgrwt>
<clustering>
<clus scale="   43.966">  1  6  2 -1</clus>
<clus scale="  474.884">  4  5 -1 -1</clus>
<clus scale="  300.000">  1  4  2 -1</clus>
</clustering>
</event>
<event>
 6    1  0.9254630E-012  0.3000000E+03  0.7818608E-02  0.1093470E+00
          1   -1    0    0  502    0  0.00000000000E+00  0.00000000000E+00  0.24185675904E+03  0.24185675904E+03  0.00000000000E+00 0.  1.
         13   -1    0    0    0    0 -0.00000000000E+00 -0.00000000000E+00 -0.27500000000E+03  0.27500000000E+03  0.00000000000E+00 0.  1.
    9000005    2    1    2  501    0 -0.19512156711E+02 -0.35854961350E+02 -0.60858172713E+02  0.46751691758E+03  0.46173807351E+03 0.  0.
         13    1    3    3    0    0 -0.18188925771E+03  0.95879709700E+02  0.74206348442E+02  0.21859369376E+03  0.00000000000E+00 0.  1.
          1    1    3    3  501    0  0.16237710100E+03 -0.13173467105E+03 -0.13506452116E+03  0.24892322382E+03  0.00000000000E+00 0.  1.
         21    1    1    2  502  501  0.19512156711E+02  0.35854961350E+02  0.27714931752E+02  0.49339841456E+02  0.00000000000E+00 0.  1.
<scales pt_clust_4="550.00000" pt_clust_5="550.00000" pt_clust_6="40.82037"></scales>
<mgrwt>
<rscale>  0 0.30000000E+03</rscale>
<asrwt>  1 0.40820369E+02</asrwt>
<pdfrwt beam="1">  1        1 0.87947912E+00 0.30000000E+03</pdfrwt>
<pdfrwt beam="2">0</pdfrwt>
<totfact> 0.19468888E-04</totfact>
</mgrwt>
<clustering>
<clus scale="   40.820">  1  6  2 -1</clus>
<clus scale="  461.738">  4  5 -1 -1</clus>
<clus scale="  300.000">  1  4  2 -1</clus>
</clustering>
</event>
<event>
 6    1  0.9254630E-012  0.3000000E+03  0.7818608E-02  0.1093470E+00
          1   -1    0    0  502    0  0.00000000000E+00  0.00000000000E+00  0.23972432913E+03  0.23972432913E+03  0.00000000000E+00 0.  1.
         13   -1    0    0    0    0 -0.00000000000E+00 -0.00000000000E+00 -0.27500000000E+03  0.27500000000E+03  0.00000000000E+00 0.  1.
    9000005    2    1    2  501    0  0.36075561954E+02 -0.39565211035E+01 -0.26675311577E+02  0.47742732644E+03  0.47529799027E+03 0.  0.
         13    1    3    3    0    0 -0.19451945246E+03 -0.10335248648E+02 -0.11976857003E+03  0.22866819875E+03  0.00000000000E+00 0.  1.
          1    1    3    3  501    0  0.23059501442E+03  0.63787275445E+01  0.93093258454E+02  0.24875912769E+03  0.00000000000E+00 0.  1.
         21    1    1    2  502  501 -0.36075561954E+02  0.39565211035E+01 -0.86003592962E+01  0.37297002688E+02  0.00000000000E+00 0.  1.
<scales pt_clust_4="550.00000" pt_clust_5="550.00000" pt_clust_6="36.29189"></scales>
<mgrwt>
<rscale>  0 0.30000000E+03</rscale>
<asrwt>  1 0.36291894E+02</asrwt>
<pdfrwt beam="1">  1        1 0.87172483E+00 0.30000000E+03</pdfrwt>
<pdfrwt beam="2">0</pdfrwt>
<totfact> 0.24154945E-04</totfact>
</mgrwt>
<clustering>
<clus scale="   36.292">  1  6  2 -1</clus>
<clus scale="  475.298">  4  5 -1 -1</clus>
<clus scale="  300.000">  1  4  2 -1</clus>
</clustering>
</event>
<event>
 6    1  0.9254630E-012  0.3000000E+03  0.7818608E-02  0.1093470E+00
          1   -1    0    0  502    0  0.00000000000E+00  0.00000000000E+00  0.25243638369E+03  0.25243638369E+03  0.00000000000E+00 0.  1.
         13   -1    0    0    0    0 -0.00000000000E+00 -0.00000000000E+00 -0.27500000000E+03  0.27500000000E+03  0.00000000000E+00 0.  1.
    9000005    2    1    2  501    0  0.35582847197E+02 -0.61054328072E+01 -0.62449139389E+02  0.47363796108E+03  0.46811281529E+03 0.  0.
         13    1    3    3    0    0 -0.55978374700E+02 -0.19672102074E+03 -0.14059733499E+03  0.24819417608E+03  0.00000000000E+00 0.  1.
          1    1    3    3  501    0  0.91561221897E+02  0.19061558793E+03  0.78148195601E+02  0.22544378500E+03  0.00000000000E+00 0.  1.
         21    1    1    2  502  501 -0.35582847197E+02  0.61054328072E+01  0.39885523083E+02  0.53798422616E+02  0.00000000000E+00 0.  1.
<scales pt_clust_4="550.00000" pt_clust_5="550.00000" pt_clust_6="36.10284"></scales>
<mgrwt>
<rscale>  0 0.30000000E+03</rscale>
<asrwt>  1 0.36102844E+02</asrwt>
<pdfrwt beam="1">  1        1 0.91795049E+00 0.30000000E+03</pdfrwt>
<pdfrwt beam="2">0</pdfrwt>
<totfact> 0.46110523E-05</totfact>
</mgrwt>
<clustering>
<clus scale="   36.103">  1  6  2 -1</clus>
<clus scale="  468.113">  4  5 -1 -1</clus>
<clus scale="  300.000">  1  4  2 -1</clus>
</clustering>
</event>
<event>
 6    1  0.9254630E-012  0.3000000E+03  0.7818608E-02  0.1093470E+00
          1   -1    0    0  502    0  0.00000000000E+00  0.00000000000E+00  0.24475598867E+03  0.24475598867E+03  0.00000000000E+00 0.  1.
         13   -1    0    0    0    0 -0.00000000000E+00 -0.00000000000E+00 -0.27500000000E+03  0.27500000000E+03  0.00000000000E+00 0.  1.
    9000005    2    1    2  501    0  0.29193081383E+02  0.84058850259E+01 -0.41478656749E+02  0.48736598773E+03  0.48464650223E+03 0.  0.
         13    1    3    3    0    0  0.17716237514E+03 -0.13000746779E+03 -0.14154460992E+03  0.26138730927E+03  0.00000000000E+00 0.  1.
          1    1    3    3  501    0 -0.14796929376E+03  0.13841335282E+03  0.10006595317E+03  0.22597867846E+03  0.00000000000E+00 0.  1.
         21    1    1    2  502  501 -0.29193081383E+02 -0.84058850259E+01  0.11234645424E+02  0.32390000950E+02  0.00000000000E+00 0.  1.
<scales pt_clust_4="550.00000" pt_clust_5="550.00000" pt_clust_6="30.37919"></scales>
<mgrwt>
<rscale>  0 0.30000000E+03</rscale>
<asrwt>  1 0.30379185E+02</asrwt>
<pdfrwt beam="1">  1        1 0.89002178E+00 0.30000000E+03</pdfrwt>
<pdfrwt beam="2">0</pdfrwt>
<totfact> 0.14879978E-04</totfact>
</mgrwt>
<clustering>
<clus scale="   30.379">  1  6  2 -1</clus>
<clus scale="  484.647">  4  5 -1 -1</clus>
<clus scale="  300.000">  1  4  2 -1</clus>
</clustering>
</event>
<event>
 6    1  0.9254630E-012  0.3000000E+03  0.7818608E-02  0.1093470E+00
          1   -1    0    0  502    0  0.00000000000E+00  0.00000000000E+00  0.24038932438E+03  0.24038932438E+03  0.00000000000E+00 0.  1.
         13   -1    0    0    0    0 -0.00000000000E+00 -0.00000000000E+00 -0.27500000000E+03  0.27500000000E+03  0.00000000000E+00 0.  1.
    9000005    2    1    2  501    0  0.49593297544E+01  0.48057989412E+02 -0.47927346627E+02  0.46527446606E+03  0.46027071699E+03 0.  0.
         13    1    3    3    0    0  0.11880493425E+03 -0.10388820890E+03 -0.17588939473E+03  0.23631430665E+03  0.00000000000E+00 0.  1.
          3    1    3    3  501    0 -0.11384560450E+03  0.15194619831E+03  0.12796204810E+03  0.22896015941E+03  0.00000000000E+00 0.  1.
         21    1    1    2  502  501 -0.49593297544E+01 -0.48057989412E+02  0.13316671012E+02  0.50114858323E+02  0.00000000000E+00 0. -1.
<scales pt_clust_4="550.00000" pt_clust_5="550.00000" pt_clust_6="48.31320"></scales>
<mgrwt>
<rscale>  0 0.30000000E+03</rscale>
<asrwt>  1 0.48313200E+02</asrwt>
<pdfrwt beam="1">  1        1 0.87414300E+00 0.30000000E+03</pdfrwt>
<pdfrwt beam="2">0</pdfrwt>
<totfact> 0.21657791E-04</totfact>
</mgrwt>
<clustering>
<clus scale="   48.313">  1  6  2 -1</clus>
<clus scale="  460.271">  4  5 -1 -1</clus>
<clus scale="  300.000">  1  4  2 -1</clus>
</clustering>
</event>
<event>
 6    1  0.9254630E-012  0.3000000E+03  0.7818608E-02  0.1093470E+00
          1   -1    0    0  502    0  0.00000000000E+00  0.00000000000E+00  0.24649837670E+03  0.24649837670E+03  0.00000000000E+00 0.  1.
         13   -1    0    0    0    0 -0.00000000000E+00 -0.00000000000E+00 -0.27500000000E+03  0.27500000000E+03  0.00000000000E+00 0.  1.
    9000005    2    1    2  501    0  0.65873396887E+01  0.29970056659E+02 -0.48726387835E+02  0.48474734350E+03  0.48131499958E+03 0.  0.
         13    1    3    3    0    0 -0.23095359295E+03 -0.25371284924E+02  0.14462260415E+02  0.23279265704E+03  0.00000000000E+00 0.  1.
          1    1    3    3  501    0  0.23754093264E+03  0.55341341583E+02 -0.63188648250E+02  0.25195468647E+03  0.00000000000E+00 0.  1.
         21    1    1    2  502  501 -0.65873396887E+01 -0.29970056659E+02  0.20224764531E+02  0.36751033192E+02  0.00000000000E+00 0.  1.
<scales pt_clust_4="550.00000" pt_clust_5="550.00000" pt_clust_6="30.68546"></scales>
<mgrwt>
<rscale>  0 0.30000000E+03</rscale>
<asrwt>  1 0.30685458E+02</asrwt>
<pdfrwt beam="1">  1        1 0.89635773E+00 0.30000000E+03</pdfrwt>
<pdfrwt beam="2">0</pdfrwt>
<totfact> 0.12484005E-04</totfact>
</mgrwt>
<clustering>
<clus scale="   30.685">  1  6  2 -1</clus>
<clus scale="  481.315">  4  5 -1 -1</clus>
<clus scale="  300.000">  1  4  2 -1</clus>
</clustering>
</event>
<event>
 6    1  0.9254630E-012  0.3000000E+03  0.7818608E-02  0.1093470E+00
          1   -1    0    0  502    0  0.00000000000E+00  0.00000000000E+00  0.22736643082E+03  0.22736643082E+03  0.00000000000E+00 0.  1.
         13   -1    0    0    0    0 -0.00000000000E+00 -0.00000000000E+00 -0.27500000000E+03  0.27500000000E+03  0.00000000000E+00 0.  1.
    9000005    2    1    2  501    0 -0.37391427864E+01  0.36692041112E+02 -0.60731366815E+02  0.46322771121E+03  0.45774591910E+03 0.  0.
         13    1    3    3    0    0 -0.47760936376E+02 -0.12336615378E+03 -0.20454381001E+03  0.24359492022E+03  0.00000000000E+00 0.  1.
          3    1    3    3  501    0  0.44021793589E+02  0.16005819490E+03  0.14381244319E+03  0.21963279100E+03  0.00000000000E+00 0.  1.
         21    1    1    2  502  501  0.37391427864E+01 -0.36692041112E+02  0.13097797637E+02  0.39138719610E+02  0.00000000000E+00 0. -1.
<scales pt_clust_4="550.00000" pt_clust_5="550.00000" pt_clust_6="36.88207"></scales>
<mgrwt>
<rscale>  0 0.30000000E+03</rscale>
<asrwt>  1 0.36882070E+02</asrwt>
<pdfrwt beam="1">  1        1 0.82678702E+00 0.30000000E+03</pdfrwt>
<pdfrwt beam="2">0</pdfrwt>
<totfact> 0.62362587E-04</totfact>
</mgrwt>
<clustering>
<clus scale="   36.882">  1  6  2 -1</clus>
<clus scale="  457.746">  4  5 -1 -1</clus>
<clus scale="  300.000">  1  4  2 -1</clus>
</clustering>
</event>
<event>
 6    1  0.9254630E-012  0.3000000E+03  0.7818608E-02  0.1093470E+00
          1   -1    0    0  502    0  0.00000000000E+00  0.00000000000E+00  0.23514189653E+03  0.23514189653E+03  0.00000000000E+00 0.  1.
         13   -1    0    0    0    0 -0.00000000000E+00 -0.00000000000E+00 -0.27500000000E+03  0.27500000000E+03  0.00000000000E+00 0.  1.
    9000005    2    1    2  501    0  0.72219224637E+00  0.30405315670E+02 -0.55866847126E+02  0.47577207465E+03  0.47150075040E+03 0.  0.
         13    1    3    3    0    0 -0.17229031106E+03  0.13392084563E+03 -0.13786576053E+03  0.25811956940E+03  0.00000000000E+00 0.  1.
          1    1    3    3  501    0  0.17301250331E+03 -0.10351552996E+03  0.81998913401E+02  0.21765250525E+03  0.00000000000E+00 0.  1.
         21    1    1    2  502  501 -0.72219224637E+00 -0.30405315670E+02  0.16008743656E+02  0.34369821880E+02  0.00000000000E+00 0.  1.
<scales pt_clust_4="550.00000" pt_clust_5="550.00000" pt_clust_6="30.41389"></scales>
<mgrwt>
<rscale>  0 0.30000000E+03</rscale>
<asrwt>  1 0.30413891E+02</asrwt>
<pdfrwt beam="1">  1        1 0.85506144E+00 0.30000000E+03</pdfrwt>
<pdfrwt beam="2">0</pdfrwt>
<totfact> 0.37364014E-04</totfact>
</mgrwt>
<clustering>
<clus scale="   30.414">  1  6  2 -1</clus>
<clus scale="  471.501">  4  5 -1 -1</clus>
<clus scale="  300.000">  1  4  2 -1</clus>
</clustering>
</event>
<event>
 6    1  0.9254630E-012  0.3000000E+03  0.7818608E-02  0.1093470E+00
          1   -1    0    0  502    0  0.00000000000E+00  0.00000000000E+00  0.23866862928E+03  0.23866862928E+03  0.00000000000E+00 0.  1.
         13   -1    0    0    0    0 -0.00000000000E+00 -0.00000000000E+00 -0.27500000000E+03  0.27500000000E+03  0.00000000000E+00 0.  1.
    9000005    2    1    2  501    0  0.34485333735E+02  0.10241726664E+01 -0.33563062612E+02  0.47905720483E+03  0.47663302357E+03 0.  0.
         13    1    3    3    0    0 -0.10888590465E+03 -0.18119571345E+03  0.73316389880E+02  0.22374834040E+03  0.00000000000E+00 0.  1.
          3    1    3    3  501    0  0.14337123839E+03  0.18221988612E+03 -0.10687945249E+03  0.25530886443E+03  0.00000000000E+00 0.  1.
         21    1    1    2  502  501 -0.34485333735E+02 -0.10241726664E+01 -0.27683081080E+01  0.34611424447E+02  0.00000000000E+00 0. -1.
<scales pt_clust_4="550.00000" pt_clust_5="550.00000" pt_clust_6="34.50056"></scales>
<mgrwt>
<rscale>  0 0.30000000E+03</rscale>
<asrwt>  1 0.34500556E+02</asrwt>
<pdfrwt beam="1">  1        1 0.86788592E+00 0.30000000E+03</pdfrwt>
<pdfrwt beam="2">0</pdfrwt>
<totfact> 0.26699241E-04</totfact>
</mgrwt>
<clustering>
<clus scale="   34.501">  1  6  2 -1</clus>
<clus scale="  476.633">  4  5 -1 -1</clus>
<clus scale="  300.000">  1  4  2 -1</clus>
</clustering>
</event>
<event>
 6    1  0.9254630E-012  0.3000000E+03  0.7818608E-02  0.1093470E+00
          1   -1    0    0  502    0  0.00000000000E+00  0.00000000000E+00  0.22367351440E+03  0.22367351440E+03  0.00000000000E+00 0.  1.
         13   -1    0    0    0    0 -0.00000000000E+00 -0.00000000000E+00 -0.27500000000E+03  0.27500000000E+03  0.00000000000E+00 0.  1.
    9000005    2    1    2  501    0 -0.15400905322E+02 -0.26371220759E+02 -0.49778231099E+02  0.46809531528E+03  0.46443807201E+03 0.  0.
         13    1    3    3    0    0 -0.20981701057E+03 -0.88733179568E+00 -0.14001761447E+03  0.25224769105E+03  0.00000000000E+00 0.  1.
          1    1    3    3  501    0  0.19441610525E+03 -0.25483888963E+02  0.90239383367E+02  0.21584762423E+03  0.00000000000E+00 0.  1.
         21    1    1    2  502  501  0.15400905322E+02  0.26371220759E+02 -0.15482545028E+01  0.30578199114E+02  0.00000000000E+00 0. -1.
<scales pt_clust_4="550.00000" pt_clust_5="550.00000" pt_clust_6="30.53898"></scales>
<mgrwt>
<rscale>  0 0.30000000E+03</rscale>
<asrwt>  1 0.30538978E+02</asrwt>
<pdfrwt beam="1">  1        1 0.81335823E+00 0.30000000E+03</pdfrwt>
<pdfrwt beam="2">0</pdfrwt>
<totfact> 0.84204398E-04</totfact>
</mgrwt>
<clustering>
<clus scale="   30.539">  1  6  2 -1</clus>
<clus scale="  464.438">  4  5 -1 -1</clus>
<clus scale="  300.000">  1  4  2 -1</clus>
</clustering>
</event>
<event>
 6    1  0.9254630E-012  0.3000000E+03  0.7818608E-02  0.1093470E+00
          1   -1    0    0  502    0  0.00000000000E+00  0.00000000000E+00  0.24129589144E+03  0.24129589144E+03  0.00000000000E+00 0.  1.
         13   -1    0    0    0    0 -0.00000000000E+00 -0.00000000000E+00 -0.27500000000E+03  0.27500000000E+03  0.00000000000E+00 0.  1.
    9000005    2    1    2  501    0 -0.16649287898E+02  0.25532932478E+02 -0.30998464269E+02  0.48569442188E+03  0.48374480590E+03 0.  0.
         13    1    3    3    0    0  0.22699446970E+03  0.41280296969E+02 -0.63731076763E+02  0.23935789592E+03  0.00000000000E+00 0.  1.
          1    1    3    3  501    0 -0.24364375760E+03 -0.15747364492E+02  0.32732612494E+02  0.24633652597E+03  0.00000000000E+00 0.  1.
         21    1    1    2  502  501  0.16649287898E+02 -0.25532932478E+02 -0.27056442857E+01  0.30601469563E+02  0.00000000000E+00 0. -1.
<scales pt_clust_4="550.00000" pt_clust_5="550.00000" pt_clust_6="30.48164"></scales>
<mgrwt>
<rscale>  0 0.30000000E+03</rscale>
<asrwt>  1 0.30481640E+02</asrwt>
<pdfrwt beam="1">  1        1 0.87743961E+00 0.30000000E+03</pdfrwt>
<pdfrwt beam="2">0</pdfrwt>
<totfact> 0.21719692E-04</totfact>
</mgrwt>
<clustering>
<clus scale="   30.482">  1  6  2 -1</clus>
<clus scale="  483.745">  4  5 -1 -1</clus>
<clus scale="  300.000">  1  4  2 -1</clus>
</clustering>
</event>
<event>
 6    1  0.9254630E-012  0.3000000E+03  0.7818608E-02  0.1093470E+00
          1   -1    0    0  502    0  0.00000000000E+00  0.00000000000E+00  0.25235710195E+03  0.25235710195E+03  0.00000000000E+00 0.  1.
         13   -1    0    0    0    0 -0.00000000000E+00 -0.00000000000E+00 -0.27500000000E+03  0.27500000000E+03  0.00000000000E+00 0.  1.
    9000005    2    1    2  501    0 -0.15465777094E+02 -0.39730575519E+02  0.25125756883E+01  0.47785450858E+03  0.47594212825E+03 0.  0.
         13    1    3    3    0    0  0.32811204260E+02 -0.21233860279E+03  0.13608052791E+03  0.25432689090E+03  0.00000000000E+00 0.  1.
          1    1    3    3  501    0 -0.48276981354E+02  0.17260802727E+03 -0.13356795222E+03  0.22352761768E+03  0.00000000000E+00 0.  1.
         21    1    1    2  502  501  0.15465777094E+02  0.39730575519E+02 -0.25155473734E+02  0.49502593376E+02  0.00000000000E+00 0.  1.
<scales pt_clust_4="550.00000" pt_clust_5="550.00000" pt_clust_6="42.63462"></scales>
<mgrwt>
<rscale>  0 0.30000000E+03</rscale>
<asrwt>  1 0.42634619E+02</asrwt>
<pdfrwt beam="1">  1        1 0.91766219E+00 0.30000000E+03</pdfrwt>
<pdfrwt beam="2">0</pdfrwt>
<totfact> 0.45397077E-05</totfact>
</mgrwt>
<clustering>
<clus scale="   42.635">  1  6  2 -1</clus>
<clus scale="  475.942">  4  5 -1 -1</clus>
<clus scale="  300.000">  1  4  2 -1</clus>
</clustering>
</event>
<event>
 6    1  0.9254630E-012  0.3000000E+03  0.7818608E-02  0.1093470E+00
          1   -1    0    0  502    0  0.00000000000E+00  0.00000000000E+00  0.23300017602E+03  0.23300017602E+03  0.00000000000E+00 0.  1.
         13   -1    0    0    0    0 -0.00000000000E+00 -0.00000000000E+00 -0.27500000000E+03  0.27500000000E+03  0.00000000000E+00 0.  1.
    9000005    2    1    2  501    0  0.20905227803E+01  0.38776664564E+02 -0.44111587466E+02  0.46910982316E+03  0.46541400284E+03 0.  0.
         13    1    3    3    0    0  0.19864838488E+03  0.39727539780E+02  0.99478078627E+02  0.22568860485E+03  0.00000000000E+00 0.  1.
          3    1    3    3  501    0 -0.19655786210E+03 -0.95087521576E+00 -0.14358966609E+03  0.24342121831E+03  0.00000000000E+00 0.  1.
         21    1    1    2  502  501 -0.20905227803E+01 -0.38776664564E+02  0.21117634821E+01  0.38890352855E+02  0.00000000000E+00 0.  1.
<scales pt_clust_4="550.00000" pt_clust_5="550.00000" pt_clust_6="38.83298"></scales>
<mgrwt>
<rscale>  0 0.30000000E+03</rscale>
<asrwt>  1 0.38832976E+02</asrwt>
<pdfrwt beam="1">  1        1 0.84727337E+00 0.30000000E+03</pdfrwt>
<pdfrwt beam="2">0</pdfrwt>
<totfact> 0.42303196E-04</totfact>
</mgrwt>
<clustering>
<clus scale="   38.833">  1  6  2 -1</clus>
<clus scale="  465.414">  4  5 -1 -1</clus>
<clus scale="  300.000">  1  4  2 -1</clus>
</clustering>
</event>
<event>
 6    1  0.9254630E-012  0.3000000E+03  0.7818608E-02  0.1093470E+00
          1   -1    0    0  502    0  0.00000000000E+00  0.00000000000E+00  0.24863902398E+03  0.24863902398E+03  0.00000000000E+00 0.  1.
         13   -1    0    0    0    0 -0.00000000000E+00 -0.00000000000E+00 -0.27500000000E+03  0.27500000000E+03  0.00000000000E+00 0.  1.
    9000005    2    1    2  501    0 -0.21359216610E+02 -0.34419759350E+02 -0.56869836055E+02  0.47292683108E+03  0.46774423923E+03 0.  0.
         13    1    3    3    0    0  0.16292551961E+03 -0.16060404488E+03 -0.92478393622E+02  0.24676028339E+03  0.00000000000E+00 0.  1.
          3    1    3    3  501    0 -0.18428473622E+03  0.12618428553E+03  0.35608557567E+02  0.22616654769E+03  0.00000000000E+00 0.  1.
         21    1    1    2  502  501  0.21359216610E+02  0.34419759350E+02  0.30508860031E+02  0.50712192895E+02  0.00000000000E+00 0.  1.
<scales pt_clust_4="550.00000" pt_clust_5="550.00000" pt_clust_6="40.50847"></scales>
<mgrwt>
<rscale>  0 0.30000000E+03</rscale>
<asrwt>  1 0.40508468E+02</asrwt>
<pdfrwt beam="1">  1        1 0.90414191E+00 0.30000000E+03</pdfrwt>
<pdfrwt beam="2">0</pdfrwt>
<totfact> 0.93318513E-05</totfact>
</mgrwt>
<clustering>
<clus scale="   40.508">  1  6  2 -1</clus>
<clus scale="  467.744">  4  5 -1 -1</clus>
<clus scale="  300.000">  1  4  2 -1</clus>
</clustering>
</event>
<event>
 6    1  0.9254630E-012  0.3000000E+03  0.7818608E-02  0.1093470E+00
          1   -1    0    0  502    0  0.00000000000E+00  0.00000000000E+00  0.22929301443E+03  0.22929301443E+03  0.00000000000E+00 0.  1.
         13   -1    0    0    0    0 -0.00000000000E+00 -0.00000000000E+00 -0.27500000000E+03  0.27500000000E+03  0.00000000000E+00 0.  1.
    9000005    2    1    2  501    0 -0.29306407545E+02 -0.19504292014E+02 -0.59978374734E+02  0.46630676062E+03  0.46109142980E+03 0.  0.
         13    1    3    3    0    0  0.17032232844E+03  0.48489015615E+02  0.98377561516E+02  0.20258090929E+03  0.00000000000E+00 0.  1.
          1    1    3    3  501    0 -0.19962873598E+03 -0.67993307629E+02 -0.15835593625E+03  0.26372585133E+03  0.00000000000E+00 0.  1.
         21    1    1    2  502  501  0.29306407545E+02  0.19504292014E+02  0.14271389168E+02  0.37986253816E+02  0.00000000000E+00 0. -1.
<scales pt_clust_4="550.00000" pt_clust_5="550.00000" pt_clust_6="35.20345"></scales>
<mgrwt>
<rscale>  0 0.30000000E+03</rscale>
<asrwt>  1 0.35203451E+02</asrwt>
<pdfrwt beam="1">  1        1 0.83379278E+00 0.30000000E+03</pdfrwt>
<pdfrwt beam="2">0</pdfrwt>
<totfact> 0.55156704E-04</totfact>
</mgrwt>
<clustering>
<clus scale="   35.203">  1  6  2 -1</clus>
<clus scale="  461.091">  4  5 -1 -1</clus>
<clus scale="  300.000">  1  4  2 -1</clus>
</clustering>
</event>
<event>
 6    1  0.9254630E-012  0.3000000E+03  0.7818608E-02  0.1093470E+00
          1   -1    0    0  502    0  0.00000000000E+00  0.00000000000E+00  0.24390712350E+03  0.24390712350E+03  0.00000000000E+00 0.  1.
         13   -1    0    0    0    0 -0.00000000000E+00 -0.00000000000E+00 -0.27500000000E+03  0.27500000000E+03  0.00000000000E+00 0.  1.
    9000005    2    1    2  501    0 -0.91170281142E+01  0.30570665298E+02 -0.12108817150E+02  0.48178461970E+03  0.48057477103E+03 0.  0.
         13    1    3    3    0    0  0.12557927509E+03 -0.34425066592E+02  0.19001254686E+03  0.23034757977E+03  0.00000000000E+00 0.  1.
          1    1    3    3  501    0 -0.13469630320E+03  0.64995731890E+02 -0.20212136401E+03  0.25143703993E+03  0.00000000000E+00 0.  1.
         21    1    1    2  502  501  0.91170281142E+01 -0.30570665298E+02 -0.18984059355E+02  0.37122503795E+02  0.00000000000E+00 0. -1.
<scales pt_clust_4="550.00000" pt_clust_5="550.00000" pt_clust_6="31.90120"></scales>
<mgrwt>
<rscale>  0 0.30000000E+03</rscale>
<asrwt>  1 0.31901204E+02</asrwt>
<pdfrwt beam="1">  1        1 0.88693499E+00 0.30000000E+03</pdfrwt>
<pdfrwt beam="2">0</pdfrwt>
<totfact> 0.16241695E-04</totfact>
</mgrwt>
<clustering>
<clus scale="   31.901">  1  6  2 -1</clus>
<clus scale="  480.575">  4  5 -1 -1</clus>
<clus scale="  300.000">  1  4  2 -1</clus>
</clustering>
</event>
<event>
 6    1  0.9254630E-012  0.3000000E+03  0.7818608E-02  0.1093470E+00
          1   -1    0    0  502    0  0.00000000000E+00  0.00000000000E+00  0.25316933767E+03  0.25316933767E+03  0.00000000000E+00 0.  1.
         13   -1    0    0    0    0 -0.00000000000E+00 -0.00000000000E+00 -0.27500000000E+03  0.27500000000E+03  0.00000000000E+00 0.  1.
    9000005    2    1    2  501    0 -0.19575586053E+02 -0.26198243227E+02 -0.20279814199E+02  0.49542858864E+03  0.49393184151E+03 0.  0.
         13    1    3    3    0    0 -0.11591588389E+03 -0.23658213292E+03 -0.17214680084E+02  0.26401504306E+03  0.00000000000E+00 0.  1.
          3    1    3    3  501    0  0.96340297837E+02  0.21038388969E+03 -0.30651341141E+01  0.23141354557E+03  0.00000000000E+00 0.  1.
         21    1    1    2  502  501  0.19575586053E+02  0.26198243227E+02 -0.15508481279E+01  0.32740749035E+02  0.00000000000E+00 0. -1.
<scales pt_clust_4="550.00000" pt_clust_5="550.00000" pt_clust_6="32.70401"></scales>
<mgrwt>
<rscale>  0 0.30000000E+03</rscale>
<asrwt>  1 0.32704015E+02</asrwt>
<pdfrwt beam="1">  1        1 0.92061577E+00 0.30000000E+03</pdfrwt>
<pdfrwt beam="2">0</pdfrwt>
<totfact> 0.41059515E-05</totfact>
</mgrwt>
<clustering>
<clus scale="   32.704">  1  6  2 -1</clus>
<clus scale="  493.932">  4  5 -1 -1</clus>
<clus scale="  300.000">  1  4  2 -1</clus>
</clustering>
</event>
<event>
 6    1  0.9254630E-012  0.3000000E+03  0.7818608E-02  0.1093470E+00
          1   -1    0    0  502    0  0.00000000000E+00  0.00000000000E+00  0.23936550932E+03  0.23936550932E+03  0.00000000000E+00 0.  1.
         13   -1    0    0    0    0 -0.00000000000E+00 -0.00000000000E+00 -0.27500000000E+03  0.27500000000E+03  0.00000000000E+00 0.  1.
    9000005    2    1    2  501    0  0.46263749022E+01  0.33922505797E+02 -0.58632459780E+02  0.47312176644E+03  0.46822462643E+03 0.  0.
         13    1    3    3    0    0 -0.14692316007E+03 -0.58717982048E+01 -0.20927337915E+03  0.25576598719E+03  0.00000000000E+00 0.  1.
          3    1    3    3  501    0  0.15154953498E+03  0.39794304002E+02  0.15064091937E+03  0.21735577925E+03  0.00000000000E+00 0.  1.
         21    1    1    2  502  501 -0.46263749022E+01 -0.33922505797E+02  0.22997969101E+02  0.41243742883E+02  0.00000000000E+00 0.  1.
<scales pt_clust_4="550.00000" pt_clust_5="550.00000" pt_clust_6="34.23653"></scales>
<mgrwt>
<rscale>  0 0.30000000E+03</rscale>
<asrwt>  1 0.34236526E+02</asrwt>
<pdfrwt beam="1">  1        1 0.87042003E+00 0.30000000E+03</pdfrwt>
<pdfrwt beam="2">0</pdfrwt>
<totfact> 0.25179904E-04</totfact>
</mgrwt>
<clustering>
<clus scale="   34.237">  1  6  2 -1</clus>
<clus scale="  468.225">  4  5 -1 -1</clus>
<clus scale="  300.000">  1  4  2 -1</clus>
</clustering>
</event>
<event>
 6    1  0.9254630E-012  0.3000000E+03  0.7818608E-02  0.1093470E+00
          1   -1    0    0  502    0  0.00000000000E+00  0.00000000000E+00  0.22673531281E+03  0.22673531281E+03  0.00000000000E+00 0.  1.
         13   -1    0    0    0    0 -0.00000000000E+00 -0.00000000000E+00 -0.27500000000E+03  0.27500000000E+03  0.00000000000E+00 0.  1.
    9000005    2    1    2  501    0  0.25520760147E+02 -0.17114791024E+02 -0.66068831007E+02  0.46622175473E+03  0.46049257202E+03 0.  0.
         13    1    3    3    0    0  0.22970212823E+03  0.57167073243E+02 -0.76314366194E+02  0.24870670370E+03  0.00000000000E+00 0.  1.
          1    1    3    3  501    0 -0.20418136809E+03 -0.74281864267E+02  0.10245535187E+02  0.21751505103E+03  0.00000000000E+00 0.  1.
         21    1    1    2  502  501 -0.25520760147E+02  0.17114791024E+02  0.17804143812E+02  0.35513558076E+02  0.00000000000E+00 0. -1.
<scales pt_clust_4="550.00000" pt_clust_5="550.00000" pt_clust_6="30.72825"></scales>
<mgrwt>
<rscale>  0 0.30000000E+03</rscale>
<asrwt>  1 0.30728249E+02</asrwt>
<pdfrwt beam="1">  1        1 0.82449205E+00 0.30000000E+03</pdfrwt>
<pdfrwt beam="2">0</pdfrwt>
<totfact> 0.67649952E-04</totfact>
</mgrwt>
<clustering>
<clus scale="   30.728">  1  6  2 -1</clus>
<clus scale="  460.493">  4  5 -1 -1</clus>
<clus scale="  300.000">  1  4  2 -1</clus>
</clustering>
</event>
<event>
 6    1  0.9254630E-012  0.3000000E+03  0.7818608E-02  0.1093470E+00
          1   -1    0    0  502    0  0.00000000000E+00  0.00000000000E+00  0.24200494942E+03  0.24200494942E+03  0.00000000000E+00 0.  1.
         13   -1    0    0    0    0 -0.00000000000E+00 -0.00000000000E+00 -0.27500000000E+03  0.27500000000E+03  0.00000000000E+00 0.  1.
    9000005    2    1    2  501    0 -0.33053425018E+02  0.23669295014E+02 -0.53042628448E+02  0.47167648364E+03  0.46691800174E+03 0.  0.
         13    1    3    3    0    0 -0.21669384103E+03 -0.62921500446E+02  0.67541619201E+02  0.23553599784E+03  0.00000000000E+00 0.  1.
          1    1    3    3  501    0  0.18364041601E+03  0.86590795460E+02 -0.12058424765E+03  0.23614048579E+03  0.00000000000E+00 0.  1.
         21    1    1    2  502  501  0.33053425018E+02 -0.23669295014E+02  0.20047577870E+02  0.45328465784E+02  0.00000000000E+00 0.  1.
<scales pt_clust_4="550.00000" pt_clust_5="550.00000" pt_clust_6="40.65421"></scales>
<mgrwt>
<rscale>  0 0.30000000E+03</rscale>
<asrwt>  1 0.40654206E+02</asrwt>
<pdfrwt beam="1">  1        1 0.88001800E+00 0.30000000E+03</pdfrwt>
<pdfrwt beam="2">0</pdfrwt>
<totfact> 0.19190098E-04</totfact>
</mgrwt>
<clustering>
<clus scale="   40.654">  1  6  2 -1</clus>
<clus scale="  466.918">  4  5 -1 -1</clus>
<clus scale="  300.000">  1  4  2 -1</clus>
</clustering>
</event>
<event>
 6    1  0.9254630E-012  0.3000000E+03  0.7818608E-02  0.1093470E+00
          1   -1    0    0  502    0  0.00000000000E+00  0.00000000000E+00  0.24116614278E+03  0.24116614278E+03  0.00000000000E+00 0.  1.
         13   -1    0    0    0    0 -0.00000000000E+00 -0.00000000000E+00 -0.27500000000E+03  0.27500000000E+03  0.00000000000E+00 0.  1.
    9000005    2    1    2  501    0  0.35475677814E+02  0.38548384702E+01 -0.48876748299E+02  0.47744054313E+03  0.47358964538E+03 0.  0.
         13    1    3    3    0    0  0.17430839126E+03 -0.13554468816E+03  0.88077665953E+02  0.23772558338E+03  0.00000000000E+00 0.  1.
          1    1    3    3  501    0 -0.13883271345E+03  0.13939952663E+03 -0.13695441425E+03  0.23971495976E+03  0.00000000000E+00 0.  1.
         21    1    1    2  502  501 -0.35475677814E+02 -0.38548384702E+01  0.15042891079E+02  0.38725599647E+02  0.00000000000E+00 0. -1.
<scales pt_clust_4="550.00000" pt_clust_5="550.00000" pt_clust_6="35.68450"></scales>
<mgrwt>
<rscale>  0 0.30000000E+03</rscale>
<asrwt>  1 0.35684499E+02</asrwt>
<pdfrwt beam="1">  1        1 0.87696779E+00 0.30000000E+03</pdfrwt>
<pdfrwt beam="2">0</pdfrwt>
<totfact> 0.21339458E-04</totfact>
</mgrwt>
<clustering>
<clus scale="   35.684">  1  6  2 -1</clus>
<clus scale="  473.590">  4  5 -1 -1</clus>
<clus scale="  300.000">  1  4  2 -1</clus>
</clustering>
</event>
<event>
 6    1  0.9254630E-012  0.3000000E+03  0.7818608E-02  0.1093470E+00
          1   -1    0    0  502    0  0.00000000000E+00  0.00000000000E+00  0.22556700512E+03  0.22556700512E+03  0.00000000000E+00 0.  1.
         13   -1    0    0    0    0 -0.00000000000E+00 -0.00000000000E+00 -0.27500000000E+03  0.27500000000E+03  0.00000000000E+00 0.  1.
    9000005    2    1    2  501    0 -0.30350653725E+02  0.13768951894E+02 -0.67003345133E+02  0.46289123803E+03  0.45680204002E+03 0.  0.
         13    1    3    3    0    0 -0.24203216659E+03 -0.22454854399E+02 -0.28987221031E+02  0.24479389113E+03  0.00000000000E+00 0.  1.
          3    1    3    3  501    0  0.21168151287E+03  0.36223806293E+02 -0.38016124102E+02  0.21809734690E+03  0.00000000000E+00 0.  1.
         21    1    1    2  502  501  0.30350653725E+02 -0.13768951894E+02  0.17570350251E+02  0.37675767089E+02  0.00000000000E+00 0. -1.
<scales pt_clust_4="550.00000" pt_clust_5="550.00000" pt_clust_6="33.32786"></scales>
<mgrwt>
<rscale>  0 0.30000000E+03</rscale>
<asrwt>  1 0.33327859E+02</asrwt>
<pdfrwt beam="1">  1        1 0.82024365E+00 0.30000000E+03</pdfrwt>
<pdfrwt beam="2">0</pdfrwt>
<totfact> 0.72643012E-04</totfact>
</mgrwt>
<clustering>
<clus scale="   33.328">  1  6  2 -1</clus>
<clus scale="  456.802">  4  5 -1 -1</clus>
<clus scale="  300.000">  1  4  2 -1</clus>
</clustering>
</event>
<event>
 6    1  0.9254630E-012  0.3000000E+03  0.7818608E-02  0.1093470E+00
          1   -1    0    0  502    0  0.00000000000E+00  0.00000000000E+00  0.24452782207E+03  0.24452782207E+03  0.00000000000E+00 0.  1.
         13   -1    0    0    0    0 -0.00000000000E+00 -0.00000000000E+00 -0.27500000000E+03  0.27500000000E+03  0.00000000000E+00 0.  1.
    9000005    2    1    2  501    0 -0.75724441841E+00  0.40658569264E+02 -0.65469812410E+02  0.46587591537E+03  0.45945661330E+03 0.  0.
         13    1    3    3    0    0 -0.18378000725E+03 -0.11837135382E+03 -0.37693711635E+02  0.22182805136E+03  0.00000000000E+00 0.  1.
          1    1    3    3  501    0  0.18302276284E+03  0.15902992309E+03 -0.27776100775E+02  0.24404786401E+03  0.00000000000E+00 0.  1.
         21    1    1    2  502  501  0.75724441841E+00 -0.40658569264E+02  0.34997634480E+02  0.53651906703E+02  0.00000000000E+00 0.  1.
<scales pt_clust_4="550.00000" pt_clust_5="550.00000" pt_clust_6="40.66562"></scales>
<mgrwt>
<rscale>  0 0.30000000E+03</rscale>
<asrwt>  1 0.40665620E+02</asrwt>
<pdfrwt beam="1">  1        1 0.88919208E+00 0.30000000E+03</pdfrwt>
<pdfrwt beam="2">0</pdfrwt>
<totfact> 0.14456432E-04</totfact>
</mgrwt>
<clustering>
<clus scale="   40.666">  1  6  2 -1</clus>
<clus scale="  459.457">  4  5 -1 -1</clus>
<clus scale="  300.000">  1  4  2 -1</clus>
</clustering>
</event>
<event>
 6    1  0.9254630E-012  0.3000000E+03  0.7818608E-02  0.1093470E+00
          1   -1    0    0  502    0  0.00000000000E+00  0.00000000000E+00  0.23452897160E+03  0.23452897160E+03  0.00000000000E+00 0.  1.
         13   -1    0    0    0    0 -0.00000000000E+00 -0.00000000000E+00 -0.27500000000E+03  0.27500000000E+03  0.00000000000E+00 0.  1.
    9000005    2    1    2  501    0 -0.39626349369E+02  0.44624635047E+01 -0.21014697761E+02  0.46515882458E+03  0.46296971112E+03 0.  0.
         13    1    3    3    0    0  0.18836565505E+03 -0.72776092650E+02  0.60841274484E+02  0.21090196857E+03  0.00000000000E+00 0.  1.
          3    1    3    3  501    0 -0.22799200442E+03  0.77238556155E+02 -0.81855972245E+02  0.25425685601E+03  0.00000000000E+00 0.  1.
         21    1    1    2  502  501  0.39626349369E+02 -0.44624635047E+01 -0.19456330638E+02  0.44370147022E+02  0.00000000000E+00 0.  1.
<scales pt_clust_4="550.00000" pt_clust_5="550.00000" pt_clust_6="39.87684"></scales>
<mgrwt>
<rscale>  0 0.30000000E+03</rscale>
<asrwt>  1 0.39876845E+02</asrwt>
<pdfrwt beam="1">  1        1 0.85283262E+00 0.30000000E+03</pdfrwt>
<pdfrwt beam="2">0</pdfrwt>
<totfact> 0.37337575E-04</totfact>
</mgrwt>
<clustering>
<clus scale="   39.877">  1  6  2 -1</clus>
<clus scale="  462.970">  4  5 -1 -1</clus>
<clus scale="  300.000">  1  4  2 -1</clus>
</clustering>
</event>
<event>
 6    1  0.9254630E-012  0.3000000E+03  0.7818608E-02  0.1093470E+00
          1   -1    0    0  502    0  0.00000000000E+00  0.00000000000E+00  0.22373135978E+03  0.22373135978E+03  0.00000000000E+00 0.  1.
         13   -1    0    0    0    0 -0.00000000000E+00 -0.00000000000E+00 -0.27500000000E+03  0.27500000000E+03  0.00000000000E+00 0.  1.
    9000005    2    1    2  501    0  0.34949570021E+01  0.30887940056E+02 -0.39982412749E+02  0.46566085184E+03  0.46289864553E+03 0.  0.
         13    1    3    3    0    0  0.18891964022E+03 -0.51362550216E+02  0.99375883330E+02  0.21955479547E+03  0.00000000000E+00 0.  1.
          3    1    3    3  501    0 -0.18542468322E+03  0.82250490271E+02 -0.13935829608E+03  0.24610605637E+03  0.00000000000E+00 0.  1.
         21    1    1    2  502  501 -0.34949570021E+01 -0.30887940056E+02 -0.11286227469E+02  0.33070507946E+02  0.00000000000E+00 0. -1.
<scales pt_clust_4="550.00000" pt_clust_5="550.00000" pt_clust_6="31.08505"></scales>
<mgrwt>
<rscale>  0 0.30000000E+03</rscale>
<asrwt>  1 0.31085053E+02</asrwt>
<pdfrwt beam="1">  1        1 0.81356858E+00 0.30000000E+03</pdfrwt>
<pdfrwt beam="2">0</pdfrwt>
<totfact> 0.83595020E-04</totfact>
</mgrwt>
<clustering>
<clus scale="   31.085">  1  6  2 -1</clus>
<clus scale="  462.899">  4  5 -1 -1</clus>
<clus scale="  300.000">  1  4  2 -1</clus>
</clustering>
</event>
<event>
 6    1  0.9254630E-012  0.3000000E+03  0.7818608E-02  0.1093470E+00
          1   -1    0    0  502    0  0.00000000000E+00  0.00000000000E+00  0.24658268140E+03  0.24658268140E+03  0.00000000000E+00 0.  1.
         13   -1    0    0    0    0 -0.00000000000E+00 -0.00000000000E+00 -0.27500000000E+03  0.27500000000E+03  0.00000000000E+00 0.  1.
    9000005    2    1    2  501    0  0.41436324363E+02  0.37598492239E+02 -0.33464603257E+02  0.46540358673E+03  0.46081449985E+03 0.  0.
         13    1    3    3    0    0 -0.16152396398E+03  0.14466752279E+03 -0.80251626018E+02  0.23121203811E+03  0.00000000000E+00 0.  1.
          3    1    3    3  501    0  0.20296028834E+03 -0.10706903055E+03  0.46787022761E+02  0.23419154862E+03  0.00000000000E+00 0.  1.
         21    1    1    2  502  501 -0.41436324363E+02 -0.37598492239E+02  0.50472846555E+01  0.56179094668E+02  0.00000000000E+00 0.  1.
<scales pt_clust_4="550.00000" pt_clust_5="550.00000" pt_clust_6="55.95190"></scales>
<mgrwt>
<rscale>  0 0.30000000E+03</rscale>
<asrwt>  1 0.55951904E+02</asrwt>
<pdfrwt beam="1">  1        1 0.89666430E+00 0.30000000E+03</pdfrwt>
<pdfrwt beam="2">0</pdfrwt>
<totfact> 0.11106670E-04</totfact>
</mgrwt>
<clustering>
<clus scale="   55.952">  1  6  2 -1</clus>
<clus scale="  460.814">  4  5 -1 -1</clus>
<clus scale="  300.000">  1  4  2 -1</clus>
</clustering>
</event>
<event>
 6    1  0.9254630E-012  0.3000000E+03  0.7818608E-02  0.1093470E+00
          1   -1    0    0  502    0  0.00000000000E+00  0.00000000000E+00  0.22270652638E+03  0.22270652638E+03  0.00000000000E+00 0.  1.
         13   -1    0    0    0    0 -0.00000000000E+00 -0.00000000000E+00 -0.27500000000E+03  0.27500000000E+03  0.00000000000E+00 0.  1.
    9000005    2    1    2  501    0  0.31597987121E+02 -0.15813972055E+02 -0.57765632125E+02  0.46195098106E+03  0.45696096786E+03 0.  0.
         13    1    3    3    0    0 -0.10920929747E+03  0.10950375622E+03 -0.17998203981E+03  0.23729997457E+03  0.00000000000E+00 0.  1.
          3    1    3    3  501    0  0.14080728459E+03 -0.12531772827E+03  0.12221640768E+03  0.22465100649E+03  0.00000000000E+00 0.  1.
         21    1    1    2  502  501 -0.31597987121E+02  0.15813972055E+02  0.54721585066E+01  0.35755545317E+02  0.00000000000E+00 0.  1.
<scales pt_clust_4="550.00000" pt_clust_5="550.00000" pt_clust_6="35.33432"></scales>
<mgrwt>
<rscale>  0 0.30000000E+03</rscale>
<asrwt>  1 0.35334325E+02</asrwt>
<pdfrwt beam="1">  1        1 0.80984191E+00 0.30000000E+03</pdfrwt>
<pdfrwt beam="2">0</pdfrwt>
<totfact> 0.87307230E-04</totfact>
</mgrwt>
<clustering>
<clus scale="   35.334">  1  6  2 -1</clus>
<clus scale="  456.961">  4  5 -1 -1</clus>
<clus scale="  300.000">  1  4  2 -1</clus>
</clustering>
</event>
<event>
 6    1  0.9254630E-012  0.3000000E+03  0.7818608E-02  0.1093470E+00
          1   -1    0    0  502    0  0.00000000000E+00  0.00000000000E+00  0.24538721522E+03  0.24538721522E+03  0.00000000000E+00 0.  1.
         13   -1    0    0    0    0 -0.00000000000E+00 -0.00000000000E+00 -0.27500000000E+03  0.27500000000E+03  0.00000000000E+00 0.  1.
    9000005    2    1    2  501    0 -0.22571561508E+01 -0.46985539874E+02 -0.38505420765E+02  0.47251431385E+03  0.46858763711E+03 0.  0.
         13    1    3    3    0    0  0.21121888743E+03 -0.12110441935E+03 -0.11905588909E+01  0.24347713697E+03  0.00000000000E+00 0.  1.
          3    1    3    3  501    0 -0.21347604358E+03  0.74118879475E+02 -0.37314861874E+02  0.22903717689E+03  0.00000000000E+00 0.  1.
         21    1    1    2  502  501  0.22571561508E+01  0.46985539874E+02  0.88926359898E+01  0.47872901374E+02  0.00000000000E+00 0. -1.
<scales pt_clust_4="550.00000" pt_clust_5="550.00000" pt_clust_6="47.03972"></scales>
<mgrwt>
<rscale>  0 0.30000000E+03</rscale>
<asrwt>  1 0.47039725E+02</asrwt>
<pdfrwt beam="1">  1        1 0.89231715E+00 0.30000000E+03</pdfrwt>
<pdfrwt beam="2">0</pdfrwt>
<totfact> 0.12834610E-04</totfact>
</mgrwt>
<clustering>
<clus scale="   47.040">  1  6  2 -1</clus>
<clus scale="  468.588">  4  5 -1 -1</clus>
<clus scale="  300.000">  1  4  2 -1</clus>
</clustering>
</event>
<event>
 6    1  0.9254630E-012  0.3000000E+03  0.7818608E-02  0.1093470E+00
          1   -1    0    0  502    0  0.00000000000E+00  0.00000000000E+00  0.22954640897E+03  0.22954640897E+03  0.00000000000E+00 0.  1.
         13   -1    0    0    0    0 -0.00000000000E+00 -0.00000000000E+00 -0.27500000000E+03  0.27500000000E+03  0.00000000000E+00 0.  1.
    9000005    2    1    2  501    0  0.29532498469E+02  0.18374480719E+02 -0.33471510775E+02  0.46775836397E+03  0.46526095368E+03 0.  0.
         13    1    3    3    0    0  0.79159914911E+02  0.64145367925E+02  0.20014299493E+03  0.22458436895E+03  0.00000000000E+00 0.  1.
          1    1    3    3  501    0 -0.49627416442E+02 -0.45770887206E+02 -0.23361450571E+03  0.24317399502E+03  0.00000000000E+00 0.  1.
         21    1    1    2  502  501 -0.29532498469E+02 -0.18374480719E+02 -0.11982080257E+02  0.36788044998E+02  0.00000000000E+00 0.  1.
<scales pt_clust_4="550.00000" pt_clust_5="550.00000" pt_clust_6="34.78205"></scales>
<mgrwt>
<rscale>  0 0.30000000E+03</rscale>
<asrwt>  1 0.34782053E+02</asrwt>
<pdfrwt beam="1">  1        1 0.83471421E+00 0.30000000E+03</pdfrwt>
<pdfrwt beam="2">0</pdfrwt>
<totfact> 0.54423512E-04</totfact>
</mgrwt>
<clustering>
<clus scale="   34.782">  1  6  2 -1</clus>
<clus scale="  465.261">  4  5 -1 -1</clus>
<clus scale="  300.000">  1  4  2 -1</clus>
</clustering>
</event>
<event>
 6    1  0.9254630E-012  0.3000000E+03  0.7818608E-02  0.1093470E+00
          1   -1    0    0  502    0  0.00000000000E+00  0.00000000000E+00  0.22119028085E+03  0.22119028085E+03  0.00000000000E+00 0.  1.
         13   -1    0    0    0    0 -0.00000000000E+00 -0.00000000000E+00 -0.27500000000E+03  0.27500000000E+03  0.00000000000E+00 0.  1.
    9000005    2    1    2  501    0  0.35154151174E+01  0.32146194775E+02 -0.53630906596E+02  0.46385194515E+03  0.45960484864E+03 0.  0.
         13    1    3    3    0    0  0.21043654310E+03  0.11264072593E+03 -0.25242875777E+02  0.24001807138E+03  0.00000000000E+00 0.  1.
          3    1    3    3  501    0 -0.20692112799E+03 -0.80494531153E+02 -0.28388030819E+02  0.22383387377E+03  0.00000000000E+00 0.  1.
         21    1    1    2  502  501 -0.35154151174E+01 -0.32146194775E+02 -0.17881255661E+00  0.32338335700E+02  0.00000000000E+00 0.  1.
<scales pt_clust_4="550.00000" pt_clust_5="550.00000" pt_clust_6="32.33784"></scales>
<mgrwt>
<rscale>  0 0.30000000E+03</rscale>
<asrwt>  1 0.32337841E+02</asrwt>
<pdfrwt beam="1">  1        1 0.80432829E+00 0.30000000E+03</pdfrwt>
<pdfrwt beam="2">0</pdfrwt>
<totfact> 0.97857732E-04</totfact>
</mgrwt>
<clustering>
<clus scale="   32.338">  1  6  2 -1</clus>
<clus scale="  459.605">  4  5 -1 -1</clus>
<clus scale="  300.000">  1  4  2 -1</clus>
</clustering>
</event>
<event>
 6    1  0.9254630E-012  0.3000000E+03  0.7818608E-02  0.1093470E+00
          1   -1    0    0  502    0  0.00000000000E+00  0.00000000000E+00  0.22704446390E+03  0.22704446390E+03  0.00000000000E+00 0.  1.
         13   -1    0    0    0    0 -0.00000000000E+00 -0.00000000000E+00 -0.27500000000E+03  0.27500000000E+03  0.00000000000E+00 0.  1.
    9000005    2    1    2  501    0  0.24496608896E+02  0.21540234492E+02 -0.49438051422E+02  0.46939077496E+03  0.46563882263E+03 0.  0.
         13    1    3    3    0    0  0.22434906551E+03 -0.52413893270E+02  0.47573676721E+02  0.23525087485E+03  0.00000000000E+00 0.  1.
          1    1    3    3  501    0 -0.19985245661E+03  0.73954127762E+02 -0.97011728144E+02  0.23413990011E+03  0.00000000000E+00 0.  1.
         21    1    1    2  502  501 -0.24496608896E+02 -0.21540234492E+02  0.14825153200E+01  0.32653688935E+02  0.00000000000E+00 0.  1.
<scales pt_clust_4="550.00000" pt_clust_5="550.00000" pt_clust_6="32.62002"></scales>
<mgrwt>
<rscale>  0 0.30000000E+03</rscale>
<asrwt>  1 0.32620018E+02</asrwt>
<pdfrwt beam="1">  1        1 0.82561623E+00 0.30000000E+03</pdfrwt>
<pdfrwt beam="2">0</pdfrwt>
<totfact> 0.65356886E-04</totfact>
</mgrwt>
<clustering>
<clus scale="   32.620">  1  6  2 -1</clus>
<clus scale="  465.639">  4  5 -1 -1</clus>
<clus scale="  300.000">  1  4  2 -1</clus>
</clustering>
</event>
<event>
 6    1  0.9254630E-012  0.3000000E+03  0.7818608E-02  0.1093470E+00
          1   -1    0    0  502    0  0.00000000000E+00  0.00000000000E+00  0.22666397420E+03  0.22666397420E+03  0.00000000000E+00 0.  1.
         13   -1    0    0    0    0 -0.00000000000E+00 -0.00000000000E+00 -0.27500000000E+03  0.27500000000E+03  0.00000000000E+00 0.  1.
    9000005    2    1    2  501    0 -0.36199211142E+02  0.46202960006E+01 -0.63622501697E+02  0.46209875756E+03  0.45624084538E+03 0.  0.
         13    1    3    3    0    0 -0.11089451692E+03 -0.17760610487E+03 -0.13889424276E+03  0.25126307537E+03  0.00000000000E+00 0.  1.
          1    1    3    3  501    0  0.74695305783E+02  0.18222640087E+03  0.75271741065E+02  0.21083568219E+03  0.00000000000E+00 0.  1.
         21    1    1    2  502  501  0.36199211142E+02 -0.46202960006E+01  0.15286475893E+02  0.39565216639E+02  0.00000000000E+00 0. -1.
<scales pt_clust_4="550.00000" pt_clust_5="550.00000" pt_clust_6="36.49288"></scales>
<mgrwt>
<rscale>  0 0.30000000E+03</rscale>
<asrwt>  1 0.36492876E+02</asrwt>
<pdfrwt beam="1">  1        1 0.82423263E+00 0.30000000E+03</pdfrwt>
<pdfrwt beam="2">0</pdfrwt>
<totfact> 0.65841970E-04</totfact>
</mgrwt>
<clustering>
<clus scale="   36.493">  1  6  2 -1</clus>
<clus scale="  456.241">  4  5 -1 -1</clus>
<clus scale="  300.000">  1  4  2 -1</clus>
</clustering>
</event>
<event>
 6    1  0.9254630E-012  0.3000000E+03  0.7818608E-02  0.1093470E+00
          1   -1    0    0  502    0  0.00000000000E+00  0.00000000000E+00  0.22363397265E+03  0.22363397265E+03  0.00000000000E+00 0.  1.
         13   -1    0    0    0    0 -0.00000000000E+00 -0.00000000000E+00 -0.27500000000E+03  0.27500000000E+03  0.00000000000E+00 0.  1.
    9000005    2    1    2  501    0  0.29299184706E+02  0.76419824490E+01 -0.52795533802E+02  0.46832084664E+03  0.46434922729E+03 0.  0.
         13    1    3    3    0    0 -0.60155607865E+02  0.17195854761E+03 -0.16865751947E+03  0.24826155185E+03  0.00000000000E+00 0.  1.
          1    1    3    3  501    0  0.89454792571E+02 -0.16431656516E+03  0.11586198567E+03  0.22005929479E+03  0.00000000000E+00 0.  1.
         21    1    1    2  502  501 -0.29299184706E+02 -0.76419824490E+01  0.14295064542E+01  0.30313126017E+02  0.00000000000E+00 0. -1.
<scales pt_clust_4="550.00000" pt_clust_5="550.00000" pt_clust_6="30.27940"></scales>
<mgrwt>
<rscale>  0 0.30000000E+03</rscale>
<asrwt>  1 0.30279401E+02</asrwt>
<pdfrwt beam="1">  1        1 0.81321445E+00 0.30000000E+03</pdfrwt>
<pdfrwt beam="2">0</pdfrwt>
<totfact> 0.84565556E-04</totfact>
</mgrwt>
<clustering>
<clus scale="   30.279">  1  6  2 -1</clus>
<clus scale="  464.349">  4  5 -1 -1</clus>
<clus scale="  300.000">  1  4  2 -1</clus>
</clustering>
</event>
<event>
 6    1  0.9254630E-012  0.3000000E+03  0.7818608E-02  0.1093470E+00
          1   -1    0    0  502    0  0.00000000000E+00  0.00000000000E+00  0.23295466554E+03  0.23295466554E+03  0.00000000000E+00 0.  1.
         13   -1    0    0    0    0 -0.00000000000E+00 -0.00000000000E+00 -0.27500000000E+03  0.27500000000E+03  0.00000000000E+00 0.  1.
    9000005    2    1    2  501    0  0.20087902665E+02 -0.26513494354E+02 -0.37953152805E+01  0.45726390520E+03  0.45603660529E+03 0.  0.
         13    1    3    3    0    0 -0.37428756717E+02  0.22336413740E+02  0.21834662457E+03  0.22265461070E+03  0.00000000000E+00 0.  1.
          1    1    3    3  501    0  0.57516659382E+02 -0.48849908095E+02 -0.22214193985E+03  0.23460929450E+03  0.00000000000E+00 0.  1.
         21    1    1    2  502  501 -0.20087902665E+02  0.26513494354E+02 -0.38250019179E+02  0.50690760337E+02  0.00000000000E+00 0. -1.
<scales pt_clust_4="550.00000" pt_clust_5="550.00000" pt_clust_6="33.26395"></scales>
<mgrwt>
<rscale>  0 0.30000000E+03</rscale>
<asrwt>  1 0.33263949E+02</asrwt>
<pdfrwt beam="1">  1        1 0.84710787E+00 0.30000000E+03</pdfrwt>
<pdfrwt beam="2">0</pdfrwt>
<totfact> 0.43690186E-04</totfact>
</mgrwt>
<clustering>
<clus scale="   33.264">  1  6  2 -1</clus>
<clus scale="  456.037">  4  5 -1 -1</clus>
<clus scale="  300.000">  1  4  2 -1</clus>
</clustering>
</event>
<event>
 6    1  0.9254630E-012  0.3000000E+03  0.7818608E-02  0.1093470E+00
          1   -1    0    0  502    0  0.00000000000E+00  0.00000000000E+00  0.22933154547E+03  0.22933154547E+03  0.00000000000E+00 0.  1.
         13   -1    0    0    0    0 -0.00000000000E+00 -0.00000000000E+00 -0.27500000000E+03  0.27500000000E+03  0.00000000000E+00 0.  1.
    9000005    2    1    2  501    0  0.35847241621E+02  0.80536359772E+01 -0.59433831077E+02  0.46509672196E+03  0.45981811047E+03 0.  0.
         13    1    3    3    0    0  0.17201929999E+03 -0.76701901177E+02  0.12085649051E+03  0.22378586307E+03  0.00000000000E+00 0.  1.
          1    1    3    3  501    0 -0.13617205837E+03  0.84755537154E+02 -0.18029032158E+03  0.24131085889E+03  0.00000000000E+00 0.  1.
         21    1    1    2  502  501 -0.35847241621E+02 -0.80536359772E+01  0.13765376543E+02  0.39234823508E+02  0.00000000000E+00 0.  1.
<scales pt_clust_4="550.00000" pt_clust_5="550.00000" pt_clust_6="36.74079"></scales>
<mgrwt>
<rscale>  0 0.30000000E+03</rscale>
<asrwt>  1 0.36740792E+02</asrwt>
<pdfrwt beam="1">  1        1 0.83393289E+00 0.30000000E+03</pdfrwt>
<pdfrwt beam="2">0</pdfrwt>
<totfact> 0.54588852E-04</totfact>
</mgrwt>
<clustering>
<clus scale="   36.741">  1  6  2 -1</clus>
<clus scale="  459.818">  4  5 -1 -1</clus>
<clus scale="  300.000">  1  4  2 -1</clus>
</clustering>
</event>
<event>
 6    1  0.9254630E-012  0.3000000E+03  0.7818608E-02  0.1093470E+00
          1   -1    0    0  502    0  0.00000000000E+00  0.00000000000E+00  0.22588153794E+03  0.22588153794E+03  0.00000000000E+00 0.  1.
         13   -1    0    0    0    0 -0.00000000000E+00 -0.00000000000E+00 -0.27500000000E+03  0.27500000000E+03  0.00000000000E+00 0.  1.
    9000005    2    1    2  501    0  0.28599546172E+02 -0.21901553388E+02 -0.49107750875E+02  0.46485915328E+03  0.46085230726E+03 0.  0.
         13    1    3    3    0    0  0.23795681320E+03  0.34977926243E+02 -0.59149891911E+02  0.24768045944E+03  0.00000000000E+00 0.  1.
          1    1    3    3  501    0 -0.20935726703E+03 -0.56879479631E+02  0.10042141037E+02  0.21717869384E+03  0.00000000000E+00 0.  1.
         21    1    1    2  502  501 -0.28599546172E+02  0.21901553388E+02 -0.10711182159E-01  0.36022384663E+02  0.00000000000E+00 0.  1.
<scales pt_clust_4="550.00000" pt_clust_5="550.00000" pt_clust_6="36.02238"></scales>
<mgrwt>
<rscale>  0 0.30000000E+03</rscale>
<asrwt>  1 0.36022383E+02</asrwt>
<pdfrwt beam="1">  1        1 0.82138741E+00 0.30000000E+03</pdfrwt>
<pdfrwt beam="2">0</pdfrwt>
<totfact> 0.69961195E-04</totfact>
</mgrwt>
<clustering>
<clus scale="   36.022">  1  6  2 -1</clus>
<clus scale="  460.852">  4  5 -1 -1</clus>
<clus scale="  300.000">  1  4  2 -1</clus>
</clustering>
</event>
<event>
 6    1  0.9254630E-012  0.3000000E+03  0.7818608E-02  0.1093470E+00
          1   -1    0    0  502    0  0.00000000000E+00  0.00000000000E+00  0.25434507834E+03  0.25434507834E+03  0.00000000000E+00 0.  1.
         13   -1    0    0    0    0 -0.00000000000E+00 -0.00000000000E+00 -0.27500000000E+03  0.27500000000E+03  0.00000000000E+00 0.  1.
    9000005    2    1    2  501    0 -0.19830936736E+02 -0.27297112484E+02 -0.49358805906E+02  0.48504709450E+03  0.48134810040E+03 0.  0.
         13    1    3    3    0    0 -0.20779314979E+03 -0.73856178181E+02  0.98383812478E+02  0.24147899021E+03  0.00000000000E+00 0.  1.
          1    1    3    3  501    0  0.18796221306E+03  0.46559065697E+02 -0.14774261838E+03  0.24356810428E+03  0.00000000000E+00 0.  1.
         21    1    1    2  502  501  0.19830936736E+02  0.27297112484E+02  0.28703884246E+02  0.44297983844E+02  0.00000000000E+00 0.  1.
<scales pt_clust_4="550.00000" pt_clust_5="550.00000" pt_clust_6="33.74016"></scales>
<mgrwt>
<rscale>  0 0.30000000E+03</rscale>
<asrwt>  1 0.33740160E+02</asrwt>
<pdfrwt beam="1">  1        1 0.92489119E+00 0.30000000E+03</pdfrwt>
<pdfrwt beam="2">0</pdfrwt>
<totfact> 0.33191803E-05</totfact>
</mgrwt>
<clustering>
<clus scale="   33.740">  1  6  2 -1</clus>
<clus scale="  481.348">  4  5 -1 -1</clus>
<clus scale="  300.000">  1  4  2 -1</clus>
</clustering>
</event>
<event>
 6    1  0.9254630E-012  0.3000000E+03  0.7818608E-02  0.1093470E+00
          1   -1    0    0  502    0  0.00000000000E+00  0.00000000000E+00  0.26649586960E+03  0.26649586960E+03  0.00000000000E+00 0.  1.
         13   -1    0    0    0    0 -0.00000000000E+00 -0.00000000000E+00 -0.27500000000E+03  0.27500000000E+03  0.00000000000E+00 0.  1.
    9000005    2    1    2  501    0  0.35088737783E+02  0.26634394289E+02 -0.44359969213E+02  0.48469576700E+03  0.48064703183E+03 0.  0.
         13    1    3    3    0    0 -0.73530347252E+02  0.23440494845E+03  0.21526152336E+01  0.24567666877E+03  0.00000000000E+00 0.  1.
          3    1    3    3  501    0  0.10861908503E+03 -0.20777055416E+03 -0.46512584447E+02  0.23901909824E+03  0.00000000000E+00 0.  1.
         21    1    1    2  502  501 -0.35088737783E+02 -0.26634394289E+02  0.35855838814E+02  0.56800102600E+02  0.00000000000E+00 0. -1.
<scales pt_clust_4="550.00000" pt_clust_5="550.00000" pt_clust_6="44.05236"></scales>
<mgrwt>
<rscale>  0 0.30000000E+03</rscale>
<asrwt>  1 0.44052361E+02</asrwt>
<pdfrwt beam="1">  1        1 0.96907589E+00 0.30000000E+03</pdfrwt>
<pdfrwt beam="2">0</pdfrwt>
<totfact> 0.48977012E-06</totfact>
</mgrwt>
<clustering>
<clus scale="   44.052">  1  6  2 -1</clus>
<clus scale="  480.647">  4  5 -1 -1</clus>
<clus scale="  300.000">  1  4  2 -1</clus>
</clustering>
</event>
<event>
 6    1  0.9254630E-012  0.3000000E+03  0.7818608E-02  0.1093470E+00
          1   -1    0    0  502    0  0.00000000000E+00  0.00000000000E+00  0.22974916120E+03  0.22974916120E+03  0.00000000000E+00 0.  1.
         13   -1    0    0    0    0 -0.00000000000E+00 -0.00000000000E+00 -0.27500000000E+03  0.27500000000E+03  0.00000000000E+00 0.  1.
    9000005    2    1    2  501    0 -0.26517262326E+02  0.14465420809E+02 -0.50251771622E+02  0.47413179799E+03  0.47049262238E+03 0.  0.
         13    1    3    3    0    0 -0.76542889277E+02 -0.49735775518E+02 -0.24586417743E+03  0.26226256883E+03  0.00000000000E+00 0.  1.
          1    1    3    3  501    0  0.50025626951E+02  0.64201196327E+02  0.19561240581E+03  0.21186922917E+03  0.00000000000E+00 0.  1.
         21    1    1    2  502  501  0.26517262326E+02 -0.14465420809E+02  0.50009328174E+01  0.30617363202E+02  0.00000000000E+00 0.  1.
<scales pt_clust_4="550.00000" pt_clust_5="550.00000" pt_clust_6="30.20618"></scales>
<mgrwt>
<rscale>  0 0.30000000E+03</rscale>
<asrwt>  1 0.30206185E+02</asrwt>
<pdfrwt beam="1">  1        1 0.83545150E+00 0.30000000E+03</pdfrwt>
<pdfrwt beam="2">0</pdfrwt>
<totfact> 0.55211882E-04</totfact>
</mgrwt>
<clustering>
<clus scale="   30.206">  1  6  2 -1</clus>
<clus scale="  470.493">  4  5 -1 -1</clus>
<clus scale="  300.000">  1  4  2 -1</clus>
</clustering>
</event>
<event>
 6    1  0.9254630E-012  0.3000000E+03  0.7818608E-02  0.1093470E+00
          1   -1    0    0  502    0  0.00000000000E+00  0.00000000000E+00  0.23213665754E+03  0.23213665754E+03  0.00000000000E+00 0.  1.
         13   -1    0    0    0    0 -0.00000000000E+00 -0.00000000000E+00 -0.27500000000E+03  0.27500000000E+03  0.00000000000E+00 0.  1.
    9000005    2    1    2  501    0 -0.33897251197E+02 -0.12097219344E-01 -0.34367205617E+02  0.47219086914E+03  0.46971703003E+03 0.  0.
         13    1    3    3    0    0  0.19447228473E+03  0.96008988880E+02  0.22402127616E+02  0.21803451744E+03  0.00000000000E+00 0.  1.
          1    1    3    3  501    0 -0.22836953593E+03 -0.96021086100E+02 -0.56769333233E+02  0.25415635170E+03  0.00000000000E+00 0.  1.
         21    1    1    2  502  501  0.33897251197E+02  0.12097219344E-01 -0.84961368458E+01  0.34945788392E+02  0.00000000000E+00 0.  1.
<scales pt_clust_4="550.00000" pt_clust_5="550.00000" pt_clust_6="33.89727"></scales>
<mgrwt>
<rscale>  0 0.30000000E+03</rscale>
<asrwt>  1 0.33897270E+02</asrwt>
<pdfrwt beam="1">  1        1 0.84413330E+00 0.30000000E+03</pdfrwt>
<pdfrwt beam="2">0</pdfrwt>
<totfact> 0.46248150E-04</totfact>
</mgrwt>
<clustering>
<clus scale="   33.897">  1  6  2 -1</clus>
<clus scale="  469.717">  4  5 -1 -1</clus>
<clus scale="  300.000">  1  4  2 -1</clus>
</clustering>
</event>
<event>
 6    1  0.9254630E-012  0.3000000E+03  0.7818608E-02  0.1093470E+00
          1   -1    0    0  502    0  0.00000000000E+00  0.00000000000E+00  0.23948128787E+03  0.23948128787E+03  0.00000000000E+00 0.  1.
         13   -1    0    0    0    0 -0.00000000000E+00 -0.00000000000E+00 -0.27500000000E+03  0.27500000000E+03  0.00000000000E+00 0.  1.
    9000005    2    1    2  501    0 -0.34298811791E+02  0.79243557992E+01 -0.15337793858E+02  0.47390452891E+03  0.47234632495E+03 0.  0.
         13    1    3    3    0    0 -0.16333611669E+03  0.94674300254E+02  0.15427406150E+03  0.24380811347E+03  0.00000000000E+00 0.  1.
          3    1    3    3  501    0  0.12903730490E+03 -0.86749944454E+02 -0.16961185536E+03  0.23009641544E+03  0.00000000000E+00 0.  1.
         21    1    1    2  502  501  0.34298811791E+02 -0.79243557992E+01 -0.20180918274E+02  0.40576758957E+02  0.00000000000E+00 0. -1.
<scales pt_clust_4="550.00000" pt_clust_5="550.00000" pt_clust_6="35.20235"></scales>
<mgrwt>
<rscale>  0 0.30000000E+03</rscale>
<asrwt>  1 0.35202346E+02</asrwt>
<pdfrwt beam="1">  1        1 0.87084105E+00 0.30000000E+03</pdfrwt>
<pdfrwt beam="2">0</pdfrwt>
<totfact> 0.24802380E-04</totfact>
</mgrwt>
<clustering>
<clus scale="   35.202">  1  6  2 -1</clus>
<clus scale="  472.346">  4  5 -1 -1</clus>
<clus scale="  300.000">  1  4  2 -1</clus>
</clustering>
</event>
<event>
 6    1  0.9254630E-012  0.3000000E+03  0.7818608E-02  0.1093470E+00
          1   -1    0    0  502    0  0.00000000000E+00  0.00000000000E+00  0.22700273546E+03  0.22700273546E+03  0.00000000000E+00 0.  1.
         13   -1    0    0    0    0 -0.00000000000E+00 -0.00000000000E+00 -0.27500000000E+03  0.27500000000E+03  0.00000000000E+00 0.  1.
    9000005    2    1    2  501    0  0.39559075738E+01  0.35498642312E+02 -0.61309044990E+02  0.46388441559E+03  0.45842572923E+03 0.  0.
         13    1    3    3    0    0  0.20117664811E+03 -0.28830088838E+02  0.73915223055E+02  0.21625604723E+03  0.00000000000E+00 0.  1.
          3    1    3    3  501    0 -0.19722074053E+03  0.64328731150E+02 -0.13522426804E+03  0.24762836836E+03  0.00000000000E+00 0.  1.
         21    1    1    2  502  501 -0.39559075738E+01 -0.35498642312E+02  0.13311780447E+02  0.38118319866E+02  0.00000000000E+00 0.  1.
<scales pt_clust_4="550.00000" pt_clust_5="550.00000" pt_clust_6="35.71838"></scales>
<mgrwt>
<rscale>  0 0.30000000E+03</rscale>
<asrwt>  1 0.35718382E+02</asrwt>
<pdfrwt beam="1">  1        1 0.82546449E+00 0.30000000E+03</pdfrwt>
<pdfrwt beam="2">0</pdfrwt>
<totfact> 0.64452280E-04</totfact>
</mgrwt>
<clustering>
<clus scale="   35.718">  1  6  2 -1</clus>
<clus scale="  458.426">  4  5 -1 -1</clus>
<clus scale="  300.000">  1  4  2 -1</clus>
</clustering>
</event>
<event>
 6    1  0.9254630E-012  0.3000000E+03  0.7818608E-02  0.1093470E+00
          1   -1    0    0  502    0  0.00000000000E+00  0.00000000000E+00  0.23187651168E+03  0.23187651168E+03  0.00000000000E+00 0.  1.
         13   -1    0    0    0    0 -0.00000000000E+00 -0.00000000000E+00 -0.27500000000E+03  0.27500000000E+03  0.00000000000E+00 0.  1.
    9000005    2    1    2  501    0  0.34129229279E+02 -0.59581237357E+01 -0.47177009366E+02  0.47199478921E+03  0.46835147837E+03 0.  0.
         13    1    3    3    0    0 -0.62545900345E+02 -0.13259518919E+03 -0.20216222889E+03  0.24972593105E+03  0.00000000000E+00 0.  1.
          3    1    3    3  501    0  0.96675129624E+02  0.12663706546E+03  0.15498521953E+03  0.22226885816E+03  0.00000000000E+00 0.  1.
         21    1    1    2  502  501 -0.34129229279E+02  0.59581237357E+01  0.40535210412E+01  0.34881722470E+02  0.00000000000E+00 0.  1.
<scales pt_clust_4="550.00000" pt_clust_5="550.00000" pt_clust_6="34.64540"></scales>
<mgrwt>
<rscale>  0 0.30000000E+03</rscale>
<asrwt>  1 0.34645397E+02</asrwt>
<pdfrwt beam="1">  1        1 0.84318732E+00 0.30000000E+03</pdfrwt>
<pdfrwt beam="2">0</pdfrwt>
<totfact> 0.46923049E-04</totfact>
</mgrwt>
<clustering>
<clus scale="   34.645">  1  6  2 -1</clus>
<clus scale="  468.351">  4  5 -1 -1</clus>
<clus scale="  300.000">  1  4  2 -1</clus>
</clustering>
</event>
<event>
 6    1  0.9254630E-012  0.3000000E+03  0.7818608E-02  0.1093470E+00
          1   -1    0    0  502    0  0.00000000000E+00  0.00000000000E+00  0.22978809820E+03  0.22978809820E+03  0.00000000000E+00 0.  1.
         13   -1    0    0    0    0 -0.00000000000E+00 -0.00000000000E+00 -0.27500000000E+03  0.27500000000E+03  0.00000000000E+00 0.  1.
    9000005    2    1    2  501    0  0.18036864547E+02  0.25316360390E+02 -0.57833827998E+02  0.47123873745E+03  0.46664220707E+03 0.  0.
         13    1    3    3    0    0  0.57321017698E+02  0.17356024596E+03 -0.19371909525E+03  0.26633802941E+03  0.00000000000E+00 0.  1.
          1    1    3    3  501    0 -0.39284153151E+02 -0.14824388557E+03  0.13588526725E+03  0.20490070803E+03  0.00000000000E+00 0.  1.
         21    1    1    2  502  501 -0.18036864547E+02 -0.25316360390E+02  0.12621926198E+02  0.33549360754E+02  0.00000000000E+00 0.  1.
<scales pt_clust_4="550.00000" pt_clust_5="550.00000" pt_clust_6="31.08451"></scales>
<mgrwt>
<rscale>  0 0.30000000E+03</rscale>
<asrwt>  1 0.31084507E+02</asrwt>
<pdfrwt beam="1">  1        1 0.83559308E+00 0.30000000E+03</pdfrwt>
<pdfrwt beam="2">0</pdfrwt>
<totfact> 0.54779075E-04</totfact>
</mgrwt>
<clustering>
<clus scale="   31.085">  1  6  2 -1</clus>
<clus scale="  466.642">  4  5 -1 -1</clus>
<clus scale="  300.000">  1  4  2 -1</clus>
</clustering>
</event>
<event>
 6    1  0.9254630E-012  0.3000000E+03  0.7818608E-02  0.1093470E+00
          1   -1    0    0  502    0  0.00000000000E+00  0.00000000000E+00  0.21993467155E+03  0.21993467155E+03  0.00000000000E+00 0.  1.
         13   -1    0    0    0    0 -0.00000000000E+00 -0.00000000000E+00 -0.27500000000E+03  0.27500000000E+03  0.00000000000E+00 0.  1.
    9000005    2    1    2  501    0  0.52953361314E+01  0.29836650474E+02 -0.50046375982E+02  0.46421893975E+03  0.46051744590E+03 0.  0.
         13    1    3    3    0    0  0.11251402430E+03 -0.15982453103E+03  0.79204707014E+02  0.21089493118E+03  0.00000000000E+00 0.  1.
          1    1    3    3  501    0 -0.10721868817E+03  0.18966118150E+03 -0.12925108300E+03  0.25332400857E+03  0.00000000000E+00 0.  1.
         21    1    1    2  502  501 -0.52953361314E+01 -0.29836650474E+02 -0.50189524667E+01  0.30715731802E+02  0.00000000000E+00 0.  1.
<scales pt_clust_4="550.00000" pt_clust_5="550.00000" pt_clust_6="30.30292"></scales>
<mgrwt>
<rscale>  0 0.30000000E+03</rscale>
<asrwt>  1 0.30302924E+02</asrwt>
<pdfrwt beam="1">  1        1 0.79976244E+00 0.30000000E+03</pdfrwt>
<pdfrwt beam="2">0</pdfrwt>
<totfact> 0.10699727E-03</totfact>
</mgrwt>
<clustering>
<clus scale="   30.303">  1  6  2 -1</clus>
<clus scale="  460.517">  4  5 -1 -1</clus>
<clus scale="  300.000">  1  4  2 -1</clus>
</clustering>
</event>
<event>
 6    1  0.9254630E-012  0.3000000E+03  0.7818608E-02  0.1093470E+00
          1   -1    0    0  502    0  0.00000000000E+00  0.00000000000E+00  0.23792744533E+03  0.23792744533E+03  0.00000000000E+00 0.  1.
         13   -1    0    0    0    0 -0.00000000000E+00 -0.00000000000E+00 -0.27500000000E+03  0.27500000000E+03  0.00000000000E+00 0.  1.
    9000005    2    1    2  501    0 -0.20120992271E+02  0.23294845157E+02 -0.68274225945E+02  0.46909767883E+03  0.46308072538E+03 0.  0.
         13    1    3    3    0    0 -0.15903310889E+03 -0.16350159874E+03 -0.61407614002E+02  0.23621007085E+03  0.00000000000E+00 0.  1.
          3    1    3    3  501    0  0.13891211662E+03  0.18679644389E+03 -0.68666119432E+01  0.23288760799E+03  0.00000000000E+00 0.  1.
         21    1    1    2  502  501  0.20120992271E+02 -0.23294845157E+02  0.31201671272E+02  0.43829766495E+02  0.00000000000E+00 0. -1.
<scales pt_clust_4="550.00000" pt_clust_5="550.00000" pt_clust_6="30.78156"></scales>
<mgrwt>
<rscale>  0 0.30000000E+03</rscale>
<asrwt>  1 0.30781555E+02</asrwt>
<pdfrwt beam="1">  1        1 0.86519071E+00 0.30000000E+03</pdfrwt>
<pdfrwt beam="2">0</pdfrwt>
<totfact> 0.29135365E-04</totfact>
</mgrwt>
<clustering>
<clus scale="   30.782">  1  6  2 -1</clus>
<clus scale="  463.081">  4  5 -1 -1</clus>
<clus scale="  300.000">  1  4  2 -1</clus>
</clustering>
</event>
<event>
 6    1  0.9254630E-012  0.3000000E+03  0.7818608E-02  0.1093470E+00
          1   -1    0    0  502    0  0.00000000000E+00  0.00000000000E+00  0.22684080956E+03  0.22684080956E+03  0.00000000000E+00 0.  1.
         13   -1    0    0    0    0 -0.00000000000E+00 -0.00000000000E+00 -0.27500000000E+03  0.27500000000E+03  0.00000000000E+00 0.  1.
    9000005    2    1    2  501    0 -0.30341549929E+02  0.87776326623E-03 -0.53383633602E+02  0.47105275247E+03  0.46703348233E+03 0.  0.
         13    1    3    3    0    0  0.48319624038E+02  0.14450779293E+03 -0.19948270112E+03  0.25101919514E+03  0.00000000000E+00 0.  1.
          3    1    3    3  501    0 -0.78661173967E+02 -0.14450691517E+03  0.14609906752E+03  0.22003355733E+03  0.00000000000E+00 0.  1.
         21    1    1    2  502  501  0.30341549929E+02 -0.87776326625E-03  0.52244431584E+01  0.30788057087E+02  0.00000000000E+00 0. -1.
<scales pt_clust_4="550.00000" pt_clust_5="550.00000" pt_clust_6="30.34155"></scales>
<mgrwt>
<rscale>  0 0.30000000E+03</rscale>
<asrwt>  1 0.30341550E+02</asrwt>
<pdfrwt beam="1">  1        1 0.82487567E+00 0.30000000E+03</pdfrwt>
<pdfrwt beam="2">0</pdfrwt>
<totfact> 0.67281650E-04</totfact>
</mgrwt>
<clustering>
<clus scale="   30.342">  1  6  2 -1</clus>
<clus scale="  467.033">  4  5 -1 -1</clus>
<clus scale="  300.000">  1  4  2 -1</clus>
</clustering>
</event>
<event>
 6    1  0.9254630E-012  0.3000000E+03  0.7818608E-02  0.1093470E+00
          1   -1    0    0  502    0  0.00000000000E+00  0.00000000000E+00  0.22978594937E+03  0.22978594937E+03  0.00000000000E+00 0.  1.
         13   -1    0    0    0    0 -0.00000000000E+00 -0.00000000000E+00 -0.27500000000E+03  0.27500000000E+03  0.00000000000E+00 0.  1.
    9000005    2    1    2  501    0  0.29824248766E+01  0.38739613769E+02 -0.53766455407E+02  0.46500157856E+03  0.46024556902E+03 0.  0.
         13    1    3    3    0    0 -0.17842509341E+03  0.34418864915E+02  0.11675760028E+03  0.21599191986E+03  0.00000000000E+00 0.  1.
          3    1    3    3  501    0  0.18140751829E+03  0.43207488538E+01 -0.17052405568E+03  0.24900965871E+03  0.00000000000E+00 0.  1.
         21    1    1    2  502  501 -0.29824248766E+01 -0.38739613769E+02  0.85524047771E+01  0.39784370808E+02  0.00000000000E+00 0.  1.
<scales pt_clust_4="550.00000" pt_clust_5="550.00000" pt_clust_6="38.85425"></scales>
<mgrwt>
<rscale>  0 0.30000000E+03</rscale>
<asrwt>  1 0.38854247E+02</asrwt>
<pdfrwt beam="1">  1        1 0.83558527E+00 0.30000000E+03</pdfrwt>
<pdfrwt beam="2">0</pdfrwt>
<totfact> 0.52543837E-04</totfact>
</mgrwt>
<clustering>
<clus scale="   38.854">  1  6  2 -1</clus>
<clus scale="  460.246">  4  5 -1 -1</clus>
<clus scale="  300.000">  1  4  2 -1</clus>
</clustering>
</event>
<event>
 6    1  0.9254630E-012  0.3000000E+03  0.7818608E-02  0.1093470E+00
          1   -1    0    0  502    0  0.00000000000E+00  0.00000000000E+00  0.22511618949E+03  0.22511618949E+03  0.00000000000E+00 0.  1.
         13   -1    0    0    0    0 -0.00000000000E+00 -0.00000000000E+00 -0.27500000000E+03  0.27500000000E+03  0.00000000000E+00 0.  1.
    9000005    2    1    2  501    0  0.17680493347E+01  0.30410230144E+02 -0.41569311681E+02  0.46854026533E+03  0.46569739581E+03 0.  0.
         13    1    3    3    0    0 -0.20220334437E+02 -0.52642715614E+02 -0.24305012823E+03  0.24950647740E+03  0.00000000000E+00 0.  1.
          3    1    3    3  501    0  0.21988383772E+02  0.83052945758E+02  0.20148081655E+03  0.21903378793E+03  0.00000000000E+00 0.  1.
         21    1    1    2  502  501 -0.17680493347E+01 -0.30410230144E+02 -0.83144988265E+01  0.31575924160E+02  0.00000000000E+00 0.  1.
<scales pt_clust_4="550.00000" pt_clust_5="550.00000" pt_clust_6="30.46160"></scales>
<mgrwt>
<rscale>  0 0.30000000E+03</rscale>
<asrwt>  1 0.30461599E+02</asrwt>
<pdfrwt beam="1">  1        1 0.81860433E+00 0.30000000E+03</pdfrwt>
<pdfrwt beam="2">0</pdfrwt>
<totfact> 0.76329480E-04</totfact>
</mgrwt>
<clustering>
<clus scale="   30.462">  1  6  2 -1</clus>
<clus scale="  465.697">  4  5 -1 -1</clus>
<clus scale="  300.000">  1  4  2 -1</clus>
</clustering>
</event>
<event>
 6    1  0.9254630E-012  0.3000000E+03  0.7818608E-02  0.1093470E+00
          1   -1    0    0  502    0  0.00000000000E+00  0.00000000000E+00  0.23277414210E+03  0.23277414210E+03  0.00000000000E+00 0.  1.
         13   -1    0    0    0    0 -0.00000000000E+00 -0.00000000000E+00 -0.27500000000E+03  0.27500000000E+03  0.00000000000E+00 0.  1.
    9000005    2    1    2  501    0 -0.33307726005E+02  0.22498460104E+01 -0.48455706367E+02  0.47381420348E+03  0.47014622994E+03 0.  0.
         13    1    3    3    0    0  0.99590640700E+02  0.94421540737E+02 -0.20632951184E+03  0.24780151438E+03  0.00000000000E+00 0.  1.
          3    1    3    3  501    0 -0.13289836670E+03 -0.92171694727E+02  0.15787380548E+03  0.22601268911E+03  0.00000000000E+00 0.  1.
         21    1    1    2  502  501  0.33307726005E+02 -0.22498460104E+01  0.62298484632E+01  0.33959938612E+02  0.00000000000E+00 0.  1.
<scales pt_clust_4="550.00000" pt_clust_5="550.00000" pt_clust_6="33.38363"></scales>
<mgrwt>
<rscale>  0 0.30000000E+03</rscale>
<asrwt>  1 0.33383625E+02</asrwt>
<pdfrwt beam="1">  1        1 0.84645143E+00 0.30000000E+03</pdfrwt>
<pdfrwt beam="2">0</pdfrwt>
<totfact> 0.44257983E-04</totfact>
</mgrwt>
<clustering>
<clus scale="   33.384">  1  6  2 -1</clus>
<clus scale="  470.146">  4  5 -1 -1</clus>
<clus scale="  300.000">  1  4  2 -1</clus>
</clustering>
</event>
<event>
 6    1  0.9254630E-012  0.3000000E+03  0.7818608E-02  0.1093470E+00
          1   -1    0    0  502    0  0.00000000000E+00  0.00000000000E+00  0.24029563198E+03  0.24029563198E+03  0.00000000000E+00 0.  1.
         13   -1    0    0    0    0 -0.00000000000E+00 -0.00000000000E+00 -0.27500000000E+03  0.27500000000E+03  0.00000000000E+00 0.  1.
    9000005    2    1    2  501    0 -0.35717792270E+02 -0.13943195454E+02 -0.51345788945E+02  0.47349718375E+03  0.46914072472E+03 0.  0.
         13    1    3    3    0    0  0.15762294759E+03 -0.14744266391E+03 -0.92759340428E+02  0.23492259999E+03  0.00000000000E+00 0.  1.
          3    1    3    3  501    0 -0.19334073986E+03  0.13349946846E+03  0.41413551484E+02  0.23857458376E+03  0.00000000000E+00 0.  1.
         21    1    1    2  502  501  0.35717792270E+02  0.13943195454E+02  0.16641420923E+02  0.41798448230E+02  0.00000000000E+00 0. -1.
<scales pt_clust_4="550.00000" pt_clust_5="550.00000" pt_clust_6="38.34284"></scales>
<mgrwt>
<rscale>  0 0.30000000E+03</rscale>
<asrwt>  1 0.38342840E+02</asrwt>
<pdfrwt beam="1">  1        1 0.87380230E+00 0.30000000E+03</pdfrwt>
<pdfrwt beam="2">0</pdfrwt>
<totfact> 0.22763404E-04</totfact>
</mgrwt>
<clustering>
<clus scale="   38.343">  1  6  2 -1</clus>
<clus scale="  469.141">  4  5 -1 -1</clus>
<clus scale="  300.000">  1  4  2 -1</clus>
</clustering>
</event>
<event>
 6    1  0.9254630E-012  0.3000000E+03  0.7818608E-02  0.1093470E+00
          1   -1    0    0  502    0  0.00000000000E+00  0.00000000000E+00  0.24221233359E+03  0.24221233359E+03  0.00000000000E+00 0.  1.
         13   -1    0    0    0    0 -0.00000000000E+00 -0.00000000000E+00 -0.27500000000E+03  0.27500000000E+03  0.00000000000E+00 0.  1.
    9000005    2    1    2  501    0 -0.28005734859E+01 -0.33338968275E+02 -0.52430266463E+02  0.47841591940E+03  0.47435590971E+03 0.  0.
         13    1    3    3    0    0  0.18127824955E+03 -0.16751229690E+03 -0.42137943158E+02  0.25039524681E+03  0.00000000000E+00 0.  1.
          1    1    3    3  501    0 -0.18407882304E+03  0.13417332863E+03 -0.10292323305E+02  0.22802067258E+03  0.00000000000E+00 0.  1.
         21    1    1    2  502  501  0.28005734859E+01  0.33338968275E+02  0.19642600055E+02  0.38796414195E+02  0.00000000000E+00 0. -1.
<scales pt_clust_4="550.00000" pt_clust_5="550.00000" pt_clust_6="33.45639"></scales>
<mgrwt>
<rscale>  0 0.30000000E+03</rscale>
<asrwt>  1 0.33456390E+02</asrwt>
<pdfrwt beam="1">  1        1 0.88077212E+00 0.30000000E+03</pdfrwt>
<pdfrwt beam="2">0</pdfrwt>
<totfact> 0.19469161E-04</totfact>
</mgrwt>
<clustering>
<clus scale="   33.456">  1  6  2 -1</clus>
<clus scale="  474.356">  4  5 -1 -1</clus>
<clus scale="  300.000">  1  4  2 -1</clus>
</clustering>
</event>
<event>
 6    1  0.9254630E-012  0.3000000E+03  0.7818608E-02  0.1093470E+00
          1   -1    0    0  502    0  0.00000000000E+00  0.00000000000E+00  0.22132856101E+03  0.22132856101E+03  0.00000000000E+00 0.  1.
         13   -1    0    0    0    0 -0.00000000000E+00 -0.00000000000E+00 -0.27500000000E+03  0.27500000000E+03  0.00000000000E+00 0.  1.
    9000005    2    1    2  501    0  0.57229970880E+01 -0.32246555380E+02 -0.61346587333E+02  0.46269077078E+03  0.45743497085E+03 0.  0.
         13    1    3    3    0    0  0.18710390205E+03 -0.77555692964E+02 -0.15361680899E+03  0.25420637222E+03  0.00000000000E+00 0.  1.
          3    1    3    3  501    0 -0.18138090496E+03  0.45309137584E+02  0.92270221660E+02  0.20848439855E+03  0.00000000000E+00 0.  1.
         21    1    1    2  502  501 -0.57229970880E+01  0.32246555380E+02  0.76751483410E+01  0.33637790231E+02  0.00000000000E+00 0.  1.
<scales pt_clust_4="550.00000" pt_clust_5="550.00000" pt_clust_6="32.75047"></scales>
<mgrwt>
<rscale>  0 0.30000000E+03</rscale>
<asrwt>  1 0.32750466E+02</asrwt>
<pdfrwt beam="1">  1        1 0.80483113E+00 0.30000000E+03</pdfrwt>
<pdfrwt beam="2">0</pdfrwt>
<totfact> 0.96777344E-04</totfact>
</mgrwt>
<clustering>
<clus scale="   32.750">  1  6  2 -1</clus>
<clus scale="  457.435">  4  5 -1 -1</clus>
<clus scale="  300.000">  1  4  2 -1</clus>
</clustering>
</event>
<event>
 6    1  0.9254630E-012  0.3000000E+03  0.7818608E-02  0.1093470E+00
          1   -1    0    0  502    0  0.00000000000E+00  0.00000000000E+00  0.23535006819E+03  0.23535006819E+03  0.00000000000E+00 0.  1.
         13   -1    0    0    0    0 -0.00000000000E+00 -0.00000000000E+00 -0.27500000000E+03  0.27500000000E+03  0.00000000000E+00 0.  1.
    9000005    2    1    2  501    0 -0.26736744866E+02 -0.25445343686E+02 -0.35806409841E+02  0.47324088197E+03  0.47043864036E+03 0.  0.
         13    1    3    3    0    0  0.10545780323E+03 -0.20330802379E+02 -0.22096147373E+03  0.24568000053E+03  0.00000000000E+00 0.  1.
          3    1    3    3  501    0 -0.13219454810E+03 -0.51145413070E+01  0.18515506389E+03  0.22756088144E+03  0.00000000000E+00 0.  1.
         21    1    1    2  502  501  0.26736744866E+02  0.25445343686E+02 -0.38435219641E+01  0.37109186226E+02  0.00000000000E+00 0. -1.
<scales pt_clust_4="550.00000" pt_clust_5="550.00000" pt_clust_6="36.90962"></scales>
<mgrwt>
<rscale>  0 0.30000000E+03</rscale>
<asrwt>  1 0.36909625E+02</asrwt>
<pdfrwt beam="1">  1        1 0.85581843E+00 0.30000000E+03</pdfrwt>
<pdfrwt beam="2">0</pdfrwt>
<totfact> 0.35402007E-04</totfact>
</mgrwt>
<clustering>
<clus scale="   36.910">  1  6  2 -1</clus>
<clus scale="  470.439">  4  5 -1 -1</clus>
<clus scale="  300.000">  1  4  2 -1</clus>
</clustering>
</event>
<event>
 6    1  0.9254630E-012  0.3000000E+03  0.7818608E-02  0.1093470E+00
          1   -1    0    0  502    0  0.00000000000E+00  0.00000000000E+00  0.23926942166E+03  0.23926942166E+03  0.00000000000E+00 0.  1.
         13   -1    0    0    0    0 -0.00000000000E+00 -0.00000000000E+00 -0.27500000000E+03  0.27500000000E+03  0.00000000000E+00 0.  1.
    9000005    2    1    2  501    0  0.14337895414E+02 -0.29970992914E+02 -0.71761761377E+02  0.46525838400E+03  0.45848857982E+03 0.  0.
         13    1    3    3    0    0 -0.16461463754E+03 -0.96545487555E+02  0.93704630018E+02  0.21260189968E+03  0.00000000000E+00 0.  1.
          1    1    3    3  501    0  0.17895253296E+03  0.66574494641E+02 -0.16546639139E+03  0.25265648432E+03  0.00000000000E+00 0.  1.
         21    1    1    2  502  501 -0.14337895414E+02  0.29970992914E+02  0.36031183032E+02  0.49011037654E+02  0.00000000000E+00 0. -1.
<scales pt_clust_4="550.00000" pt_clust_5="550.00000" pt_clust_6="33.22402"></scales>
<mgrwt>
<rscale>  0 0.30000000E+03</rscale>
<asrwt>  1 0.33224022E+02</asrwt>
<pdfrwt beam="1">  1        1 0.87007062E+00 0.30000000E+03</pdfrwt>
<pdfrwt beam="2">0</pdfrwt>
<totfact> 0.25531670E-04</totfact>
</mgrwt>
<clustering>
<clus scale="   33.224">  1  6  2 -1</clus>
<clus scale="  458.489">  4  5 -1 -1</clus>
<clus scale="  300.000">  1  4  2 -1</clus>
</clustering>
</event>
<event>
 6    1  0.9254630E-012  0.3000000E+03  0.7818608E-02  0.1093470E+00
          1   -1    0    0  502    0  0.00000000000E+00  0.00000000000E+00  0.23214055375E+03  0.23214055375E+03  0.00000000000E+00 0.  1.
         13   -1    0    0    0    0 -0.00000000000E+00 -0.00000000000E+00 -0.27500000000E+03  0.27500000000E+03  0.00000000000E+00 0.  1.
    9000005    2    1    2  501    0 -0.11689979203E+02 -0.33182151988E+02 -0.56632239149E+02  0.46935959759E+03  0.46460037722E+03 0.  0.
         13    1    3    3    0    0  0.14056770519E+03  0.50217436455E+02  0.14167629643E+03  0.20579903701E+03  0.00000000000E+00 0.  1.
          3    1    3    3  501    0 -0.15225768439E+03 -0.83399588443E+02 -0.19830853558E+03  0.26356056058E+03  0.00000000000E+00 0.  1.
         21    1    1    2  502  501  0.11689979203E+02  0.33182151988E+02  0.13772792899E+02  0.37780956162E+02  0.00000000000E+00 0.  1.
<scales pt_clust_4="550.00000" pt_clust_5="550.00000" pt_clust_6="35.18111"></scales>
<mgrwt>
<rscale>  0 0.30000000E+03</rscale>
<asrwt>  1 0.35181115E+02</asrwt>
<pdfrwt beam="1">  1        1 0.84414747E+00 0.30000000E+03</pdfrwt>
<pdfrwt beam="2">0</pdfrwt>
<totfact> 0.45914048E-04</totfact>
</mgrwt>
<clustering>
<clus scale="   35.181">  1  6  2 -1</clus>
<clus scale="  464.600">  4  5 -1 -1</clus>
<clus scale="  300.000">  1  4  2 -1</clus>
</clustering>
</event>
<event>
 6    1  0.9254630E-012  0.3000000E+03  0.7818608E-02  0.1093470E+00
          1   -1    0    0  502    0  0.00000000000E+00  0.00000000000E+00  0.23216360359E+03  0.23216360359E+03  0.00000000000E+00 0.  1.
         13   -1    0    0    0    0 -0.00000000000E+00 -0.00000000000E+00 -0.27500000000E+03  0.27500000000E+03  0.00000000000E+00 0.  1.
    9000005    2    1    2  501    0 -0.29840121502E+02  0.16819312568E+02 -0.59405570589E+02  0.46911285249E+03  0.46407383510E+03 0.  0.
         13    1    3    3    0    0  0.97759261944E+01  0.12235973448E+03  0.17223349522E+03  0.21149905491E+03  0.00000000000E+00 0.  1.
          1    1    3    3  501    0 -0.39616047697E+02 -0.10554042191E+03 -0.23163906581E+03  0.25761379757E+03  0.00000000000E+00 0.  1.
         21    1    1    2  502  501  0.29840121502E+02 -0.16819312568E+02  0.16569174176E+02  0.38050751102E+02  0.00000000000E+00 0. -1.
<scales pt_clust_4="550.00000" pt_clust_5="550.00000" pt_clust_6="34.25379"></scales>
<mgrwt>
<rscale>  0 0.30000000E+03</rscale>
<asrwt>  1 0.34253790E+02</asrwt>
<pdfrwt beam="1">  1        1 0.84423129E+00 0.30000000E+03</pdfrwt>
<pdfrwt beam="2">0</pdfrwt>
<totfact> 0.46067681E-04</totfact>
</mgrwt>
<clustering>
<clus scale="   34.254">  1  6  2 -1</clus>
<clus scale="  464.074">  4  5 -1 -1</clus>
<clus scale="  300.000">  1  4  2 -1</clus>
</clustering>
</event>
<event>
 6    1  0.9254630E-012  0.3000000E+03  0.7818608E-02  0.1093470E+00
          1   -1    0    0  502    0  0.00000000000E+00  0.00000000000E+00  0.23918501100E+03  0.23918501100E+03  0.00000000000E+00 0.  1.
         13   -1    0    0    0    0 -0.00000000000E+00 -0.00000000000E+00 -0.27500000000E+03  0.27500000000E+03  0.00000000000E+00 0.  1.
    9000005    2    1    2  501    0  0.38160291408E+02 -0.50478421185E+01 -0.21686943111E+02  0.47318147176E+03  0.47111431008E+03 0.  0.
         13    1    3    3    0    0  0.24292767112E+03  0.69615681407E+02 -0.33446932548E+02  0.25490957963E+03  0.00000000000E+00 0.  1.
          3    1    3    3  501    0 -0.20476737971E+03 -0.74663523525E+02  0.11759989437E+02  0.21827189212E+03  0.00000000000E+00 0.  1.
         21    1    1    2  502  501 -0.38160291408E+02  0.50478421185E+01 -0.14128045885E+02  0.41003539249E+02  0.00000000000E+00 0.  1.
<scales pt_clust_4="550.00000" pt_clust_5="550.00000" pt_clust_6="38.49273"></scales>
<mgrwt>
<rscale>  0 0.30000000E+03</rscale>
<asrwt>  1 0.38492727E+02</asrwt>
<pdfrwt beam="1">  1        1 0.86976368E+00 0.30000000E+03</pdfrwt>
<pdfrwt beam="2">0</pdfrwt>
<totfact> 0.25021267E-04</totfact>
</mgrwt>
<clustering>
<clus scale="   38.493">  1  6  2 -1</clus>
<clus scale="  471.114">  4  5 -1 -1</clus>
<clus scale="  300.000">  1  4  2 -1</clus>
</clustering>
</event>
<event>
 6    1  0.9254630E-012  0.3000000E+03  0.7818608E-02  0.1093470E+00
          1   -1    0    0  502    0  0.00000000000E+00  0.00000000000E+00  0.23688845108E+03  0.23688845108E+03  0.00000000000E+00 0.  1.
         13   -1    0    0    0    0 -0.00000000000E+00 -0.00000000000E+00 -0.27500000000E+03  0.27500000000E+03  0.00000000000E+00 0.  1.
    9000005    2    1    2  501    0 -0.28053393509E+02  0.17686846109E+02 -0.24817778253E+02  0.47615972662E+03  0.47435466238E+03 0.  0.
         13    1    3    3    0    0 -0.71868536737E+02  0.18875318147E+03  0.13093248096E+03  0.24069932418E+03  0.00000000000E+00 0.  1.
          1    1    3    3  501    0  0.43815143228E+02 -0.17106633537E+03 -0.15575025922E+03  0.23546040244E+03  0.00000000000E+00 0.  1.
         21    1    1    2  502  501  0.28053393509E+02 -0.17686846109E+02 -0.13293770669E+02  0.35728724456E+02  0.00000000000E+00 0.  1.
<scales pt_clust_4="550.00000" pt_clust_5="550.00000" pt_clust_6="33.16351"></scales>
<mgrwt>
<rscale>  0 0.30000000E+03</rscale>
<asrwt>  1 0.33163512E+02</asrwt>
<pdfrwt beam="1">  1        1 0.86141255E+00 0.30000000E+03</pdfrwt>
<pdfrwt beam="2">0</pdfrwt>
<totfact> 0.31555387E-04</totfact>
</mgrwt>
<clustering>
<clus scale="   33.164">  1  6  2 -1</clus>
<clus scale="  474.355">  4  5 -1 -1</clus>
<clus scale="  300.000">  1  4  2 -1</clus>
</clustering>
</event>
<event>
 6    1  0.9254630E-012  0.3000000E+03  0.7818608E-02  0.1093470E+00
          1   -1    0    0  502    0  0.00000000000E+00  0.00000000000E+00  0.23963991614E+03  0.23963991614E+03  0.00000000000E+00 0.  1.
         13   -1    0    0    0    0 -0.00000000000E+00 -0.00000000000E+00 -0.27500000000E+03  0.27500000000E+03  0.00000000000E+00 0.  1.
    9000005    2    1    2  501    0  0.51557187548E+02  0.93662612382E+01 -0.36572754558E+02  0.46222483236E+03  0.45778636812E+03 0.  0.
         13    1    3    3    0    0 -0.66223873505E+02 -0.13937213742E+03  0.13605259071E+03  0.20571947295E+03  0.00000000000E+00 0.  1.
          1    1    3    3  501    0  0.11778106105E+03  0.14873839865E+03 -0.17262534527E+03  0.25650535941E+03  0.00000000000E+00 0.  1.
         21    1    1    2  502  501 -0.51557187548E+02 -0.93662612382E+01  0.12126706944E+01  0.52415083780E+02  0.00000000000E+00 0.  1.
<scales pt_clust_4="550.00000" pt_clust_5="550.00000" pt_clust_6="52.40105"></scales>
<mgrwt>
<rscale>  0 0.30000000E+03</rscale>
<asrwt>  1 0.52401054E+02</asrwt>
<pdfrwt beam="1">  1        1 0.87141788E+00 0.30000000E+03</pdfrwt>
<pdfrwt beam="2">0</pdfrwt>
<totfact> 0.22775646E-04</totfact>
</mgrwt>
<clustering>
<clus scale="   52.401">  1  6  2 -1</clus>
<clus scale="  457.786">  4  5 -1 -1</clus>
<clus scale="  300.000">  1  4  2 -1</clus>
</clustering>
</event>
<event>
 6    1  0.9254630E-012  0.3000000E+03  0.7818608E-02  0.1093470E+00
          1   -1    0    0  502    0  0.00000000000E+00  0.00000000000E+00  0.24491178634E+03  0.24491178634E+03  0.00000000000E+00 0.  1.
         13   -1    0    0    0    0 -0.00000000000E+00 -0.00000000000E+00 -0.27500000000E+03  0.27500000000E+03  0.00000000000E+00 0.  1.
    9000005    2    1    2  501    0 -0.18845627938E+02  0.40687578032E+02 -0.44092252556E+02  0.47293573069E+03  0.46873600452E+03 0.  0.
         13    1    3    3    0    0 -0.48743538458E+02  0.12605690069E+03 -0.22967102215E+03  0.26648649716E+03  0.00000000000E+00 0.  1.
          3    1    3    3  501    0  0.29897910520E+02 -0.85369322659E+02  0.18557876959E+03  0.20644923354E+03  0.00000000000E+00 0.  1.
         21    1    1    2  502  501  0.18845627938E+02 -0.40687578032E+02  0.14004038892E+02  0.46976055643E+02  0.00000000000E+00 0. -1.
<scales pt_clust_4="550.00000" pt_clust_5="550.00000" pt_clust_6="44.84012"></scales>
<mgrwt>
<rscale>  0 0.30000000E+03</rscale>
<asrwt>  1 0.44840124E+02</asrwt>
<pdfrwt beam="1">  1        1 0.89058831E+00 0.30000000E+03</pdfrwt>
<pdfrwt beam="2">0</pdfrwt>
<totfact> 0.13608158E-04</totfact>
</mgrwt>
<clustering>
<clus scale="   44.840">  1  6  2 -1</clus>
<clus scale="  468.736">  4  5 -1 -1</clus>
<clus scale="  300.000">  1  4  2 -1</clus>
</clustering>
</event>
<event>
 6    1  0.9254630E-012  0.3000000E+03  0.7818608E-02  0.1093470E+00
          1   -1    0    0  502    0  0.00000000000E+00  0.00000000000E+00  0.22976900996E+03  0.22976900996E+03  0.00000000000E+00 0.  1.
         13   -1    0    0    0    0 -0.00000000000E+00 -0.00000000000E+00 -0.27500000000E+03  0.27500000000E+03  0.00000000000E+00 0.  1.
    9000005    2    1    2  501    0  0.30752835221E+02  0.17537316796E+02 -0.27064997322E+02  0.46497833711E+03  0.46283803382E+03 0.  0.
         13    1    3    3    0    0 -0.12014773171E+03  0.19479533082E+03 -0.37664173253E+02  0.23194673589E+03  0.00000000000E+00 0.  1.
          3    1    3    3  501    0  0.15090056693E+03 -0.17725801402E+03  0.10599175931E+02  0.23303160122E+03  0.00000000000E+00 0.  1.
         21    1    1    2  502  501 -0.30752835221E+02 -0.17537316796E+02 -0.18165992716E+02  0.39790672850E+02  0.00000000000E+00 0. -1.
<scales pt_clust_4="550.00000" pt_clust_5="550.00000" pt_clust_6="35.40192"></scales>
<mgrwt>
<rscale>  0 0.30000000E+03</rscale>
<asrwt>  1 0.35401915E+02</asrwt>
<pdfrwt beam="1">  1        1 0.83552367E+00 0.30000000E+03</pdfrwt>
<pdfrwt beam="2">0</pdfrwt>
<totfact> 0.53511731E-04</totfact>
</mgrwt>
<clustering>
<clus scale="   35.402">  1  6  2 -1</clus>
<clus scale="  462.838">  4  5 -1 -1</clus>
<clus scale="  300.000">  1  4  2 -1</clus>
</clustering>
</event>
<event>
 6    1  0.9254630E-012  0.3000000E+03  0.7818608E-02  0.1093470E+00
          1   -1    0    0  502    0  0.00000000000E+00  0.00000000000E+00  0.21921451419E+03  0.21921451419E+03  0.00000000000E+00 0.  1.
         13   -1    0    0    0    0 -0.00000000000E+00 -0.00000000000E+00 -0.27500000000E+03  0.27500000000E+03  0.00000000000E+00 0.  1.
    9000005    2    1    2  501    0 -0.55103465192E+01 -0.32042427237E+02 -0.43591597877E+02  0.45949028684E+03  0.45626090697E+03 0.  0.
         13    1    3    3    0    0 -0.27377665533E+02 -0.16379805380E+03  0.15034390898E+03  0.22401479854E+03  0.00000000000E+00 0.  1.
          1    1    3    3  501    0  0.21867319014E+02  0.13175562656E+03 -0.19393550685E+03  0.23547548830E+03  0.00000000000E+00 0.  1.
         21    1    1    2  502  501  0.55103465192E+01  0.32042427237E+02 -0.12193887936E+02  0.34724227350E+02  0.00000000000E+00 0.  1.
<scales pt_clust_4="550.00000" pt_clust_5="550.00000" pt_clust_6="32.51280"></scales>
<mgrwt>
<rscale>  0 0.30000000E+03</rscale>
<asrwt>  1 0.32512799E+02</asrwt>
<pdfrwt beam="1">  1        1 0.79714369E+00 0.30000000E+03</pdfrwt>
<pdfrwt beam="2">0</pdfrwt>
<totfact> 0.11029188E-03</totfact>
</mgrwt>
<clustering>
<clus scale="   32.513">  1  6  2 -1</clus>
<clus scale="  456.261">  4  5 -1 -1</clus>
<clus scale="  300.000">  1  4  2 -1</clus>
</clustering>
</event>
<event>
 6    1  0.9254630E-012  0.3000000E+03  0.7818608E-02  0.1093470E+00
          1   -1    0    0  502    0  0.00000000000E+00  0.00000000000E+00  0.23147560715E+03  0.23147560715E+03  0.00000000000E+00 0.  1.
         13   -1    0    0    0    0 -0.00000000000E+00 -0.00000000000E+00 -0.27500000000E+03  0.27500000000E+03  0.00000000000E+00 0.  1.
    9000005    2    1    2  501    0  0.26828114894E+02 -0.13903189114E+02 -0.50446200675E+02  0.47547628716E+03  0.47182606337E+03 0.  0.
         13    1    3    3    0    0 -0.46559603744E+02  0.21297501930E+03  0.37724732766E+02  0.22124491183E+03  0.00000000000E+00 0.  1.
          1    1    3    3  501    0  0.73387718638E+02 -0.22687820842E+03 -0.88170933441E+02  0.25423137533E+03  0.00000000000E+00 0.  1.
         21    1    1    2  502  501 -0.26828114894E+02  0.13903189114E+02  0.69218078284E+01  0.30999319991E+02  0.00000000000E+00 0.  1.
<scales pt_clust_4="550.00000" pt_clust_5="550.00000" pt_clust_6="30.21666"></scales>
<mgrwt>
<rscale>  0 0.30000000E+03</rscale>
<asrwt>  1 0.30216658E+02</asrwt>
<pdfrwt beam="1">  1        1 0.84172948E+00 0.30000000E+03</pdfrwt>
<pdfrwt beam="2">0</pdfrwt>
<totfact> 0.49524021E-04</totfact>
</mgrwt>
<clustering>
<clus scale="   30.217">  1  6  2 -1</clus>
<clus scale="  471.826">  4  5 -1 -1</clus>
<clus scale="  300.000">  1  4  2 -1</clus>
</clustering>
</event>
<event>
 6    1  0.9254630E-012  0.3000000E+03  0.7818608E-02  0.1093470E+00
          1   -1    0    0  502    0  0.00000000000E+00  0.00000000000E+00  0.24407136406E+03  0.24407136406E+03  0.00000000000E+00 0.  1.
         13   -1    0    0    0    0 -0.00000000000E+00 -0.00000000000E+00 -0.27500000000E+03  0.27500000000E+03  0.00000000000E+00 0.  1.
    9000005    2    1    2  501    0  0.11473405990E+01  0.44794404662E+02 -0.63896514126E+02  0.46344101199E+03  0.45682267019E+03 0.  0.
         13    1    3    3    0    0  0.18225826736E+03  0.13924021925E+03 -0.10949493187E+03  0.25415557201E+03  0.00000000000E+00 0.  1.
          3    1    3    3  501    0 -0.18111092676E+03 -0.94445814593E+02  0.45598417744E+02  0.20928543998E+03  0.00000000000E+00 0.  1.
         21    1    1    2  502  501 -0.11473405990E+01 -0.44794404662E+02  0.32967878189E+02  0.55630352072E+02  0.00000000000E+00 0.  1.
<scales pt_clust_4="550.00000" pt_clust_5="550.00000" pt_clust_6="44.80910"></scales>
<mgrwt>
<rscale>  0 0.30000000E+03</rscale>
<asrwt>  1 0.44809096E+02</asrwt>
<pdfrwt beam="1">  1        1 0.88753223E+00 0.30000000E+03</pdfrwt>
<pdfrwt beam="2">0</pdfrwt>
<totfact> 0.14968317E-04</totfact>
</mgrwt>
<clustering>
<clus scale="   44.809">  1  6  2 -1</clus>
<clus scale="  456.823">  4  5 -1 -1</clus>
<clus scale="  300.000">  1  4  2 -1</clus>
</clustering>
</event>
<event>
 6    1  0.9254630E-012  0.3000000E+03  0.7818608E-02  0.1093470E+00
          1   -1    0    0  502    0  0.00000000000E+00  0.00000000000E+00  0.25695290505E+03  0.25695290505E+03  0.00000000000E+00 0.  1.
         13   -1    0    0    0    0 -0.00000000000E+00 -0.00000000000E+00 -0.27500000000E+03  0.27500000000E+03  0.00000000000E+00 0.  1.
    9000005    2    1    2  501    0 -0.92645260829E+01  0.54502035027E+02 -0.69366741103E+01  0.47556367987E+03  0.47228846365E+03 0.  0.
         13    1    3    3    0    0  0.11093938178E+03  0.18895863694E+03 -0.13226162967E+03  0.25594150032E+03  0.00000000000E+00 0.  1.
          1    1    3    3  501    0 -0.12020390786E+03 -0.13445660191E+03  0.12532495556E+03  0.21962217955E+03  0.00000000000E+00 0.  1.
         21    1    1    2  502  501  0.92645260829E+01 -0.54502035027E+02 -0.11110420838E+02  0.56389225184E+02  0.00000000000E+00 0.  1.
<scales pt_clust_4="550.00000" pt_clust_5="550.00000" pt_clust_6="55.28387"></scales>
<mgrwt>
<rscale>  0 0.30000000E+03</rscale>
<asrwt>  1 0.55283870E+02</asrwt>
<pdfrwt beam="1">  1        1 0.93437420E+00 0.30000000E+03</pdfrwt>
<pdfrwt beam="2">0</pdfrwt>
<totfact> 0.21117857E-05</totfact>
</mgrwt>
<clustering>
<clus scale="   55.284">  1  6  2 -1</clus>
<clus scale="  472.288">  4  5 -1 -1</clus>
<clus scale="  300.000">  1  4  2 -1</clus>
</clustering>
</event>
<event>
 6    1  0.9254630E-012  0.3000000E+03  0.7818608E-02  0.1093470E+00
          1   -1    0    0  502    0  0.00000000000E+00  0.00000000000E+00  0.24749389401E+03  0.24749389401E+03  0.00000000000E+00 0.  1.
         13   -1    0    0    0    0 -0.00000000000E+00 -0.00000000000E+00 -0.27500000000E+03  0.27500000000E+03  0.00000000000E+00 0.  1.
    9000005    2    1    2  501    0 -0.13073494352E+02  0.28787332808E+02 -0.60221189327E+02  0.47699770227E+03  0.47212348972E+03 0.  0.
         13    1    3    3    0    0  0.16957249389E+03  0.16819471750E+03 -0.63750602766E+02  0.24720119950E+03  0.00000000000E+00 0.  1.
          1    1    3    3  501    0 -0.18264598825E+03 -0.13940738469E+03  0.35294134382E+01  0.22979650278E+03  0.00000000000E+00 0.  1.
         21    1    1    2  502  501  0.13073494352E+02 -0.28787332808E+02  0.32715083337E+02  0.45496191736E+02  0.00000000000E+00 0.  1.
<scales pt_clust_4="550.00000" pt_clust_5="550.00000" pt_clust_6="31.61688"></scales>
<mgrwt>
<rscale>  0 0.30000000E+03</rscale>
<asrwt>  1 0.31616875E+02</asrwt>
<pdfrwt beam="1">  1        1 0.89997780E+00 0.30000000E+03</pdfrwt>
<pdfrwt beam="2">0</pdfrwt>
<totfact> 0.11265474E-04</totfact>
</mgrwt>
<clustering>
<clus scale="   31.617">  1  6  2 -1</clus>
<clus scale="  472.123">  4  5 -1 -1</clus>
<clus scale="  300.000">  1  4  2 -1</clus>
</clustering>
</event>
<event>
 6    1  0.9254630E-012  0.3000000E+03  0.7818608E-02  0.1093470E+00
          1   -1    0    0  502    0  0.00000000000E+00  0.00000000000E+00  0.22668718166E+03  0.22668718166E+03  0.00000000000E+00 0.  1.
         13   -1    0    0    0    0 -0.00000000000E+00 -0.00000000000E+00 -0.27500000000E+03  0.27500000000E+03  0.00000000000E+00 0.  1.
    9000005    2    1    2  501    0  0.36203383617E+02  0.64418342137E+01 -0.45873571349E+02  0.46483433728E+03  0.46110128426E+03 0.  0.
         13    1    3    3    0    0 -0.66111794169E+02 -0.17962443846E+03 -0.13533456649E+03  0.23441662293E+03  0.00000000000E+00 0.  1.
          3    1    3    3  501    0  0.10231517779E+03  0.18606627268E+03  0.89460995138E+02  0.23041771434E+03  0.00000000000E+00 0.  1.
         21    1    1    2  502  501 -0.36203383617E+02 -0.64418342137E+01 -0.24392469905E+01  0.36852844385E+02  0.00000000000E+00 0.  1.
<scales pt_clust_4="550.00000" pt_clust_5="550.00000" pt_clust_6="36.77203"></scales>
<mgrwt>
<rscale>  0 0.30000000E+03</rscale>
<asrwt>  1 0.36772030E+02</asrwt>
<pdfrwt beam="1">  1        1 0.82431702E+00 0.30000000E+03</pdfrwt>
<pdfrwt beam="2">0</pdfrwt>
<totfact> 0.65634843E-04</totfact>
</mgrwt>
<clustering>
<clus scale="   36.772">  1  6  2 -1</clus>
<clus scale="  461.101">  4  5 -1 -1</clus>
<clus scale="  300.000">  1  4  2 -1</clus>
</clustering>
</event>
<event>
 6    1  0.9254630E-012  0.3000000E+03  0.7818608E-02  0.1093470E+00
          1   -1    0    0  502    0  0.00000000000E+00  0.00000000000E+00  0.22540055522E+03  0.22540055522E+03  0.00000000000E+00 0.  1.
         13   -1    0    0    0    0 -0.00000000000E+00 -0.00000000000E+00 -0.27500000000E+03  0.27500000000E+03  0.00000000000E+00 0.  1.
    9000005    2    1    2  501    0  0.29956076090E+02  0.63982385302E+01 -0.47682041958E+02  0.46970885627E+03  0.46627730867E+03 0.  0.
         13    1    3    3    0    0  0.90958876224E+02 -0.10664932587E+03 -0.21629265291E+03  0.25774038794E+03  0.00000000000E+00 0.  1.
          3    1    3    3  501    0 -0.61002800134E+02  0.11304756440E+03  0.16861061095E+03  0.21196846833E+03  0.00000000000E+00 0.  1.
         21    1    1    2  502  501 -0.29956076090E+02 -0.63982385302E+01 -0.19174028222E+01  0.30691698953E+02  0.00000000000E+00 0. -1.
<scales pt_clust_4="550.00000" pt_clust_5="550.00000" pt_clust_6="30.63175"></scales>
<mgrwt>
<rscale>  0 0.30000000E+03</rscale>
<asrwt>  1 0.30631747E+02</asrwt>
<pdfrwt beam="1">  1        1 0.81963838E+00 0.30000000E+03</pdfrwt>
<pdfrwt beam="2">0</pdfrwt>
<totfact> 0.74713761E-04</totfact>
</mgrwt>
<clustering>
<clus scale="   30.632">  1  6  2 -1</clus>
<clus scale="  466.277">  4  5 -1 -1</clus>
<clus scale="  300.000">  1  4  2 -1</clus>
</clustering>
</event>
<event>
 6    1  0.9254630E-012  0.3000000E+03  0.7818608E-02  0.1093470E+00
          1   -1    0    0  502    0  0.00000000000E+00  0.00000000000E+00  0.25062920154E+03  0.25062920154E+03  0.00000000000E+00 0.  1.
         13   -1    0    0    0    0 -0.00000000000E+00 -0.00000000000E+00 -0.27500000000E+03  0.27500000000E+03  0.00000000000E+00 0.  1.
    9000005    2    1    2  501    0  0.37991798901E+02 -0.35629751577E+02 -0.50586637627E+02  0.46731860041E+03  0.46164359673E+03 0.  0.
         13    1    3    3    0    0 -0.15757865286E+03 -0.12837225726E+03 -0.12479543372E+03  0.23850444136E+03  0.00000000000E+00 0.  1.
          3    1    3    3  501    0  0.19557045177E+03  0.92742505679E+02  0.74208796091E+02  0.22881415905E+03  0.00000000000E+00 0.  1.
         21    1    1    2  502  501 -0.37991798901E+02  0.35629751577E+02  0.26215839169E+02  0.58310601133E+02  0.00000000000E+00 0.  1.
<scales pt_clust_4="550.00000" pt_clust_5="550.00000" pt_clust_6="52.08508"></scales>
<mgrwt>
<rscale>  0 0.30000000E+03</rscale>
<asrwt>  1 0.52085084E+02</asrwt>
<pdfrwt beam="1">  1        1 0.91137891E+00 0.30000000E+03</pdfrwt>
<pdfrwt beam="2">0</pdfrwt>
<totfact> 0.61844783E-05</totfact>
</mgrwt>
<clustering>
<clus scale="   52.085">  1  6  2 -1</clus>
<clus scale="  461.644">  4  5 -1 -1</clus>
<clus scale="  300.000">  1  4  2 -1</clus>
</clustering>
</event>
<event>
 6    1  0.9254630E-012  0.3000000E+03  0.7818608E-02  0.1093470E+00
          1   -1    0    0  502    0  0.00000000000E+00  0.00000000000E+00  0.21847702101E+03  0.21847702101E+03  0.00000000000E+00 0.  1.
         13   -1    0    0    0    0 -0.00000000000E+00 -0.00000000000E+00 -0.27500000000E+03  0.27500000000E+03  0.00000000000E+00 0.  1.
    9000005    2    1    2  501    0  0.30528167465E+02  0.44962924712E+01 -0.60851066438E+02  0.46231746396E+03  0.45725528924E+03 0.  0.
         13    1    3    3    0    0 -0.16309216220E+03 -0.13823053453E+03  0.16182419860E+01  0.21379745732E+03  0.00000000000E+00 0.  1.
          1    1    3    3  501    0  0.19362032967E+03  0.14272682700E+03 -0.62469308424E+02  0.24852000664E+03  0.00000000000E+00 0.  1.
         21    1    1    2  502  501 -0.30528167465E+02 -0.44962924712E+01  0.43280874458E+01  0.31159557052E+02  0.00000000000E+00 0. -1.
<scales pt_clust_4="550.00000" pt_clust_5="550.00000" pt_clust_6="30.85751"></scales>
<mgrwt>
<rscale>  0 0.30000000E+03</rscale>
<asrwt>  1 0.30857506E+02</asrwt>
<pdfrwt beam="1">  1        1 0.79446189E+00 0.30000000E+03</pdfrwt>
<pdfrwt beam="2">0</pdfrwt>
<totfact> 0.11661041E-03</totfact>
</mgrwt>
<clustering>
<clus scale="   30.858">  1  6  2 -1</clus>
<clus scale="  457.255">  4  5 -1 -1</clus>
<clus scale="  300.000">  1  4  2 -1</clus>
</clustering>
</event>
<event>
 6    1  0.9254630E-012  0.3000000E+03  0.7818608E-02  0.1093470E+00
          1   -1    0    0  502    0  0.00000000000E+00  0.00000000000E+00  0.22677370644E+03  0.22677370644E+03  0.00000000000E+00 0.  1.
         13   -1    0    0    0    0 -0.00000000000E+00 -0.00000000000E+00 -0.27500000000E+03  0.27500000000E+03  0.00000000000E+00 0.  1.
    9000005    2    1    2  501    0  0.22480546526E+02 -0.25150431992E+02 -0.62701688632E+02  0.46506599248E+03  0.45958345967E+03 0.  0.
         13    1    3    3    0    0  0.20251296294E+02 -0.16752001227E+03  0.13869110075E+03  0.21842227665E+03  0.00000000000E+00 0.  1.
          3    1    3    3  501    0  0.22292502321E+01  0.14236958027E+03 -0.20139278938E+03  0.24664371583E+03  0.00000000000E+00 0.  1.
         21    1    1    2  502  501 -0.22480546526E+02  0.25150431992E+02  0.14475395070E+02  0.36707713957E+02  0.00000000000E+00 0. -1.
<scales pt_clust_4="550.00000" pt_clust_5="550.00000" pt_clust_6="33.73306"></scales>
<mgrwt>
<rscale>  0 0.30000000E+03</rscale>
<asrwt>  1 0.33733058E+02</asrwt>
<pdfrwt beam="1">  1        1 0.82463166E+00 0.30000000E+03</pdfrwt>
<pdfrwt beam="2">0</pdfrwt>
<totfact> 0.66270787E-04</totfact>
</mgrwt>
<clustering>
<clus scale="   33.733">  1  6  2 -1</clus>
<clus scale="  459.583">  4  5 -1 -1</clus>
<clus scale="  300.000">  1  4  2 -1</clus>
</clustering>
</event>
<event>
 6    1  0.9254630E-012  0.3000000E+03  0.7818608E-02  0.1093470E+00
          1   -1    0    0  502    0  0.00000000000E+00  0.00000000000E+00  0.24621072436E+03  0.24621072436E+03  0.00000000000E+00 0.  1.
         13   -1    0    0    0    0 -0.00000000000E+00 -0.00000000000E+00 -0.27500000000E+03  0.27500000000E+03  0.00000000000E+00 0.  1.
    9000005    2    1    2  501    0 -0.29031975518E+02  0.10247669838E+02 -0.63072874725E+02  0.47513214467E+03  0.46991967083E+03 0.  0.
         13    1    3    3    0    0 -0.12574866431E+03  0.21037600738E+03 -0.39303116813E+01  0.24512494448E+03  0.00000000000E+00 0.  1.
          3    1    3    3  501    0  0.96716688794E+02 -0.20012833754E+03 -0.59142563044E+02  0.23000720019E+03  0.00000000000E+00 0.  1.
         21    1    1    2  502  501  0.29031975518E+02 -0.10247669838E+02  0.34283599081E+02  0.46078579682E+02  0.00000000000E+00 0.  1.
<scales pt_clust_4="550.00000" pt_clust_5="550.00000" pt_clust_6="30.78750"></scales>
<mgrwt>
<rscale>  0 0.30000000E+03</rscale>
<asrwt>  1 0.30787503E+02</asrwt>
<pdfrwt beam="1">  1        1 0.89531172E+00 0.30000000E+03</pdfrwt>
<pdfrwt beam="2">0</pdfrwt>
<totfact> 0.12815653E-04</totfact>
</mgrwt>
<clustering>
<clus scale="   30.788">  1  6  2 -1</clus>
<clus scale="  469.920">  4  5 -1 -1</clus>
<clus scale="  300.000">  1  4  2 -1</clus>
</clustering>
</event>
<event>
 6    1  0.9254630E-012  0.3000000E+03  0.7818608E-02  0.1093470E+00
          1   -1    0    0  502    0  0.00000000000E+00  0.00000000000E+00  0.22623827017E+03  0.22623827017E+03  0.00000000000E+00 0.  1.
         13   -1    0    0    0    0 -0.00000000000E+00 -0.00000000000E+00 -0.27500000000E+03  0.27500000000E+03  0.00000000000E+00 0.  1.
    9000005    2    1    2  501    0 -0.15106082336E+02 -0.27754999759E+02 -0.64203683325E+02  0.46606743477E+03  0.46054121104E+03 0.  0.
         13    1    3    3    0    0 -0.93407063989E+02 -0.39904978801E+02  0.18145261505E+03  0.20794792243E+03  0.00000000000E+00 0.  1.
          3    1    3    3  501    0  0.78300981653E+02  0.12149979042E+02 -0.24565629837E+03  0.25811951234E+03  0.00000000000E+00 0.  1.
         21    1    1    2  502  501  0.15106082336E+02  0.27754999759E+02  0.15441953496E+02  0.35170835403E+02  0.00000000000E+00 0. -1.
<scales pt_clust_4="550.00000" pt_clust_5="550.00000" pt_clust_6="31.59958"></scales>
<mgrwt>
<rscale>  0 0.30000000E+03</rscale>
<asrwt>  1 0.31599584E+02</asrwt>
<pdfrwt beam="1">  1        1 0.82268462E+00 0.30000000E+03</pdfrwt>
<pdfrwt beam="2">0</pdfrwt>
<totfact> 0.69836064E-04</totfact>
</mgrwt>
<clustering>
<clus scale="   31.600">  1  6  2 -1</clus>
<clus scale="  460.541">  4  5 -1 -1</clus>
<clus scale="  300.000">  1  4  2 -1</clus>
</clustering>
</event>
<event>
 6    1  0.9254630E-012  0.3000000E+03  0.7818608E-02  0.1093470E+00
          1   -1    0    0  502    0  0.00000000000E+00  0.00000000000E+00  0.25250722724E+03  0.25250722724E+03  0.00000000000E+00 0.  1.
         13   -1    0    0    0    0 -0.00000000000E+00 -0.00000000000E+00 -0.27500000000E+03  0.27500000000E+03  0.00000000000E+00 0.  1.
    9000005    2    1    2  501    0  0.30282658096E+02  0.46073605264E+01 -0.32287310769E+02  0.49534824518E+03  0.49334485546E+03 0.  0.
         13    1    3    3    0    0 -0.98522635816E+02 -0.21679989532E+03 -0.13965237033E+02  0.23854545106E+03  0.00000000000E+00 0.  1.
          3    1    3    3  501    0  0.12880529391E+03  0.22140725584E+03 -0.18322073735E+02  0.25680279412E+03  0.00000000000E+00 0.  1.
         21    1    1    2  502  501 -0.30282658096E+02 -0.46073605264E+01  0.97945380066E+01  0.32158982060E+02  0.00000000000E+00 0.  1.
<scales pt_clust_4="550.00000" pt_clust_5="550.00000" pt_clust_6="30.63115"></scales>
<mgrwt>
<rscale>  0 0.30000000E+03</rscale>
<asrwt>  1 0.30631147E+02</asrwt>
<pdfrwt beam="1">  1        1 0.91820810E+00 0.30000000E+03</pdfrwt>
<pdfrwt beam="2">0</pdfrwt>
<totfact> 0.46939039E-05</totfact>
</mgrwt>
<clustering>
<clus scale="   30.631">  1  6  2 -1</clus>
<clus scale="  493.345">  4  5 -1 -1</clus>
<clus scale="  300.000">  1  4  2 -1</clus>
</clustering>
</event>
<event>
 6    1  0.9254630E-012  0.3000000E+03  0.7818608E-02  0.1093470E+00
          1   -1    0    0  502    0  0.00000000000E+00  0.00000000000E+00  0.22150565758E+03  0.22150565758E+03  0.00000000000E+00 0.  1.
         13   -1    0    0    0    0 -0.00000000000E+00 -0.00000000000E+00 -0.27500000000E+03  0.27500000000E+03  0.00000000000E+00 0.  1.
    9000005    2    1    2  501    0  0.57410544224E+01 -0.34968598178E+02 -0.45886254398E+02  0.46026140883E+03  0.45659528420E+03 0.  0.
         13    1    3    3    0    0  0.21437044325E+03 -0.73031828608E+02  0.42647823212E+02  0.23044993329E+03  0.00000000000E+00 0.  1.
          3    1    3    3  501    0 -0.20862938882E+03  0.38063230430E+02 -0.88534077610E+02  0.22981147554E+03  0.00000000000E+00 0.  1.
         21    1    1    2  502  501 -0.57410544224E+01  0.34968598178E+02 -0.76080880195E+01  0.36244248753E+02  0.00000000000E+00 0.  1.
<scales pt_clust_4="550.00000" pt_clust_5="550.00000" pt_clust_6="35.43676"></scales>
<mgrwt>
<rscale>  0 0.30000000E+03</rscale>
<asrwt>  1 0.35436758E+02</asrwt>
<pdfrwt beam="1">  1        1 0.80547512E+00 0.30000000E+03</pdfrwt>
<pdfrwt beam="2">0</pdfrwt>
<totfact> 0.94287083E-04</totfact>
</mgrwt>
<clustering>
<clus scale="   35.437">  1  6  2 -1</clus>
<clus scale="  456.595">  4  5 -1 -1</clus>
<clus scale="  300.000">  1  4  2 -1</clus>
</clustering>
</event>
<event>
 6    1  0.9254630E-012  0.3000000E+03  0.7818608E-02  0.1093470E+00
          1   -1    0    0  502    0  0.00000000000E+00  0.00000000000E+00  0.22507506396E+03  0.22507506396E+03  0.00000000000E+00 0.  1.
         13   -1    0    0    0    0 -0.00000000000E+00 -0.00000000000E+00 -0.27500000000E+03  0.27500000000E+03  0.00000000000E+00 0.  1.
    9000005    2    1    2  501    0  0.30643767160E+02 -0.45039975437E+00 -0.56781455145E+02  0.46867036400E+03  0.46420742466E+03 0.  0.
         13    1    3    3    0    0  0.67435744034E+02 -0.18794383543E+03  0.98323070051E+02  0.22257109191E+03  0.00000000000E+00 0.  1.
          3    1    3    3  501    0 -0.36791976874E+02  0.18749343568E+03 -0.15510452520E+03  0.24609927208E+03  0.00000000000E+00 0.  1.
         21    1    1    2  502  501 -0.30643767160E+02  0.45039975437E+00  0.68565191062E+01  0.31404699966E+02  0.00000000000E+00 0. -1.
<scales pt_clust_4="550.00000" pt_clust_5="550.00000" pt_clust_6="30.64708"></scales>
<mgrwt>
<rscale>  0 0.30000000E+03</rscale>
<asrwt>  1 0.30647077E+02</asrwt>
<pdfrwt beam="1">  1        1 0.81845478E+00 0.30000000E+03</pdfrwt>
<pdfrwt beam="2">0</pdfrwt>
<totfact> 0.76462611E-04</totfact>
</mgrwt>
<clustering>
<clus scale="   30.647">  1  6  2 -1</clus>
<clus scale="  464.207">  4  5 -1 -1</clus>
<clus scale="  300.000">  1  4  2 -1</clus>
</clustering>
</event>
<event>
 6    1  0.9254630E-012  0.3000000E+03  0.7818608E-02  0.1093470E+00
          1   -1    0    0  502    0  0.00000000000E+00  0.00000000000E+00  0.22706327363E+03  0.22706327363E+03  0.00000000000E+00 0.  1.
         13   -1    0    0    0    0 -0.00000000000E+00 -0.00000000000E+00 -0.27500000000E+03  0.27500000000E+03  0.00000000000E+00 0.  1.
    9000005    2    1    2  501    0  0.29761462812E+02  0.17229955127E+02 -0.67221923944E+02  0.46263568344E+03  0.45643222116E+03 0.  0.
         13    1    3    3    0    0  0.16070451098E+03 -0.15003888569E+03  0.41908809579E+02  0.22381678978E+03  0.00000000000E+00 0.  1.
          1    1    3    3  501    0 -0.13094304816E+03  0.16726884082E+03 -0.10913073352E+03  0.23881889366E+03  0.00000000000E+00 0.  1.
         21    1    1    2  502  501 -0.29761462812E+02 -0.17229955127E+02  0.19285197572E+02  0.39427590185E+02  0.00000000000E+00 0. -1.
<scales pt_clust_4="550.00000" pt_clust_5="550.00000" pt_clust_6="34.38918"></scales>
<mgrwt>
<rscale>  0 0.30000000E+03</rscale>
<asrwt>  1 0.34389185E+02</asrwt>
<pdfrwt beam="1">  1        1 0.82568463E+00 0.30000000E+03</pdfrwt>
<pdfrwt beam="2">0</pdfrwt>
<totfact> 0.64618666E-04</totfact>
</mgrwt>
<clustering>
<clus scale="   34.389">  1  6  2 -1</clus>
<clus scale="  456.432">  4  5 -1 -1</clus>
<clus scale="  300.000">  1  4  2 -1</clus>
</clustering>
</event>
<event>
 6    1  0.9254630E-012  0.3000000E+03  0.7818608E-02  0.1093470E+00
          1   -1    0    0  502    0  0.00000000000E+00  0.00000000000E+00  0.22518305653E+03  0.22518305653E+03  0.00000000000E+00 0.  1.
         13   -1    0    0    0    0 -0.00000000000E+00 -0.00000000000E+00 -0.27500000000E+03  0.27500000000E+03  0.00000000000E+00 0.  1.
    9000005    2    1    2  501    0  0.20066058254E+02 -0.24466051281E+02 -0.53151423262E+02  0.46836555954E+03  0.46426284496E+03 0.  0.
         13    1    3    3    0    0  0.29890161644E+02  0.21717273191E+03  0.63609183391E+01  0.21931228541E+03  0.00000000000E+00 0.  1.
          1    1    3    3  501    0 -0.98241033895E+01 -0.24163878319E+03 -0.59512341601E+02  0.24905327413E+03  0.00000000000E+00 0.  1.
         21    1    1    2  502  501 -0.20066058254E+02  0.24466051281E+02  0.33344797897E+01  0.31817496988E+02  0.00000000000E+00 0.  1.
<scales pt_clust_4="550.00000" pt_clust_5="550.00000" pt_clust_6="31.64229"></scales>
<mgrwt>
<rscale>  0 0.30000000E+03</rscale>
<asrwt>  1 0.31642288E+02</asrwt>
<pdfrwt beam="1">  1        1 0.81884748E+00 0.30000000E+03</pdfrwt>
<pdfrwt beam="2">0</pdfrwt>
<totfact> 0.75417263E-04</totfact>
</mgrwt>
<clustering>
<clus scale="   31.642">  1  6  2 -1</clus>
<clus scale="  464.263">  4  5 -1 -1</clus>
<clus scale="  300.000">  1  4  2 -1</clus>
</clustering>
</event>
<event>
 6    1  0.9254630E-012  0.3000000E+03  0.7818608E-02  0.1093470E+00
          1   -1    0    0  502    0  0.00000000000E+00  0.00000000000E+00  0.23279792093E+03  0.23279792093E+03  0.00000000000E+00 0.  1.
         13   -1    0    0    0    0 -0.00000000000E+00 -0.00000000000E+00 -0.27500000000E+03  0.27500000000E+03  0.00000000000E+00 0.  1.
    9000005    2    1    2  501    0  0.11810315163E+00 -0.31982130856E+02 -0.43422883887E+02  0.47579228069E+03  0.47272600614E+03 0.  0.
         13    1    3    3    0    0  0.56002806980E+02  0.11078877363E+02  0.20746368443E+03  0.21517489694E+03  0.00000000000E+00 0.  1.
          3    1    3    3  501    0 -0.55884703829E+02 -0.43061008218E+02 -0.25088656832E+03  0.26061738375E+03  0.00000000000E+00 0.  1.
         21    1    1    2  502  501 -0.11810315163E+00  0.31982130856E+02  0.12208048138E+01  0.32005640234E+02  0.00000000000E+00 0.  1.
<scales pt_clust_4="550.00000" pt_clust_5="550.00000" pt_clust_6="31.98235"></scales>
<mgrwt>
<rscale>  0 0.30000000E+03</rscale>
<asrwt>  1 0.31982349E+02</asrwt>
<pdfrwt beam="1">  1        1 0.84653789E+00 0.30000000E+03</pdfrwt>
<pdfrwt beam="2">0</pdfrwt>
<totfact> 0.44539492E-04</totfact>
</mgrwt>
<clustering>
<clus scale="   31.982">  1  6  2 -1</clus>
<clus scale="  472.726">  4  5 -1 -1</clus>
<clus scale="  300.000">  1  4  2 -1</clus>
</clustering>
</event>
<event>
 6    1  0.9254630E-012  0.3000000E+03  0.7818608E-02  0.1093470E+00
          1   -1    0    0  502    0  0.00000000000E+00  0.00000000000E+00  0.26155799416E+03  0.26155799416E+03  0.00000000000E+00 0.  1.
         13   -1    0    0    0    0 -0.00000000000E+00 -0.00000000000E+00 -0.27500000000E+03  0.27500000000E+03  0.00000000000E+00 0.  1.
    9000005    2    1    2  501    0 -0.26936774133E+02  0.43335502827E+02 -0.43087609767E+02  0.47754598320E+03  0.47285311498E+03 0.  0.
         13    1    3    3    0    0  0.18178767395E+03  0.14803579629E+03  0.21061361150E+02  0.23538253189E+03  0.00000000000E+00 0.  1.
          3    1    3    3  501    0 -0.20872444808E+03 -0.10470029347E+03 -0.64148970917E+02  0.24216345131E+03  0.00000000000E+00 0.  1.
         21    1    1    2  502  501  0.26936774133E+02 -0.43335502827E+02  0.29645603928E+02  0.59012010966E+02  0.00000000000E+00 0.  1.
<scales pt_clust_4="550.00000" pt_clust_5="550.00000" pt_clust_6="51.02505"></scales>
<mgrwt>
<rscale>  0 0.30000000E+03</rscale>
<asrwt>  1 0.51025049E+02</asrwt>
<pdfrwt beam="1">  1        1 0.95111998E+00 0.30000000E+03</pdfrwt>
<pdfrwt beam="2">0</pdfrwt>
<totfact> 0.10927239E-05</totfact>
</mgrwt>
<clustering>
<clus scale="   51.025">  1  6  2 -1</clus>
<clus scale="  472.853">  4  5 -1 -1</clus>
<clus scale="  300.000">  1  4  2 -1</clus>
</clustering>
</event>
<event>
 6    1  0.9254630E-012  0.3000000E+03  0.7818608E-02  0.1093470E+00
          1   -1    0    0  502    0  0.00000000000E+00  0.00000000000E+00  0.25448459435E+03  0.25448459435E+03  0.00000000000E+00 0.  1.
         13   -1    0    0    0    0 -0.00000000000E+00 -0.00000000000E+00 -0.27500000000E+03  0.27500000000E+03  0.00000000000E+00 0.  1.
    9000005    2    1    2  501    0  0.19544781098E+02 -0.27747126599E+02 -0.48334019084E+02  0.48560092135E+03  0.48199603309E+03 0.  0.
         13    1    3    3    0    0  0.21310858873E+03  0.11348120562E+03 -0.14285663567E+01  0.24144418697E+03  0.00000000000E+00 0.  1.
          3    1    3    3  501    0 -0.19356380764E+03 -0.14122833222E+03 -0.46905452727E+02  0.24415673438E+03  0.00000000000E+00 0.  1.
         21    1    1    2  502  501 -0.19544781098E+02  0.27747126599E+02  0.27818613434E+02  0.43883673001E+02  0.00000000000E+00 0.  1.
<scales pt_clust_4="550.00000" pt_clust_5="550.00000" pt_clust_6="33.93967"></scales>
<mgrwt>
<rscale>  0 0.30000000E+03</rscale>
<asrwt>  1 0.33939674E+02</asrwt>
<pdfrwt beam="1">  1        1 0.92539852E+00 0.30000000E+03</pdfrwt>
<pdfrwt beam="2">0</pdfrwt>
<totfact> 0.32365805E-05</totfact>
</mgrwt>
<clustering>
<clus scale="   33.940">  1  6  2 -1</clus>
<clus scale="  481.996">  4  5 -1 -1</clus>
<clus scale="  300.000">  1  4  2 -1</clus>
</clustering>
</event>
<event>
 6    1  0.9254630E-012  0.3000000E+03  0.7818608E-02  0.1093470E+00
          1   -1    0    0  502    0  0.00000000000E+00  0.00000000000E+00  0.23052544720E+03  0.23052544720E+03  0.00000000000E+00 0.  1.
         13   -1    0    0    0    0 -0.00000000000E+00 -0.00000000000E+00 -0.27500000000E+03  0.27500000000E+03  0.00000000000E+00 0.  1.
    9000005    2    1    2  501    0  0.13548033296E+02 -0.29985689291E+02 -0.68045322117E+02  0.46504987513E+03  0.45886657072E+03 0.  0.
         13    1    3    3    0    0 -0.13430473328E+03  0.13700582662E+03  0.68285126296E+02  0.20364482901E+03  0.00000000000E+00 0.  1.
          3    1    3    3  501    0  0.14785276658E+03 -0.16699151591E+03 -0.13633044841E+03  0.26140504612E+03  0.00000000000E+00 0.  1.
         21    1    1    2  502  501 -0.13548033296E+02  0.29985689291E+02  0.23570769316E+02  0.40475572072E+02  0.00000000000E+00 0. -1.
<scales pt_clust_4="550.00000" pt_clust_5="550.00000" pt_clust_6="32.90427"></scales>
<mgrwt>
<rscale>  0 0.30000000E+03</rscale>
<asrwt>  1 0.32904267E+02</asrwt>
<pdfrwt beam="1">  1        1 0.83827435E+00 0.30000000E+03</pdfrwt>
<pdfrwt beam="2">0</pdfrwt>
<totfact> 0.51806857E-04</totfact>
</mgrwt>
<clustering>
<clus scale="   32.904">  1  6  2 -1</clus>
<clus scale="  458.867">  4  5 -1 -1</clus>
<clus scale="  300.000">  1  4  2 -1</clus>
</clustering>
</event>
<event>
 6    1  0.9254630E-012  0.3000000E+03  0.7818608E-02  0.1093470E+00
          1   -1    0    0  502    0  0.00000000000E+00  0.00000000000E+00  0.22685297844E+03  0.22685297844E+03  0.00000000000E+00 0.  1.
         13   -1    0    0    0    0 -0.00000000000E+00 -0.00000000000E+00 -0.27500000000E+03  0.27500000000E+03  0.00000000000E+00 0.  1.
    9000005    2    1    2  501    0 -0.99519457300E+01 -0.28450663936E+02 -0.58276502085E+02  0.47005537038E+03  0.46545399239E+03 0.  0.
         13    1    3    3    0    0  0.18985611647E+02  0.47572346056E+01  0.20358070857E+03  0.20451941138E+03  0.00000000000E+00 0.  1.
          1    1    3    3  501    0 -0.28937557377E+02 -0.33207898542E+02 -0.26185721065E+03  0.26553595900E+03  0.00000000000E+00 0.  1.
         21    1    1    2  502  501  0.99519457300E+01  0.28450663936E+02  0.10129480520E+02  0.31797608052E+02  0.00000000000E+00 0. -1.
<scales pt_clust_4="550.00000" pt_clust_5="550.00000" pt_clust_6="30.14103"></scales>
<mgrwt>
<rscale>  0 0.30000000E+03</rscale>
<asrwt>  1 0.30141027E+02</asrwt>
<pdfrwt beam="1">  1        1 0.82491992E+00 0.30000000E+03</pdfrwt>
<pdfrwt beam="2">0</pdfrwt>
<totfact> 0.67306281E-04</totfact>
</mgrwt>
<clustering>
<clus scale="   30.141">  1  6  2 -1</clus>
<clus scale="  465.454">  4  5 -1 -1</clus>
<clus scale="  300.000">  1  4  2 -1</clus>
</clustering>
</event>
<event>
 6    1  0.9254630E-012  0.3000000E+03  0.7818608E-02  0.1093470E+00
          1   -1    0    0  502    0  0.00000000000E+00  0.00000000000E+00  0.23072199808E+03  0.23072199808E+03  0.00000000000E+00 0.  1.
         13   -1    0    0    0    0 -0.00000000000E+00 -0.00000000000E+00 -0.27500000000E+03  0.27500000000E+03  0.00000000000E+00 0.  1.
    9000005    2    1    2  501    0 -0.42764988774E+01  0.38912359669E+02 -0.55053503039E+02  0.46511939223E+03  0.46018767981E+03 0.  0.
         13    1    3    3    0    0 -0.16000860255E+02  0.16448720380E+03 -0.20878268860E+03  0.26627481819E+03  0.00000000000E+00 0.  1.
          1    1    3    3  501    0  0.11724361377E+02 -0.12557484413E+03  0.15372918556E+03  0.19884457403E+03  0.00000000000E+00 0.  1.
         21    1    1    2  502  501  0.42764988774E+01 -0.38912359669E+02  0.10775501117E+02  0.40602605852E+02  0.00000000000E+00 0. -1.
<scales pt_clust_4="550.00000" pt_clust_5="550.00000" pt_clust_6="39.14665"></scales>
<mgrwt>
<rscale>  0 0.30000000E+03</rscale>
<asrwt>  1 0.39146650E+02</asrwt>
<pdfrwt beam="1">  1        1 0.83898908E+00 0.30000000E+03</pdfrwt>
<pdfrwt beam="2">0</pdfrwt>
<totfact> 0.49549526E-04</totfact>
</mgrwt>
<clustering>
<clus scale="   39.147">  1  6  2 -1</clus>
<clus scale="  460.188">  4  5 -1 -1</clus>
<clus scale="  300.000">  1  4  2 -1</clus>
</clustering>
</event>
<event>
 6    1  0.9254630E-012  0.3000000E+03  0.7818608E-02  0.1093470E+00
          1   -1    0    0  502    0  0.00000000000E+00  0.00000000000E+00  0.23238425503E+03  0.23238425503E+03  0.00000000000E+00 0.  1.
         13   -1    0    0    0    0 -0.00000000000E+00 -0.00000000000E+00 -0.27500000000E+03  0.27500000000E+03  0.00000000000E+00 0.  1.
    9000005    2    1    2  501    0  0.40413033628E+02  0.10470222222E+02 -0.40343634371E+02  0.46557514924E+03  0.46194130787E+03 0.  0.
         13    1    3    3    0    0  0.21265736903E+03 -0.97200884959E+02 -0.99349301874E+02  0.25405009825E+03  0.00000000000E+00 0.  1.
          3    1    3    3  501    0 -0.17224433540E+03  0.10767110718E+03  0.59005667503E+02  0.21152505099E+03  0.00000000000E+00 0.  1.
         21    1    1    2  502  501 -0.40413033628E+02 -0.10470222222E+02 -0.22721105955E+01  0.41809105790E+02  0.00000000000E+00 0.  1.
<scales pt_clust_4="550.00000" pt_clust_5="550.00000" pt_clust_6="41.74732"></scales>
<mgrwt>
<rscale>  0 0.30000000E+03</rscale>
<asrwt>  1 0.41747321E+02</asrwt>
<pdfrwt beam="1">  1        1 0.84503365E+00 0.30000000E+03</pdfrwt>
<pdfrwt beam="2">0</pdfrwt>
<totfact> 0.43710603E-04</totfact>
</mgrwt>
<clustering>
<clus scale="   41.747">  1  6  2 -1</clus>
<clus scale="  461.941">  4  5 -1 -1</clus>
<clus scale="  300.000">  1  4  2 -1</clus>
</clustering>
</event>
<event>
 6    1  0.9254630E-012  0.3000000E+03  0.7818608E-02  0.1093470E+00
          1   -1    0    0  502    0  0.00000000000E+00  0.00000000000E+00  0.22927958339E+03  0.22927958339E+03  0.00000000000E+00 0.  1.
         13   -1    0    0    0    0 -0.00000000000E+00 -0.00000000000E+00 -0.27500000000E+03  0.27500000000E+03  0.00000000000E+00 0.  1.
    9000005    2    1    2  501    0 -0.34499339130E+01 -0.43343053235E+02 -0.43132183908E+02  0.46072247999E+03  0.45663365620E+03 0.  0.
         13    1    3    3    0    0  0.40013879498E+02 -0.52892970422E+02  0.20146962790E+03  0.21210560539E+03  0.00000000000E+00 0.  1.
          3    1    3    3  501    0 -0.43463813411E+02  0.95499171870E+01 -0.24460181181E+03  0.24861687460E+03  0.00000000000E+00 0.  1.
         21    1    1    2  502  501  0.34499339130E+01  0.43343053235E+02 -0.25882327048E+01  0.43557103397E+02  0.00000000000E+00 0.  1.
<scales pt_clust_4="550.00000" pt_clust_5="550.00000" pt_clust_6="43.48014"></scales>
<mgrwt>
<rscale>  0 0.30000000E+03</rscale>
<asrwt>  1 0.43480137E+02</asrwt>
<pdfrwt beam="1">  1        1 0.83374394E+00 0.30000000E+03</pdfrwt>
<pdfrwt beam="2">0</pdfrwt>
<totfact> 0.53107565E-04</totfact>
</mgrwt>
<clustering>
<clus scale="   43.480">  1  6  2 -1</clus>
<clus scale="  456.634">  4  5 -1 -1</clus>
<clus scale="  300.000">  1  4  2 -1</clus>
</clustering>
</event>
<event>
 6    1  0.9254630E-012  0.3000000E+03  0.7818608E-02  0.1093470E+00
          1   -1    0    0  502    0  0.00000000000E+00  0.00000000000E+00  0.25894789883E+03  0.25894789883E+03  0.00000000000E+00 0.  1.
         13   -1    0    0    0    0 -0.00000000000E+00 -0.00000000000E+00 -0.27500000000E+03  0.27500000000E+03  0.00000000000E+00 0.  1.
    9000005    2    1    2  501    0 -0.26237673380E+02 -0.16106570316E+02 -0.16697682192E+02  0.50315416754E+03  0.50193372731E+03 0.  0.
         13    1    3    3    0    0 -0.12003217725E+03  0.21324498367E+03 -0.59152500805E+02  0.25175417571E+03  0.00000000000E+00 0.  1.
          1    1    3    3  501    0  0.93794503868E+02 -0.22935155398E+03  0.42454818613E+02  0.25139999183E+03  0.00000000000E+00 0.  1.
         21    1    1    2  502  501  0.26237673380E+02  0.16106570316E+02  0.64558101857E+00  0.30793731288E+02  0.00000000000E+00 0.  1.
<scales pt_clust_4="550.00000" pt_clust_5="550.00000" pt_clust_6="30.78696"></scales>
<mgrwt>
<rscale>  0 0.30000000E+03</rscale>
<asrwt>  1 0.30786963E+02</asrwt>
<pdfrwt beam="1">  1        1 0.94162872E+00 0.30000000E+03</pdfrwt>
<pdfrwt beam="2">0</pdfrwt>
<totfact> 0.18395497E-05</totfact>
</mgrwt>
<clustering>
<clus scale="   30.787">  1  6  2 -1</clus>
<clus scale="  501.934">  4  5 -1 -1</clus>
<clus scale="  300.000">  1  4  2 -1</clus>
</clustering>
</event>
<event>
 6    1  0.9254630E-012  0.3000000E+03  0.7818608E-02  0.1093470E+00
          1   -1    0    0  502    0  0.00000000000E+00  0.00000000000E+00  0.22571201062E+03  0.22571201062E+03  0.00000000000E+00 0.  1.
         13   -1    0    0    0    0 -0.00000000000E+00 -0.00000000000E+00 -0.27500000000E+03  0.27500000000E+03  0.00000000000E+00 0.  1.
    9000005    2    1    2  501    0 -0.31895614082E+02 -0.18863026789E+02 -0.58135204067E+02  0.46261454109E+03  0.45744875964E+03 0.  0.
         13    1    3    3    0    0  0.18792934489E+02  0.16022918696E+03 -0.17877875789E+03  0.24080783005E+03  0.00000000000E+00 0.  1.
          3    1    3    3  501    0 -0.50688548570E+02 -0.17909221375E+03  0.12064355383E+03  0.22180671104E+03  0.00000000000E+00 0.  1.
         21    1    1    2  502  501  0.31895614082E+02  0.18863026789E+02  0.88472146901E+01  0.38097469536E+02  0.00000000000E+00 0. -1.
<scales pt_clust_4="550.00000" pt_clust_5="550.00000" pt_clust_6="37.05596"></scales>
<mgrwt>
<rscale>  0 0.30000000E+03</rscale>
<asrwt>  1 0.37055957E+02</asrwt>
<pdfrwt beam="1">  1        1 0.82077095E+00 0.30000000E+03</pdfrwt>
<pdfrwt beam="2">0</pdfrwt>
<totfact> 0.70467484E-04</totfact>
</mgrwt>
<clustering>
<clus scale="   37.056">  1  6  2 -1</clus>
<clus scale="  457.449">  4  5 -1 -1</clus>
<clus scale="  300.000">  1  4  2 -1</clus>
</clustering>
</event>
<event>
 6    1  0.9254630E-012  0.3000000E+03  0.7818608E-02  0.1093470E+00
          1   -1    0    0  502    0  0.00000000000E+00  0.00000000000E+00  0.22451892545E+03  0.22451892545E+03  0.00000000000E+00 0.  1.
         13   -1    0    0    0    0 -0.00000000000E+00 -0.00000000000E+00 -0.27500000000E+03  0.27500000000E+03  0.00000000000E+00 0.  1.
    9000005    2    1    2  501    0  0.15317532338E+02 -0.28608280638E+02 -0.68577186636E+02  0.46236344415E+03  0.45609655057E+03 0.  0.
         13    1    3    3    0    0 -0.20082897476E+03 -0.22754395708E+02 -0.12659711475E+03  0.23848871900E+03  0.00000000000E+00 0.  1.
          1    1    3    3  501    0  0.21614650710E+03 -0.58538849300E+01  0.58019928113E+02  0.22387472515E+03  0.00000000000E+00 0.  1.
         21    1    1    2  502  501 -0.15317532338E+02  0.28608280638E+02  0.18096112086E+02  0.37155481300E+02  0.00000000000E+00 0.  1.
<scales pt_clust_4="550.00000" pt_clust_5="550.00000" pt_clust_6="32.45089"></scales>
<mgrwt>
<rscale>  0 0.30000000E+03</rscale>
<asrwt>  1 0.32450894E+02</asrwt>
<pdfrwt beam="1">  1        1 0.81643246E+00 0.30000000E+03</pdfrwt>
<pdfrwt beam="2">0</pdfrwt>
<totfact> 0.78608538E-04</totfact>
</mgrwt>
<clustering>
<clus scale="   32.451">  1  6  2 -1</clus>
<clus scale="  456.097">  4  5 -1 -1</clus>
<clus scale="  300.000">  1  4  2 -1</clus>
</clustering>
</event>
<event>
 6    1  0.9254630E-012  0.3000000E+03  0.7818608E-02  0.1093470E+00
          1   -1    0    0  502    0  0.00000000000E+00  0.00000000000E+00  0.23154896733E+03  0.23154896733E+03  0.00000000000E+00 0.  1.
         13   -1    0    0    0    0 -0.00000000000E+00 -0.00000000000E+00 -0.27500000000E+03  0.27500000000E+03  0.00000000000E+00 0.  1.
    9000005    2    1    2  501    0 -0.33711458333E+02  0.10320459555E+02 -0.34518173807E+02  0.47017905839E+03  0.46758300688E+03 0.  0.
         13    1    3    3    0    0 -0.21472992693E+03  0.10416543183E+03  0.59016947871E+02  0.24585031797E+03  0.00000000000E+00 0.  1.
          3    1    3    3  501    0  0.18101846859E+03 -0.93844972279E+02 -0.93535121678E+02  0.22432874043E+03  0.00000000000E+00 0.  1.
         21    1    1    2  502  501  0.33711458333E+02 -0.10320459555E+02 -0.89328588665E+01  0.36369908935E+02  0.00000000000E+00 0.  1.
<scales pt_clust_4="550.00000" pt_clust_5="550.00000" pt_clust_6="35.25586"></scales>
<mgrwt>
<rscale>  0 0.30000000E+03</rscale>
<asrwt>  1 0.35255858E+02</asrwt>
<pdfrwt beam="1">  1        1 0.84199624E+00 0.30000000E+03</pdfrwt>
<pdfrwt beam="2">0</pdfrwt>
<totfact> 0.47854828E-04</totfact>
</mgrwt>
<clustering>
<clus scale="   35.256">  1  6  2 -1</clus>
<clus scale="  467.583">  4  5 -1 -1</clus>
<clus scale="  300.000">  1  4  2 -1</clus>
</clustering>
</event>
<event>
 6    1  0.9254630E-012  0.3000000E+03  0.7818608E-02  0.1093470E+00
          1   -1    0    0  502    0  0.00000000000E+00  0.00000000000E+00  0.22982806978E+03  0.22982806978E+03  0.00000000000E+00 0.  1.
         13   -1    0    0    0    0 -0.00000000000E+00 -0.00000000000E+00 -0.27500000000E+03  0.27500000000E+03  0.00000000000E+00 0.  1.
    9000005    2    1    2  501    0 -0.13557183058E+02 -0.34364401960E+02 -0.60507848563E+02  0.46482932322E+03  0.45939132627E+03 0.  0.
         13    1    3    3    0    0  0.70958792844E+02  0.53890315506E+02  0.17675764390E+03  0.19794590439E+03  0.00000000000E+00 0.  1.
          3    1    3    3  501    0 -0.84515975902E+02 -0.88254717467E+02 -0.23726549246E+03  0.26688341884E+03  0.00000000000E+00 0.  1.
         21    1    1    2  502  501  0.13557183058E+02  0.34364401960E+02  0.15335918339E+02  0.39998746554E+02  0.00000000000E+00 0. -1.
<scales pt_clust_4="550.00000" pt_clust_5="550.00000" pt_clust_6="36.94197"></scales>
<mgrwt>
<rscale>  0 0.30000000E+03</rscale>
<asrwt>  1 0.36941973E+02</asrwt>
<pdfrwt beam="1">  1        1 0.83573844E+00 0.30000000E+03</pdfrwt>
<pdfrwt beam="2">0</pdfrwt>
<totfact> 0.52899233E-04</totfact>
</mgrwt>
<clustering>
<clus scale="   36.942">  1  6  2 -1</clus>
<clus scale="  459.391">  4  5 -1 -1</clus>
<clus scale="  300.000">  1  4  2 -1</clus>
</clustering>
</event>
<event>
 6    1  0.9254630E-012  0.3000000E+03  0.7818608E-02  0.1093470E+00
          1   -1    0    0  502    0  0.00000000000E+00  0.00000000000E+00  0.25222796527E+03  0.25222796527E+03  0.00000000000E+00 0.  1.
         13   -1    0    0    0    0 -0.00000000000E+00 -0.00000000000E+00 -0.27500000000E+03  0.27500000000E+03  0.00000000000E+00 0.  1.
    9000005    2    1    2  501    0  0.59026596715E+02 -0.50554309888E+01 -0.42325333785E+02  0.46484184497E+03  0.45910435682E+03 0.  0.
         13    1    3    3    0    0  0.17897262382E+03  0.12435694492E+03 -0.14398282941E+03  0.26120280433E+03  0.00000000000E+00 0.  1.
          1    1    3    3  501    0 -0.11994602711E+03 -0.12941237590E+03  0.10165749562E+03  0.20363904064E+03  0.00000000000E+00 0.  1.
         21    1    1    2  502  501 -0.59026596715E+02  0.50554309888E+01  0.19553299053E+02  0.62386120300E+02  0.00000000000E+00 0.  1.
<scales pt_clust_4="550.00000" pt_clust_5="550.00000" pt_clust_6="59.24269"></scales>
<mgrwt>
<rscale>  0 0.30000000E+03</rscale>
<asrwt>  1 0.59242692E+02</asrwt>
<pdfrwt beam="1">  1        1 0.91719260E+00 0.30000000E+03</pdfrwt>
<pdfrwt beam="2">0</pdfrwt>
<totfact> 0.43909527E-05</totfact>
</mgrwt>
<clustering>
<clus scale="   59.243">  1  6  2 -1</clus>
<clus scale="  459.104">  4  5 -1 -1</clus>
<clus scale="  300.000">  1  4  2 -1</clus>
</clustering>
</event>
<event>
 6    1  0.9254630E-012  0.3000000E+03  0.7818608E-02  0.1093470E+00
          1   -1    0    0  502    0  0.00000000000E+00  0.00000000000E+00  0.24915148196E+03  0.24915148196E+03  0.00000000000E+00 0.  1.
         13   -1    0    0    0    0 -0.00000000000E+00 -0.00000000000E+00 -0.27500000000E+03  0.27500000000E+03  0.00000000000E+00 0.  1.
    9000005    2    1    2  501    0  0.28787120404E+02  0.84708736671E+01 -0.49993800765E+02  0.48563591784E+03  0.48212281690E+03 0.  0.
         13    1    3    3    0    0 -0.21108025905E+03  0.36344334215E+02  0.56806196905E+02  0.22159135903E+03  0.00000000000E+00 0.  1.
          1    1    3    3  501    0  0.23986737946E+03 -0.27873460548E+02 -0.10679999767E+03  0.26404455880E+03  0.00000000000E+00 0.  1.
         21    1    1    2  502  501 -0.28787120404E+02 -0.84708736671E+01  0.24145282723E+02  0.38515564122E+02  0.00000000000E+00 0.  1.
<scales pt_clust_4="550.00000" pt_clust_5="550.00000" pt_clust_6="30.00757"></scales>
<mgrwt>
<rscale>  0 0.30000000E+03</rscale>
<asrwt>  1 0.30007566E+02</asrwt>
<pdfrwt beam="1">  1        1 0.90600539E+00 0.30000000E+03</pdfrwt>
<pdfrwt beam="2">0</pdfrwt>
<totfact> 0.90986045E-05</totfact>
</mgrwt>
<clustering>
<clus scale="   30.008">  1  6  2 -1</clus>
<clus scale="  482.123">  4  5 -1 -1</clus>
<clus scale="  300.000">  1  4  2 -1</clus>
</clustering>
</event>
<event>
 6    1  0.9254630E-012  0.3000000E+03  0.7818608E-02  0.1093470E+00
          1   -1    0    0  502    0  0.00000000000E+00  0.00000000000E+00  0.22963101787E+03  0.22963101787E+03  0.00000000000E+00 0.  1.
         13   -1    0    0    0    0 -0.00000000000E+00 -0.00000000000E+00 -0.27500000000E+03  0.27500000000E+03  0.00000000000E+00 0.  1.
    9000005    2    1    2  501    0 -0.36012904736E+01  0.38554350981E+02 -0.42870511568E+02  0.46582831657E+03  0.46223233605E+03 0.  0.
         13    1    3    3    0    0 -0.16606678808E+03 -0.34585199691E+02  0.13294339540E+03  0.21551858510E+03  0.00000000000E+00 0.  1.
          3    1    3    3  501    0  0.16246549761E+03  0.73139550673E+02 -0.17581390697E+03  0.25030973147E+03  0.00000000000E+00 0.  1.
         21    1    1    2  502  501  0.36012904736E+01 -0.38554350981E+02 -0.24984705615E+01  0.38802701295E+02  0.00000000000E+00 0. -1.
<scales pt_clust_4="550.00000" pt_clust_5="550.00000" pt_clust_6="38.72218"></scales>
<mgrwt>
<rscale>  0 0.30000000E+03</rscale>
<asrwt>  1 0.38722181E+02</asrwt>
<pdfrwt beam="1">  1        1 0.83502188E+00 0.30000000E+03</pdfrwt>
<pdfrwt beam="2">0</pdfrwt>
<totfact> 0.53075648E-04</totfact>
</mgrwt>
<clustering>
<clus scale="   38.722">  1  6  2 -1</clus>
<clus scale="  462.232">  4  5 -1 -1</clus>
<clus scale="  300.000">  1  4  2 -1</clus>
</clustering>
</event>
<event>
 6    1  0.9254630E-012  0.3000000E+03  0.7818608E-02  0.1093470E+00
          1   -1    0    0  502    0  0.00000000000E+00  0.00000000000E+00  0.22599782541E+03  0.22599782541E+03  0.00000000000E+00 0.  1.
         13   -1    0    0    0    0 -0.00000000000E+00 -0.00000000000E+00 -0.27500000000E+03  0.27500000000E+03  0.00000000000E+00 0.  1.
    9000005    2    1    2  501    0 -0.26964602374E+02 -0.22092884529E+02 -0.58620853346E+02  0.46483563094E+03  0.45980493039E+03 0.  0.
         13    1    3    3    0    0 -0.88043215032E+02 -0.18442574745E+03 -0.16387562359E+03  0.26195359140E+03  0.00000000000E+00 0.  1.
          3    1    3    3  501    0  0.61078612658E+02  0.16233286293E+03  0.10525477025E+03  0.20288203954E+03  0.00000000000E+00 0.  1.
         21    1    1    2  502  501  0.26964602374E+02  0.22092884529E+02  0.96186787576E+01  0.36162194472E+02  0.00000000000E+00 0.  1.
<scales pt_clust_4="550.00000" pt_clust_5="550.00000" pt_clust_6="34.85951"></scales>
<mgrwt>
<rscale>  0 0.30000000E+03</rscale>
<asrwt>  1 0.34859508E+02</asrwt>
<pdfrwt beam="1">  1        1 0.82181027E+00 0.30000000E+03</pdfrwt>
<pdfrwt beam="2">0</pdfrwt>
<totfact> 0.69788584E-04</totfact>
</mgrwt>
<clustering>
<clus scale="   34.860">  1  6  2 -1</clus>
<clus scale="  459.805">  4  5 -1 -1</clus>
<clus scale="  300.000">  1  4  2 -1</clus>
</clustering>
</event>
<event>
 6    1  0.9254630E-012  0.3000000E+03  0.7818608E-02  0.1093470E+00
          1   -1    0    0  502    0  0.00000000000E+00  0.00000000000E+00  0.21864312868E+03  0.21864312868E+03  0.00000000000E+00 0.  1.
         13   -1    0    0    0    0 -0.00000000000E+00 -0.00000000000E+00 -0.27500000000E+03  0.27500000000E+03  0.00000000000E+00 0.  1.
    9000005    2    1    2  501    0  0.17096591420E+01  0.30973625908E+02 -0.58229226231E+02  0.46256589989E+03  0.45783652161E+03 0.  0.
         13    1    3    3    0    0  0.95216500046E+02  0.88480971279E+02  0.16722886710E+03  0.21180311176E+03  0.00000000000E+00 0.  1.
          1    1    3    3  501    0 -0.93506840904E+02 -0.57507345371E+02 -0.22545809333E+03  0.25076278814E+03  0.00000000000E+00 0.  1.
         21    1    1    2  502  501 -0.17096591420E+01 -0.30973625908E+02  0.18723549145E+01  0.31077228789E+02  0.00000000000E+00 0. -1.
<scales pt_clust_4="550.00000" pt_clust_5="550.00000" pt_clust_6="31.02077"></scales>
<mgrwt>
<rscale>  0 0.30000000E+03</rscale>
<asrwt>  1 0.31020774E+02</asrwt>
<pdfrwt beam="1">  1        1 0.79506592E+00 0.30000000E+03</pdfrwt>
<pdfrwt beam="2">0</pdfrwt>
<totfact> 0.11528403E-03</totfact>
</mgrwt>
<clustering>
<clus scale="   31.021">  1  6  2 -1</clus>
<clus scale="  457.837">  4  5 -1 -1</clus>
<clus scale="  300.000">  1  4  2 -1</clus>
</clustering>
</event>
<event>
 6    1  0.9254630E-012  0.3000000E+03  0.7818608E-02  0.1093470E+00
          1   -1    0    0  502    0  0.00000000000E+00  0.00000000000E+00  0.22288639054E+03  0.22288639054E+03  0.00000000000E+00 0.  1.
         13   -1    0    0    0    0 -0.00000000000E+00 -0.00000000000E+00 -0.27500000000E+03  0.27500000000E+03  0.00000000000E+00 0.  1.
    9000005    2    1    2  501    0 -0.31951765314E+02  0.13200712784E+02 -0.59282999395E+02  0.46257953176E+03  0.45746057214E+03 0.  0.
         13    1    3    3    0    0 -0.15034125404E+03 -0.10418970560E+02  0.15527998137E+03  0.21638604444E+03  0.00000000000E+00 0.  1.
          1    1    3    3  501    0  0.11838948873E+03  0.23619683344E+02 -0.21456298077E+03  0.24619348732E+03  0.00000000000E+00 0.  1.
         21    1    1    2  502  501  0.31951765314E+02 -0.13200712784E+02  0.71693899315E+01  0.35306858777E+02  0.00000000000E+00 0. -1.
<scales pt_clust_4="550.00000" pt_clust_5="550.00000" pt_clust_6="34.57129"></scales>
<mgrwt>
<rscale>  0 0.30000000E+03</rscale>
<asrwt>  1 0.34571290E+02</asrwt>
<pdfrwt beam="1">  1        1 0.81049597E+00 0.30000000E+03</pdfrwt>
<pdfrwt beam="2">0</pdfrwt>
<totfact> 0.86640061E-04</totfact>
</mgrwt>
<clustering>
<clus scale="   34.571">  1  6  2 -1</clus>
<clus scale="  457.461">  4  5 -1 -1</clus>
<clus scale="  300.000">  1  4  2 -1</clus>
</clustering>
</event>
<event>
 6    1  0.9254630E-012  0.3000000E+03  0.7818608E-02  0.1093470E+00
          1   -1    0    0  502    0  0.00000000000E+00  0.00000000000E+00  0.25474632755E+03  0.25474632755E+03  0.00000000000E+00 0.  1.
         13   -1    0    0    0    0 -0.00000000000E+00 -0.00000000000E+00 -0.27500000000E+03  0.27500000000E+03  0.00000000000E+00 0.  1.
    9000005    2    1    2  501    0 -0.44610790713E+02 -0.36091058436E+02 -0.53576702234E+02  0.46339038237E+03  0.45669190523E+03 0.  0.
         13    1    3    3    0    0 -0.34506081035E+02 -0.24111289052E+03 -0.80124951294E+02  0.25641002988E+03  0.00000000000E+00 0.  1.
          1    1    3    3  501    0 -0.10104709677E+02  0.20502183208E+03  0.26548249060E+02  0.20698035249E+03  0.00000000000E+00 0.  1.
         21    1    1    2  502  501  0.44610790713E+02  0.36091058436E+02  0.33323029780E+02  0.66355945180E+02  0.00000000000E+00 0. -1.
<scales pt_clust_4="550.00000" pt_clust_5="550.00000" pt_clust_6="57.38194"></scales>
<mgrwt>
<rscale>  0 0.30000000E+03</rscale>
<asrwt>  1 0.57381941E+02</asrwt>
<pdfrwt beam="1">  1        1 0.92635028E+00 0.30000000E+03</pdfrwt>
<pdfrwt beam="2">0</pdfrwt>
<totfact> 0.28155305E-05</totfact>
</mgrwt>
<clustering>
<clus scale="   57.382">  1  6  2 -1</clus>
<clus scale="  456.692">  4  5 -1 -1</clus>
<clus scale="  300.000">  1  4  2 -1</clus>
</clustering>
</event>
<event>
 6    1  0.9254630E-012  0.3000000E+03  0.7818608E-02  0.1093470E+00
          1   -1    0    0  502    0  0.00000000000E+00  0.00000000000E+00  0.22965127003E+03  0.22965127003E+03  0.00000000000E+00 0.  1.
         13   -1    0    0    0    0 -0.00000000000E+00 -0.00000000000E+00 -0.27500000000E+03  0.27500000000E+03  0.00000000000E+00 0.  1.
    9000005    2    1    2  501    0 -0.15841762749E+02  0.27752493299E+02 -0.64873415984E+02  0.46720296305E+03  0.46157218964E+03 0.  0.
         13    1    3    3    0    0 -0.42745895721E+02 -0.98759872683E+01  0.19671922560E+03  0.20155197952E+03  0.00000000000E+00 0.  1.
          3    1    3    3  501    0  0.26904132972E+02  0.37628480568E+02 -0.26159264159E+03  0.26565098354E+03  0.00000000000E+00 0.  1.
         21    1    1    2  502  501  0.15841762749E+02 -0.27752493299E+02  0.19524686009E+02  0.37448306972E+02  0.00000000000E+00 0.  1.
<scales pt_clust_4="550.00000" pt_clust_5="550.00000" pt_clust_6="31.95563"></scales>
<mgrwt>
<rscale>  0 0.30000000E+03</rscale>
<asrwt>  1 0.31955631E+02</asrwt>
<pdfrwt beam="1">  1        1 0.83509553E+00 0.30000000E+03</pdfrwt>
<pdfrwt beam="2">0</pdfrwt>
<totfact> 0.54947308E-04</totfact>
</mgrwt>
<clustering>
<clus scale="   31.956">  1  6  2 -1</clus>
<clus scale="  461.572">  4  5 -1 -1</clus>
<clus scale="  300.000">  1  4  2 -1</clus>
</clustering>
</event>
<event>
 6    1  0.9254630E-012  0.3000000E+03  0.7818608E-02  0.1093470E+00
          1   -1    0    0  502    0  0.00000000000E+00  0.00000000000E+00  0.23399379884E+03  0.23399379884E+03  0.00000000000E+00 0.  1.
         13   -1    0    0    0    0 -0.00000000000E+00 -0.00000000000E+00 -0.27500000000E+03  0.27500000000E+03  0.00000000000E+00 0.  1.
    9000005    2    1    2  501    0 -0.39069646970E+02  0.32898870221E+01 -0.30092199184E+02  0.46829519801E+03  0.46567970898E+03 0.  0.
         13    1    3    3    0    0  0.14781806309E+03 -0.12417221222E+02  0.14808592183E+03  0.20960392984E+03  0.00000000000E+00 0.  1.
          1    1    3    3  501    0 -0.18688771006E+03  0.15707108244E+02 -0.17817812101E+03  0.25869126817E+03  0.00000000000E+00 0.  1.
         21    1    1    2  502  501  0.39069646970E+02 -0.32898870221E+01 -0.10914001971E+02  0.40698600836E+02  0.00000000000E+00 0. -1.
<scales pt_clust_4="550.00000" pt_clust_5="550.00000" pt_clust_6="39.20794"></scales>
<mgrwt>
<rscale>  0 0.30000000E+03</rscale>
<asrwt>  1 0.39207936E+02</asrwt>
<pdfrwt beam="1">  1        1 0.85088654E+00 0.30000000E+03</pdfrwt>
<pdfrwt beam="2">0</pdfrwt>
<totfact> 0.39092588E-04</totfact>
</mgrwt>
<clustering>
<clus scale="   39.208">  1  6  2 -1</clus>
<clus scale="  465.680">  4  5 -1 -1</clus>
<clus scale="  300.000">  1  4  2 -1</clus>
</clustering>
</event>
<event>
 6    1  0.9254630E-012  0.3000000E+03  0.7818608E-02  0.1093470E+00
          1   -1    0    0  502    0  0.00000000000E+00  0.00000000000E+00  0.23257905026E+03  0.23257905026E+03  0.00000000000E+00 0.  1.
         13   -1    0    0    0    0 -0.00000000000E+00 -0.00000000000E+00 -0.27500000000E+03  0.27500000000E+03  0.00000000000E+00 0.  1.
    9000005    2    1    2  501    0 -0.22705012498E+01 -0.35636812121E+02 -0.27619744176E+02  0.46892399574E+03  0.46674589013E+03 0.  0.
         13    1    3    3    0    0  0.73166660710E+02 -0.23299230157E+03  0.39180985195E+02  0.24733362576E+03  0.00000000000E+00 0.  1.
          1    1    3    3  501    0 -0.75437161960E+02  0.19735548945E+03 -0.66800729371E+02  0.22159036998E+03  0.00000000000E+00 0.  1.
         21    1    1    2  502  501  0.22705012498E+01  0.35636812121E+02 -0.14801205564E+02  0.38655054523E+02  0.00000000000E+00 0. -1.
<scales pt_clust_4="550.00000" pt_clust_5="550.00000" pt_clust_6="35.70909"></scales>
<mgrwt>
<rscale>  0 0.30000000E+03</rscale>
<asrwt>  1 0.35709086E+02</asrwt>
<pdfrwt beam="1">  1        1 0.84574200E+00 0.30000000E+03</pdfrwt>
<pdfrwt beam="2">0</pdfrwt>
<totfact> 0.44342457E-04</totfact>
</mgrwt>
<clustering>
<clus scale="   35.709">  1  6  2 -1</clus>
<clus scale="  466.746">  4  5 -1 -1</clus>
<clus scale="  300.000">  1  4  2 -1</clus>
</clustering>
</event>
<event>
 6    1  0.9254630E-012  0.3000000E+03  0.7818608E-02  0.1093470E+00
          1   -1    0    0  502    0  0.00000000000E+00  0.00000000000E+00  0.22684942397E+03  0.22684942397E+03  0.00000000000E+00 0.  1.
         13   -1    0    0    0    0 -0.00000000000E+00 -0.00000000000E+00 -0.27500000000E+03  0.27500000000E+03  0.00000000000E+00 0.  1.
    9000005    2    1    2  501    0 -0.20633746685E+02  0.33368686856E+02 -0.47149773000E+02  0.46260375706E+03  0.45851926261E+03 0.  0.
         13    1    3    3    0    0 -0.13733321629E+03 -0.17080377527E+03 -0.59527958998E+02  0.22710772740E+03  0.00000000000E+00 0.  1.
          3    1    3    3  501    0  0.11669946961E+03  0.20417246212E+03  0.12378185998E+02  0.23549602966E+03  0.00000000000E+00 0.  1.
         21    1    1    2  502  501  0.20633746685E+02 -0.33368686856E+02 -0.10008030264E+01  0.39245666913E+02  0.00000000000E+00 0.  1.
<scales pt_clust_4="550.00000" pt_clust_5="550.00000" pt_clust_6="39.23290"></scales>
<mgrwt>
<rscale>  0 0.30000000E+03</rscale>
<asrwt>  1 0.39232904E+02</asrwt>
<pdfrwt beam="1">  1        1 0.82490700E+00 0.30000000E+03</pdfrwt>
<pdfrwt beam="2">0</pdfrwt>
<totfact> 0.64073786E-04</totfact>
</mgrwt>
<clustering>
<clus scale="   39.233">  1  6  2 -1</clus>
<clus scale="  458.519">  4  5 -1 -1</clus>
<clus scale="  300.000">  1  4  2 -1</clus>
</clustering>
</event>
<event>
 6    1  0.9254630E-012  0.3000000E+03  0.7818608E-02  0.1093470E+00
          1   -1    0    0  502    0  0.00000000000E+00  0.00000000000E+00  0.22957403207E+03  0.22957403207E+03  0.00000000000E+00 0.  1.
         13   -1    0    0    0    0 -0.00000000000E+00 -0.00000000000E+00 -0.27500000000E+03  0.27500000000E+03  0.00000000000E+00 0.  1.
    9000005    2    1    2  501    0 -0.23026579163E+02 -0.37001755503E+02 -0.43755328057E+02  0.46096045281E+03  0.45680483476E+03 0.  0.
         13    1    3    3    0    0  0.21694407772E+03 -0.73859784335E+01 -0.18657498372E+02  0.21787011677E+03  0.00000000000E+00 0.  1.
          1    1    3    3  501    0 -0.23997065689E+03 -0.29615777069E+02 -0.25097829685E+02  0.24309033603E+03  0.00000000000E+00 0.  1.
         21    1    1    2  502  501  0.23026579163E+02  0.37001755503E+02 -0.16706398755E+01  0.43613579259E+02  0.00000000000E+00 0. -1.
<scales pt_clust_4="550.00000" pt_clust_5="550.00000" pt_clust_6="43.58157"></scales>
<mgrwt>
<rscale>  0 0.30000000E+03</rscale>
<asrwt>  1 0.43581570E+02</asrwt>
<pdfrwt beam="1">  1        1 0.83481466E+00 0.30000000E+03</pdfrwt>
<pdfrwt beam="2">0</pdfrwt>
<totfact> 0.52129890E-04</totfact>
</mgrwt>
<clustering>
<clus scale="   43.582">  1  6  2 -1</clus>
<clus scale="  456.805">  4  5 -1 -1</clus>
<clus scale="  300.000">  1  4  2 -1</clus>
</clustering>
</event>
<event>
 6    1  0.9254630E-012  0.3000000E+03  0.7818608E-02  0.1093470E+00
          1   -1    0    0  502    0  0.00000000000E+00  0.00000000000E+00  0.24353661837E+03  0.24353661837E+03  0.00000000000E+00 0.  1.
         13   -1    0    0    0    0 -0.00000000000E+00 -0.00000000000E+00 -0.27500000000E+03  0.27500000000E+03  0.00000000000E+00 0.  1.
    9000005    2    1    2  501    0 -0.20259095395E+02  0.27980886990E+02 -0.41712439265E+02  0.48250324266E+03  0.47945395045E+03 0.  0.
         13    1    3    3    0    0  0.41232092869E+02 -0.21825949404E+03 -0.53340655724E+02  0.22843493116E+03  0.00000000000E+00 0.  1.
          1    1    3    3  501    0 -0.61491188264E+02  0.24624038104E+03  0.11628216459E+02  0.25406831149E+03  0.00000000000E+00 0.  1.
         21    1    1    2  502  501  0.20259095395E+02 -0.27980886990E+02  0.10249057637E+02  0.36033375715E+02  0.00000000000E+00 0. -1.
<scales pt_clust_4="550.00000" pt_clust_5="550.00000" pt_clust_6="34.54506"></scales>
<mgrwt>
<rscale>  0 0.30000000E+03</rscale>
<asrwt>  1 0.34545057E+02</asrwt>
<pdfrwt beam="1">  1        1 0.88558770E+00 0.30000000E+03</pdfrwt>
<pdfrwt beam="2">0</pdfrwt>
<totfact> 0.16699181E-04</totfact>
</mgrwt>
<clustering>
<clus scale="   34.545">  1  6  2 -1</clus>
<clus scale="  479.454">  4  5 -1 -1</clus>
<clus scale="  300.000">  1  4  2 -1</clus>
</clustering>
</event>
<event>
 6    1  0.9254630E-012  0.3000000E+03  0.7818608E-02  0.1093470E+00
          1   -1    0    0  502    0  0.00000000000E+00  0.00000000000E+00  0.22456675076E+03  0.22456675076E+03  0.00000000000E+00 0.  1.
         13   -1    0    0    0    0 -0.00000000000E+00 -0.00000000000E+00 -0.27500000000E+03  0.27500000000E+03  0.00000000000E+00 0.  1.
    9000005    2    1    2  501    0 -0.71055369710E+01 -0.33049910824E+02 -0.48817724947E+02  0.46572306331E+03  0.46192208885E+03 0.  0.
         13    1    3    3    0    0  0.11172999572E+03  0.18156511687E+03 -0.55565314727E+02  0.22031111594E+03  0.00000000000E+00 0.  1.
          1    1    3    3  501    0 -0.11883553269E+03 -0.21461502770E+03  0.67475897799E+01  0.24541194737E+03  0.00000000000E+00 0.  1.
         21    1    1    2  502  501  0.71055369710E+01  0.33049910824E+02 -0.16155242963E+01  0.33843687445E+02  0.00000000000E+00 0.  1.
<scales pt_clust_4="550.00000" pt_clust_5="550.00000" pt_clust_6="33.80511"></scales>
<mgrwt>
<rscale>  0 0.30000000E+03</rscale>
<asrwt>  1 0.33805107E+02</asrwt>
<pdfrwt beam="1">  1        1 0.81660637E+00 0.30000000E+03</pdfrwt>
<pdfrwt beam="2">0</pdfrwt>
<totfact> 0.77748149E-04</totfact>
</mgrwt>
<clustering>
<clus scale="   33.805">  1  6  2 -1</clus>
<clus scale="  461.922">  4  5 -1 -1</clus>
<clus scale="  300.000">  1  4  2 -1</clus>
</clustering>
</event>
<event>
 6    1  0.9254630E-012  0.3000000E+03  0.7818608E-02  0.1093470E+00
          1   -1    0    0  502    0  0.00000000000E+00  0.00000000000E+00  0.24374305983E+03  0.24374305983E+03  0.00000000000E+00 0.  1.
         13   -1    0    0    0    0 -0.00000000000E+00 -0.00000000000E+00 -0.27500000000E+03  0.27500000000E+03  0.00000000000E+00 0.  1.
    9000005    2    1    2  501    0  0.19875617628E+01  0.45003233802E+02 -0.60833590113E+02  0.46485410292E+03  0.45864950656E+03 0.  0.
         13    1    3    3    0    0 -0.87341220216E+02  0.29471580040E+02 -0.24380539125E+03  0.26064944194E+03  0.00000000000E+00 0.  1.
          3    1    3    3  501    0  0.89328781979E+02  0.15531653761E+02  0.18297180114E+03  0.20420466099E+03  0.00000000000E+00 0.  1.
         21    1    1    2  502  501 -0.19875617628E+01 -0.45003233802E+02  0.29576649938E+02  0.53888956902E+02  0.00000000000E+00 0. -1.
<scales pt_clust_4="550.00000" pt_clust_5="550.00000" pt_clust_6="45.04710"></scales>
<mgrwt>
<rscale>  0 0.30000000E+03</rscale>
<asrwt>  1 0.45047103E+02</asrwt>
<pdfrwt beam="1">  1        1 0.88633840E+00 0.30000000E+03</pdfrwt>
<pdfrwt beam="2">0</pdfrwt>
<totfact> 0.15532709E-04</totfact>
</mgrwt>
<clustering>
<clus scale="   45.047">  1  6  2 -1</clus>
<clus scale="  458.650">  4  5 -1 -1</clus>
<clus scale="  300.000">  1  4  2 -1</clus>
</clustering>
</event>
<event>
 6    1  0.9254630E-012  0.3000000E+03  0.7818608E-02  0.1093470E+00
          1   -1    0    0  502    0  0.00000000000E+00  0.00000000000E+00  0.23735299130E+03  0.23735299130E+03  0.00000000000E+00 0.  1.
         13   -1    0    0    0    0 -0.00000000000E+00 -0.00000000000E+00 -0.27500000000E+03  0.27500000000E+03  0.00000000000E+00 0.  1.
    9000005    2    1    2  501    0 -0.27813078920E+02  0.25382013918E+02 -0.60151191258E+02  0.46848669191E+03  0.46308077124E+03 0.  0.
         13    1    3    3    0    0 -0.17922776723E+03  0.11913666289E+03 -0.15641075003E+03  0.26604597294E+03  0.00000000000E+00 0.  1.
          3    1    3    3  501    0  0.15141468831E+03 -0.93754648970E+02  0.96259558775E+02  0.20244071897E+03  0.00000000000E+00 0.  1.
         21    1    1    2  502  501  0.27813078920E+02 -0.25382013918E+02  0.22504182553E+02  0.43866299388E+02  0.00000000000E+00 0. -1.
<scales pt_clust_4="550.00000" pt_clust_5="550.00000" pt_clust_6="37.65387"></scales>
<mgrwt>
<rscale>  0 0.30000000E+03</rscale>
<asrwt>  1 0.37653871E+02</asrwt>
<pdfrwt beam="1">  1        1 0.86310179E+00 0.30000000E+03</pdfrwt>
<pdfrwt beam="2">0</pdfrwt>
<totfact> 0.29547500E-04</totfact>
</mgrwt>
<clustering>
<clus scale="   37.654">  1  6  2 -1</clus>
<clus scale="  463.081">  4  5 -1 -1</clus>
<clus scale="  300.000">  1  4  2 -1</clus>
</clustering>
</event>
<event>
 6    1  0.9254630E-012  0.3000000E+03  0.7818608E-02  0.1093470E+00
          1   -1    0    0  502    0  0.00000000000E+00  0.00000000000E+00  0.22892686659E+03  0.22892686659E+03  0.00000000000E+00 0.  1.
         13   -1    0    0    0    0 -0.00000000000E+00 -0.00000000000E+00 -0.27500000000E+03  0.27500000000E+03  0.00000000000E+00 0.  1.
    9000005    2    1    2  501    0  0.26287159040E+02 -0.21668176569E+02 -0.41234961379E+02  0.46951854616E+03  0.46646202262E+03 0.  0.
         13    1    3    3    0    0  0.24032519146E+03  0.32835326365E+02  0.10079921870E+02  0.24276729832E+03  0.00000000000E+00 0.  1.
          1    1    3    3  501    0 -0.21403803242E+03 -0.54503502934E+02 -0.51314883249E+02  0.22675124784E+03  0.00000000000E+00 0.  1.
         21    1    1    2  502  501 -0.26287159040E+02  0.21668176569E+02 -0.48381720286E+01  0.34408320430E+02  0.00000000000E+00 0.  1.
<scales pt_clust_4="550.00000" pt_clust_5="550.00000" pt_clust_6="34.06649"></scales>
<mgrwt>
<rscale>  0 0.30000000E+03</rscale>
<asrwt>  1 0.34066490E+02</asrwt>
<pdfrwt beam="1">  1        1 0.83246133E+00 0.30000000E+03</pdfrwt>
<pdfrwt beam="2">0</pdfrwt>
<totfact> 0.56792308E-04</totfact>
</mgrwt>
<clustering>
<clus scale="   34.066">  1  6  2 -1</clus>
<clus scale="  466.462">  4  5 -1 -1</clus>
<clus scale="  300.000">  1  4  2 -1</clus>
</clustering>
</event>
<event>
 6    1  0.9254630E-012  0.3000000E+03  0.7818608E-02  0.1093470E+00
          1   -1    0    0  502    0  0.00000000000E+00  0.00000000000E+00  0.22997922770E+03  0.22997922770E+03  0.00000000000E+00 0.  1.
         13   -1    0    0    0    0 -0.00000000000E+00 -0.00000000000E+00 -0.27500000000E+03  0.27500000000E+03  0.00000000000E+00 0.  1.
    9000005    2    1    2  501    0  0.27918209865E+02  0.20776793240E+02 -0.50201838579E+02  0.46979478473E+03  0.46580662681E+03 0.  0.
         13    1    3    3    0    0 -0.14677410776E+03 -0.69694673588E+02 -0.17343531444E+03  0.23765478016E+03  0.00000000000E+00 0.  1.
          3    1    3    3  501    0  0.17469231763E+03  0.90471466828E+02  0.12323347586E+03  0.23214000457E+03  0.00000000000E+00 0.  1.
         21    1    1    2  502  501 -0.27918209865E+02 -0.20776793240E+02  0.51810662767E+01  0.35184442970E+02  0.00000000000E+00 0.  1.
<scales pt_clust_4="550.00000" pt_clust_5="550.00000" pt_clust_6="34.80088"></scales>
<mgrwt>
<rscale>  0 0.30000000E+03</rscale>
<asrwt>  1 0.34800885E+02</asrwt>
<pdfrwt beam="1">  1        1 0.83628810E+00 0.30000000E+03</pdfrwt>
<pdfrwt beam="2">0</pdfrwt>
<totfact> 0.53001752E-04</totfact>
</mgrwt>
<clustering>
<clus scale="   34.801">  1  6  2 -1</clus>
<clus scale="  465.807">  4  5 -1 -1</clus>
<clus scale="  300.000">  1  4  2 -1</clus>
</clustering>
</event>
<event>
 6    1  0.9254630E-012  0.3000000E+03  0.7818608E-02  0.1093470E+00
          1   -1    0    0  502    0  0.00000000000E+00  0.00000000000E+00  0.22745387826E+03  0.22745387826E+03  0.00000000000E+00 0.  1.
         13   -1    0    0    0    0 -0.00000000000E+00 -0.00000000000E+00 -0.27500000000E+03  0.27500000000E+03  0.00000000000E+00 0.  1.
    9000005    2    1    2  501    0 -0.10948416577E+01 -0.32201496481E+02 -0.70387963847E+02  0.46295850126E+03  0.45644054747E+03 0.  0.
         13    1    3    3    0    0  0.89647367237E+01 -0.21085659150E+03  0.83484589210E+02  0.22695934728E+03  0.00000000000E+00 0.  1.
          1    1    3    3  501    0 -0.10059578381E+02  0.17865509502E+03 -0.15387255306E+03  0.23599915397E+03  0.00000000000E+00 0.  1.
         21    1    1    2  502  501  0.10948416577E+01  0.32201496481E+02  0.22841842106E+02  0.39495377004E+02  0.00000000000E+00 0. -1.
<scales pt_clust_4="550.00000" pt_clust_5="550.00000" pt_clust_6="32.22010"></scales>
<mgrwt>
<rscale>  0 0.30000000E+03</rscale>
<asrwt>  1 0.32220103E+02</asrwt>
<pdfrwt beam="1">  1        1 0.82710501E+00 0.30000000E+03</pdfrwt>
<pdfrwt beam="2">0</pdfrwt>
<totfact> 0.63552883E-04</totfact>
</mgrwt>
<clustering>
<clus scale="   32.220">  1  6  2 -1</clus>
<clus scale="  456.441">  4  5 -1 -1</clus>
<clus scale="  300.000">  1  4  2 -1</clus>
</clustering>
</event>
<event>
 6    1  0.9254630E-012  0.3000000E+03  0.7818608E-02  0.1093470E+00
          1   -1    0    0  502    0  0.00000000000E+00  0.00000000000E+00  0.24027469077E+03  0.24027469077E+03  0.00000000000E+00 0.  1.
         13   -1    0    0    0    0 -0.00000000000E+00 -0.00000000000E+00 -0.27500000000E+03  0.27500000000E+03  0.00000000000E+00 0.  1.
    9000005    2    1    2  501    0  0.25455022899E+02 -0.42182426947E+02 -0.36426152622E+02  0.46597754884E+03  0.46193170068E+03 0.  0.
         13    1    3    3    0    0  0.52986339707E+02  0.23176376659E+02 -0.24184332362E+03  0.24866220020E+03  0.00000000000E+00 0.  1.
          3    1    3    3  501    0 -0.27531316808E+02 -0.65358803606E+02  0.20541717100E+03  0.21731534864E+03  0.00000000000E+00 0.  1.
         21    1    1    2  502  501 -0.25455022899E+02  0.42182426947E+02  0.17008433913E+01  0.49297141927E+02  0.00000000000E+00 0. -1.
<scales pt_clust_4="550.00000" pt_clust_5="550.00000" pt_clust_6="49.26779"></scales>
<mgrwt>
<rscale>  0 0.30000000E+03</rscale>
<asrwt>  1 0.49267792E+02</asrwt>
<pdfrwt beam="1">  1        1 0.87372615E+00 0.30000000E+03</pdfrwt>
<pdfrwt beam="2">0</pdfrwt>
<totfact> 0.21799820E-04</totfact>
</mgrwt>
<clustering>
<clus scale="   49.268">  1  6  2 -1</clus>
<clus scale="  461.932">  4  5 -1 -1</clus>
<clus scale="  300.000">  1  4  2 -1</clus>
</clustering>
</event>
<event>
 6    1  0.9254630E-012  0.3000000E+03  0.7818608E-02  0.1093470E+00
          1   -1    0    0  502    0  0.00000000000E+00  0.00000000000E+00  0.23424762898E+03  0.23424762898E+03  0.00000000000E+00 0.  1.
         13   -1    0    0    0    0 -0.00000000000E+00 -0.00000000000E+00 -0.27500000000E+03  0.27500000000E+03  0.00000000000E+00 0.  1.
    9000005    2    1    2  501    0 -0.16957558297E+02 -0.30637670235E+02 -0.43504510462E+02  0.47412214120E+03  0.47082155507E+03 0.  0.
         13    1    3    3    0    0 -0.42144004901E+02  0.21432919949E+03  0.21329452861E+02  0.21947224987E+03  0.00000000000E+00 0.  1.
          3    1    3    3  501    0  0.25186446604E+02 -0.24496686972E+03 -0.64833963323E+02  0.25464989133E+03  0.00000000000E+00 0.  1.
         21    1    1    2  502  501  0.16957558297E+02  0.30637670235E+02  0.27521394446E+01  0.35125487788E+02  0.00000000000E+00 0. -1.
<scales pt_clust_4="550.00000" pt_clust_5="550.00000" pt_clust_6="35.01750"></scales>
<mgrwt>
<rscale>  0 0.30000000E+03</rscale>
<asrwt>  1 0.35017504E+02</asrwt>
<pdfrwt beam="1">  1        1 0.85180956E+00 0.30000000E+03</pdfrwt>
<pdfrwt beam="2">0</pdfrwt>
<totfact> 0.39119857E-04</totfact>
</mgrwt>
<clustering>
<clus scale="   35.018">  1  6  2 -1</clus>
<clus scale="  470.822">  4  5 -1 -1</clus>
<clus scale="  300.000">  1  4  2 -1</clus>
</clustering>
</event>
<event>
 6    1  0.9254630E-012  0.3000000E+03  0.7818608E-02  0.1093470E+00
          1   -1    0    0  502    0  0.00000000000E+00  0.00000000000E+00  0.23066899496E+03  0.23066899496E+03  0.00000000000E+00 0.  1.
         13   -1    0    0    0    0 -0.00000000000E+00 -0.00000000000E+00 -0.27500000000E+03  0.27500000000E+03  0.00000000000E+00 0.  1.
    9000005    2    1    2  501    0 -0.27596607008E+02 -0.17204992712E+02 -0.47971871842E+02  0.47294529707E+03  0.46938083582E+03 0.  0.
         13    1    3    3    0    0 -0.17157433960E+03 -0.18276987071E+03 -0.35433352901E+02  0.25317602996E+03  0.00000000000E+00 0.  1.
          3    1    3    3  501    0  0.14397773259E+03  0.16556487800E+03 -0.12538518942E+02  0.21976926711E+03  0.00000000000E+00 0.  1.
         21    1    1    2  502  501  0.27596607008E+02  0.17204992712E+02  0.36408668004E+01  0.32723697891E+02  0.00000000000E+00 0. -1.
<scales pt_clust_4="550.00000" pt_clust_5="550.00000" pt_clust_6="32.52052"></scales>
<mgrwt>
<rscale>  0 0.30000000E+03</rscale>
<asrwt>  1 0.32520524E+02</asrwt>
<pdfrwt beam="1">  1        1 0.83879635E+00 0.30000000E+03</pdfrwt>
<pdfrwt beam="2">0</pdfrwt>
<totfact> 0.51462116E-04</totfact>
</mgrwt>
<clustering>
<clus scale="   32.521">  1  6  2 -1</clus>
<clus scale="  469.381">  4  5 -1 -1</clus>
<clus scale="  300.000">  1  4  2 -1</clus>
</clustering>
</event>
<event>
 6    1  0.9254630E-012  0.3000000E+03  0.7818608E-02  0.1093470E+00
          1   -1    0    0  502    0  0.00000000000E+00  0.00000000000E+00  0.23830105865E+03  0.23830105865E+03  0.00000000000E+00 0.  1.
         13   -1    0    0    0    0 -0.00000000000E+00 -0.00000000000E+00 -0.27500000000E+03  0.27500000000E+03  0.00000000000E+00 0.  1.
    9000005    2    1    2  501    0 -0.11119228888E+02 -0.28778599953E+02 -0.57152372939E+02  0.47628500902E+03  0.47183595774E+03 0.  0.
         13    1    3    3    0    0  0.13922530317E+03  0.17148188941E+03 -0.76028518356E+01  0.22101476602E+03  0.00000000000E+00 0.  1.
          1    1    3    3  501    0 -0.15034453206E+03 -0.20026048937E+03 -0.49549521104E+02  0.25527024301E+03  0.00000000000E+00 0.  1.
         21    1    1    2  502  501  0.11119228888E+02  0.28778599953E+02  0.20453431586E+02  0.37016049627E+02  0.00000000000E+00 0. -1.
<scales pt_clust_4="550.00000" pt_clust_5="550.00000" pt_clust_6="30.85199"></scales>
<mgrwt>
<rscale>  0 0.30000000E+03</rscale>
<asrwt>  1 0.30851986E+02</asrwt>
<pdfrwt beam="1">  1        1 0.86654930E+00 0.30000000E+03</pdfrwt>
<pdfrwt beam="2">0</pdfrwt>
<totfact> 0.28165769E-04</totfact>
</mgrwt>
<clustering>
<clus scale="   30.852">  1  6  2 -1</clus>
<clus scale="  471.836">  4  5 -1 -1</clus>
<clus scale="  300.000">  1  4  2 -1</clus>
</clustering>
</event>
<event>
 6    1  0.9254630E-012  0.3000000E+03  0.7818608E-02  0.1093470E+00
          1   -1    0    0  502    0  0.00000000000E+00  0.00000000000E+00  0.24116663154E+03  0.24116663154E+03  0.00000000000E+00 0.  1.
         13   -1    0    0    0    0 -0.00000000000E+00 -0.00000000000E+00 -0.27500000000E+03  0.27500000000E+03  0.00000000000E+00 0.  1.
    9000005    2    1    2  501    0  0.44361194580E+02  0.99827393530E+01 -0.35015148527E+02  0.47068072962E+03  0.46716883237E+03 0.  0.
         13    1    3    3    0    0 -0.23433719262E+02 -0.20376225697E+03 -0.11187837362E+03  0.23363425914E+03  0.00000000000E+00 0.  1.
          3    1    3    3  501    0  0.67794913841E+02  0.21374499632E+03  0.76863225089E+02  0.23704647048E+03  0.00000000000E+00 0.  1.
         21    1    1    2  502  501 -0.44361194580E+02 -0.99827393530E+01  0.11817800712E+01  0.45485901922E+02  0.00000000000E+00 0.  1.
<scales pt_clust_4="550.00000" pt_clust_5="550.00000" pt_clust_6="45.47055"></scales>
<mgrwt>
<rscale>  0 0.30000000E+03</rscale>
<asrwt>  1 0.45470547E+02</asrwt>
<pdfrwt beam="1">  1        1 0.87696957E+00 0.30000000E+03</pdfrwt>
<pdfrwt beam="2">0</pdfrwt>
<totfact> 0.20416321E-04</totfact>
</mgrwt>
<clustering>
<clus scale="   45.471">  1  6  2 -1</clus>
<clus scale="  467.169">  4  5 -1 -1</clus>
<clus scale="  300.000">  1  4  2 -1</clus>
</clustering>
</event>
<event>
 6    1  0.9254630E-012  0.3000000E+03  0.7818608E-02  0.1093470E+00
          1   -1    0    0  502    0  0.00000000000E+00  0.00000000000E+00  0.22788757889E+03  0.22788757889E+03  0.00000000000E+00 0.  1.
         13   -1    0    0    0    0 -0.00000000000E+00 -0.00000000000E+00 -0.27500000000E+03  0.27500000000E+03  0.00000000000E+00 0.  1.
    9000005    2    1    2  501    0  0.12979884433E+02  0.33465000532E+02 -0.56597884622E+02  0.46576133913E+03  0.46091422285E+03 0.  0.
         13    1    3    3    0    0  0.17693249042E+03  0.12594250864E+03  0.81853743412E+02  0.23209191490E+03  0.00000000000E+00 0.  1.
          1    1    3    3  501    0 -0.16395260599E+03 -0.92477508107E+02 -0.13845162803E+03  0.23366942423E+03  0.00000000000E+00 0.  1.
         21    1    1    2  502  501 -0.12979884433E+02 -0.33465000532E+02  0.94854635102E+01  0.37126239757E+02  0.00000000000E+00 0.  1.
<scales pt_clust_4="550.00000" pt_clust_5="550.00000" pt_clust_6="35.89406"></scales>
<mgrwt>
<rscale>  0 0.30000000E+03</rscale>
<asrwt>  1 0.35894062E+02</asrwt>
<pdfrwt beam="1">  1        1 0.82868211E+00 0.30000000E+03</pdfrwt>
<pdfrwt beam="2">0</pdfrwt>
<totfact> 0.60344694E-04</totfact>
</mgrwt>
<clustering>
<clus scale="   35.894">  1  6  2 -1</clus>
<clus scale="  460.914">  4  5 -1 -1</clus>
<clus scale="  300.000">  1  4  2 -1</clus>
</clustering>
</event>
