<event>
 6    1  0.3781527E-003  0.6570962E+03  0.7818608E-02  0.9793554E-01
          1   -1    0    0  502    0  0.00000000000E+00  0.00000000000E+00  0.10794522378E+03  0.10794522378E+03  0.00000000000E+00 0.  1.
         13   -1    0    0    0    0 -0.00000000000E+00 -0.00000000000E+00 -0.10000000000E+04  0.10000000000E+04  0.00000000000E+00 0.  1.
    9000005    2    1    2  501    0 -0.11830053523E-03 -0.31337307857E-03 -0.89205612514E+03  0.11079438339E+04  0.65709619436E+03 0.  0.
         13    1    3    3    0    0  0.83639456934E+02  0.23300023412E+03 -0.81024217854E+03  0.84721724235E+03  0.00000000000E+00 0.  1.
          3    1    3    3  501    0 -0.83639575235E+02 -0.23300054749E+03 -0.81813946607E+02  0.26072659154E+03  0.00000000000E+00 0.  1.
         21    1    1    2  502  501  0.11830053524E-03  0.31337307856E-03  0.13489230720E-02  0.13898889010E-02  0.00000000000E+00 0. -1.
<mgrwt>
<rscale>  1 0.65709619E+03</rscale>
<asrwt>0</asrwt>
<pdfrwt beam="1">  1        1 0.39252891E+00 0.65709619E+03</pdfrwt>
<pdfrwt beam="2">0</pdfrwt>
<totfact> 0.14423607E+00</totfact>
</mgrwt>
</event>
<event>
 6    1  0.3781527E-003  0.6621173E+03  0.7818608E-02  0.9784304E-01
          3   -1    0    0  502    0  0.00000000000E+00  0.00000000000E+00  0.10967727671E+03  0.10967727671E+03  0.00000000000E+00 0.  1.
         13   -1    0    0    0    0 -0.00000000000E+00 -0.00000000000E+00 -0.10000000000E+04  0.10000000000E+04  0.00000000000E+00 0.  1.
    9000005    2    1    2  501    0  0.26887018679E-02  0.31975080496E-01 -0.89039645938E+03  0.11095968613E+04  0.66211731482E+03 0.  0.
         13    1    3    3    0    0 -0.10216652144E+03 -0.23151591521E+03 -0.87501441595E+02  0.26775757577E+03  0.00000000000E+00 0.  1.
          1    1    3    3  501    0  0.10216921014E+03  0.23154789029E+03 -0.80289501779E+03  0.84183928548E+03  0.00000000000E+00 0.  1.
         21    1    1    2  502  501 -0.26887018679E-02 -0.31975080496E-01  0.73736091297E-01  0.80415459025E-01  0.00000000000E+00 0. -1.
<mgrwt>
<rscale>  1 0.66211732E+03</rscale>
<asrwt>0</asrwt>
<pdfrwt beam="1">  1        3 0.39882730E+00 0.66211732E+03</pdfrwt>
<pdfrwt beam="2">0</pdfrwt>
<totfact> 0.59959235E-02</totfact>
</mgrwt>
</event>
<event>
 6    1  0.3781527E-003  0.6498281E+03  0.7818608E-02  0.9807102E-01
          1   -1    0    0  502    0  0.00000000000E+00  0.00000000000E+00  0.10566936494E+03  0.10566936494E+03  0.00000000000E+00 0.  1.
         13   -1    0    0    0    0 -0.00000000000E+00 -0.00000000000E+00 -0.10000000000E+04  0.10000000000E+04  0.00000000000E+00 0.  1.
    9000005    2    1    2  501    0  0.63817212013E-03 -0.82971448218E-02 -0.89443068237E+03  0.11055689721E+04  0.64982805921E+03 0.  0.
         13    1    3    3    0    0 -0.94474154551E+02 -0.38394911914E+02  0.77636374128E+02  0.12816763135E+03  0.00000000000E+00 0.  1.
          1    1    3    3  501    0  0.94474792723E+02  0.38386614769E+02 -0.97206705650E+03  0.97740134079E+03  0.00000000000E+00 0.  1.
         21    1    1    2  502  501 -0.63817212014E-03  0.82971448218E-02  0.10004730764E+00  0.10039279676E+00  0.00000000000E+00 0. -1.
<mgrwt>
<rscale>  1 0.64982806E+03</rscale>
<asrwt>0</asrwt>
<pdfrwt beam="1">  1        1 0.38425305E+00 0.64982806E+03</pdfrwt>
<pdfrwt beam="2">0</pdfrwt>
<totfact> 0.15715541E+00</totfact>
</mgrwt>
</event>
<event>
 6    1  0.3781527E-003  0.6575267E+03  0.7818608E-02  0.9792757E-01
          1   -1    0    0  502    0  0.00000000000E+00  0.00000000000E+00  0.10814411683E+03  0.10814411683E+03  0.00000000000E+00 0.  1.
         13   -1    0    0    0    0 -0.00000000000E+00 -0.00000000000E+00 -0.10000000000E+04  0.10000000000E+04  0.00000000000E+00 0.  1.
    9000005    2    1    2  501    0 -0.11495731159E+00  0.12101719655E+00 -0.89172112470E+03  0.11079295937E+04  0.65752672371E+03 0.  0.
         13    1    3    3    0    0  0.78246324398E+02  0.30138699010E+03 -0.26794294891E+03  0.41079195337E+03  0.00000000000E+00 0.  1.
          1    1    3    3  501    0 -0.78361281710E+02 -0.30126597291E+03 -0.62377817579E+03  0.69713764028E+03  0.00000000000E+00 0.  1.
         21    1    1    2  502  501  0.11495731159E+00 -0.12101719655E+00 -0.13475847318E+00  0.21452317228E+00  0.00000000000E+00 0.  1.
<mgrwt>
<rscale>  1 0.65752674E+03</rscale>
<asrwt>0</asrwt>
<pdfrwt beam="1">  1        1 0.39325216E+00 0.65752674E+03</pdfrwt>
<pdfrwt beam="2">0</pdfrwt>
<totfact> 0.14316165E+00</totfact>
</mgrwt>
</event>
<event>
 6    1  0.3781527E-003  0.6360841E+03  0.7818608E-02  0.9833247E-01
          1   -1    0    0  502    0  0.00000000000E+00  0.00000000000E+00  0.10115677192E+03  0.10115677192E+03  0.00000000000E+00 0.  1.
         13   -1    0    0    0    0 -0.00000000000E+00 -0.00000000000E+00 -0.10000000000E+04  0.10000000000E+04  0.00000000000E+00 0.  1.
    9000005    2    1    2  501    0  0.14465642305E-03  0.59223560129E-04 -0.89884924331E+03  0.11011507547E+04  0.63608413146E+03 0.  0.
         13    1    3    3    0    0 -0.17801350968E+02  0.83912770100E+02 -0.97959604953E+03  0.98334463000E+03  0.00000000000E+00 0.  1.
          1    1    3    3  501    0  0.17801495624E+02 -0.83912710876E+02  0.80746806224E+02  0.11780612466E+03  0.00000000000E+00 0.  1.
         21    1    1    2  502  501 -0.14465642305E-03 -0.59223560134E-04  0.60152314616E-02  0.60172620391E-02  0.00000000000E+00 0. -1.
<mgrwt>
<rscale>  1 0.63608413E+03</rscale>
<asrwt>0</asrwt>
<pdfrwt beam="1">  1        1 0.36784358E+00 0.63608413E+03</pdfrwt>
<pdfrwt beam="2">0</pdfrwt>
<totfact> 0.18607689E+00</totfact>
</mgrwt>
</event>
<event>
 6    1  0.3781527E-003  0.6528896E+03  0.7818608E-02  0.9801372E-01
          1   -1    0    0  502    0  0.00000000000E+00  0.00000000000E+00  0.11513023999E+03  0.11513023999E+03  0.00000000000E+00 0.  1.
         13   -1    0    0    0    0 -0.00000000000E+00 -0.00000000000E+00 -0.10000000000E+04  0.10000000000E+04  0.00000000000E+00 0.  1.
    9000005    2    1    2  501    0  0.38078333160E+01 -0.41798055224E+01 -0.89238866716E+03  0.11057225658E+04  0.65286513838E+03 0.  0.
         13    1    3    3    0    0  0.22711414941E+03 -0.27904551324E+02 -0.84602496890E+03  0.87642327038E+03  0.00000000000E+00 0.  1.
          3    1    3    3  501    0 -0.22330631610E+03  0.23724745801E+02 -0.46363698251E+02  0.22929929544E+03  0.00000000000E+00 0.  1.
         21    1    1    2  502  501 -0.38078333160E+01  0.41798055224E+01  0.75189071458E+01  0.94076741777E+01  0.00000000000E+00 0.  1.
<mgrwt>
<rscale>  1 0.65288962E+03</rscale>
<asrwt>0</asrwt>
<pdfrwt beam="1">  1        1 0.41865630E+00 0.65288962E+03</pdfrwt>
<pdfrwt beam="2">0</pdfrwt>
<totfact> 0.11029780E+00</totfact>
</mgrwt>
</event>
<event>
 6    1  0.3781527E-003  0.6497069E+03  0.7818608E-02  0.9807329E-01
          1   -1    0    0  502    0  0.00000000000E+00  0.00000000000E+00  0.10553211298E+03  0.10553211298E+03  0.00000000000E+00 0.  1.
         13   -1    0    0    0    0 -0.00000000000E+00 -0.00000000000E+00 -0.10000000000E+04  0.10000000000E+04  0.00000000000E+00 0.  1.
    9000005    2    1    2  501    0 -0.53895368779E-03  0.45065931147E-03 -0.89447019015E+03  0.11055297051E+04  0.64970686293E+03 0.  0.
         13    1    3    3    0    0 -0.20645272229E+03 -0.24109247177E+03 -0.56489614086E+03  0.64796292829E+03  0.00000000000E+00 0.  1.
          1    1    3    3  501    0  0.20645218334E+03  0.24109292243E+03 -0.32957404929E+03  0.45756677678E+03  0.00000000000E+00 0.  1.
         21    1    1    2  502  501  0.53895368780E-03 -0.45065931148E-03  0.23031384467E-02  0.24079060607E-02  0.00000000000E+00 0. -1.
<mgrwt>
<rscale>  1 0.64970686E+03</rscale>
<asrwt>0</asrwt>
<pdfrwt beam="1">  1        1 0.38375395E+00 0.64970686E+03</pdfrwt>
<pdfrwt beam="2">0</pdfrwt>
<totfact> 0.15795943E+00</totfact>
</mgrwt>
</event>
<event>
 6    1  0.3781527E-003  0.5956381E+03  0.7818608E-02  0.9914497E-01
          1   -1    0    0  502    0  0.00000000000E+00  0.00000000000E+00  0.88697431706E+02  0.88697431706E+02  0.00000000000E+00 0.  1.
         13   -1    0    0    0    0 -0.00000000000E+00 -0.00000000000E+00 -0.10000000000E+04  0.10000000000E+04  0.00000000000E+00 0.  1.
    9000005    2    1    2  501    0 -0.31329141441E-03 -0.12943366429E-03 -0.91130377782E+03  0.10886961756E+04  0.59563813448E+03 0.  0.
         13    1    3    3    0    0 -0.21425065544E+03  0.20587485679E+01 -0.83373637190E+03  0.86082746217E+03  0.00000000000E+00 0.  1.
          1    1    3    3  501    0  0.21425034214E+03 -0.20588780016E+01 -0.77567405918E+02  0.22786871340E+03  0.00000000000E+00 0.  1.
         21    1    1    2  502  501  0.31329141442E-03  0.12943366429E-03  0.12095258883E-02  0.12561279625E-02  0.00000000000E+00 0.  1.
<mgrwt>
<rscale>  1 0.59563813E+03</rscale>
<asrwt>0</asrwt>
<pdfrwt beam="1">  1        1 0.32253680E+00 0.59563813E+03</pdfrwt>
<pdfrwt beam="2">0</pdfrwt>
<totfact> 0.29512923E+00</totfact>
</mgrwt>
</event>
<event>
 6    1  0.3781527E-003  0.6205713E+03  0.7818608E-02  0.9863623E-01
          1   -1    0    0  502    0  0.00000000000E+00  0.00000000000E+00  0.96277205245E+02  0.96277205245E+02  0.00000000000E+00 0.  1.
         13   -1    0    0    0    0 -0.00000000000E+00 -0.00000000000E+00 -0.10000000000E+04  0.10000000000E+04  0.00000000000E+00 0.  1.
    9000005    2    1    2  501    0 -0.34240525224E-05  0.91034344933E-05 -0.90372280705E+03  0.10962771896E+04  0.62057132095E+03 0.  0.
         13    1    3    3    0    0  0.28364449106E+03  0.92205626198E+02 -0.60301459603E+03  0.67274265350E+03  0.00000000000E+00 0.  1.
          3    1    3    3  501    0 -0.28364449448E+03 -0.92205617094E+02 -0.30070821102E+03  0.42353453607E+03  0.00000000000E+00 0.  1.
         21    1    1    2  502  501  0.34240525535E-05 -0.91034344964E-05  0.12293042489E-04  0.15675316557E-04  0.00000000000E+00 0. -1.
<mgrwt>
<rscale>  1 0.62057132E+03</rscale>
<asrwt>0</asrwt>
<pdfrwt beam="1">  1        1 0.35009967E+00 0.62057132E+03</pdfrwt>
<pdfrwt beam="2">0</pdfrwt>
<totfact> 0.22309189E+00</totfact>
</mgrwt>
</event>
<event>
 6    1  0.3781527E-003  0.6077339E+03  0.7818608E-02  0.9889489E-01
          1   -1    0    0  502    0  0.00000000000E+00  0.00000000000E+00  0.94862878880E+02  0.94862878880E+02  0.00000000000E+00 0.  1.
         13   -1    0    0    0    0 -0.00000000000E+00 -0.00000000000E+00 -0.10000000000E+04  0.10000000000E+04  0.00000000000E+00 0.  1.
    9000005    2    1    2  501    0  0.30974551362E+00  0.12725697811E+00 -0.90765275052E+03  0.10923250594E+04  0.60773382960E+03 0.  0.
         13    1    3    3    0    0  0.21548107221E+03 -0.99364159572E+02 -0.79538383385E+03  0.83002456098E+03  0.00000000000E+00 0.  1.
          3    1    3    3  501    0 -0.21517132670E+03  0.99491416551E+02 -0.11226891667E+03  0.26230049838E+03  0.00000000000E+00 0.  1.
         21    1    1    2  502  501 -0.30974551362E+00 -0.12725697811E+00  0.25156294010E+01  0.25378195178E+01  0.00000000000E+00 0. -1.
<mgrwt>
<rscale>  1 0.60773392E+03</rscale>
<asrwt>0</asrwt>
<pdfrwt beam="1">  1        1 0.34495665E+00 0.60773392E+03</pdfrwt>
<pdfrwt beam="2">0</pdfrwt>
<totfact> 0.23543535E+00</totfact>
</mgrwt>
</event>
<event>
 6    1  0.3781527E-003  0.6645977E+03  0.7818608E-02  0.9779767E-01
          1   -1    0    0  502    0  0.00000000000E+00  0.00000000000E+00  0.11094121373E+03  0.11094121373E+03  0.00000000000E+00 0.  1.
         13   -1    0    0    0    0 -0.00000000000E+00 -0.00000000000E+00 -0.10000000000E+04  0.10000000000E+04  0.00000000000E+00 0.  1.
    9000005    2    1    2  501    0  0.15651297047E+00 -0.61165668453E-01 -0.88956230409E+03  0.11104103957E+04  0.66459771731E+03 0.  0.
         13    1    3    3    0    0  0.95850150848E+02  0.28324880858E+03 -0.20263676210E+03  0.36121848836E+03  0.00000000000E+00 0.  1.
          1    1    3    3  501    0 -0.95693637878E+02 -0.28330997425E+03 -0.68692554199E+03  0.74919190738E+03  0.00000000000E+00 0.  1.
         21    1    1    2  502  501 -0.15651297047E+00  0.61165668453E-01  0.50351782236E+00  0.53081799739E+00  0.00000000000E+00 0.  1.
<mgrwt>
<rscale>  1 0.66459774E+03</rscale>
<asrwt>0</asrwt>
<pdfrwt beam="1">  1        1 0.40342345E+00 0.66459774E+03</pdfrwt>
<pdfrwt beam="2">0</pdfrwt>
<totfact> 0.12880673E+00</totfact>
</mgrwt>
</event>
<event>
 6    1  0.3781527E-003  0.6576012E+03  0.7818608E-02  0.9792620E-01
          1   -1    0    0  502    0  0.00000000000E+00  0.00000000000E+00  0.10811025343E+03  0.10811025343E+03  0.00000000000E+00 0.  1.
         13   -1    0    0    0    0 -0.00000000000E+00 -0.00000000000E+00 -0.10000000000E+04  0.10000000000E+04  0.00000000000E+00 0.  1.
    9000005    2    1    2  501    0 -0.29591124832E-03 -0.28582664882E-03 -0.89189003756E+03  0.11081097495E+04  0.65760123013E+03 0.  0.
         13    1    3    3    0    0 -0.24821772221E+03 -0.13694880920E+03 -0.16527497313E+03  0.32815062198E+03  0.00000000000E+00 0.  1.
          3    1    3    3  501    0  0.24821742630E+03  0.13694852338E+03 -0.72661506442E+03  0.77995912753E+03  0.00000000000E+00 0.  1.
         21    1    1    2  502  501  0.29591124831E-03  0.28582664882E-03  0.29098868535E-03  0.50391939341E-03  0.00000000000E+00 0. -1.
<mgrwt>
<rscale>  1 0.65760123E+03</rscale>
<asrwt>0</asrwt>
<pdfrwt beam="1">  1        1 0.39312902E+00 0.65760123E+03</pdfrwt>
<pdfrwt beam="2">0</pdfrwt>
<totfact> 0.14334010E+00</totfact>
</mgrwt>
</event>
<event>
 6    1  0.3781527E-003  0.6482696E+03  0.7818608E-02  0.9810032E-01
          1   -1    0    0  502    0  0.00000000000E+00  0.00000000000E+00  0.10964701694E+03  0.10964701694E+03  0.00000000000E+00 0.  1.
         13   -1    0    0    0    0 -0.00000000000E+00 -0.00000000000E+00 -0.10000000000E+04  0.10000000000E+04  0.00000000000E+00 0.  1.
    9000005    2    1    2  501    0 -0.10182321515E+02  0.69196088158E+01 -0.88260626511E+03  0.10951014920E+04  0.64815268097E+03 0.  0.
         13    1    3    3    0    0  0.24528477543E+03 -0.22793108696E+00 -0.88301709679E+02  0.26069496532E+03  0.00000000000E+00 0.  1.
          3    1    3    3  501    0 -0.25546709694E+03  0.71475399028E+01 -0.79430455543E+03  0.83440652665E+03  0.00000000000E+00 0.  1.
         21    1    1    2  502  501  0.10182321515E+02 -0.69196088158E+01 -0.77467179499E+01  0.14545524968E+02  0.00000000000E+00 0.  1.
<mgrwt>
<rscale>  1 0.64826959E+03</rscale>
<asrwt>0</asrwt>
<pdfrwt beam="1">  1        1 0.39871727E+00 0.64826959E+03</pdfrwt>
<pdfrwt beam="2">0</pdfrwt>
<totfact> 0.13560421E+00</totfact>
</mgrwt>
</event>
<event>
 6    1  0.3781527E-003  0.6436148E+03  0.7818608E-02  0.9818835E-01
          1   -1    0    0  502    0  0.00000000000E+00  0.00000000000E+00  0.10356068346E+03  0.10356068346E+03  0.00000000000E+00 0.  1.
         13   -1    0    0    0    0 -0.00000000000E+00 -0.00000000000E+00 -0.10000000000E+04  0.10000000000E+04  0.00000000000E+00 0.  1.
    9000005    2    1    2  501    0  0.30907350569E-03 -0.25174866843E-03 -0.89643993817E+03  0.11035599450E+04  0.64361478344E+03 0.  0.
         13    1    3    3    0    0  0.24625970371E+03  0.40109161744E+01 -0.80335988562E+03  0.84026605009E+03  0.00000000000E+00 0.  1.
          1    1    3    3  501    0 -0.24625939463E+03 -0.40111679231E+01 -0.93080052551E+02  0.26329389491E+03  0.00000000000E+00 0.  1.
         21    1    1    2  502  501 -0.30907350568E-03  0.25174866843E-03  0.62163042592E-03  0.73846341169E-03  0.00000000000E+00 0. -1.
<mgrwt>
<rscale>  1 0.64361478E+03</rscale>
<asrwt>0</asrwt>
<pdfrwt beam="1">  1        1 0.37658510E+00 0.64361478E+03</pdfrwt>
<pdfrwt beam="2">0</pdfrwt>
<totfact> 0.17008483E+00</totfact>
</mgrwt>
</event>
<event>
 6    1  0.3781527E-003  0.6445306E+03  0.7818608E-02  0.9817097E-01
          1   -1    0    0  502    0  0.00000000000E+00  0.00000000000E+00  0.10846926723E+03  0.10846926723E+03  0.00000000000E+00 0.  1.
         13   -1    0    0    0    0 -0.00000000000E+00 -0.00000000000E+00 -0.10000000000E+04  0.10000000000E+04  0.00000000000E+00 0.  1.
    9000005    2    1    2  501    0  0.22075163475E+01 -0.82623918439E+00 -0.89581050440E+03  0.11035833441E+04  0.64452632357E+03 0.  0.
         13    1    3    3    0    0  0.24623386807E+03  0.32209907852E+02 -0.95194850425E+02  0.26595235569E+03  0.00000000000E+00 0.  1.
          3    1    3    3  501    0 -0.24402635172E+03 -0.33036147036E+02 -0.80061565398E+03  0.83763098841E+03  0.00000000000E+00 0.  1.
         21    1    1    2  502  501 -0.22075163475E+01  0.82623918439E+00  0.42797716334E+01  0.48859231317E+01  0.00000000000E+00 0. -1.
<mgrwt>
<rscale>  1 0.64453063E+03</rscale>
<asrwt>0</asrwt>
<pdfrwt beam="1">  1        1 0.39443453E+00 0.64453063E+03</pdfrwt>
<pdfrwt beam="2">0</pdfrwt>
<totfact> 0.14178602E+00</totfact>
</mgrwt>
</event>
<event>
 6    1  0.3781527E-003  0.6496344E+03  0.7818608E-02  0.9807465E-01
          1   -1    0    0  502    0  0.00000000000E+00  0.00000000000E+00  0.10919912451E+03  0.10919912451E+03  0.00000000000E+00 0.  1.
         13   -1    0    0    0    0 -0.00000000000E+00 -0.00000000000E+00 -0.10000000000E+04  0.10000000000E+04  0.00000000000E+00 0.  1.
    9000005    2    1    2  501    0 -0.28169147181E+00  0.10740930258E+01 -0.89440128626E+03  0.11054313687E+04  0.64963344825E+03 0.  0.
         13    1    3    3    0    0  0.10766599373E+02 -0.97623466384E+02 -0.97351569989E+03  0.97845749973E+03  0.00000000000E+00 0.  1.
          1    1    3    3  501    0 -0.11048290845E+02  0.98697559410E+02  0.79114413632E+02  0.12697386900E+03  0.00000000000E+00 0.  1.
         21    1    1    2  502  501  0.28169147181E+00 -0.10740930258E+01  0.36004107660E+01  0.37677557773E+01  0.00000000000E+00 0.  1.
<mgrwt>
<rscale>  1 0.64963440E+03</rscale>
<asrwt>0</asrwt>
<pdfrwt beam="1">  1        1 0.39708856E+00 0.64963440E+03</pdfrwt>
<pdfrwt beam="2">0</pdfrwt>
<totfact> 0.13785158E+00</totfact>
</mgrwt>
</event>
<event>
 6    1  0.3781527E-003  0.6496599E+03  0.7818608E-02  0.9807418E-01
          1   -1    0    0  502    0  0.00000000000E+00  0.00000000000E+00  0.10564882495E+03  0.10564882495E+03  0.00000000000E+00 0.  1.
         13   -1    0    0    0    0 -0.00000000000E+00 -0.00000000000E+00 -0.10000000000E+04  0.10000000000E+04  0.00000000000E+00 0.  1.
    9000005    2    1    2  501    0 -0.15940614269E-02  0.14591319157E+00 -0.89444024602E+03  0.11054778664E+04  0.64965986333E+03 0.  0.
         13    1    3    3    0    0 -0.57418760966E+02  0.19408830392E+03 -0.14867457370E+02  0.20294882389E+03  0.00000000000E+00 0.  1.
          3    1    3    3  501    0  0.57417166905E+02 -0.19394239072E+03 -0.87957278865E+03  0.90252904248E+03  0.00000000000E+00 0.  1.
         21    1    1    2  502  501  0.15940614269E-02 -0.14591319157E+00  0.89070970139E-01  0.17095858629E+00  0.00000000000E+00 0.  1.
<mgrwt>
<rscale>  1 0.64965988E+03</rscale>
<asrwt>0</asrwt>
<pdfrwt beam="1">  1        1 0.38417836E+00 0.64965988E+03</pdfrwt>
<pdfrwt beam="2">0</pdfrwt>
<totfact> 0.15727984E+00</totfact>
</mgrwt>
</event>
<event>
 6    1  0.3781527E-003  0.4857911E+03  0.7818608E-02  0.1017556E+00
          1   -1    0    0  502    0  0.00000000000E+00  0.00000000000E+00  0.58999833352E+02  0.58999833352E+02  0.00000000000E+00 0.  1.
         13   -1    0    0    0    0 -0.00000000000E+00 -0.00000000000E+00 -0.10000000000E+04  0.10000000000E+04  0.00000000000E+00 0.  1.
    9000005    2    1    2  501    0 -0.23546889892E-03  0.18621833732E-02 -0.94100114813E+03  0.10589977152E+04  0.48579110742E+03 0.  0.
         13    1    3    3    0    0  0.14666744523E+03  0.81783058389E+02 -0.85307082751E+03  0.86944214579E+03  0.00000000000E+00 0.  1.
          3    1    3    3  501    0 -0.14666768070E+03 -0.81781196206E+02 -0.87930320619E+02  0.18955556943E+03  0.00000000000E+00 0.  1.
         21    1    1    2  502  501  0.23546889893E-03 -0.18621833732E-02  0.98148406281E-03  0.21181320741E-02  0.00000000000E+00 0. -1.
<mgrwt>
<rscale>  1 0.48579111E+03</rscale>
<asrwt>0</asrwt>
<pdfrwt beam="1">  1        1 0.21454530E+00 0.48579111E+03</pdfrwt>
<pdfrwt beam="2">0</pdfrwt>
<totfact> 0.88634510E+00</totfact>
</mgrwt>
</event>
<event>
 6    1  0.3781527E-003  0.6503494E+03  0.7818608E-02  0.9806124E-01
          3   -1    0    0  502    0  0.00000000000E+00  0.00000000000E+00  0.10574794405E+03  0.10574794405E+03  0.00000000000E+00 0.  1.
         13   -1    0    0    0    0 -0.00000000000E+00 -0.00000000000E+00 -0.10000000000E+04  0.10000000000E+04  0.00000000000E+00 0.  1.
    9000005    2    1    2  501    0 -0.20188003300E-02 -0.20313500792E-02 -0.89426116423E+03  0.11057383961E+04  0.65034942211E+03 0.  0.
         13    1    3    3    0    0  0.14913311179E+03 -0.13938785612E+03 -0.16773102117E+02  0.20481942394E+03  0.00000000000E+00 0.  1.
          1    1    3    3  501    0 -0.14913513059E+03  0.13938582477E+03 -0.87748806211E+03  0.90091897220E+03  0.00000000000E+00 0.  1.
         21    1    1    2  502  501  0.20188003300E-02  0.20313500792E-02  0.91082804619E-02  0.95479165733E-02  0.00000000000E+00 0.  1.
<mgrwt>
<rscale>  1 0.65034942E+03</rscale>
<asrwt>0</asrwt>
<pdfrwt beam="1">  1        3 0.38453879E+00 0.65034942E+03</pdfrwt>
<pdfrwt beam="2">0</pdfrwt>
<totfact> 0.71424487E-02</totfact>
</mgrwt>
</event>
<event>
 6    1  0.3781527E-003  0.6247778E+03  0.7818608E-02  0.9855293E-01
          1   -1    0    0  502    0  0.00000000000E+00  0.00000000000E+00  0.97588713134E+02  0.97588713134E+02  0.00000000000E+00 0.  1.
         13   -1    0    0    0    0 -0.00000000000E+00 -0.00000000000E+00 -0.10000000000E+04  0.10000000000E+04  0.00000000000E+00 0.  1.
    9000005    2    1    2  501    0  0.41495633891E-03  0.43385406607E-03 -0.90241311281E+03  0.10975867910E+04  0.62477783065E+03 0.  0.
         13    1    3    3    0    0 -0.87891446717E+02 -0.22218010111E+02  0.73969546820E+02  0.11700444537E+03  0.00000000000E+00 0.  1.
          1    1    3    3  501    0  0.87891861673E+02  0.22218443965E+02 -0.97638265963E+03  0.98058234566E+03  0.00000000000E+00 0.  1.
         21    1    1    2  502  501 -0.41495633891E-03 -0.43385406607E-03  0.18259417637E-02  0.19221033891E-02  0.00000000000E+00 0.  1.
<mgrwt>
<rscale>  1 0.62477783E+03</rscale>
<asrwt>0</asrwt>
<pdfrwt beam="1">  1        1 0.35486880E+00 0.62477783E+03</pdfrwt>
<pdfrwt beam="2">0</pdfrwt>
<totfact> 0.21249916E+00</totfact>
</mgrwt>
</event>
<event>
 6    1  0.3781527E-003  0.6453524E+03  0.7818608E-02  0.9815539E-01
          1   -1    0    0  502    0  0.00000000000E+00  0.00000000000E+00  0.10421985138E+03  0.10421985138E+03  0.00000000000E+00 0.  1.
         13   -1    0    0    0    0 -0.00000000000E+00 -0.00000000000E+00 -0.10000000000E+04  0.10000000000E+04  0.00000000000E+00 0.  1.
    9000005    2    1    2  501    0  0.71660005072E-02  0.69051787336E-01 -0.89586658596E+03  0.11041089870E+04  0.64535239248E+03 0.  0.
         13    1    3    3    0    0  0.14993222401E+03 -0.27363699418E+03 -0.58840695036E+03  0.66601772921E+03  0.00000000000E+00 0.  1.
          1    1    3    3  501    0 -0.14992505801E+03  0.27370604597E+03 -0.30745963560E+03  0.43809125778E+03  0.00000000000E+00 0.  1.
         21    1    1    2  502  501 -0.71660005072E-02 -0.69051787336E-01  0.86437336051E-01  0.11086439447E+00  0.00000000000E+00 0.  1.
<mgrwt>
<rscale>  1 0.64535240E+03</rscale>
<asrwt>0</asrwt>
<pdfrwt beam="1">  1        1 0.37898208E+00 0.64535240E+03</pdfrwt>
<pdfrwt beam="2">0</pdfrwt>
<totfact> 0.16594433E+00</totfact>
</mgrwt>
</event>
<event>
 6    1  0.3781527E-003  0.6128823E+03  0.7818608E-02  0.9879034E-01
          1   -1    0    0  502    0  0.00000000000E+00  0.00000000000E+00  0.93907728454E+02  0.93907728454E+02  0.00000000000E+00 0.  1.
         13   -1    0    0    0    0 -0.00000000000E+00 -0.00000000000E+00 -0.10000000000E+04  0.10000000000E+04  0.00000000000E+00 0.  1.
    9000005    2    1    2  501    0  0.24306333913E-03  0.15189627916E-04 -0.90609381166E+03  0.10939061692E+04  0.61288229824E+03 0.  0.
         13    1    3    3    0    0 -0.12335413590E+03  0.87090518736E+02 -0.92898827181E+03  0.94118022209E+03  0.00000000000E+00 0.  1.
          3    1    3    3  501    0  0.12335437896E+03 -0.87090503546E+02  0.22894460147E+02  0.15272594711E+03  0.00000000000E+00 0.  1.
         21    1    1    2  502  501 -0.24306333913E-03 -0.15189627918E-04  0.15401149863E-02  0.15592513212E-02  0.00000000000E+00 0.  1.
<mgrwt>
<rscale>  1 0.61288230E+03</rscale>
<asrwt>0</asrwt>
<pdfrwt beam="1">  1        1 0.34148337E+00 0.61288230E+03</pdfrwt>
<pdfrwt beam="2">0</pdfrwt>
<totfact> 0.24353998E+00</totfact>
</mgrwt>
</event>
<event>
 6    1  0.3781527E-003  0.6513768E+03  0.7818608E-02  0.9804199E-01
          1   -1    0    0  502    0  0.00000000000E+00  0.00000000000E+00  0.10608834955E+03  0.10608834955E+03  0.00000000000E+00 0.  1.
         13   -1    0    0    0    0 -0.00000000000E+00 -0.00000000000E+00 -0.10000000000E+04  0.10000000000E+04  0.00000000000E+00 0.  1.
    9000005    2    1    2  501    0  0.14666878521E-02 -0.62789510034E-03 -0.89392703222E+03  0.11060728853E+04  0.65137676393E+03 0.  0.
         13    1    3    3    0    0  0.12485696628E+02  0.18392058494E+03  0.89575355210E+01  0.18456140341E+03  0.00000000000E+00 0.  1.
          3    1    3    3  501    0 -0.12484229940E+02 -0.18392121284E+03 -0.90288456774E+03  0.92151148185E+03  0.00000000000E+00 0.  1.
         21    1    1    2  502  501 -0.14666878521E-02  0.62789510034E-03  0.15381769393E-01  0.15464289676E-01  0.00000000000E+00 0.  1.
<mgrwt>
<rscale>  1 0.65137676E+03</rscale>
<asrwt>0</asrwt>
<pdfrwt beam="1">  1        1 0.38577663E+00 0.65137676E+03</pdfrwt>
<pdfrwt beam="2">0</pdfrwt>
<totfact> 0.15469131E+00</totfact>
</mgrwt>
</event>
<event>
 6    1  0.3781527E-003  0.6549825E+03  0.7818608E-02  0.9797475E-01
          1   -1    0    0  502    0  0.00000000000E+00  0.00000000000E+00  0.10725224469E+03  0.10725224469E+03  0.00000000000E+00 0.  1.
         13   -1    0    0    0    0 -0.00000000000E+00 -0.00000000000E+00 -0.10000000000E+04  0.10000000000E+04  0.00000000000E+00 0.  1.
    9000005    2    1    2  501    0  0.31127757185E-02 -0.26765286509E-03 -0.89274778061E+03  0.11072491203E+04  0.65498245372E+03 0.  0.
         13    1    3    3    0    0  0.36082660934E+02  0.27178315310E+03 -0.74916973753E+03  0.79776145330E+03  0.00000000000E+00 0.  1.
          1    1    3    3  501    0 -0.36079548158E+02 -0.27178342075E+03 -0.14357804308E+03  0.30948766703E+03  0.00000000000E+00 0.  1.
         21    1    1    2  502  501 -0.31127757185E-02  0.26765286513E-03  0.25306822907E-04  0.31243641217E-02  0.00000000000E+00 0.  1.
<mgrwt>
<rscale>  1 0.65498245E+03</rscale>
<asrwt>0</asrwt>
<pdfrwt beam="1">  1        1 0.39000898E+00 0.65498245E+03</pdfrwt>
<pdfrwt beam="2">0</pdfrwt>
<totfact> 0.14805642E+00</totfact>
</mgrwt>
</event>
<event>
 6    1  0.3781527E-003  0.5754848E+03  0.7818608E-02  0.9957615E-01
          1   -1    0    0  502    0  0.00000000000E+00  0.00000000000E+00  0.82837058124E+02  0.82837058124E+02  0.00000000000E+00 0.  1.
         13   -1    0    0    0    0 -0.00000000000E+00 -0.00000000000E+00 -0.10000000000E+04  0.10000000000E+04  0.00000000000E+00 0.  1.
    9000005    2    1    2  501    0 -0.96430579538E-02  0.76596572951E-02 -0.91720333045E+03  0.10827948338E+04  0.57548475438E+03 0.  0.
         13    1    3    3    0    0 -0.10602737694E+03  0.62485646958E+02  0.30777531130E+02  0.12686022686E+03  0.00000000000E+00 0.  1.
          3    1    3    3  501    0  0.10601773388E+03 -0.62477987300E+02 -0.94798086158E+03  0.95593460692E+03  0.00000000000E+00 0.  1.
         21    1    1    2  502  501  0.96430579538E-02 -0.76596572951E-02  0.40388569118E-01  0.42224346437E-01  0.00000000000E+00 0. -1.
<mgrwt>
<rscale>  1 0.57548475E+03</rscale>
<asrwt>0</asrwt>
<pdfrwt beam="1">  1        1 0.30122630E+00 0.57548475E+03</pdfrwt>
<pdfrwt beam="2">0</pdfrwt>
<totfact> 0.36610281E+00</totfact>
</mgrwt>
</event>
<event>
 6    1  0.3781527E-003  0.5787194E+03  0.7818608E-02  0.9950567E-01
          1   -1    0    0  502    0  0.00000000000E+00  0.00000000000E+00  0.83744867161E+02  0.83744867161E+02  0.00000000000E+00 0.  1.
         13   -1    0    0    0    0 -0.00000000000E+00 -0.00000000000E+00 -0.10000000000E+04  0.10000000000E+04  0.00000000000E+00 0.  1.
    9000005    2    1    2  501    0 -0.29672090204E-03  0.46597815538E-03 -0.91627096822E+03  0.10837290221E+04  0.57871936744E+03 0.  0.
         13    1    3    3    0    0  0.18084327782E+02 -0.28788060743E+03 -0.50110784930E+03  0.57819664793E+03  0.00000000000E+00 0.  1.
          1    1    3    3  501    0 -0.18084624503E+02  0.28788107341E+03 -0.41516311892E+03  0.50553237422E+03  0.00000000000E+00 0.  1.
         21    1    1    2  502  501  0.29672090204E-03 -0.46597815537E-03  0.15835379352E-01  0.15845012406E-01  0.00000000000E+00 0. -1.
<mgrwt>
<rscale>  1 0.57871937E+03</rscale>
<asrwt>0</asrwt>
<pdfrwt beam="1">  1        1 0.30452743E+00 0.57871937E+03</pdfrwt>
<pdfrwt beam="2">0</pdfrwt>
<totfact> 0.35408923E+00</totfact>
</mgrwt>
</event>
<event>
 6    1  0.3781527E-003  0.6324011E+03  0.7818608E-02  0.9840374E-01
          1   -1    0    0  502    0  0.00000000000E+00  0.00000000000E+00  0.10025339975E+03  0.10025339975E+03  0.00000000000E+00 0.  1.
         13   -1    0    0    0    0 -0.00000000000E+00 -0.00000000000E+00 -0.10000000000E+04  0.10000000000E+04  0.00000000000E+00 0.  1.
    9000005    2    1    2  501    0 -0.52340055959E-01 -0.31246461900E-01 -0.90001344083E+03  0.10999796851E+04  0.63240106752E+03 0.  0.
         13    1    3    3    0    0  0.23708221099E+03  0.20892491842E+03 -0.46789262597E+03  0.56460703656E+03  0.00000000000E+00 0.  1.
          1    1    3    3  501    0 -0.23713455104E+03 -0.20895616488E+03 -0.43212081487E+03  0.53537264852E+03  0.00000000000E+00 0.  1.
         21    1    1    2  502  501  0.52340055959E-01  0.31246461900E-01  0.26684058527E+00  0.27371467039E+00  0.00000000000E+00 0.  1.
<mgrwt>
<rscale>  1 0.63240107E+03</rscale>
<asrwt>0</asrwt>
<pdfrwt beam="1">  1        1 0.36455859E+00 0.63240107E+03</pdfrwt>
<pdfrwt beam="2">0</pdfrwt>
<totfact> 0.19248023E+00</totfact>
</mgrwt>
</event>
<event>
 6    1  0.3781527E-003  0.6474608E+03  0.7818608E-02  0.9811555E-01
          1   -1    0    0  502    0  0.00000000000E+00  0.00000000000E+00  0.10480325148E+03  0.10480325148E+03  0.00000000000E+00 0.  1.
         13   -1    0    0    0    0 -0.00000000000E+00 -0.00000000000E+00 -0.10000000000E+04  0.10000000000E+04  0.00000000000E+00 0.  1.
    9000005    2    1    2  501    0  0.39836431954E-03  0.58337733668E-03 -0.89519854799E+03  0.11048013183E+04  0.64746081937E+03 0.  0.
         13    1    3    3    0    0  0.10579977973E+03  0.27812450896E+03 -0.23004885567E+03  0.37612406447E+03  0.00000000000E+00 0.  1.
          3    1    3    3  501    0 -0.10579938137E+03 -0.27812392558E+03 -0.66514969232E+03  0.72867725385E+03  0.00000000000E+00 0.  1.
         21    1    1    2  502  501 -0.39836431953E-03 -0.58337733667E-03  0.17994768862E-02  0.19331684645E-02  0.00000000000E+00 0. -1.
<mgrwt>
<rscale>  1 0.64746082E+03</rscale>
<asrwt>0</asrwt>
<pdfrwt beam="1">  1        1 0.38110354E+00 0.64746082E+03</pdfrwt>
<pdfrwt beam="2">0</pdfrwt>
<totfact> 0.16234299E+00</totfact>
</mgrwt>
</event>
<event>
 6    1  0.3781527E-003  0.6499547E+03  0.7818608E-02  0.9806864E-01
          1   -1    0    0  502    0  0.00000000000E+00  0.00000000000E+00  0.10561074293E+03  0.10561074293E+03  0.00000000000E+00 0.  1.
         13   -1    0    0    0    0 -0.00000000000E+00 -0.00000000000E+00 -0.10000000000E+04  0.10000000000E+04  0.00000000000E+00 0.  1.
    9000005    2    1    2  501    0 -0.12830083814E-02 -0.64117473357E-05 -0.89438826054E+03  0.11056091184E+04  0.64995473843E+03 0.  0.
         13    1    3    3    0    0  0.65922610079E+01  0.26572660794E+03 -0.12915497839E+03  0.29552511994E+03  0.00000000000E+00 0.  1.
          1    1    3    3  501    0 -0.65935440163E+01 -0.26572661435E+03 -0.76523328215E+03  0.81008399843E+03  0.00000000000E+00 0.  1.
         21    1    1    2  502  501  0.12830083814E-02  0.64117473079E-05 -0.99652604467E-03  0.16245663344E-02  0.00000000000E+00 0. -1.
<mgrwt>
<rscale>  1 0.64995474E+03</rscale>
<asrwt>0</asrwt>
<pdfrwt beam="1">  1        1 0.38403988E+00 0.64995474E+03</pdfrwt>
<pdfrwt beam="2">0</pdfrwt>
<totfact> 0.15749316E+00</totfact>
</mgrwt>
</event>
<event>
 6    1  0.3781527E-003  0.6400757E+03  0.7818608E-02  0.9825582E-01
          1   -1    0    0  502    0  0.00000000000E+00  0.00000000000E+00  0.10242564677E+03  0.10242564677E+03  0.00000000000E+00 0.  1.
         13   -1    0    0    0    0 -0.00000000000E+00 -0.00000000000E+00 -0.10000000000E+04  0.10000000000E+04  0.00000000000E+00 0.  1.
    9000005    2    1    2  501    0  0.18323410034E-03  0.27581871450E-04 -0.89757578248E+03  0.11024242056E+04  0.64007565468E+03 0.  0.
         13    1    3    3    0    0  0.34903655066E+02 -0.31638865969E+03 -0.50601914968E+03  0.59780885654E+03  0.00000000000E+00 0.  1.
          1    1    3    3  501    0 -0.34903471831E+02  0.31638868727E+03 -0.39155663280E+03  0.50461534902E+03  0.00000000000E+00 0.  1.
         21    1    1    2  502  501 -0.18323410034E-03 -0.27581871417E-04  0.14292437382E-02  0.14412054532E-02  0.00000000000E+00 0.  1.
<mgrwt>
<rscale>  1 0.64007565E+03</rscale>
<asrwt>0</asrwt>
<pdfrwt beam="1">  1        1 0.37245768E+00 0.64007565E+03</pdfrwt>
<pdfrwt beam="2">0</pdfrwt>
<totfact> 0.17746422E+00</totfact>
</mgrwt>
</event>
<event>
 6    1  0.3781527E-003  0.6502525E+03  0.7818608E-02  0.9806306E-01
          1   -1    0    0  502    0  0.00000000000E+00  0.00000000000E+00  0.10571284679E+03  0.10571284679E+03  0.00000000000E+00 0.  1.
         13   -1    0    0    0    0 -0.00000000000E+00 -0.00000000000E+00 -0.10000000000E+04  0.10000000000E+04  0.00000000000E+00 0.  1.
    9000005    2    1    2  501    0  0.27976338700E-02  0.48478335864E-02 -0.89429138297E+03  0.11057058312E+04  0.65025249510E+03 0.  0.
         13    1    3    3    0    0  0.17846870431E+03 -0.25861971825E+03 -0.58911775333E+03  0.66767878832E+03  0.00000000000E+00 0.  1.
          1    1    3    3  501    0 -0.17846590668E+03  0.25862456609E+03 -0.30517362964E+03  0.43802704284E+03  0.00000000000E+00 0.  1.
         21    1    1    2  502  501 -0.27976338699E-02 -0.48478335864E-02  0.42297577826E-02  0.70156323059E-02  0.00000000000E+00 0. -1.
<mgrwt>
<rscale>  1 0.65025250E+03</rscale>
<asrwt>0</asrwt>
<pdfrwt beam="1">  1        1 0.38441116E+00 0.65025250E+03</pdfrwt>
<pdfrwt beam="2">0</pdfrwt>
<totfact> 0.15689033E+00</totfact>
</mgrwt>
</event>
<event>
 6    1  0.6896993E-003  0.6605949E+03  0.7818608E-02  0.9787099E-01
          1   -1    0    0  502    0  0.00000000000E+00  0.00000000000E+00  0.10909641212E+03  0.10909641212E+03  0.00000000000E+00 0.  1.
         13   -1    0    0    0    0 -0.00000000000E+00 -0.00000000000E+00 -0.10000000000E+04  0.10000000000E+04  0.00000000000E+00 0.  1.
    9000005    2    1    2  501    0  0.68034854763E-05  0.13919981427E-04 -0.89090358182E+03  0.11090963955E+04  0.66059490035E+03 0.  0.
         13    1    3    3    0    0 -0.68118002996E+02  0.26423782690E+03 -0.13299505495E+03  0.30356115716E+03  0.00000000000E+00 0.  1.
          1    1    3    3  501    0  0.68118009800E+02 -0.26423781298E+03 -0.75790852687E+03  0.80553523832E+03  0.00000000000E+00 0.  1.
         21    1    1    2  502  501 -0.68034854801E-05 -0.13919981452E-04 -0.60664199675E-05  0.16638952777E-04  0.00000000000E+00 0.  1.
<mgrwt>
<rscale>  1 0.66059490E+03</rscale>
<asrwt>0</asrwt>
<pdfrwt beam="1">  1        1 0.39671506E+00 0.66059490E+03</pdfrwt>
<pdfrwt beam="2">0</pdfrwt>
<totfact> 0.13809558E+00</totfact>
</mgrwt>
</event>
<event>
 6    1  0.3781527E-003  0.6788168E+03  0.7818608E-02  0.9754160E-01
          3   -1    0    0  502    0  0.00000000000E+00  0.00000000000E+00  0.11594800749E+03  0.11594800749E+03  0.00000000000E+00 0.  1.
         13   -1    0    0    0    0 -0.00000000000E+00 -0.00000000000E+00 -0.10000000000E+04  0.10000000000E+04  0.00000000000E+00 0.  1.
    9000005    2    1    2  501    0  0.14790797402E+00 -0.13762606652E+00 -0.88478673147E+03  0.11151859976E+04  0.67881677078E+03 0.  0.
         13    1    3    3    0    0 -0.24194455782E+03 -0.13717243131E+03 -0.12283969208E+03  0.30404446208E+03  0.00000000000E+00 0.  1.
          3    1    3    3  501    0  0.24209246580E+03  0.13703480525E+03 -0.76194703938E+03  0.81114153554E+03  0.00000000000E+00 0.  1.
         21    1    1    2  502  501 -0.14790797402E+00  0.13762606652E+00  0.73473896431E+00  0.76200987437E+00  0.00000000000E+00 0. -1.
<mgrwt>
<rscale>  1 0.67881680E+03</rscale>
<asrwt>0</asrwt>
<pdfrwt beam="1">  1        3 0.42163001E+00 0.67881680E+03</pdfrwt>
<pdfrwt beam="2">0</pdfrwt>
<totfact> 0.45471875E-02</totfact>
</mgrwt>
</event>
<event>
 6    1  0.3781527E-003  0.6929176E+03  0.7818608E-02  0.9729421E-01
          1   -1    0    0  502    0  0.00000000000E+00  0.00000000000E+00  0.12007116170E+03  0.12007116170E+03  0.00000000000E+00 0.  1.
         13   -1    0    0    0    0 -0.00000000000E+00 -0.00000000000E+00 -0.10000000000E+04  0.10000000000E+04  0.00000000000E+00 0.  1.
    9000005    2    1    2  501    0 -0.13202560614E-02 -0.32186888234E-03 -0.87996627118E+03  0.11200337042E+04  0.69291764303E+03 0.  0.
         13    1    3    3    0    0 -0.91464680239E+01  0.30990844341E+03 -0.19005807567E+03  0.36366051930E+03  0.00000000000E+00 0.  1.
          1    1    3    3  501    0  0.91451477679E+01 -0.30990876528E+03 -0.68990819552E+03  0.75637318485E+03  0.00000000000E+00 0.  1.
         21    1    1    2  502  501  0.13202560614E-02  0.32186888234E-03  0.37432880077E-01  0.37457538447E-01  0.00000000000E+00 0.  1.
<mgrwt>
<rscale>  1 0.69291764E+03</rscale>
<asrwt>0</asrwt>
<pdfrwt beam="1">  1        1 0.43662333E+00 0.69291764E+03</pdfrwt>
<pdfrwt beam="2">0</pdfrwt>
<totfact> 0.90715795E-01</totfact>
</mgrwt>
</event>
<event>
 6    1  0.3781527E-003  0.6491356E+03  0.7818608E-02  0.9808403E-01
          1   -1    0    0  502    0  0.00000000000E+00  0.00000000000E+00  0.10534453469E+03  0.10534453469E+03  0.00000000000E+00 0.  1.
         13   -1    0    0    0    0 -0.00000000000E+00 -0.00000000000E+00 -0.10000000000E+04  0.10000000000E+04  0.00000000000E+00 0.  1.
    9000005    2    1    2  501    0 -0.97908232704E-04  0.19817167913E-03 -0.89465569138E+03  0.11053442185E+04  0.64913560625E+03 0.  0.
         13    1    3    3    0    0  0.24897450894E+03 -0.19979691595E+03 -0.54715677501E+03  0.63347269094E+03  0.00000000000E+00 0.  1.
          1    1    3    3  501    0 -0.24897460685E+03  0.19979711412E+03 -0.34749891637E+03  0.47187152758E+03  0.00000000000E+00 0.  1.
         21    1    1    2  502  501  0.97908232696E-04 -0.19817167914E-03  0.22606780023E-03  0.31617192592E-03  0.00000000000E+00 0.  1.
<mgrwt>
<rscale>  1 0.64913561E+03</rscale>
<asrwt>0</asrwt>
<pdfrwt beam="1">  1        1 0.38307184E+00 0.64913561E+03</pdfrwt>
<pdfrwt beam="2">0</pdfrwt>
<totfact> 0.15907649E+00</totfact>
</mgrwt>
</event>
<event>
 6    1  0.3781527E-003  0.6533919E+03  0.7818608E-02  0.9800435E-01
          1   -1    0    0  502    0  0.00000000000E+00  0.00000000000E+00  0.10673615733E+03  0.10673615733E+03  0.00000000000E+00 0.  1.
         13   -1    0    0    0    0 -0.00000000000E+00 -0.00000000000E+00 -0.10000000000E+04  0.10000000000E+04  0.00000000000E+00 0.  1.
    9000005    2    1    2  501    0  0.14884540719E-02  0.10011726050E-02 -0.89326961958E+03  0.11067301083E+04  0.65339185746E+03 0.  0.
         13    1    3    3    0    0  0.29704357637E+03 -0.62820056098E+02 -0.65094578138E+03  0.71826990471E+03  0.00000000000E+00 0.  1.
          1    1    3    3  501    0 -0.29704208792E+03  0.62821057270E+02 -0.24232383820E+03  0.38846020361E+03  0.00000000000E+00 0.  1.
         21    1    1    2  502  501 -0.14884540719E-02 -0.10011726050E-02  0.57769081186E-02  0.60490089701E-02  0.00000000000E+00 0.  1.
<mgrwt>
<rscale>  1 0.65339186E+03</rscale>
<asrwt>0</asrwt>
<pdfrwt beam="1">  1        1 0.38813230E+00 0.65339186E+03</pdfrwt>
<pdfrwt beam="2">0</pdfrwt>
<totfact> 0.15096416E+00</totfact>
</mgrwt>
</event>
<event>
 6    1  0.3781527E-003  0.6451238E+03  0.7818608E-02  0.9815972E-01
          1   -1    0    0  502    0  0.00000000000E+00  0.00000000000E+00  0.10404965885E+03  0.10404965885E+03  0.00000000000E+00 0.  1.
         13   -1    0    0    0    0 -0.00000000000E+00 -0.00000000000E+00 -0.10000000000E+04  0.10000000000E+04  0.00000000000E+00 0.  1.
    9000005    2    1    2  501    0 -0.41142690630E-02  0.24786257864E-02 -0.89595190589E+03  0.11040446072E+04  0.64512376874E+03 0.  0.
         13    1    3    3    0    0  0.23369626702E+02 -0.60179957655E+02 -0.98882792030E+03  0.99093310709E+03  0.00000000000E+00 0.  1.
          3    1    3    3  501    0 -0.23373740971E+02  0.60182436281E+02  0.92876014414E+02  0.11311150011E+03  0.00000000000E+00 0.  1.
         21    1    1    2  502  501  0.41142690630E-02 -0.24786257864E-02  0.15647355669E-02  0.50516525124E-02  0.00000000000E+00 0. -1.
<mgrwt>
<rscale>  1 0.64512377E+03</rscale>
<asrwt>0</asrwt>
<pdfrwt beam="1">  1        1 0.37836319E+00 0.64512377E+03</pdfrwt>
<pdfrwt beam="2">0</pdfrwt>
<totfact> 0.16699734E+00</totfact>
</mgrwt>
</event>
<event>
 6    1  0.3781527E-003  0.6524446E+03  0.7818608E-02  0.9802203E-01
          3   -1    0    0  502    0  0.00000000000E+00  0.00000000000E+00  0.10755240814E+03  0.10755240814E+03  0.00000000000E+00 0.  1.
         13   -1    0    0    0    0 -0.00000000000E+00 -0.00000000000E+00 -0.10000000000E+04  0.10000000000E+04  0.00000000000E+00 0.  1.
    9000005    2    1    2  501    0 -0.25931025547E-03  0.78893648153E-01 -0.89357747621E+03  0.11064197728E+04  0.65244463469E+03 0.  0.
         13    1    3    3    0    0 -0.24587240706E+03 -0.19603388918E+03 -0.59384324827E+03  0.67196155380E+03  0.00000000000E+00 0.  1.
          1    1    3    3  501    0  0.24587214775E+03  0.19611278283E+03 -0.29973422793E+03  0.43445821896E+03  0.00000000000E+00 0.  1.
         21    1    1    2  502  501  0.25931025549E-03 -0.78893648154E-01  0.11298843501E+01  0.11326353869E+01  0.00000000000E+00 0.  1.
<mgrwt>
<rscale>  1 0.65244464E+03</rscale>
<asrwt>0</asrwt>
<pdfrwt beam="1">  1        3 0.39110049E+00 0.65244464E+03</pdfrwt>
<pdfrwt beam="2">0</pdfrwt>
<totfact> 0.65938784E-02</totfact>
</mgrwt>
</event>
<event>
 6    1  0.3781527E-003  0.6582587E+03  0.7818608E-02  0.9791405E-01
          1   -1    0    0  502    0  0.00000000000E+00  0.00000000000E+00  0.11115277518E+03  0.11115277518E+03  0.00000000000E+00 0.  1.
         13   -1    0    0    0    0 -0.00000000000E+00 -0.00000000000E+00 -0.10000000000E+04  0.10000000000E+04  0.00000000000E+00 0.  1.
    9000005    2    1    2  501    0 -0.86028344421E-01  0.34149002753E-01 -0.89167304451E+03  0.11083254400E+04  0.65825865295E+03 0.  0.
         13    1    3    3    0    0 -0.70252294530E+02  0.17899554341E+03  0.39273635414E+01  0.19232840048E+03  0.00000000000E+00 0.  1.
          3    1    3    3  501    0  0.70166266186E+02 -0.17896139440E+03 -0.89560040805E+03  0.91599703957E+03  0.00000000000E+00 0.  1.
         21    1    1    2  502  501  0.86028344421E-01 -0.34149002753E-01  0.28258196911E+01  0.28273351335E+01  0.00000000000E+00 0. -1.
<mgrwt>
<rscale>  1 0.65825866E+03</rscale>
<asrwt>0</asrwt>
<pdfrwt beam="1">  1        1 0.40419276E+00 0.65825866E+03</pdfrwt>
<pdfrwt beam="2">0</pdfrwt>
<totfact> 0.12794423E+00</totfact>
</mgrwt>
</event>
<event>
 6    1  0.3781527E-003  0.6102381E+03  0.7818608E-02  0.9884390E-01
          1   -1    0    0  502    0  0.00000000000E+00  0.00000000000E+00  0.93097843739E+02  0.93097843739E+02  0.00000000000E+00 0.  1.
         13   -1    0    0    0    0 -0.00000000000E+00 -0.00000000000E+00 -0.10000000000E+04  0.10000000000E+04  0.00000000000E+00 0.  1.
    9000005    2    1    2  501    0  0.25643394860E-04 -0.17320815260E-04 -0.90690234909E+03  0.10930976484E+04  0.61023814880E+03 0.  0.
         13    1    3    3    0    0 -0.29955175816E+02  0.14943717834E+03 -0.92693095518E+03  0.93937733553E+03  0.00000000000E+00 0.  1.
          1    1    3    3  501    0  0.29955201459E+02 -0.14943719566E+03  0.20028606094E+02  0.15372031291E+03  0.00000000000E+00 0.  1.
         21    1    1    2  502  501 -0.25643394859E-04  0.17320815263E-04  0.19282962329E-03  0.19529684575E-03  0.00000000000E+00 0. -1.
<mgrwt>
<rscale>  1 0.61023815E+03</rscale>
<asrwt>0</asrwt>
<pdfrwt beam="1">  1        1 0.33853833E+00 0.61023815E+03</pdfrwt>
<pdfrwt beam="2">0</pdfrwt>
<totfact> 0.25093730E+00</totfact>
</mgrwt>
</event>
<event>
 6    1  0.3781527E-003  0.6546968E+03  0.7818608E-02  0.9798006E-01
          1   -1    0    0  502    0  0.00000000000E+00  0.00000000000E+00  0.10882020846E+03  0.10882020846E+03  0.00000000000E+00 0.  1.
         13   -1    0    0    0    0 -0.00000000000E+00 -0.00000000000E+00 -0.10000000000E+04  0.10000000000E+04  0.00000000000E+00 0.  1.
    9000005    2    1    2  501    0 -0.18201024909E+01 -0.14806821643E+01 -0.89187186448E+03  0.11063739547E+04  0.65469259939E+03 0.  0.
         13    1    3    3    0    0  0.14743747479E+03  0.99592334675E+01  0.47445405508E+02  0.15520329187E+03  0.00000000000E+00 0.  1.
          3    1    3    3  501    0 -0.14925757728E+03 -0.11439915632E+02 -0.93931726998E+03  0.95117066278E+03  0.00000000000E+00 0.  1.
         21    1    1    2  502  501  0.18201024909E+01  0.14806821643E+01  0.69207293996E+00  0.24462538101E+01  0.00000000000E+00 0. -1.
<mgrwt>
<rscale>  1 0.65469680E+03</rscale>
<asrwt>0</asrwt>
<pdfrwt beam="1">  1        1 0.39571068E+00 0.65469680E+03</pdfrwt>
<pdfrwt beam="2">0</pdfrwt>
<totfact> 0.13967789E+00</totfact>
</mgrwt>
</event>
<event>
 6    1  0.3781527E-003  0.6381268E+03  0.7818608E-02  0.9829317E-01
          1   -1    0    0  502    0  0.00000000000E+00  0.00000000000E+00  0.10278752247E+03  0.10278752247E+03  0.00000000000E+00 0.  1.
         13   -1    0    0    0    0 -0.00000000000E+00 -0.00000000000E+00 -0.10000000000E+04  0.10000000000E+04  0.00000000000E+00 0.  1.
    9000005    2    1    2  501    0  0.20282394544E+00 -0.85489736200E+00 -0.89797836263E+03  0.11016219466E+04  0.63812616429E+03 0.  0.
         13    1    3    3    0    0 -0.24247582256E+03 -0.18813909489E+03 -0.60093534435E+03  0.67476968785E+03  0.00000000000E+00 0.  1.
          1    1    3    3  501    0  0.24267864651E+03  0.18728419753E+03 -0.29704301828E+03  0.42685225878E+03  0.00000000000E+00 0.  1.
         21    1    1    2  502  501 -0.20282394544E+00  0.85489736200E+00  0.76588509892E+00  0.11655758393E+01  0.00000000000E+00 0. -1.
<mgrwt>
<rscale>  1 0.63812677E+03</rscale>
<asrwt>0</asrwt>
<pdfrwt beam="1">  1        1 0.37377360E+00 0.63812677E+03</pdfrwt>
<pdfrwt beam="2">0</pdfrwt>
<totfact> 0.17517762E+00</totfact>
</mgrwt>
</event>
<event>
 6    1  0.3781527E-003  0.6539173E+03  0.7818608E-02  0.9799456E-01
          1   -1    0    0  502    0  0.00000000000E+00  0.00000000000E+00  0.10690205807E+03  0.10690205807E+03  0.00000000000E+00 0.  1.
         13   -1    0    0    0    0 -0.00000000000E+00 -0.00000000000E+00 -0.10000000000E+04  0.10000000000E+04  0.00000000000E+00 0.  1.
    9000005    2    1    2  501    0  0.23904424069E-04  0.16558960283E-05 -0.89309805585E+03  0.11069019417E+04  0.65391725094E+03 0.  0.
         13    1    3    3    0    0  0.24892792425E+03  0.20144780098E+03 -0.33483406433E+03  0.46331434105E+03  0.00000000000E+00 0.  1.
          3    1    3    3  501    0 -0.24892790034E+03 -0.20144779932E+03 -0.55826399152E+03  0.64358760060E+03  0.00000000000E+00 0.  1.
         21    1    1    2  502  501 -0.23904424076E-04 -0.16558960179E-05  0.11392142589E-03  0.11641415189E-03  0.00000000000E+00 0.  1.
<mgrwt>
<rscale>  1 0.65391725E+03</rscale>
<asrwt>0</asrwt>
<pdfrwt beam="1">  1        1 0.38873558E+00 0.65391725E+03</pdfrwt>
<pdfrwt beam="2">0</pdfrwt>
<totfact> 0.15002319E+00</totfact>
</mgrwt>
</event>
<event>
 6    1  0.3781527E-003  0.5706842E+03  0.7818608E-02  0.9968166E-01
          3   -1    0    0  502    0  0.00000000000E+00  0.00000000000E+00  0.81426064621E+02  0.81426064621E+02  0.00000000000E+00 0.  1.
         13   -1    0    0    0    0 -0.00000000000E+00 -0.00000000000E+00 -0.10000000000E+04  0.10000000000E+04  0.00000000000E+00 0.  1.
    9000005    2    1    2  501    0 -0.86538500967E-02  0.84706990440E-03 -0.91857627140E+03  0.10814170611E+04  0.57068423279E+03 0.  0.
         13    1    3    3    0    0 -0.23204880412E+03  0.10491280704E+03 -0.21537604229E+03  0.33352688673E+03  0.00000000000E+00 0.  1.
          3    1    3    3  501    0  0.23204015027E+03 -0.10491195997E+03 -0.70320022911E+03  0.74789017436E+03  0.00000000000E+00 0.  1.
         21    1    1    2  502  501  0.86538500967E-02 -0.84706990439E-03  0.23360208509E-02  0.90035349911E-02  0.00000000000E+00 0. -1.
<mgrwt>
<rscale>  1 0.57068423E+03</rscale>
<asrwt>0</asrwt>
<pdfrwt beam="1">  1        3 0.29609540E+00 0.57068423E+03</pdfrwt>
<pdfrwt beam="2">0</pdfrwt>
<totfact> 0.21460524E-01</totfact>
</mgrwt>
</event>
<event>
 6    1  0.3781527E-003  0.6473139E+03  0.7818608E-02  0.9811833E-01
          1   -1    0    0  502    0  0.00000000000E+00  0.00000000000E+00  0.10475451394E+03  0.10475451394E+03  0.00000000000E+00 0.  1.
         13   -1    0    0    0    0 -0.00000000000E+00 -0.00000000000E+00 -0.10000000000E+04  0.10000000000E+04  0.00000000000E+00 0.  1.
    9000005    2    1    2  501    0 -0.16674808162E-03 -0.79756070761E-04 -0.89524616754E+03  0.11047538078E+04  0.64731389252E+03 0.  0.
         13    1    3    3    0    0 -0.16298080846E+02 -0.31069940449E+03 -0.59983415490E+03  0.67572239920E+03  0.00000000000E+00 0.  1.
          1    1    3    3  501    0  0.16297914098E+02  0.31069932474E+03 -0.29541201264E+03  0.42903140865E+03  0.00000000000E+00 0.  1.
         21    1    1    2  502  501  0.16674808162E-03  0.79756070811E-04  0.68147870248E-03  0.70610139179E-03  0.00000000000E+00 0.  1.
<mgrwt>
<rscale>  1 0.64731389E+03</rscale>
<asrwt>0</asrwt>
<pdfrwt beam="1">  1        1 0.38092631E+00 0.64731389E+03</pdfrwt>
<pdfrwt beam="2">0</pdfrwt>
<totfact> 0.16264010E+00</totfact>
</mgrwt>
</event>
<event>
 6    1  0.3781527E-003  0.5726436E+03  0.7818608E-02  0.9963846E-01
          3   -1    0    0  502    0  0.00000000000E+00  0.00000000000E+00  0.82009570662E+02  0.82009570662E+02  0.00000000000E+00 0.  1.
         13   -1    0    0    0    0 -0.00000000000E+00 -0.00000000000E+00 -0.10000000000E+04  0.10000000000E+04  0.00000000000E+00 0.  1.
    9000005    2    1    2  501    0  0.48626462326E-01  0.13623426082E-01 -0.91799473836E+03  0.10819588883E+04  0.57264360106E+03 0.  0.
         13    1    3    3    0    0 -0.24486871175E+02  0.71879700247E+02  0.62609448544E+02  0.98418703581E+02  0.00000000000E+00 0.  1.
          3    1    3    3  501    0  0.24535497638E+02 -0.71866076821E+02 -0.98060418691E+03  0.98354018475E+03  0.00000000000E+00 0.  1.
         21    1    1    2  502  501 -0.48626462326E-01 -0.13623426082E-01  0.43090269578E-02  0.50682327194E-01  0.00000000000E+00 0.  1.
<mgrwt>
<rscale>  1 0.57264360E+03</rscale>
<asrwt>0</asrwt>
<pdfrwt beam="1">  1        3 0.29821725E+00 0.57264360E+03</pdfrwt>
<pdfrwt beam="2">0</pdfrwt>
<totfact> 0.20893955E-01</totfact>
</mgrwt>
</event>
<event>
 6    1  0.3781527E-003  0.6521910E+03  0.7818608E-02  0.9802677E-01
          1   -1    0    0  502    0  0.00000000000E+00  0.00000000000E+00  0.10826894917E+03  0.10826894917E+03  0.00000000000E+00 0.  1.
         13   -1    0    0    0    0 -0.00000000000E+00 -0.00000000000E+00 -0.10000000000E+04  0.10000000000E+04  0.00000000000E+00 0.  1.
    9000005    2    1    2  501    0  0.18481333512E+01  0.37724630791E+01 -0.89069320869E+03  0.11039418034E+04  0.65217748054E+03 0.  0.
         13    1    3    3    0    0 -0.29108158912E+03 -0.28666709585E+02 -0.20379489171E+03  0.35648650697E+03  0.00000000000E+00 0.  1.
          3    1    3    3  501    0  0.29292972247E+03  0.32439172664E+02 -0.68689831698E+03  0.74745529639E+03  0.00000000000E+00 0.  1.
         21    1    1    2  502  501 -0.18481333512E+01 -0.37724630791E+01 -0.10378421435E+01  0.43271458124E+01  0.00000000000E+00 0.  1.
<mgrwt>
<rscale>  1 0.65219101E+03</rscale>
<asrwt>0</asrwt>
<pdfrwt beam="1">  1        1 0.39370610E+00 0.65219101E+03</pdfrwt>
<pdfrwt beam="2">0</pdfrwt>
<totfact> 0.14264041E+00</totfact>
</mgrwt>
</event>
<event>
 6    1  0.3781527E-003  0.6573994E+03  0.7818608E-02  0.9792993E-01
          1   -1    0    0  502    0  0.00000000000E+00  0.00000000000E+00  0.10804440413E+03  0.10804440413E+03  0.00000000000E+00 0.  1.
         13   -1    0    0    0    0 -0.00000000000E+00 -0.00000000000E+00 -0.10000000000E+04  0.10000000000E+04  0.00000000000E+00 0.  1.
    9000005    2    1    2  501    0 -0.12767890908E-03 -0.64444247175E-03 -0.89195639215E+03  0.11080433718E+04  0.65739935223E+03 0.  0.
         13    1    3    3    0    0 -0.61109615547E+02  0.30115115518E+03 -0.24929499821E+03  0.39569483129E+03  0.00000000000E+00 0.  1.
          3    1    3    3  501    0  0.61109487868E+02 -0.30115179962E+03 -0.64266139394E+03  0.71234854052E+03  0.00000000000E+00 0.  1.
         21    1    1    2  502  501  0.12767890908E-03  0.64444247174E-03  0.79628025509E-03  0.10323130571E-02  0.00000000000E+00 0.  1.
<mgrwt>
<rscale>  1 0.65739935E+03</rscale>
<asrwt>0</asrwt>
<pdfrwt beam="1">  1        1 0.39288957E+00 0.65739935E+03</pdfrwt>
<pdfrwt beam="2">0</pdfrwt>
<totfact> 0.14369698E+00</totfact>
</mgrwt>
</event>
<event>
 6    1  0.3781527E-003  0.6484918E+03  0.7818608E-02  0.9809613E-01
          1   -1    0    0  502    0  0.00000000000E+00  0.00000000000E+00  0.10513545591E+03  0.10513545591E+03  0.00000000000E+00 0.  1.
         13   -1    0    0    0    0 -0.00000000000E+00 -0.00000000000E+00 -0.10000000000E+04  0.10000000000E+04  0.00000000000E+00 0.  1.
    9000005    2    1    2  501    0 -0.98294289046E-05 -0.16079510601E-04 -0.89486458976E+03  0.11051354065E+04  0.64849181391E+03 0.  0.
         13    1    3    3    0    0 -0.28869541766E+03 -0.99554292859E+02 -0.26169179806E+03  0.40216750065E+03  0.00000000000E+00 0.  1.
          3    1    3    3  501    0  0.28869540783E+03  0.99554276780E+02 -0.63317279170E+03  0.70296790586E+03  0.00000000000E+00 0.  1.
         21    1    1    2  502  501  0.98294289078E-05  0.16079510601E-04  0.45667468951E-04  0.49403300034E-04  0.00000000000E+00 0.  1.
<mgrwt>
<rscale>  1 0.64849181E+03</rscale>
<asrwt>0</asrwt>
<pdfrwt beam="1">  1        1 0.38231155E+00 0.64849181E+03</pdfrwt>
<pdfrwt beam="2">0</pdfrwt>
<totfact> 0.16033065E+00</totfact>
</mgrwt>
</event>
<event>
 6    1  0.3781527E-003  0.6926230E+03  0.7818608E-02  0.9729932E-01
          1   -1    0    0  502    0  0.00000000000E+00  0.00000000000E+00  0.11993581604E+03  0.11993581604E+03  0.00000000000E+00 0.  1.
         13   -1    0    0    0    0 -0.00000000000E+00 -0.00000000000E+00 -0.10000000000E+04  0.10000000000E+04  0.00000000000E+00 0.  1.
    9000005    2    1    2  501    0 -0.11436323346E-03  0.99694892189E-04 -0.88006833315E+03  0.11199316641E+04  0.69262302964E+03 0.  0.
         13    1    3    3    0    0 -0.82053647644E+02 -0.12866428950E+01  0.10398281847E+03  0.13246464841E+03  0.00000000000E+00 0.  1.
          3    1    3    3  501    0  0.82053533281E+02  0.12867425899E+01 -0.98405115162E+03  0.98746701567E+03  0.00000000000E+00 0.  1.
         21    1    1    2  502  501  0.11436323346E-03 -0.99694892189E-04  0.41491909517E-02  0.41519638214E-02  0.00000000000E+00 0. -1.
<mgrwt>
<rscale>  1 0.69262303E+03</rscale>
<asrwt>0</asrwt>
<pdfrwt beam="1">  1        1 0.43613116E+00 0.69262303E+03</pdfrwt>
<pdfrwt beam="2">0</pdfrwt>
<totfact> 0.91191601E-01</totfact>
</mgrwt>
</event>
<event>
 6    1  0.3781527E-003  0.6529619E+03  0.7818608E-02  0.9801237E-01
          1   -1    0    0  502    0  0.00000000000E+00  0.00000000000E+00  0.10659412287E+03  0.10659412287E+03  0.00000000000E+00 0.  1.
         13   -1    0    0    0    0 -0.00000000000E+00 -0.00000000000E+00 -0.10000000000E+04  0.10000000000E+04  0.00000000000E+00 0.  1.
    9000005    2    1    2  501    0  0.24374069048E-02 -0.14133437539E-02 -0.89340967257E+03  0.11065893959E+04  0.65296190405E+03 0.  0.
         13    1    3    3    0    0 -0.19810247176E+03 -0.24211501675E+03 -0.60500834550E+03  0.68110158477E+03  0.00000000000E+00 0.  1.
          1    1    3    3  501    0  0.19810490916E+03  0.24211360341E+03 -0.28840132707E+03  0.42548781116E+03  0.00000000000E+00 0.  1.
         21    1    1    2  502  501 -0.24374069049E-02  0.14133437539E-02  0.37954425400E-02  0.47269310404E-02  0.00000000000E+00 0.  1.
<mgrwt>
<rscale>  1 0.65296190E+03</rscale>
<asrwt>0</asrwt>
<pdfrwt beam="1">  1        1 0.38761581E+00 0.65296190E+03</pdfrwt>
<pdfrwt beam="2">0</pdfrwt>
<totfact> 0.15177364E+00</totfact>
</mgrwt>
</event>
<event>
 6    1  0.3781527E-003  0.6490580E+03  0.7818608E-02  0.9808548E-01
          3   -1    0    0  502    0  0.00000000000E+00  0.00000000000E+00  0.10532224633E+03  0.10532224633E+03  0.00000000000E+00 0.  1.
         13   -1    0    0    0    0 -0.00000000000E+00 -0.00000000000E+00 -0.10000000000E+04  0.10000000000E+04  0.00000000000E+00 0.  1.
    9000005    2    1    2  501    0 -0.15542469043E-04 -0.22657412973E-03 -0.89468092627E+03  0.11053190656E+04  0.64905799200E+03 0.  0.
         13    1    3    3    0    0  0.17131650128E+03  0.26000456247E+03 -0.29156574472E+03  0.42657039233E+03  0.00000000000E+00 0.  1.
          1    1    3    3  501    0 -0.17131651683E+03 -0.26000478905E+03 -0.60311518155E+03  0.67874867328E+03  0.00000000000E+00 0.  1.
         21    1    1    2  502  501  0.15542469031E-04  0.22657412975E-03  0.31725974732E-02  0.31807156634E-02  0.00000000000E+00 0. -1.
<mgrwt>
<rscale>  1 0.64905799E+03</rscale>
<asrwt>0</asrwt>
<pdfrwt beam="1">  1        3 0.38299079E+00 0.64905799E+03</pdfrwt>
<pdfrwt beam="2">0</pdfrwt>
<totfact> 0.72795667E-02</totfact>
</mgrwt>
</event>
<event>
 6    1  0.3781527E-003  0.6568784E+03  0.7818608E-02  0.9793957E-01
          3   -1    0    0  502    0  0.00000000000E+00  0.00000000000E+00  0.10951863875E+03  0.10951863875E+03  0.00000000000E+00 0.  1.
         13   -1    0    0    0    0 -0.00000000000E+00 -0.00000000000E+00 -0.10000000000E+04  0.10000000000E+04  0.00000000000E+00 0.  1.
    9000005    2    1    2  501    0  0.26347188062E+01 -0.12810523826E+01 -0.89053299581E+03  0.11065885356E+04  0.65687181979E+03 0.  0.
         13    1    3    3    0    0  0.24635378268E+03  0.51332545527E+02 -0.88596830001E+02  0.26678570944E+03  0.00000000000E+00 0.  1.
          3    1    3    3  501    0 -0.24371906388E+03 -0.52613597909E+02 -0.80193616581E+03  0.83980282615E+03  0.00000000000E+00 0.  1.
         21    1    1    2  502  501 -0.26347188062E+01  0.12810523826E+01  0.51634561163E-01  0.29301031590E+01  0.00000000000E+00 0.  1.
<mgrwt>
<rscale>  1 0.65687835E+03</rscale>
<asrwt>0</asrwt>
<pdfrwt beam="1">  1        3 0.39825044E+00 0.65687835E+03</pdfrwt>
<pdfrwt beam="2">0</pdfrwt>
<totfact> 0.60431894E-02</totfact>
</mgrwt>
</event>
<event>
 6    1  0.3781527E-003  0.6503727E+03  0.7818608E-02  0.9806080E-01
          1   -1    0    0  502    0  0.00000000000E+00  0.00000000000E+00  0.10576415337E+03  0.10576415337E+03  0.00000000000E+00 0.  1.
         13   -1    0    0    0    0 -0.00000000000E+00 -0.00000000000E+00 -0.10000000000E+04  0.10000000000E+04  0.00000000000E+00 0.  1.
    9000005    2    1    2  501    0 -0.60856887374E-02  0.30613718381E-02 -0.89425313025E+03  0.11057455757E+04  0.65037267555E+03 0.  0.
         13    1    3    3    0    0  0.22204359477E+03 -0.18378930263E+03 -0.70306691803E+03  0.75985851115E+03  0.00000000000E+00 0.  1.
          1    1    3    3  501    0 -0.22204968046E+03  0.18379236400E+03 -0.19118621222E+03  0.34588706452E+03  0.00000000000E+00 0.  1.
         21    1    1    2  502  501  0.60856887374E-02 -0.30613718381E-02  0.17283613672E-01  0.18577699172E-01  0.00000000000E+00 0.  1.
<mgrwt>
<rscale>  1 0.65037268E+03</rscale>
<asrwt>0</asrwt>
<pdfrwt beam="1">  1        1 0.38459773E+00 0.65037268E+03</pdfrwt>
<pdfrwt beam="2">0</pdfrwt>
<totfact> 0.15658909E+00</totfact>
</mgrwt>
</event>
<event>
 6    1  0.3781527E-003  0.6520536E+03  0.7818608E-02  0.9802933E-01
          1   -1    0    0  502    0  0.00000000000E+00  0.00000000000E+00  0.10629481935E+03  0.10629481935E+03  0.00000000000E+00 0.  1.
         13   -1    0    0    0    0 -0.00000000000E+00 -0.00000000000E+00 -0.10000000000E+04  0.10000000000E+04  0.00000000000E+00 0.  1.
    9000005    2    1    2  501    0  0.74816139715E-04  0.43103215440E-04 -0.89370651113E+03  0.11062934861E+04  0.65205363987E+03 0.  0.
         13    1    3    3    0    0 -0.22711964429E+03  0.30424133616E+02 -0.53379582080E+02  0.23528353217E+03  0.00000000000E+00 0.  1.
          1    1    3    3  501    0  0.22711971911E+03 -0.30424090512E+02 -0.84032692905E+03  0.87100995389E+03  0.00000000000E+00 0.  1.
         21    1    1    2  502  501 -0.74816139733E-04 -0.43103215440E-04  0.13304799528E-02  0.13332787581E-02  0.00000000000E+00 0.  1.
<mgrwt>
<rscale>  1 0.65205364E+03</rscale>
<asrwt>0</asrwt>
<pdfrwt beam="1">  1        1 0.38652743E+00 0.65205364E+03</pdfrwt>
<pdfrwt beam="2">0</pdfrwt>
<totfact> 0.15349302E+00</totfact>
</mgrwt>
</event>
<event>
 6    1  0.3781527E-003  0.6476066E+03  0.7818608E-02  0.9811281E-01
          3   -1    0    0  502    0  0.00000000000E+00  0.00000000000E+00  0.10484860745E+03  0.10484860745E+03  0.00000000000E+00 0.  1.
         13   -1    0    0    0    0 -0.00000000000E+00 -0.00000000000E+00 -0.10000000000E+04  0.10000000000E+04  0.00000000000E+00 0.  1.
    9000005    2    1    2  501    0 -0.29221121963E-04  0.23104574169E-04 -0.89515141521E+03  0.11048485638E+04  0.64760658805E+03 0.  0.
         13    1    3    3    0    0 -0.28949503060E+03 -0.11366158155E+03 -0.60133088221E+03  0.67699716230E+03  0.00000000000E+00 0.  1.
          1    1    3    3  501    0  0.28949500138E+03  0.11366160465E+03 -0.29382053300E+03  0.42785140155E+03  0.00000000000E+00 0.  1.
         21    1    1    2  502  501  0.29221121943E-04 -0.23104574159E-04  0.22658827909E-04  0.43601809560E-04  0.00000000000E+00 0.  1.
<mgrwt>
<rscale>  1 0.64760659E+03</rscale>
<asrwt>0</asrwt>
<pdfrwt beam="1">  1        3 0.38126847E+00 0.64760659E+03</pdfrwt>
<pdfrwt beam="2">0</pdfrwt>
<totfact> 0.74353325E-02</totfact>
</mgrwt>
</event>
<event>
 6    1  0.3781527E-003  0.6340931E+03  0.7818608E-02  0.9837094E-01
          1   -1    0    0  502    0  0.00000000000E+00  0.00000000000E+00  0.10160531661E+03  0.10160531661E+03  0.00000000000E+00 0.  1.
         13   -1    0    0    0    0 -0.00000000000E+00 -0.00000000000E+00 -0.10000000000E+04  0.10000000000E+04  0.00000000000E+00 0.  1.
    9000005    2    1    2  501    0 -0.49750401648E-01 -0.16688503868E-01 -0.89948078004E+03  0.11005179530E+04  0.63409312293E+03 0.  0.
         13    1    3    3    0    0  0.29029113167E+03  0.97717601402E+02 -0.59160612993E+03  0.66619477912E+03  0.00000000000E+00 0.  1.
          3    1    3    3  501    0 -0.29034088207E+03 -0.97734289906E+02 -0.30787465010E+03  0.43432317392E+03  0.00000000000E+00 0.  1.
         21    1    1    2  502  501  0.49750401648E-01  0.16688503868E-01  0.10860966431E+01  0.10873635670E+01  0.00000000000E+00 0.  1.
<mgrwt>
<rscale>  1 0.63409313E+03</rscale>
<asrwt>0</asrwt>
<pdfrwt beam="1">  1        1 0.36947466E+00 0.63409313E+03</pdfrwt>
<pdfrwt beam="2">0</pdfrwt>
<totfact> 0.18310126E+00</totfact>
</mgrwt>
</event>
<event>
 6    1  0.3781527E-003  0.6435180E+03  0.7818608E-02  0.9819019E-01
          1   -1    0    0  502    0  0.00000000000E+00  0.00000000000E+00  0.10353683170E+03  0.10353683170E+03  0.00000000000E+00 0.  1.
         13   -1    0    0    0    0 -0.00000000000E+00 -0.00000000000E+00 -0.10000000000E+04  0.10000000000E+04  0.00000000000E+00 0.  1.
    9000005    2    1    2  501    0  0.15817502728E-03 -0.70740770752E-05 -0.89647112961E+03  0.11035288688E+04  0.64351804800E+03 0.  0.
         13    1    3    3    0    0 -0.18051694795E+03 -0.19062767360E+03 -0.76723014339E+03  0.81090527891E+03  0.00000000000E+00 0.  1.
          3    1    3    3  501    0  0.18051710613E+03  0.19062766653E+03 -0.12924098621E+03  0.29262358991E+03  0.00000000000E+00 0.  1.
         21    1    1    2  502  501 -0.15817502727E-03  0.70740770858E-05  0.79613030864E-02  0.79628773829E-02  0.00000000000E+00 0.  1.
<mgrwt>
<rscale>  1 0.64351805E+03</rscale>
<asrwt>0</asrwt>
<pdfrwt beam="1">  1        1 0.37649836E+00 0.64351805E+03</pdfrwt>
<pdfrwt beam="2">0</pdfrwt>
<totfact> 0.17023754E+00</totfact>
</mgrwt>
</event>
<event>
 6    1  0.3781527E-003  0.6704187E+03  0.7818608E-02  0.9769202E-01
          1   -1    0    0  502    0  0.00000000000E+00  0.00000000000E+00  0.11236555684E+03  0.11236555684E+03  0.00000000000E+00 0.  1.
         13   -1    0    0    0    0 -0.00000000000E+00 -0.00000000000E+00 -0.10000000000E+04  0.10000000000E+04  0.00000000000E+00 0.  1.
    9000005    2    1    2  501    0  0.96749538784E-04 -0.55265236730E-03 -0.88763425197E+03  0.11123649641E+04  0.67041871103E+03 0.  0.
         13    1    3    3    0    0  0.26398886750E+03 -0.20630337099E+03 -0.42608259347E+03  0.54203097652E+03  0.00000000000E+00 0.  1.
          1    1    3    3  501    0 -0.26398877075E+03  0.20630281834E+03 -0.46155165850E+03  0.57033398759E+03  0.00000000000E+00 0.  1.
         21    1    1    2  502  501 -0.96749538757E-04  0.55265236728E-03 -0.19118627317E-03  0.59273712838E-03  0.00000000000E+00 0.  1.
<mgrwt>
<rscale>  1 0.67041871E+03</rscale>
<asrwt>0</asrwt>
<pdfrwt beam="1">  1        1 0.40860289E+00 0.67041871E+03</pdfrwt>
<pdfrwt beam="2">0</pdfrwt>
<totfact> 0.12197896E+00</totfact>
</mgrwt>
</event>
<event>
 6    1  0.3781527E-003  0.6358852E+03  0.7818608E-02  0.9833631E-01
          1   -1    0    0  502    0  0.00000000000E+00  0.00000000000E+00  0.10108755030E+03  0.10108755030E+03  0.00000000000E+00 0.  1.
         13   -1    0    0    0    0 -0.00000000000E+00 -0.00000000000E+00 -0.10000000000E+04  0.10000000000E+04  0.00000000000E+00 0.  1.
    9000005    2    1    2  501    0 -0.83269575271E-05 -0.29679100251E-04 -0.89891250765E+03  0.11010874847E+04  0.63588517238E+03 0.  0.
         13    1    3    3    0    0 -0.19976083631E+03 -0.55915927190E+02 -0.86667959240E+03  0.89115907587E+03  0.00000000000E+00 0.  1.
          3    1    3    3  501    0  0.19976082798E+03  0.55915897510E+02 -0.32232915258E+02  0.20992840879E+03  0.00000000000E+00 0.  1.
         21    1    1    2  502  501  0.83269575363E-05  0.29679100256E-04  0.57949169596E-04  0.65637591902E-04  0.00000000000E+00 0.  1.
<mgrwt>
<rscale>  1 0.63588517E+03</rscale>
<asrwt>0</asrwt>
<pdfrwt beam="1">  1        1 0.36759187E+00 0.63588517E+03</pdfrwt>
<pdfrwt beam="2">0</pdfrwt>
<totfact> 0.18655742E+00</totfact>
</mgrwt>
</event>
<event>
 6    1  0.4508652E-003  0.6606387E+03  0.7818608E-02  0.9787019E-01
          1   -1    0    0  502    0  0.00000000000E+00  0.00000000000E+00  0.10911086373E+03  0.10911086373E+03  0.00000000000E+00 0.  1.
         13   -1    0    0    0    0 -0.00000000000E+00 -0.00000000000E+00 -0.10000000000E+04  0.10000000000E+04  0.00000000000E+00 0.  1.
    9000005    2    1    2  501    0  0.28306433819E-05 -0.30850338959E-05 -0.89088913597E+03  0.11091108595E+04  0.66063866535E+03 0.  0.
         13    1    3    3    0    0 -0.45815513274E+02  0.34107626127E+02 -0.99164653678E+03  0.99329011136E+03  0.00000000000E+00 0.  1.
          3    1    3    3  501    0  0.45815516105E+02 -0.34107629212E+02  0.10075740082E+03  0.11582074817E+03  0.00000000000E+00 0.  1.
         21    1    1    2  502  501 -0.28306433853E-05  0.30850339026E-05 -0.30404472607E-06  0.41979065438E-05  0.00000000000E+00 0. -1.
<mgrwt>
<rscale>  1 0.66063867E+03</rscale>
<asrwt>0</asrwt>
<pdfrwt beam="1">  1        1 0.39676761E+00 0.66063867E+03</pdfrwt>
<pdfrwt beam="2">0</pdfrwt>
<totfact> 0.13802009E+00</totfact>
</mgrwt>
</event>
<event>
 6    1  0.3781527E-003  0.6573959E+03  0.7818608E-02  0.9792999E-01
          1   -1    0    0  502    0  0.00000000000E+00  0.00000000000E+00  0.10846261551E+03  0.10846261551E+03  0.00000000000E+00 0.  1.
         13   -1    0    0    0    0 -0.00000000000E+00 -0.00000000000E+00 -0.10000000000E+04  0.10000000000E+04  0.00000000000E+00 0.  1.
    9000005    2    1    2  501    0 -0.64186243191E-03 -0.27853932366E-01 -0.89195713520E+03  0.11080419412E+04  0.65739593212E+03 0.  0.
         13    1    3    3    0    0  0.69665394996E+02  0.31955596149E+03 -0.39097740946E+03  0.50973778994E+03  0.00000000000E+00 0.  1.
          3    1    3    3  501    0 -0.69666036859E+02 -0.31958381542E+03 -0.50097972574E+03  0.59830415122E+03  0.00000000000E+00 0.  1.
         21    1    1    2  502  501  0.64186243190E-03  0.27853932366E-01  0.41975070183E+00  0.42067434581E+00  0.00000000000E+00 0.  1.
<mgrwt>
<rscale>  1 0.65739593E+03</rscale>
<asrwt>0</asrwt>
<pdfrwt beam="1">  1        1 0.39441034E+00 0.65739593E+03</pdfrwt>
<pdfrwt beam="2">0</pdfrwt>
<totfact> 0.14147850E+00</totfact>
</mgrwt>
</event>
<event>
 6    1  0.3781527E-003  0.6535843E+03  0.7818608E-02  0.9800077E-01
          1   -1    0    0  502    0  0.00000000000E+00  0.00000000000E+00  0.10679589539E+03  0.10679589539E+03  0.00000000000E+00 0.  1.
         13   -1    0    0    0    0 -0.00000000000E+00 -0.00000000000E+00 -0.10000000000E+04  0.10000000000E+04  0.00000000000E+00 0.  1.
    9000005    2    1    2  501    0 -0.53826797501E-02 -0.52122818721E-02 -0.89319930957E+03  0.11067869997E+04  0.65358431438E+03 0.  0.
         13    1    3    3    0    0 -0.76841715259E+02 -0.48140404611E+02 -0.97826644569E+03  0.98245986510E+03  0.00000000000E+00 0.  1.
          1    1    3    3  501    0  0.76836332579E+02  0.48135192329E+02  0.85067136127E+02  0.12432713458E+03  0.00000000000E+00 0.  1.
         21    1    1    2  502  501  0.53826797501E-02  0.52122818721E-02 -0.47950462168E-02  0.88957063703E-02  0.00000000000E+00 0. -1.
<mgrwt>
<rscale>  1 0.65358431E+03</rscale>
<asrwt>0</asrwt>
<pdfrwt beam="1">  1        1 0.38834953E+00 0.65358431E+03</pdfrwt>
<pdfrwt beam="2">0</pdfrwt>
<totfact> 0.15062460E+00</totfact>
</mgrwt>
</event>
<event>
 6    1  0.4825200E-003  0.6157505E+03  0.7818608E-02  0.9873257E-01
          1   -1    0    0  502    0  0.00000000000E+00  0.00000000000E+00  0.94787181098E+02  0.94787181098E+02  0.00000000000E+00 0.  1.
         13   -1    0    0    0    0 -0.00000000000E+00 -0.00000000000E+00 -0.10000000000E+04  0.10000000000E+04  0.00000000000E+00 0.  1.
    9000005    2    1    2  501    0 -0.54879799762E-05  0.14513068436E-06 -0.90521282000E+03  0.10947871755E+04  0.61575052591E+03 0.  0.
         13    1    3    3    0    0 -0.20088430192E+02 -0.27544686425E+03 -0.69451945839E+03  0.74741674997E+03  0.00000000000E+00 0.  1.
          1    1    3    3  501    0  0.20088424704E+02  0.27544686439E+03 -0.21069336161E+03  0.34737042553E+03  0.00000000000E+00 0.  1.
         21    1    1    2  502  501  0.54879799760E-05 -0.14513070398E-06  0.10946500199E-05  0.55979680067E-05  0.00000000000E+00 0. -1.
<mgrwt>
<rscale>  1 0.61575053E+03</rscale>
<asrwt>0</asrwt>
<pdfrwt beam="1">  1        1 0.34468139E+00 0.61575053E+03</pdfrwt>
<pdfrwt beam="2">0</pdfrwt>
<totfact> 0.23574678E+00</totfact>
</mgrwt>
</event>
<event>
 6    1  0.3781527E-003  0.6456154E+03  0.7818608E-02  0.9815042E-01
          1   -1    0    0  502    0  0.00000000000E+00  0.00000000000E+00  0.10579485876E+03  0.10579485876E+03  0.00000000000E+00 0.  1.
         13   -1    0    0    0    0 -0.00000000000E+00 -0.00000000000E+00 -0.10000000000E+04  0.10000000000E+04  0.00000000000E+00 0.  1.
    9000005    2    1    2  501    0 -0.16026420287E+00  0.17151146279E+00 -0.89578561503E+03  0.11041970483E+04  0.64561536406E+03 0.  0.
         13    1    3    3    0    0  0.93442230697E+02 -0.30870390265E+03 -0.46546513791E+03  0.56629263159E+03  0.00000000000E+00 0.  1.
          1    1    3    3  501    0 -0.93602494900E+02  0.30887541411E+03 -0.43032047713E+03  0.53790441672E+03  0.00000000000E+00 0.  1.
         21    1    1    2  502  501  0.16026420287E+00 -0.17151146279E+00  0.15804737962E+01  0.15978104447E+01  0.00000000000E+00 0. -1.
<mgrwt>
<rscale>  1 0.64561541E+03</rscale>
<asrwt>0</asrwt>
<pdfrwt beam="1">  1        1 0.38470939E+00 0.64561541E+03</pdfrwt>
<pdfrwt beam="2">0</pdfrwt>
<totfact> 0.15654897E+00</totfact>
</mgrwt>
</event>
<event>
 6    1  0.3781527E-003  0.6397890E+03  0.7818608E-02  0.9826130E-01
          1   -1    0    0  502    0  0.00000000000E+00  0.00000000000E+00  0.10233249996E+03  0.10233249996E+03  0.00000000000E+00 0.  1.
         13   -1    0    0    0    0 -0.00000000000E+00 -0.00000000000E+00 -0.10000000000E+04  0.10000000000E+04  0.00000000000E+00 0.  1.
    9000005    2    1    2  501    0  0.16082322531E-05 -0.28113822736E-06 -0.89766749968E+03  0.11023324983E+04  0.63978902524E+03 0.  0.
         13    1    3    3    0    0  0.18412511439E+03 -0.25031608067E+03 -0.31793053002E+03  0.44456722766E+03  0.00000000000E+00 0.  1.
          1    1    3    3  501    0 -0.18412511278E+03  0.25031608039E+03 -0.57973696966E+03  0.65776527063E+03  0.00000000000E+00 0.  1.
         21    1    1    2  502  501 -0.16082322476E-05  0.28113825381E-06 -0.36123492177E-06  0.16721065603E-05  0.00000000000E+00 0. -1.
<mgrwt>
<rscale>  1 0.63978903E+03</rscale>
<asrwt>0</asrwt>
<pdfrwt beam="1">  1        1 0.37211897E+00 0.63978903E+03</pdfrwt>
<pdfrwt beam="2">0</pdfrwt>
<totfact> 0.17808308E+00</totfact>
</mgrwt>
</event>
<event>
 6    1  0.3781527E-003  0.5010296E+03  0.7818608E-02  0.1013511E+00
          1   -1    0    0  502    0  0.00000000000E+00  0.00000000000E+00  0.62786587226E+02  0.62786587226E+02  0.00000000000E+00 0.  1.
         13   -1    0    0    0    0 -0.00000000000E+00 -0.00000000000E+00 -0.10000000000E+04  0.10000000000E+04  0.00000000000E+00 0.  1.
    9000005    2    1    2  501    0 -0.17097717136E-03  0.89119458053E-03 -0.93724232168E+03  0.10627576641E+04  0.50102962289E+03 0.  0.
         13    1    3    3    0    0  0.16471290392E+03 -0.18569932573E+03 -0.39691132481E+03  0.46813799253E+03  0.00000000000E+00 0.  1.
          1    1    3    3  501    0 -0.16471307490E+03  0.18570021692E+03 -0.54033099688E+03  0.59461967155E+03  0.00000000000E+00 0.  1.
         21    1    1    2  502  501  0.17097717138E-03 -0.89119458054E-03  0.28908906364E-01  0.28923145198E-01  0.00000000000E+00 0. -1.
<mgrwt>
<rscale>  1 0.50102962E+03</rscale>
<asrwt>0</asrwt>
<pdfrwt beam="1">  1        1 0.22831534E+00 0.50102962E+03</pdfrwt>
<pdfrwt beam="2">0</pdfrwt>
<totfact> 0.76825044E+00</totfact>
</mgrwt>
</event>
<event>
 6    1  0.3781527E-003  0.6595690E+03  0.7818608E-02  0.9788987E-01
          1   -1    0    0  502    0  0.00000000000E+00  0.00000000000E+00  0.13510317341E+03  0.13510317341E+03  0.00000000000E+00 0.  1.
         13   -1    0    0    0    0 -0.00000000000E+00 -0.00000000000E+00 -0.10000000000E+04  0.10000000000E+04  0.00000000000E+00 0.  1.
    9000005    2    1    2  501    0  0.59023500164E+02  0.34959155969E+02 -0.82313972774E+03  0.10547939494E+04  0.65599188114E+03 0.  0.
         13    1    3    3    0    0 -0.82026790726E+01 -0.54563044246E+02 -0.91088329576E+03  0.91255289613E+03  0.00000000000E+00 0.  1.
          3    1    3    3  501    0  0.67226179236E+02  0.89522200215E+02  0.87743568013E+02  0.14224105326E+03  0.00000000000E+00 0.  1.
         21    1    1    2  502  501 -0.59023500164E+02 -0.34959155969E+02 -0.41757098849E+02  0.80309224015E+02  0.00000000000E+00 0. -1.
<mgrwt>
<rscale>  1 0.65956900E+03</rscale>
<asrwt>0</asrwt>
<pdfrwt beam="1">  1        1 0.49128530E+00 0.65956900E+03</pdfrwt>
<pdfrwt beam="2">0</pdfrwt>
<totfact> 0.50792178E-01</totfact>
</mgrwt>
</event>
<event>
 6    1  0.3781527E-003  0.5934896E+03  0.7818608E-02  0.9919006E-01
          3   -1    0    0  502    0  0.00000000000E+00  0.00000000000E+00  0.89556474493E+02  0.89556474493E+02  0.00000000000E+00 0.  1.
         13   -1    0    0    0    0 -0.00000000000E+00 -0.00000000000E+00 -0.10000000000E+04  0.10000000000E+04  0.00000000000E+00 0.  1.
    9000005    2    1    2  501    0 -0.12650233964E-01  0.42885428943E-01 -0.91194215925E+03  0.10880571739E+04  0.59348960383E+03 0.  0.
         13    1    3    3    0    0  0.15146708740E+03  0.21086861426E+02  0.10248917776E+02  0.15327091898E+03  0.00000000000E+00 0.  1.
          1    1    3    3  501    0 -0.15147973763E+03 -0.21043975997E+02 -0.92219107702E+03  0.93478625492E+03  0.00000000000E+00 0.  1.
         21    1    1    2  502  501  0.12650233964E-01 -0.42885428943E-01  0.14986337406E+01  0.14993005960E+01  0.00000000000E+00 0. -1.
<mgrwt>
<rscale>  1 0.59348961E+03</rscale>
<asrwt>0</asrwt>
<pdfrwt beam="1">  1        3 0.32566059E+00 0.59348961E+03</pdfrwt>
<pdfrwt beam="2">0</pdfrwt>
<totfact> 0.14821325E-01</totfact>
</mgrwt>
</event>
<event>
 6    1  0.3781527E-003  0.6546773E+03  0.7818608E-02  0.9798042E-01
          1   -1    0    0  502    0  0.00000000000E+00  0.00000000000E+00  0.10728527971E+03  0.10728527971E+03  0.00000000000E+00 0.  1.
         13   -1    0    0    0    0 -0.00000000000E+00 -0.00000000000E+00 -0.10000000000E+04  0.10000000000E+04  0.00000000000E+00 0.  1.
    9000005    2    1    2  501    0 -0.12335074939E-01 -0.51164818473E-01 -0.89284370098E+03  0.11071459742E+04  0.65467727251E+03 0.  0.
         13    1    3    3    0    0  0.26503118014E+03 -0.10029252222E+02 -0.12197547238E+03  0.29192486740E+03  0.00000000000E+00 0.  1.
          1    1    3    3  501    0 -0.26504351521E+03  0.99780874031E+01 -0.77086822860E+03  0.81522110685E+03  0.00000000000E+00 0.  1.
         21    1    1    2  502  501  0.12335074939E-01  0.51164818473E-01  0.12898069033E+00  0.13930546006E+00  0.00000000000E+00 0. -1.
<mgrwt>
<rscale>  1 0.65467727E+03</rscale>
<asrwt>0</asrwt>
<pdfrwt beam="1">  1        1 0.39012911E+00 0.65467727E+03</pdfrwt>
<pdfrwt beam="2">0</pdfrwt>
<totfact> 0.14788327E+00</totfact>
</mgrwt>
</event>
<event>
 6    1  0.3781527E-003  0.6697326E+03  0.7818608E-02  0.9770441E-01
          1   -1    0    0  502    0  0.00000000000E+00  0.00000000000E+00  0.11506779449E+03  0.11506779449E+03  0.00000000000E+00 0.  1.
         13   -1    0    0    0    0 -0.00000000000E+00 -0.00000000000E+00 -0.10000000000E+04  0.10000000000E+04  0.00000000000E+00 0.  1.
    9000005    2    1    2  501    0 -0.89135566606E+00  0.14466344194E+01 -0.88758818324E+03  0.11119147826E+04  0.66973040363E+03 0.  0.
         13    1    3    3    0    0 -0.32069157739E+03 -0.45321962246E+02 -0.58759710477E+03  0.67094524785E+03  0.00000000000E+00 0.  1.
          3    1    3    3  501    0  0.31980022173E+03  0.46768596666E+02 -0.29999107847E+03  0.44096953479E+03  0.00000000000E+00 0.  1.
         21    1    1    2  502  501  0.89135566606E+00 -0.14466344194E+01  0.26559777263E+01  0.31530118537E+01  0.00000000000E+00 0. -1.
<mgrwt>
<rscale>  1 0.66973256E+03</rscale>
<asrwt>0</asrwt>
<pdfrwt beam="1">  1        1 0.41842923E+00 0.66973256E+03</pdfrwt>
<pdfrwt beam="2">0</pdfrwt>
<totfact> 0.11019702E+00</totfact>
</mgrwt>
</event>
<event>
 6    1  0.3781527E-003  0.6526438E+03  0.7818608E-02  0.9801831E-01
          1   -1    0    0  502    0  0.00000000000E+00  0.00000000000E+00  0.10760116025E+03  0.10760116025E+03  0.00000000000E+00 0.  1.
         13   -1    0    0    0    0 -0.00000000000E+00 -0.00000000000E+00 -0.10000000000E+04  0.10000000000E+04  0.00000000000E+00 0.  1.
    9000005    2    1    2  501    0  0.16896221762E+00 -0.55823029848E+00 -0.89342903057E+03  0.11064173265E+04  0.65264349187E+03 0.  0.
         13    1    3    3    0    0  0.28417678184E+03 -0.10391932483E+03 -0.65481599104E+03  0.72134572261E+03  0.00000000000E+00 0.  1.
          3    1    3    3  501    0 -0.28400781962E+03  0.10336109453E+03 -0.23861303952E+03  0.38507160386E+03  0.00000000000E+00 0.  1.
         21    1    1    2  502  501 -0.16896221762E+00  0.55823029848E+00  0.10301908142E+01  0.11838337767E+01  0.00000000000E+00 0. -1.
<mgrwt>
<rscale>  1 0.65264375E+03</rscale>
<asrwt>0</asrwt>
<pdfrwt beam="1">  1        1 0.39127777E+00 0.65264375E+03</pdfrwt>
<pdfrwt beam="2">0</pdfrwt>
<totfact> 0.14621355E+00</totfact>
</mgrwt>
</event>
<event>
 6    1  0.3781527E-003  0.6484424E+03  0.7818608E-02  0.9809706E-01
          1   -1    0    0  502    0  0.00000000000E+00  0.00000000000E+00  0.10511943364E+03  0.10511943364E+03  0.00000000000E+00 0.  1.
         13   -1    0    0    0    0 -0.00000000000E+00 -0.00000000000E+00 -0.10000000000E+04  0.10000000000E+04  0.00000000000E+00 0.  1.
    9000005    2    1    2  501    0  0.18668087705E-04 -0.29219546448E-04 -0.89488059184E+03  0.11051193906E+04  0.64844243680E+03 0.  0.
         13    1    3    3    0    0  0.16355769396E+03  0.83708597461E+02 -0.90270993897E+03  0.92121847705E+03  0.00000000000E+00 0.  1.
          1    1    3    3  501    0 -0.16355767530E+03 -0.83708626681E+02  0.78293471307E+01  0.18390091355E+03  0.00000000000E+00 0.  1.
         21    1    1    2  502  501 -0.18668087699E-04  0.29219546453E-04  0.25479848676E-04  0.43029084139E-04  0.00000000000E+00 0.  1.
<mgrwt>
<rscale>  1 0.64844244E+03</rscale>
<asrwt>0</asrwt>
<pdfrwt beam="1">  1        1 0.38225329E+00 0.64844244E+03</pdfrwt>
<pdfrwt beam="2">0</pdfrwt>
<totfact> 0.16042715E+00</totfact>
</mgrwt>
</event>
<event>
 6    1  0.3781527E-003  0.6410810E+03  0.7818608E-02  0.9823661E-01
          1   -1    0    0  502    0  0.00000000000E+00  0.00000000000E+00  0.10274708902E+03  0.10274708902E+03  0.00000000000E+00 0.  1.
         13   -1    0    0    0    0 -0.00000000000E+00 -0.00000000000E+00 -0.10000000000E+04  0.10000000000E+04  0.00000000000E+00 0.  1.
    9000005    2    1    2  501    0 -0.14722416822E-03  0.44144623075E-04 -0.89725379257E+03  0.11027461941E+04  0.64108096243E+03 0.  0.
         13    1    3    3    0    0 -0.16827089764E+03  0.13952823058E+03 -0.85189884140E+03  0.87949693467E+03  0.00000000000E+00 0.  1.
          3    1    3    3  501    0  0.16827075041E+03 -0.13952818643E+03 -0.45354951172E+02  0.22324925946E+03  0.00000000000E+00 0.  1.
         21    1    1    2  502  501  0.14722416822E-03 -0.44144623075E-04  0.88158914098E-03  0.89488720907E-03  0.00000000000E+00 0. -1.
<mgrwt>
<rscale>  1 0.64108096E+03</rscale>
<asrwt>0</asrwt>
<pdfrwt beam="1">  1        1 0.37362657E+00 0.64108096E+03</pdfrwt>
<pdfrwt beam="2">0</pdfrwt>
<totfact> 0.17534383E+00</totfact>
</mgrwt>
</event>
<event>
 6    1  0.3781527E-003  0.6262005E+03  0.7818608E-02  0.9852491E-01
          1   -1    0    0  502    0  0.00000000000E+00  0.00000000000E+00  0.98211629214E+02  0.98211629214E+02  0.00000000000E+00 0.  1.
         13   -1    0    0    0    0 -0.00000000000E+00 -0.00000000000E+00 -0.10000000000E+04  0.10000000000E+04  0.00000000000E+00 0.  1.
    9000005    2    1    2  501    0  0.12280014353E-01  0.42364434310E+00 -0.90164091284E+03  0.10977628874E+04  0.62620032076E+03 0.  0.
         13    1    3    3    0    0  0.14231716204E+03 -0.52274415367E+02 -0.93094515120E+03  0.94321029662E+03  0.00000000000E+00 0.  1.
          1    1    3    3  501    0 -0.14230488202E+03  0.52698059710E+02  0.29304238360E+02  0.15455259082E+03  0.00000000000E+00 0.  1.
         21    1    1    2  502  501 -0.12280014353E-01 -0.42364434310E+00 -0.14745794499E+00  0.44874176731E+00  0.00000000000E+00 0. -1.
<mgrwt>
<rscale>  1 0.62620046E+03</rscale>
<asrwt>0</asrwt>
<pdfrwt beam="1">  1        1 0.35713395E+00 0.62620046E+03</pdfrwt>
<pdfrwt beam="2">0</pdfrwt>
<totfact> 0.20766085E+00</totfact>
</mgrwt>
</event>
<event>
 6    1  0.3781527E-003  0.6456673E+03  0.7818608E-02  0.9814943E-01
          1   -1    0    0  502    0  0.00000000000E+00  0.00000000000E+00  0.10436081978E+03  0.10436081978E+03  0.00000000000E+00 0.  1.
         13   -1    0    0    0    0 -0.00000000000E+00 -0.00000000000E+00 -0.10000000000E+04  0.10000000000E+04  0.00000000000E+00 0.  1.
    9000005    2    1    2  501    0  0.22821183274E+00  0.67679150833E-01 -0.89565591450E+03  0.11041221963E+04  0.64566729096E+03 0.  0.
         13    1    3    3    0    0 -0.29916493241E+03  0.13950377746E+02 -0.65331580415E+03  0.71869034345E+03  0.00000000000E+00 0.  1.
          1    1    3    3  501    0  0.29939314424E+03 -0.13882698596E+02 -0.24234011035E+03  0.38543185289E+03  0.00000000000E+00 0.  1.
         21    1    1    2  502  501 -0.22821183274E+00 -0.67679150833E-01  0.16734279764E-01  0.23862343594E+00  0.00000000000E+00 0. -1.
<mgrwt>
<rscale>  1 0.64566733E+03</rscale>
<asrwt>0</asrwt>
<pdfrwt beam="1">  1        1 0.37949469E+00 0.64566733E+03</pdfrwt>
<pdfrwt beam="2">0</pdfrwt>
<totfact> 0.16507312E+00</totfact>
</mgrwt>
</event>
<event>
 6    1  0.3781527E-003  0.6173178E+03  0.7818608E-02  0.9870115E-01
          1   -1    0    0  502    0  0.00000000000E+00  0.00000000000E+00  0.95270884100E+02  0.95270884100E+02  0.00000000000E+00 0.  1.
         13   -1    0    0    0    0 -0.00000000000E+00 -0.00000000000E+00 -0.10000000000E+04  0.10000000000E+04  0.00000000000E+00 0.  1.
    9000005    2    1    2  501    0 -0.22169503296E-04  0.63799052157E-04 -0.90472968300E+03  0.10952703130E+04  0.61731779434E+03 0.  0.
         13    1    3    3    0    0 -0.24382538808E+03 -0.15453207808E+03 -0.64623118817E+03  0.70777519849E+03  0.00000000000E+00 0.  1.
          1    1    3    3  501    0  0.24382536591E+03  0.15453214188E+03 -0.25849849483E+03  0.38749511450E+03  0.00000000000E+00 0.  1.
         21    1    1    2  502  501  0.22169503314E-04 -0.63799052141E-04  0.56710334534E-03  0.57111120653E-03  0.00000000000E+00 0. -1.
<mgrwt>
<rscale>  1 0.61731779E+03</rscale>
<asrwt>0</asrwt>
<pdfrwt beam="1">  1        1 0.34644031E+00 0.61731779E+03</pdfrwt>
<pdfrwt beam="2">0</pdfrwt>
<totfact> 0.23156437E+00</totfact>
</mgrwt>
</event>
<event>
 6    1  0.3781527E-003  0.6619380E+03  0.7818608E-02  0.9784633E-01
          1   -1    0    0  502    0  0.00000000000E+00  0.00000000000E+00  0.10954371498E+03  0.10954371498E+03  0.00000000000E+00 0.  1.
         13   -1    0    0    0    0 -0.00000000000E+00 -0.00000000000E+00 -0.10000000000E+04  0.10000000000E+04  0.00000000000E+00 0.  1.
    9000005    2    1    2  501    0  0.12315317096E-02  0.56866251228E-03 -0.89045934891E+03  0.11095403642E+04  0.66193803926E+03 0.  0.
         13    1    3    3    0    0 -0.98462265172E+01 -0.19538030295E+03  0.22561278861E+01  0.19564125606E+03  0.00000000000E+00 0.  1.
          3    1    3    3  501    0  0.98474580489E+01  0.19538087162E+03 -0.89271547680E+03  0.91389910818E+03  0.00000000000E+00 0.  1.
         21    1    1    2  502  501 -0.12315317096E-02 -0.56866251229E-03  0.30638919464E-02  0.33507433897E-02  0.00000000000E+00 0. -1.
<mgrwt>
<rscale>  1 0.66193804E+03</rscale>
<asrwt>0</asrwt>
<pdfrwt beam="1">  1        1 0.39834162E+00 0.66193804E+03</pdfrwt>
<pdfrwt beam="2">0</pdfrwt>
<totfact> 0.13577746E+00</totfact>
</mgrwt>
</event>
<event>
 6    1  0.3781527E-003  0.6457356E+03  0.7818608E-02  0.9814814E-01
          1   -1    0    0  502    0  0.00000000000E+00  0.00000000000E+00  0.10425536123E+03  0.10425536123E+03  0.00000000000E+00 0.  1.
         13   -1    0    0    0    0 -0.00000000000E+00 -0.00000000000E+00 -0.10000000000E+04  0.10000000000E+04  0.00000000000E+00 0.  1.
    9000005    2    1    2  501    0 -0.34419988023E-02  0.73347436867E-02 -0.89575481834E+03  0.11042423509E+04  0.64573560752E+03 0.  0.
         13    1    3    3    0    0  0.29871226709E+03  0.10322941265E+03 -0.33498717058E+03  0.46054504080E+03  0.00000000000E+00 0.  1.
          3    1    3    3  501    0 -0.29871570909E+03 -0.10322207791E+03 -0.56076764776E+03  0.64369731008E+03  0.00000000000E+00 0.  1.
         21    1    1    2  502  501  0.34419988022E-02 -0.73347436867E-02  0.10179571030E-01  0.13010360758E-01  0.00000000000E+00 0. -1.
<mgrwt>
<rscale>  1 0.64573561E+03</rscale>
<asrwt>0</asrwt>
<pdfrwt beam="1">  1        1 0.37911120E+00 0.64573561E+03</pdfrwt>
<pdfrwt beam="2">0</pdfrwt>
<totfact> 0.16571521E+00</totfact>
</mgrwt>
</event>
<event>
 6    1  0.3781527E-003  0.6526706E+03  0.7818608E-02  0.9801781E-01
          1   -1    0    0  502    0  0.00000000000E+00  0.00000000000E+00  0.10814002392E+03  0.10814002392E+03  0.00000000000E+00 0.  1.
         13   -1    0    0    0    0 -0.00000000000E+00 -0.00000000000E+00 -0.10000000000E+04  0.10000000000E+04  0.00000000000E+00 0.  1.
    9000005    2    1    2  501    0  0.89771180637E-01 -0.97858694439E-01 -0.89350230411E+03  0.11064923357E+04  0.65267059365E+03 0.  0.
         13    1    3    3    0    0 -0.22764013352E+03 -0.72403000011E+02 -0.82360216438E+03  0.85754460524E+03  0.00000000000E+00 0.  1.
          1    1    3    3  501    0  0.22772990470E+03  0.72305141317E+02 -0.69900139730E+02  0.24894773043E+03  0.00000000000E+00 0.  1.
         21    1    1    2  502  501 -0.89771180637E-01  0.97858694439E-01  0.16423280354E+01  0.16476882487E+01  0.00000000000E+00 0.  1.
<mgrwt>
<rscale>  1 0.65267061E+03</rscale>
<asrwt>0</asrwt>
<pdfrwt beam="1">  1        1 0.39323728E+00 0.65267061E+03</pdfrwt>
<pdfrwt beam="2">0</pdfrwt>
<totfact> 0.14331320E+00</totfact>
</mgrwt>
</event>
<event>
 6    1  0.3781527E-003  0.6409246E+03  0.7818608E-02  0.9823959E-01
          1   -1    0    0  502    0  0.00000000000E+00  0.00000000000E+00  0.10270250719E+03  0.10270250719E+03  0.00000000000E+00 0.  1.
         13   -1    0    0    0    0 -0.00000000000E+00 -0.00000000000E+00 -0.10000000000E+04  0.10000000000E+04  0.00000000000E+00 0.  1.
    9000005    2    1    2  501    0  0.51460481060E-02 -0.40214901266E-02 -0.89730202834E+03  0.11026945558E+04  0.64092460805E+03 0.  0.
         13    1    3    3    0    0 -0.43099015710E+02 -0.30672158011E+03 -0.30718199975E+03  0.43622979476E+03  0.00000000000E+00 0.  1.
          1    1    3    3  501    0  0.43104161758E+02  0.30671755862E+03 -0.59012002858E+03  0.66646476100E+03  0.00000000000E+00 0.  1.
         21    1    1    2  502  501 -0.51460481060E-02  0.40214901266E-02  0.45355219947E-02  0.79514246341E-02  0.00000000000E+00 0. -1.
<mgrwt>
<rscale>  1 0.64092461E+03</rscale>
<asrwt>0</asrwt>
<pdfrwt beam="1">  1        1 0.37346445E+00 0.64092461E+03</pdfrwt>
<pdfrwt beam="2">0</pdfrwt>
<totfact> 0.17563700E+00</totfact>
</mgrwt>
</event>
<event>
 6    1  0.3781527E-003  0.6514073E+03  0.7818608E-02  0.9804142E-01
          1   -1    0    0  502    0  0.00000000000E+00  0.00000000000E+00  0.10608288222E+03  0.10608288222E+03  0.00000000000E+00 0.  1.
         13   -1    0    0    0    0 -0.00000000000E+00 -0.00000000000E+00 -0.10000000000E+04  0.10000000000E+04  0.00000000000E+00 0.  1.
    9000005    2    1    2  501    0 -0.72768058033E-05  0.12574569979E-04 -0.89391713287E+03  0.11060828613E+04  0.65140728854E+03 0.  0.
         13    1    3    3    0    0 -0.19767991997E+02  0.19667486818E+03 -0.88650867687E+03  0.90827826763E+03  0.00000000000E+00 0.  1.
          3    1    3    3  501    0  0.19767984720E+02 -0.19667485560E+03 -0.74084559999E+01  0.19780459364E+03  0.00000000000E+00 0.  1.
         21    1    1    2  502  501  0.72768058036E-05 -0.12574569970E-04  0.15085112335E-04  0.20943550959E-04  0.00000000000E+00 0.  1.
<mgrwt>
<rscale>  1 0.65140729E+03</rscale>
<asrwt>0</asrwt>
<pdfrwt beam="1">  1        1 0.38575675E+00 0.65140729E+03</pdfrwt>
<pdfrwt beam="2">0</pdfrwt>
<totfact> 0.15472177E+00</totfact>
</mgrwt>
</event>
<event>
 6    1  0.3781527E-003  0.6461546E+03  0.7818608E-02  0.9814022E-01
          1   -1    0    0  502    0  0.00000000000E+00  0.00000000000E+00  0.11776758562E+03  0.11776758562E+03  0.00000000000E+00 0.  1.
         13   -1    0    0    0    0 -0.00000000000E+00 -0.00000000000E+00 -0.10000000000E+04  0.10000000000E+04  0.00000000000E+00 0.  1.
    9000005    2    1    2  501    0  0.53545112364E+01  0.10848375746E+02 -0.89253472216E+03  0.11018774757E+04  0.64604131696E+03 0.  0.
         13    1    3    3    0    0 -0.12048529140E+03 -0.28685530398E+03 -0.33321934448E+03  0.45589231448E+03  0.00000000000E+00 0.  1.
          3    1    3    3  501    0  0.12583980264E+03  0.29770367972E+03 -0.55931537768E+03  0.64598516125E+03  0.00000000000E+00 0.  1.
         21    1    1    2  502  501 -0.53545112364E+01 -0.10848375746E+02  0.10302307780E+02  0.15890109896E+02  0.00000000000E+00 0.  1.
<mgrwt>
<rscale>  1 0.64615458E+03</rscale>
<asrwt>0</asrwt>
<pdfrwt beam="1">  1        1 0.42824667E+00 0.64615458E+03</pdfrwt>
<pdfrwt beam="2">0</pdfrwt>
<totfact> 0.99954321E-01</totfact>
</mgrwt>
</event>
<event>
 6    1  0.3781527E-003  0.6759256E+03  0.7818608E-02  0.9759312E-01
          1   -1    0    0  502    0  0.00000000000E+00  0.00000000000E+00  0.11571701683E+03  0.11571701683E+03  0.00000000000E+00 0.  1.
         13   -1    0    0    0    0 -0.00000000000E+00 -0.00000000000E+00 -0.10000000000E+04  0.10000000000E+04  0.00000000000E+00 0.  1.
    9000005    2    1    2  501    0 -0.10524369246E+00 -0.19057209340E+00 -0.88577232074E+03  0.11142118523E+04  0.67592558774E+03 0.  0.
         13    1    3    3    0    0 -0.27806205116E+03  0.31467295931E+02 -0.75540824983E+03  0.80557452723E+03  0.00000000000E+00 0.  1.
          1    1    3    3  501    0  0.27795680747E+03 -0.31657868025E+02 -0.13036407091E+03  0.30863732504E+03  0.00000000000E+00 0.  1.
         21    1    1    2  502  501  0.10524369246E+00  0.19057209340E+00  0.14893375651E+01  0.15051645559E+01  0.00000000000E+00 0.  1.
<mgrwt>
<rscale>  1 0.67592562E+03</rscale>
<asrwt>0</asrwt>
<pdfrwt beam="1">  1        1 0.42079004E+00 0.67592562E+03</pdfrwt>
<pdfrwt beam="2">0</pdfrwt>
<totfact> 0.10739923E+00</totfact>
</mgrwt>
</event>
<event>
 6    1  0.3781527E-003  0.6498219E+03  0.7818608E-02  0.9807113E-01
          1   -1    0    0  502    0  0.00000000000E+00  0.00000000000E+00  0.16616632643E+03  0.16616632643E+03  0.00000000000E+00 0.  1.
         13   -1    0    0    0    0 -0.00000000000E+00 -0.00000000000E+00 -0.10000000000E+04  0.10000000000E+04  0.00000000000E+00 0.  1.
    9000005    2    1    2  501    0 -0.60468813769E+02  0.22023606677E+02 -0.87490018267E+03  0.10898251524E+04  0.64662741697E+03 0.  0.
         13    1    3    3    0    0  0.16841858254E+03 -0.21839361009E+03 -0.59427893796E+03  0.65515497707E+03  0.00000000000E+00 0.  1.
          3    1    3    3  501    0 -0.22888739631E+03  0.24041721676E+03 -0.28062124471E+03  0.43467017529E+03  0.00000000000E+00 0.  1.
         21    1    1    2  502  501  0.60468813769E+02 -0.22023606677E+02  0.41066509099E+02  0.76341174076E+02  0.00000000000E+00 0.  1.
<mgrwt>
<rscale>  1 0.64982192E+03</rscale>
<asrwt>0</asrwt>
<pdfrwt beam="1">  1        1 0.60424246E+00 0.64982192E+03</pdfrwt>
<pdfrwt beam="2">0</pdfrwt>
<totfact> 0.13550744E-01</totfact>
</mgrwt>
</event>
<event>
 6    1  0.3781527E-003  0.6491209E+03  0.7818608E-02  0.9808430E-01
          1   -1    0    0  502    0  0.00000000000E+00  0.00000000000E+00  0.10781801234E+03  0.10781801234E+03  0.00000000000E+00 0.  1.
         13   -1    0    0    0    0 -0.00000000000E+00 -0.00000000000E+00 -0.10000000000E+04  0.10000000000E+04  0.00000000000E+00 0.  1.
    9000005    2    1    2  501    0  0.83234483114E-01 -0.78503160036E-01 -0.89465906190E+03  0.11053382971E+04  0.64912086777E+03 0.  0.
         13    1    3    3    0    0  0.27716537024E+01  0.24167156926E+03 -0.78488253084E+02  0.25411264298E+03  0.00000000000E+00 0.  1.
          1    1    3    3  501    0 -0.26884192193E+01 -0.24175007242E+03 -0.81617080882E+03  0.85122565415E+03  0.00000000000E+00 0.  1.
         21    1    1    2  502  501 -0.83234483114E-01  0.78503160036E-01  0.24770742456E+01  0.24797152142E+01  0.00000000000E+00 0. -1.
<mgrwt>
<rscale>  1 0.64912088E+03</rscale>
<asrwt>0</asrwt>
<pdfrwt beam="1">  1        1 0.39206633E+00 0.64912088E+03</pdfrwt>
<pdfrwt beam="2">0</pdfrwt>
<totfact> 0.14513569E+00</totfact>
</mgrwt>
</event>
<event>
 6    1  0.3781527E-003  0.6478905E+03  0.7818608E-02  0.9810746E-01
          1   -1    0    0  502    0  0.00000000000E+00  0.00000000000E+00  0.10494898537E+03  0.10494898537E+03  0.00000000000E+00 0.  1.
         13   -1    0    0    0    0 -0.00000000000E+00 -0.00000000000E+00 -0.10000000000E+04  0.10000000000E+04  0.00000000000E+00 0.  1.
    9000005    2    1    2  501    0  0.40663136645E-03 -0.12145907926E-02 -0.89505943188E+03  0.11049404712E+04  0.64789046786E+03 0.  0.
         13    1    3    3    0    0  0.59118227597E+02 -0.21742757101E+03 -0.50593794909E+02  0.23093169023E+03  0.00000000000E+00 0.  1.
          3    1    3    3  501    0 -0.59117820965E+02  0.21742635642E+03 -0.84446563697E+03  0.87400878099E+03  0.00000000000E+00 0.  1.
         21    1    1    2  502  501 -0.40663136646E-03  0.12145907926E-02  0.84172504694E-02  0.85141461889E-02  0.00000000000E+00 0. -1.
<mgrwt>
<rscale>  1 0.64789047E+03</rscale>
<asrwt>0</asrwt>
<pdfrwt beam="1">  1        1 0.38163348E+00 0.64789047E+03</pdfrwt>
<pdfrwt beam="2">0</pdfrwt>
<totfact> 0.16145793E+00</totfact>
</mgrwt>
</event>
<event>
 6    1  0.3781527E-003  0.6606709E+03  0.7818608E-02  0.9786959E-01
          1   -1    0    0  502    0  0.00000000000E+00  0.00000000000E+00  0.10921516286E+03  0.10921516286E+03  0.00000000000E+00 0.  1.
         13   -1    0    0    0    0 -0.00000000000E+00 -0.00000000000E+00 -0.10000000000E+04  0.10000000000E+04  0.00000000000E+00 0.  1.
    9000005    2    1    2  501    0  0.71693784333E-01  0.42258320156E-01 -0.89085750792E+03  0.11091046784E+04  0.66067093275E+03 0.  0.
         13    1    3    3    0    0  0.32997914967E+02 -0.13941322014E+03  0.54253016913E+02  0.15319366235E+03  0.00000000000E+00 0.  1.
          3    1    3    3  501    0 -0.32926221183E+02  0.13945547846E+03 -0.94511052484E+03  0.95591101608E+03  0.00000000000E+00 0.  1.
         21    1    1    2  502  501 -0.71693784333E-01 -0.42258320156E-01  0.72670784883E-01  0.11048442112E+00  0.00000000000E+00 0. -1.
<mgrwt>
<rscale>  1 0.66067094E+03</rscale>
<asrwt>0</asrwt>
<pdfrwt beam="1">  1        1 0.39714688E+00 0.66067094E+03</pdfrwt>
<pdfrwt beam="2">0</pdfrwt>
<totfact> 0.13748373E+00</totfact>
</mgrwt>
</event>
<event>
 6    1  0.3781527E-003  0.6440087E+03  0.7818608E-02  0.9818087E-01
          1   -1    0    0  502    0  0.00000000000E+00  0.00000000000E+00  0.10368723716E+03  0.10368723716E+03  0.00000000000E+00 0.  1.
         13   -1    0    0    0    0 -0.00000000000E+00 -0.00000000000E+00 -0.10000000000E+04  0.10000000000E+04  0.00000000000E+00 0.  1.
    9000005    2    1    2  501    0  0.32311994872E-04 -0.65068144863E-05 -0.89631318487E+03  0.11036868138E+04  0.64400874039E+03 0.  0.
         13    1    3    3    0    0 -0.63058220303E+02  0.20736545546E+03 -0.85627300502E+03  0.88327811611E+03  0.00000000000E+00 0.  1.
          3    1    3    3  501    0  0.63058252615E+02 -0.20736546196E+03 -0.40040179844E+02  0.22040869774E+03  0.00000000000E+00 0.  1.
         21    1    1    2  502  501 -0.32311994869E-04  0.65068144764E-05  0.42202400701E-03  0.42330918504E-03  0.00000000000E+00 0.  1.
<mgrwt>
<rscale>  1 0.64400874E+03</rscale>
<asrwt>0</asrwt>
<pdfrwt beam="1">  1        1 0.37704529E+00 0.64400874E+03</pdfrwt>
<pdfrwt beam="2">0</pdfrwt>
<totfact> 0.16928046E+00</totfact>
</mgrwt>
</event>
<event>
 6    1  0.3781527E-003  0.6453930E+03  0.7818608E-02  0.9815463E-01
          1   -1    0    0  502    0  0.00000000000E+00  0.00000000000E+00  0.10413402506E+03  0.10413402506E+03  0.00000000000E+00 0.  1.
         13   -1    0    0    0    0 -0.00000000000E+00 -0.00000000000E+00 -0.10000000000E+04  0.10000000000E+04  0.00000000000E+00 0.  1.
    9000005    2    1    2  501    0  0.43631992725E-04 -0.31817635460E-04 -0.89586697625E+03  0.11041330223E+04  0.64539297470E+03 0.  0.
         13    1    3    3    0    0  0.20605666374E+03 -0.23773181135E+03 -0.32507440893E+03  0.45238162445E+03  0.00000000000E+00 0.  1.
          1    1    3    3  501    0 -0.20605662011E+03  0.23773177953E+03 -0.57079256732E+03  0.65175139785E+03  0.00000000000E+00 0.  1.
         21    1    1    2  502  501 -0.43631992733E-04  0.31817635449E-04  0.10013125299E-02  0.10027676178E-02  0.00000000000E+00 0.  1.
<mgrwt>
<rscale>  1 0.64539297E+03</rscale>
<asrwt>0</asrwt>
<pdfrwt beam="1">  1        1 0.37866998E+00 0.64539297E+03</pdfrwt>
<pdfrwt beam="2">0</pdfrwt>
<totfact> 0.16646979E+00</totfact>
</mgrwt>
</event>
<event>
 6    1  0.3781527E-003  0.6707238E+03  0.7818608E-02  0.9768651E-01
          1   -1    0    0  502    0  0.00000000000E+00  0.00000000000E+00  0.11247408656E+03  0.11247408656E+03  0.00000000000E+00 0.  1.
         13   -1    0    0    0    0 -0.00000000000E+00 -0.00000000000E+00 -0.10000000000E+04  0.10000000000E+04  0.00000000000E+00 0.  1.
    9000005    2    1    2  501    0 -0.69653806918E-04 -0.10859399987E-03 -0.88753238370E+03  0.11124676150E+04  0.67072383461E+03 0.  0.
         13    1    3    3    0    0 -0.98129664945E+02 -0.26078394479E+03 -0.75330861902E+03  0.80318837920E+03  0.00000000000E+00 0.  1.
          3    1    3    3  501    0  0.98129595291E+02  0.26078383620E+03 -0.13422376469E+03  0.30927923580E+03  0.00000000000E+00 0.  1.
         21    1    1    2  502  501  0.69653806913E-04  0.10859399984E-03  0.64702676538E-02  0.64715537409E-02  0.00000000000E+00 0.  1.
<mgrwt>
<rscale>  1 0.67072383E+03</rscale>
<asrwt>0</asrwt>
<pdfrwt beam="1">  1        1 0.40899754E+00 0.67072383E+03</pdfrwt>
<pdfrwt beam="2">0</pdfrwt>
<totfact> 0.12147611E+00</totfact>
</mgrwt>
</event>
<event>
 6    1  0.3781527E-003  0.6621161E+03  0.7818608E-02  0.9784306E-01
          1   -1    0    0  502    0  0.00000000000E+00  0.00000000000E+00  0.11710371357E+03  0.11710371357E+03  0.00000000000E+00 0.  1.
         13   -1    0    0    0    0 -0.00000000000E+00 -0.00000000000E+00 -0.10000000000E+04  0.10000000000E+04  0.00000000000E+00 0.  1.
    9000005    2    1    2  501    0 -0.13872362053E+02  0.84118654440E+01 -0.87890553465E+03  0.11003965891E+04  0.66191730035E+03 0.  0.
         13    1    3    3    0    0  0.23506284411E+03 -0.20485915274E+02 -0.80537115858E+03  0.83922399660E+03  0.00000000000E+00 0.  1.
          1    1    3    3  501    0 -0.24893520616E+03  0.28897780718E+02 -0.73534376074E+02  0.26117259248E+03  0.00000000000E+00 0.  1.
         21    1    1    2  502  501  0.13872362053E+02 -0.84118654440E+01 -0.39907517772E+01  0.16707124496E+02  0.00000000000E+00 0. -1.
<mgrwt>
<rscale>  1 0.66211609E+03</rscale>
<asrwt>0</asrwt>
<pdfrwt beam="1">  1        1 0.42583258E+00 0.66211609E+03</pdfrwt>
<pdfrwt beam="2">0</pdfrwt>
<totfact> 0.10217850E+00</totfact>
</mgrwt>
</event>
<event>
 6    1  0.3781527E-003  0.6463039E+03  0.7818608E-02  0.9813739E-01
          1   -1    0    0  502    0  0.00000000000E+00  0.00000000000E+00  0.10442744149E+03  0.10442744149E+03  0.00000000000E+00 0.  1.
         13   -1    0    0    0    0 -0.00000000000E+00 -0.00000000000E+00 -0.10000000000E+04  0.10000000000E+04  0.00000000000E+00 0.  1.
    9000005    2    1    2  501    0  0.38404347123E-04  0.13669829627E-04 -0.89557281210E+03  0.11044271846E+04  0.64630391024E+03 0.  0.
         13    1    3    3    0    0 -0.13641614411E+03  0.24368418032E+03 -0.16994506352E+03  0.32691385521E+03  0.00000000000E+00 0.  1.
          1    1    3    3  501    0  0.13641618252E+03 -0.24368416665E+03 -0.72562774858E+03  0.77751332943E+03  0.00000000000E+00 0.  1.
         21    1    1    2  502  501 -0.38404347125E-04 -0.13669829623E-04  0.25359531277E-03  0.25685081425E-03  0.00000000000E+00 0.  1.
<mgrwt>
<rscale>  1 0.64630391E+03</rscale>
<asrwt>0</asrwt>
<pdfrwt beam="1">  1        1 0.37973695E+00 0.64630391E+03</pdfrwt>
<pdfrwt beam="2">0</pdfrwt>
<totfact> 0.16464815E+00</totfact>
</mgrwt>
</event>
<event>
 6    1  0.3781527E-003  0.6452175E+03  0.7818608E-02  0.9815795E-01
          1   -1    0    0  502    0  0.00000000000E+00  0.00000000000E+00  0.10637563925E+03  0.10637563925E+03  0.00000000000E+00 0.  1.
         13   -1    0    0    0    0 -0.00000000000E+00 -0.00000000000E+00 -0.10000000000E+04  0.10000000000E+04  0.00000000000E+00 0.  1.
    9000005    2    1    2  501    0  0.16748180494E+00 -0.14190127402E+01 -0.89567598922E+03  0.11038754739E+04  0.64521588837E+03 0.  0.
         13    1    3    3    0    0 -0.14405853952E+03  0.28789127241E+03 -0.45201779137E+03  0.55493633081E+03  0.00000000000E+00 0.  1.
          3    1    3    3  501    0  0.14422602133E+03 -0.28931028515E+03 -0.44365819785E+03  0.54893914311E+03  0.00000000000E+00 0.  1.
         21    1    1    2  502  501 -0.16748180494E+00  0.14190127402E+01  0.20516284689E+01  0.25001653318E+01  0.00000000000E+00 0. -1.
<mgrwt>
<rscale>  1 0.64521747E+03</rscale>
<asrwt>0</asrwt>
<pdfrwt beam="1">  1        1 0.38682132E+00 0.64521747E+03</pdfrwt>
<pdfrwt beam="2">0</pdfrwt>
<totfact> 0.15322834E+00</totfact>
</mgrwt>
</event>
<event>
 6    1  0.3781527E-003  0.6641262E+03  0.7818608E-02  0.9780628E-01
          1   -1    0    0  502    0  0.00000000000E+00  0.00000000000E+00  0.11150055268E+03  0.11150055268E+03  0.00000000000E+00 0.  1.
         13   -1    0    0    0    0 -0.00000000000E+00 -0.00000000000E+00 -0.10000000000E+04  0.10000000000E+04  0.00000000000E+00 0.  1.
    9000005    2    1    2  501    0 -0.23351973358E+01 -0.14458508956E+01 -0.88770670777E+03  0.11086418699E+04  0.66412051088E+03 0.  0.
         13    1    3    3    0    0 -0.25061000954E+03  0.20293268725E+03 -0.30915522707E+03  0.44672587440E+03  0.00000000000E+00 0.  1.
          3    1    3    3  501    0  0.24827481221E+03 -0.20437853814E+03 -0.57855148070E+03  0.66191599547E+03  0.00000000000E+00 0.  1.
         21    1    1    2  502  501  0.23351973358E+01  0.14458508956E+01 -0.79273955219E+00  0.28586828098E+01  0.00000000000E+00 0. -1.
<mgrwt>
<rscale>  1 0.66412619E+03</rscale>
<asrwt>0</asrwt>
<pdfrwt beam="1">  1        1 0.40545741E+00 0.66412619E+03</pdfrwt>
<pdfrwt beam="2">0</pdfrwt>
<totfact> 0.12614912E+00</totfact>
</mgrwt>
</event>
<event>
 6    1  0.3781527E-003  0.6582607E+03  0.7818608E-02  0.9791401E-01
          1   -1    0    0  502    0  0.00000000000E+00  0.00000000000E+00  0.10836079243E+03  0.10836079243E+03  0.00000000000E+00 0.  1.
         13   -1    0    0    0    0 -0.00000000000E+00 -0.00000000000E+00 -0.10000000000E+04  0.10000000000E+04  0.00000000000E+00 0.  1.
    9000005    2    1    2  501    0 -0.17286174349E-01 -0.46436223888E-02 -0.89167059456E+03  0.11083246605E+04  0.65826066531E+03 0.  0.
         13    1    3    3    0    0  0.16005974906E+03  0.22010861422E+03 -0.13419854217E+03  0.30344056097E+03  0.00000000000E+00 0.  1.
          3    1    3    3  501    0 -0.16007703523E+03 -0.22011325784E+03 -0.75747205239E+03  0.80488409951E+03  0.00000000000E+00 0.  1.
         21    1    1    2  502  501  0.17286174349E-01  0.46436223887E-02  0.31386987593E-01  0.36131953209E-01  0.00000000000E+00 0. -1.
<mgrwt>
<rscale>  1 0.65826067E+03</rscale>
<asrwt>0</asrwt>
<pdfrwt beam="1">  1        1 0.39404008E+00 0.65826067E+03</pdfrwt>
<pdfrwt beam="2">0</pdfrwt>
<totfact> 0.14199279E+00</totfact>
</mgrwt>
</event>
<event>
 6    1  0.3781527E-003  0.6495544E+03  0.7818608E-02  0.9807616E-01
          1   -1    0    0  502    0  0.00000000000E+00  0.00000000000E+00  0.10560911325E+03  0.10560911325E+03  0.00000000000E+00 0.  1.
         13   -1    0    0    0    0 -0.00000000000E+00 -0.00000000000E+00 -0.10000000000E+04  0.10000000000E+04  0.00000000000E+00 0.  1.
    9000005    2    1    2  501    0  0.54475789396E-01  0.18499540091E-02 -0.89451336821E+03  0.11054750508E+04  0.64955440038E+03 0.  0.
         13    1    3    3    0    0  0.67534875331E+02  0.34467596269E+02 -0.98473829976E+03  0.98765302287E+03  0.00000000000E+00 0.  1.
          3    1    3    3  501    0 -0.67480399541E+02 -0.34465746315E+02  0.90224931547E+02  0.11782202792E+03  0.00000000000E+00 0.  1.
         21    1    1    2  502  501 -0.54475789396E-01 -0.18499540091E-02  0.12248145545E+00  0.13406245145E+00  0.00000000000E+00 0. -1.
<mgrwt>
<rscale>  1 0.64955440E+03</rscale>
<asrwt>0</asrwt>
<pdfrwt beam="1">  1        1 0.38403395E+00 0.64955440E+03</pdfrwt>
<pdfrwt beam="2">0</pdfrwt>
<totfact> 0.15751429E+00</totfact>
</mgrwt>
</event>
<event>
 6    1  0.3781527E-003  0.6647674E+03  0.7818608E-02  0.9779457E-01
          1   -1    0    0  502    0  0.00000000000E+00  0.00000000000E+00  0.11113954055E+03  0.11113954055E+03  0.00000000000E+00 0.  1.
         13   -1    0    0    0    0 -0.00000000000E+00 -0.00000000000E+00 -0.10000000000E+04  0.10000000000E+04  0.00000000000E+00 0.  1.
    9000005    2    1    2  501    0 -0.84592424827E-01 -0.15263244482E+00 -0.88950826343E+03  0.11104686437E+04  0.66476734843E+03 0.  0.
         13    1    3    3    0    0 -0.48663156441E+02  0.28873883867E+03 -0.70721126543E+03  0.76543190011E+03  0.00000000000E+00 0.  1.
          1    1    3    3  501    0  0.48578564016E+02 -0.28889147112E+03 -0.18229699801E+03  0.34503674362E+03  0.00000000000E+00 0.  1.
         21    1    1    2  502  501  0.84592424827E-01  0.15263244482E+00  0.64780398249E+00  0.67089681866E+00  0.00000000000E+00 0.  1.
<mgrwt>
<rscale>  1 0.66476737E+03</rscale>
<asrwt>0</asrwt>
<pdfrwt beam="1">  1        1 0.40414464E+00 0.66476737E+03</pdfrwt>
<pdfrwt beam="2">0</pdfrwt>
<totfact> 0.12785030E+00</totfact>
</mgrwt>
</event>
<event>
 6    1  0.3781527E-003  0.7549330E+03  0.7818608E-02  0.9627643E-01
          1   -1    0    0  502    0  0.00000000000E+00  0.00000000000E+00  0.16372528030E+03  0.16372528030E+03  0.00000000000E+00 0.  1.
         13   -1    0    0    0    0 -0.00000000000E+00 -0.00000000000E+00 -0.10000000000E+04  0.10000000000E+04  0.00000000000E+00 0.  1.
    9000005    2    1    2  501    0  0.27636454461E+01  0.67379873445E+01 -0.85680291816E+03  0.11419435186E+04  0.75489782152E+03 0.  0.
         13    1    3    3    0    0 -0.32301554149E+02  0.23116320195E+01 -0.99691581645E+03  0.99744166704E+03  0.00000000000E+00 0.  1.
          1    1    3    3  501    0  0.35065199595E+02  0.44263553250E+01  0.14011289829E+03  0.14450185158E+03  0.00000000000E+00 0.  1.
         21    1    1    2  502  501 -0.27636454461E+01 -0.67379873445E+01  0.20528198461E+02  0.21781761675E+02  0.00000000000E+00 0. -1.
<mgrwt>
<rscale>  1 0.75493295E+03</rscale>
<asrwt>0</asrwt>
<pdfrwt beam="1">  1        1 0.59536591E+00 0.75493295E+03</pdfrwt>
<pdfrwt beam="2">0</pdfrwt>
<totfact> 0.14764353E-01</totfact>
</mgrwt>
</event>
<event>
 6    1  0.3781527E-003  0.6666017E+03  0.7818608E-02  0.9776116E-01
          1   -1    0    0  502    0  0.00000000000E+00  0.00000000000E+00  0.11700511240E+03  0.11700511240E+03  0.00000000000E+00 0.  1.
         13   -1    0    0    0    0 -0.00000000000E+00 -0.00000000000E+00 -0.10000000000E+04  0.10000000000E+04  0.00000000000E+00 0.  1.
    9000005    2    1    2  501    0 -0.23370136300E+00 -0.69170828352E+00 -0.88888550060E+03  0.11110694239E+04  0.66660130396E+03 0.  0.
         13    1    3    3    0    0  0.54329648736E+02 -0.16426644413E+03 -0.91976019622E+03  0.93589208456E+03  0.00000000000E+00 0.  1.
          1    1    3    3  501    0 -0.54563350099E+02  0.16357473585E+03  0.30874695623E+02  0.17517733932E+03  0.00000000000E+00 0.  1.
         21    1    1    2  502  501  0.23370136300E+00  0.69170828352E+00  0.58906130005E+01  0.59356885193E+01  0.00000000000E+00 0.  1.
<mgrwt>
<rscale>  1 0.66660170E+03</rscale>
<asrwt>0</asrwt>
<pdfrwt beam="1">  1        1 0.42547403E+00 0.66660170E+03</pdfrwt>
<pdfrwt beam="2">0</pdfrwt>
<totfact> 0.10247112E+00</totfact>
</mgrwt>
</event>
<event>
 6    1  0.3781527E-003  0.6582768E+03  0.7818608E-02  0.9791371E-01
          1   -1    0    0  502    0  0.00000000000E+00  0.00000000000E+00  0.10835168601E+03  0.10835168601E+03  0.00000000000E+00 0.  1.
         13   -1    0    0    0    0 -0.00000000000E+00 -0.00000000000E+00 -0.10000000000E+04  0.10000000000E+04  0.00000000000E+00 0.  1.
    9000005    2    1    2  501    0  0.62353084516E-03  0.14187173278E-03 -0.89166791008E+03  0.11083320795E+04  0.65827679326E+03 0.  0.
         13    1    3    3    0    0 -0.12982193434E+03  0.72532918974E+02 -0.94021103224E+03  0.95189891486E+03  0.00000000000E+00 0.  1.
          1    1    3    3  501    0  0.12982255787E+03 -0.72532777103E+02  0.48543122153E+02  0.15643316463E+03  0.00000000000E+00 0.  1.
         21    1    1    2  502  501 -0.62353084513E-03 -0.14187173278E-03  0.19596096103E-01  0.19606526994E-01  0.00000000000E+00 0. -1.
<mgrwt>
<rscale>  1 0.65827679E+03</rscale>
<asrwt>0</asrwt>
<pdfrwt beam="1">  1        1 0.39400696E+00 0.65827679E+03</pdfrwt>
<pdfrwt beam="2">0</pdfrwt>
<totfact> 0.14204049E+00</totfact>
</mgrwt>
</event>
<event>
 6    1  0.3781527E-003  0.6648527E+03  0.7818608E-02  0.9779302E-01
          1   -1    0    0  502    0  0.00000000000E+00  0.00000000000E+00  0.11124937343E+03  0.11124937343E+03  0.00000000000E+00 0.  1.
         13   -1    0    0    0    0 -0.00000000000E+00 -0.00000000000E+00 -0.10000000000E+04  0.10000000000E+04  0.00000000000E+00 0.  1.
    9000005    2    1    2  501    0  0.37152115057E-01  0.17923311244E+01 -0.88798509345E+03  0.11093000474E+04  0.66485025010E+03 0.  0.
         13    1    3    3    0    0 -0.28656520232E+03  0.15082596304E+03 -0.57264199183E+03  0.65786543997E+03  0.00000000000E+00 0.  1.
          3    1    3    3  501    0  0.28660235443E+03 -0.14903363191E+03 -0.31534310163E+03  0.45143460739E+03  0.00000000000E+00 0.  1.
         21    1    1    2  502  501 -0.37152115057E-01 -0.17923311244E+01 -0.76553312148E+00  0.19493260628E+01  0.00000000000E+00 0. -1.
<mgrwt>
<rscale>  1 0.66485267E+03</rscale>
<asrwt>0</asrwt>
<pdfrwt beam="1">  1        1 0.40454403E+00 0.66485267E+03</pdfrwt>
<pdfrwt beam="2">0</pdfrwt>
<totfact> 0.12732373E+00</totfact>
</mgrwt>
</event>
<event>
 6    1  0.3781527E-003  0.6633199E+03  0.7818608E-02  0.9782101E-01
          1   -1    0    0  502    0  0.00000000000E+00  0.00000000000E+00  0.11027003428E+03  0.11027003428E+03  0.00000000000E+00 0.  1.
         13   -1    0    0    0    0 -0.00000000000E+00 -0.00000000000E+00 -0.10000000000E+04  0.10000000000E+04  0.00000000000E+00 0.  1.
    9000005    2    1    2  501    0  0.14412870279E-01 -0.22838230059E-02 -0.89000144356E+03  0.11099981645E+04  0.66331994958E+03 0.  0.
         13    1    3    3    0    0  0.29200150002E+03  0.83836970912E+02 -0.22232214370E+03  0.37645803124E+03  0.00000000000E+00 0.  1.
          1    1    3    3  501    0 -0.29198708715E+03 -0.83839254735E+02 -0.66767929986E+03  0.73354013329E+03  0.00000000000E+00 0.  1.
         21    1    1    2  502  501 -0.14412870279E-01  0.22838230059E-02  0.27147783280E+00  0.27186974892E+00  0.00000000000E+00 0. -1.
<mgrwt>
<rscale>  1 0.66331995E+03</rscale>
<asrwt>0</asrwt>
<pdfrwt beam="1">  1        1 0.40098279E+00 0.66331995E+03</pdfrwt>
<pdfrwt beam="2">0</pdfrwt>
<totfact> 0.13211128E+00</totfact>
</mgrwt>
</event>
<event>
 6    1  0.3781527E-003  0.6470435E+03  0.7818608E-02  0.9812343E-01
          1   -1    0    0  502    0  0.00000000000E+00  0.00000000000E+00  0.10880284355E+03  0.10880284355E+03  0.00000000000E+00 0.  1.
         13   -1    0    0    0    0 -0.00000000000E+00 -0.00000000000E+00 -0.10000000000E+04  0.10000000000E+04  0.00000000000E+00 0.  1.
    9000005    2    1    2  501    0  0.71471884216E+00 -0.60605133668E+00 -0.89527498478E+03  0.11046187301E+04  0.64704278256E+03 0.  0.
         13    1    3    3    0    0  0.11053354445E+03  0.29886821336E+03 -0.54129581104E+03  0.62812501022E+03  0.00000000000E+00 0.  1.
          1    1    3    3  501    0 -0.10981882561E+03 -0.29947426470E+03 -0.35397917374E+03  0.47649371991E+03  0.00000000000E+00 0.  1.
         21    1    1    2  502  501 -0.71471884216E+00  0.60605133668E+00  0.40778283268E+01  0.41841134197E+01  0.00000000000E+00 0. -1.
<mgrwt>
<rscale>  1 0.64704346E+03</rscale>
<asrwt>0</asrwt>
<pdfrwt beam="1">  1        1 0.39564754E+00 0.64704346E+03</pdfrwt>
<pdfrwt beam="2">0</pdfrwt>
<totfact> 0.13997001E+00</totfact>
</mgrwt>
</event>
<event>
 6    1  0.3781527E-003  0.6399175E+03  0.7818608E-02  0.9825884E-01
          1   -1    0    0  502    0  0.00000000000E+00  0.00000000000E+00  0.10241052593E+03  0.10241052593E+03  0.00000000000E+00 0.  1.
         13   -1    0    0    0    0 -0.00000000000E+00 -0.00000000000E+00 -0.10000000000E+04  0.10000000000E+04  0.00000000000E+00 0.  1.
    9000005    2    1    2  501    0 -0.41304104247E-02 -0.24219653168E-03 -0.89762627682E+03  0.11023734913E+04  0.63991748024E+03 0.  0.
         13    1    3    3    0    0 -0.38097063734E+02 -0.31596845580E+02  0.95738957237E+02  0.10777613302E+03  0.00000000000E+00 0.  1.
          1    1    3    3  501    0  0.38092933324E+02  0.31596603384E+02 -0.99336523406E+03  0.99459735831E+03  0.00000000000E+00 0.  1.
         21    1    1    2  502  501  0.41304104247E-02  0.24219653168E-03  0.36802752999E-01  0.37034599738E-01  0.00000000000E+00 0. -1.
<mgrwt>
<rscale>  1 0.63991748E+03</rscale>
<asrwt>0</asrwt>
<pdfrwt beam="1">  1        1 0.37240270E+00 0.63991748E+03</pdfrwt>
<pdfrwt beam="2">0</pdfrwt>
<totfact> 0.17756816E+00</totfact>
</mgrwt>
</event>
<event>
 6    1  0.3781527E-003  0.7097462E+03  0.7818608E-02  0.9700709E-01
          1   -1    0    0  502    0  0.00000000000E+00  0.00000000000E+00  0.12595052809E+03  0.12595052809E+03  0.00000000000E+00 0.  1.
         13   -1    0    0    0    0 -0.00000000000E+00 -0.00000000000E+00 -0.10000000000E+04  0.10000000000E+04  0.00000000000E+00 0.  1.
    9000005    2    1    2  501    0  0.46306998593E-03 -0.74645723892E-03 -0.87406508317E+03  0.11259348921E+04  0.70974616006E+03 0.  0.
         13    1    3    3    0    0  0.33597998859E+03 -0.57119256331E+02 -0.59399694372E+03  0.68481934211E+03  0.00000000000E+00 0.  1.
          1    1    3    3  501    0 -0.33597952552E+03  0.57118509873E+02 -0.28006813945E+03  0.44111555003E+03  0.00000000000E+00 0.  1.
         21    1    1    2  502  501 -0.46306998591E-03  0.74645723892E-03  0.15611258606E-01  0.15635953040E-01  0.00000000000E+00 0. -1.
<mgrwt>
<rscale>  1 0.70974616E+03</rscale>
<asrwt>0</asrwt>
<pdfrwt beam="1">  1        1 0.45800289E+00 0.70974616E+03</pdfrwt>
<pdfrwt beam="2">0</pdfrwt>
<totfact> 0.72082774E-01</totfact>
</mgrwt>
</event>
<event>
 6    1  0.3781527E-003  0.6552564E+03  0.7818608E-02  0.9796966E-01
          3   -1    0    0  502    0  0.00000000000E+00  0.00000000000E+00  0.11009506779E+03  0.11009506779E+03  0.00000000000E+00 0.  1.
         13   -1    0    0    0    0 -0.00000000000E+00 -0.00000000000E+00 -0.10000000000E+04  0.10000000000E+04  0.00000000000E+00 0.  1.
    9000005    2    1    2  501    0 -0.40513176899E-01 -0.89670190344E-01 -0.89265880475E+03  0.11073394379E+04  0.65525634631E+03 0.  0.
         13    1    3    3    0    0 -0.15952275705E+03 -0.20518180767E+03 -0.78359789886E+03  0.82557419492E+03  0.00000000000E+00 0.  1.
          3    1    3    3  501    0  0.15948224387E+03  0.20509213748E+03 -0.10906090589E+03  0.28176524300E+03  0.00000000000E+00 0.  1.
         21    1    1    2  502  501  0.40513176899E-01  0.89670190344E-01  0.27538725390E+01  0.27556298775E+01  0.00000000000E+00 0.  1.
<mgrwt>
<rscale>  1 0.65525635E+03</rscale>
<asrwt>0</asrwt>
<pdfrwt beam="1">  1        3 0.40034655E+00 0.65525635E+03</pdfrwt>
<pdfrwt beam="2">0</pdfrwt>
<totfact> 0.58938635E-02</totfact>
</mgrwt>
</event>
<event>
 6    1  0.3781527E-003  0.6426267E+03  0.7818608E-02  0.9820714E-01
          1   -1    0    0  502    0  0.00000000000E+00  0.00000000000E+00  0.10324540691E+03  0.10324540691E+03  0.00000000000E+00 0.  1.
         13   -1    0    0    0    0 -0.00000000000E+00 -0.00000000000E+00 -0.10000000000E+04  0.10000000000E+04  0.00000000000E+00 0.  1.
    9000005    2    1    2  501    0  0.33947197328E-02  0.88643631082E-02 -0.89674509980E+03  0.11032319822E+04  0.64262666642E+03 0.  0.
         13    1    3    3    0    0 -0.26056723961E+03  0.98393913838E+02 -0.17334016878E+03  0.32806015112E+03  0.00000000000E+00 0.  1.
          1    1    3    3  501    0  0.26057063433E+03 -0.98385049475E+02 -0.72340493102E+03  0.77517183105E+03  0.00000000000E+00 0.  1.
         21    1    1    2  502  501 -0.33947197328E-02 -0.88643631082E-02 -0.94932917915E-02  0.13424740013E-01  0.00000000000E+00 0. -1.
<mgrwt>
<rscale>  1 0.64262667E+03</rscale>
<asrwt>0</asrwt>
<pdfrwt beam="1">  1        1 0.37543864E+00 0.64262667E+03</pdfrwt>
<pdfrwt beam="2">0</pdfrwt>
<totfact> 0.17210481E+00</totfact>
</mgrwt>
</event>
<event>
 6    1  0.3781527E-003  0.6549560E+03  0.7818608E-02  0.9797524E-01
          1   -1    0    0  502    0  0.00000000000E+00  0.00000000000E+00  0.10724308832E+03  0.10724308832E+03  0.00000000000E+00 0.  1.
         13   -1    0    0    0    0 -0.00000000000E+00 -0.00000000000E+00 -0.10000000000E+04  0.10000000000E+04  0.00000000000E+00 0.  1.
    9000005    2    1    2  501    0 -0.55674668971E-04 -0.14816168760E-03 -0.89275815016E+03  0.11072418398E+04  0.65495601153E+03 0.  0.
         13    1    3    3    0    0 -0.11037331312E+03 -0.28282835543E+03 -0.23886178696E+03  0.38630182520E+03  0.00000000000E+00 0.  1.
          1    1    3    3  501    0  0.11037325745E+03  0.28282820727E+03 -0.65389636320E+03  0.72094001456E+03  0.00000000000E+00 0.  1.
         21    1    1    2  502  501  0.55674668967E-04  0.14816168758E-03  0.12384801758E-02  0.12485530426E-02  0.00000000000E+00 0. -1.
<mgrwt>
<rscale>  1 0.65495601E+03</rscale>
<asrwt>0</asrwt>
<pdfrwt beam="1">  1        1 0.38997569E+00 0.65495601E+03</pdfrwt>
<pdfrwt beam="2">0</pdfrwt>
<totfact> 0.14810749E+00</totfact>
</mgrwt>
</event>
<event>
 6    1  0.3781527E-003  0.5674809E+03  0.7818608E-02  0.9975269E-01
          1   -1    0    0  502    0  0.00000000000E+00  0.00000000000E+00  0.80514486770E+02  0.80514486770E+02  0.00000000000E+00 0.  1.
         13   -1    0    0    0    0 -0.00000000000E+00 -0.00000000000E+00 -0.10000000000E+04  0.10000000000E+04  0.00000000000E+00 0.  1.
    9000005    2    1    2  501    0 -0.39314332486E-02 -0.18860316526E-02 -0.91949047111E+03  0.10805078842E+04  0.56748089072E+03 0.  0.
         13    1    3    3    0    0 -0.22868663850E+03  0.13375282811E+03 -0.26630262051E+03  0.37563876710E+03  0.00000000000E+00 0.  1.
          1    1    3    3  501    0  0.22868270707E+03 -0.13375471414E+03 -0.65318785061E+03  0.70486911710E+03  0.00000000000E+00 0.  1.
         21    1    1    2  502  501  0.39314332486E-02  0.18860316526E-02  0.49578841699E-02  0.66025675479E-02  0.00000000000E+00 0.  1.
<mgrwt>
<rscale>  1 0.56748089E+03</rscale>
<asrwt>0</asrwt>
<pdfrwt beam="1">  1        1 0.29278057E+00 0.56748089E+03</pdfrwt>
<pdfrwt beam="2">0</pdfrwt>
<totfact> 0.39869835E+00</totfact>
</mgrwt>
</event>
<event>
 6    1  0.3781527E-003  0.6434368E+03  0.7818608E-02  0.9819173E-01
          1   -1    0    0  502    0  0.00000000000E+00  0.00000000000E+00  0.10364874178E+03  0.10364874178E+03  0.00000000000E+00 0.  1.
         13   -1    0    0    0    0 -0.00000000000E+00 -0.00000000000E+00 -0.10000000000E+04  0.10000000000E+04  0.00000000000E+00 0.  1.
    9000005    2    1    2  501    0 -0.39105454086E-01  0.67795777385E-02 -0.89649428759E+03  0.11035003080E+04  0.64343680374E+03 0.  0.
         13    1    3    3    0    0 -0.27096566201E+03  0.81283396906E+02 -0.18545202030E+03  0.33826296344E+03  0.00000000000E+00 0.  1.
          1    1    3    3  501    0  0.27092655655E+03 -0.81276617328E+02 -0.71104226729E+03  0.76523734452E+03  0.00000000000E+00 0.  1.
         21    1    1    2  502  501  0.39105454086E-01 -0.67795777385E-02  0.14302936928E+00  0.14843382259E+00  0.00000000000E+00 0. -1.
<mgrwt>
<rscale>  1 0.64343680E+03</rscale>
<asrwt>0</asrwt>
<pdfrwt beam="1">  1        1 0.37690531E+00 0.64343680E+03</pdfrwt>
<pdfrwt beam="2">0</pdfrwt>
<totfact> 0.16953880E+00</totfact>
</mgrwt>
</event>
<event>
 6    1  0.3781527E-003  0.6251348E+03  0.7818608E-02  0.9854589E-01
          1   -1    0    0  502    0  0.00000000000E+00  0.00000000000E+00  0.98558698269E+02  0.98558698269E+02  0.00000000000E+00 0.  1.
         13   -1    0    0    0    0 -0.00000000000E+00 -0.00000000000E+00 -0.10000000000E+04  0.10000000000E+04  0.00000000000E+00 0.  1.
    9000005    2    1    2  501    0 -0.20417470119E+01 -0.39654847365E+00 -0.90063316789E+03  0.10963273171E+04  0.62513131194E+03 0.  0.
         13    1    3    3    0    0  0.10988031542E+03 -0.15873194037E+03 -0.88046669151E+03  0.90138288617E+03  0.00000000000E+00 0.  1.
          3    1    3    3  501    0 -0.11192206243E+03  0.15833539190E+03 -0.20166476377E+02  0.19494443095E+03  0.00000000000E+00 0.  1.
         21    1    1    2  502  501  0.20417470119E+01  0.39654847365E+00 -0.80813383989E+00  0.22313811543E+01  0.00000000000E+00 0.  1.
<mgrwt>
<rscale>  1 0.62513477E+03</rscale>
<asrwt>0</asrwt>
<pdfrwt beam="1">  1        1 0.35839602E+00 0.62513477E+03</pdfrwt>
<pdfrwt beam="2">0</pdfrwt>
<totfact> 0.20508019E+00</totfact>
</mgrwt>
</event>
<event>
 6    1  0.3781527E-003  0.6548378E+03  0.7818608E-02  0.9797744E-01
          1   -1    0    0  502    0  0.00000000000E+00  0.00000000000E+00  0.10720333744E+03  0.10720333744E+03  0.00000000000E+00 0.  1.
         13   -1    0    0    0    0 -0.00000000000E+00 -0.00000000000E+00 -0.10000000000E+04  0.10000000000E+04  0.00000000000E+00 0.  1.
    9000005    2    1    2  501    0 -0.14577971363E-03  0.13850927368E-03 -0.89279682141E+03  0.11072030812E+04  0.65483776514E+03 0.  0.
         13    1    3    3    0    0  0.87704806165E+01  0.16279851090E+03  0.33691582179E+02  0.16647942573E+03  0.00000000000E+00 0.  1.
          1    1    3    3  501    0 -0.87706263962E+01 -0.16279837239E+03 -0.92648840359E+03  0.94072365545E+03  0.00000000000E+00 0.  1.
         21    1    1    2  502  501  0.14577971362E-03 -0.13850927367E-03  0.15885142499E-03  0.25626220755E-03  0.00000000000E+00 0.  1.
<mgrwt>
<rscale>  1 0.65483777E+03</rscale>
<asrwt>0</asrwt>
<pdfrwt beam="1">  1        1 0.38983114E+00 0.65483777E+03</pdfrwt>
<pdfrwt beam="2">0</pdfrwt>
<totfact> 0.14832951E+00</totfact>
</mgrwt>
</event>
<event>
 6    1  0.3781527E-003  0.5064802E+03  0.7818608E-02  0.1012101E+00
          1   -1    0    0  502    0  0.00000000000E+00  0.00000000000E+00  0.64130677754E+02  0.64130677754E+02  0.00000000000E+00 0.  1.
         13   -1    0    0    0    0 -0.00000000000E+00 -0.00000000000E+00 -0.10000000000E+04  0.10000000000E+04  0.00000000000E+00 0.  1.
    9000005    2    1    2  501    0  0.18984320710E-03  0.35155997827E-03 -0.93586899597E+03  0.10641301619E+04  0.50648023049E+03 0.  0.
         13    1    3    3    0    0 -0.23740958153E+03 -0.71292227283E+02 -0.35907341642E+03  0.43632511898E+03  0.00000000000E+00 0.  1.
          1    1    3    3  501    0  0.23740977138E+03  0.71292578843E+02 -0.57679557955E+03  0.62780504293E+03  0.00000000000E+00 0.  1.
         21    1    1    2  502  501 -0.18984320709E-03 -0.35155997828E-03 -0.32627630893E-03  0.51584018007E-03  0.00000000000E+00 0.  1.
<mgrwt>
<rscale>  1 0.50648023E+03</rscale>
<asrwt>0</asrwt>
<pdfrwt beam="1">  1        1 0.23320296E+00 0.50648023E+03</pdfrwt>
<pdfrwt beam="2">0</pdfrwt>
<totfact> 0.73049425E+00</totfact>
</mgrwt>
</event>
<event>
 6    1  0.3781527E-003  0.6545582E+03  0.7818608E-02  0.9798263E-01
          1   -1    0    0  502    0  0.00000000000E+00  0.00000000000E+00  0.10711291794E+03  0.10711291794E+03  0.00000000000E+00 0.  1.
         13   -1    0    0    0    0 -0.00000000000E+00 -0.00000000000E+00 -0.10000000000E+04  0.10000000000E+04  0.00000000000E+00 0.  1.
    9000005    2    1    2  501    0  0.16796612495E-03 -0.22831518208E-04 -0.89288837429E+03  0.11071116146E+04  0.65455823144E+03 0.  0.
         13    1    3    3    0    0  0.30729629931E+00  0.31853430374E+03 -0.31933760765E+03  0.45104401642E+03  0.00000000000E+00 0.  1.
          3    1    3    3  501    0 -0.30712833319E+00 -0.31853432657E+03 -0.57355076664E+03  0.65606759823E+03  0.00000000000E+00 0.  1.
         21    1    1    2  502  501 -0.16796612495E-03  0.22831518218E-04  0.12922262424E-02  0.13032968039E-02  0.00000000000E+00 0. -1.
<mgrwt>
<rscale>  1 0.65455823E+03</rscale>
<asrwt>0</asrwt>
<pdfrwt beam="1">  1        1 0.38950234E+00 0.65455823E+03</pdfrwt>
<pdfrwt beam="2">0</pdfrwt>
<totfact> 0.14883599E+00</totfact>
</mgrwt>
</event>
<event>
 6    1  0.3781527E-003  0.6623336E+03  0.7818608E-02  0.9783907E-01
          1   -1    0    0  502    0  0.00000000000E+00  0.00000000000E+00  0.10968394887E+03  0.10968394887E+03  0.00000000000E+00 0.  1.
         13   -1    0    0    0    0 -0.00000000000E+00 -0.00000000000E+00 -0.10000000000E+04  0.10000000000E+04  0.00000000000E+00 0.  1.
    9000005    2    1    2  501    0 -0.11688475979E-02  0.57890434940E-03 -0.89032851730E+03  0.11096714146E+04  0.66233358646E+03 0.  0.
         13    1    3    3    0    0 -0.27246700183E+03 -0.70584515398E+02 -0.73752647485E+03  0.78940847601E+03  0.00000000000E+00 0.  1.
          3    1    3    3  501    0  0.27246583299E+03  0.70585094302E+02 -0.15280204246E+03  0.32026293863E+03  0.00000000000E+00 0.  1.
         21    1    1    2  502  501  0.11688475979E-02 -0.57890434941E-03  0.12466175874E-01  0.12534228172E-01  0.00000000000E+00 0. -1.
<mgrwt>
<rscale>  1 0.66233359E+03</rscale>
<asrwt>0</asrwt>
<pdfrwt beam="1">  1        1 0.39885156E+00 0.66233359E+03</pdfrwt>
<pdfrwt beam="2">0</pdfrwt>
<totfact> 0.13505895E+00</totfact>
</mgrwt>
</event>
<event>
 6    1  0.3781527E-003  0.6452261E+03  0.7818608E-02  0.9815779E-01
          1   -1    0    0  502    0  0.00000000000E+00  0.00000000000E+00  0.10407926789E+03  0.10407926789E+03  0.00000000000E+00 0.  1.
         13   -1    0    0    0    0 -0.00000000000E+00 -0.00000000000E+00 -0.10000000000E+04  0.10000000000E+04  0.00000000000E+00 0.  1.
    9000005    2    1    2  501    0  0.81717015235E-05 -0.16298728269E-04 -0.89592082469E+03  0.11040791735E+04  0.64522608232E+03 0.  0.
         13    1    3    3    0    0  0.92723431222E+02 -0.29519928592E+03 -0.29170202053E+03  0.42524148655E+03  0.00000000000E+00 0.  1.
          1    1    3    3  501    0 -0.92723423050E+02  0.29519926962E+03 -0.60421880416E+03  0.67883768698E+03  0.00000000000E+00 0.  1.
         21    1    1    2  502  501 -0.81717015224E-05  0.16298728256E-04  0.92575873191E-04  0.94354213184E-04  0.00000000000E+00 0. -1.
<mgrwt>
<rscale>  1 0.64522608E+03</rscale>
<asrwt>0</asrwt>
<pdfrwt beam="1">  1        1 0.37847086E+00 0.64522608E+03</pdfrwt>
<pdfrwt beam="2">0</pdfrwt>
<totfact> 0.16681177E+00</totfact>
</mgrwt>
</event>
<event>
 6    1  0.3781527E-003  0.4766325E+03  0.7818608E-02  0.1020065E+00
          1   -1    0    0  502    0  0.00000000000E+00  0.00000000000E+00  0.56858845122E+02  0.56858845122E+02  0.00000000000E+00 0.  1.
         13   -1    0    0    0    0 -0.00000000000E+00 -0.00000000000E+00 -0.10000000000E+04  0.10000000000E+04  0.00000000000E+00 0.  1.
    9000005    2    1    2  501    0 -0.46721770061E-02  0.13201716810E-02 -0.94320526424E+03  0.10567945522E+04  0.47663251567E+03 0.  0.
         13    1    3    3    0    0 -0.21141510728E+03  0.98598960620E+01 -0.71451100529E+03  0.74519765285E+03  0.00000000000E+00 0.  1.
          1    1    3    3  501    0  0.21141043511E+03 -0.98585758903E+01 -0.22869425895E+03  0.31159689932E+03  0.00000000000E+00 0.  1.
         21    1    1    2  502  501  0.46721770061E-02 -0.13201716810E-02  0.64109364330E-01  0.64292944295E-01  0.00000000000E+00 0.  1.
<mgrwt>
<rscale>  1 0.47663252E+03</rscale>
<asrwt>0</asrwt>
<pdfrwt beam="1">  1        1 0.20675987E+00 0.47663252E+03</pdfrwt>
<pdfrwt beam="2">0</pdfrwt>
<totfact> 0.96182467E+00</totfact>
</mgrwt>
</event>
<event>
 6    1  0.3781527E-003  0.6515915E+03  0.7818608E-02  0.9803797E-01
          1   -1    0    0  502    0  0.00000000000E+00  0.00000000000E+00  0.10757726761E+03  0.10757726761E+03  0.00000000000E+00 0.  1.
         13   -1    0    0    0    0 -0.00000000000E+00 -0.00000000000E+00 -0.10000000000E+04  0.10000000000E+04  0.00000000000E+00 0.  1.
    9000005    2    1    2  501    0  0.64287727783E-01 -0.79772009047E+00 -0.89373260705E+03  0.11060422556E+04  0.65159102034E+03 0.  0.
         13    1    3    3    0    0 -0.27108119777E+02  0.15824158223E+03 -0.92742457579E+03  0.94121814277E+03  0.00000000000E+00 0.  1.
          1    1    3    3  501    0  0.27172407505E+02 -0.15903930232E+03  0.33691968742E+02  0.16482411283E+03  0.00000000000E+00 0.  1.
         21    1    1    2  502  501 -0.64287727783E-01  0.79772009047E+00  0.13098746625E+01  0.15350120150E+01  0.00000000000E+00 0.  1.
<mgrwt>
<rscale>  1 0.65159151E+03</rscale>
<asrwt>0</asrwt>
<pdfrwt beam="1">  1        1 0.39119089E+00 0.65159151E+03</pdfrwt>
<pdfrwt beam="2">0</pdfrwt>
<totfact> 0.14637212E+00</totfact>
</mgrwt>
</event>
<event>
 6    1  0.3781527E-003  0.6527379E+03  0.7818608E-02  0.9801655E-01
          1   -1    0    0  502    0  0.00000000000E+00  0.00000000000E+00  0.11221412318E+03  0.11221412318E+03  0.00000000000E+00 0.  1.
         13   -1    0    0    0    0 -0.00000000000E+00 -0.00000000000E+00 -0.10000000000E+04  0.10000000000E+04  0.00000000000E+00 0.  1.
    9000005    2    1    2  501    0 -0.38758864111E+01  0.42384918890E+01 -0.89183551152E+03  0.11051865454E+04  0.65271259611E+03 0.  0.
         13    1    3    3    0    0 -0.29940179023E+03  0.13636216949E+03 -0.45473783323E+03  0.56126871482E+03  0.00000000000E+00 0.  1.
          1    1    3    3  501    0  0.29552590382E+03 -0.13212367760E+03 -0.43709767828E+03  0.54391783053E+03  0.00000000000E+00 0.  1.
         21    1    1    2  502  501  0.38758864111E+01 -0.42384918890E+01  0.40496346992E+01  0.70275778304E+01  0.00000000000E+00 0.  1.
<mgrwt>
<rscale>  1 0.65273787E+03</rscale>
<asrwt>0</asrwt>
<pdfrwt beam="1">  1        1 0.40805222E+00 0.65273787E+03</pdfrwt>
<pdfrwt beam="2">0</pdfrwt>
<totfact> 0.12308757E+00</totfact>
</mgrwt>
</event>
<event>
 6    1  0.3781527E-003  0.6595321E+03  0.7818608E-02  0.9789055E-01
          1   -1    0    0  502    0  0.00000000000E+00  0.00000000000E+00  0.10874565252E+03  0.10874565252E+03  0.00000000000E+00 0.  1.
         13   -1    0    0    0    0 -0.00000000000E+00 -0.00000000000E+00 -0.10000000000E+04  0.10000000000E+04  0.00000000000E+00 0.  1.
    9000005    2    1    2  501    0 -0.61194553069E-05  0.68024826021E-05 -0.89125435621E+03  0.11087456399E+04  0.65953208146E+03 0.  0.
         13    1    3    3    0    0  0.10445845183E+03  0.22317048875E+03 -0.77203272325E+02  0.25821886156E+03  0.00000000000E+00 0.  1.
          1    1    3    3  501    0 -0.10445845795E+03 -0.22317048195E+03 -0.81405108389E+03  0.85052677831E+03  0.00000000000E+00 0.  1.
         21    1    1    2  502  501  0.61194553021E-05 -0.68024826027E-05  0.87339782275E-05  0.12649263948E-04  0.00000000000E+00 0. -1.
<mgrwt>
<rscale>  1 0.65953208E+03</rscale>
<asrwt>0</asrwt>
<pdfrwt beam="1">  1        1 0.39543957E+00 0.65953208E+03</pdfrwt>
<pdfrwt beam="2">0</pdfrwt>
<totfact> 0.13993975E+00</totfact>
</mgrwt>
</event>
<event>
 6    1  0.3781527E-003  0.6424687E+03  0.7818608E-02  0.9821015E-01
          1   -1    0    0  502    0  0.00000000000E+00  0.00000000000E+00  0.10323095560E+03  0.10323095560E+03  0.00000000000E+00 0.  1.
         13   -1    0    0    0    0 -0.00000000000E+00 -0.00000000000E+00 -0.10000000000E+04  0.10000000000E+04  0.00000000000E+00 0.  1.
    9000005    2    1    2  501    0 -0.13008697274E-01  0.51018962023E-03 -0.89680729398E+03  0.11031905512E+04  0.64246873038E+03 0.  0.
         13    1    3    3    0    0  0.24122232814E+03  0.18087150022E+03 -0.63872366050E+03  0.70630774148E+03  0.00000000000E+00 0.  1.
          1    1    3    3  501    0 -0.24123533684E+03 -0.18087099003E+03 -0.25808363348E+03  0.39688280971E+03  0.00000000000E+00 0.  1.
         21    1    1    2  502  501  0.13008697274E-01 -0.51018962025E-03  0.38249580608E-01  0.40404417023E-01  0.00000000000E+00 0.  1.
<mgrwt>
<rscale>  1 0.64246873E+03</rscale>
<asrwt>0</asrwt>
<pdfrwt beam="1">  1        1 0.37538608E+00 0.64246873E+03</pdfrwt>
<pdfrwt beam="2">0</pdfrwt>
<totfact> 0.17220150E+00</totfact>
</mgrwt>
</event>
<event>
 6    1  0.3781527E-003  0.6694219E+03  0.7818608E-02  0.9771003E-01
          1   -1    0    0  502    0  0.00000000000E+00  0.00000000000E+00  0.11206893103E+03  0.11206893103E+03  0.00000000000E+00 0.  1.
         13   -1    0    0    0    0 -0.00000000000E+00 -0.00000000000E+00 -0.10000000000E+04  0.10000000000E+04  0.00000000000E+00 0.  1.
    9000005    2    1    2  501    0 -0.84479325483E-03  0.19132404969E-02 -0.88796853528E+03  0.11120314064E+04  0.66942193656E+03 0.  0.
         13    1    3    3    0    0  0.18428239965E+03  0.22583681868E+03 -0.71729557310E+03  0.77425784509E+03  0.00000000000E+00 0.  1.
          3    1    3    3  501    0 -0.18428324444E+03 -0.22583490544E+03 -0.17067296218E+03  0.33777356130E+03  0.00000000000E+00 0.  1.
         21    1    1    2  502  501  0.84479325480E-03 -0.19132404969E-02  0.37466306610E-01  0.37524635852E-01  0.00000000000E+00 0.  1.
<mgrwt>
<rscale>  1 0.66942194E+03</rscale>
<asrwt>0</asrwt>
<pdfrwt beam="1">  1        1 0.40752424E+00 0.66942194E+03</pdfrwt>
<pdfrwt beam="2">0</pdfrwt>
<totfact> 0.12336712E+00</totfact>
</mgrwt>
</event>
<event>
 6    1  0.3781527E-003  0.6466596E+03  0.7818608E-02  0.9813068E-01
          1   -1    0    0  502    0  0.00000000000E+00  0.00000000000E+00  0.10454246106E+03  0.10454246106E+03  0.00000000000E+00 0.  1.
         13   -1    0    0    0    0 -0.00000000000E+00 -0.00000000000E+00 -0.10000000000E+04  0.10000000000E+04  0.00000000000E+00 0.  1.
    9000005    2    1    2  501    0 -0.11394755279E-03 -0.40229607343E-04 -0.89545783279E+03  0.11045421433E+04  0.64665958286E+03 0.  0.
         13    1    3    3    0    0 -0.10500535745E+03  0.45174966759E+02  0.68875821118E+02  0.13345703972E+03  0.00000000000E+00 0.  1.
          1    1    3    3  501    0  0.10500524350E+03 -0.45175006989E+02 -0.96433365390E+03  0.97108510362E+03  0.00000000000E+00 0.  1.
         21    1    1    2  502  501  0.11394755280E-03  0.40229607343E-04  0.29384487225E-03  0.31772200907E-03  0.00000000000E+00 0. -1.
<mgrwt>
<rscale>  1 0.64665958E+03</rscale>
<asrwt>0</asrwt>
<pdfrwt beam="1">  1        1 0.38015521E+00 0.64665958E+03</pdfrwt>
<pdfrwt beam="2">0</pdfrwt>
<totfact> 0.16393930E+00</totfact>
</mgrwt>
</event>
<event>
 6    1  0.3781527E-003  0.6128778E+03  0.7818608E-02  0.9879043E-01
          1   -1    0    0  502    0  0.00000000000E+00  0.00000000000E+00  0.94323083956E+02  0.94323083956E+02  0.00000000000E+00 0.  1.
         13   -1    0    0    0    0 -0.00000000000E+00 -0.00000000000E+00 -0.10000000000E+04  0.10000000000E+04  0.00000000000E+00 0.  1.
    9000005    2    1    2  501    0 -0.98202701870E-01 -0.66418886893E-01 -0.90608600875E+03  0.10938971590E+04  0.61287774078E+03 0.  0.
         13    1    3    3    0    0 -0.29268045862E+03 -0.37327293070E+02 -0.60117322659E+03  0.66967486591E+03  0.00000000000E+00 0.  1.
          3    1    3    3  501    0  0.29258225592E+03  0.37260874183E+02 -0.30491278216E+03  0.42422229308E+03  0.00000000000E+00 0.  1.
         21    1    1    2  502  501  0.98202701870E-01  0.66418886893E-01  0.40909270211E+00  0.42592496770E+00  0.00000000000E+00 0.  1.
<mgrwt>
<rscale>  1 0.61287775E+03</rscale>
<asrwt>0</asrwt>
<pdfrwt beam="1">  1        1 0.34299376E+00 0.61287775E+03</pdfrwt>
<pdfrwt beam="2">0</pdfrwt>
<totfact> 0.23988669E+00</totfact>
</mgrwt>
</event>
<event>
 6    1  0.3781527E-003  0.6591063E+03  0.7818608E-02  0.9789840E-01
          1   -1    0    0  502    0  0.00000000000E+00  0.00000000000E+00  0.10860558879E+03  0.10860558879E+03  0.00000000000E+00 0.  1.
         13   -1    0    0    0    0 -0.00000000000E+00 -0.00000000000E+00 -0.10000000000E+04  0.10000000000E+04  0.00000000000E+00 0.  1.
    9000005    2    1    2  501    0  0.34931064215E-03 -0.17929236643E-03 -0.89139455361E+03  0.11086051711E+04  0.65910634594E+03 0.  0.
         13    1    3    3    0    0 -0.13603213750E+03  0.23923341734E+03 -0.75063185809E+03  0.79949081094E+03  0.00000000000E+00 0.  1.
          1    1    3    3  501    0  0.13603248681E+03 -0.23923359663E+03 -0.14076269552E+03  0.30911436019E+03  0.00000000000E+00 0.  1.
         21    1    1    2  502  501 -0.34931064217E-03  0.17929236642E-03  0.14239486807E-03  0.41766012000E-03  0.00000000000E+00 0.  1.
<mgrwt>
<rscale>  1 0.65910635E+03</rscale>
<asrwt>0</asrwt>
<pdfrwt beam="1">  1        1 0.39493025E+00 0.65910635E+03</pdfrwt>
<pdfrwt beam="2">0</pdfrwt>
<totfact> 0.14068268E+00</totfact>
</mgrwt>
</event>
<event>
 6    1  0.3781527E-003  0.6079606E+03  0.7818608E-02  0.9889027E-01
          1   -1    0    0  502    0  0.00000000000E+00  0.00000000000E+00  0.92427069968E+02  0.92427069968E+02  0.00000000000E+00 0.  1.
         13   -1    0    0    0    0 -0.00000000000E+00 -0.00000000000E+00 -0.10000000000E+04  0.10000000000E+04  0.00000000000E+00 0.  1.
    9000005    2    1    2  501    0 -0.15240057127E-02 -0.19143025132E-02 -0.90759590820E+03  0.10924039619E+04  0.60796059359E+03 0.  0.
         13    1    3    3    0    0 -0.11386396514E+03 -0.27244247649E+03 -0.32404376639E+03  0.43839966708E+03  0.00000000000E+00 0.  1.
          1    1    3    3  501    0  0.11386244113E+03  0.27244056219E+03 -0.58355214181E+03  0.65400429481E+03  0.00000000000E+00 0.  1.
         21    1    1    2  502  501  0.15240057127E-02  0.19143025132E-02  0.22978167365E-01  0.23108079171E-01  0.00000000000E+00 0. -1.
<mgrwt>
<rscale>  1 0.60796059E+03</rscale>
<asrwt>0</asrwt>
<pdfrwt beam="1">  1        1 0.33609914E+00 0.60796059E+03</pdfrwt>
<pdfrwt beam="2">0</pdfrwt>
<totfact> 0.25723296E+00</totfact>
</mgrwt>
</event>
<event>
 6    1  0.3781527E-003  0.6319271E+03  0.7818608E-02  0.9841295E-01
          1   -1    0    0  502    0  0.00000000000E+00  0.00000000000E+00  0.99833448125E+02  0.99833448125E+02  0.00000000000E+00 0.  1.
         13   -1    0    0    0    0 -0.00000000000E+00 -0.00000000000E+00 -0.10000000000E+04  0.10000000000E+04  0.00000000000E+00 0.  1.
    9000005    2    1    2  501    0  0.53252754005E-03 -0.57671182225E-03 -0.90016665670E+03  0.10998326562E+04  0.63192710163E+03 0.  0.
         13    1    3    3    0    0 -0.11943233302E+03 -0.26851917371E+03 -0.24811401378E+03  0.38461304275E+03  0.00000000000E+00 0.  1.
          3    1    3    3  501    0  0.11943286555E+03  0.26851859700E+03 -0.65205264291E+03  0.71521961343E+03  0.00000000000E+00 0.  1.
         21    1    1    2  502  501 -0.53252754005E-03  0.57671182223E-03  0.10482246773E-03  0.79194056378E-03  0.00000000000E+00 0.  1.
<mgrwt>
<rscale>  1 0.63192710E+03</rscale>
<asrwt>0</asrwt>
<pdfrwt beam="1">  1        1 0.36303149E+00 0.63192710E+03</pdfrwt>
<pdfrwt beam="2">0</pdfrwt>
<totfact> 0.19548448E+00</totfact>
</mgrwt>
</event>
<event>
 6    1  0.3781527E-003  0.6539493E+03  0.7818608E-02  0.9799397E-01
          1   -1    0    0  502    0  0.00000000000E+00  0.00000000000E+00  0.10691656999E+03  0.10691656999E+03  0.00000000000E+00 0.  1.
         13   -1    0    0    0    0 -0.00000000000E+00 -0.00000000000E+00 -0.10000000000E+04  0.10000000000E+04  0.00000000000E+00 0.  1.
    9000005    2    1    2  501    0 -0.70613205608E-04  0.20880658283E-03 -0.89308756242E+03  0.11069124317E+04  0.65394933850E+03 0.  0.
         13    1    3    3    0    0  0.37836883588E+02 -0.22415414318E+03 -0.84435669857E+03  0.87442263471E+03  0.00000000000E+00 0.  1.
          1    1    3    3  501    0 -0.37836954201E+02  0.22415435199E+03 -0.48730863845E+02  0.23248979700E+03  0.00000000000E+00 0.  1.
         21    1    1    2  502  501  0.70613205609E-04 -0.20880658282E-03  0.41324055300E-02  0.41382800629E-02  0.00000000000E+00 0.  1.
<mgrwt>
<rscale>  1 0.65394934E+03</rscale>
<asrwt>0</asrwt>
<pdfrwt beam="1">  1        1 0.38878835E+00 0.65394934E+03</pdfrwt>
<pdfrwt beam="2">0</pdfrwt>
<totfact> 0.14994153E+00</totfact>
</mgrwt>
</event>
<event>
 6    1  0.3781527E-003  0.6483108E+03  0.7818608E-02  0.9809954E-01
          1   -1    0    0  502    0  0.00000000000E+00  0.00000000000E+00  0.10508635712E+03  0.10508635712E+03  0.00000000000E+00 0.  1.
         13   -1    0    0    0    0 -0.00000000000E+00 -0.00000000000E+00 -0.10000000000E+04  0.10000000000E+04  0.00000000000E+00 0.  1.
    9000005    2    1    2  501    0  0.19399543929E-02  0.18824911943E-01 -0.89491166479E+03  0.11050673294E+04  0.64831081621E+03 0.  0.
         13    1    3    3    0    0  0.13982225282E+03 -0.28290152719E+03 -0.57372024389E+03  0.65478122661E+03  0.00000000000E+00 0.  1.
          1    1    3    3  501    0 -0.13982031287E+03  0.28292035210E+03 -0.32119142090E+03  0.45028610281E+03  0.00000000000E+00 0.  1.
         21    1    1    2  502  501 -0.19399543929E-02 -0.18824911943E-01 -0.19780813276E-02  0.19027704497E-01  0.00000000000E+00 0.  1.
<mgrwt>
<rscale>  1 0.64831082E+03</rscale>
<asrwt>0</asrwt>
<pdfrwt beam="1">  1        1 0.38213301E+00 0.64831082E+03</pdfrwt>
<pdfrwt beam="2">0</pdfrwt>
<totfact> 0.16062741E+00</totfact>
</mgrwt>
</event>
<event>
 6    1  0.3781527E-003  0.6450877E+03  0.7818608E-02  0.9816041E-01
          1   -1    0    0  502    0  0.00000000000E+00  0.00000000000E+00  0.10405184686E+03  0.10405184686E+03  0.00000000000E+00 0.  1.
         13   -1    0    0    0    0 -0.00000000000E+00 -0.00000000000E+00 -0.10000000000E+04  0.10000000000E+04  0.00000000000E+00 0.  1.
    9000005    2    1    2  501    0 -0.45048625707E-02  0.24183797708E-01 -0.89595527431E+03  0.11040262371E+04  0.64508765141E+03 0.  0.
         13    1    3    3    0    0  0.94108913549E+02 -0.26618886148E+03 -0.18109592707E+03  0.33542321384E+03  0.00000000000E+00 0.  1.
          3    1    3    3  501    0 -0.94113418412E+02  0.26621304527E+03 -0.71485934724E+03  0.76860302324E+03  0.00000000000E+00 0.  1.
         21    1    1    2  502  501  0.45048625707E-02 -0.24183797708E-01  0.71211653681E-02  0.25609780448E-01  0.00000000000E+00 0.  1.
<mgrwt>
<rscale>  1 0.64508765E+03</rscale>
<asrwt>0</asrwt>
<pdfrwt beam="1">  1        1 0.37837115E+00 0.64508765E+03</pdfrwt>
<pdfrwt beam="2">0</pdfrwt>
<totfact> 0.16698496E+00</totfact>
</mgrwt>
</event>
<event>
 6    1  0.3781527E-003  0.6539206E+03  0.7818608E-02  0.9799450E-01
          1   -1    0    0  502    0  0.00000000000E+00  0.00000000000E+00  0.10690329711E+03  0.10690329711E+03  0.00000000000E+00 0.  1.
         13   -1    0    0    0    0 -0.00000000000E+00 -0.00000000000E+00 -0.10000000000E+04  0.10000000000E+04  0.00000000000E+00 0.  1.
    9000005    2    1    2  501    0 -0.37811410408E-04  0.62970611623E-05 -0.89309696725E+03  0.11069030300E+04  0.65392057993E+03 0.  0.
         13    1    3    3    0    0 -0.14373766502E+03  0.20814785361E+03 -0.95878014628E+02  0.27051550602E+03  0.00000000000E+00 0.  1.
          1    1    3    3  501    0  0.14373762721E+03 -0.20814784731E+03 -0.79721895263E+03  0.83638752396E+03  0.00000000000E+00 0.  1.
         21    1    1    2  502  501  0.37811410419E-04 -0.62970611567E-05  0.26436633771E-03  0.26713089722E-03  0.00000000000E+00 0. -1.
<mgrwt>
<rscale>  1 0.65392058E+03</rscale>
<asrwt>0</asrwt>
<pdfrwt beam="1">  1        1 0.38874008E+00 0.65392058E+03</pdfrwt>
<pdfrwt beam="2">0</pdfrwt>
<totfact> 0.15001620E+00</totfact>
</mgrwt>
</event>
<event>
 6    1  0.3781527E-003  0.6485199E+03  0.7818608E-02  0.9809560E-01
          1   -1    0    0  502    0  0.00000000000E+00  0.00000000000E+00  0.10516059973E+03  0.10516059973E+03  0.00000000000E+00 0.  1.
         13   -1    0    0    0    0 -0.00000000000E+00 -0.00000000000E+00 -0.10000000000E+04  0.10000000000E+04  0.00000000000E+00 0.  1.
    9000005    2    1    2  501    0 -0.10726649569E-03 -0.23833526132E-03 -0.89485547201E+03  0.11051445259E+04  0.64851993589E+03 0.  0.
         13    1    3    3    0    0 -0.12650728026E+03 -0.19143178966E+03 -0.83786586669E+03  0.86871711887E+03  0.00000000000E+00 0.  1.
          3    1    3    3  501    0  0.12650717300E+03  0.19143155133E+03 -0.56989605323E+02  0.23642740699E+03  0.00000000000E+00 0.  1.
         21    1    1    2  502  501  0.10726649570E-03  0.23833526131E-03  0.16071739672E-01  0.16073864684E-01  0.00000000000E+00 0. -1.
<mgrwt>
<rscale>  1 0.64851994E+03</rscale>
<asrwt>0</asrwt>
<pdfrwt beam="1">  1        1 0.38240299E+00 0.64851994E+03</pdfrwt>
<pdfrwt beam="2">0</pdfrwt>
<totfact> 0.16018078E+00</totfact>
</mgrwt>
</event>
<event>
 6    1  0.3781527E-003  0.6561733E+03  0.7818608E-02  0.9795264E-01
          1   -1    0    0  502    0  0.00000000000E+00  0.00000000000E+00  0.11279559653E+03  0.11279559653E+03  0.00000000000E+00 0.  1.
         13   -1    0    0    0    0 -0.00000000000E+00 -0.00000000000E+00 -0.10000000000E+04  0.10000000000E+04  0.00000000000E+00 0.  1.
    9000005    2    1    2  501    0 -0.49934201062E+01  0.12393361561E+01 -0.89089662439E+03  0.11064629278E+04  0.65615314140E+03 0.  0.
         13    1    3    3    0    0 -0.57024043436E+02 -0.32277576704E+03 -0.45992486233E+03  0.56477147264E+03  0.00000000000E+00 0.  1.
          1    1    3    3  501    0  0.52030623329E+02  0.32401510319E+03 -0.43097176205E+03  0.54169145512E+03  0.00000000000E+00 0.  1.
         21    1    1    2  502  501  0.49934201062E+01 -0.12393361561E+01  0.36922209139E+01  0.63326687693E+01  0.00000000000E+00 0. -1.
<mgrwt>
<rscale>  1 0.65617331E+03</rscale>
<asrwt>0</asrwt>
<pdfrwt beam="1">  1        1 0.41016667E+00 0.65617331E+03</pdfrwt>
<pdfrwt beam="2">0</pdfrwt>
<totfact> 0.12035171E+00</totfact>
</mgrwt>
</event>
<event>
 6    1  0.3781527E-003  0.6694422E+03  0.7818608E-02  0.9770966E-01
          1   -1    0    0  502    0  0.00000000000E+00  0.00000000000E+00  0.11226584611E+03  0.11226584611E+03  0.00000000000E+00 0.  1.
         13   -1    0    0    0    0 -0.00000000000E+00 -0.00000000000E+00 -0.10000000000E+04  0.10000000000E+04  0.00000000000E+00 0.  1.
    9000005    2    1    2  501    0  0.42738370614E-01 -0.39511698647E-01 -0.88795763785E+03  0.11120349071E+04  0.66944220410E+03 0.  0.
         13    1    3    3    0    0 -0.22247732388E+03 -0.24988072478E+03 -0.42719926819E+03  0.54261934263E+03  0.00000000000E+00 0.  1.
          3    1    3    3  501    0  0.22252006225E+03  0.24984121308E+03 -0.46075836966E+03  0.56941556448E+03  0.00000000000E+00 0.  1.
         21    1    1    2  502  501 -0.42738370614E-01  0.39511698647E-01  0.22348395799E+00  0.23093900089E+00  0.00000000000E+00 0. -1.
<mgrwt>
<rscale>  1 0.66944221E+03</rscale>
<asrwt>0</asrwt>
<pdfrwt beam="1">  1        1 0.40824030E+00 0.66944221E+03</pdfrwt>
<pdfrwt beam="2">0</pdfrwt>
<totfact> 0.12245874E+00</totfact>
</mgrwt>
</event>
