<event>
 6    1  0.1552440E-002  0.6163149E+03  0.7818608E-02  0.9872124E-01
          1   -1    0    0  502    0  0.00000000000E+00  0.00000000000E+00  0.94966889077E+02  0.94966889077E+02  0.00000000000E+00 0.  1.
         13   -1    0    0    0    0 -0.00000000000E+00 -0.00000000000E+00 -0.10000000000E+04  0.10000000000E+04  0.00000000000E+00 0.  1.
    9000005    2    1    2  501    0  0.77839096058E-04 -0.80263791500E-03 -0.90503894031E+03  0.10949610042E+04  0.61631494967E+03 0.  0.
         13    1    3    3    0    0  0.47249042433E+02 -0.30450078018E+03 -0.44746986769E+03  0.54330698471E+03  0.00000000000E+00 0.  1.
          3    1    3    3  501    0 -0.47248964594E+02  0.30449997754E+03 -0.45756907262E+03  0.55165401947E+03  0.00000000000E+00 0.  1.
         21    1    1    2  502  501 -0.77839096057E-04  0.80263791501E-03  0.58293872278E-02  0.58848994893E-02  0.00000000000E+00 0.  1.
<mgrwt>
<rscale>  1 0.61631495E+03</rscale>
<asrwt>0</asrwt>
<pdfrwt beam="1">  1        1 0.34533487E+00 0.61631495E+03</pdfrwt>
<pdfrwt beam="2">0</pdfrwt>
<totfact> 0.23418519E+00</totfact>
</mgrwt>
</event>
<event>
 6    1  0.1552440E-002  0.6366328E+03  0.7818608E-02  0.9832190E-01
          1   -1    0    0  502    0  0.00000000000E+00  0.00000000000E+00  0.10184484820E+03  0.10184484820E+03  0.00000000000E+00 0.  1.
         13   -1    0    0    0    0 -0.00000000000E+00 -0.00000000000E+00 -0.10000000000E+04  0.10000000000E+04  0.00000000000E+00 0.  1.
    9000005    2    1    2  501    0  0.15103932195E+01 -0.43436130938E+00 -0.89660725829E+03  0.10996389625E+04  0.63663082101E+03 0.  0.
         13    1    3    3    0    0 -0.11292213881E+03  0.17717390727E+03 -0.35608640700E+02  0.21309617112E+03  0.00000000000E+00 0.  1.
          1    1    3    3  501    0  0.11443253203E+03 -0.17760826858E+03 -0.86099861759E+03  0.88654279138E+03  0.00000000000E+00 0.  1.
         21    1    1    2  502  501 -0.15103932195E+01  0.43436130938E+00 -0.15478935095E+01  0.22058857045E+01  0.00000000000E+00 0.  1.
<mgrwt>
<rscale>  1 0.63663276E+03</rscale>
<asrwt>0</asrwt>
<pdfrwt beam="1">  1        1 0.37034568E+00 0.63663276E+03</pdfrwt>
<pdfrwt beam="2">0</pdfrwt>
<totfact> 0.18141153E+00</totfact>
</mgrwt>
</event>
<event>
 6    1  0.1552440E-002  0.6559335E+03  0.7818608E-02  0.9795709E-01
          1   -1    0    0  502    0  0.00000000000E+00  0.00000000000E+00  0.10756217532E+03  0.10756217532E+03  0.00000000000E+00 0.  1.
         13   -1    0    0    0    0 -0.00000000000E+00 -0.00000000000E+00 -0.10000000000E+04  0.10000000000E+04  0.00000000000E+00 0.  1.
    9000005    2    1    2  501    0 -0.17520008555E-05  0.62565447934E-07 -0.89243782232E+03  0.11075621724E+04  0.65593345620E+03 0.  0.
         13    1    3    3    0    0  0.17886423436E+03 -0.18465551063E+03 -0.79008263120E+03  0.83085536411E+03  0.00000000000E+00 0.  1.
          3    1    3    3  501    0 -0.17886423611E+03  0.18465551070E+03 -0.10235519112E+03  0.27670680826E+03  0.00000000000E+00 0.  1.
         21    1    1    2  502  501  0.17520008691E-05 -0.62565440121E-07 -0.23657897326E-05  0.29445513306E-05  0.00000000000E+00 0.  1.
<mgrwt>
<rscale>  1 0.65593346E+03</rscale>
<asrwt>0</asrwt>
<pdfrwt beam="1">  1        1 0.39113601E+00 0.65593346E+03</pdfrwt>
<pdfrwt beam="2">0</pdfrwt>
<totfact> 0.14633593E+00</totfact>
</mgrwt>
</event>
<event>
 6    1  0.1552440E-002  0.6532902E+03  0.7818608E-02  0.9800625E-01
          1   -1    0    0  502    0  0.00000000000E+00  0.00000000000E+00  0.10674472939E+03  0.10674472939E+03  0.00000000000E+00 0.  1.
         13   -1    0    0    0    0 -0.00000000000E+00 -0.00000000000E+00 -0.10000000000E+04  0.10000000000E+04  0.00000000000E+00 0.  1.
    9000005    2    1    2  501    0 -0.23897274879E-02  0.10110951227E+00 -0.89323407894E+03  0.11066413953E+04  0.65329017122E+03 0.  0.
         13    1    3    3    0    0  0.11055028964E+03  0.90044119928E+02  0.51214666013E+02  0.15150000689E+03  0.00000000000E+00 0.  1.
          1    1    3    3  501    0 -0.11055267937E+03 -0.89943010416E+02 -0.94444874495E+03  0.95514138842E+03  0.00000000000E+00 0.  1.
         21    1    1    2  502  501  0.23897274879E-02 -0.10110951227E+00 -0.21191671277E-01  0.10333407569E+00  0.00000000000E+00 0. -1.
<mgrwt>
<rscale>  1 0.65329018E+03</rscale>
<asrwt>0</asrwt>
<pdfrwt beam="1">  1        1 0.38816347E+00 0.65329018E+03</pdfrwt>
<pdfrwt beam="2">0</pdfrwt>
<totfact> 0.15091900E+00</totfact>
</mgrwt>
</event>
<event>
 6    1  0.1552440E-002  0.5961748E+03  0.7818608E-02  0.9913374E-01
          1   -1    0    0  502    0  0.00000000000E+00  0.00000000000E+00  0.89042423160E+02  0.89042423160E+02  0.00000000000E+00 0.  1.
         13   -1    0    0    0    0 -0.00000000000E+00 -0.00000000000E+00 -0.10000000000E+04  0.10000000000E+04  0.00000000000E+00 0.  1.
    9000005    2    1    2  501    0 -0.25651970788E+00  0.26430229860E+00 -0.91092467405E+03  0.10886726385E+04  0.59617465266E+03 0.  0.
         13    1    3    3    0    0 -0.23418386353E+02  0.61733455851E+02  0.75365859750E+02  0.10019707185E+03  0.00000000000E+00 0.  1.
          1    1    3    3  501    0  0.23161866645E+02 -0.61469153553E+02 -0.98629053380E+03  0.98847556670E+03  0.00000000000E+00 0.  1.
         21    1    1    2  502  501  0.25651970788E+00 -0.26430229860E+00 -0.32902792497E-01  0.36978461208E+00  0.00000000000E+00 0. -1.
<mgrwt>
<rscale>  1 0.59617477E+03</rscale>
<asrwt>0</asrwt>
<pdfrwt beam="1">  1        1 0.32379131E+00 0.59617477E+03</pdfrwt>
<pdfrwt beam="2">0</pdfrwt>
<totfact> 0.29143626E+00</totfact>
</mgrwt>
</event>
<event>
 6    1  0.1552440E-002  0.6442812E+03  0.7818608E-02  0.9817570E-01
          1   -1    0    0  502    0  0.00000000000E+00  0.00000000000E+00  0.10377466955E+03  0.10377466955E+03  0.00000000000E+00 0.  1.
         13   -1    0    0    0    0 -0.00000000000E+00 -0.00000000000E+00 -0.10000000000E+04  0.10000000000E+04  0.00000000000E+00 0.  1.
    9000005    2    1    2  501    0 -0.11769015732E-04  0.14093869822E-05 -0.89622544187E+03  0.11037745575E+04  0.64428117396E+03 0.  0.
         13    1    3    3    0    0 -0.29311752239E+02  0.30251538197E+03 -0.26519575220E+03  0.40336524656E+03  0.00000000000E+00 0.  1.
          3    1    3    3  501    0  0.29311740470E+02 -0.30251538056E+03 -0.63102968967E+03  0.70040931094E+03  0.00000000000E+00 0.  1.
         21    1    1    2  502  501  0.11769015730E-04 -0.14093869593E-05  0.11142590966E-03  0.11205458244E-03  0.00000000000E+00 0. -1.
<mgrwt>
<rscale>  1 0.64428117E+03</rscale>
<asrwt>0</asrwt>
<pdfrwt beam="1">  1        1 0.37736323E+00 0.64428117E+03</pdfrwt>
<pdfrwt beam="2">0</pdfrwt>
<totfact> 0.16872686E+00</totfact>
</mgrwt>
</event>
<event>
 6    1  0.1552440E-002  0.6448218E+03  0.7818608E-02  0.9816544E-01
          1   -1    0    0  502    0  0.00000000000E+00  0.00000000000E+00  0.11077920218E+03  0.11077920218E+03  0.00000000000E+00 0.  1.
         13   -1    0    0    0    0 -0.00000000000E+00 -0.00000000000E+00 -0.10000000000E+04  0.10000000000E+04  0.00000000000E+00 0.  1.
    9000005    2    1    2  501    0 -0.44538107423E+00 -0.16940267792E+01 -0.89592701959E+03  0.11038480045E+04  0.64481945106E+03 0.  0.
         13    1    3    3    0    0  0.28684830401E+03  0.14444846057E+03 -0.41174907065E+03  0.52219211451E+03  0.00000000000E+00 0.  1.
          3    1    3    3  501    0 -0.28729368508E+03 -0.14614248735E+03 -0.48417794894E+03  0.58165588997E+03  0.00000000000E+00 0.  1.
         21    1    1    2  502  501  0.44538107423E+00  0.16940267792E+01  0.67062217765E+01  0.69311976992E+01  0.00000000000E+00 0. -1.
<mgrwt>
<rscale>  1 0.64482183E+03</rscale>
<asrwt>0</asrwt>
<pdfrwt beam="1">  1        1 0.40283431E+00 0.64482183E+03</pdfrwt>
<pdfrwt beam="2">0</pdfrwt>
<totfact> 0.13007793E+00</totfact>
</mgrwt>
</event>
<event>
 6    1  0.1552440E-002  0.6473674E+03  0.7818608E-02  0.9811732E-01
          1   -1    0    0  502    0  0.00000000000E+00  0.00000000000E+00  0.10508862139E+03  0.10508862139E+03  0.00000000000E+00 0.  1.
         13   -1    0    0    0    0 -0.00000000000E+00 -0.00000000000E+00 -0.10000000000E+04  0.10000000000E+04  0.00000000000E+00 0.  1.
    9000005    2    1    2  501    0  0.39303292948E+00  0.92113935777E-01 -0.89508052772E+03  0.11046509328E+04  0.64736726001E+03 0.  0.
         13    1    3    3    0    0 -0.10175399820E+02 -0.30405624360E+03 -0.25911006452E+03  0.39961451871E+03  0.00000000000E+00 0.  1.
          1    1    3    3  501    0  0.10568432749E+02  0.30414835753E+03 -0.63597046320E+03  0.70503641411E+03  0.00000000000E+00 0.  1.
         21    1    1    2  502  501 -0.39303292948E+00 -0.92113935777E-01  0.16914910889E+00  0.43768856720E+00  0.00000000000E+00 0.  1.
<mgrwt>
<rscale>  1 0.64736739E+03</rscale>
<asrwt>0</asrwt>
<pdfrwt beam="1">  1        1 0.38214125E+00 0.64736739E+03</pdfrwt>
<pdfrwt beam="2">0</pdfrwt>
<totfact> 0.16064188E+00</totfact>
</mgrwt>
</event>
<event>
 6    1  0.1552440E-002  0.6581587E+03  0.7818608E-02  0.9791589E-01
          1   -1    0    0  502    0  0.00000000000E+00  0.00000000000E+00  0.10831867595E+03  0.10831867595E+03  0.00000000000E+00 0.  1.
         13   -1    0    0    0    0 -0.00000000000E+00 -0.00000000000E+00 -0.10000000000E+04  0.10000000000E+04  0.00000000000E+00 0.  1.
    9000005    2    1    2  501    0  0.16026927129E-02  0.15790467790E-02 -0.89170674061E+03  0.11082931600E+04  0.65815865659E+03 0.  0.
         13    1    3    3    0    0 -0.23691251636E+03 -0.19882044761E+03 -0.63513796707E+03  0.70643991111E+03  0.00000000000E+00 0.  1.
          1    1    3    3  501    0  0.23691411905E+03  0.19882202665E+03 -0.25656877355E+03  0.40185324889E+03  0.00000000000E+00 0.  1.
         21    1    1    2  502  501 -0.16026927128E-02 -0.15790467790E-02  0.25416563111E-01  0.25515949777E-01  0.00000000000E+00 0. -1.
<mgrwt>
<rscale>  1 0.65815866E+03</rscale>
<asrwt>0</asrwt>
<pdfrwt beam="1">  1        1 0.39388692E+00 0.65815866E+03</pdfrwt>
<pdfrwt beam="2">0</pdfrwt>
<totfact> 0.14221820E+00</totfact>
</mgrwt>
</event>
<event>
 6    1  0.1552440E-002  0.6197137E+03  0.7818608E-02  0.9865330E-01
          1   -1    0    0  502    0  0.00000000000E+00  0.00000000000E+00  0.96012049133E+02  0.96012049133E+02  0.00000000000E+00 0.  1.
         13   -1    0    0    0    0 -0.00000000000E+00 -0.00000000000E+00 -0.10000000000E+04  0.10000000000E+04  0.00000000000E+00 0.  1.
    9000005    2    1    2  501    0 -0.23168073139E-03  0.68473036022E-03 -0.90398853128E+03  0.10960111221E+04  0.61971373638E+03 0.  0.
         13    1    3    3    0    0 -0.53794193901E+02  0.12938215978E+01 -0.99167331637E+03  0.99313214411E+03  0.00000000000E+00 0.  1.
          1    1    3    3  501    0  0.53793962221E+02 -0.12931368674E+01  0.87684785087E+02  0.10287897798E+03  0.00000000000E+00 0.  1.
         21    1    1    2  502  501  0.23168073139E-03 -0.68473036022E-03  0.58041181934E-03  0.92704342268E-03  0.00000000000E+00 0.  1.
<mgrwt>
<rscale>  1 0.61971374E+03</rscale>
<asrwt>0</asrwt>
<pdfrwt beam="1">  1        1 0.34913546E+00 0.61971374E+03</pdfrwt>
<pdfrwt beam="2">0</pdfrwt>
<totfact> 0.22529481E+00</totfact>
</mgrwt>
</event>
<event>
 6    1  0.1552440E-002  0.6524916E+03  0.7818608E-02  0.9802115E-01
          1   -1    0    0  502    0  0.00000000000E+00  0.00000000000E+00  0.10645321768E+03  0.10645321768E+03  0.00000000000E+00 0.  1.
         13   -1    0    0    0    0 -0.00000000000E+00 -0.00000000000E+00 -0.10000000000E+04  0.10000000000E+04  0.00000000000E+00 0.  1.
    9000005    2    1    2  501    0  0.59660547413E-03  0.40588906278E-03 -0.89356368461E+03  0.11064363000E+04  0.65249155359E+03 0.  0.
         13    1    3    3    0    0  0.54522613864E+02 -0.94678095561E+02  0.74492822312E+02  0.13223402655E+03  0.00000000000E+00 0.  1.
          1    1    3    3  501    0 -0.54522017258E+02  0.94678501450E+02 -0.96805650692E+03  0.97420227345E+03  0.00000000000E+00 0.  1.
         21    1    1    2  502  501 -0.59660547413E-03 -0.40588906277E-03  0.16902289493E-01  0.16917685248E-01  0.00000000000E+00 0. -1.
<mgrwt>
<rscale>  1 0.65249155E+03</rscale>
<asrwt>0</asrwt>
<pdfrwt beam="1">  1        1 0.38710343E+00 0.65249155E+03</pdfrwt>
<pdfrwt beam="2">0</pdfrwt>
<totfact> 0.15258200E+00</totfact>
</mgrwt>
</event>
<event>
 6    1  0.1552440E-002  0.6452356E+03  0.7818608E-02  0.9815760E-01
          1   -1    0    0  502    0  0.00000000000E+00  0.00000000000E+00  0.10477178331E+03  0.10477178331E+03  0.00000000000E+00 0.  1.
         13   -1    0    0    0    0 -0.00000000000E+00 -0.00000000000E+00 -0.10000000000E+04  0.10000000000E+04  0.00000000000E+00 0.  1.
    9000005    2    1    2  501    0  0.13717512574E+01  0.54080113577E+00 -0.89490777382E+03  0.11032628595E+04  0.64523394160E+03 0.  0.
         13    1    3    3    0    0 -0.23994754021E+03 -0.20157772051E+03 -0.57256561013E+03  0.65271722618E+03  0.00000000000E+00 0.  1.
          1    1    3    3  501    0  0.24131929147E+03  0.20211852165E+03 -0.32234216369E+03  0.45054563334E+03  0.00000000000E+00 0.  1.
         21    1    1    2  502  501 -0.13717512574E+01 -0.54080113577E+00 -0.32044286886E+00  0.15089237929E+01  0.00000000000E+00 0. -1.
<mgrwt>
<rscale>  1 0.64523563E+03</rscale>
<asrwt>0</asrwt>
<pdfrwt beam="1">  1        1 0.38098911E+00 0.64523563E+03</pdfrwt>
<pdfrwt beam="2">0</pdfrwt>
<totfact> 0.16259855E+00</totfact>
</mgrwt>
</event>
<event>
 6    1  0.1552440E-002  0.6500886E+03  0.7818608E-02  0.9806613E-01
          1   -1    0    0  502    0  0.00000000000E+00  0.00000000000E+00  0.10565414404E+03  0.10565414404E+03  0.00000000000E+00 0.  1.
         13   -1    0    0    0    0 -0.00000000000E+00 -0.00000000000E+00 -0.10000000000E+04  0.10000000000E+04  0.00000000000E+00 0.  1.
    9000005    2    1    2  501    0  0.62763087570E-04 -0.17615164131E-03 -0.89434618458E+03  0.11056537659E+04  0.65008857264E+03 0.  0.
         13    1    3    3    0    0  0.69154672450E+02  0.12917397267E+03  0.46302029345E+02  0.15366249333E+03  0.00000000000E+00 0.  1.
          1    1    3    3  501    0 -0.69154609687E+02 -0.12917414882E+03 -0.94064821392E+03  0.95199127261E+03  0.00000000000E+00 0.  1.
         21    1    1    2  502  501 -0.62763087573E-04  0.17615164132E-03  0.32862302747E-03  0.37810276392E-03  0.00000000000E+00 0. -1.
<mgrwt>
<rscale>  1 0.65008857E+03</rscale>
<asrwt>0</asrwt>
<pdfrwt beam="1">  1        1 0.38419770E+00 0.65008857E+03</pdfrwt>
<pdfrwt beam="2">0</pdfrwt>
<totfact> 0.15723643E+00</totfact>
</mgrwt>
</event>
<event>
 6    1  0.1552440E-002  0.5279412E+03  0.7818608E-02  0.1006733E+00
          1   -1    0    0  502    0  0.00000000000E+00  0.00000000000E+00  0.71746590413E+02  0.71746590413E+02  0.00000000000E+00 0.  1.
         13   -1    0    0    0    0 -0.00000000000E+00 -0.00000000000E+00 -0.10000000000E+04  0.10000000000E+04  0.00000000000E+00 0.  1.
    9000005    2    1    2  501    0 -0.14685184075E+00  0.41657827883E-03 -0.93031674146E+03  0.10696780392E+04  0.52794113931E+03 0.  0.
         13    1    3    3    0    0 -0.76614170782E+02 -0.75327698193E+02 -0.95377362267E+03  0.95980629118E+03  0.00000000000E+00 0.  1.
          1    1    3    3  501    0  0.76467318941E+02  0.75328114771E+02  0.23456881213E+02  0.10987174804E+03  0.00000000000E+00 0.  1.
         21    1    1    2  502  501  0.14685184075E+00 -0.41657827883E-03  0.20633318718E+01  0.20685511959E+01  0.00000000000E+00 0.  1.
<mgrwt>
<rscale>  1 0.52794116E+03</rscale>
<asrwt>0</asrwt>
<pdfrwt beam="1">  1        1 0.26089724E+00 0.52794116E+03</pdfrwt>
<pdfrwt beam="2">0</pdfrwt>
<totfact> 0.55123764E+00</totfact>
</mgrwt>
</event>
<event>
 6    1  0.1552440E-002  0.5789093E+03  0.7818608E-02  0.9950155E-01
          1   -1    0    0  502    0  0.00000000000E+00  0.00000000000E+00  0.83784083518E+02  0.83784083518E+02  0.00000000000E+00 0.  1.
         13   -1    0    0    0    0 -0.00000000000E+00 -0.00000000000E+00 -0.10000000000E+04  0.10000000000E+04  0.00000000000E+00 0.  1.
    9000005    2    1    2  501    0  0.14903769799E-03 -0.19564502026E-04 -0.91621592212E+03  0.10837839331E+04  0.57890931733E+03 0.  0.
         13    1    3    3    0    0 -0.52634254959E+02  0.13725333025E+03  0.87025298279E+01  0.14725683511E+03  0.00000000000E+00 0.  1.
          3    1    3    3  501    0  0.52634403997E+02 -0.13725334982E+03 -0.92491845195E+03  0.93652709799E+03  0.00000000000E+00 0.  1.
         21    1    1    2  502  501 -0.14903769798E-03  0.19564502019E-04  0.56355315453E-05  0.15042195443E-03  0.00000000000E+00 0.  1.
<mgrwt>
<rscale>  1 0.57890932E+03</rscale>
<asrwt>0</asrwt>
<pdfrwt beam="1">  1        1 0.30467004E+00 0.57890932E+03</pdfrwt>
<pdfrwt beam="2">0</pdfrwt>
<totfact> 0.35357602E+00</totfact>
</mgrwt>
</event>
<event>
 6    1  0.1552440E-002  0.6059711E+03  0.7818608E-02  0.9893095E-01
          1   -1    0    0  502    0  0.00000000000E+00  0.00000000000E+00  0.91800243944E+02  0.91800243944E+02  0.00000000000E+00 0.  1.
         13   -1    0    0    0    0 -0.00000000000E+00 -0.00000000000E+00 -0.10000000000E+04  0.10000000000E+04  0.00000000000E+00 0.  1.
    9000005    2    1    2  501    0  0.53554560964E-06  0.77467060464E-05 -0.90819975999E+03  0.10918002352E+04  0.60597107986E+03 0.  0.
         13    1    3    3    0    0 -0.26200711709E+03 -0.13207985849E+03 -0.31798326876E+03  0.43267329203E+03  0.00000000000E+00 0.  1.
          1    1    3    3  501    0  0.26200711762E+03  0.13207986624E+03 -0.59021649123E+03  0.65912694321E+03  0.00000000000E+00 0.  1.
         21    1    1    2  502  501 -0.53554557347E-06 -0.77467060418E-05  0.39318693007E-05  0.87038991123E-05  0.00000000000E+00 0. -1.
<mgrwt>
<rscale>  1 0.60597108E+03</rscale>
<asrwt>0</asrwt>
<pdfrwt beam="1">  1        1 0.33381977E+00 0.60597108E+03</pdfrwt>
<pdfrwt beam="2">0</pdfrwt>
<totfact> 0.26324829E+00</totfact>
</mgrwt>
</event>
<event>
 6    1  0.1552440E-002  0.6328176E+03  0.7818608E-02  0.9839566E-01
          1   -1    0    0  502    0  0.00000000000E+00  0.00000000000E+00  0.10011460631E+03  0.10011460631E+03  0.00000000000E+00 0.  1.
         13   -1    0    0    0    0 -0.00000000000E+00 -0.00000000000E+00 -0.10000000000E+04  0.10000000000E+04  0.00000000000E+00 0.  1.
    9000005    2    1    2  501    0  0.13903906719E-04  0.94588713182E-05 -0.89988546878E+03  0.11001145294E+04  0.63281760466E+03 0.  0.
         13    1    3    3    0    0  0.10398955184E+03 -0.12720342466E+03  0.20143372403E+02  0.16553034039E+03  0.00000000000E+00 0.  1.
          1    1    3    3  501    0 -0.10398953793E+03  0.12720343412E+03 -0.92002884119E+03  0.93458418897E+03  0.00000000000E+00 0.  1.
         21    1    1    2  502  501 -0.13903906720E-04 -0.94588713193E-05  0.75091581703E-04  0.76951507532E-04  0.00000000000E+00 0. -1.
<mgrwt>
<rscale>  1 0.63281760E+03</rscale>
<asrwt>0</asrwt>
<pdfrwt beam="1">  1        1 0.36405388E+00 0.63281760E+03</pdfrwt>
<pdfrwt beam="2">0</pdfrwt>
<totfact> 0.19344809E+00</totfact>
</mgrwt>
</event>
<event>
 6    1  0.1552440E-002  0.6502455E+03  0.7818608E-02  0.9806319E-01
          1   -1    0    0  502    0  0.00000000000E+00  0.00000000000E+00  0.10570698739E+03  0.10570698739E+03  0.00000000000E+00 0.  1.
         13   -1    0    0    0    0 -0.00000000000E+00 -0.00000000000E+00 -0.10000000000E+04  0.10000000000E+04  0.00000000000E+00 0.  1.
    9000005    2    1    2  501    0  0.12115640524E-03 -0.16783108180E-03 -0.89429519011E+03  0.11057048001E+04  0.65024550584E+03 0.  0.
         13    1    3    3    0    0 -0.65344368401E+02  0.30517340534E+03 -0.60210291915E+03  0.67818037354E+03  0.00000000000E+00 0.  1.
          3    1    3    3  501    0  0.65344489557E+02 -0.30517357317E+03 -0.29219227096E+03  0.42752442653E+03  0.00000000000E+00 0.  1.
         21    1    1    2  502  501 -0.12115640524E-03  0.16783108180E-03  0.21774964338E-02  0.21873127042E-02  0.00000000000E+00 0. -1.
<mgrwt>
<rscale>  1 0.65024551E+03</rscale>
<asrwt>0</asrwt>
<pdfrwt beam="1">  1        1 0.38438986E+00 0.65024551E+03</pdfrwt>
<pdfrwt beam="2">0</pdfrwt>
<totfact> 0.15692457E+00</totfact>
</mgrwt>
</event>
<event>
 6    1  0.1552440E-002  0.6528178E+03  0.7818608E-02  0.9801506E-01
          1   -1    0    0  502    0  0.00000000000E+00  0.00000000000E+00  0.10664151306E+03  0.10664151306E+03  0.00000000000E+00 0.  1.
         13   -1    0    0    0    0 -0.00000000000E+00 -0.00000000000E+00 -0.10000000000E+04  0.10000000000E+04  0.00000000000E+00 0.  1.
    9000005    2    1    2  501    0  0.80350117490E-02 -0.10692382970E-01 -0.89345674238E+03  0.11065423515E+04  0.65281775781E+03 0.  0.
         13    1    3    3    0    0 -0.24517576456E+03 -0.17278888515E+03 -0.66495543942E+03  0.72947439350E+03  0.00000000000E+00 0.  1.
          3    1    3    3  501    0  0.24518379957E+03  0.17277819277E+03 -0.22850130296E+03  0.37706795797E+03  0.00000000000E+00 0.  1.
         21    1    1    2  502  501 -0.80350117490E-02  0.10692382970E-01  0.98255440053E-01  0.99161585140E-01  0.00000000000E+00 0. -1.
<mgrwt>
<rscale>  1 0.65281776E+03</rscale>
<asrwt>0</asrwt>
<pdfrwt beam="1">  1        1 0.38778814E+00 0.65281776E+03</pdfrwt>
<pdfrwt beam="2">0</pdfrwt>
<totfact> 0.15151116E+00</totfact>
</mgrwt>
</event>
<event>
 6    1  0.1552440E-002  0.6345083E+03  0.7818608E-02  0.9836290E-01
          1   -1    0    0  502    0  0.00000000000E+00  0.00000000000E+00  0.10065070327E+03  0.10065070327E+03  0.00000000000E+00 0.  1.
         13   -1    0    0    0    0 -0.00000000000E+00 -0.00000000000E+00 -0.10000000000E+04  0.10000000000E+04  0.00000000000E+00 0.  1.
    9000005    2    1    2  501    0  0.47003299573E-04 -0.13748402185E-03 -0.89934978912E+03  0.11006501899E+04  0.63450831146E+03 0.  0.
         13    1    3    3    0    0  0.15733736141E+02 -0.14140294829E+03  0.42207468627E+02  0.14840422718E+03  0.00000000000E+00 0.  1.
          3    1    3    3  501    0 -0.15733689137E+02  0.14140281080E+03 -0.94155725775E+03  0.95224596271E+03  0.00000000000E+00 0.  1.
         21    1    1    2  502  501 -0.47003299572E-04  0.13748402186E-03  0.49239034348E-03  0.51338038216E-03  0.00000000000E+00 0. -1.
<mgrwt>
<rscale>  1 0.63450831E+03</rscale>
<asrwt>0</asrwt>
<pdfrwt beam="1">  1        1 0.36600333E+00 0.63450831E+03</pdfrwt>
<pdfrwt beam="2">0</pdfrwt>
<totfact> 0.18962169E+00</totfact>
</mgrwt>
</event>
<event>
 6    1  0.1552440E-002  0.6598737E+03  0.7818608E-02  0.9788426E-01
          1   -1    0    0  502    0  0.00000000000E+00  0.00000000000E+00  0.11098806039E+03  0.11098806039E+03  0.00000000000E+00 0.  1.
         13   -1    0    0    0    0 -0.00000000000E+00 -0.00000000000E+00 -0.10000000000E+04  0.10000000000E+04  0.00000000000E+00 0.  1.
    9000005    2    1    2  501    0 -0.14243032399E+01  0.56705640209E+01 -0.88486348667E+03  0.11038191276E+04  0.65984777972E+03 0.  0.
         13    1    3    3    0    0 -0.34188826638E+02  0.52596692465E+02 -0.98579557474E+03  0.98778955406E+03  0.00000000000E+00 0.  1.
          3    1    3    3  501    0  0.32764523398E+02 -0.46926128445E+02  0.10093208807E+03  0.11602957350E+03  0.00000000000E+00 0.  1.
         21    1    1    2  502  501  0.14243032399E+01 -0.56705640209E+01 -0.41484529411E+01  0.71689328242E+01  0.00000000000E+00 0.  1.
<mgrwt>
<rscale>  1 0.65987368E+03</rscale>
<asrwt>0</asrwt>
<pdfrwt beam="1">  1        1 0.40359380E+00 0.65987368E+03</pdfrwt>
<pdfrwt beam="2">0</pdfrwt>
<totfact> 0.12869575E+00</totfact>
</mgrwt>
</event>
<event>
 6    1  0.1552440E-002  0.6307978E+03  0.7818608E-02  0.9843493E-01
          3   -1    0    0  502    0  0.00000000000E+00  0.00000000000E+00  0.99476465479E+02  0.99476465479E+02  0.00000000000E+00 0.  1.
         13   -1    0    0    0    0 -0.00000000000E+00 -0.00000000000E+00 -0.10000000000E+04  0.10000000000E+04  0.00000000000E+00 0.  1.
    9000005    2    1    2  501    0  0.60217040243E-07 -0.12356635466E-05 -0.90052353614E+03  0.10994764634E+04  0.63079779209E+03 0.  0.
         13    1    3    3    0    0 -0.31518342132E+01 -0.20950233176E+03 -0.86116228892E+03  0.88628530899E+03  0.00000000000E+00 0.  1.
          1    1    3    3  501    0  0.31518342734E+01  0.20950233052E+03 -0.39361247225E+02  0.21319115445E+03  0.00000000000E+00 0.  1.
         21    1    1    2  502  501 -0.60217040548E-07  0.12356635669E-05  0.16231793600E-05  0.20408825976E-05  0.00000000000E+00 0.  1.
<mgrwt>
<rscale>  1 0.63079779E+03</rscale>
<asrwt>0</asrwt>
<pdfrwt beam="1">  1        3 0.36173336E+00 0.63079779E+03</pdfrwt>
<pdfrwt beam="2">0</pdfrwt>
<totfact> 0.94610767E-02</totfact>
</mgrwt>
</event>
<event>
 6    1  0.1552440E-002  0.6343411E+03  0.7818608E-02  0.9836614E-01
          1   -1    0    0  502    0  0.00000000000E+00  0.00000000000E+00  0.10059722614E+03  0.10059722614E+03  0.00000000000E+00 0.  1.
         13   -1    0    0    0    0 -0.00000000000E+00 -0.00000000000E+00 -0.10000000000E+04  0.10000000000E+04  0.00000000000E+00 0.  1.
    9000005    2    1    2  501    0 -0.68298364624E-04 -0.84139472307E-04 -0.89940281666E+03  0.11005971096E+04  0.63434105266E+03 0.  0.
         13    1    3    3    0    0  0.23113890894E+03  0.19322478377E+03 -0.62177602147E+03  0.69091709573E+03  0.00000000000E+00 0.  1.
          3    1    3    3  501    0 -0.23113897724E+03 -0.19322486791E+03 -0.27762679519E+03  0.40968001390E+03  0.00000000000E+00 0.  1.
         21    1    1    2  502  501  0.68298364624E-04  0.84139472316E-04  0.42805371832E-04  0.11651788390E-03  0.00000000000E+00 0.  1.
<mgrwt>
<rscale>  1 0.63434105E+03</rscale>
<asrwt>0</asrwt>
<pdfrwt beam="1">  1        1 0.36580887E+00 0.63434105E+03</pdfrwt>
<pdfrwt beam="2">0</pdfrwt>
<totfact> 0.19000005E+00</totfact>
</mgrwt>
</event>
<event>
 6    1  0.1552440E-002  0.6474472E+03  0.7818608E-02  0.9811581E-01
          1   -1    0    0  502    0  0.00000000000E+00  0.00000000000E+00  0.10479929915E+03  0.10479929915E+03  0.00000000000E+00 0.  1.
         13   -1    0    0    0    0 -0.00000000000E+00 -0.00000000000E+00 -0.10000000000E+04  0.10000000000E+04  0.00000000000E+00 0.  1.
    9000005    2    1    2  501    0  0.44684846696E-04  0.68715485031E-02 -0.89518740803E+03  0.11047843352E+04  0.64744724247E+03 0.  0.
         13    1    3    3    0    0  0.90071756938E+01  0.29554076294E+03 -0.67251246742E+03  0.73464174304E+03  0.00000000000E+00 0.  1.
          3    1    3    3  501    0 -0.90071310090E+01 -0.29553389139E+03 -0.22267494061E+03  0.37014259218E+03  0.00000000000E+00 0.  1.
         21    1    1    2  502  501 -0.44684846694E-04 -0.68715485030E-02 -0.13292820093E-01  0.14963931355E-01  0.00000000000E+00 0.  1.
<mgrwt>
<rscale>  1 0.64744724E+03</rscale>
<asrwt>0</asrwt>
<pdfrwt beam="1">  1        1 0.38108916E+00 0.64744724E+03</pdfrwt>
<pdfrwt beam="2">0</pdfrwt>
<totfact> 0.16236711E+00</totfact>
</mgrwt>
</event>
<event>
 6    1  0.1552440E-002  0.6441076E+03  0.7818608E-02  0.9817899E-01
          1   -1    0    0  502    0  0.00000000000E+00  0.00000000000E+00  0.10371919483E+03  0.10371919483E+03  0.00000000000E+00 0.  1.
         13   -1    0    0    0    0 -0.00000000000E+00 -0.00000000000E+00 -0.10000000000E+04  0.10000000000E+04  0.00000000000E+00 0.  1.
    9000005    2    1    2  501    0 -0.41145653164E-04  0.19863822160E-04 -0.89628134410E+03  0.11037186540E+04  0.64410761471E+03 0.  0.
         13    1    3    3    0    0  0.39095471549E+02 -0.17425083830E+03 -0.90738448760E+03  0.92479101362E+03  0.00000000000E+00 0.  1.
          1    1    3    3  501    0 -0.39095512695E+02  0.17425085816E+03  0.11103143499E+02  0.17892764034E+03  0.00000000000E+00 0.  1.
         21    1    1    2  502  501  0.41145653162E-04 -0.19863822179E-04  0.53892716469E-03  0.54086044877E-03  0.00000000000E+00 0. -1.
<mgrwt>
<rscale>  1 0.64410761E+03</rscale>
<asrwt>0</asrwt>
<pdfrwt beam="1">  1        1 0.37716150E+00 0.64410761E+03</pdfrwt>
<pdfrwt beam="2">0</pdfrwt>
<totfact> 0.16907793E+00</totfact>
</mgrwt>
</event>
<event>
 6    1  0.1552440E-002  0.6491875E+03  0.7818608E-02  0.9808305E-01
          1   -1    0    0  502    0  0.00000000000E+00  0.00000000000E+00  0.10536321061E+03  0.10536321061E+03  0.00000000000E+00 0.  1.
         13   -1    0    0    0    0 -0.00000000000E+00 -0.00000000000E+00 -0.10000000000E+04  0.10000000000E+04  0.00000000000E+00 0.  1.
    9000005    2    1    2  501    0 -0.11641150834E-05 -0.35645781409E-04 -0.89463888628E+03  0.11053611134E+04  0.64918753393E+03 0.  0.
         13    1    3    3    0    0  0.48745078177E+02  0.44644822361E+02  0.93780163419E+02  0.11473430987E+03  0.00000000000E+00 0.  1.
          3    1    3    3  501    0 -0.48745079342E+02 -0.44644858007E+02 -0.98841904970E+03  0.99062680355E+03  0.00000000000E+00 0.  1.
         21    1    1    2  502  501  0.11641150788E-05  0.35645781411E-04  0.20968929694E-02  0.20971962479E-02  0.00000000000E+00 0.  1.
<mgrwt>
<rscale>  1 0.64918753E+03</rscale>
<asrwt>0</asrwt>
<pdfrwt beam="1">  1        1 0.38313976E+00 0.64918753E+03</pdfrwt>
<pdfrwt beam="2">0</pdfrwt>
<totfact> 0.15896508E+00</totfact>
</mgrwt>
</event>
<event>
 6    1  0.1552440E-002  0.6584278E+03  0.7818608E-02  0.9791092E-01
          1   -1    0    0  502    0  0.00000000000E+00  0.00000000000E+00  0.11394996268E+03  0.11394996268E+03  0.00000000000E+00 0.  1.
         13   -1    0    0    0    0 -0.00000000000E+00 -0.00000000000E+00 -0.10000000000E+04  0.10000000000E+04  0.00000000000E+00 0.  1.
    9000005    2    1    2  501    0 -0.25322561931E+00 -0.64251313371E-01 -0.89161482556E+03  0.11083790454E+04  0.65842770507E+03 0.  0.
         13    1    3    3    0    0 -0.15574257351E+03 -0.26207667735E+03 -0.23635781169E+03  0.38575244544E+03  0.00000000000E+00 0.  1.
          1    1    3    3  501    0  0.15548934789E+03  0.26201242604E+03 -0.65525701387E+03  0.72262659993E+03  0.00000000000E+00 0.  1.
         21    1    1    2  502  501  0.25322561931E+00  0.64251313371E-01  0.55647882421E+01  0.55709173056E+01  0.00000000000E+00 0.  1.
<mgrwt>
<rscale>  1 0.65842776E+03</rscale>
<asrwt>0</asrwt>
<pdfrwt beam="1">  1        1 0.41436437E+00 0.65842776E+03</pdfrwt>
<pdfrwt beam="2">0</pdfrwt>
<totfact> 0.11519047E+00</totfact>
</mgrwt>
</event>
<event>
 6    1  0.1552440E-002  0.6581185E+03  0.7818608E-02  0.9791664E-01
          1   -1    0    0  502    0  0.00000000000E+00  0.00000000000E+00  0.10828381029E+03  0.10828381029E+03  0.00000000000E+00 0.  1.
         13   -1    0    0    0    0 -0.00000000000E+00 -0.00000000000E+00 -0.10000000000E+04  0.10000000000E+04  0.00000000000E+00 0.  1.
    9000005    2    1    2  501    0 -0.53239340502E-04  0.17934607371E-04 -0.89172002142E+03  0.11082799782E+04  0.65811846457E+03 0.  0.
         13    1    3    3    0    0  0.26688498708E+03 -0.13645155881E+03 -0.67449744267E+03  0.73810122910E+03  0.00000000000E+00 0.  1.
          1    1    3    3  501    0 -0.26688504032E+03  0.13645157674E+03 -0.21722257875E+03  0.37017874906E+03  0.00000000000E+00 0.  1.
         21    1    1    2  502  501  0.53239340508E-04 -0.17934607352E-04  0.38317076468E-02  0.38321194616E-02  0.00000000000E+00 0. -1.
<mgrwt>
<rscale>  1 0.65811846E+03</rscale>
<asrwt>0</asrwt>
<pdfrwt beam="1">  1        1 0.39376014E+00 0.65811846E+03</pdfrwt>
<pdfrwt beam="2">0</pdfrwt>
<totfact> 0.14240389E+00</totfact>
</mgrwt>
</event>
<event>
 6    1  0.1552440E-002  0.6579605E+03  0.7818608E-02  0.9791955E-01
          1   -1    0    0  502    0  0.00000000000E+00  0.00000000000E+00  0.10824897995E+03  0.10824897995E+03  0.00000000000E+00 0.  1.
         13   -1    0    0    0    0 -0.00000000000E+00 -0.00000000000E+00 -0.10000000000E+04  0.10000000000E+04  0.00000000000E+00 0.  1.
    9000005    2    1    2  501    0  0.14847256735E-02 -0.55368074828E-03 -0.89177196455E+03  0.11082279756E+04  0.65796049208E+03 0.  0.
         13    1    3    3    0    0 -0.27069356920E+02 -0.19365539443E+03 -0.89149753740E+03  0.91268999176E+03  0.00000000000E+00 0.  1.
          1    1    3    3  501    0  0.27070841645E+02  0.19365484074E+03 -0.27442714806E+00  0.19553798383E+03  0.00000000000E+00 0.  1.
         21    1    1    2  502  501 -0.14847256735E-02  0.55368074826E-03  0.20944494214E-01  0.21004352182E-01  0.00000000000E+00 0. -1.
<mgrwt>
<rscale>  1 0.65796049E+03</rscale>
<asrwt>0</asrwt>
<pdfrwt beam="1">  1        1 0.39363348E+00 0.65796049E+03</pdfrwt>
<pdfrwt beam="2">0</pdfrwt>
<totfact> 0.14259275E+00</totfact>
</mgrwt>
</event>
<event>
 6    1  0.1552440E-002  0.6586128E+03  0.7818608E-02  0.9790751E-01
          1   -1    0    0  502    0  0.00000000000E+00  0.00000000000E+00  0.10844328562E+03  0.10844328562E+03  0.00000000000E+00 0.  1.
         13   -1    0    0    0    0 -0.00000000000E+00 -0.00000000000E+00 -0.10000000000E+04  0.10000000000E+04  0.00000000000E+00 0.  1.
    9000005    2    1    2  501    0 -0.37557826488E-04  0.10934440030E-03 -0.89155730196E+03  0.11084426868E+04  0.65861275965E+03 0.  0.
         13    1    3    3    0    0 -0.26952483450E+03 -0.14198383729E+02 -0.12824288950E+03  0.29881678203E+03  0.00000000000E+00 0.  1.
          3    1    3    3  501    0  0.26952479694E+03  0.14198493073E+02 -0.76331441246E+03  0.80962590475E+03  0.00000000000E+00 0.  1.
         21    1    1    2  502  501  0.37557826487E-04 -0.10934440029E-03  0.58757945146E-03  0.59884589001E-03  0.00000000000E+00 0.  1.
<mgrwt>
<rscale>  1 0.65861276E+03</rscale>
<asrwt>0</asrwt>
<pdfrwt beam="1">  1        1 0.39434005E+00 0.65861276E+03</pdfrwt>
<pdfrwt beam="2">0</pdfrwt>
<totfact> 0.14154825E+00</totfact>
</mgrwt>
</event>
<event>
 6    1  0.1552440E-002  0.6043308E+03  0.7818608E-02  0.9896461E-01
          1   -1    0    0  502    0  0.00000000000E+00  0.00000000000E+00  0.91956555203E+02  0.91956555203E+02  0.00000000000E+00 0.  1.
         13   -1    0    0    0    0 -0.00000000000E+00 -0.00000000000E+00 -0.10000000000E+04  0.10000000000E+04  0.00000000000E+00 0.  1.
    9000005    2    1    2  501    0  0.53278616666E-02  0.86595909559E-02 -0.90869601404E+03  0.10913039068E+04  0.60433084555E+03 0.  0.
         13    1    3    3    0    0 -0.11591545219E+03 -0.27869769219E+03 -0.42931093145E+03  0.52480155445E+03  0.00000000000E+00 0.  1.
          3    1    3    3  501    0  0.11592078005E+03  0.27870635178E+03 -0.47938508259E+03  0.56650235232E+03  0.00000000000E+00 0.  1.
         21    1    1    2  502  501 -0.53278616666E-02 -0.86595909559E-02  0.65256923925E+00  0.65264844032E+00  0.00000000000E+00 0. -1.
<mgrwt>
<rscale>  1 0.60433085E+03</rscale>
<asrwt>0</asrwt>
<pdfrwt beam="1">  1        1 0.33438818E+00 0.60433085E+03</pdfrwt>
<pdfrwt beam="2">0</pdfrwt>
<totfact> 0.26183420E+00</totfact>
</mgrwt>
</event>
<event>
 6    1  0.1552440E-002  0.6786531E+03  0.7818608E-02  0.9754451E-01
          1   -1    0    0  502    0  0.00000000000E+00  0.00000000000E+00  0.11568871564E+03  0.11568871564E+03  0.00000000000E+00 0.  1.
         13   -1    0    0    0    0 -0.00000000000E+00 -0.00000000000E+00 -0.10000000000E+04  0.10000000000E+04  0.00000000000E+00 0.  1.
    9000005    2    1    2  501    0  0.59373073114E+00  0.83078459191E-01 -0.88466718517E+03  0.11149915187E+04  0.67865285587E+03 0.  0.
         13    1    3    3    0    0  0.31928903413E+02  0.11843926776E+03 -0.96225575872E+03  0.97004301977E+03  0.00000000000E+00 0.  1.
          1    1    3    3  501    0 -0.31335172682E+02 -0.11835618930E+03  0.77588573543E+02  0.14494849891E+03  0.00000000000E+00 0.  1.
         21    1    1    2  502  501 -0.59373073114E+00 -0.83078459191E-01  0.35590081112E+00  0.69719695843E+00  0.00000000000E+00 0.  1.
<mgrwt>
<rscale>  1 0.67865312E+03</rscale>
<asrwt>0</asrwt>
<pdfrwt beam="1">  1        1 0.42068713E+00 0.67865312E+03</pdfrwt>
<pdfrwt beam="2">0</pdfrwt>
<totfact> 0.10745825E+00</totfact>
</mgrwt>
</event>
<event>
 6    1  0.1552440E-002  0.6396513E+03  0.7818608E-02  0.9826394E-01
          1   -1    0    0  502    0  0.00000000000E+00  0.00000000000E+00  0.10229274556E+03  0.10229274556E+03  0.00000000000E+00 0.  1.
         13   -1    0    0    0    0 -0.00000000000E+00 -0.00000000000E+00 -0.10000000000E+04  0.10000000000E+04  0.00000000000E+00 0.  1.
    9000005    2    1    2  501    0  0.68121493072E-04  0.23856395806E-04 -0.89771154572E+03  0.11022884537E+04  0.63965132360E+03 0.  0.
         13    1    3    3    0    0  0.62749700012E+02 -0.60865976219E+02 -0.97901179647E+03  0.98290706048E+03  0.00000000000E+00 0.  1.
          1    1    3    3  501    0 -0.62749631891E+02  0.60866000076E+02  0.81300250753E+02  0.11938139319E+03  0.00000000000E+00 0.  1.
         21    1    1    2  502  501 -0.68121493066E-04 -0.23856395805E-04  0.42912831206E-02  0.42918900832E-02  0.00000000000E+00 0.  1.
<mgrwt>
<rscale>  1 0.63965132E+03</rscale>
<asrwt>0</asrwt>
<pdfrwt beam="1">  1        1 0.37197440E+00 0.63965132E+03</pdfrwt>
<pdfrwt beam="2">0</pdfrwt>
<totfact> 0.17834832E+00</totfact>
</mgrwt>
</event>
<event>
 6    1  0.1552440E-002  0.6475551E+03  0.7818608E-02  0.9811378E-01
          1   -1    0    0  502    0  0.00000000000E+00  0.00000000000E+00  0.10486099006E+03  0.10486099006E+03  0.00000000000E+00 0.  1.
         13   -1    0    0    0    0 -0.00000000000E+00 -0.00000000000E+00 -0.10000000000E+04  0.10000000000E+04  0.00000000000E+00 0.  1.
    9000005    2    1    2  501    0  0.10892555633E-02 -0.26273475403E-02 -0.89516803291E+03  0.11048318281E+04  0.64755506419E+03 0.  0.
         13    1    3    3    0    0 -0.92237477689E+02 -0.28062295687E+03 -0.22139522048E+03  0.36915151342E+03  0.00000000000E+00 0.  1.
          3    1    3    3  501    0  0.92238566944E+02  0.28062032952E+03 -0.67377281243E+03  0.73568031464E+03  0.00000000000E+00 0.  1.
         21    1    1    2  502  501 -0.10892555633E-02  0.26273475403E-02  0.29022971374E-01  0.29162000963E-01  0.00000000000E+00 0. -1.
<mgrwt>
<rscale>  1 0.64755506E+03</rscale>
<asrwt>0</asrwt>
<pdfrwt beam="1">  1        1 0.38131350E+00 0.64755506E+03</pdfrwt>
<pdfrwt beam="2">0</pdfrwt>
<totfact> 0.16199405E+00</totfact>
</mgrwt>
</event>
<event>
 6    1  0.1552440E-002  0.6589159E+03  0.7818608E-02  0.9790192E-01
          1   -1    0    0  502    0  0.00000000000E+00  0.00000000000E+00  0.10854265545E+03  0.10854265545E+03  0.00000000000E+00 0.  1.
         13   -1    0    0    0    0 -0.00000000000E+00 -0.00000000000E+00 -0.10000000000E+04  0.10000000000E+04  0.00000000000E+00 0.  1.
    9000005    2    1    2  501    0 -0.83634457724E-04 -0.18780701510E-05 -0.89145745046E+03  0.11085425205E+04  0.65891587760E+03 0.  0.
         13    1    3    3    0    0  0.27259879325E+03  0.13867124083E+03 -0.65179500355E+03  0.71998370938E+03  0.00000000000E+00 0.  1.
          1    1    3    3  501    0 -0.27259887689E+03 -0.13867124271E+03 -0.23966244690E+03  0.38855881111E+03  0.00000000000E+00 0.  1.
         21    1    1    2  502  501  0.83634457698E-04  0.18780701518E-05  0.10590537722E-03  0.13495998883E-03  0.00000000000E+00 0. -1.
<mgrwt>
<rscale>  1 0.65891588E+03</rscale>
<asrwt>0</asrwt>
<pdfrwt beam="1">  1        1 0.39470140E+00 0.65891588E+03</pdfrwt>
<pdfrwt beam="2">0</pdfrwt>
<totfact> 0.14101768E+00</totfact>
</mgrwt>
</event>
<event>
 6    1  0.1552440E-002  0.6482773E+03  0.7818608E-02  0.9810017E-01
          1   -1    0    0  502    0  0.00000000000E+00  0.00000000000E+00  0.10506776528E+03  0.10506776528E+03  0.00000000000E+00 0.  1.
         13   -1    0    0    0    0 -0.00000000000E+00 -0.00000000000E+00 -0.10000000000E+04  0.10000000000E+04  0.00000000000E+00 0.  1.
    9000005    2    1    2  501    0 -0.11556946027E-02  0.40790541163E-03 -0.89493390635E+03  0.11050656925E+04  0.64827732339E+03 0.  0.
         13    1    3    3    0    0  0.10133432443E+03  0.29618789375E+03 -0.30413738853E+03  0.43645786144E+03  0.00000000000E+00 0.  1.
          1    1    3    3  501    0 -0.10133548013E+03 -0.29618748584E+03 -0.59079651782E+03  0.66860783107E+03  0.00000000000E+00 0.  1.
         21    1    1    2  502  501  0.11556946027E-02 -0.40790541165E-03  0.16716363466E-02  0.20727722776E-02  0.00000000000E+00 0. -1.
<mgrwt>
<rscale>  1 0.64827732E+03</rscale>
<asrwt>0</asrwt>
<pdfrwt beam="1">  1        1 0.38206541E+00 0.64827732E+03</pdfrwt>
<pdfrwt beam="2">0</pdfrwt>
<totfact> 0.16073888E+00</totfact>
</mgrwt>
</event>
<event>
 6    1  0.1552440E-002  0.6455233E+03  0.7818608E-02  0.9815216E-01
          1   -1    0    0  502    0  0.00000000000E+00  0.00000000000E+00  0.10417513981E+03  0.10417513981E+03  0.00000000000E+00 0.  1.
         13   -1    0    0    0    0 -0.00000000000E+00 -0.00000000000E+00 -0.10000000000E+04  0.10000000000E+04  0.00000000000E+00 0.  1.
    9000005    2    1    2  501    0  0.28154241477E-04  0.18561313091E-04 -0.89582492524E+03  0.11041750665E+04  0.64552326129E+03 0.  0.
         13    1    3    3    0    0  0.27891558032E+03  0.39278814837E+02 -0.17833262749E+03  0.33337554240E+03  0.00000000000E+00 0.  1.
          1    1    3    3  501    0 -0.27891555217E+03 -0.39278796276E+02 -0.71749229775E+03  0.77079952414E+03  0.00000000000E+00 0.  1.
         21    1    1    2  502  501 -0.28154241474E-04 -0.18561313090E-04  0.65051037386E-04  0.73272239774E-04  0.00000000000E+00 0.  1.
<mgrwt>
<rscale>  1 0.64552326E+03</rscale>
<asrwt>0</asrwt>
<pdfrwt beam="1">  1        1 0.37881949E+00 0.64552326E+03</pdfrwt>
<pdfrwt beam="2">0</pdfrwt>
<totfact> 0.16621331E+00</totfact>
</mgrwt>
</event>
