<event>
 6    1  0.2980119E-003  0.6518349E+03  0.7818608E-02  0.9803342E-01
          1   -1    0    0  502    0  0.00000000000E+00  0.00000000000E+00  0.10622720996E+03  0.10622720996E+03  0.00000000000E+00 0.  1.
         13   -1    0    0    0    0 -0.00000000000E+00 -0.00000000000E+00 -0.10000000000E+04  0.10000000000E+04  0.00000000000E+00 0.  1.
    9000005    2    1    2  501    0  0.24474894639E-03 -0.21259840580E-04 -0.89377781279E+03  0.11062221812E+04  0.65183489901E+03 0.  0.
         13    1    3    3    0    0  0.16520602245E+02 -0.10244098747E+03  0.77440626638E+02  0.12947639502E+03  0.00000000000E+00 0.  1.
          3    1    3    3  501    0 -0.16520357496E+02  0.10244096621E+03 -0.97121843942E+03  0.97674578619E+03  0.00000000000E+00 0.  1.
         21    1    1    2  502  501 -0.24474894639E-03  0.21259840580E-04  0.50227479105E-02  0.50287523900E-02  0.00000000000E+00 0.  1.
<mgrwt>
<rscale>  1 0.65183490E+03</rscale>
<asrwt>0</asrwt>
<pdfrwt beam="1">  1        1 0.38628158E+00 0.65183490E+03</pdfrwt>
<pdfrwt beam="2">0</pdfrwt>
<totfact> 0.15388435E+00</totfact>
</mgrwt>
</event>
<event>
 6    1  0.2980119E-003  0.6494611E+03  0.7818608E-02  0.9807791E-01
          1   -1    0    0  502    0  0.00000000000E+00  0.00000000000E+00  0.10545001604E+03  0.10545001604E+03  0.00000000000E+00 0.  1.
         13   -1    0    0    0    0 -0.00000000000E+00 -0.00000000000E+00 -0.10000000000E+04  0.10000000000E+04  0.00000000000E+00 0.  1.
    9000005    2    1    2  501    0 -0.23091152521E-03  0.62919072320E-04 -0.89454969019E+03  0.11054496371E+04  0.64946112431E+03 0.  0.
         13    1    3    3    0    0  0.17055419080E+01 -0.27671424731E+03 -0.73651330537E+03  0.78678175660E+03  0.00000000000E+00 0.  1.
          1    1    3    3  501    0 -0.17057728195E+01  0.27671431023E+03 -0.15803638482E+03  0.31866788052E+03  0.00000000000E+00 0.  1.
         21    1    1    2  502  501  0.23091152521E-03 -0.62919072319E-04 -0.29377425348E-03  0.37892249095E-03  0.00000000000E+00 0.  1.
<mgrwt>
<rscale>  1 0.64946112E+03</rscale>
<asrwt>0</asrwt>
<pdfrwt beam="1">  1        1 0.38345541E+00 0.64946112E+03</pdfrwt>
<pdfrwt beam="2">0</pdfrwt>
<totfact> 0.15844729E+00</totfact>
</mgrwt>
</event>
<event>
 6    1  0.2980119E-003  0.6458908E+03  0.7818608E-02  0.9814520E-01
          1   -1    0    0  502    0  0.00000000000E+00  0.00000000000E+00  0.10432102378E+03  0.10432102378E+03  0.00000000000E+00 0.  1.
         13   -1    0    0    0    0 -0.00000000000E+00 -0.00000000000E+00 -0.10000000000E+04  0.10000000000E+04  0.00000000000E+00 0.  1.
    9000005    2    1    2  501    0  0.44161156245E-01  0.40300014604E-01 -0.89566390176E+03  0.11042593672E+04  0.64589079688E+03 0.  0.
         13    1    3    3    0    0 -0.26779409393E+03  0.17896559193E+03 -0.48779890679E+03  0.58454267021E+03  0.00000000000E+00 0.  1.
          1    1    3    3  501    0  0.26783825508E+03 -0.17892529191E+03 -0.40786499497E+03  0.51971669696E+03  0.00000000000E+00 0.  1.
         21    1    1    2  502  501 -0.44161156245E-01 -0.40300014604E-01 -0.15074458181E-01  0.61656615115E-01  0.00000000000E+00 0. -1.
<mgrwt>
<rscale>  1 0.64589080E+03</rscale>
<asrwt>0</asrwt>
<pdfrwt beam="1">  1        1 0.37934998E+00 0.64589080E+03</pdfrwt>
<pdfrwt beam="2">0</pdfrwt>
<totfact> 0.16530914E+00</totfact>
</mgrwt>
</event>
<event>
 6    1  0.2980119E-003  0.6332422E+03  0.7818608E-02  0.9838742E-01
          1   -1    0    0  502    0  0.00000000000E+00  0.00000000000E+00  0.10366944007E+03  0.10366944007E+03  0.00000000000E+00 0.  1.
         13   -1    0    0    0    0 -0.00000000000E+00 -0.00000000000E+00 -0.10000000000E+04  0.10000000000E+04  0.00000000000E+00 0.  1.
    9000005    2    1    2  501    0  0.42870887925E+00  0.13923483216E+00 -0.89973473935E+03  0.11002355479E+04  0.63324202053E+03 0.  0.
         13    1    3    3    0    0  0.24798752024E+03  0.10711488278E+03 -0.16254464675E+03  0.31526523832E+03  0.00000000000E+00 0.  1.
          1    1    3    3  501    0 -0.24755881136E+03 -0.10697564795E+03 -0.73719009261E+03  0.78497030961E+03  0.00000000000E+00 0.  1.
         21    1    1    2  502  501 -0.42870887925E+00 -0.13923483216E+00  0.34041794254E+01  0.34338921360E+01  0.00000000000E+00 0. -1.
<mgrwt>
<rscale>  1 0.63324218E+03</rscale>
<asrwt>0</asrwt>
<pdfrwt beam="1">  1        1 0.37698058E+00 0.63324218E+03</pdfrwt>
<pdfrwt beam="2">0</pdfrwt>
<totfact> 0.16972865E+00</totfact>
</mgrwt>
</event>
<event>
 6    1  0.2980119E-003  0.6415860E+03  0.7818608E-02  0.9822697E-01
          1   -1    0    0  502    0  0.00000000000E+00  0.00000000000E+00  0.10290850421E+03  0.10290850421E+03  0.00000000000E+00 0.  1.
         13   -1    0    0    0    0 -0.00000000000E+00 -0.00000000000E+00 -0.10000000000E+04  0.10000000000E+04  0.00000000000E+00 0.  1.
    9000005    2    1    2  501    0 -0.39031005670E-04  0.14734643379E-04 -0.89709185830E+03  0.11029081393E+04  0.64158597360E+03 0.  0.
         13    1    3    3    0    0 -0.95680304330E+02 -0.40197055320E+02 -0.97034461465E+03  0.97587867846E+03  0.00000000000E+00 0.  1.
          1    1    3    3  501    0  0.95680265299E+02  0.40197070054E+02  0.73252756353E+02  0.12702946084E+03  0.00000000000E+00 0.  1.
         21    1    1    2  502  501  0.39031005666E-04 -0.14734643381E-04  0.36250784701E-03  0.36490062792E-03  0.00000000000E+00 0.  1.
<mgrwt>
<rscale>  1 0.64158597E+03</rscale>
<asrwt>0</asrwt>
<pdfrwt beam="1">  1        1 0.37421353E+00 0.64158597E+03</pdfrwt>
<pdfrwt beam="2">0</pdfrwt>
<totfact> 0.17428819E+00</totfact>
</mgrwt>
</event>
<event>
 6    1  0.2980119E-003  0.6488878E+03  0.7818608E-02  0.9808868E-01
          1   -1    0    0  502    0  0.00000000000E+00  0.00000000000E+00  0.10530469715E+03  0.10530469715E+03  0.00000000000E+00 0.  1.
         13   -1    0    0    0    0 -0.00000000000E+00 -0.00000000000E+00 -0.10000000000E+04  0.10000000000E+04  0.00000000000E+00 0.  1.
    9000005    2    1    2  501    0 -0.18968342496E-02  0.38754328877E-02 -0.89473604597E+03  0.11052637262E+04  0.64888775029E+03 0.  0.
         13    1    3    3    0    0  0.24653966725E+03 -0.10228877831E+03 -0.76152682198E+03  0.80694975202E+03  0.00000000000E+00 0.  1.
          1    1    3    3  501    0 -0.24654156409E+03  0.10229265375E+03 -0.13320922399E+03  0.29831397418E+03  0.00000000000E+00 0.  1.
         21    1    1    2  502  501  0.18968342496E-02 -0.38754328877E-02  0.40743117265E-01  0.40970947813E-01  0.00000000000E+00 0. -1.
<mgrwt>
<rscale>  1 0.64888775E+03</rscale>
<asrwt>0</asrwt>
<pdfrwt beam="1">  1        1 0.38292698E+00 0.64888775E+03</pdfrwt>
<pdfrwt beam="2">0</pdfrwt>
<totfact> 0.15931841E+00</totfact>
</mgrwt>
</event>
<event>
 6    1  0.2980119E-003  0.6284959E+03  0.7818608E-02  0.9847988E-01
          1   -1    0    0  502    0  0.00000000000E+00  0.00000000000E+00  0.99800878755E+02  0.99800878755E+02  0.00000000000E+00 0.  1.
         13   -1    0    0    0    0 -0.00000000000E+00 -0.00000000000E+00 -0.10000000000E+04  0.10000000000E+04  0.00000000000E+00 0.  1.
    9000005    2    1    2  501    0 -0.11297608610E-01  0.87381288695E-01 -0.90124619487E+03  0.10987501046E+04  0.62849588769E+03 0.  0.
         13    1    3    3    0    0  0.19516570861E+03 -0.43806563035E+02 -0.87430361529E+03  0.89689212310E+03  0.00000000000E+00 0.  1.
          1    1    3    3  501    0 -0.19517700621E+03  0.43893944324E+02 -0.26942579583E+02  0.20185798151E+03  0.00000000000E+00 0.  1.
         21    1    1    2  502  501  0.11297608610E-01 -0.87381288695E-01  0.10470736253E+01  0.10507741444E+01  0.00000000000E+00 0. -1.
<mgrwt>
<rscale>  1 0.62849589E+03</rscale>
<asrwt>0</asrwt>
<pdfrwt beam="1">  1        1 0.36291305E+00 0.62849589E+03</pdfrwt>
<pdfrwt beam="2">0</pdfrwt>
<totfact> 0.19583987E+00</totfact>
</mgrwt>
</event>
<event>
 6    1  0.2980119E-003  0.6541280E+03  0.7818608E-02  0.9799064E-01
          1   -1    0    0  502    0  0.00000000000E+00  0.00000000000E+00  0.11907087444E+03  0.11907087444E+03  0.00000000000E+00 0.  1.
         13   -1    0    0    0    0 -0.00000000000E+00 -0.00000000000E+00 -0.10000000000E+04  0.10000000000E+04  0.00000000000E+00 0.  1.
    9000005    2    1    2  501    0 -0.15291787727E+00  0.57138401293E-01 -0.89302853617E+03  0.11069703626E+04  0.65412796203E+03 0.  0.
         13    1    3    3    0    0  0.29265721192E+03 -0.47705601728E+02 -0.67967611174E+03  0.74154142500E+03  0.00000000000E+00 0.  1.
          1    1    3    3  501    0 -0.29281012979E+03  0.47762740130E+02 -0.21335242443E+03  0.36542893764E+03  0.00000000000E+00 0.  1.
         21    1    1    2  502  501  0.15291787727E+00 -0.57138401293E-01  0.12099410612E+02  0.12100511801E+02  0.00000000000E+00 0.  1.
<mgrwt>
<rscale>  1 0.65412798E+03</rscale>
<asrwt>0</asrwt>
<pdfrwt beam="1">  1        1 0.43298591E+00 0.65412798E+03</pdfrwt>
<pdfrwt beam="2">0</pdfrwt>
<totfact> 0.94968785E-01</totfact>
</mgrwt>
</event>
<event>
 6    1  0.2980119E-003  0.6412958E+03  0.7818608E-02  0.9823250E-01
          1   -1    0    0  502    0  0.00000000000E+00  0.00000000000E+00  0.10281512059E+03  0.10281512059E+03  0.00000000000E+00 0.  1.
         13   -1    0    0    0    0 -0.00000000000E+00 -0.00000000000E+00 -0.10000000000E+04  0.10000000000E+04  0.00000000000E+00 0.  1.
    9000005    2    1    2  501    0 -0.41331993771E-04  0.15181794708E-04 -0.89718489619E+03  0.11028150735E+04  0.64129583525E+03 0.  0.
         13    1    3    3    0    0 -0.28318945191E+03  0.14732005234E+03 -0.39655621970E+03  0.50907396209E+03  0.00000000000E+00 0.  1.
          1    1    3    3  501    0  0.28318941058E+03 -0.14732003716E+03 -0.50062867649E+03  0.59374111138E+03  0.00000000000E+00 0.  1.
         21    1    1    2  502  501  0.41331993743E-04 -0.15181794712E-04  0.16782062944E-04  0.47121738445E-04  0.00000000000E+00 0. -1.
<mgrwt>
<rscale>  1 0.64129584E+03</rscale>
<asrwt>0</asrwt>
<pdfrwt beam="1">  1        1 0.37387395E+00 0.64129584E+03</pdfrwt>
<pdfrwt beam="2">0</pdfrwt>
<totfact> 0.17489810E+00</totfact>
</mgrwt>
</event>
<event>
 6    1  0.2980119E-003  0.6538396E+03  0.7818608E-02  0.9799601E-01
          1   -1    0    0  502    0  0.00000000000E+00  0.00000000000E+00  0.10875211790E+03  0.10875211790E+03  0.00000000000E+00 0.  1.
         13   -1    0    0    0    0 -0.00000000000E+00 -0.00000000000E+00 -0.10000000000E+04  0.10000000000E+04  0.00000000000E+00 0.  1.
    9000005    2    1    2  501    0 -0.31405963832E+00  0.13160195993E+00 -0.89310630676E+03  0.11068627543E+04  0.65383955658E+03 0.  0.
         13    1    3    3    0    0  0.17192613978E+02  0.19207212987E+03 -0.89355312691E+03  0.91412498032E+03  0.00000000000E+00 0.  1.
          1    1    3    3  501    0 -0.17506673616E+02 -0.19194052791E+03  0.44682014299E+00  0.19273777399E+03  0.00000000000E+00 0.  1.
         21    1    1    2  502  501  0.31405963832E+00 -0.13160195993E+00  0.18584246684E+01  0.18893635914E+01  0.00000000000E+00 0. -1.
<mgrwt>
<rscale>  1 0.65383965E+03</rscale>
<asrwt>0</asrwt>
<pdfrwt beam="1">  1        1 0.39546308E+00 0.65383965E+03</pdfrwt>
<pdfrwt beam="2">0</pdfrwt>
<totfact> 0.14005502E+00</totfact>
</mgrwt>
</event>
<event>
 6    1  0.2980119E-003  0.6358837E+03  0.7818608E-02  0.9833634E-01
          1   -1    0    0  502    0  0.00000000000E+00  0.00000000000E+00  0.10166504841E+03  0.10166504841E+03  0.00000000000E+00 0.  1.
         13   -1    0    0    0    0 -0.00000000000E+00 -0.00000000000E+00 -0.10000000000E+04  0.10000000000E+04  0.00000000000E+00 0.  1.
    9000005    2    1    2  501    0  0.90533950875E+00 -0.11143511625E+01 -0.89769555697E+03  0.11000933475E+04  0.63588206366E+03 0.  0.
         13    1    3    3    0    0 -0.25964160901E+03  0.41510572582E+02 -0.75608708569E+03  0.80050270076E+03  0.00000000000E+00 0.  1.
          1    1    3    3  501    0  0.26054694852E+03 -0.42624923744E+02 -0.14160847128E+03  0.29959064679E+03  0.00000000000E+00 0.  1.
         21    1    1    2  502  501 -0.90533950875E+00  0.11143511625E+01 -0.63939461926E+00  0.15717008680E+01  0.00000000000E+00 0. -1.
<mgrwt>
<rscale>  1 0.63588368E+03</rscale>
<asrwt>0</asrwt>
<pdfrwt beam="1">  1        1 0.36969186E+00 0.63588368E+03</pdfrwt>
<pdfrwt beam="2">0</pdfrwt>
<totfact> 0.18263987E+00</totfact>
</mgrwt>
</event>
<event>
 6    1  0.2980119E-003  0.6624154E+03  0.7818608E-02  0.9783757E-01
          1   -1    0    0  502    0  0.00000000000E+00  0.00000000000E+00  0.11194947668E+03  0.11194947668E+03  0.00000000000E+00 0.  1.
         13   -1    0    0    0    0 -0.00000000000E+00 -0.00000000000E+00 -0.10000000000E+04  0.10000000000E+04  0.00000000000E+00 0.  1.
    9000005    2    1    2  501    0  0.70056151726E-01 -0.45822707971E+00 -0.89027494302E+03  0.11096772701E+04  0.66241524337E+03 0.  0.
         13    1    3    3    0    0 -0.29374827402E+03 -0.10493511189E+03 -0.25845151217E+03  0.40508839818E+03  0.00000000000E+00 0.  1.
          1    1    3    3  501    0  0.29381833017E+03  0.10447688481E+03 -0.63182343085E+03  0.70458887188E+03  0.00000000000E+00 0.  1.
         21    1    1    2  502  501 -0.70056151726E-01  0.45822707971E+00  0.22244197024E+01  0.22722066220E+01  0.00000000000E+00 0.  1.
<mgrwt>
<rscale>  1 0.66241541E+03</rscale>
<asrwt>0</asrwt>
<pdfrwt beam="1">  1        1 0.40708986E+00 0.66241541E+03</pdfrwt>
<pdfrwt beam="2">0</pdfrwt>
<totfact> 0.12408510E+00</totfact>
</mgrwt>
</event>
<event>
 6    1  0.2980119E-003  0.6470515E+03  0.7818608E-02  0.9812328E-01
          1   -1    0    0  502    0  0.00000000000E+00  0.00000000000E+00  0.10754053250E+03  0.10754053250E+03  0.00000000000E+00 0.  1.
         13   -1    0    0    0    0 -0.00000000000E+00 -0.00000000000E+00 -0.10000000000E+04  0.10000000000E+04  0.00000000000E+00 0.  1.
    9000005    2    1    2  501    0  0.21736880713E+00  0.34988135155E+00 -0.89531475715E+03  0.11046556850E+04  0.64705138773E+03 0.  0.
         13    1    3    3    0    0 -0.12209360075E+03 -0.16485996256E+03 -0.87427719735E+03  0.89802353666E+03  0.00000000000E+00 0.  1.
          3    1    3    3  501    0  0.12231096956E+03  0.16520984392E+03 -0.21037559800E+02  0.20663214833E+03  0.00000000000E+00 0.  1.
         21    1    1    2  502  501 -0.21736880713E+00 -0.34988135155E+00  0.28552896487E+01  0.28848475066E+01  0.00000000000E+00 0. -1.
<mgrwt>
<rscale>  1 0.64705152E+03</rscale>
<asrwt>0</asrwt>
<pdfrwt beam="1">  1        1 0.39105731E+00 0.64705152E+03</pdfrwt>
<pdfrwt beam="2">0</pdfrwt>
<totfact> 0.14669662E+00</totfact>
</mgrwt>
</event>
<event>
 6    1  0.2980119E-003  0.6441353E+03  0.7818608E-02  0.9817847E-01
          1   -1    0    0  502    0  0.00000000000E+00  0.00000000000E+00  0.10372756761E+03  0.10372756761E+03  0.00000000000E+00 0.  1.
         13   -1    0    0    0    0 -0.00000000000E+00 -0.00000000000E+00 -0.10000000000E+04  0.10000000000E+04  0.00000000000E+00 0.  1.
    9000005    2    1    2  501    0  0.37478905028E-05  0.70005356037E-05 -0.89627244332E+03  0.11037275541E+04  0.64413525057E+03 0.  0.
         13    1    3    3    0    0 -0.25804371408E+03  0.88851563983E+02 -0.74117223396E+03  0.78982114380E+03  0.00000000000E+00 0.  1.
          1    1    3    3  501    0  0.25804371782E+03 -0.88851556982E+02 -0.15510020936E+03  0.31390641030E+03  0.00000000000E+00 0.  1.
         21    1    1    2  502  501 -0.37478904523E-05 -0.70005355982E-05  0.10931143696E-04  0.13510887610E-04  0.00000000000E+00 0. -1.
<mgrwt>
<rscale>  1 0.64413525E+03</rscale>
<asrwt>0</asrwt>
<pdfrwt beam="1">  1        1 0.37719195E+00 0.64413525E+03</pdfrwt>
<pdfrwt beam="2">0</pdfrwt>
<totfact> 0.16902486E+00</totfact>
</mgrwt>
</event>
<event>
 6    1  0.2980119E-003  0.6461623E+03  0.7818608E-02  0.9814007E-01
          1   -1    0    0  502    0  0.00000000000E+00  0.00000000000E+00  0.10443365180E+03  0.10443365180E+03  0.00000000000E+00 0.  1.
         13   -1    0    0    0    0 -0.00000000000E+00 -0.00000000000E+00 -0.10000000000E+04  0.10000000000E+04  0.00000000000E+00 0.  1.
    9000005    2    1    2  501    0  0.45216811347E-02 -0.17199329997E-02 -0.89561845254E+03  0.11043813234E+04  0.64616228211E+03 0.  0.
         13    1    3    3    0    0 -0.26259897573E+03  0.62960858833E+01 -0.12631414180E+03  0.29146719398E+03  0.00000000000E+00 0.  1.
          3    1    3    3  501    0  0.26260349741E+03 -0.62978058163E+01 -0.76930431074E+03  0.81291412937E+03  0.00000000000E+00 0.  1.
         21    1    1    2  502  501 -0.45216811347E-02  0.17199329997E-02  0.52104337015E-01  0.52328440695E-01  0.00000000000E+00 0.  1.
<mgrwt>
<rscale>  1 0.64616228E+03</rscale>
<asrwt>0</asrwt>
<pdfrwt beam="1">  1        1 0.37975953E+00 0.64616228E+03</pdfrwt>
<pdfrwt beam="2">0</pdfrwt>
<totfact> 0.16461467E+00</totfact>
</mgrwt>
</event>
<event>
 6    1  0.2980119E-003  0.6443484E+03  0.7818608E-02  0.9817442E-01
          1   -1    0    0  502    0  0.00000000000E+00  0.00000000000E+00  0.10407604119E+03  0.10407604119E+03  0.00000000000E+00 0.  1.
         13   -1    0    0    0    0 -0.00000000000E+00 -0.00000000000E+00 -0.10000000000E+04  0.10000000000E+04  0.00000000000E+00 0.  1.
    9000005    2    1    2  501    0  0.74796470825E-02  0.68683312909E-01 -0.89619907281E+03  0.11037923846E+04  0.64434838826E+03 0.  0.
         13    1    3    3    0    0 -0.24612521525E+03 -0.27615968965E+02 -0.95138532661E+02  0.26531416042E+03  0.00000000000E+00 0.  1.
          1    1    3    3  501    0  0.24613269489E+03  0.27684652278E+02 -0.80106054015E+03  0.83847822419E+03  0.00000000000E+00 0.  1.
         21    1    1    2  502  501 -0.74796470825E-02 -0.68683312909E-01  0.27511399385E+00  0.28365657441E+00  0.00000000000E+00 0. -1.
<mgrwt>
<rscale>  1 0.64434839E+03</rscale>
<asrwt>0</asrwt>
<pdfrwt beam="1">  1        1 0.37845913E+00 0.64434839E+03</pdfrwt>
<pdfrwt beam="2">0</pdfrwt>
<totfact> 0.16685853E+00</totfact>
</mgrwt>
</event>
<event>
 6    1  0.2980119E-003  0.6529276E+03  0.7818608E-02  0.9801301E-01
          1   -1    0    0  502    0  0.00000000000E+00  0.00000000000E+00  0.10975951195E+03  0.10975951195E+03  0.00000000000E+00 0.  1.
         13   -1    0    0    0    0 -0.00000000000E+00 -0.00000000000E+00 -0.10000000000E+04  0.10000000000E+04  0.00000000000E+00 0.  1.
    9000005    2    1    2  501    0 -0.26336802051E+00 -0.13143532863E+00 -0.89341386076E+03  0.11065725177E+04  0.65292750265E+03 0.  0.
         13    1    3    3    0    0 -0.23975208908E+03  0.18124852079E+03 -0.66307072024E+03  0.72800746599E+03  0.00000000000E+00 0.  1.
          1    1    3    3  501    0  0.23948872106E+03 -0.18137995612E+03 -0.23034314052E+03  0.37856505172E+03  0.00000000000E+00 0.  1.
         21    1    1    2  502  501  0.26336802051E+00  0.13143532863E+00  0.31733727019E+01  0.31869942367E+01  0.00000000000E+00 0.  1.
<mgrwt>
<rscale>  1 0.65292757E+03</rscale>
<asrwt>0</asrwt>
<pdfrwt beam="1">  1        1 0.39912634E+00 0.65292757E+03</pdfrwt>
<pdfrwt beam="2">0</pdfrwt>
<totfact> 0.13491710E+00</totfact>
</mgrwt>
</event>
<event>
 6    1  0.2980119E-003  0.6494004E+03  0.7818608E-02  0.9807905E-01
          1   -1    0    0  502    0  0.00000000000E+00  0.00000000000E+00  0.13251096750E+03  0.13251096750E+03  0.00000000000E+00 0.  1.
         13   -1    0    0    0    0 -0.00000000000E+00 -0.00000000000E+00 -0.10000000000E+04  0.10000000000E+04  0.00000000000E+00 0.  1.
    9000005    2    1    2  501    0 -0.26135826293E+01 -0.26759863576E+01 -0.89442691903E+03  0.11053146176E+04  0.64938963550E+03 0.  0.
         13    1    3    3    0    0  0.29874926952E+03  0.12177462922E+03 -0.47118155866E+03  0.57104487353E+03  0.00000000000E+00 0.  1.
          1    1    3    3  501    0 -0.30136285215E+03 -0.12445061557E+03 -0.42324536036E+03  0.53426974408E+03  0.00000000000E+00 0.  1.
         21    1    1    2  502  501  0.26135826293E+01  0.26759863576E+01  0.26937886524E+02  0.27196349894E+02  0.00000000000E+00 0.  1.
<mgrwt>
<rscale>  1 0.64940041E+03</rscale>
<asrwt>0</asrwt>
<pdfrwt beam="1">  1        1 0.48185908E+00 0.64940041E+03</pdfrwt>
<pdfrwt beam="2">0</pdfrwt>
<totfact> 0.56433398E-01</totfact>
</mgrwt>
</event>
<event>
 6    1  0.2980119E-003  0.6618221E+03  0.7818608E-02  0.9784845E-01
          1   -1    0    0  502    0  0.00000000000E+00  0.00000000000E+00  0.10963184870E+03  0.10963184870E+03  0.00000000000E+00 0.  1.
         13   -1    0    0    0    0 -0.00000000000E+00 -0.00000000000E+00 -0.10000000000E+04  0.10000000000E+04  0.00000000000E+00 0.  1.
    9000005    2    1    2  501    0  0.24698227248E-02  0.99894218877E-02 -0.89049764735E+03  0.11095019444E+04  0.66182210955E+03 0.  0.
         13    1    3    3    0    0 -0.15371057002E+03 -0.27744556795E+03 -0.60336139559E+03  0.68165090494E+03  0.00000000000E+00 0.  1.
          3    1    3    3  501    0  0.15371303984E+03  0.27745555737E+03 -0.28713625176E+03  0.42785103951E+03  0.00000000000E+00 0.  1.
         21    1    1    2  502  501 -0.24698227248E-02 -0.99894218877E-02  0.12949604672E+00  0.12990425201E+00  0.00000000000E+00 0. -1.
<mgrwt>
<rscale>  1 0.66182211E+03</rscale>
<asrwt>0</asrwt>
<pdfrwt beam="1">  1        1 0.39866211E+00 0.66182211E+03</pdfrwt>
<pdfrwt beam="2">0</pdfrwt>
<totfact> 0.13533469E+00</totfact>
</mgrwt>
</event>
<event>
 6    1  0.2980119E-003  0.6052372E+03  0.7818608E-02  0.9894600E-01
          1   -1    0    0  502    0  0.00000000000E+00  0.00000000000E+00  0.91604103084E+02  0.91604103084E+02  0.00000000000E+00 0.  1.
         13   -1    0    0    0    0 -0.00000000000E+00 -0.00000000000E+00 -0.10000000000E+04  0.10000000000E+04  0.00000000000E+00 0.  1.
    9000005    2    1    2  501    0  0.20295396100E-01  0.14483088836E-01 -0.90841532200E+03  0.10915724962E+04  0.60523723989E+03 0.  0.
         13    1    3    3    0    0  0.26026463853E+03 -0.10314947474E+03 -0.24697161650E+03  0.37332623209E+03  0.00000000000E+00 0.  1.
          3    1    3    3  501    0 -0.26024434314E+03  0.10316395783E+03 -0.66144370549E+03  0.71824626408E+03  0.00000000000E+00 0.  1.
         21    1    1    2  502  501 -0.20295396100E-01 -0.14483088836E-01  0.19425079675E-01  0.31606908825E-01  0.00000000000E+00 0. -1.
<mgrwt>
<rscale>  1 0.60523724E+03</rscale>
<asrwt>0</asrwt>
<pdfrwt beam="1">  1        1 0.33310653E+00 0.60523724E+03</pdfrwt>
<pdfrwt beam="2">0</pdfrwt>
<totfact> 0.26516371E+00</totfact>
</mgrwt>
</event>
<event>
 6    1  0.2980119E-003  0.6413757E+03  0.7818608E-02  0.9823098E-01
          1   -1    0    0  502    0  0.00000000000E+00  0.00000000000E+00  0.10305148477E+03  0.10305148477E+03  0.00000000000E+00 0.  1.
         13   -1    0    0    0    0 -0.00000000000E+00 -0.00000000000E+00 -0.10000000000E+04  0.10000000000E+04  0.00000000000E+00 0.  1.
    9000005    2    1    2  501    0  0.55154596269E-01 -0.26366567288E-01 -0.89715441279E+03  0.11028367034E+04  0.64137567016E+03 0.  0.
         13    1    3    3    0    0  0.31317095577E+03  0.63516444895E+02 -0.49557237324E+03  0.58966292356E+03  0.00000000000E+00 0.  1.
          3    1    3    3  501    0 -0.31311580117E+03 -0.63542811462E+02 -0.40158203955E+03  0.51317377985E+03  0.00000000000E+00 0.  1.
         21    1    1    2  502  501 -0.55154596269E-01  0.26366567288E-01  0.20589756245E+00  0.21478135762E+00  0.00000000000E+00 0. -1.
<mgrwt>
<rscale>  1 0.64137567E+03</rscale>
<asrwt>0</asrwt>
<pdfrwt beam="1">  1        1 0.37473346E+00 0.64137567E+03</pdfrwt>
<pdfrwt beam="2">0</pdfrwt>
<totfact> 0.17337904E+00</totfact>
</mgrwt>
</event>
<event>
 6    1  0.2980119E-003  0.6545840E+03  0.7818608E-02  0.9798216E-01
          1   -1    0    0  502    0  0.00000000000E+00  0.00000000000E+00  0.10712005802E+03  0.10712005802E+03  0.00000000000E+00 0.  1.
         13   -1    0    0    0    0 -0.00000000000E+00 -0.00000000000E+00 -0.10000000000E+04  0.10000000000E+04  0.00000000000E+00 0.  1.
    9000005    2    1    2  501    0  0.23319595222E-04  0.16486252605E-04 -0.89287994256E+03  0.11071200295E+04  0.65458396544E+03 0.  0.
         13    1    3    3    0    0 -0.46990297278E+02  0.27563613199E+03 -0.73414914358E+03  0.78559425297E+03  0.00000000000E+00 0.  1.
          1    1    3    3  501    0  0.46990320598E+02 -0.27563611550E+03 -0.15873079898E+03  0.32152577648E+03  0.00000000000E+00 0.  1.
         21    1    1    2  502  501 -0.23319595222E-04 -0.16486252626E-04  0.57742831151E-06  0.28564549190E-04  0.00000000000E+00 0.  1.
<mgrwt>
<rscale>  1 0.65458397E+03</rscale>
<asrwt>0</asrwt>
<pdfrwt beam="1">  1        1 0.38952831E+00 0.65458397E+03</pdfrwt>
<pdfrwt beam="2">0</pdfrwt>
<totfact> 0.14879583E+00</totfact>
</mgrwt>
</event>
<event>
 6    1  0.2980119E-003  0.6570267E+03  0.7818608E-02  0.9793683E-01
          1   -1    0    0  502    0  0.00000000000E+00  0.00000000000E+00  0.10806947830E+03  0.10806947830E+03  0.00000000000E+00 0.  1.
         13   -1    0    0    0    0 -0.00000000000E+00 -0.00000000000E+00 -0.10000000000E+04  0.10000000000E+04  0.00000000000E+00 0.  1.
    9000005    2    1    2  501    0  0.15155743429E-01 -0.25805832435E-01 -0.89207731420E+03  0.11079196662E+04  0.65702667470E+03 0.  0.
         13    1    3    3    0    0  0.29601428241E+03  0.46721007865E+02 -0.21907555203E+03  0.37121611693E+03  0.00000000000E+00 0.  1.
          1    1    3    3  501    0 -0.29599912667E+03 -0.46746813698E+02 -0.67300176217E+03  0.73670354924E+03  0.00000000000E+00 0.  1.
         21    1    1    2  502  501 -0.15155743429E-01  0.25805832435E-01  0.14679250158E+00  0.14981213591E+00  0.00000000000E+00 0. -1.
<mgrwt>
<rscale>  1 0.65702668E+03</rscale>
<asrwt>0</asrwt>
<pdfrwt beam="1">  1        1 0.39298075E+00 0.65702668E+03</pdfrwt>
<pdfrwt beam="2">0</pdfrwt>
<totfact> 0.14357299E+00</totfact>
</mgrwt>
</event>
<event>
 6    1  0.2980119E-003  0.6475186E+03  0.7818608E-02  0.9811447E-01
          1   -1    0    0  502    0  0.00000000000E+00  0.00000000000E+00  0.10624817153E+03  0.10624817153E+03  0.00000000000E+00 0.  1.
         13   -1    0    0    0    0 -0.00000000000E+00 -0.00000000000E+00 -0.10000000000E+04  0.10000000000E+04  0.00000000000E+00 0.  1.
    9000005    2    1    2  501    0  0.12839319495E+01 -0.18555822856E+01 -0.89412041155E+03  0.11039617944E+04  0.64751466508E+03 0.  0.
         13    1    3    3    0    0  0.30973285594E+03 -0.91619744882E+02 -0.50370418339E+03  0.59836988901E+03  0.00000000000E+00 0.  1.
          1    1    3    3  501    0 -0.30844892399E+03  0.89764162597E+02 -0.39041622815E+03  0.50559190540E+03  0.00000000000E+00 0.  1.
         21    1    1    2  502  501 -0.12839319495E+01  0.18555822856E+01  0.36858307268E+00  0.22863771235E+01  0.00000000000E+00 0. -1.
<mgrwt>
<rscale>  1 0.64751860E+03</rscale>
<asrwt>0</asrwt>
<pdfrwt beam="1">  1        1 0.38635780E+00 0.64751860E+03</pdfrwt>
<pdfrwt beam="2">0</pdfrwt>
<totfact> 0.15388790E+00</totfact>
</mgrwt>
</event>
<event>
 6    1  0.2980119E-003  0.6509197E+03  0.7818608E-02  0.9805055E-01
          1   -1    0    0  502    0  0.00000000000E+00  0.00000000000E+00  0.10592579386E+03  0.10592579386E+03  0.00000000000E+00 0.  1.
         13   -1    0    0    0    0 -0.00000000000E+00 -0.00000000000E+00 -0.10000000000E+04  0.10000000000E+04  0.00000000000E+00 0.  1.
    9000005    2    1    2  501    0 -0.50608496846E-02 -0.24901349650E-03 -0.89406501092E+03  0.11059152950E+04  0.65091965397E+03 0.  0.
         13    1    3    3    0    0 -0.73502708128E+02 -0.31703877025E+03 -0.44213278948E+03  0.54899693394E+03  0.00000000000E+00 0.  1.
          3    1    3    3  501    0  0.73497647278E+02  0.31703852124E+03 -0.45193222144E+03  0.55691836105E+03  0.00000000000E+00 0.  1.
         21    1    1    2  502  501  0.50608496846E-02  0.24901349645E-03 -0.91952176610E-02  0.10498868276E-01  0.00000000000E+00 0. -1.
<mgrwt>
<rscale>  1 0.65091965E+03</rscale>
<asrwt>0</asrwt>
<pdfrwt beam="1">  1        1 0.38518552E+00 0.65091965E+03</pdfrwt>
<pdfrwt beam="2">0</pdfrwt>
<totfact> 0.15563880E+00</totfact>
</mgrwt>
</event>
<event>
 6    1  0.2980119E-003  0.6463708E+03  0.7818608E-02  0.9813613E-01
          1   -1    0    0  502    0  0.00000000000E+00  0.00000000000E+00  0.10485805996E+03  0.10485805996E+03  0.00000000000E+00 0.  1.
         13   -1    0    0    0    0 -0.00000000000E+00 -0.00000000000E+00 -0.10000000000E+04  0.10000000000E+04  0.00000000000E+00 0.  1.
    9000005    2    1    2  501    0  0.28027513407E-01  0.41100377779E-01 -0.89554953426E+03  0.11044474411E+04  0.64637077549E+03 0.  0.
         13    1    3    3    0    0  0.31601833097E+03 -0.67618558453E+02 -0.45440936466E+03  0.55760893613E+03  0.00000000000E+00 0.  1.
          3    1    3    3  501    0 -0.31599030346E+03  0.67659658831E+02 -0.44114016960E+03  0.54683850500E+03  0.00000000000E+00 0.  1.
         21    1    1    2  502  501 -0.28027513407E-01 -0.41100377779E-01  0.40759421933E+00  0.41061883809E+00  0.00000000000E+00 0. -1.
<mgrwt>
<rscale>  1 0.64637078E+03</rscale>
<asrwt>0</asrwt>
<pdfrwt beam="1">  1        1 0.38130284E+00 0.64637078E+03</pdfrwt>
<pdfrwt beam="2">0</pdfrwt>
<totfact> 0.16204693E+00</totfact>
</mgrwt>
</event>
<event>
 6    1  0.2980119E-003  0.6403114E+03  0.7818608E-02  0.9825131E-01
          1   -1    0    0  502    0  0.00000000000E+00  0.00000000000E+00  0.10302034077E+03  0.10302034077E+03  0.00000000000E+00 0.  1.
         13   -1    0    0    0    0 -0.00000000000E+00 -0.00000000000E+00 -0.10000000000E+04  0.10000000000E+04  0.00000000000E+00 0.  1.
    9000005    2    1    2  501    0 -0.12588105929E-01 -0.99882964035E-02 -0.89750017822E+03  0.11024995738E+04  0.64031143989E+03 0.  0.
         13    1    3    3    0    0 -0.48839717824E+02  0.41933621030E+02  0.91242189582E+02  0.11166415615E+03  0.00000000000E+00 0.  1.
          3    1    3    3  501    0  0.48827129718E+02 -0.41943609326E+02 -0.98874236780E+03  0.99083541764E+03  0.00000000000E+00 0.  1.
         21    1    1    2  502  501  0.12588105929E-01  0.99882964035E-02  0.52051898813E+00  0.52076697618E+00  0.00000000000E+00 0.  1.
<mgrwt>
<rscale>  1 0.64031144E+03</rscale>
<asrwt>0</asrwt>
<pdfrwt beam="1">  1        1 0.37462021E+00 0.64031144E+03</pdfrwt>
<pdfrwt beam="2">0</pdfrwt>
<totfact> 0.17361197E+00</totfact>
</mgrwt>
</event>
<event>
 6    1  0.2980119E-003  0.6478545E+03  0.7818608E-02  0.9810813E-01
          1   -1    0    0  502    0  0.00000000000E+00  0.00000000000E+00  0.10520445364E+03  0.10520445364E+03  0.00000000000E+00 0.  1.
         13   -1    0    0    0    0 -0.00000000000E+00 -0.00000000000E+00 -0.10000000000E+04  0.10000000000E+04  0.00000000000E+00 0.  1.
    9000005    2    1    2  501    0 -0.16133096938E-01  0.74985223220E-02 -0.89507081612E+03  0.11049286096E+04  0.64785450996E+03 0.  0.
         13    1    3    3    0    0 -0.10072668672E+03 -0.29046926855E+03 -0.62154782418E+03  0.69342624636E+03  0.00000000000E+00 0.  1.
          3    1    3    3  501    0  0.10071055363E+03  0.29047676707E+03 -0.27352299194E+03  0.41150236322E+03  0.00000000000E+00 0.  1.
         21    1    1    2  502  501  0.16133096938E-01 -0.74985223219E-02  0.27526975847E+00  0.27584405845E+00  0.00000000000E+00 0. -1.
<mgrwt>
<rscale>  1 0.64785451E+03</rscale>
<asrwt>0</asrwt>
<pdfrwt beam="1">  1        1 0.38256246E+00 0.64785451E+03</pdfrwt>
<pdfrwt beam="2">0</pdfrwt>
<totfact> 0.15994077E+00</totfact>
</mgrwt>
</event>
<event>
 6    1  0.2980119E-003  0.6498787E+03  0.7818608E-02  0.9807007E-01
          1   -1    0    0  502    0  0.00000000000E+00  0.00000000000E+00  0.10674151904E+03  0.10674151904E+03  0.00000000000E+00 0.  1.
         13   -1    0    0    0    0 -0.00000000000E+00 -0.00000000000E+00 -0.10000000000E+04  0.10000000000E+04  0.00000000000E+00 0.  1.
    9000005    2    1    2  501    0 -0.94966252147E+00 -0.18447404209E+01 -0.89327820691E+03  0.11046665937E+04  0.64987539062E+03 0.  0.
         13    1    3    3    0    0 -0.52873865981E+02 -0.19818311035E+03 -0.87729046093E+03  0.90094991191E+03  0.00000000000E+00 0.  1.
          3    1    3    3  501    0  0.51924203460E+02  0.19633836993E+03 -0.15987745976E+02  0.20371668177E+03  0.00000000000E+00 0.  1.
         21    1    1    2  502  501  0.94966252147E+00  0.18447404209E+01  0.19725943010E-01  0.20749253572E+01  0.00000000000E+00 0. -1.
<mgrwt>
<rscale>  1 0.64987870E+03</rscale>
<asrwt>0</asrwt>
<pdfrwt beam="1">  1        1 0.38815180E+00 0.64987870E+03</pdfrwt>
<pdfrwt beam="2">0</pdfrwt>
<totfact> 0.15103253E+00</totfact>
</mgrwt>
</event>
<event>
 6    1  0.2980119E-003  0.6583629E+03  0.7818608E-02  0.9791212E-01
          1   -1    0    0  502    0  0.00000000000E+00  0.00000000000E+00  0.10836363500E+03  0.10836363500E+03  0.00000000000E+00 0.  1.
         13   -1    0    0    0    0 -0.00000000000E+00 -0.00000000000E+00 -0.10000000000E+04  0.10000000000E+04  0.00000000000E+00 0.  1.
    9000005    2    1    2  501    0  0.54938964606E-03  0.68717501853E-03 -0.89163949005E+03  0.11083603885E+04  0.65836294740E+03 0.  0.
         13    1    3    3    0    0  0.19546403960E+01  0.32470752230E+03 -0.35481920990E+03  0.48097345808E+03  0.00000000000E+00 0.  1.
          3    1    3    3  501    0 -0.19540910064E+01 -0.32470683513E+03 -0.53682028015E+03  0.62738693039E+03  0.00000000000E+00 0.  1.
         21    1    1    2  502  501 -0.54938964606E-03 -0.68717501857E-03  0.31250519653E-02  0.32465348104E-02  0.00000000000E+00 0. -1.
<mgrwt>
<rscale>  1 0.65836295E+03</rscale>
<asrwt>0</asrwt>
<pdfrwt beam="1">  1        1 0.39405041E+00 0.65836295E+03</pdfrwt>
<pdfrwt beam="2">0</pdfrwt>
<totfact> 0.14197507E+00</totfact>
</mgrwt>
</event>
<event>
 6    1  0.2980119E-003  0.6520582E+03  0.7818608E-02  0.9802925E-01
          1   -1    0    0  502    0  0.00000000000E+00  0.00000000000E+00  0.10630140234E+03  0.10630140234E+03  0.00000000000E+00 0.  1.
         13   -1    0    0    0    0 -0.00000000000E+00 -0.00000000000E+00 -0.10000000000E+04  0.10000000000E+04  0.00000000000E+00 0.  1.
    9000005    2    1    2  501    0 -0.19946811386E-03  0.97827038758E-04 -0.89370502788E+03  0.11062949683E+04  0.65205818759E+03 0.  0.
         13    1    3    3    0    0 -0.27867748110E+03  0.13329091475E+03 -0.62372016518E+03  0.69602762221E+03  0.00000000000E+00 0.  1.
          1    1    3    3  501    0  0.27867728163E+03 -0.13329081692E+03 -0.26998486270E+03  0.41026734608E+03  0.00000000000E+00 0.  1.
         21    1    1    2  502  501  0.19946811390E-03 -0.97827038774E-04  0.64302152249E-02  0.64340520278E-02  0.00000000000E+00 0. -1.
<mgrwt>
<rscale>  1 0.65205819E+03</rscale>
<asrwt>0</asrwt>
<pdfrwt beam="1">  1        1 0.38655137E+00 0.65205819E+03</pdfrwt>
<pdfrwt beam="2">0</pdfrwt>
<totfact> 0.15345544E+00</totfact>
</mgrwt>
</event>
<event>
 6    1  0.2980119E-003  0.6547583E+03  0.7818608E-02  0.9797891E-01
          3   -1    0    0  502    0  0.00000000000E+00  0.00000000000E+00  0.10747795122E+03  0.10747795122E+03  0.00000000000E+00 0.  1.
         13   -1    0    0    0    0 -0.00000000000E+00 -0.00000000000E+00 -0.10000000000E+04  0.10000000000E+04  0.00000000000E+00 0.  1.
    9000005    2    1    2  501    0  0.31887853269E-01 -0.38198311343E-02 -0.89282195910E+03  0.11071763262E+04  0.65475824981E+03 0.  0.
         13    1    3    3    0    0 -0.31745303016E+03 -0.15076210770E+02 -0.57914252417E+03  0.66061318620E+03  0.00000000000E+00 0.  1.
          3    1    3    3  501    0  0.31748491801E+03  0.15072390938E+02 -0.31367943494E+03  0.44656314004E+03  0.00000000000E+00 0.  1.
         21    1    1    2  502  501 -0.31887853269E-01  0.38198311343E-02  0.29991032613E+00  0.30162498242E+00  0.00000000000E+00 0. -1.
<mgrwt>
<rscale>  1 0.65475825E+03</rscale>
<asrwt>0</asrwt>
<pdfrwt beam="1">  1        3 0.39082974E+00 0.65475825E+03</pdfrwt>
<pdfrwt beam="2">0</pdfrwt>
<totfact> 0.66129649E-02</totfact>
</mgrwt>
</event>
<event>
 6    1  0.2980119E-003  0.6481791E+03  0.7818608E-02  0.9810202E-01
          1   -1    0    0  502    0  0.00000000000E+00  0.00000000000E+00  0.10503734856E+03  0.10503734856E+03  0.00000000000E+00 0.  1.
         13   -1    0    0    0    0 -0.00000000000E+00 -0.00000000000E+00 -0.10000000000E+04  0.10000000000E+04  0.00000000000E+00 0.  1.
    9000005    2    1    2  501    0  0.17018207075E-04  0.11370407395E-03 -0.89496595779E+03  0.11050340402E+04  0.64817911446E+03 0.  0.
         13    1    3    3    0    0  0.18750095610E+03 -0.23815666030E+02  0.13444046931E+01  0.18901217398E+03  0.00000000000E+00 0.  1.
          1    1    3    3  501    0 -0.18750093908E+03  0.23815779734E+02 -0.89631036248E+03  0.91602186623E+03  0.00000000000E+00 0.  1.
         21    1    1    2  502  501 -0.17018207065E-04 -0.11370407395E-03  0.33063480728E-02  0.33083463867E-02  0.00000000000E+00 0. -1.
<mgrwt>
<rscale>  1 0.64817911E+03</rscale>
<asrwt>0</asrwt>
<pdfrwt beam="1">  1        1 0.38195480E+00 0.64817911E+03</pdfrwt>
<pdfrwt beam="2">0</pdfrwt>
<totfact> 0.16092270E+00</totfact>
</mgrwt>
</event>
<event>
 6    1  0.2980119E-003  0.6910289E+03  0.7818608E-02  0.9732698E-01
          1   -1    0    0  502    0  0.00000000000E+00  0.00000000000E+00  0.11939709400E+03  0.11939709400E+03  0.00000000000E+00 0.  1.
         13   -1    0    0    0    0 -0.00000000000E+00 -0.00000000000E+00 -0.10000000000E+04  0.10000000000E+04  0.00000000000E+00 0.  1.
    9000005    2    1    2  501    0  0.38156089148E-03 -0.29983138432E-04 -0.88061976152E+03  0.11193802341E+04  0.69102890259E+03 0.  0.
         13    1    3    3    0    0 -0.85760224634E+02  0.23706844851E+03 -0.82303903455E+03  0.86078424579E+03  0.00000000000E+00 0.  1.
          1    1    3    3  501    0  0.85760606195E+02 -0.23706847850E+03 -0.57580726962E+02  0.25859598835E+03  0.00000000000E+00 0.  1.
         21    1    1    2  502  501 -0.38156089147E-03  0.29983138413E-04  0.16855515942E-01  0.16859860775E-01  0.00000000000E+00 0. -1.
<mgrwt>
<rscale>  1 0.69102890E+03</rscale>
<asrwt>0</asrwt>
<pdfrwt beam="1">  1        1 0.43417217E+00 0.69102890E+03</pdfrwt>
<pdfrwt beam="2">0</pdfrwt>
<totfact> 0.93116182E-01</totfact>
</mgrwt>
</event>
<event>
 6    1  0.2980119E-003  0.6566676E+03  0.7818608E-02  0.9794348E-01
          1   -1    0    0  502    0  0.00000000000E+00  0.00000000000E+00  0.10780330942E+03  0.10780330942E+03  0.00000000000E+00 0.  1.
         13   -1    0    0    0    0 -0.00000000000E+00 -0.00000000000E+00 -0.10000000000E+04  0.10000000000E+04  0.00000000000E+00 0.  1.
    9000005    2    1    2  501    0 -0.85332580937E-04 -0.74898854734E-04 -0.89219689834E+03  0.11078030727E+04  0.65666760417E+03 0.  0.
         13    1    3    3    0    0  0.18852897933E+03 -0.78044966450E+02 -0.88005260599E+03  0.90339735562E+03  0.00000000000E+00 0.  1.
          1    1    3    3  501    0 -0.18852906466E+03  0.78044891551E+02 -0.12144292352E+02  0.20440571703E+03  0.00000000000E+00 0.  1.
         21    1    1    2  502  501  0.85332580935E-04  0.74898854733E-04  0.20776658452E-03  0.23676663923E-03  0.00000000000E+00 0. -1.
<mgrwt>
<rscale>  1 0.65666760E+03</rscale>
<asrwt>0</asrwt>
<pdfrwt beam="1">  1        1 0.39201286E+00 0.65666760E+03</pdfrwt>
<pdfrwt beam="2">0</pdfrwt>
<totfact> 0.14501063E+00</totfact>
</mgrwt>
</event>
<event>
 6    1  0.2980119E-003  0.6643843E+03  0.7818608E-02  0.9780156E-01
          1   -1    0    0  502    0  0.00000000000E+00  0.00000000000E+00  0.11038466897E+03  0.11038466897E+03  0.00000000000E+00 0.  1.
         13   -1    0    0    0    0 -0.00000000000E+00 -0.00000000000E+00 -0.10000000000E+04  0.10000000000E+04  0.00000000000E+00 0.  1.
    9000005    2    1    2  501    0 -0.87318277695E-01  0.33042070977E-01 -0.88953942746E+03  0.11102643460E+04  0.66438431372E+03 0.  0.
         13    1    3    3    0    0  0.22306855803E+03 -0.18123379012E+03 -0.72295266251E+03  0.77798831643E+03  0.00000000000E+00 0.  1.
          1    1    3    3  501    0 -0.22315587631E+03  0.18126683220E+03 -0.16658676495E+03  0.33227602959E+03  0.00000000000E+00 0.  1.
         21    1    1    2  502  501  0.87318277695E-01 -0.33042070977E-01 -0.75903568216E-01  0.12032294770E+00  0.00000000000E+00 0.  1.
<mgrwt>
<rscale>  1 0.66438432E+03</rscale>
<asrwt>0</asrwt>
<pdfrwt beam="1">  1        1 0.40139964E+00 0.66438432E+03</pdfrwt>
<pdfrwt beam="2">0</pdfrwt>
<totfact> 0.13152042E+00</totfact>
</mgrwt>
</event>
<event>
 6    1  0.4138296E-003  0.6534524E+03  0.7818608E-02  0.9800323E-01
          3   -1    0    0  502    0  0.00000000000E+00  0.00000000000E+00  0.10674999840E+03  0.10674999840E+03  0.00000000000E+00 0.  1.
         13   -1    0    0    0    0 -0.00000000000E+00 -0.00000000000E+00 -0.10000000000E+04  0.10000000000E+04  0.00000000000E+00 0.  1.
    9000005    2    1    2  501    0  0.57044133541E-05  0.99745915350E-06 -0.89324999648E+03  0.11067499907E+04  0.65345235911E+03 0.  0.
         13    1    3    3    0    0  0.22623970132E+03 -0.22778835904E+03 -0.54934261220E+03  0.63627764737E+03  0.00000000000E+00 0.  1.
          1    1    3    3  501    0 -0.22623969561E+03  0.22778836004E+03 -0.34390738428E+03  0.47047234330E+03  0.00000000000E+00 0.  1.
         21    1    1    2  502  501 -0.57044133655E-05 -0.99745915862E-06 -0.51226774909E-05  0.77315639617E-05  0.00000000000E+00 0. -1.
<mgrwt>
<rscale>  1 0.65345236E+03</rscale>
<asrwt>0</asrwt>
<pdfrwt beam="1">  1        3 0.38818263E+00 0.65345236E+03</pdfrwt>
<pdfrwt beam="2">0</pdfrwt>
<totfact> 0.68300177E-02</totfact>
</mgrwt>
</event>
<event>
 6    1  0.2980119E-003  0.6643229E+03  0.7818608E-02  0.9780268E-01
          1   -1    0    0  502    0  0.00000000000E+00  0.00000000000E+00  0.11039669111E+03  0.11039669111E+03  0.00000000000E+00 0.  1.
         13   -1    0    0    0    0 -0.00000000000E+00 -0.00000000000E+00 -0.10000000000E+04  0.10000000000E+04  0.00000000000E+00 0.  1.
    9000005    2    1    2  501    0 -0.11033847985E-01 -0.26121898422E-01 -0.88966535197E+03  0.11103284750E+04  0.66432287557E+03 0.  0.
         13    1    3    3    0    0 -0.13558291362E+03  0.24373106654E+03 -0.14333281340E+03  0.31357910431E+03  0.00000000000E+00 0.  1.
          1    1    3    3  501    0  0.13557187978E+03 -0.24375718844E+03 -0.74633253857E+03  0.79674937065E+03  0.00000000000E+00 0.  1.
         21    1    1    2  502  501  0.11033847985E-01  0.26121898422E-01  0.62043082830E-01  0.68216152820E-01  0.00000000000E+00 0. -1.
<mgrwt>
<rscale>  1 0.66432288E+03</rscale>
<asrwt>0</asrwt>
<pdfrwt beam="1">  1        1 0.40144336E+00 0.66432288E+03</pdfrwt>
<pdfrwt beam="2">0</pdfrwt>
<totfact> 0.13146286E+00</totfact>
</mgrwt>
</event>
<event>
 6    1  0.2980119E-003  0.5435028E+03  0.7818608E-02  0.1003009E+00
          1   -1    0    0  502    0  0.00000000000E+00  0.00000000000E+00  0.73853070218E+02  0.73853070218E+02  0.00000000000E+00 0.  1.
         13   -1    0    0    0    0 -0.00000000000E+00 -0.00000000000E+00 -0.10000000000E+04  0.10000000000E+04  0.00000000000E+00 0.  1.
    9000005    2    1    2  501    0 -0.27264181139E-03 -0.48873411632E-03 -0.92615114697E+03  0.10738488161E+04  0.54350283599E+03 0.  0.
         13    1    3    3    0    0 -0.15122182498E+03  0.20110174960E+03 -0.26024297822E+03  0.36198944979E+03  0.00000000000E+00 0.  1.
          1    1    3    3  501    0  0.15122155234E+03 -0.20110223833E+03 -0.66590816874E+03  0.71185936628E+03  0.00000000000E+00 0.  1.
         21    1    1    2  502  501  0.27264181139E-03  0.48873411634E-03  0.42171848563E-02  0.42541559334E-02  0.00000000000E+00 0.  1.
<mgrwt>
<rscale>  1 0.54350284E+03</rscale>
<asrwt>0</asrwt>
<pdfrwt beam="1">  1        1 0.26855719E+00 0.54350284E+03</pdfrwt>
<pdfrwt beam="2">0</pdfrwt>
<totfact> 0.50936517E+00</totfact>
</mgrwt>
</event>
<event>
 6    1  0.2980119E-003  0.5749011E+03  0.7818608E-02  0.9958892E-01
          1   -1    0    0  502    0  0.00000000000E+00  0.00000000000E+00  0.82628708188E+02  0.82628708188E+02  0.00000000000E+00 0.  1.
         13   -1    0    0    0    0 -0.00000000000E+00 -0.00000000000E+00 -0.10000000000E+04  0.10000000000E+04  0.00000000000E+00 0.  1.
    9000005    2    1    2  501    0  0.25538489214E-02 -0.11783880786E-02 -0.91736887307E+03  0.10826249986E+04  0.57490106828E+03 0.  0.
         13    1    3    3    0    0  0.46220198008E+02 -0.21273397720E+03 -0.10519392692E+03  0.24178050794E+03  0.00000000000E+00 0.  1.
          1    1    3    3  501    0 -0.46217644159E+02  0.21273279881E+03 -0.81217494615E+03  0.84084449066E+03  0.00000000000E+00 0.  1.
         21    1    1    2  502  501 -0.25538489214E-02  0.11783880786E-02 -0.24187440695E-02  0.37095910355E-02  0.00000000000E+00 0. -1.
<mgrwt>
<rscale>  1 0.57490107E+03</rscale>
<asrwt>0</asrwt>
<pdfrwt beam="1">  1        1 0.30046866E+00 0.57490107E+03</pdfrwt>
<pdfrwt beam="2">0</pdfrwt>
<totfact> 0.36890644E+00</totfact>
</mgrwt>
</event>
<event>
 6    1  0.2980119E-003  0.6426276E+03  0.7818608E-02  0.9820712E-01
          1   -1    0    0  502    0  0.00000000000E+00  0.00000000000E+00  0.10324823394E+03  0.10324823394E+03  0.00000000000E+00 0.  1.
         13   -1    0    0    0    0 -0.00000000000E+00 -0.00000000000E+00 -0.10000000000E+04  0.10000000000E+04  0.00000000000E+00 0.  1.
    9000005    2    1    2  501    0 -0.75129694351E-02 -0.36615482358E-02 -0.89675383850E+03  0.11032396231E+04  0.64262758969E+03 0.  0.
         13    1    3    3    0    0  0.21209887791E+03  0.14470160824E+03 -0.78000526962E+03  0.82117763613E+03  0.00000000000E+00 0.  1.
          1    1    3    3  501    0 -0.21210639088E+03 -0.14470526979E+03 -0.11674856887E+03  0.28206198697E+03  0.00000000000E+00 0.  1.
         21    1    1    2  502  501  0.75129694351E-02  0.36615482358E-02  0.20724312640E-02  0.86108429645E-02  0.00000000000E+00 0. -1.
<mgrwt>
<rscale>  1 0.64262759E+03</rscale>
<asrwt>0</asrwt>
<pdfrwt beam="1">  1        1 0.37544892E+00 0.64262759E+03</pdfrwt>
<pdfrwt beam="2">0</pdfrwt>
<totfact> 0.17208685E+00</totfact>
</mgrwt>
</event>
<event>
 6    1  0.2980119E-003  0.6491365E+03  0.7818608E-02  0.9808401E-01
          1   -1    0    0  502    0  0.00000000000E+00  0.00000000000E+00  0.10535181291E+03  0.10535181291E+03  0.00000000000E+00 0.  1.
         13   -1    0    0    0    0 -0.00000000000E+00 -0.00000000000E+00 -0.10000000000E+04  0.10000000000E+04  0.00000000000E+00 0.  1.
    9000005    2    1    2  501    0  0.46336615818E-02 -0.42567787723E-02 -0.89465390297E+03  0.11053433122E+04  0.64913652775E+03 0.  0.
         13    1    3    3    0    0  0.20526429960E+03 -0.29195869653E+02 -0.87254905825E+03  0.89684318058E+03  0.00000000000E+00 0.  1.
          3    1    3    3  501    0 -0.20525966593E+03  0.29191612875E+02 -0.22104844722E+02  0.20850013161E+03  0.00000000000E+00 0.  1.
         21    1    1    2  502  501 -0.46336615818E-02  0.42567787723E-02  0.57158793653E-02  0.85007212688E-02  0.00000000000E+00 0.  1.
<mgrwt>
<rscale>  1 0.64913653E+03</rscale>
<asrwt>0</asrwt>
<pdfrwt beam="1">  1        1 0.38309831E+00 0.64913653E+03</pdfrwt>
<pdfrwt beam="2">0</pdfrwt>
<totfact> 0.15903363E+00</totfact>
</mgrwt>
</event>
<event>
 6    1  0.2980119E-003  0.4756599E+03  0.7818608E-02  0.1020335E+00
          1   -1    0    0  502    0  0.00000000000E+00  0.00000000000E+00  0.80060235545E+02  0.80060235545E+02  0.00000000000E+00 0.  1.
         13   -1    0    0    0    0 -0.00000000000E+00 -0.00000000000E+00 -0.10000000000E+04  0.10000000000E+04  0.00000000000E+00 0.  1.
    9000005    2    1    2  501    0  0.74181474449E+01  0.14909578042E+02 -0.94029637148E+03  0.10537597436E+04  0.47536828513E+03 0.  0.
         13    1    3    3    0    0 -0.86812895271E+02 -0.17729988892E+03 -0.72005947905E+03  0.74663068700E+03  0.00000000000E+00 0.  1.
          1    1    3    3  501    0  0.94231042716E+02  0.19220946696E+03 -0.22023689243E+03  0.30712905657E+03  0.00000000000E+00 0.  1.
         21    1    1    2  502  501 -0.74181474449E+01 -0.14909578042E+02  0.20356607025E+02  0.26300491981E+02  0.00000000000E+00 0. -1.
<mgrwt>
<rscale>  1 0.47565989E+03</rscale>
<asrwt>0</asrwt>
<pdfrwt beam="1">  1        1 0.29112874E+00 0.47565989E+03</pdfrwt>
<pdfrwt beam="2">0</pdfrwt>
<totfact> 0.41240172E+00</totfact>
</mgrwt>
</event>
<event>
 6    1  0.2980119E-003  0.6671439E+03  0.7818608E-02  0.9775131E-01
          3   -1    0    0  502    0  0.00000000000E+00  0.00000000000E+00  0.11127130394E+03  0.11127130394E+03  0.00000000000E+00 0.  1.
         13   -1    0    0    0    0 -0.00000000000E+00 -0.00000000000E+00 -0.10000000000E+04  0.10000000000E+04  0.00000000000E+00 0.  1.
    9000005    2    1    2  501    0  0.98364515026E-04 -0.24127455632E-04 -0.88872975156E+03  0.11112702436E+04  0.66714389976E+03 0.  0.
         13    1    3    3    0    0  0.42824990630E+02 -0.12041454076E+03 -0.95760079281E+03  0.96609156907E+03  0.00000000000E+00 0.  1.
          3    1    3    3  501    0 -0.42824892265E+02  0.12041451663E+03  0.68871041245E+02  0.14517867452E+03  0.00000000000E+00 0.  1.
         21    1    1    2  502  501 -0.98364515026E-04  0.24127455633E-04  0.10555038127E-02  0.10603518333E-02  0.00000000000E+00 0.  1.
<mgrwt>
<rscale>  1 0.66714390E+03</rscale>
<asrwt>0</asrwt>
<pdfrwt beam="1">  1        3 0.40462378E+00 0.66714390E+03</pdfrwt>
<pdfrwt beam="2">0</pdfrwt>
<totfact> 0.55864485E-02</totfact>
</mgrwt>
</event>
<event>
 6    1  0.2980119E-003  0.6173792E+03  0.7818608E-02  0.9869992E-01
          3   -1    0    0  502    0  0.00000000000E+00  0.00000000000E+00  0.95323562745E+02  0.95323562745E+02  0.00000000000E+00 0.  1.
         13   -1    0    0    0    0 -0.00000000000E+00 -0.00000000000E+00 -0.10000000000E+04  0.10000000000E+04  0.00000000000E+00 0.  1.
    9000005    2    1    2  501    0 -0.29399026695E-03  0.99396478782E-03 -0.90471073397E+03  0.10952892504E+04  0.61737916212E+03 0.  0.
         13    1    3    3    0    0 -0.24161063227E+03 -0.74809249610E+02 -0.13840003344E+03  0.28831699691E+03  0.00000000000E+00 0.  1.
          1    1    3    3  501    0  0.24161033828E+03  0.74810243575E+02 -0.76631070053E+03  0.80697225346E+03  0.00000000000E+00 0.  1.
         21    1    1    2  502  501  0.29399026695E-03 -0.99396478781E-03  0.34296713768E-01  0.34312373447E-01  0.00000000000E+00 0.  1.
<mgrwt>
<rscale>  1 0.61737916E+03</rscale>
<asrwt>0</asrwt>
<pdfrwt beam="1">  1        3 0.34663187E+00 0.61737916E+03</pdfrwt>
<pdfrwt beam="2">0</pdfrwt>
<totfact> 0.11408076E-01</totfact>
</mgrwt>
</event>
<event>
 6    1  0.2980119E-003  0.6994995E+03  0.7818608E-02  0.9718089E-01
          1   -1    0    0  502    0  0.00000000000E+00  0.00000000000E+00  0.12233716131E+03  0.12233716131E+03  0.00000000000E+00 0.  1.
         13   -1    0    0    0    0 -0.00000000000E+00 -0.00000000000E+00 -0.10000000000E+04  0.10000000000E+04  0.00000000000E+00 0.  1.
    9000005    2    1    2  501    0 -0.68603707994E-03  0.23588911844E-03 -0.87767510307E+03  0.11223248755E+04  0.69949949222E+03 0.  0.
         13    1    3    3    0    0 -0.11503026971E+03  0.21597742024E+03 -0.37891401884E+02  0.24761657323E+03  0.00000000000E+00 0.  1.
          1    1    3    3  501    0  0.11502958367E+03 -0.21597718435E+03 -0.83978370118E+03  0.87470830226E+03  0.00000000000E+00 0.  1.
         21    1    1    2  502  501  0.68603707994E-03 -0.23588911843E-03  0.12264377172E-01  0.12285814502E-01  0.00000000000E+00 0. -1.
<mgrwt>
<rscale>  1 0.69949949E+03</rscale>
<asrwt>0</asrwt>
<pdfrwt beam="1">  1        1 0.44486334E+00 0.69949949E+03</pdfrwt>
<pdfrwt beam="2">0</pdfrwt>
<totfact> 0.83058639E-01</totfact>
</mgrwt>
</event>
<event>
 6    1  0.2980119E-003  0.6284534E+03  0.7818608E-02  0.9848072E-01
          1   -1    0    0  502    0  0.00000000000E+00  0.00000000000E+00  0.99082911802E+02  0.99082911802E+02  0.00000000000E+00 0.  1.
         13   -1    0    0    0    0 -0.00000000000E+00 -0.00000000000E+00 -0.10000000000E+04  0.10000000000E+04  0.00000000000E+00 0.  1.
    9000005    2    1    2  501    0 -0.38167113283E+00  0.10215976844E+01 -0.89917022538E+03  0.10970235759E+04  0.62845241866E+03 0.  0.
         13    1    3    3    0    0 -0.18127981009E+03  0.20936759813E+03 -0.71104064636E+03  0.76307008949E+03  0.00000000000E+00 0.  1.
          3    1    3    3  501    0  0.18089813896E+03 -0.20834600045E+03 -0.18812957902E+03  0.33395348641E+03  0.00000000000E+00 0.  1.
         21    1    1    2  502  501  0.38167113283E+00 -0.10215976844E+01 -0.17468628164E+01  0.20593359079E+01  0.00000000000E+00 0.  1.
<mgrwt>
<rscale>  1 0.62845336E+03</rscale>
<asrwt>0</asrwt>
<pdfrwt beam="1">  1        1 0.36030226E+00 0.62845336E+03</pdfrwt>
<pdfrwt beam="2">0</pdfrwt>
<totfact> 0.20106155E+00</totfact>
</mgrwt>
</event>
<event>
 6    1  0.2980119E-003  0.6476281E+03  0.7818608E-02  0.9811240E-01
          1   -1    0    0  502    0  0.00000000000E+00  0.00000000000E+00  0.10536112548E+03  0.10536112548E+03  0.00000000000E+00 0.  1.
         13   -1    0    0    0    0 -0.00000000000E+00 -0.00000000000E+00 -0.10000000000E+04  0.10000000000E+04  0.00000000000E+00 0.  1.
    9000005    2    1    2  501    0  0.72025314730E+00  0.22653694917E+00 -0.89481227863E+03  0.11045864303E+04  0.64762766926E+03 0.  0.
         13    1    3    3    0    0  0.97524183991E+02  0.19247761870E+03 -0.85985943330E+03  0.88651951203E+03  0.00000000000E+00 0.  1.
          1    1    3    3  501    0 -0.96803930844E+02 -0.19225108175E+03 -0.34952845331E+02  0.21806691830E+03  0.00000000000E+00 0.  1.
         21    1    1    2  502  501 -0.72025314730E+00 -0.22653694917E+00  0.17340411336E+00  0.77469514783E+00  0.00000000000E+00 0. -1.
<mgrwt>
<rscale>  1 0.64762811E+03</rscale>
<asrwt>0</asrwt>
<pdfrwt beam="1">  1        1 0.38313217E+00 0.64762811E+03</pdfrwt>
<pdfrwt beam="2">0</pdfrwt>
<totfact> 0.15902308E+00</totfact>
</mgrwt>
</event>
<event>
 6    1  0.2980119E-003  0.6523176E+03  0.7818608E-02  0.9802440E-01
          3   -1    0    0  502    0  0.00000000000E+00  0.00000000000E+00  0.10638352752E+03  0.10638352752E+03  0.00000000000E+00 0.  1.
         13   -1    0    0    0    0 -0.00000000000E+00 -0.00000000000E+00 -0.10000000000E+04  0.10000000000E+04  0.00000000000E+00 0.  1.
    9000005    2    1    2  501    0 -0.11782195743E-02  0.57573175226E-03 -0.89362031523E+03  0.11063794672E+04  0.65231760484E+03 0.  0.
         13    1    3    3    0    0 -0.22592270958E+03  0.22931226872E+03 -0.35779088958E+03  0.48128942224E+03  0.00000000000E+00 0.  1.
          1    1    3    3  501    0  0.22592153136E+03 -0.22931169299E+03 -0.53582942565E+03  0.62509004493E+03  0.00000000000E+00 0.  1.
         21    1    1    2  502  501  0.11782195743E-02 -0.57573175226E-03  0.38427566005E-02  0.40603505645E-02  0.00000000000E+00 0. -1.
<mgrwt>
<rscale>  1 0.65231760E+03</rscale>
<asrwt>0</asrwt>
<pdfrwt beam="1">  1        3 0.38685001E+00 0.65231760E+03</pdfrwt>
<pdfrwt beam="2">0</pdfrwt>
<totfact> 0.69426125E-02</totfact>
</mgrwt>
</event>
<event>
 6    1  0.2980119E-003  0.6719167E+03  0.7818608E-02  0.9766501E-01
          1   -1    0    0  502    0  0.00000000000E+00  0.00000000000E+00  0.11286809454E+03  0.11286809454E+03  0.00000000000E+00 0.  1.
         13   -1    0    0    0    0 -0.00000000000E+00 -0.00000000000E+00 -0.10000000000E+04  0.10000000000E+04  0.00000000000E+00 0.  1.
    9000005    2    1    2  501    0 -0.40133136395E-04 -0.19882138730E-04 -0.88713196525E+03  0.11128680198E+04  0.67191674023E+03 0.  0.
         13    1    3    3    0    0  0.27140711744E+03 -0.15213168390E+03 -0.23365748665E+03  0.38910370560E+03  0.00000000000E+00 0.  1.
          1    1    3    3  501    0 -0.27140715758E+03  0.15213166402E+03 -0.65347447860E+03  0.72376431423E+03  0.00000000000E+00 0.  1.
         21    1    1    2  502  501  0.40133136406E-04  0.19882138725E-04  0.59791458846E-04  0.74706001292E-04  0.00000000000E+00 0.  1.
<mgrwt>
<rscale>  1 0.67191674E+03</rscale>
<asrwt>0</asrwt>
<pdfrwt beam="1">  1        1 0.41043030E+00 0.67191674E+03</pdfrwt>
<pdfrwt beam="2">0</pdfrwt>
<totfact> 0.11966497E+00</totfact>
</mgrwt>
</event>
<event>
 6    1  0.2980119E-003  0.6415977E+03  0.7818608E-02  0.9822674E-01
          1   -1    0    0  502    0  0.00000000000E+00  0.00000000000E+00  0.10291219225E+03  0.10291219225E+03  0.00000000000E+00 0.  1.
         13   -1    0    0    0    0 -0.00000000000E+00 -0.00000000000E+00 -0.10000000000E+04  0.10000000000E+04  0.00000000000E+00 0.  1.
    9000005    2    1    2  501    0 -0.53453218015E-04  0.98735016246E-04 -0.89708807947E+03  0.11029118982E+04  0.64159771895E+03 0.  0.
         13    1    3    3    0    0 -0.29041038847E+03 -0.87584327148E+01 -0.68233566046E+03  0.74161772997E+03  0.00000000000E+00 0.  1.
          3    1    3    3  501    0  0.29041033502E+03  0.87585314498E+01 -0.21475241901E+03  0.36129416827E+03  0.00000000000E+00 0.  1.
         21    1    1    2  502  501  0.53453217991E-04 -0.98735016247E-04  0.27171692324E-03  0.29399989170E-03  0.00000000000E+00 0.  1.
<mgrwt>
<rscale>  1 0.64159772E+03</rscale>
<asrwt>0</asrwt>
<pdfrwt beam="1">  1        1 0.37422694E+00 0.64159772E+03</pdfrwt>
<pdfrwt beam="2">0</pdfrwt>
<totfact> 0.17426413E+00</totfact>
</mgrwt>
</event>
<event>
 6    1  0.2980119E-003  0.6014086E+03  0.7818608E-02  0.9902488E-01
          1   -1    0    0  502    0  0.00000000000E+00  0.00000000000E+00  0.90435660599E+02  0.90435660599E+02  0.00000000000E+00 0.  1.
         13   -1    0    0    0    0 -0.00000000000E+00 -0.00000000000E+00 -0.10000000000E+04  0.10000000000E+04  0.00000000000E+00 0.  1.
    9000005    2    1    2  501    0 -0.47323807550E-03 -0.30224855863E-03 -0.90957690321E+03  0.10904230843E+04  0.60140864628E+03 0.  0.
         13    1    3    3    0    0 -0.13888051903E+03 -0.24312570008E+03 -0.65361507513E+03  0.71106298669E+03  0.00000000000E+00 0.  1.
          3    1    3    3  501    0  0.13888004579E+03  0.24312539783E+03 -0.25596182808E+03  0.37936009756E+03  0.00000000000E+00 0.  1.
         21    1    1    2  502  501  0.47323807549E-03  0.30224855863E-03  0.12563807300E-01  0.12576349324E-01  0.00000000000E+00 0.  1.
<mgrwt>
<rscale>  1 0.60140865E+03</rscale>
<asrwt>0</asrwt>
<pdfrwt beam="1">  1        1 0.32885764E+00 0.60140865E+03</pdfrwt>
<pdfrwt beam="2">0</pdfrwt>
<totfact> 0.27683226E+00</totfact>
</mgrwt>
</event>
<event>
 6    1  0.2980119E-003  0.6559087E+03  0.7818608E-02  0.9795755E-01
          1   -1    0    0  502    0  0.00000000000E+00  0.00000000000E+00  0.10756632419E+03  0.10756632419E+03  0.00000000000E+00 0.  1.
         13   -1    0    0    0    0 -0.00000000000E+00 -0.00000000000E+00 -0.10000000000E+04  0.10000000000E+04  0.00000000000E+00 0.  1.
    9000005    2    1    2  501    0 -0.14566209828E-03 -0.11634956132E-03 -0.89244594092E+03  0.11075540577E+04  0.65590870796E+03 0.  0.
         13    1    3    3    0    0 -0.11258334765E+03  0.17990466175E+03 -0.86841296260E+03  0.89396967012E+03  0.00000000000E+00 0.  1.
          3    1    3    3  501    0  0.11258320199E+03 -0.17990477810E+03 -0.24032978321E+02  0.21358438754E+03  0.00000000000E+00 0.  1.
         21    1    1    2  502  501  0.14566209828E-03  0.11634956134E-03  0.12265109638E-01  0.12266526366E-01  0.00000000000E+00 0.  1.
<mgrwt>
<rscale>  1 0.65590871E+03</rscale>
<asrwt>0</asrwt>
<pdfrwt beam="1">  1        1 0.39115109E+00 0.65590871E+03</pdfrwt>
<pdfrwt beam="2">0</pdfrwt>
<totfact> 0.14631405E+00</totfact>
</mgrwt>
</event>
<event>
 6    1  0.2980119E-003  0.6486760E+03  0.7818608E-02  0.9809267E-01
          1   -1    0    0  502    0  0.00000000000E+00  0.00000000000E+00  0.10519514091E+03  0.10519514091E+03  0.00000000000E+00 0.  1.
         13   -1    0    0    0    0 -0.00000000000E+00 -0.00000000000E+00 -0.10000000000E+04  0.10000000000E+04  0.00000000000E+00 0.  1.
    9000005    2    1    2  501    0 -0.40618918490E-04 -0.16859298462E-04 -0.89480482930E+03  0.11051950878E+04  0.64867595881E+03 0.  0.
         13    1    3    3    0    0 -0.26899101988E+03  0.36842879952E+02 -0.74970325662E+03  0.79735095131E+03  0.00000000000E+00 0.  1.
          3    1    3    3  501    0  0.26899097926E+03 -0.36842896811E+02 -0.14510157269E+03  0.30784413648E+03  0.00000000000E+00 0.  1.
         21    1    1    2  502  501  0.40618918445E-04  0.16859298467E-04 -0.29788451860E-04  0.53117646265E-04  0.00000000000E+00 0. -1.
<mgrwt>
<rscale>  1 0.64867596E+03</rscale>
<asrwt>0</asrwt>
<pdfrwt beam="1">  1        1 0.38252859E+00 0.64867596E+03</pdfrwt>
<pdfrwt beam="2">0</pdfrwt>
<totfact> 0.15997166E+00</totfact>
</mgrwt>
</event>
<event>
 6    1  0.2980119E-003  0.6601124E+03  0.7818608E-02  0.9787987E-01
          1   -1    0    0  502    0  0.00000000000E+00  0.00000000000E+00  0.10930851421E+03  0.10930851421E+03  0.00000000000E+00 0.  1.
         13   -1    0    0    0    0 -0.00000000000E+00 -0.00000000000E+00 -0.10000000000E+04  0.10000000000E+04  0.00000000000E+00 0.  1.
    9000005    2    1    2  501    0 -0.83802345376E-02 -0.61737600409E-01 -0.89106000644E+03  0.11089347640E+04  0.66011239332E+03 0.  0.
         13    1    3    3    0    0  0.22520894965E+02  0.29343962496E+03 -0.19460039237E+03  0.35282193372E+03  0.00000000000E+00 0.  1.
          1    1    3    3  501    0 -0.22529275200E+02 -0.29350136256E+03 -0.69645961407E+03  0.75611283026E+03  0.00000000000E+00 0.  1.
         21    1    1    2  502  501  0.83802345376E-02  0.61737600409E-01  0.36852065437E+00  0.37375022720E+00  0.00000000000E+00 0. -1.
<mgrwt>
<rscale>  1 0.66011240E+03</rscale>
<asrwt>0</asrwt>
<pdfrwt beam="1">  1        1 0.39748634E+00 0.66011240E+03</pdfrwt>
<pdfrwt beam="2">0</pdfrwt>
<totfact> 0.13702038E+00</totfact>
</mgrwt>
</event>
<event>
 6    1  0.2980119E-003  0.6556155E+03  0.7818608E-02  0.9796299E-01
          1   -1    0    0  502    0  0.00000000000E+00  0.00000000000E+00  0.10780521073E+03  0.10780521073E+03  0.00000000000E+00 0.  1.
         13   -1    0    0    0    0 -0.00000000000E+00 -0.00000000000E+00 -0.10000000000E+04  0.10000000000E+04  0.00000000000E+00 0.  1.
    9000005    2    1    2  501    0 -0.19109737457E-01  0.48947610503E-02 -0.89254176237E+03  0.11074576773E+04  0.65561551925E+03 0.  0.
         13    1    3    3    0    0  0.27501004352E+02  0.14990189719E+03  0.43975228878E+02  0.15862126206E+03  0.00000000000E+00 0.  1.
          3    1    3    3  501    0 -0.27520114090E+02 -0.14989700243E+03 -0.93651699125E+03  0.94883641526E+03  0.00000000000E+00 0.  1.
         21    1    1    2  502  501  0.19109737457E-01 -0.48947610503E-02  0.34697310309E+00  0.34753341569E+00  0.00000000000E+00 0. -1.
<mgrwt>
<rscale>  1 0.65561552E+03</rscale>
<asrwt>0</asrwt>
<pdfrwt beam="1">  1        1 0.39201977E+00 0.65561552E+03</pdfrwt>
<pdfrwt beam="2">0</pdfrwt>
<totfact> 0.14502873E+00</totfact>
</mgrwt>
</event>
<event>
 6    1  0.2980119E-003  0.6771920E+03  0.7818608E-02  0.9757052E-01
          1   -1    0    0  502    0  0.00000000000E+00  0.00000000000E+00  0.11482204452E+03  0.11482204452E+03  0.00000000000E+00 0.  1.
         13   -1    0    0    0    0 -0.00000000000E+00 -0.00000000000E+00 -0.10000000000E+04  0.10000000000E+04  0.00000000000E+00 0.  1.
    9000005    2    1    2  501    0  0.11808986827E+00  0.17458725843E+00 -0.88527869186E+03  0.11145884343E+04  0.67719197510E+03 0.  0.
         13    1    3    3    0    0  0.27983200199E+03 -0.34338774406E+02 -0.75144175795E+03  0.80258944446E+03  0.00000000000E+00 0.  1.
          3    1    3    3  501    0 -0.27971391213E+03  0.34513361664E+02 -0.13383693391E+03  0.31199898982E+03  0.00000000000E+00 0.  1.
         21    1    1    2  502  501 -0.11808986827E+00 -0.17458725843E+00  0.10073637037E+00  0.23361023973E+00  0.00000000000E+00 0.  1.
<mgrwt>
<rscale>  1 0.67719201E+03</rscale>
<asrwt>0</asrwt>
<pdfrwt beam="1">  1        1 0.41753559E+00 0.67719201E+03</pdfrwt>
<pdfrwt beam="2">0</pdfrwt>
<totfact> 0.11106566E+00</totfact>
</mgrwt>
</event>
<event>
 6    1  0.2980119E-003  0.6465683E+03  0.7818608E-02  0.9813240E-01
          1   -1    0    0  502    0  0.00000000000E+00  0.00000000000E+00  0.10451472605E+03  0.10451472605E+03  0.00000000000E+00 0.  1.
         13   -1    0    0    0    0 -0.00000000000E+00 -0.00000000000E+00 -0.10000000000E+04  0.10000000000E+04  0.00000000000E+00 0.  1.
    9000005    2    1    2  501    0 -0.51567319071E-03  0.32171602774E-03 -0.89548729491E+03  0.11045126157E+04  0.64656834350E+03 0.  0.
         13    1    3    3    0    0  0.29422001178E+03 -0.13266862048E+03 -0.41596377610E+03  0.52649049490E+03  0.00000000000E+00 0.  1.
          1    1    3    3  501    0 -0.29422052746E+03  0.13266894220E+03 -0.47952351881E+03  0.57802212077E+03  0.00000000000E+00 0.  1.
         21    1    1    2  502  501  0.51567319070E-03 -0.32171602774E-03  0.20209656871E-02  0.21103844083E-02  0.00000000000E+00 0. -1.
<mgrwt>
<rscale>  1 0.64656834E+03</rscale>
<asrwt>0</asrwt>
<pdfrwt beam="1">  1        1 0.38005435E+00 0.64656834E+03</pdfrwt>
<pdfrwt beam="2">0</pdfrwt>
<totfact> 0.16411013E+00</totfact>
</mgrwt>
</event>
<event>
 6    1  0.2980119E-003  0.4867753E+03  0.7818608E-02  0.1017290E+00
          1   -1    0    0  502    0  0.00000000000E+00  0.00000000000E+00  0.65951971736E+02  0.65951971736E+02  0.00000000000E+00 0.  1.
         13   -1    0    0    0    0 -0.00000000000E+00 -0.00000000000E+00 -0.10000000000E+04  0.10000000000E+04  0.00000000000E+00 0.  1.
    9000005    2    1    2  501    0  0.83724669306E+00  0.89637453793E-01 -0.94073447971E+03  0.10592127099E+04  0.48677458286E+03 0.  0.
         13    1    3    3    0    0 -0.52288326697E+02 -0.18374654567E+03 -0.79782715483E+03  0.82038102802E+03  0.00000000000E+00 0.  1.
          1    1    3    3  501    0  0.53125573390E+02  0.18383618312E+03 -0.14290732488E+03  0.23883168190E+03  0.00000000000E+00 0.  1.
         21    1    1    2  502  501 -0.83724669306E+00 -0.89637453793E-01  0.66864514463E+01  0.67392618173E+01  0.00000000000E+00 0.  1.
<mgrwt>
<rscale>  1 0.48677531E+03</rscale>
<asrwt>0</asrwt>
<pdfrwt beam="1">  1        1 0.23982586E+00 0.48677531E+03</pdfrwt>
<pdfrwt beam="2">0</pdfrwt>
<totfact> 0.68554729E+00</totfact>
</mgrwt>
</event>
<event>
 6    1  0.2980119E-003  0.6631177E+03  0.7818608E-02  0.9782471E-01
          1   -1    0    0  502    0  0.00000000000E+00  0.00000000000E+00  0.11431667418E+03  0.11431667418E+03  0.00000000000E+00 0.  1.
         13   -1    0    0    0    0 -0.00000000000E+00 -0.00000000000E+00 -0.10000000000E+04  0.10000000000E+04  0.00000000000E+00 0.  1.
    9000005    2    1    2  501    0  0.14726529786E+00  0.25341009299E+00 -0.89006329999E+03  0.11099269045E+04  0.66311761365E+03 0.  0.
         13    1    3    3    0    0 -0.31830275455E+03 -0.71252935358E+02 -0.34626404485E+03  0.47570202134E+03  0.00000000000E+00 0.  1.
          3    1    3    3  501    0  0.31845001985E+03  0.71506345451E+02 -0.54379925514E+03  0.63422488320E+03  0.00000000000E+00 0.  1.
         21    1    1    2  502  501 -0.14726529786E+00 -0.25341009299E+00  0.43799741702E+01  0.43897696380E+01  0.00000000000E+00 0. -1.
<mgrwt>
<rscale>  1 0.66311768E+03</rscale>
<asrwt>0</asrwt>
<pdfrwt beam="1">  1        1 0.41569787E+00 0.66311768E+03</pdfrwt>
<pdfrwt beam="2">0</pdfrwt>
<totfact> 0.11350773E+00</totfact>
</mgrwt>
</event>
<event>
 6    1  0.2980119E-003  0.6228713E+03  0.7818608E-02  0.9859059E-01
          1   -1    0    0  502    0  0.00000000000E+00  0.00000000000E+00  0.10006703398E+03  0.10006703398E+03  0.00000000000E+00 0.  1.
         13   -1    0    0    0    0 -0.00000000000E+00 -0.00000000000E+00 -0.10000000000E+04  0.10000000000E+04  0.00000000000E+00 0.  1.
    9000005    2    1    2  501    0  0.23272109343E+01 -0.47790312371E+01 -0.90027139000E+03  0.10947407237E+04  0.62284863446E+03 0.  0.
         13    1    3    3    0    0  0.56198800682E+02  0.20731773096E+03 -0.55176834848E+02  0.22177337503E+03  0.00000000000E+00 0.  1.
          1    1    3    3  501    0 -0.53871589748E+02 -0.21209676219E+03 -0.84509455515E+03  0.87296734868E+03  0.00000000000E+00 0.  1.
         21    1    1    2  502  501 -0.23272109343E+01  0.47790312371E+01  0.33842398356E+00  0.53263102698E+01  0.00000000000E+00 0. -1.
<mgrwt>
<rscale>  1 0.62287132E+03</rscale>
<asrwt>0</asrwt>
<pdfrwt beam="1">  1        1 0.36388089E+00 0.62287132E+03</pdfrwt>
<pdfrwt beam="2">0</pdfrwt>
<totfact> 0.19413769E+00</totfact>
</mgrwt>
</event>
<event>
 6    1  0.2980119E-003  0.6541669E+03  0.7818608E-02  0.9798992E-01
          1   -1    0    0  502    0  0.00000000000E+00  0.00000000000E+00  0.10698924009E+03  0.10698924009E+03  0.00000000000E+00 0.  1.
         13   -1    0    0    0    0 -0.00000000000E+00 -0.00000000000E+00 -0.10000000000E+04  0.10000000000E+04  0.00000000000E+00 0.  1.
    9000005    2    1    2  501    0 -0.35157249648E-02  0.30548294262E-02 -0.89301533875E+03  0.11069827088E+04  0.65416689175E+03 0.  0.
         13    1    3    3    0    0  0.17466319186E+03 -0.12395886381E+02 -0.91400162306E+03  0.93062336933E+03  0.00000000000E+00 0.  1.
          3    1    3    3  501    0 -0.17466670758E+03  0.12398941210E+02  0.20986284308E+02  0.17635933945E+03  0.00000000000E+00 0.  1.
         21    1    1    2  502  501  0.35157249648E-02 -0.30548294262E-02  0.45788386467E-02  0.65313144315E-02  0.00000000000E+00 0. -1.
<mgrwt>
<rscale>  1 0.65416689E+03</rscale>
<asrwt>0</asrwt>
<pdfrwt beam="1">  1        1 0.38905260E+00 0.65416689E+03</pdfrwt>
<pdfrwt beam="2">0</pdfrwt>
<totfact> 0.14953167E+00</totfact>
</mgrwt>
</event>
<event>
 6    1  0.2980119E-003  0.6038420E+03  0.7818608E-02  0.9897467E-01
          1   -1    0    0  502    0  0.00000000000E+00  0.00000000000E+00  0.91182809058E+02  0.91182809058E+02  0.00000000000E+00 0.  1.
         13   -1    0    0    0    0 -0.00000000000E+00 -0.00000000000E+00 -0.10000000000E+04  0.10000000000E+04  0.00000000000E+00 0.  1.
    9000005    2    1    2  501    0  0.34029664104E-03 -0.10927193827E-02 -0.90884368545E+03  0.10911562898E+04  0.60384203586E+03 0.  0.
         13    1    3    3    0    0 -0.10829535965E+03 -0.21508422107E+03 -0.12532885476E+03  0.27147086199E+03  0.00000000000E+00 0.  1.
          3    1    3    3  501    0  0.10829569995E+03  0.21508312835E+03 -0.78351483069E+03  0.81968542785E+03  0.00000000000E+00 0.  1.
         21    1    1    2  502  501 -0.34029664104E-03  0.10927193827E-02  0.26494508908E-01  0.26519216424E-01  0.00000000000E+00 0. -1.
<mgrwt>
<rscale>  1 0.60384204E+03</rscale>
<asrwt>0</asrwt>
<pdfrwt beam="1">  1        1 0.33157455E+00 0.60384204E+03</pdfrwt>
<pdfrwt beam="2">0</pdfrwt>
<totfact> 0.26931527E+00</totfact>
</mgrwt>
</event>
<event>
 6    1  0.2980119E-003  0.6486551E+03  0.7818608E-02  0.9809306E-01
          1   -1    0    0  502    0  0.00000000000E+00  0.00000000000E+00  0.10541527782E+03  0.10541527782E+03  0.00000000000E+00 0.  1.
         13   -1    0    0    0    0 -0.00000000000E+00 -0.00000000000E+00 -0.10000000000E+04  0.10000000000E+04  0.00000000000E+00 0.  1.
    9000005    2    1    2  501    0  0.98764431278E-01  0.33609755027E+00 -0.89465143746E+03  0.11050586731E+04  0.64865503450E+03 0.  0.
         13    1    3    3    0    0  0.42147462818E+02 -0.30332721096E+03 -0.62826843831E+03  0.69893135293E+03  0.00000000000E+00 0.  1.
          1    1    3    3  501    0 -0.42048698386E+02  0.30366330851E+03 -0.26638299916E+03  0.40612732020E+03  0.00000000000E+00 0.  1.
         21    1    1    2  502  501 -0.98764431278E-01 -0.33609755027E+00  0.66715280864E-01  0.35660468994E+00  0.00000000000E+00 0. -1.
<mgrwt>
<rscale>  1 0.64865513E+03</rscale>
<asrwt>0</asrwt>
<pdfrwt beam="1">  1        1 0.38332909E+00 0.64865513E+03</pdfrwt>
<pdfrwt beam="2">0</pdfrwt>
<totfact> 0.15867468E+00</totfact>
</mgrwt>
</event>
<event>
 6    1  0.2980119E-003  0.6493162E+03  0.7818608E-02  0.9808063E-01
          1   -1    0    0  502    0  0.00000000000E+00  0.00000000000E+00  0.10540291194E+03  0.10540291194E+03  0.00000000000E+00 0.  1.
         13   -1    0    0    0    0 -0.00000000000E+00 -0.00000000000E+00 -0.10000000000E+04  0.10000000000E+04  0.00000000000E+00 0.  1.
    9000005    2    1    2  501    0 -0.16987851808E-04  0.69892403189E-05 -0.89459709859E+03  0.11054028908E+04  0.64931624199E+03 0.  0.
         13    1    3    3    0    0  0.22159093400E+03 -0.23419021695E+03 -0.38235451908E+03  0.50014255768E+03  0.00000000000E+00 0.  1.
          1    1    3    3  501    0 -0.22159095098E+03  0.23419022393E+03 -0.51224257951E+03  0.60526033309E+03  0.00000000000E+00 0.  1.
         21    1    1    2  502  501  0.16987851791E-04 -0.69892403254E-05  0.10534475406E-04  0.21175735191E-04  0.00000000000E+00 0. -1.
<mgrwt>
<rscale>  1 0.64931624E+03</rscale>
<asrwt>0</asrwt>
<pdfrwt beam="1">  1        1 0.38328412E+00 0.64931624E+03</pdfrwt>
<pdfrwt beam="2">0</pdfrwt>
<totfact> 0.15872796E+00</totfact>
</mgrwt>
</event>
<event>
 6    1  0.2980119E-003  0.6496943E+03  0.7818608E-02  0.9807353E-01
          1   -1    0    0  502    0  0.00000000000E+00  0.00000000000E+00  0.10553148038E+03  0.10553148038E+03  0.00000000000E+00 0.  1.
         13   -1    0    0    0    0 -0.00000000000E+00 -0.00000000000E+00 -0.10000000000E+04  0.10000000000E+04  0.00000000000E+00 0.  1.
    9000005    2    1    2  501    0  0.41858075385E-02  0.68485650787E-03 -0.89447345826E+03  0.11055249704E+04  0.64969430701E+03 0.  0.
         13    1    3    3    0    0 -0.28345008722E+03 -0.78965819067E+02 -0.68144409553E+03  0.74225710361E+03  0.00000000000E+00 0.  1.
          1    1    3    3  501    0  0.28345427302E+03  0.78966503923E+02 -0.21302936273E+03  0.36326786676E+03  0.00000000000E+00 0.  1.
         21    1    1    2  502  501 -0.41858075385E-02 -0.68485650787E-03  0.49386367836E-02  0.65100035688E-02  0.00000000000E+00 0.  1.
<mgrwt>
<rscale>  1 0.64969431E+03</rscale>
<asrwt>0</asrwt>
<pdfrwt beam="1">  1        1 0.38375165E+00 0.64969431E+03</pdfrwt>
<pdfrwt beam="2">0</pdfrwt>
<totfact> 0.15796350E+00</totfact>
</mgrwt>
</event>
<event>
 6    1  0.2980119E-003  0.6265349E+03  0.7818608E-02  0.9851834E-01
          1   -1    0    0  502    0  0.00000000000E+00  0.00000000000E+00  0.98295361886E+02  0.98295361886E+02  0.00000000000E+00 0.  1.
         13   -1    0    0    0    0 -0.00000000000E+00 -0.00000000000E+00 -0.10000000000E+04  0.10000000000E+04  0.00000000000E+00 0.  1.
    9000005    2    1    2  501    0  0.97224724840E-04  0.26738125152E-02 -0.90186350206E+03  0.10981364754E+04  0.62653486916E+03 0.  0.
         13    1    3    3    0    0 -0.16201742171E+03  0.26353257335E+03 -0.53747752493E+03  0.62014607308E+03  0.00000000000E+00 0.  1.
          3    1    3    3  501    0  0.16201751893E+03 -0.26352989954E+03 -0.36438597713E+03  0.47799040233E+03  0.00000000000E+00 0.  1.
         21    1    1    2  502  501 -0.97224724843E-04 -0.26738125153E-02  0.15886394727E+00  0.15888647667E+00  0.00000000000E+00 0. -1.
<mgrwt>
<rscale>  1 0.62653487E+03</rscale>
<asrwt>0</asrwt>
<pdfrwt beam="1">  1        1 0.35743843E+00 0.62653487E+03</pdfrwt>
<pdfrwt beam="2">0</pdfrwt>
<totfact> 0.20701330E+00</totfact>
</mgrwt>
</event>
<event>
 6    1  0.2980119E-003  0.6514929E+03  0.7818608E-02  0.9803982E-01
          1   -1    0    0  502    0  0.00000000000E+00  0.00000000000E+00  0.11103462907E+03  0.11103462907E+03  0.00000000000E+00 0.  1.
         13   -1    0    0    0    0 -0.00000000000E+00 -0.00000000000E+00 -0.10000000000E+04  0.10000000000E+04  0.00000000000E+00 0.  1.
    9000005    2    1    2  501    0 -0.12459598411E+01  0.18994580908E+01 -0.89359777247E+03  0.11058752201E+04  0.65148895853E+03 0.  0.
         13    1    3    3    0    0  0.21578427010E+03 -0.22819477022E+03 -0.30563505021E+03  0.43823337196E+03  0.00000000000E+00 0.  1.
          1    1    3    3  501    0 -0.21703022994E+03  0.23009422831E+03 -0.58796272226E+03  0.66764184813E+03  0.00000000000E+00 0.  1.
         21    1    1    2  502  501  0.12459598411E+01 -0.18994580908E+01  0.46324015382E+01  0.51594089754E+01  0.00000000000E+00 0.  1.
<mgrwt>
<rscale>  1 0.65149292E+03</rscale>
<asrwt>0</asrwt>
<pdfrwt beam="1">  1        1 0.40376314E+00 0.65149292E+03</pdfrwt>
<pdfrwt beam="2">0</pdfrwt>
<totfact> 0.12867674E+00</totfact>
</mgrwt>
</event>
<event>
 6    1  0.2980119E-003  0.5681535E+03  0.7818608E-02  0.9973773E-01
          1   -1    0    0  502    0  0.00000000000E+00  0.00000000000E+00  0.10130538975E+03  0.10130538975E+03  0.00000000000E+00 0.  1.
         13   -1    0    0    0    0 -0.00000000000E+00 -0.00000000000E+00 -0.10000000000E+04  0.10000000000E+04  0.00000000000E+00 0.  1.
    9000005    2    1    2  501    0  0.51809623516E-01  0.14493232884E+01 -0.91927282586E+03  0.10806761343E+04  0.56815163088E+03 0.  0.
         13    1    3    3    0    0  0.12284244509E+03  0.17485476724E+03 -0.81771257353E+03  0.84517353772E+03  0.00000000000E+00 0.  1.
          3    1    3    3  501    0 -0.12279063546E+03 -0.17340544395E+03 -0.10156025233E+03  0.23550259659E+03  0.00000000000E+00 0.  1.
         21    1    1    2  502  501 -0.51809623516E-01 -0.14493232884E+01  0.20578215618E+02  0.20629255446E+02  0.00000000000E+00 0. -1.
<mgrwt>
<rscale>  1 0.56815348E+03</rscale>
<asrwt>0</asrwt>
<pdfrwt beam="1">  1        1 0.36838401E+00 0.56815348E+03</pdfrwt>
<pdfrwt beam="2">0</pdfrwt>
<totfact> 0.18752534E+00</totfact>
</mgrwt>
</event>
<event>
 6    1  0.2980119E-003  0.6508276E+03  0.7818608E-02  0.9805227E-01
          1   -1    0    0  502    0  0.00000000000E+00  0.00000000000E+00  0.10589416650E+03  0.10589416650E+03  0.00000000000E+00 0.  1.
         13   -1    0    0    0    0 -0.00000000000E+00 -0.00000000000E+00 -0.10000000000E+04  0.10000000000E+04  0.00000000000E+00 0.  1.
    9000005    2    1    2  501    0  0.78264185959E-05 -0.50236633200E-05 -0.89410585087E+03  0.11058941468E+04  0.65082762032E+03 0.  0.
         13    1    3    3    0    0 -0.26409976727E+03 -0.66769736117E+02 -0.14457760725E+03  0.30839839372E+03  0.00000000000E+00 0.  1.
          3    1    3    3  501    0  0.26409977509E+03  0.66769731093E+02 -0.74952824362E+03  0.79749575308E+03  0.00000000000E+00 0.  1.
         21    1    1    2  502  501 -0.78264185910E-05  0.50236633207E-05  0.17366370570E-04  0.19699767712E-04  0.00000000000E+00 0.  1.
<mgrwt>
<rscale>  1 0.65082762E+03</rscale>
<asrwt>0</asrwt>
<pdfrwt beam="1">  1        1 0.38507051E+00 0.65082762E+03</pdfrwt>
<pdfrwt beam="2">0</pdfrwt>
<totfact> 0.15582387E+00</totfact>
</mgrwt>
</event>
<event>
 6    1  0.2980119E-003  0.6325700E+03  0.7818608E-02  0.9840046E-01
          1   -1    0    0  502    0  0.00000000000E+00  0.00000000000E+00  0.10005087735E+03  0.10005087735E+03  0.00000000000E+00 0.  1.
         13   -1    0    0    0    0 -0.00000000000E+00 -0.00000000000E+00 -0.10000000000E+04  0.10000000000E+04  0.00000000000E+00 0.  1.
    9000005    2    1    2  501    0  0.13827229424E-02  0.20399071603E-02 -0.89996368396E+03  0.11000361090E+04  0.63257000293E+03 0.  0.
         13    1    3    3    0    0 -0.64984599417E+02  0.30656638415E+03 -0.37557535939E+03  0.48914496485E+03  0.00000000000E+00 0.  1.
          1    1    3    3  501    0  0.64985982140E+02 -0.30656434424E+03 -0.52438832456E+03  0.61089114413E+03  0.00000000000E+00 0.  1.
         21    1    1    2  502  501 -0.13827229424E-02 -0.20399071603E-02  0.14561305256E-01  0.14768370077E-01  0.00000000000E+00 0.  1.
<mgrwt>
<rscale>  1 0.63257000E+03</rscale>
<asrwt>0</asrwt>
<pdfrwt beam="1">  1        1 0.36382214E+00 0.63257000E+03</pdfrwt>
<pdfrwt beam="2">0</pdfrwt>
<totfact> 0.19390949E+00</totfact>
</mgrwt>
</event>
<event>
 6    1  0.2980119E-003  0.6513226E+03  0.7818608E-02  0.9804301E-01
          1   -1    0    0  502    0  0.00000000000E+00  0.00000000000E+00  0.10638263937E+03  0.10638263937E+03  0.00000000000E+00 0.  1.
         13   -1    0    0    0    0 -0.00000000000E+00 -0.00000000000E+00 -0.10000000000E+04  0.10000000000E+04  0.00000000000E+00 0.  1.
    9000005    2    1    2  501    0 -0.43184636302E-01  0.90064608860E-01 -0.89393625662E+03  0.11060484670E+04  0.65132263158E+03 0.  0.
         13    1    3    3    0    0  0.20371986897E+03 -0.19337131071E+03 -0.16718127795E+03  0.32686974243E+03  0.00000000000E+00 0.  1.
          3    1    3    3  501    0 -0.20376305361E+03  0.19346137532E+03 -0.72675497867E+03  0.77917872454E+03  0.00000000000E+00 0.  1.
         21    1    1    2  502  501  0.43184636302E-01 -0.90064608860E-01  0.31889598159E+00  0.33417240110E+00  0.00000000000E+00 0. -1.
<mgrwt>
<rscale>  1 0.65132264E+03</rscale>
<asrwt>0</asrwt>
<pdfrwt beam="1">  1        1 0.38684678E+00 0.65132264E+03</pdfrwt>
<pdfrwt beam="2">0</pdfrwt>
<totfact> 0.15301486E+00</totfact>
</mgrwt>
</event>
<event>
 6    1  0.2980119E-003  0.6561110E+03  0.7818608E-02  0.9795379E-01
          1   -1    0    0  502    0  0.00000000000E+00  0.00000000000E+00  0.10762047259E+03  0.10762047259E+03  0.00000000000E+00 0.  1.
         13   -1    0    0    0    0 -0.00000000000E+00 -0.00000000000E+00 -0.10000000000E+04  0.10000000000E+04  0.00000000000E+00 0.  1.
    9000005    2    1    2  501    0  0.67581660765E-05  0.45341093312E-04 -0.89237957864E+03  0.11076204038E+04  0.65611100177E+03 0.  0.
         13    1    3    3    0    0 -0.31470691261E+02  0.30143613176E+03 -0.65816168838E+03  0.72459019727E+03  0.00000000000E+00 0.  1.
          3    1    3    3  501    0  0.31470698019E+02 -0.30143608642E+03 -0.23421789026E+03  0.38303020657E+03  0.00000000000E+00 0.  1.
         21    1    1    2  502  501 -0.67581660736E-05 -0.45341093291E-04  0.51228432410E-04  0.68744744066E-04  0.00000000000E+00 0.  1.
<mgrwt>
<rscale>  1 0.65611100E+03</rscale>
<asrwt>0</asrwt>
<pdfrwt beam="1">  1        1 0.39134800E+00 0.65611100E+03</pdfrwt>
<pdfrwt beam="2">0</pdfrwt>
<totfact> 0.14601447E+00</totfact>
</mgrwt>
</event>
<event>
 6    1  0.2980119E-003  0.6528807E+03  0.7818608E-02  0.9801389E-01
          1   -1    0    0  502    0  0.00000000000E+00  0.00000000000E+00  0.10656333871E+03  0.10656333871E+03  0.00000000000E+00 0.  1.
         13   -1    0    0    0    0 -0.00000000000E+00 -0.00000000000E+00 -0.10000000000E+04  0.10000000000E+04  0.00000000000E+00 0.  1.
    9000005    2    1    2  501    0 -0.34327651406E-05 -0.48325769285E-04 -0.89343666431E+03  0.11065632902E+04  0.65288072572E+03 0.  0.
         13    1    3    3    0    0 -0.67840112991E+02  0.16816556264E+03 -0.90678548514E+03  0.92473880283E+03  0.00000000000E+00 0.  1.
          3    1    3    3  501    0  0.67840109559E+02 -0.16816561097E+03  0.13348820835E+02  0.18182448734E+03  0.00000000000E+00 0.  1.
         21    1    1    2  502  501  0.34327651433E-05  0.48325769270E-04  0.30187233298E-05  0.48541493000E-04  0.00000000000E+00 0. -1.
<mgrwt>
<rscale>  1 0.65288073E+03</rscale>
<asrwt>0</asrwt>
<pdfrwt beam="1">  1        1 0.38750387E+00 0.65288073E+03</pdfrwt>
<pdfrwt beam="2">0</pdfrwt>
<totfact> 0.15194930E+00</totfact>
</mgrwt>
</event>
<event>
 6    1  0.2980119E-003  0.6456760E+03  0.7818608E-02  0.9814927E-01
          1   -1    0    0  502    0  0.00000000000E+00  0.00000000000E+00  0.11846889862E+03  0.11846889862E+03  0.00000000000E+00 0.  1.
         13   -1    0    0    0    0 -0.00000000000E+00 -0.00000000000E+00 -0.10000000000E+04  0.10000000000E+04  0.00000000000E+00 0.  1.
    9000005    2    1    2  501    0  0.14996296528E+00  0.43811077073E+00 -0.89577148110E+03  0.11042209919E+04  0.64567579966E+03 0.  0.
         13    1    3    3    0    0  0.32700917479E+02 -0.89746237984E+02  0.79484139098E+02  0.12426369383E+03  0.00000000000E+00 0.  1.
          3    1    3    3  501    0 -0.32550954513E+02  0.90184348755E+02 -0.97525562020E+03  0.97995729812E+03  0.00000000000E+00 0.  1.
         21    1    1    2  502  501 -0.14996296528E+00 -0.43811077073E+00  0.14240379721E+02  0.14247906672E+02  0.00000000000E+00 0. -1.
<mgrwt>
<rscale>  1 0.64567597E+03</rscale>
<asrwt>0</asrwt>
<pdfrwt beam="1">  1        1 0.43079690E+00 0.64567597E+03</pdfrwt>
<pdfrwt beam="2">0</pdfrwt>
<totfact> 0.97335758E-01</totfact>
</mgrwt>
</event>
<event>
 6    1  0.2980119E-003  0.6371220E+03  0.7818608E-02  0.9831248E-01
          1   -1    0    0  502    0  0.00000000000E+00  0.00000000000E+00  0.10148808395E+03  0.10148808395E+03  0.00000000000E+00 0.  1.
         13   -1    0    0    0    0 -0.00000000000E+00 -0.00000000000E+00 -0.10000000000E+04  0.10000000000E+04  0.00000000000E+00 0.  1.
    9000005    2    1    2  501    0 -0.15225359726E-02  0.14156745927E-01 -0.89850979590E+03  0.11014736886E+04  0.63712199232E+03 0.  0.
         13    1    3    3    0    0  0.86563768328E+02  0.25073263557E+03 -0.75426392673E+03  0.79954625362E+03  0.00000000000E+00 0.  1.
          1    1    3    3  501    0 -0.86565290864E+02 -0.25071847882E+03 -0.14424586917E+03  0.30192743495E+03  0.00000000000E+00 0.  1.
         21    1    1    2  502  501  0.15225359726E-02 -0.14156745927E-01 -0.21201538363E-02  0.14395368120E-01  0.00000000000E+00 0. -1.
<mgrwt>
<rscale>  1 0.63712199E+03</rscale>
<asrwt>0</asrwt>
<pdfrwt beam="1">  1        1 0.36904836E+00 0.63712199E+03</pdfrwt>
<pdfrwt beam="2">0</pdfrwt>
<totfact> 0.18379043E+00</totfact>
</mgrwt>
</event>
<event>
 6    1  0.2980119E-003  0.6446485E+03  0.7818608E-02  0.9816873E-01
          1   -1    0    0  502    0  0.00000000000E+00  0.00000000000E+00  0.10389297323E+03  0.10389297323E+03  0.00000000000E+00 0.  1.
         13   -1    0    0    0    0 -0.00000000000E+00 -0.00000000000E+00 -0.10000000000E+04  0.10000000000E+04  0.00000000000E+00 0.  1.
    9000005    2    1    2  501    0 -0.50389190638E-05 -0.17097225708E-04 -0.89610706929E+03  0.11038929271E+04  0.64464852046E+03 0.  0.
         13    1    3    3    0    0  0.21073795763E+01  0.10990436835E+03 -0.96691068380E+03  0.97313908650E+03  0.00000000000E+00 0.  1.
          1    1    3    3  501    0 -0.21073846152E+01 -0.10990438545E+03  0.70803614512E+02  0.13075384062E+03  0.00000000000E+00 0.  1.
         21    1    1    2  502  501  0.50389190640E-05  0.17097225703E-04  0.42518148129E-04  0.46103131698E-04  0.00000000000E+00 0. -1.
<mgrwt>
<rscale>  1 0.64464852E+03</rscale>
<asrwt>0</asrwt>
<pdfrwt beam="1">  1        1 0.37779343E+00 0.64464852E+03</pdfrwt>
<pdfrwt beam="2">0</pdfrwt>
<totfact> 0.16798057E+00</totfact>
</mgrwt>
</event>
<event>
 6    1  0.2980119E-003  0.6165086E+03  0.7818608E-02  0.9871736E-01
          1   -1    0    0  502    0  0.00000000000E+00  0.00000000000E+00  0.95053664709E+02  0.95053664709E+02  0.00000000000E+00 0.  1.
         13   -1    0    0    0    0 -0.00000000000E+00 -0.00000000000E+00 -0.10000000000E+04  0.10000000000E+04  0.00000000000E+00 0.  1.
    9000005    2    1    2  501    0 -0.24298099442E-01 -0.53092541223E-02 -0.90497407854E+03  0.10950164052E+04  0.61650859210E+03 0.  0.
         13    1    3    3    0    0  0.27071039343E+03  0.13644490141E+03 -0.55155442341E+03  0.62937557167E+03  0.00000000000E+00 0.  1.
          1    1    3    3  501    0 -0.27073469153E+03 -0.13645021066E+03 -0.35341965513E+03  0.46564083349E+03  0.00000000000E+00 0.  1.
         21    1    1    2  502  501  0.24298099442E-01  0.53092541223E-02  0.27743248114E-01  0.37259544170E-01  0.00000000000E+00 0.  1.
<mgrwt>
<rscale>  1 0.61650859E+03</rscale>
<asrwt>0</asrwt>
<pdfrwt beam="1">  1        1 0.34565042E+00 0.61650859E+03</pdfrwt>
<pdfrwt beam="2">0</pdfrwt>
<totfact> 0.23343801E+00</totfact>
</mgrwt>
</event>
<event>
 6    1  0.2980119E-003  0.6480288E+03  0.7818608E-02  0.9810485E-01
          1   -1    0    0  502    0  0.00000000000E+00  0.00000000000E+00  0.10743963925E+03  0.10743963925E+03  0.00000000000E+00 0.  1.
         13   -1    0    0    0    0 -0.00000000000E+00 -0.00000000000E+00 -0.10000000000E+04  0.10000000000E+04  0.00000000000E+00 0.  1.
    9000005    2    1    2  501    0 -0.24248180497E+01  0.20403780882E+01 -0.89382975469E+03  0.11040258076E+04  0.64802107272E+03 0.  0.
         13    1    3    3    0    0 -0.26238665471E+03  0.11330835347E+03 -0.18391929122E+03  0.33987033589E+03  0.00000000000E+00 0.  1.
          1    1    3    3  501    0  0.25996183666E+03 -0.11126797538E+03 -0.70991046347E+03  0.76415547175E+03  0.00000000000E+00 0.  1.
         21    1    1    2  502  501  0.24248180497E+01 -0.20403780882E+01  0.12693939398E+01  0.34138316144E+01  0.00000000000E+00 0. -1.
<mgrwt>
<rscale>  1 0.64802882E+03</rscale>
<asrwt>0</asrwt>
<pdfrwt beam="1">  1        1 0.39069042E+00 0.64802882E+03</pdfrwt>
<pdfrwt beam="2">0</pdfrwt>
<totfact> 0.14722035E+00</totfact>
</mgrwt>
</event>
<event>
 6    1  0.2980119E-003  0.6656326E+03  0.7818608E-02  0.9777880E-01
          1   -1    0    0  502    0  0.00000000000E+00  0.00000000000E+00  0.11087608354E+03  0.11087608354E+03  0.00000000000E+00 0.  1.
         13   -1    0    0    0    0 -0.00000000000E+00 -0.00000000000E+00 -0.10000000000E+04  0.10000000000E+04  0.00000000000E+00 0.  1.
    9000005    2    1    2  501    0  0.10416737166E+00 -0.33627465763E-01 -0.88920198596E+03  0.11107416347E+04  0.66563262781E+03 0.  0.
         13    1    3    3    0    0 -0.17794018147E+03  0.14560327622E+03 -0.43092720137E+02  0.23392307444E+03  0.00000000000E+00 0.  1.
          3    1    3    3  501    0  0.17804434884E+03 -0.14563690368E+03 -0.84610926583E+03  0.87681856024E+03  0.00000000000E+00 0.  1.
         21    1    1    2  502  501 -0.10416737166E+00  0.33627465763E-01  0.78069508168E-01  0.13444885971E+00  0.00000000000E+00 0.  1.
<mgrwt>
<rscale>  1 0.66563264E+03</rscale>
<asrwt>0</asrwt>
<pdfrwt beam="1">  1        1 0.40318661E+00 0.66563264E+03</pdfrwt>
<pdfrwt beam="2">0</pdfrwt>
<totfact> 0.12909586E+00</totfact>
</mgrwt>
</event>
<event>
 6    1  0.2980119E-003  0.6398338E+03  0.7818608E-02  0.9826045E-01
          1   -1    0    0  502    0  0.00000000000E+00  0.00000000000E+00  0.10235069186E+03  0.10235069186E+03  0.00000000000E+00 0.  1.
         13   -1    0    0    0    0 -0.00000000000E+00 -0.00000000000E+00 -0.10000000000E+04  0.10000000000E+04  0.00000000000E+00 0.  1.
    9000005    2    1    2  501    0  0.23949103414E-02 -0.26667354550E-02 -0.89765223553E+03  0.11023460640E+04  0.63983381353E+03 0.  0.
         13    1    3    3    0    0  0.70094367453E+02  0.26256652649E+02  0.87048604760E+02  0.11480458069E+03  0.00000000000E+00 0.  1.
          1    1    3    3  501    0 -0.70091972542E+02 -0.26259319384E+02 -0.98470084029E+03  0.98754148335E+03  0.00000000000E+00 0.  1.
         21    1    1    2  502  501 -0.23949103414E-02  0.26667354550E-02  0.29273930720E-02  0.46278184632E-02  0.00000000000E+00 0. -1.
<mgrwt>
<rscale>  1 0.63983381E+03</rscale>
<asrwt>0</asrwt>
<pdfrwt beam="1">  1        1 0.37218512E+00 0.63983381E+03</pdfrwt>
<pdfrwt beam="2">0</pdfrwt>
<totfact> 0.17796241E+00</totfact>
</mgrwt>
</event>
<event>
 6    1  0.2980119E-003  0.6492909E+03  0.7818608E-02  0.9808111E-01
          1   -1    0    0  502    0  0.00000000000E+00  0.00000000000E+00  0.10792385441E+03  0.10792385441E+03  0.00000000000E+00 0.  1.
         13   -1    0    0    0    0 -0.00000000000E+00 -0.00000000000E+00 -0.10000000000E+04  0.10000000000E+04  0.00000000000E+00 0.  1.
    9000005    2    1    2  501    0  0.24204564317E-01 -0.49554197382E-01 -0.89460501001E+03  0.11053943887E+04  0.64929086517E+03 0.  0.
         13    1    3    3    0    0  0.17996710642E+03 -0.25934014075E+03 -0.57661867702E+03  0.65736942938E+03  0.00000000000E+00 0.  1.
          1    1    3    3  501    0 -0.17994290185E+03  0.25929058656E+03 -0.31798633300E+03  0.44802495932E+03  0.00000000000E+00 0.  1.
         21    1    1    2  502  501 -0.24204564317E-01  0.49554197382E-01  0.25288644202E+01  0.25294657015E+01  0.00000000000E+00 0.  1.
<mgrwt>
<rscale>  1 0.64929087E+03</rscale>
<asrwt>0</asrwt>
<pdfrwt beam="1">  1        1 0.39245121E+00 0.64929087E+03</pdfrwt>
<pdfrwt beam="2">0</pdfrwt>
<totfact> 0.14456125E+00</totfact>
</mgrwt>
</event>
<event>
 6    1  0.2980119E-003  0.6377894E+03  0.7818608E-02  0.9829965E-01
          1   -1    0    0  502    0  0.00000000000E+00  0.00000000000E+00  0.10169627142E+03  0.10169627142E+03  0.00000000000E+00 0.  1.
         13   -1    0    0    0    0 -0.00000000000E+00 -0.00000000000E+00 -0.10000000000E+04  0.10000000000E+04  0.00000000000E+00 0.  1.
    9000005    2    1    2  501    0  0.25880605824E-03  0.48054819331E-04 -0.89830616701E+03  0.11016938188E+04  0.63778938589E+03 0.  0.
         13    1    3    3    0    0 -0.16427627742E+03  0.15906815408E+03 -0.65210216663E+02  0.23778508221E+03  0.00000000000E+00 0.  1.
          1    1    3    3  501    0  0.16427653623E+03 -0.15906810603E+03 -0.83309595035E+03  0.86390873661E+03  0.00000000000E+00 0.  1.
         21    1    1    2  502  501 -0.25880605825E-03 -0.48054819336E-04  0.24384240837E-02  0.24525908450E-02  0.00000000000E+00 0.  1.
<mgrwt>
<rscale>  1 0.63778939E+03</rscale>
<asrwt>0</asrwt>
<pdfrwt beam="1">  1        1 0.36980540E+00 0.63778939E+03</pdfrwt>
<pdfrwt beam="2">0</pdfrwt>
<totfact> 0.18236695E+00</totfact>
</mgrwt>
</event>
<event>
 6    1  0.2980119E-003  0.6501594E+03  0.7818608E-02  0.9806480E-01
          1   -1    0    0  502    0  0.00000000000E+00  0.00000000000E+00  0.10665059831E+03  0.10665059831E+03  0.00000000000E+00 0.  1.
         13   -1    0    0    0    0 -0.00000000000E+00 -0.00000000000E+00 -0.10000000000E+04  0.10000000000E+04  0.00000000000E+00 0.  1.
    9000005    2    1    2  501    0 -0.15877119771E-01 -0.28789606907E-02 -0.89432311947E+03  0.11056767468E+04  0.65015938524E+03 0.  0.
         13    1    3    3    0    0  0.33604610245E+02  0.18961089983E+03 -0.89256103011E+03  0.91309734182E+03  0.00000000000E+00 0.  1.
          1    1    3    3  501    0 -0.33620487365E+02 -0.18961377879E+03 -0.17620893612E+01  0.19257940502E+03  0.00000000000E+00 0.  1.
         21    1    1    2  502  501  0.15877119770E-01  0.28789606907E-02  0.97371778217E+00  0.97385147259E+00  0.00000000000E+00 0.  1.
<mgrwt>
<rscale>  1 0.65015939E+03</rscale>
<asrwt>0</asrwt>
<pdfrwt beam="1">  1        1 0.38782118E+00 0.65015939E+03</pdfrwt>
<pdfrwt beam="2">0</pdfrwt>
<totfact> 0.15153479E+00</totfact>
</mgrwt>
</event>
<event>
 6    1  0.2980119E-003  0.6475586E+03  0.7818608E-02  0.9811371E-01
          1   -1    0    0  502    0  0.00000000000E+00  0.00000000000E+00  0.10516502227E+03  0.10516502227E+03  0.00000000000E+00 0.  1.
         13   -1    0    0    0    0 -0.00000000000E+00 -0.00000000000E+00 -0.10000000000E+04  0.10000000000E+04  0.00000000000E+00 0.  1.
    9000005    2    1    2  501    0 -0.63625072383E-01 -0.17751530035E-02 -0.89516360260E+03  0.11048302901E+04  0.64755856145E+03 0.  0.
         13    1    3    3    0    0 -0.47269083282E+02  0.21506157322E+03 -0.85259457379E+03  0.88056990283E+03  0.00000000000E+00 0.  1.
          3    1    3    3  501    0  0.47205458210E+02 -0.21506334837E+03 -0.42569028807E+02  0.22426038730E+03  0.00000000000E+00 0.  1.
         21    1    1    2  502  501  0.63625072383E-01  0.17751530035E-02  0.32862487290E+00  0.33473214380E+00  0.00000000000E+00 0. -1.
<mgrwt>
<rscale>  1 0.64755856E+03</rscale>
<asrwt>0</asrwt>
<pdfrwt beam="1">  1        1 0.38241907E+00 0.64755856E+03</pdfrwt>
<pdfrwt beam="2">0</pdfrwt>
<totfact> 0.16018296E+00</totfact>
</mgrwt>
</event>
<event>
 6    1  0.2980119E-003  0.5885621E+03  0.7818608E-02  0.9929424E-01
          1   -1    0    0  502    0  0.00000000000E+00  0.00000000000E+00  0.86603167088E+02  0.86603167088E+02  0.00000000000E+00 0.  1.
         13   -1    0    0    0    0 -0.00000000000E+00 -0.00000000000E+00 -0.10000000000E+04  0.10000000000E+04  0.00000000000E+00 0.  1.
    9000005    2    1    2  501    0  0.12841779863E-03 -0.17375833806E-04 -0.91339864708E+03  0.10866013483E+04  0.58856214764E+03 0.  0.
         13    1    3    3    0    0  0.11164740010E+03  0.22420276441E+03 -0.17146744041E+03  0.30353435495E+03  0.00000000000E+00 0.  1.
          3    1    3    3  501    0 -0.11164727168E+03 -0.22420278178E+03 -0.74193120667E+03  0.78306699334E+03  0.00000000000E+00 0.  1.
         21    1    1    2  502  501 -0.12841779863E-03  0.17375833813E-04  0.18141685850E-02  0.18187910011E-02  0.00000000000E+00 0. -1.
<mgrwt>
<rscale>  1 0.58856215E+03</rscale>
<asrwt>0</asrwt>
<pdfrwt beam="1">  1        1 0.31492127E+00 0.58856215E+03</pdfrwt>
<pdfrwt beam="2">0</pdfrwt>
<totfact> 0.31877322E+00</totfact>
</mgrwt>
</event>
<event>
 6    1  0.2980119E-003  0.6397637E+03  0.7818608E-02  0.9826179E-01
          1   -1    0    0  502    0  0.00000000000E+00  0.00000000000E+00  0.10640281215E+03  0.10640281215E+03  0.00000000000E+00 0.  1.
         13   -1    0    0    0    0 -0.00000000000E+00 -0.00000000000E+00 -0.10000000000E+04  0.10000000000E+04  0.00000000000E+00 0.  1.
    9000005    2    1    2  501    0 -0.73548918377E+00 -0.35605420367E+01 -0.89676341264E+03  0.11015816729E+04  0.63975334739E+03 0.  0.
         13    1    3    3    0    0 -0.14687267413E+03 -0.28613002747E+03 -0.45493745063E+03  0.55714455845E+03  0.00000000000E+00 0.  1.
          3    1    3    3  501    0  0.14613718495E+03  0.28256948543E+03 -0.44182596200E+03  0.54443711448E+03  0.00000000000E+00 0.  1.
         21    1    1    2  502  501  0.73548918377E+00  0.35605420367E+01  0.31662247866E+01  0.48211392153E+01  0.00000000000E+00 0. -1.
<mgrwt>
<rscale>  1 0.63976368E+03</rscale>
<asrwt>0</asrwt>
<pdfrwt beam="1">  1        1 0.38692013E+00 0.63976368E+03</pdfrwt>
<pdfrwt beam="2">0</pdfrwt>
<totfact> 0.15323060E+00</totfact>
</mgrwt>
</event>
<event>
 6    1  0.2980119E-003  0.6523330E+03  0.7818608E-02  0.9802411E-01
          1   -1    0    0  502    0  0.00000000000E+00  0.00000000000E+00  0.10640411541E+03  0.10640411541E+03  0.00000000000E+00 0.  1.
         13   -1    0    0    0    0 -0.00000000000E+00 -0.00000000000E+00 -0.10000000000E+04  0.10000000000E+04  0.00000000000E+00 0.  1.
    9000005    2    1    2  501    0 -0.85370300399E-02 -0.12140620268E-02 -0.89361435627E+03  0.11063837302E+04  0.65233299824E+03 0.  0.
         13    1    3    3    0    0 -0.63976019235E+02  0.19232768982E+02 -0.98827402811E+03  0.99052934590E+03  0.00000000000E+00 0.  1.
          1    1    3    3  501    0  0.63967482205E+02 -0.19233983044E+02  0.94659671844E+02  0.11585438428E+03  0.00000000000E+00 0.  1.
         21    1    1    2  502  501  0.85370300399E-02  0.12140620268E-02  0.18471676145E-01  0.20385231127E-01  0.00000000000E+00 0. -1.
<mgrwt>
<rscale>  1 0.65233300E+03</rscale>
<asrwt>0</asrwt>
<pdfrwt beam="1">  1        1 0.38692487E+00 0.65233300E+03</pdfrwt>
<pdfrwt beam="2">0</pdfrwt>
<totfact> 0.15286451E+00</totfact>
</mgrwt>
</event>
<event>
 6    1  0.2980119E-003  0.6480694E+03  0.7818608E-02  0.9810408E-01
          1   -1    0    0  502    0  0.00000000000E+00  0.00000000000E+00  0.10504684559E+03  0.10504684559E+03  0.00000000000E+00 0.  1.
         13   -1    0    0    0    0 -0.00000000000E+00 -0.00000000000E+00 -0.10000000000E+04  0.10000000000E+04  0.00000000000E+00 0.  1.
    9000005    2    1    2  501    0 -0.30125925363E-02 -0.40473396073E-02 -0.89500135163E+03  0.11049983850E+04  0.64806944952E+03 0.  0.
         13    1    3    3    0    0  0.30687297660E+03  0.40111288355E+02 -0.61119739535E+03  0.68508553868E+03  0.00000000000E+00 0.  1.
          1    1    3    3  501    0 -0.30687598920E+03 -0.40115335694E+02 -0.28380395628E+03  0.41991284632E+03  0.00000000000E+00 0.  1.
         21    1    1    2  502  501  0.30125925363E-02  0.40473396073E-02  0.48197224266E-01  0.48460593256E-01  0.00000000000E+00 0.  1.
<mgrwt>
<rscale>  1 0.64806945E+03</rscale>
<asrwt>0</asrwt>
<pdfrwt beam="1">  1        1 0.38198933E+00 0.64806945E+03</pdfrwt>
<pdfrwt beam="2">0</pdfrwt>
<totfact> 0.16086944E+00</totfact>
</mgrwt>
</event>
<event>
 6    1  0.2980119E-003  0.5233357E+03  0.7818608E-02  0.1007861E+00
          1   -1    0    0  502    0  0.00000000000E+00  0.00000000000E+00  0.68470622399E+02  0.68470622399E+02  0.00000000000E+00 0.  1.
         13   -1    0    0    0    0 -0.00000000000E+00 -0.00000000000E+00 -0.10000000000E+04  0.10000000000E+04  0.00000000000E+00 0.  1.
    9000005    2    1    2  501    0 -0.21992297869E-03  0.49307382034E-03 -0.93152980090E+03  0.10684699363E+04  0.52333568091E+03 0.  0.
         13    1    3    3    0    0  0.17381075911E+03 -0.15309452156E+03 -0.21720355712E+03  0.31753030996E+03  0.00000000000E+00 0.  1.
          3    1    3    3  501    0 -0.17381097904E+03  0.15309501463E+03 -0.71432624377E+03  0.75093962639E+03  0.00000000000E+00 0.  1.
         21    1    1    2  502  501  0.21992297869E-03 -0.49307382033E-03  0.42329640422E-03  0.68605229733E-03  0.00000000000E+00 0. -1.
<mgrwt>
<rscale>  1 0.52333568E+03</rscale>
<asrwt>0</asrwt>
<pdfrwt beam="1">  1        1 0.24898461E+00 0.52333568E+03</pdfrwt>
<pdfrwt beam="2">0</pdfrwt>
<totfact> 0.62146500E+00</totfact>
</mgrwt>
</event>
<event>
 6    1  0.2980119E-003  0.6526934E+03  0.7818608E-02  0.9801738E-01
          3   -1    0    0  502    0  0.00000000000E+00  0.00000000000E+00  0.10650234429E+03  0.10650234429E+03  0.00000000000E+00 0.  1.
         13   -1    0    0    0    0 -0.00000000000E+00 -0.00000000000E+00 -0.10000000000E+04  0.10000000000E+04  0.00000000000E+00 0.  1.
    9000005    2    1    2  501    0 -0.27896607702E-03  0.36552202985E-03 -0.89349742226E+03  0.11065018286E+04  0.65269338371E+03 0.  0.
         13    1    3    3    0    0  0.43252114640E+01  0.15659941522E+03  0.38589128993E+02  0.16134188910E+03  0.00000000000E+00 0.  1.
          1    1    3    3  501    0 -0.43254904301E+01 -0.15659904970E+03 -0.93208655125E+03  0.94515993951E+03  0.00000000000E+00 0.  1.
         21    1    1    2  502  501  0.27896607702E-03 -0.36552202985E-03 -0.23344616420E-03  0.51567968548E-03  0.00000000000E+00 0. -1.
<mgrwt>
<rscale>  1 0.65269338E+03</rscale>
<asrwt>0</asrwt>
<pdfrwt beam="1">  1        3 0.38728207E+00 0.65269338E+03</pdfrwt>
<pdfrwt beam="2">0</pdfrwt>
<totfact> 0.69058899E-02</totfact>
</mgrwt>
</event>
<event>
 6    1  0.2980119E-003  0.6668920E+03  0.7818608E-02  0.9775589E-01
          3   -1    0    0  502    0  0.00000000000E+00  0.00000000000E+00  0.11118695056E+03  0.11118695056E+03  0.00000000000E+00 0.  1.
         13   -1    0    0    0    0 -0.00000000000E+00 -0.00000000000E+00 -0.10000000000E+04  0.10000000000E+04  0.00000000000E+00 0.  1.
    9000005    2    1    2  501    0 -0.55171027116E-03 -0.24957466536E-03 -0.88881361761E+03  0.11111861202E+04  0.66689200541E+03 0.  0.
         13    1    3    3    0    0 -0.33445385200E+02  0.33166862364E+03 -0.45768451846E+03  0.56621355348E+03  0.00000000000E+00 0.  1.
          1    1    3    3  501    0  0.33444833490E+02 -0.33166887322E+03 -0.43112909915E+03  0.54497256673E+03  0.00000000000E+00 0.  1.
         21    1    1    2  502  501  0.55171027116E-03  0.24957466535E-03  0.56817032465E-03  0.83035489684E-03  0.00000000000E+00 0. -1.
<mgrwt>
<rscale>  1 0.66689201E+03</rscale>
<asrwt>0</asrwt>
<pdfrwt beam="1">  1        3 0.40431704E+00 0.66689201E+03</pdfrwt>
<pdfrwt beam="2">0</pdfrwt>
<totfact> 0.56073581E-02</totfact>
</mgrwt>
</event>
<event>
 6    1  0.2980119E-003  0.6465595E+03  0.7818608E-02  0.9813257E-01
          3   -1    0    0  502    0  0.00000000000E+00  0.00000000000E+00  0.10451030605E+03  0.10451030605E+03  0.00000000000E+00 0.  1.
         13   -1    0    0    0    0 -0.00000000000E+00 -0.00000000000E+00 -0.10000000000E+04  0.10000000000E+04  0.00000000000E+00 0.  1.
    9000005    2    1    2  501    0 -0.71015173961E-03 -0.53460648490E-03 -0.89548976069E+03  0.11045094147E+04  0.64655946019E+03 0.  0.
         13    1    3    3    0    0  0.15845096784E+03  0.18457512103E+03 -0.84016016375E+02  0.25735845725E+03  0.00000000000E+00 0.  1.
          1    1    3    3  501    0 -0.15845167799E+03 -0.18457565563E+03 -0.81147374432E+03  0.84715095740E+03  0.00000000000E+00 0.  1.
         21    1    1    2  502  501  0.71015173961E-03  0.53460648490E-03  0.66736591655E-04  0.89138844486E-03  0.00000000000E+00 0.  1.
<mgrwt>
<rscale>  1 0.64655946E+03</rscale>
<asrwt>0</asrwt>
<pdfrwt beam="1">  1        3 0.38003828E+00 0.64655946E+03</pdfrwt>
<pdfrwt beam="2">0</pdfrwt>
<totfact> 0.75486980E-02</totfact>
</mgrwt>
</event>
<event>
 6    1  0.2980119E-003  0.6540298E+03  0.7818608E-02  0.9799247E-01
          1   -1    0    0  502    0  0.00000000000E+00  0.00000000000E+00  0.10804003622E+03  0.10804003622E+03  0.00000000000E+00 0.  1.
         13   -1    0    0    0    0 -0.00000000000E+00 -0.00000000000E+00 -0.10000000000E+04  0.10000000000E+04  0.00000000000E+00 0.  1.
    9000005    2    1    2  501    0 -0.23252997014E-01 -0.13812791395E-01 -0.89306106869E+03  0.11069385992E+04  0.65402980760E+03 0.  0.
         13    1    3    3    0    0  0.24990837799E+03 -0.16941089667E+03 -0.23390842527E+03  0.38192590998E+03  0.00000000000E+00 0.  1.
          1    1    3    3  501    0 -0.24993163098E+03  0.16939708388E+03 -0.65915264342E+03  0.72501268922E+03  0.00000000000E+00 0.  1.
         21    1    1    2  502  501  0.23252997014E-01  0.13812791395E-01  0.11011049126E+01  0.11014370266E+01  0.00000000000E+00 0.  1.
<mgrwt>
<rscale>  1 0.65402981E+03</rscale>
<asrwt>0</asrwt>
<pdfrwt beam="1">  1        1 0.39287369E+00 0.65402981E+03</pdfrwt>
<pdfrwt beam="2">0</pdfrwt>
<totfact> 0.14381054E+00</totfact>
</mgrwt>
</event>
<event>
 6    1  0.2980119E-003  0.6647459E+03  0.7818608E-02  0.9779496E-01
          1   -1    0    0  502    0  0.00000000000E+00  0.00000000000E+00  0.11047454780E+03  0.11047454780E+03  0.00000000000E+00 0.  1.
         13   -1    0    0    0    0 -0.00000000000E+00 -0.00000000000E+00 -0.10000000000E+04  0.10000000000E+04  0.00000000000E+00 0.  1.
    9000005    2    1    2  501    0 -0.18437095224E-03 -0.22181773863E-03 -0.88952819942E+03  0.11104717855E+04  0.66474594303E+03 0.  0.
         13    1    3    3    0    0 -0.30702621647E+03  0.12729205724E+03 -0.44786931663E+03  0.55772330973E+03  0.00000000000E+00 0.  1.
          3    1    3    3  501    0  0.30702603210E+03 -0.12729227906E+03 -0.44165888279E+03  0.55274847575E+03  0.00000000000E+00 0.  1.
         21    1    1    2  502  501  0.18437095221E-03  0.22181773863E-03  0.27472233543E-02  0.27623236443E-02  0.00000000000E+00 0.  1.
<mgrwt>
<rscale>  1 0.66474594E+03</rscale>
<asrwt>0</asrwt>
<pdfrwt beam="1">  1        1 0.40172648E+00 0.66474594E+03</pdfrwt>
<pdfrwt beam="2">0</pdfrwt>
<totfact> 0.13107051E+00</totfact>
</mgrwt>
</event>
<event>
 6    1  0.2980119E-003  0.6556692E+03  0.7818608E-02  0.9796199E-01
          1   -1    0    0  502    0  0.00000000000E+00  0.00000000000E+00  0.10751682267E+03  0.10751682267E+03  0.00000000000E+00 0.  1.
         13   -1    0    0    0    0 -0.00000000000E+00 -0.00000000000E+00 -0.10000000000E+04  0.10000000000E+04  0.00000000000E+00 0.  1.
    9000005    2    1    2  501    0 -0.14366019263E-03 -0.74564911242E-03 -0.89252446446E+03  0.11074755286E+04  0.65566922048E+03 0.  0.
         13    1    3    3    0    0  0.30519485586E+03 -0.79745639608E+02 -0.29544862568E+03  0.43219573980E+03  0.00000000000E+00 0.  1.
          1    1    3    3  501    0 -0.30519499952E+03  0.79744893959E+02 -0.59707583879E+03  0.67527978876E+03  0.00000000000E+00 0.  1.
         21    1    1    2  502  501  0.14366019263E-03  0.74564911243E-03  0.41287131669E-01  0.41294114258E-01  0.00000000000E+00 0.  1.
<mgrwt>
<rscale>  1 0.65566922E+03</rscale>
<asrwt>0</asrwt>
<pdfrwt beam="1">  1        1 0.39097109E+00 0.65566922E+03</pdfrwt>
<pdfrwt beam="2">0</pdfrwt>
<totfact> 0.14658991E+00</totfact>
</mgrwt>
</event>
<event>
 6    1  0.3013306E-003  0.6575534E+03  0.7818608E-02  0.9792708E-01
          1   -1    0    0  502    0  0.00000000000E+00  0.00000000000E+00  0.10809411678E+03  0.10809411678E+03  0.00000000000E+00 0.  1.
         13   -1    0    0    0    0 -0.00000000000E+00 -0.00000000000E+00 -0.10000000000E+04  0.10000000000E+04  0.00000000000E+00 0.  1.
    9000005    2    1    2  501    0  0.77305915909E-05  0.60136358115E-08 -0.89190588664E+03  0.11080941083E+04  0.65755337601E+03 0.  0.
         13    1    3    3    0    0  0.15353910051E+03 -0.25506502125E+03 -0.68104390271E+03  0.74327196763E+03  0.00000000000E+00 0.  1.
          3    1    3    3  501    0 -0.15353909278E+03  0.25506502125E+03 -0.21086198392E+03  0.36482214070E+03  0.00000000000E+00 0.  1.
         21    1    1    2  502  501 -0.77305916020E-05 -0.60136590614E-08  0.34156251034E-05  0.84515429081E-05  0.00000000000E+00 0.  1.
<mgrwt>
<rscale>  1 0.65755338E+03</rscale>
<asrwt>0</asrwt>
<pdfrwt beam="1">  1        1 0.39307034E+00 0.65755338E+03</pdfrwt>
<pdfrwt beam="2">0</pdfrwt>
<totfact> 0.14342744E+00</totfact>
</mgrwt>
</event>
<event>
 6    1  0.2980119E-003  0.6506264E+03  0.7818608E-02  0.9805604E-01
          1   -1    0    0  502    0  0.00000000000E+00  0.00000000000E+00  0.11283002754E+03  0.11283002754E+03  0.00000000000E+00 0.  1.
         13   -1    0    0    0    0 -0.00000000000E+00 -0.00000000000E+00 -0.10000000000E+04  0.10000000000E+04  0.00000000000E+00 0.  1.
    9000005    2    1    2  501    0  0.21680676138E+00  0.28706623513E+00 -0.89416620866E+03  0.11058245487E+04  0.65062630939E+03 0.  0.
         13    1    3    3    0    0 -0.20408049654E+03  0.25316154536E+03 -0.42872501497E+03  0.53809363086E+03  0.00000000000E+00 0.  1.
          1    1    3    3  501    0  0.20429730330E+03 -0.25287447912E+03 -0.46544119369E+03  0.56773091788E+03  0.00000000000E+00 0.  1.
         21    1    1    2  502  501 -0.21680676138E+00 -0.28706623513E+00  0.69962362008E+01  0.70054787968E+01  0.00000000000E+00 0. -1.
<mgrwt>
<rscale>  1 0.65062641E+03</rscale>
<asrwt>0</asrwt>
<pdfrwt beam="1">  1        1 0.41029187E+00 0.65062641E+03</pdfrwt>
<pdfrwt beam="2">0</pdfrwt>
<totfact> 0.12032512E+00</totfact>
</mgrwt>
</event>
<event>
 6    1  0.2980119E-003  0.6234843E+03  0.7818608E-02  0.9857847E-01
          1   -1    0    0  502    0  0.00000000000E+00  0.00000000000E+00  0.97208573184E+02  0.97208573184E+02  0.00000000000E+00 0.  1.
         13   -1    0    0    0    0 -0.00000000000E+00 -0.00000000000E+00 -0.10000000000E+04  0.10000000000E+04  0.00000000000E+00 0.  1.
    9000005    2    1    2  501    0 -0.40057203898E-03 -0.50777611989E-04 -0.90281682722E+03  0.10971831696E+04  0.62348430940E+03 0.  0.
         13    1    3    3    0    0 -0.27331763541E+03 -0.14990343354E+03 -0.45689476581E+03  0.55310613470E+03  0.00000000000E+00 0.  1.
          3    1    3    3  501    0  0.27331723484E+03  0.14990338276E+03 -0.44592206141E+03  0.54407703487E+03  0.00000000000E+00 0.  1.
         21    1    1    2  502  501  0.40057203898E-03  0.50777611991E-04  0.25400406123E-01  0.25403615245E-01  0.00000000000E+00 0.  1.
<mgrwt>
<rscale>  1 0.62348431E+03</rscale>
<asrwt>0</asrwt>
<pdfrwt beam="1">  1        1 0.35348647E+00 0.62348431E+03</pdfrwt>
<pdfrwt beam="2">0</pdfrwt>
<totfact> 0.21552139E+00</totfact>
</mgrwt>
</event>
<event>
 6    1  0.2980119E-003  0.6434012E+03  0.7818608E-02  0.9819241E-01
          1   -1    0    0  502    0  0.00000000000E+00  0.00000000000E+00  0.10349290655E+03  0.10349290655E+03  0.00000000000E+00 0.  1.
         13   -1    0    0    0    0 -0.00000000000E+00 -0.00000000000E+00 -0.10000000000E+04  0.10000000000E+04  0.00000000000E+00 0.  1.
    9000005    2    1    2  501    0 -0.20464508431E-03 -0.64200300528E-04 -0.89650872945E+03  0.11034912566E+04  0.64340115893E+03 0.  0.
         13    1    3    3    0    0  0.10723575401E+03 -0.28127525356E+03 -0.64286978501E+03  0.70985691212E+03  0.00000000000E+00 0.  1.
          1    1    3    3  501    0 -0.10723595866E+03  0.28127518936E+03 -0.25363894444E+03  0.39363434443E+03  0.00000000000E+00 0.  1.
         21    1    1    2  502  501  0.20464508431E-03  0.64200300532E-04  0.16360015745E-02  0.16500007397E-02  0.00000000000E+00 0.  1.
<mgrwt>
<rscale>  1 0.64340116E+03</rscale>
<asrwt>0</asrwt>
<pdfrwt beam="1">  1        1 0.37633864E+00 0.64340116E+03</pdfrwt>
<pdfrwt beam="2">0</pdfrwt>
<totfact> 0.17051720E+00</totfact>
</mgrwt>
</event>
<event>
 6    1  0.2980119E-003  0.6442656E+03  0.7818608E-02  0.9817599E-01
          1   -1    0    0  502    0  0.00000000000E+00  0.00000000000E+00  0.10378055883E+03  0.10378055883E+03  0.00000000000E+00 0.  1.
         13   -1    0    0    0    0 -0.00000000000E+00 -0.00000000000E+00 -0.10000000000E+04  0.10000000000E+04  0.00000000000E+00 0.  1.
    9000005    2    1    2  501    0 -0.28991058184E-03 -0.28069831330E-05 -0.89623047196E+03  0.11037695242E+04  0.64426555376E+03 0.  0.
         13    1    3    3    0    0 -0.83063779564E+02 -0.75031474187E+02 -0.96561092020E+03  0.97207703542E+03  0.00000000000E+00 0.  1.
          3    1    3    3  501    0  0.83063489653E+02  0.75031471380E+02  0.69380448239E+02  0.13169248881E+03  0.00000000000E+00 0.  1.
         21    1    1    2  502  501  0.28991058183E-03  0.28069831413E-05  0.11030784277E-01  0.11034593685E-01  0.00000000000E+00 0.  1.
<mgrwt>
<rscale>  1 0.64426555E+03</rscale>
<asrwt>0</asrwt>
<pdfrwt beam="1">  1        1 0.37738465E+00 0.64426555E+03</pdfrwt>
<pdfrwt beam="2">0</pdfrwt>
<totfact> 0.16869068E+00</totfact>
</mgrwt>
</event>
<event>
 6    1  0.2980119E-003  0.6485737E+03  0.7818608E-02  0.9809459E-01
          1   -1    0    0  502    0  0.00000000000E+00  0.00000000000E+00  0.10516210741E+03  0.10516210741E+03  0.00000000000E+00 0.  1.
         13   -1    0    0    0    0 -0.00000000000E+00 -0.00000000000E+00 -0.10000000000E+04  0.10000000000E+04  0.00000000000E+00 0.  1.
    9000005    2    1    2  501    0  0.44212532615E-03 -0.32326821682E-04 -0.89483756918E+03  0.11051615587E+04  0.64857366240E+03 0.  0.
         13    1    3    3    0    0 -0.15823977846E+03  0.12278380733E+03 -0.88200627052E+03  0.90446158131E+03  0.00000000000E+00 0.  1.
          1    1    3    3  501    0  0.15824022058E+03 -0.12278383966E+03 -0.12831298660E+02  0.20069997737E+03  0.00000000000E+00 0.  1.
         21    1    1    2  502  501 -0.44212532613E-03  0.32326821678E-04 -0.32340880083E-03  0.54873771500E-03  0.00000000000E+00 0.  1.
<mgrwt>
<rscale>  1 0.64857366E+03</rscale>
<asrwt>0</asrwt>
<pdfrwt beam="1">  1        1 0.38240847E+00 0.64857366E+03</pdfrwt>
<pdfrwt beam="2">0</pdfrwt>
<totfact> 0.16017027E+00</totfact>
</mgrwt>
</event>
<event>
 6    1  0.2980119E-003  0.6420633E+03  0.7818608E-02  0.9821787E-01
          1   -1    0    0  502    0  0.00000000000E+00  0.00000000000E+00  0.10306183845E+03  0.10306183845E+03  0.00000000000E+00 0.  1.
         13   -1    0    0    0    0 -0.00000000000E+00 -0.00000000000E+00 -0.10000000000E+04  0.10000000000E+04  0.00000000000E+00 0.  1.
    9000005    2    1    2  501    0  0.17622767986E-03 -0.37830006256E-04 -0.89693867824E+03  0.11030612912E+04  0.64206325207E+03 0.  0.
         13    1    3    3    0    0  0.36011259828E+02 -0.41076812078E+02  0.95017940943E+02  0.10960166251E+03  0.00000000000E+00 0.  1.
          3    1    3    3  501    0 -0.36011083600E+02  0.41076774248E+02 -0.99195661919E+03  0.99345962871E+03  0.00000000000E+00 0.  1.
         21    1    1    2  502  501 -0.17622767986E-03  0.37830006255E-04  0.51669385312E-03  0.54722924116E-03  0.00000000000E+00 0. -1.
<mgrwt>
<rscale>  1 0.64206325E+03</rscale>
<asrwt>0</asrwt>
<pdfrwt beam="1">  1        1 0.37477111E+00 0.64206325E+03</pdfrwt>
<pdfrwt beam="2">0</pdfrwt>
<totfact> 0.17329110E+00</totfact>
</mgrwt>
</event>
<event>
 6    1  0.2980119E-003  0.6520896E+03  0.7818608E-02  0.9802866E-01
          1   -1    0    0  502    0  0.00000000000E+00  0.00000000000E+00  0.10630528185E+03  0.10630528185E+03  0.00000000000E+00 0.  1.
         13   -1    0    0    0    0 -0.00000000000E+00 -0.00000000000E+00 -0.10000000000E+04  0.10000000000E+04  0.00000000000E+00 0.  1.
    9000005    2    1    2  501    0 -0.11884160801E-03 -0.37674652816E-04 -0.89369470375E+03  0.11063051563E+04  0.65208962226E+03 0.  0.
         13    1    3    3    0    0 -0.16268154709E+03 -0.21784721295E+03 -0.14154995281E+03  0.30652745896E+03  0.00000000000E+00 0.  1.
          1    1    3    3  501    0  0.16268142825E+03  0.21784717528E+03 -0.75214475093E+03  0.79977769738E+03  0.00000000000E+00 0.  1.
         21    1    1    2  502  501  0.11884160801E-03  0.37674652796E-04 -0.14409659558E-04  0.12550038066E-03  0.00000000000E+00 0. -1.
<mgrwt>
<rscale>  1 0.65208962E+03</rscale>
<asrwt>0</asrwt>
<pdfrwt beam="1">  1        1 0.38656548E+00 0.65208962E+03</pdfrwt>
<pdfrwt beam="2">0</pdfrwt>
<totfact> 0.15343249E+00</totfact>
</mgrwt>
</event>
<event>
 6    1  0.2980119E-003  0.6534997E+03  0.7818608E-02  0.9800234E-01
          1   -1    0    0  502    0  0.00000000000E+00  0.00000000000E+00  0.11010044762E+03  0.11010044762E+03  0.00000000000E+00 0.  1.
         13   -1    0    0    0    0 -0.00000000000E+00 -0.00000000000E+00 -0.10000000000E+04  0.10000000000E+04  0.00000000000E+00 0.  1.
    9000005    2    1    2  501    0 -0.28794641733E+00  0.87803196507E+01 -0.88470990804E+03  0.10998970494E+04  0.65344067905E+03 0.  0.
         13    1    3    3    0    0  0.98754449832E+02  0.31580617278E+03 -0.44530283548E+03  0.55477977200E+03  0.00000000000E+00 0.  1.
          1    1    3    3  501    0 -0.99042396250E+02 -0.30702585313E+03 -0.43940707255E+03  0.54511727743E+03  0.00000000000E+00 0.  1.
         21    1    1    2  502  501  0.28794641733E+00 -0.87803196507E+01 -0.51896443404E+01  0.10203398193E+02  0.00000000000E+00 0.  1.
<mgrwt>
<rscale>  1 0.65349973E+03</rscale>
<asrwt>0</asrwt>
<pdfrwt beam="1">  1        1 0.40036611E+00 0.65349973E+03</pdfrwt>
<pdfrwt beam="2">0</pdfrwt>
<totfact> 0.13319689E+00</totfact>
</mgrwt>
</event>
<event>
 6    1  0.2980119E-003  0.6499082E+03  0.7818608E-02  0.9806952E-01
          1   -1    0    0  502    0  0.00000000000E+00  0.00000000000E+00  0.11797596479E+03  0.11797596479E+03  0.00000000000E+00 0.  1.
         13   -1    0    0    0    0 -0.00000000000E+00 -0.00000000000E+00 -0.10000000000E+04  0.10000000000E+04  0.00000000000E+00 0.  1.
    9000005    2    1    2  501    0 -0.19957810199E+02  0.10899960780E+02 -0.88156118969E+03  0.10952309091E+04  0.64951019215E+03 0.  0.
         13    1    3    3    0    0 -0.23022121029E+03  0.89154786575E+02 -0.74961657770E+02  0.25801091406E+03  0.00000000000E+00 0.  1.
          3    1    3    3  501    0  0.21026340009E+03 -0.78254825795E+02 -0.80659953192E+03  0.83721999503E+03  0.00000000000E+00 0.  1.
         21    1    1    2  502  501  0.19957810199E+02 -0.10899960780E+02 -0.46284552177E+00  0.22745055703E+02  0.00000000000E+00 0.  1.
<mgrwt>
<rscale>  1 0.64990816E+03</rscale>
<asrwt>0</asrwt>
<pdfrwt beam="1">  1        1 0.42900441E+00 0.64990816E+03</pdfrwt>
<pdfrwt beam="2">0</pdfrwt>
<totfact> 0.99091640E-01</totfact>
</mgrwt>
</event>
<event>
 6    1  0.2980119E-003  0.6500696E+03  0.7818608E-02  0.9806649E-01
          1   -1    0    0  502    0  0.00000000000E+00  0.00000000000E+00  0.10564790402E+03  0.10564790402E+03  0.00000000000E+00 0.  1.
         13   -1    0    0    0    0 -0.00000000000E+00 -0.00000000000E+00 -0.10000000000E+04  0.10000000000E+04  0.00000000000E+00 0.  1.
    9000005    2    1    2  501    0  0.12787462197E-03  0.63644821790E-03 -0.89435182235E+03  0.11056471995E+04  0.65006964835E+03 0.  0.
         13    1    3    3    0    0 -0.12164245458E+03 -0.14471468150E+03  0.25224266486E+01  0.18906503757E+03  0.00000000000E+00 0.  1.
          1    1    3    3  501    0  0.12164258245E+03  0.14471531795E+03 -0.89687424900E+03  0.91658216196E+03  0.00000000000E+00 0.  1.
         21    1    1    2  502  501 -0.12787462196E-03 -0.63644821791E-03 -0.27363511174E-03  0.70448167286E-03  0.00000000000E+00 0. -1.
<mgrwt>
<rscale>  1 0.65006965E+03</rscale>
<asrwt>0</asrwt>
<pdfrwt beam="1">  1        1 0.38417501E+00 0.65006965E+03</pdfrwt>
<pdfrwt beam="2">0</pdfrwt>
<totfact> 0.15727331E+00</totfact>
</mgrwt>
</event>
<event>
 6    1  0.2980119E-003  0.6510647E+03  0.7818608E-02  0.9804783E-01
          1   -1    0    0  502    0  0.00000000000E+00  0.00000000000E+00  0.10621372884E+03  0.10621372884E+03  0.00000000000E+00 0.  1.
         13   -1    0    0    0    0 -0.00000000000E+00 -0.00000000000E+00 -0.10000000000E+04  0.10000000000E+04  0.00000000000E+00 0.  1.
    9000005    2    1    2  501    0 -0.36607111205E-02 -0.13558498207E-01 -0.89402847194E+03  0.11059711212E+04  0.65106467586E+03 0.  0.
         13    1    3    3    0    0 -0.56628784492E+02  0.26494299504E+02 -0.98970477630E+03  0.99167752388E+03  0.00000000000E+00 0.  1.
          3    1    3    3  501    0  0.56625123781E+02 -0.26507858002E+02  0.95676304358E+02  0.11429359735E+03  0.00000000000E+00 0.  1.
         21    1    1    2  502  501  0.36607111205E-02  0.13558498207E-01  0.24220077999E+00  0.24260760810E+00  0.00000000000E+00 0.  1.
<mgrwt>
<rscale>  1 0.65106468E+03</rscale>
<asrwt>0</asrwt>
<pdfrwt beam="1">  1        1 0.38623256E+00 0.65106468E+03</pdfrwt>
<pdfrwt beam="2">0</pdfrwt>
<totfact> 0.15398317E+00</totfact>
</mgrwt>
</event>
<event>
 6    1  0.2980119E-003  0.6471282E+03  0.7818608E-02  0.9812183E-01
          1   -1    0    0  502    0  0.00000000000E+00  0.00000000000E+00  0.10474416416E+03  0.10474416416E+03  0.00000000000E+00 0.  1.
         13   -1    0    0    0    0 -0.00000000000E+00 -0.00000000000E+00 -0.10000000000E+04  0.10000000000E+04  0.00000000000E+00 0.  1.
    9000005    2    1    2  501    0  0.37565159452E-02 -0.37644654760E-02 -0.89530612160E+03  0.11046935980E+04  0.64712818975E+03 0.  0.
         13    1    3    3    0    0 -0.19522150605E+03  0.46919752152E+01 -0.72420208234E+01  0.19541212327E+03  0.00000000000E+00 0.  1.
          3    1    3    3  501    0  0.19522526257E+03 -0.46957396807E+01 -0.88806410078E+03  0.90928147469E+03  0.00000000000E+00 0.  1.
         21    1    1    2  502  501 -0.37565159452E-02  0.37644654760E-02  0.50285765235E-01  0.50566202128E-01  0.00000000000E+00 0. -1.
<mgrwt>
<rscale>  1 0.64712819E+03</rscale>
<asrwt>0</asrwt>
<pdfrwt beam="1">  1        1 0.38088867E+00 0.64712819E+03</pdfrwt>
<pdfrwt beam="2">0</pdfrwt>
<totfact> 0.16270788E+00</totfact>
</mgrwt>
</event>
<event>
 6    1  0.2980119E-003  0.6334049E+03  0.7818608E-02  0.9838427E-01
          1   -1    0    0  502    0  0.00000000000E+00  0.00000000000E+00  0.10031705996E+03  0.10031705996E+03  0.00000000000E+00 0.  1.
         13   -1    0    0    0    0 -0.00000000000E+00 -0.00000000000E+00 -0.10000000000E+04  0.10000000000E+04  0.00000000000E+00 0.  1.
    9000005    2    1    2  501    0  0.47070366108E-02  0.11413913623E-01 -0.89969700274E+03  0.11002983465E+04  0.63340488983E+03 0.  0.
         13    1    3    3    0    0  0.29177658357E+03  0.88252417057E+02 -0.30061582740E+03  0.42812607900E+03  0.00000000000E+00 0.  1.
          1    1    3    3  501    0 -0.29177187653E+03 -0.88241003144E+02 -0.59908117533E+03  0.67217226751E+03  0.00000000000E+00 0.  1.
         21    1    1    2  502  501 -0.47070366108E-02 -0.11413913623E-01  0.14062699606E-01  0.18713448053E-01  0.00000000000E+00 0. -1.
<mgrwt>
<rscale>  1 0.63340489E+03</rscale>
<asrwt>0</asrwt>
<pdfrwt beam="1">  1        1 0.36479008E+00 0.63340489E+03</pdfrwt>
<pdfrwt beam="2">0</pdfrwt>
<totfact> 0.19199624E+00</totfact>
</mgrwt>
</event>
<event>
 6    1  0.2980119E-003  0.6203171E+03  0.7818608E-02  0.9864129E-01
          1   -1    0    0  502    0  0.00000000000E+00  0.00000000000E+00  0.96201442277E+02  0.96201442277E+02  0.00000000000E+00 0.  1.
         13   -1    0    0    0    0 -0.00000000000E+00 -0.00000000000E+00 -0.10000000000E+04  0.10000000000E+04  0.00000000000E+00 0.  1.
    9000005    2    1    2  501    0  0.16374835479E-02 -0.12661239908E-02 -0.90380129881E+03  0.10961980075E+04  0.62031708330E+03 0.  0.
         13    1    3    3    0    0 -0.10304980004E+03 -0.24775273822E+03 -0.17700837251E+03  0.32145395397E+03  0.00000000000E+00 0.  1.
          3    1    3    3  501    0  0.10305143752E+03  0.24775147210E+03 -0.72679292629E+03  0.77474405349E+03  0.00000000000E+00 0.  1.
         21    1    1    2  502  501 -0.16374835479E-02  0.12661239908E-02  0.27410831672E-02  0.34348157534E-02  0.00000000000E+00 0. -1.
<mgrwt>
<rscale>  1 0.62031708E+03</rscale>
<asrwt>0</asrwt>
<pdfrwt beam="1">  1        1 0.34982416E+00 0.62031708E+03</pdfrwt>
<pdfrwt beam="2">0</pdfrwt>
<totfact> 0.22371957E+00</totfact>
</mgrwt>
</event>
<event>
 6    1  0.2980119E-003  0.6406721E+03  0.7818608E-02  0.9824441E-01
          3   -1    0    0  502    0  0.00000000000E+00  0.00000000000E+00  0.10262637771E+03  0.10262637771E+03  0.00000000000E+00 0.  1.
         13   -1    0    0    0    0 -0.00000000000E+00 -0.00000000000E+00 -0.10000000000E+04  0.10000000000E+04  0.00000000000E+00 0.  1.
    9000005    2    1    2  501    0  0.25070764704E-02 -0.42451060039E-02 -0.89738421726E+03  0.11026146918E+04  0.64067208869E+03 0.  0.
         13    1    3    3    0    0 -0.11467802282E+03 -0.29905319671E+03 -0.45847537889E+03  0.55927053957E+03  0.00000000000E+00 0.  1.
          1    1    3    3  501    0  0.11468052990E+03  0.29904895160E+03 -0.43890883838E+03  0.54334415226E+03  0.00000000000E+00 0.  1.
         21    1    1    2  502  501 -0.25070764704E-02  0.42451060038E-02  0.10594975469E-01  0.11685883047E-01  0.00000000000E+00 0.  1.
<mgrwt>
<rscale>  1 0.64067209E+03</rscale>
<asrwt>0</asrwt>
<pdfrwt beam="1">  1        3 0.37318761E+00 0.64067209E+03</pdfrwt>
<pdfrwt beam="2">0</pdfrwt>
<totfact> 0.82132642E-02</totfact>
</mgrwt>
</event>
<event>
 6    1  0.2980119E-003  0.6473455E+03  0.7818608E-02  0.9811773E-01
          1   -1    0    0  502    0  0.00000000000E+00  0.00000000000E+00  0.10855274598E+03  0.10855274598E+03  0.00000000000E+00 0.  1.
         13   -1    0    0    0    0 -0.00000000000E+00 -0.00000000000E+00 -0.10000000000E+04  0.10000000000E+04  0.00000000000E+00 0.  1.
    9000005    2    1    2  501    0  0.41005517922E+00  0.98676209633E-01 -0.89522296458E+03  0.11047535523E+04  0.64734540793E+03 0.  0.
         13    1    3    3    0    0 -0.17405674335E+03  0.90170311749E+02 -0.81341779356E+01  0.19619531054E+03  0.00000000000E+00 0.  1.
          1    1    3    3  501    0  0.17446679853E+03 -0.90071635539E+02 -0.88708878664E+03  0.90855824178E+03  0.00000000000E+00 0.  1.
         21    1    1    2  502  501 -0.41005517922E+00 -0.98676209633E-01  0.37757105550E+01  0.37991936565E+01  0.00000000000E+00 0.  1.
<mgrwt>
<rscale>  1 0.64734555E+03</rscale>
<asrwt>0</asrwt>
<pdfrwt beam="1">  1        1 0.39473809E+00 0.64734555E+03</pdfrwt>
<pdfrwt beam="2">0</pdfrwt>
<totfact> 0.14127099E+00</totfact>
</mgrwt>
</event>
<event>
 6    1  0.2980119E-003  0.6571934E+03  0.7818608E-02  0.9793374E-01
          3   -1    0    0  502    0  0.00000000000E+00  0.00000000000E+00  0.10798179888E+03  0.10798179888E+03  0.00000000000E+00 0.  1.
         13   -1    0    0    0    0 -0.00000000000E+00 -0.00000000000E+00 -0.10000000000E+04  0.10000000000E+04  0.00000000000E+00 0.  1.
    9000005    2    1    2  501    0  0.18494995815E-03  0.30573769266E-04 -0.89202421037E+03  0.11079757867E+04  0.65719339013E+03 0.  0.
         13    1    3    3    0    0 -0.70851575456E+02  0.29048900473E+03 -0.21625647734E+03  0.36901310492E+03  0.00000000000E+00 0.  1.
          1    1    3    3  501    0  0.70851760406E+02 -0.29048897415E+03 -0.67576773303E+03  0.73896268178E+03  0.00000000000E+00 0.  1.
         21    1    1    2  502  501 -0.18494995816E-03 -0.30573769272E-04  0.60092530503E-02  0.60121762669E-02  0.00000000000E+00 0.  1.
<mgrwt>
<rscale>  1 0.65719339E+03</rscale>
<asrwt>0</asrwt>
<pdfrwt beam="1">  1        3 0.39266191E+00 0.65719339E+03</pdfrwt>
<pdfrwt beam="2">0</pdfrwt>
<totfact> 0.64652583E-02</totfact>
</mgrwt>
</event>
<event>
 6    1  0.2980119E-003  0.6524825E+03  0.7818608E-02  0.9802132E-01
          1   -1    0    0  502    0  0.00000000000E+00  0.00000000000E+00  0.10981994367E+03  0.10981994367E+03  0.00000000000E+00 0.  1.
         13   -1    0    0    0    0 -0.00000000000E+00 -0.00000000000E+00 -0.10000000000E+04  0.10000000000E+04  0.00000000000E+00 0.  1.
    9000005    2    1    2  501    0 -0.79867327901E+01  0.59287848854E+00 -0.88714885426E+03  0.11012567905E+04  0.65243336035E+03 0.  0.
         13    1    3    3    0    0  0.29000306357E+03 -0.66058735681E+00 -0.20001710986E+03  0.35229115443E+03  0.00000000000E+00 0.  1.
          3    1    3    3  501    0 -0.29798979636E+03  0.12534658454E+01 -0.68713174440E+03  0.74896563611E+03  0.00000000000E+00 0.  1.
         21    1    1    2  502  501  0.79867327901E+01 -0.59287848854E+00 -0.30312020642E+01  0.85631531293E+01  0.00000000000E+00 0.  1.
<mgrwt>
<rscale>  1 0.65248251E+03</rscale>
<asrwt>0</asrwt>
<pdfrwt beam="1">  1        1 0.39934609E+00 0.65248251E+03</pdfrwt>
<pdfrwt beam="2">0</pdfrwt>
<totfact> 0.13462459E+00</totfact>
</mgrwt>
</event>
<event>
 6    1  0.2980119E-003  0.6361861E+03  0.7818608E-02  0.9833051E-01
          1   -1    0    0  502    0  0.00000000000E+00  0.00000000000E+00  0.10122535794E+03  0.10122535794E+03  0.00000000000E+00 0.  1.
         13   -1    0    0    0    0 -0.00000000000E+00 -0.00000000000E+00 -0.10000000000E+04  0.10000000000E+04  0.00000000000E+00 0.  1.
    9000005    2    1    2  501    0  0.13231459465E+00  0.52926333891E-02 -0.89859583556E+03  0.11010028564E+04  0.63618613361E+03 0.  0.
         13    1    3    3    0    0 -0.27562837879E+03  0.10263190732E+02 -0.72323894687E+03  0.77404839031E+03  0.00000000000E+00 0.  1.
          3    1    3    3  501    0  0.27576069338E+03 -0.10257898099E+02 -0.17535688869E+03  0.32695446610E+03  0.00000000000E+00 0.  1.
         21    1    1    2  502  501 -0.13231459465E+00 -0.52926333891E-02 -0.17880649945E+00  0.22250152398E+00  0.00000000000E+00 0. -1.
<mgrwt>
<rscale>  1 0.63618615E+03</rscale>
<asrwt>0</asrwt>
<pdfrwt beam="1">  1        1 0.36809299E+00 0.63618615E+03</pdfrwt>
<pdfrwt beam="2">0</pdfrwt>
<totfact> 0.18560515E+00</totfact>
</mgrwt>
</event>
<event>
 6    1  0.2980119E-003  0.6523731E+03  0.7818608E-02  0.9802336E-01
          1   -1    0    0  502    0  0.00000000000E+00  0.00000000000E+00  0.11007651417E+03  0.11007651417E+03  0.00000000000E+00 0.  1.
         13   -1    0    0    0    0 -0.00000000000E+00 -0.00000000000E+00 -0.10000000000E+04  0.10000000000E+04  0.00000000000E+00 0.  1.
    9000005    2    1    2  501    0 -0.86263460021E+00 -0.20528667224E+00 -0.89354312455E+03  0.11063498447E+04  0.65237249872E+03 0.  0.
         13    1    3    3    0    0 -0.10899358012E+03 -0.10579000689E+03  0.42864979347E+02  0.15782437239E+03  0.00000000000E+00 0.  1.
          1    1    3    3  501    0  0.10813094552E+03  0.10558472021E+03 -0.93640810390E+03  0.94852547228E+03  0.00000000000E+00 0.  1.
         21    1    1    2  502  501  0.86263460021E+00  0.20528667224E+00  0.36196387246E+01  0.37266695007E+01  0.00000000000E+00 0. -1.
<mgrwt>
<rscale>  1 0.65237310E+03</rscale>
<asrwt>0</asrwt>
<pdfrwt beam="1">  1        1 0.40027908E+00 0.65237310E+03</pdfrwt>
<pdfrwt beam="2">0</pdfrwt>
<totfact> 0.13334444E+00</totfact>
</mgrwt>
</event>
<event>
 6    1  0.2980119E-003  0.6476641E+03  0.7818608E-02  0.9811172E-01
          1   -1    0    0  502    0  0.00000000000E+00  0.00000000000E+00  0.10763732622E+03  0.10763732622E+03  0.00000000000E+00 0.  1.
         13   -1    0    0    0    0 -0.00000000000E+00 -0.00000000000E+00 -0.10000000000E+04  0.10000000000E+04  0.00000000000E+00 0.  1.
    9000005    2    1    2  501    0 -0.11940908487E+01 -0.28074894111E+01 -0.89417304414E+03  0.11040897509E+04  0.64765688241E+03 0.  0.
         13    1    3    3    0    0  0.10532432437E+02  0.64196688878E+02 -0.98692569007E+03  0.98906747227E+03  0.00000000000E+00 0.  1.
          1    1    3    3  501    0 -0.11726523286E+02 -0.67004178289E+02  0.92752645922E+02  0.11502227863E+03  0.00000000000E+00 0.  1.
         21    1    1    2  502  501  0.11940908487E+01  0.28074894111E+01  0.18103703630E+01  0.35475753128E+01  0.00000000000E+00 0. -1.
<mgrwt>
<rscale>  1 0.64766407E+03</rscale>
<asrwt>0</asrwt>
<pdfrwt beam="1">  1        1 0.39140928E+00 0.64766407E+03</pdfrwt>
<pdfrwt beam="2">0</pdfrwt>
<totfact> 0.14615331E+00</totfact>
</mgrwt>
</event>
<event>
 6    1  0.2980119E-003  0.6559599E+03  0.7818608E-02  0.9795660E-01
          1   -1    0    0  502    0  0.00000000000E+00  0.00000000000E+00  0.10757087039E+03  0.10757087039E+03  0.00000000000E+00 0.  1.
         13   -1    0    0    0    0 -0.00000000000E+00 -0.00000000000E+00 -0.10000000000E+04  0.10000000000E+04  0.00000000000E+00 0.  1.
    9000005    2    1    2  501    0  0.96185994707E-05  0.55087619728E-05 -0.89242913986E+03  0.11075708553E+04  0.65595993006E+03 0.  0.
         13    1    3    3    0    0 -0.59436471976E+02 -0.22159290814E+03 -0.84196168607E+03  0.87266006667E+03  0.00000000000E+00 0.  1.
          1    1    3    3  501    0  0.59436481595E+02  0.22159291365E+03 -0.50467453782E+02  0.23491078863E+03  0.00000000000E+00 0.  1.
         21    1    1    2  502  501 -0.96185994705E-05 -0.55087619706E-05  0.10245397892E-04  0.15094107863E-04  0.00000000000E+00 0.  1.
<mgrwt>
<rscale>  1 0.65595993E+03</rscale>
<asrwt>0</asrwt>
<pdfrwt beam="1">  1        1 0.39116763E+00 0.65595993E+03</pdfrwt>
<pdfrwt beam="2">0</pdfrwt>
<totfact> 0.14628794E+00</totfact>
</mgrwt>
</event>
<event>
 6    1  0.2980119E-003  0.6493624E+03  0.7818608E-02  0.9807976E-01
          1   -1    0    0  502    0  0.00000000000E+00  0.00000000000E+00  0.11660817000E+03  0.11660817000E+03  0.00000000000E+00 0.  1.
         13   -1    0    0    0    0 -0.00000000000E+00 -0.00000000000E+00 -0.10000000000E+04  0.10000000000E+04  0.00000000000E+00 0.  1.
    9000005    2    1    2  501    0 -0.63304240638E+00 -0.17227937745E+01 -0.89449886983E+03  0.11053505017E+04  0.64935978839E+03 0.  0.
         13    1    3    3    0    0  0.12737779176E+02  0.27658718091E+03 -0.16001658441E+03  0.31979372563E+03  0.00000000000E+00 0.  1.
          3    1    3    3  501    0 -0.13370821583E+02 -0.27830997469E+03 -0.73448228542E+03  0.78555677610E+03  0.00000000000E+00 0.  1.
         21    1    1    2  502  501  0.63304240638E+00  0.17227937745E+01  0.11107039829E+02  0.11257668268E+02  0.00000000000E+00 0. -1.
<mgrwt>
<rscale>  1 0.64936238E+03</rscale>
<asrwt>0</asrwt>
<pdfrwt beam="1">  1        1 0.42403060E+00 0.64936238E+03</pdfrwt>
<pdfrwt beam="2">0</pdfrwt>
<totfact> 0.10437830E+00</totfact>
</mgrwt>
</event>
<event>
 6    1  0.2980119E-003  0.6424204E+03  0.7818608E-02  0.9821107E-01
          1   -1    0    0  502    0  0.00000000000E+00  0.00000000000E+00  0.10318526791E+03  0.10318526791E+03  0.00000000000E+00 0.  1.
         13   -1    0    0    0    0 -0.00000000000E+00 -0.00000000000E+00 -0.10000000000E+04  0.10000000000E+04  0.00000000000E+00 0.  1.
    9000005    2    1    2  501    0  0.14798005293E-01  0.15190312614E-01 -0.89680805928E+03  0.11031630361E+04  0.64242041421E+03 0.  0.
         13    1    3    3    0    0  0.45926475489E+02  0.29660957597E+03 -0.64491783047E+03  0.71134062850E+03  0.00000000000E+00 0.  1.
          3    1    3    3  501    0 -0.45911677484E+02 -0.29659438565E+03 -0.25189022882E+03  0.39182240761E+03  0.00000000000E+00 0.  1.
         21    1    1    2  502  501 -0.14798005293E-01 -0.15190312614E-01 -0.66728077352E-02  0.22231799770E-01  0.00000000000E+00 0.  1.
<mgrwt>
<rscale>  1 0.64242041E+03</rscale>
<asrwt>0</asrwt>
<pdfrwt beam="1">  1        1 0.37521995E+00 0.64242041E+03</pdfrwt>
<pdfrwt beam="2">0</pdfrwt>
<totfact> 0.17249328E+00</totfact>
</mgrwt>
</event>
<event>
 6    1  0.2980119E-003  0.6599794E+03  0.7818608E-02  0.9788232E-01
          1   -1    0    0  502    0  0.00000000000E+00  0.00000000000E+00  0.10889906783E+03  0.10889906783E+03  0.00000000000E+00 0.  1.
         13   -1    0    0    0    0 -0.00000000000E+00 -0.00000000000E+00 -0.10000000000E+04  0.10000000000E+04  0.00000000000E+00 0.  1.
    9000005    2    1    2  501    0  0.52403427749E-02 -0.12337696255E-01 -0.89109649682E+03  0.11088849486E+04  0.65997944093E+03 0.  0.
         13    1    3    3    0    0  0.98193589045E+02 -0.26374499098E+03 -0.73508183379E+03  0.78711416171E+03  0.00000000000E+00 0.  1.
          1    1    3    3  501    0 -0.98188348702E+02  0.26373265328E+03 -0.15601466303E+03  0.32177078691E+03  0.00000000000E+00 0.  1.
         21    1    1    2  502  501 -0.52403427749E-02  0.12337696255E-01 -0.44353420288E-02  0.14119213866E-01  0.00000000000E+00 0. -1.
<mgrwt>
<rscale>  1 0.65997944E+03</rscale>
<asrwt>0</asrwt>
<pdfrwt beam="1">  1        1 0.39599745E+00 0.65997944E+03</pdfrwt>
<pdfrwt beam="2">0</pdfrwt>
<totfact> 0.13913075E+00</totfact>
</mgrwt>
</event>
<event>
 6    1  0.2980119E-003  0.6499067E+03  0.7818608E-02  0.9806954E-01
          1   -1    0    0  502    0  0.00000000000E+00  0.00000000000E+00  0.10700540233E+03  0.10700540233E+03  0.00000000000E+00 0.  1.
         13   -1    0    0    0    0 -0.00000000000E+00 -0.00000000000E+00 -0.10000000000E+04  0.10000000000E+04  0.00000000000E+00 0.  1.
    9000005    2    1    2  501    0  0.37248915816E-01  0.11712280735E-01 -0.89440503191E+03  0.11055944277E+04  0.64990666710E+03 0.  0.
         13    1    3    3    0    0  0.16270968707E+03  0.27072027679E+03 -0.31721980556E+03  0.44765200276E+03  0.00000000000E+00 0.  1.
          1    1    3    3  501    0 -0.16267243815E+03 -0.27070856451E+03 -0.57718522635E+03  0.65794242495E+03  0.00000000000E+00 0.  1.
         21    1    1    2  502  501 -0.37248915816E-01 -0.11712280735E-01  0.14104342364E+01  0.14109746257E+01  0.00000000000E+00 0. -1.
<mgrwt>
<rscale>  1 0.64990667E+03</rscale>
<asrwt>0</asrwt>
<pdfrwt beam="1">  1        1 0.38911137E+00 0.64990667E+03</pdfrwt>
<pdfrwt beam="2">0</pdfrwt>
<totfact> 0.14956032E+00</totfact>
</mgrwt>
</event>
<event>
 6    1  0.2980119E-003  0.7328114E+03  0.7818608E-02  0.9662709E-01
          1   -1    0    0  502    0  0.00000000000E+00  0.00000000000E+00  0.15226924857E+03  0.15226924857E+03  0.00000000000E+00 0.  1.
         13   -1    0    0    0    0 -0.00000000000E+00 -0.00000000000E+00 -0.10000000000E+04  0.10000000000E+04  0.00000000000E+00 0.  1.
    9000005    2    1    2  501    0  0.10716963203E+01 -0.13119636127E+01 -0.86570166832E+03  0.11342186631E+04  0.73280947555E+03 0.  0.
         13    1    3    3    0    0 -0.25113732557E+03 -0.13262595381E+02 -0.84414261327E+03  0.88080792700E+03  0.00000000000E+00 0.  1.
          3    1    3    3  501    0  0.25220902189E+03  0.11950631768E+02 -0.21559055043E+02  0.25341073611E+03  0.00000000000E+00 0.  1.
         21    1    1    2  502  501 -0.10716963203E+01  0.13119636127E+01  0.17970916885E+02  0.18050585453E+02  0.00000000000E+00 0.  1.
<mgrwt>
<rscale>  1 0.73281143E+03</rscale>
<asrwt>0</asrwt>
<pdfrwt beam="1">  1        1 0.55370753E+00 0.73281143E+03</pdfrwt>
<pdfrwt beam="2">0</pdfrwt>
<totfact> 0.24588585E-01</totfact>
</mgrwt>
</event>
<event>
 6    1  0.2980119E-003  0.6090850E+03  0.7818608E-02  0.9886735E-01
          1   -1    0    0  502    0  0.00000000000E+00  0.00000000000E+00  0.92753529583E+02  0.92753529583E+02  0.00000000000E+00 0.  1.
         13   -1    0    0    0    0 -0.00000000000E+00 -0.00000000000E+00 -0.10000000000E+04  0.10000000000E+04  0.00000000000E+00 0.  1.
    9000005    2    1    2  501    0  0.12560357367E-03  0.47259597304E-03 -0.90725384979E+03  0.10927461340E+04  0.60908502320E+03 0.  0.
         13    1    3    3    0    0  0.40266481342E+02  0.18719612620E+03 -0.28758325360E+02  0.19362546439E+03  0.00000000000E+00 0.  1.
          3    1    3    3  501    0 -0.40266355739E+02 -0.18719565360E+03 -0.87849552443E+03  0.89912066964E+03  0.00000000000E+00 0.  1.
         21    1    1    2  502  501 -0.12560357367E-03 -0.47259597303E-03  0.73793690170E-02  0.73955534141E-02  0.00000000000E+00 0.  1.
<mgrwt>
<rscale>  1 0.60908502E+03</rscale>
<asrwt>0</asrwt>
<pdfrwt beam="1">  1        1 0.33728627E+00 0.60908502E+03</pdfrwt>
<pdfrwt beam="2">0</pdfrwt>
<totfact> 0.25414927E+00</totfact>
</mgrwt>
</event>
<event>
 6    1  0.2980119E-003  0.6376411E+03  0.7818608E-02  0.9830250E-01
          1   -1    0    0  502    0  0.00000000000E+00  0.00000000000E+00  0.10238364849E+03  0.10238364849E+03  0.00000000000E+00 0.  1.
         13   -1    0    0    0    0 -0.00000000000E+00 -0.00000000000E+00 -0.10000000000E+04  0.10000000000E+04  0.00000000000E+00 0.  1.
    9000005    2    1    2  501    0  0.20907708624E+00  0.35468651294E+00 -0.89828962443E+03  0.11015944640E+04  0.63764092106E+03 0.  0.
         13    1    3    3    0    0 -0.31439233888E+03 -0.49897061123E+02 -0.42271591425E+03  0.52917010839E+03  0.00000000000E+00 0.  1.
          3    1    3    3  501    0  0.31460141596E+03  0.50251747636E+02 -0.47557371018E+03  0.57242435560E+03  0.00000000000E+00 0.  1.
         21    1    1    2  502  501 -0.20907708624E+00 -0.35468651294E+00  0.67327292079E+00  0.78918450081E+00  0.00000000000E+00 0. -1.
<mgrwt>
<rscale>  1 0.63764105E+03</rscale>
<asrwt>0</asrwt>
<pdfrwt beam="1">  1        1 0.37230496E+00 0.63764105E+03</pdfrwt>
<pdfrwt beam="2">0</pdfrwt>
<totfact> 0.17781791E+00</totfact>
</mgrwt>
</event>
<event>
 6    1  0.3721202E-003  0.6540397E+03  0.7818608E-02  0.9799228E-01
          1   -1    0    0  502    0  0.00000000000E+00  0.00000000000E+00  0.10694199894E+03  0.10694199894E+03  0.00000000000E+00 0.  1.
         13   -1    0    0    0    0 -0.00000000000E+00 -0.00000000000E+00 -0.10000000000E+04  0.10000000000E+04  0.00000000000E+00 0.  1.
    9000005    2    1    2  501    0  0.16386510140E-05 -0.18582273924E-05 -0.89305800121E+03  0.11069419965E+04  0.65403974650E+03 0.  0.
         13    1    3    3    0    0  0.75748319856E+02 -0.26970963941E+03 -0.16100340899E+03  0.32311483292E+03  0.00000000000E+00 0.  1.
          3    1    3    3  501    0 -0.75748318218E+02  0.26970963755E+03 -0.73205459222E+03  0.78382716353E+03  0.00000000000E+00 0.  1.
         21    1    1    2  502  501 -0.16386510253E-05  0.18582274082E-05  0.14225221554E-06  0.24816168069E-05  0.00000000000E+00 0. -1.
<mgrwt>
<rscale>  1 0.65403975E+03</rscale>
<asrwt>0</asrwt>
<pdfrwt beam="1">  1        1 0.38888082E+00 0.65403975E+03</pdfrwt>
<pdfrwt beam="2">0</pdfrwt>
<totfact> 0.14979759E+00</totfact>
</mgrwt>
</event>
<event>
 6    1  0.2980119E-003  0.6186452E+03  0.7818608E-02  0.9867461E-01
          1   -1    0    0  502    0  0.00000000000E+00  0.00000000000E+00  0.95681024784E+02  0.95681024784E+02  0.00000000000E+00 0.  1.
         13   -1    0    0    0    0 -0.00000000000E+00 -0.00000000000E+00 -0.10000000000E+04  0.10000000000E+04  0.00000000000E+00 0.  1.
    9000005    2    1    2  501    0 -0.16439419156E-04  0.91580988013E-04 -0.90431953120E+03  0.10956804611E+04  0.61864517960E+03 0.  0.
         13    1    3    3    0    0  0.56642037336E+02 -0.66947252960E+02 -0.97752269922E+03  0.98144835960E+03  0.00000000000E+00 0.  1.
          3    1    3    3  501    0 -0.56642053776E+02  0.66947344541E+02  0.73203168018E+02  0.11423210146E+03  0.00000000000E+00 0.  1.
         21    1    1    2  502  501  0.16439419155E-04 -0.91580988004E-04  0.55598664456E-03  0.56371844106E-03  0.00000000000E+00 0. -1.
<mgrwt>
<rscale>  1 0.61864518E+03</rscale>
<asrwt>0</asrwt>
<pdfrwt beam="1">  1        1 0.34793173E+00 0.61864518E+03</pdfrwt>
<pdfrwt beam="2">0</pdfrwt>
<totfact> 0.22807437E+00</totfact>
</mgrwt>
</event>
<event>
 6    1  0.2980119E-003  0.6551249E+03  0.7818608E-02  0.9797210E-01
          1   -1    0    0  502    0  0.00000000000E+00  0.00000000000E+00  0.13488618500E+03  0.13488618500E+03  0.00000000000E+00 0.  1.
         13   -1    0    0    0    0 -0.00000000000E+00 -0.00000000000E+00 -0.10000000000E+04  0.10000000000E+04  0.00000000000E+00 0.  1.
    9000005    2    1    2  501    0  0.19571249025E+01 -0.36968834235E+00 -0.89266303619E+03  0.11072650591E+04  0.65512185733E+03 0.  0.
         13    1    3    3    0    0  0.15541727178E+03  0.11712642792E+03 -0.89303048884E+03  0.91398937766E+03  0.00000000000E+00 0.  1.
          1    1    3    3  501    0 -0.15346014688E+03 -0.11749611626E+03  0.36745265281E+00  0.19327568145E+03  0.00000000000E+00 0.  1.
         21    1    1    2  502  501 -0.19571249025E+01  0.36968834235E+00  0.27549221186E+02  0.27621125887E+02  0.00000000000E+00 0. -1.
<mgrwt>
<rscale>  1 0.65512489E+03</rscale>
<asrwt>0</asrwt>
<pdfrwt beam="1">  1        1 0.49049625E+00 0.65512489E+03</pdfrwt>
<pdfrwt beam="2">0</pdfrwt>
<totfact> 0.51284584E-01</totfact>
</mgrwt>
</event>
<event>
 6    1  0.2980119E-003  0.6546160E+03  0.7818608E-02  0.9798156E-01
          1   -1    0    0  502    0  0.00000000000E+00  0.00000000000E+00  0.10724924602E+03  0.10724924602E+03  0.00000000000E+00 0.  1.
         13   -1    0    0    0    0 -0.00000000000E+00 -0.00000000000E+00 -0.10000000000E+04  0.10000000000E+04  0.00000000000E+00 0.  1.
    9000005    2    1    2  501    0 -0.30222695222E+00  0.41059880879E-01 -0.89258794537E+03  0.11069035096E+04  0.65461595326E+03 0.  0.
         13    1    3    3    0    0  0.22613331035E+03 -0.15106617679E+03 -0.75376849851E+03  0.80132653342E+03  0.00000000000E+00 0.  1.
          1    1    3    3  501    0 -0.22643553730E+03  0.15110723668E+03 -0.13881944686E+03  0.30557697615E+03  0.00000000000E+00 0.  1.
         21    1    1    2  502  501  0.30222695222E+00 -0.41059880879E-01 -0.16280861373E+00  0.34573644467E+00  0.00000000000E+00 0.  1.
<mgrwt>
<rscale>  1 0.65461602E+03</rscale>
<asrwt>0</asrwt>
<pdfrwt beam="1">  1        1 0.38999808E+00 0.65461602E+03</pdfrwt>
<pdfrwt beam="2">0</pdfrwt>
<totfact> 0.14808296E+00</totfact>
</mgrwt>
</event>
<event>
 6    1  0.2980119E-003  0.6467143E+03  0.7818608E-02  0.9812964E-01
          1   -1    0    0  502    0  0.00000000000E+00  0.00000000000E+00  0.10455984682E+03  0.10455984682E+03  0.00000000000E+00 0.  1.
         13   -1    0    0    0    0 -0.00000000000E+00 -0.00000000000E+00 -0.10000000000E+04  0.10000000000E+04  0.00000000000E+00 0.  1.
    9000005    2    1    2  501    0 -0.27526583040E-05 -0.61086822143E-05 -0.89544015101E+03  0.11045598398E+04  0.64671429210E+03 0.  0.
         13    1    3    3    0    0  0.21340231704E+03 -0.19120100617E+03 -0.19174605874E+03  0.34476792878E+03  0.00000000000E+00 0.  1.
          3    1    3    3  501    0 -0.21340231979E+03  0.19120100006E+03 -0.70369409227E+03  0.75979191100E+03  0.00000000000E+00 0.  1.
         21    1    1    2  502  501  0.27526583285E-05  0.61086822370E-05 -0.21652879600E-05  0.70414202044E-05  0.00000000000E+00 0.  1.
<mgrwt>
<rscale>  1 0.64671429E+03</rscale>
<asrwt>0</asrwt>
<pdfrwt beam="1">  1        1 0.38021843E+00 0.64671429E+03</pdfrwt>
<pdfrwt beam="2">0</pdfrwt>
<totfact> 0.16383238E+00</totfact>
</mgrwt>
</event>
<event>
 6    1  0.2980119E-003  0.6612874E+03  0.7818608E-02  0.9785827E-01
          1   -1    0    0  502    0  0.00000000000E+00  0.00000000000E+00  0.10932563761E+03  0.10932563761E+03  0.00000000000E+00 0.  1.
         13   -1    0    0    0    0 -0.00000000000E+00 -0.00000000000E+00 -0.10000000000E+04  0.10000000000E+04  0.00000000000E+00 0.  1.
    9000005    2    1    2  501    0 -0.59001872145E-04 -0.33928250218E-05 -0.89067473902E+03  0.11093252564E+04  0.66128740629E+03 0.  0.
         13    1    3    3    0    0 -0.11866550719E+03  0.28770905724E+03 -0.25803031566E+03  0.40427422378E+03  0.00000000000E+00 0.  1.
          1    1    3    3  501    0  0.11866544819E+03 -0.28770906063E+03 -0.63264442335E+03  0.70505103259E+03  0.00000000000E+00 0.  1.
         21    1    1    2  502  501  0.59001872154E-04  0.33928250380E-05  0.37662192324E-03  0.38123064573E-03  0.00000000000E+00 0. -1.
<mgrwt>
<rscale>  1 0.66128741E+03</rscale>
<asrwt>0</asrwt>
<pdfrwt beam="1">  1        1 0.39754861E+00 0.66128741E+03</pdfrwt>
<pdfrwt beam="2">0</pdfrwt>
<totfact> 0.13690289E+00</totfact>
</mgrwt>
</event>
<event>
 6    1  0.2980119E-003  0.6577277E+03  0.7818608E-02  0.9792386E-01
          3   -1    0    0  502    0  0.00000000000E+00  0.00000000000E+00  0.10868400181E+03  0.10868400181E+03  0.00000000000E+00 0.  1.
         13   -1    0    0    0    0 -0.00000000000E+00 -0.00000000000E+00 -0.10000000000E+04  0.10000000000E+04  0.00000000000E+00 0.  1.
    9000005    2    1    2  501    0 -0.16465849147E+00 -0.22024618210E+00 -0.89180894133E+03  0.11081195430E+04  0.65772764739E+03 0.  0.
         13    1    3    3    0    0 -0.18154196304E+03 -0.88541562579E+02 -0.88340981660E+03  0.90620637645E+03  0.00000000000E+00 0.  1.
          1    1    3    3  501    0  0.18137730455E+03  0.88321316396E+02 -0.83991247305E+01  0.20191316656E+03  0.00000000000E+00 0.  1.
         21    1    1    2  502  501  0.16465849147E+00  0.22024618210E+00  0.49294313557E+00  0.56445879783E+00  0.00000000000E+00 0.  1.
<mgrwt>
<rscale>  1 0.65772770E+03</rscale>
<asrwt>0</asrwt>
<pdfrwt beam="1">  1        3 0.39521539E+00 0.65772770E+03</pdfrwt>
<pdfrwt beam="2">0</pdfrwt>
<totfact> 0.62680360E-02</totfact>
</mgrwt>
</event>
<event>
 6    1  0.2980119E-003  0.6477428E+03  0.7818608E-02  0.9811024E-01
          3   -1    0    0  502    0  0.00000000000E+00  0.00000000000E+00  0.10489611546E+03  0.10489611546E+03  0.00000000000E+00 0.  1.
         13   -1    0    0    0    0 -0.00000000000E+00 -0.00000000000E+00 -0.10000000000E+04  0.10000000000E+04  0.00000000000E+00 0.  1.
    9000005    2    1    2  501    0  0.18806179030E-02 -0.44121082211E-02 -0.89510538322E+03  0.11048910906E+04  0.64774275367E+03 0.  0.
         13    1    3    3    0    0 -0.18825354001E+03  0.24251342804E+03 -0.27160783350E+03  0.40990605426E+03  0.00000000000E+00 0.  1.
          3    1    3    3  501    0  0.18825542063E+03 -0.24251784015E+03 -0.62349754973E+03  0.69498503632E+03  0.00000000000E+00 0.  1.
         21    1    1    2  502  501 -0.18806179030E-02  0.44121082211E-02  0.14986876245E-02  0.50248867895E-02  0.00000000000E+00 0.  1.
<mgrwt>
<rscale>  1 0.64774275E+03</rscale>
<asrwt>0</asrwt>
<pdfrwt beam="1">  1        3 0.38144122E+00 0.64774275E+03</pdfrwt>
<pdfrwt beam="2">0</pdfrwt>
<totfact> 0.74195666E-02</totfact>
</mgrwt>
</event>
<event>
 6    1  0.2980119E-003  0.5987795E+03  0.7818608E-02  0.9907941E-01
          1   -1    0    0  502    0  0.00000000000E+00  0.00000000000E+00  0.89637822128E+02  0.89637822128E+02  0.00000000000E+00 0.  1.
         13   -1    0    0    0    0 -0.00000000000E+00 -0.00000000000E+00 -0.10000000000E+04  0.10000000000E+04  0.00000000000E+00 0.  1.
    9000005    2    1    2  501    0  0.71092743679E-02 -0.18076030335E-02 -0.91036124588E+03  0.10896304277E+04  0.59877948435E+03 0.  0.
         13    1    3    3    0    0  0.20226182812E+03 -0.22035429833E+03 -0.43144535702E+03  0.52498662840E+03  0.00000000000E+00 0.  1.
          3    1    3    3  501    0 -0.20225471885E+03  0.22035249073E+03 -0.47891588886E+03  0.56464379928E+03  0.00000000000E+00 0.  1.
         21    1    1    2  502  501 -0.71092743679E-02  0.18076030335E-02 -0.93199633162E-03  0.73944457485E-02  0.00000000000E+00 0.  1.
<mgrwt>
<rscale>  1 0.59877948E+03</rscale>
<asrwt>0</asrwt>
<pdfrwt beam="1">  1        1 0.32595640E+00 0.59877948E+03</pdfrwt>
<pdfrwt beam="2">0</pdfrwt>
<totfact> 0.28508684E+00</totfact>
</mgrwt>
</event>
<event>
 6    1  0.2980119E-003  0.6526663E+03  0.7818608E-02  0.9801789E-01
          1   -1    0    0  502    0  0.00000000000E+00  0.00000000000E+00  0.10957538063E+03  0.10957538063E+03  0.00000000000E+00 0.  1.
         13   -1    0    0    0    0 -0.00000000000E+00 -0.00000000000E+00 -0.10000000000E+04  0.10000000000E+04  0.00000000000E+00 0.  1.
    9000005    2    1    2  501    0 -0.59099111744E+00  0.37593883161E+00 -0.89346257761E+03  0.11064577227E+04  0.65266593599E+03 0.  0.
         13    1    3    3    0    0  0.18814861418E+03  0.26026962549E+03 -0.34873392809E+03  0.47408388664E+03  0.00000000000E+00 0.  1.
          3    1    3    3  501    0 -0.18873960530E+03 -0.25989368666E+03 -0.54472864951E+03  0.63237383609E+03  0.00000000000E+00 0.  1.
         21    1    1    2  502  501  0.59099111744E+00 -0.37593883161E+00  0.30379582339E+01  0.31176578929E+01  0.00000000000E+00 0.  1.
<mgrwt>
<rscale>  1 0.65266631E+03</rscale>
<asrwt>0</asrwt>
<pdfrwt beam="1">  1        1 0.39845677E+00 0.65266631E+03</pdfrwt>
<pdfrwt beam="2">0</pdfrwt>
<totfact> 0.13585363E+00</totfact>
</mgrwt>
</event>
<event>
 6    1  0.2980119E-003  0.6183935E+03  0.7818608E-02  0.9867963E-01
          1   -1    0    0  502    0  0.00000000000E+00  0.00000000000E+00  0.95602653173E+02  0.95602653173E+02  0.00000000000E+00 0.  1.
         13   -1    0    0    0    0 -0.00000000000E+00 -0.00000000000E+00 -0.10000000000E+04  0.10000000000E+04  0.00000000000E+00 0.  1.
    9000005    2    1    2  501    0  0.45542401779E-05  0.13050069228E-04 -0.90439736729E+03  0.10956026285E+04  0.61839350060E+03 0.  0.
         13    1    3    3    0    0 -0.24306090542E+03  0.91698571297E+02 -0.74926969390E+03  0.79302730465E+03  0.00000000000E+00 0.  1.
          1    1    3    3  501    0  0.24306090998E+03 -0.91698558247E+02 -0.15512767339E+03  0.30257532384E+03  0.00000000000E+00 0.  1.
         21    1    1    2  502  501 -0.45542401825E-05 -0.13050069235E-04  0.20460487928E-04  0.24691637794E-04  0.00000000000E+00 0. -1.
<mgrwt>
<rscale>  1 0.61839350E+03</rscale>
<asrwt>0</asrwt>
<pdfrwt beam="1">  1        1 0.34764674E+00 0.61839350E+03</pdfrwt>
<pdfrwt beam="2">0</pdfrwt>
<totfact> 0.22873722E+00</totfact>
</mgrwt>
</event>
<event>
 6    1  0.2980119E-003  0.6492898E+03  0.7818608E-02  0.9808113E-01
          1   -1    0    0  502    0  0.00000000000E+00  0.00000000000E+00  0.10539774865E+03  0.10539774865E+03  0.00000000000E+00 0.  1.
         13   -1    0    0    0    0 -0.00000000000E+00 -0.00000000000E+00 -0.10000000000E+04  0.10000000000E+04  0.00000000000E+00 0.  1.
    9000005    2    1    2  501    0  0.21338280456E-02 -0.34917440422E-02 -0.89460427666E+03  0.11053931828E+04  0.64928982486E+03 0.  0.
         13    1    3    3    0    0  0.31088366622E+03 -0.21193425558E+02 -0.60237986565E+03  0.67820300630E+03  0.00000000000E+00 0.  1.
          1    1    3    3  501    0 -0.31088153239E+03  0.21189933814E+02 -0.29222441101E+03  0.42719017646E+03  0.00000000000E+00 0.  1.
         21    1    1    2  502  501 -0.21338280456E-02  0.34917440422E-02  0.20253082408E-02  0.45658922518E-02  0.00000000000E+00 0.  1.
<mgrwt>
<rscale>  1 0.64928982E+03</rscale>
<asrwt>0</asrwt>
<pdfrwt beam="1">  1        1 0.38326535E+00 0.64928982E+03</pdfrwt>
<pdfrwt beam="2">0</pdfrwt>
<totfact> 0.15875906E+00</totfact>
</mgrwt>
</event>
<event>
 6    1  0.2980119E-003  0.6522778E+03  0.7818608E-02  0.9802514E-01
          1   -1    0    0  502    0  0.00000000000E+00  0.00000000000E+00  0.11355208527E+03  0.11355208527E+03  0.00000000000E+00 0.  1.
         13   -1    0    0    0    0 -0.00000000000E+00 -0.00000000000E+00 -0.10000000000E+04  0.10000000000E+04  0.00000000000E+00 0.  1.
    9000005    2    1    2  501    0  0.49528544124E+01 -0.34032721304E+01 -0.89221623207E+03  0.11052222285E+04  0.65225014885E+03 0.  0.
         13    1    3    3    0    0  0.74546089141E+02  0.31593320896E+03 -0.41660051902E+03  0.52813530877E+03  0.00000000000E+00 0.  1.
          3    1    3    3  501    0 -0.69593234728E+02 -0.31933648109E+03 -0.47561571305E+03  0.57708691978E+03  0.00000000000E+00 0.  1.
         21    1    1    2  502  501 -0.49528544124E+01  0.34032721304E+01  0.57683173430E+01  0.83298567210E+01  0.00000000000E+00 0. -1.
<mgrwt>
<rscale>  1 0.65227783E+03</rscale>
<asrwt>0</asrwt>
<pdfrwt beam="1">  1        1 0.41291754E+00 0.65227783E+03</pdfrwt>
<pdfrwt beam="2">0</pdfrwt>
<totfact> 0.11706726E+00</totfact>
</mgrwt>
</event>
<event>
 6    1  0.2980119E-003  0.6470852E+03  0.7818608E-02  0.9812264E-01
          1   -1    0    0  502    0  0.00000000000E+00  0.00000000000E+00  0.10593063493E+03  0.10593063493E+03  0.00000000000E+00 0.  1.
         13   -1    0    0    0    0 -0.00000000000E+00 -0.00000000000E+00 -0.10000000000E+04  0.10000000000E+04  0.00000000000E+00 0.  1.
    9000005    2    1    2  501    0 -0.26633385101E+01  0.10862311143E+01 -0.89312872833E+03  0.11029044050E+04  0.64707876487E+03 0.  0.
         13    1    3    3    0    0  0.11901891643E+03 -0.22225807039E+03 -0.78860019342E+03  0.82792174593E+03  0.00000000000E+00 0.  1.
          3    1    3    3  501    0 -0.12168225494E+03  0.22334430151E+03 -0.10452853491E+03  0.27498265907E+03  0.00000000000E+00 0.  1.
         21    1    1    2  502  501  0.26633385101E+01 -0.10862311143E+01 -0.94063673965E+00  0.30262299200E+01  0.00000000000E+00 0. -1.
<mgrwt>
<rscale>  1 0.64708516E+03</rscale>
<asrwt>0</asrwt>
<pdfrwt beam="1">  1        1 0.38520312E+00 0.64708516E+03</pdfrwt>
<pdfrwt beam="2">0</pdfrwt>
<totfact> 0.15572136E+00</totfact>
</mgrwt>
</event>
<event>
 6    1  0.2980119E-003  0.6436845E+03  0.7818608E-02  0.9818702E-01
          1   -1    0    0  502    0  0.00000000000E+00  0.00000000000E+00  0.10358403605E+03  0.10358403605E+03  0.00000000000E+00 0.  1.
         13   -1    0    0    0    0 -0.00000000000E+00 -0.00000000000E+00 -0.10000000000E+04  0.10000000000E+04  0.00000000000E+00 0.  1.
    9000005    2    1    2  501    0  0.20894406693E-02  0.38537143237E-03 -0.89641674881E+03  0.11035817710E+04  0.64368450176E+03 0.  0.
         13    1    3    3    0    0 -0.65013177047E+02 -0.13860749443E+03 -0.93356977675E+03  0.94603978709E+03  0.00000000000E+00 0.  1.
          1    1    3    3  501    0  0.65015266488E+02  0.13860787980E+03  0.37153027937E+02  0.15754198394E+03  0.00000000000E+00 0.  1.
         21    1    1    2  502  501 -0.20894406693E-02 -0.38537143237E-03  0.78485943750E-03  0.22650116530E-02  0.00000000000E+00 0. -1.
<mgrwt>
<rscale>  1 0.64368450E+03</rscale>
<asrwt>0</asrwt>
<pdfrwt beam="1">  1        1 0.37667002E+00 0.64368450E+03</pdfrwt>
<pdfrwt beam="2">0</pdfrwt>
<totfact> 0.16993622E+00</totfact>
</mgrwt>
</event>
<event>
 6    1  0.2980119E-003  0.6513268E+03  0.7818608E-02  0.9804293E-01
          1   -1    0    0  502    0  0.00000000000E+00  0.00000000000E+00  0.10663008102E+03  0.10663008102E+03  0.00000000000E+00 0.  1.
         13   -1    0    0    0    0 -0.00000000000E+00 -0.00000000000E+00 -0.10000000000E+04  0.10000000000E+04  0.00000000000E+00 0.  1.
    9000005    2    1    2  501    0 -0.43388369651E+00 -0.13101594241E+00 -0.89384258592E+03  0.11059752266E+04  0.65132666773E+03 0.  0.
         13    1    3    3    0    0 -0.24487889111E+03 -0.29501509499E+02 -0.85624545037E+02  0.26108920523E+03  0.00000000000E+00 0.  1.
          3    1    3    3  501    0  0.24444500742E+03  0.29370493557E+02 -0.80821804088E+03  0.84488602140E+03  0.00000000000E+00 0.  1.
         21    1    1    2  502  501  0.43388369651E+00  0.13101594241E+00  0.47266693813E+00  0.65485439119E+00  0.00000000000E+00 0.  1.
<mgrwt>
<rscale>  1 0.65132683E+03</rscale>
<asrwt>0</asrwt>
<pdfrwt beam="1">  1        1 0.38774657E+00 0.65132683E+03</pdfrwt>
<pdfrwt beam="2">0</pdfrwt>
<totfact> 0.15161729E+00</totfact>
</mgrwt>
</event>
<event>
 6    1  0.2980119E-003  0.6475532E+03  0.7818608E-02  0.9811381E-01
          1   -1    0    0  502    0  0.00000000000E+00  0.00000000000E+00  0.10499253858E+03  0.10499253858E+03  0.00000000000E+00 0.  1.
         13   -1    0    0    0    0 -0.00000000000E+00 -0.00000000000E+00 -0.10000000000E+04  0.10000000000E+04  0.00000000000E+00 0.  1.
    9000005    2    1    2  501    0 -0.62508681449E-01 -0.49495637116E-01 -0.89515774318E+03  0.11048224158E+04  0.64755322479E+03 0.  0.
         13    1    3    3    0    0 -0.71669704431E+02  0.18009684424E+03 -0.89003622042E+03  0.91089839911E+03  0.00000000000E+00 0.  1.
          3    1    3    3  501    0  0.71607195750E+02 -0.18014633988E+03 -0.51215227556E+01  0.19392401669E+03  0.00000000000E+00 0.  1.
         21    1    1    2  502  501  0.62508681449E-01  0.49495637116E-01  0.15028175124E+00  0.17012277362E+00  0.00000000000E+00 0. -1.
<mgrwt>
<rscale>  1 0.64755323E+03</rscale>
<asrwt>0</asrwt>
<pdfrwt beam="1">  1        1 0.38179185E+00 0.64755323E+03</pdfrwt>
<pdfrwt beam="2">0</pdfrwt>
<totfact> 0.16120814E+00</totfact>
</mgrwt>
</event>
<event>
 6    1  0.2980119E-003  0.6074277E+03  0.7818608E-02  0.9890115E-01
          1   -1    0    0  502    0  0.00000000000E+00  0.00000000000E+00  0.92242979121E+02  0.92242979121E+02  0.00000000000E+00 0.  1.
         13   -1    0    0    0    0 -0.00000000000E+00 -0.00000000000E+00 -0.10000000000E+04  0.10000000000E+04  0.00000000000E+00 0.  1.
    9000005    2    1    2  501    0 -0.21122918585E-03  0.33073118379E-03 -0.90775783841E+03  0.10922420723E+04  0.60742773336E+03 0.  0.
         13    1    3    3    0    0 -0.21541922375E+03 -0.70550464740E+02 -0.90407879746E+02  0.24404178895E+03  0.00000000000E+00 0.  1.
          3    1    3    3  501    0  0.21541901252E+03  0.70550795472E+02 -0.81734995867E+03  0.84820028332E+03  0.00000000000E+00 0.  1.
         21    1    1    2  502  501  0.21122918587E-03 -0.33073118379E-03  0.81753490431E-03  0.90684298787E-03  0.00000000000E+00 0. -1.
<mgrwt>
<rscale>  1 0.60742773E+03</rscale>
<asrwt>0</asrwt>
<pdfrwt beam="1">  1        1 0.33542972E+00 0.60742773E+03</pdfrwt>
<pdfrwt beam="2">0</pdfrwt>
<totfact> 0.25898323E+00</totfact>
</mgrwt>
</event>
<event>
 6    1  0.2980119E-003  0.6492198E+03  0.7818608E-02  0.9808244E-01
          1   -1    0    0  502    0  0.00000000000E+00  0.00000000000E+00  0.10537883114E+03  0.10537883114E+03  0.00000000000E+00 0.  1.
         13   -1    0    0    0    0 -0.00000000000E+00 -0.00000000000E+00 -0.10000000000E+04  0.10000000000E+04  0.00000000000E+00 0.  1.
    9000005    2    1    2  501    0  0.96132426620E-03  0.65729483810E-03 -0.89462835135E+03  0.11053715549E+04  0.64921982968E+03 0.  0.
         13    1    3    3    0    0  0.28945568114E+03  0.26128116213E+02 -0.69348624622E+03  0.75192449321E+03  0.00000000000E+00 0.  1.
          3    1    3    3  501    0 -0.28945471981E+03 -0.26127458918E+02 -0.20114210513E+03  0.35344706164E+03  0.00000000000E+00 0.  1.
         21    1    1    2  502  501 -0.96132426619E-03 -0.65729483810E-03  0.71824822314E-02  0.72762787092E-02  0.00000000000E+00 0. -1.
<mgrwt>
<rscale>  1 0.64921983E+03</rscale>
<asrwt>0</asrwt>
<pdfrwt beam="1">  1        1 0.38319656E+00 0.64921983E+03</pdfrwt>
<pdfrwt beam="2">0</pdfrwt>
<totfact> 0.15887228E+00</totfact>
</mgrwt>
</event>
<event>
 6    1  0.2980119E-003  0.6537434E+03  0.7818608E-02  0.9799780E-01
          1   -1    0    0  502    0  0.00000000000E+00  0.00000000000E+00  0.10684530799E+03  0.10684530799E+03  0.00000000000E+00 0.  1.
         13   -1    0    0    0    0 -0.00000000000E+00 -0.00000000000E+00 -0.10000000000E+04  0.10000000000E+04  0.00000000000E+00 0.  1.
    9000005    2    1    2  501    0  0.62508483481E-04  0.15728282449E-04 -0.89315487731E+03  0.11068451118E+04  0.65374342572E+03 0.  0.
         13    1    3    3    0    0 -0.36837371557E+02  0.30051777857E+03 -0.23799621104E+03  0.38511053433E+03  0.00000000000E+00 0.  1.
          3    1    3    3  501    0  0.36837434066E+02 -0.30051776285E+03 -0.65515866627E+03  0.72173457748E+03  0.00000000000E+00 0.  1.
         21    1    1    2  502  501 -0.62508483482E-04 -0.15728282427E-04  0.18530118892E-03  0.19619179390E-03  0.00000000000E+00 0. -1.
<mgrwt>
<rscale>  1 0.65374343E+03</rscale>
<asrwt>0</asrwt>
<pdfrwt beam="1">  1        1 0.38852921E+00 0.65374343E+03</pdfrwt>
<pdfrwt beam="2">0</pdfrwt>
<totfact> 0.15034428E+00</totfact>
</mgrwt>
</event>
<event>
 6    1  0.2980119E-003  0.6584720E+03  0.7818608E-02  0.9791011E-01
          1   -1    0    0  502    0  0.00000000000E+00  0.00000000000E+00  0.11101763578E+03  0.11101763578E+03  0.00000000000E+00 0.  1.
         13   -1    0    0    0    0 -0.00000000000E+00 -0.00000000000E+00 -0.10000000000E+04  0.10000000000E+04  0.00000000000E+00 0.  1.
    9000005    2    1    2  501    0  0.71661757751E+00 -0.21133364753E+01 -0.89106644332E+03  0.11079642577E+04  0.65846823027E+03 0.  0.
         13    1    3    3    0    0 -0.40355817327E+02 -0.28582277546E+03 -0.71617502491E+03  0.77215925642E+03  0.00000000000E+00 0.  1.
          1    1    3    3  501    0  0.41072434905E+02  0.28370943898E+03 -0.17489141841E+03  0.33580500131E+03  0.00000000000E+00 0.  1.
         21    1    1    2  502  501 -0.71661757751E+00  0.21133364753E+01  0.20840790967E+01  0.30533780460E+01  0.00000000000E+00 0.  1.
<mgrwt>
<rscale>  1 0.65847201E+03</rscale>
<asrwt>0</asrwt>
<pdfrwt beam="1">  1        1 0.40370135E+00 0.65847201E+03</pdfrwt>
<pdfrwt beam="2">0</pdfrwt>
<totfact> 0.12858756E+00</totfact>
</mgrwt>
</event>
<event>
 6    1  0.2980119E-003  0.6448389E+03  0.7818608E-02  0.9816512E-01
          1   -1    0    0  502    0  0.00000000000E+00  0.00000000000E+00  0.10396369741E+03  0.10396369741E+03  0.00000000000E+00 0.  1.
         13   -1    0    0    0    0 -0.00000000000E+00 -0.00000000000E+00 -0.10000000000E+04  0.10000000000E+04  0.00000000000E+00 0.  1.
    9000005    2    1    2  501    0 -0.10860761952E-01  0.22607934627E-01 -0.89597045754E+03  0.11038932372E+04  0.64483890830E+03 0.  0.
         13    1    3    3    0    0 -0.63710151399E+02  0.30781075558E+03 -0.57091863754E+03  0.65173195052E+03  0.00000000000E+00 0.  1.
          1    1    3    3  501    0  0.63699290637E+02 -0.30778814765E+03 -0.32505182000E+03  0.45216128665E+03  0.00000000000E+00 0.  1.
         21    1    1    2  502  501  0.10860761952E-01 -0.22607934627E-01 -0.65845048468E-01  0.70460238901E-01  0.00000000000E+00 0. -1.
<mgrwt>
<rscale>  1 0.64483891E+03</rscale>
<asrwt>0</asrwt>
<pdfrwt beam="1">  1        1 0.37805061E+00 0.64483891E+03</pdfrwt>
<pdfrwt beam="2">0</pdfrwt>
<totfact> 0.16753682E+00</totfact>
</mgrwt>
</event>
<event>
 6    1  0.2980119E-003  0.6513287E+03  0.7818608E-02  0.9804289E-01
          1   -1    0    0  502    0  0.00000000000E+00  0.00000000000E+00  0.10605783698E+03  0.10605783698E+03  0.00000000000E+00 0.  1.
         13   -1    0    0    0    0 -0.00000000000E+00 -0.00000000000E+00 -0.10000000000E+04  0.10000000000E+04  0.00000000000E+00 0.  1.
    9000005    2    1    2  501    0 -0.72438141322E-03  0.15138239249E-02 -0.89393894715E+03  0.11060542096E+04  0.65132869831E+03 0.  0.
         13    1    3    3    0    0  0.22431387524E+03 -0.23591201566E+03 -0.43126118004E+03  0.54033082381E+03  0.00000000000E+00 0.  1.
          1    1    3    3  501    0 -0.22431459962E+03  0.23591352949E+03 -0.46267776711E+03  0.56572338574E+03  0.00000000000E+00 0.  1.
         21    1    1    2  502  501  0.72438141322E-03 -0.15138239249E-02 -0.32158713661E-02  0.36274260779E-02  0.00000000000E+00 0. -1.
<mgrwt>
<rscale>  1 0.65132870E+03</rscale>
<asrwt>0</asrwt>
<pdfrwt beam="1">  1        1 0.38566568E+00 0.65132870E+03</pdfrwt>
<pdfrwt beam="2">0</pdfrwt>
<totfact> 0.15486766E+00</totfact>
</mgrwt>
</event>
<event>
 6    1  0.2980119E-003  0.5523923E+03  0.7818608E-02  0.1000942E+00
          1   -1    0    0  502    0  0.00000000000E+00  0.00000000000E+00  0.77179774205E+02  0.77179774205E+02  0.00000000000E+00 0.  1.
         13   -1    0    0    0    0 -0.00000000000E+00 -0.00000000000E+00 -0.10000000000E+04  0.10000000000E+04  0.00000000000E+00 0.  1.
    9000005    2    1    2  501    0  0.17900092725E+00  0.11526163160E+00 -0.92370206612E+03  0.10762725978E+04  0.55239220902E+03 0.  0.
         13    1    3    3    0    0  0.20012935673E+03  0.81391351545E+01 -0.83268326902E+03  0.85643413726E+03  0.00000000000E+00 0.  1.
          3    1    3    3  501    0 -0.19995035580E+03 -0.80238735229E+01 -0.91018797101E+02  0.21983846059E+03  0.00000000000E+00 0.  1.
         21    1    1    2  502  501 -0.17900092725E+00 -0.11526163160E+00  0.88184032995E+00  0.90717635728E+00  0.00000000000E+00 0. -1.
<mgrwt>
<rscale>  1 0.55239225E+03</rscale>
<asrwt>0</asrwt>
<pdfrwt beam="1">  1        1 0.28065432E+00 0.55239225E+03</pdfrwt>
<pdfrwt beam="2">0</pdfrwt>
<totfact> 0.45092079E+00</totfact>
</mgrwt>
</event>
<event>
 6    1  0.3216655E-003  0.6581472E+03  0.7818608E-02  0.9791611E-01
          1   -1    0    0  502    0  0.00000000000E+00  0.00000000000E+00  0.10828946899E+03  0.10828946899E+03  0.00000000000E+00 0.  1.
         13   -1    0    0    0    0 -0.00000000000E+00 -0.00000000000E+00 -0.10000000000E+04  0.10000000000E+04  0.00000000000E+00 0.  1.
    9000005    2    1    2  501    0 -0.63613456490E-04 -0.12794253600E-04 -0.89171053917E+03  0.11082894036E+04  0.65814718449E+03 0.  0.
         13    1    3    3    0    0 -0.16832711697E+03 -0.58149288177E+02 -0.91183934595E+03  0.92906746302E+03  0.00000000000E+00 0.  1.
          3    1    3    3  501    0  0.16832705335E+03  0.58149275382E+02  0.20128806783E+02  0.17922194057E+03  0.00000000000E+00 0.  1.
         21    1    1    2  502  501  0.63613456490E-04  0.12794253600E-04  0.81611302851E-05  0.65398538358E-04  0.00000000000E+00 0. -1.
<mgrwt>
<rscale>  1 0.65814718E+03</rscale>
<asrwt>0</asrwt>
<pdfrwt beam="1">  1        1 0.39378072E+00 0.65814718E+03</pdfrwt>
<pdfrwt beam="2">0</pdfrwt>
<totfact> 0.14237315E+00</totfact>
</mgrwt>
</event>
<event>
 6    1  0.2980119E-003  0.6510060E+03  0.7818608E-02  0.9804893E-01
          1   -1    0    0  502    0  0.00000000000E+00  0.00000000000E+00  0.10611573218E+03  0.10611573218E+03  0.00000000000E+00 0.  1.
         13   -1    0    0    0    0 -0.00000000000E+00 -0.00000000000E+00 -0.10000000000E+04  0.10000000000E+04  0.00000000000E+00 0.  1.
    9000005    2    1    2  501    0  0.35883865543E-01 -0.51631872686E-02 -0.89404557560E+03  0.11059504007E+04  0.65100598782E+03 0.  0.
         13    1    3    3    0    0  0.14703250393E+03  0.27859989906E+03 -0.58628934031E+03  0.66556115537E+03  0.00000000000E+00 0.  1.
          1    1    3    3  501    0 -0.14699662007E+03 -0.27860506225E+03 -0.30775623528E+03  0.44038924530E+03  0.00000000000E+00 0.  1.
         21    1    1    2  502  501 -0.35883865543E-01  0.51631872686E-02  0.16130777781E+00  0.16533151391E+00  0.00000000000E+00 0.  1.
<mgrwt>
<rscale>  1 0.65100599E+03</rscale>
<asrwt>0</asrwt>
<pdfrwt beam="1">  1        1 0.38587620E+00 0.65100599E+03</pdfrwt>
<pdfrwt beam="2">0</pdfrwt>
<totfact> 0.15454503E+00</totfact>
</mgrwt>
</event>
<event>
 6    1  0.2980119E-003  0.6445695E+03  0.7818608E-02  0.9817023E-01
          1   -1    0    0  502    0  0.00000000000E+00  0.00000000000E+00  0.10387194859E+03  0.10387194859E+03  0.00000000000E+00 0.  1.
         13   -1    0    0    0    0 -0.00000000000E+00 -0.00000000000E+00 -0.10000000000E+04  0.10000000000E+04  0.00000000000E+00 0.  1.
    9000005    2    1    2  501    0 -0.85600281579E-04  0.12491167696E-03 -0.89613252282E+03  0.11038674746E+04  0.64456954867E+03 0.  0.
         13    1    3    3    0    0 -0.31608298744E+03  0.16698478091E+02 -0.55195865752E+03  0.63627482563E+03  0.00000000000E+00 0.  1.
          3    1    3    3  501    0  0.31608290184E+03 -0.16698353180E+02 -0.34417386530E+03  0.46759264899E+03  0.00000000000E+00 0.  1.
         21    1    1    2  502  501  0.85600281558E-04 -0.12491167696E-03  0.44714090878E-02  0.44739724592E-02  0.00000000000E+00 0. -1.
<mgrwt>
<rscale>  1 0.64456955E+03</rscale>
<asrwt>0</asrwt>
<pdfrwt beam="1">  1        1 0.37771697E+00 0.64456955E+03</pdfrwt>
<pdfrwt beam="2">0</pdfrwt>
<totfact> 0.16811339E+00</totfact>
</mgrwt>
</event>
<event>
 6    1  0.2980119E-003  0.6374355E+03  0.7818608E-02  0.9830645E-01
          1   -1    0    0  502    0  0.00000000000E+00  0.00000000000E+00  0.10158275477E+03  0.10158275477E+03  0.00000000000E+00 0.  1.
         13   -1    0    0    0    0 -0.00000000000E+00 -0.00000000000E+00 -0.10000000000E+04  0.10000000000E+04  0.00000000000E+00 0.  1.
    9000005    2    1    2  501    0 -0.13326147037E-02 -0.32065897619E-03 -0.89841869655E+03  0.11015807585E+04  0.63743549732E+03 0.  0.
         13    1    3    3    0    0 -0.27013465450E+02 -0.28172981820E+03 -0.70248579307E+03  0.75735573362E+03  0.00000000000E+00 0.  1.
          3    1    3    3  501    0  0.27012132835E+02  0.28172949754E+03 -0.19593290348E+03  0.34422502490E+03  0.00000000000E+00 0.  1.
         21    1    1    2  502  501  0.13326147037E-02  0.32065897618E-03  0.14513214063E-02  0.19962509742E-02  0.00000000000E+00 0.  1.
<mgrwt>
<rscale>  1 0.63743550E+03</rscale>
<asrwt>0</asrwt>
<pdfrwt beam="1">  1        1 0.36939261E+00 0.63743550E+03</pdfrwt>
<pdfrwt beam="2">0</pdfrwt>
<totfact> 0.18314147E+00</totfact>
</mgrwt>
</event>
<event>
 6    1  0.2980119E-003  0.6962242E+03  0.7818608E-02  0.9723711E-01
          1   -1    0    0  502    0  0.00000000000E+00  0.00000000000E+00  0.12494739517E+03  0.12494739517E+03  0.00000000000E+00 0.  1.
         13   -1    0    0    0    0 -0.00000000000E+00 -0.00000000000E+00 -0.10000000000E+04  0.10000000000E+04  0.00000000000E+00 0.  1.
    9000005    2    1    2  501    0  0.64436809146E+01  0.23138906683E+01 -0.87488085518E+03  0.11180987010E+04  0.69619057687E+03 0.  0.
         13    1    3    3    0    0 -0.47399607277E+02 -0.31751381292E+03 -0.22576752015E+03  0.39247002092E+03  0.00000000000E+00 0.  1.
          1    1    3    3  501    0  0.53843288192E+02  0.31982770358E+03 -0.64911333503E+03  0.72562868010E+03  0.00000000000E+00 0.  1.
         21    1    1    2  502  501 -0.64436809146E+01 -0.23138906683E+01 -0.17174964399E+00  0.68486941598E+01  0.00000000000E+00 0. -1.
<mgrwt>
<rscale>  1 0.69622424E+03</rscale>
<asrwt>0</asrwt>
<pdfrwt beam="1">  1        1 0.45435512E+00 0.69622424E+03</pdfrwt>
<pdfrwt beam="2">0</pdfrwt>
<totfact> 0.75144440E-01</totfact>
</mgrwt>
</event>
<event>
 6    1  0.2980119E-003  0.6554321E+03  0.7818608E-02  0.9796639E-01
          1   -1    0    0  502    0  0.00000000000E+00  0.00000000000E+00  0.10743682177E+03  0.10743682177E+03  0.00000000000E+00 0.  1.
         13   -1    0    0    0    0 -0.00000000000E+00 -0.00000000000E+00 -0.10000000000E+04  0.10000000000E+04  0.00000000000E+00 0.  1.
    9000005    2    1    2  501    0  0.71942239280E-02  0.13162901563E-01 -0.89260058726E+03  0.11073965172E+04  0.65543210007E+03 0.  0.
         13    1    3    3    0    0 -0.26217828784E+03  0.17250156389E+03 -0.28687228585E+03  0.42519401754E+03  0.00000000000E+00 0.  1.
          3    1    3    3  501    0  0.26218548206E+03 -0.17248840099E+03 -0.60572830141E+03  0.68220249971E+03  0.00000000000E+00 0.  1.
         21    1    1    2  502  501 -0.71942239280E-02 -0.13162901563E-01  0.37409030229E-01  0.40304520568E-01  0.00000000000E+00 0. -1.
<mgrwt>
<rscale>  1 0.65543210E+03</rscale>
<asrwt>0</asrwt>
<pdfrwt beam="1">  1        1 0.39068018E+00 0.65543210E+03</pdfrwt>
<pdfrwt beam="2">0</pdfrwt>
<totfact> 0.14703268E+00</totfact>
</mgrwt>
</event>
<event>
 6    1  0.2980119E-003  0.6435701E+03  0.7818608E-02  0.9818920E-01
          1   -1    0    0  502    0  0.00000000000E+00  0.00000000000E+00  0.10354563561E+03  0.10354563561E+03  0.00000000000E+00 0.  1.
         13   -1    0    0    0    0 -0.00000000000E+00 -0.00000000000E+00 -0.10000000000E+04  0.10000000000E+04  0.00000000000E+00 0.  1.
    9000005    2    1    2  501    0 -0.15132102135E-04  0.12240265541E-04 -0.89645433021E+03  0.11035455963E+04  0.64357013364E+03 0.  0.
         13    1    3    3    0    0  0.26809948165E+03  0.49696233050E+02 -0.15522200864E+03  0.31375295952E+03  0.00000000000E+00 0.  1.
          3    1    3    3  501    0 -0.26809949678E+03 -0.49696220810E+02 -0.74123232157E+03  0.78979263676E+03  0.00000000000E+00 0.  1.
         21    1    1    2  502  501  0.15132102116E-04 -0.12240265546E-04 -0.34177905546E-04  0.39331079856E-04  0.00000000000E+00 0.  1.
<mgrwt>
<rscale>  1 0.64357013E+03</rscale>
<asrwt>0</asrwt>
<pdfrwt beam="1">  1        1 0.37653038E+00 0.64357013E+03</pdfrwt>
<pdfrwt beam="2">0</pdfrwt>
<totfact> 0.17018065E+00</totfact>
</mgrwt>
</event>
<event>
 6    1  0.2980119E-003  0.6212672E+03  0.7818608E-02  0.9862240E-01
          1   -1    0    0  502    0  0.00000000000E+00  0.00000000000E+00  0.96532520842E+02  0.96532520842E+02  0.00000000000E+00 0.  1.
         13   -1    0    0    0    0 -0.00000000000E+00 -0.00000000000E+00 -0.10000000000E+04  0.10000000000E+04  0.00000000000E+00 0.  1.
    9000005    2    1    2  501    0 -0.18244267944E-01 -0.21712445671E-01 -0.90350109822E+03  0.10964885376E+04  0.62126715494E+03 0.  0.
         13    1    3    3    0    0 -0.19032691590E+03 -0.11807474104E+03 -0.71862130167E+02  0.23522360668E+03  0.00000000000E+00 0.  1.
          1    1    3    3  501    0  0.19030867163E+03  0.11805302859E+03 -0.83163896806E+03  0.86126493093E+03  0.00000000000E+00 0.  1.
         21    1    1    2  502  501  0.18244267944E-01  0.21712445671E-01  0.33619065480E-01  0.43983237416E-01  0.00000000000E+00 0. -1.
<mgrwt>
<rscale>  1 0.62126716E+03</rscale>
<asrwt>0</asrwt>
<pdfrwt beam="1">  1        1 0.35102809E+00 0.62126716E+03</pdfrwt>
<pdfrwt beam="2">0</pdfrwt>
<totfact> 0.22099552E+00</totfact>
</mgrwt>
</event>
<event>
 6    1  0.2980119E-003  0.6482892E+03  0.7818608E-02  0.9809995E-01
          1   -1    0    0  502    0  0.00000000000E+00  0.00000000000E+00  0.10507032551E+03  0.10507032551E+03  0.00000000000E+00 0.  1.
         13   -1    0    0    0    0 -0.00000000000E+00 -0.00000000000E+00 -0.10000000000E+04  0.10000000000E+04  0.00000000000E+00 0.  1.
    9000005    2    1    2  501    0  0.27604464464E-04 -0.89826255248E-04 -0.89493028311E+03  0.11050697097E+04  0.64828917283E+03 0.  0.
         13    1    3    3    0    0 -0.46950998026E+02  0.28327980214E+03 -0.19110730275E+03  0.34492585244E+03  0.00000000000E+00 0.  1.
          1    1    3    3  501    0  0.46951025630E+02 -0.28327989197E+03 -0.70382298036E+03  0.76014385723E+03  0.00000000000E+00 0.  1.
         21    1    1    2  502  501 -0.27604464464E-04  0.89826255221E-04  0.60862185351E-03  0.61583384379E-03  0.00000000000E+00 0.  1.
<mgrwt>
<rscale>  1 0.64828917E+03</rscale>
<asrwt>0</asrwt>
<pdfrwt beam="1">  1        1 0.38207472E+00 0.64828917E+03</pdfrwt>
<pdfrwt beam="2">0</pdfrwt>
<totfact> 0.16072332E+00</totfact>
</mgrwt>
</event>
<event>
 6    1  0.2980119E-003  0.6552558E+03  0.7818608E-02  0.9796967E-01
          1   -1    0    0  502    0  0.00000000000E+00  0.00000000000E+00  0.11408635523E+03  0.11408635523E+03  0.00000000000E+00 0.  1.
         13   -1    0    0    0    0 -0.00000000000E+00 -0.00000000000E+00 -0.10000000000E+04  0.10000000000E+04  0.00000000000E+00 0.  1.
    9000005    2    1    2  501    0  0.10317838922E+01 -0.85829874407E+01 -0.88944338039E+03  0.11047487279E+04  0.65519881907E+03 0.  0.
         13    1    3    3    0    0  0.87296851012E+02  0.54497213689E+02  0.79430030618E+02  0.12999929331E+03  0.00000000000E+00 0.  1.
          1    1    3    3  501    0 -0.86265067120E+02 -0.63080201130E+02 -0.96887341101E+03  0.97474943455E+03  0.00000000000E+00 0.  1.
         21    1    1    2  502  501 -0.10317838922E+01  0.85829874407E+01  0.35297356199E+01  0.93376273728E+01  0.00000000000E+00 0.  1.
<mgrwt>
<rscale>  1 0.65525585E+03</rscale>
<asrwt>0</asrwt>
<pdfrwt beam="1">  1        1 0.41486035E+00 0.65525585E+03</pdfrwt>
<pdfrwt beam="2">0</pdfrwt>
<totfact> 0.11467103E+00</totfact>
</mgrwt>
</event>
<event>
 6    1  0.2980119E-003  0.6466119E+03  0.7818608E-02  0.9813157E-01
          1   -1    0    0  502    0  0.00000000000E+00  0.00000000000E+00  0.10452907315E+03  0.10452907315E+03  0.00000000000E+00 0.  1.
         13   -1    0    0    0    0 -0.00000000000E+00 -0.00000000000E+00 -0.10000000000E+04  0.10000000000E+04  0.00000000000E+00 0.  1.
    9000005    2    1    2  501    0 -0.60773966806E-03 -0.23811465917E-03 -0.89547320130E+03  0.11045267069E+04  0.64661193308E+03 0.  0.
         13    1    3    3    0    0  0.25122545239E+03  0.19750893656E+03 -0.53146362015E+03  0.62014319919E+03  0.00000000000E+00 0.  1.
          3    1    3    3  501    0 -0.25122606013E+03 -0.19750917468E+03 -0.36400958114E+03  0.48438350771E+03  0.00000000000E+00 0.  1.
         21    1    1    2  502  501  0.60773966805E-03  0.23811465917E-03  0.22744536705E-02  0.23662598324E-02  0.00000000000E+00 0. -1.
<mgrwt>
<rscale>  1 0.64661193E+03</rscale>
<asrwt>0</asrwt>
<pdfrwt beam="1">  1        1 0.38010652E+00 0.64661193E+03</pdfrwt>
<pdfrwt beam="2">0</pdfrwt>
<totfact> 0.16402185E+00</totfact>
</mgrwt>
</event>
<event>
 6    1  0.2980119E-003  0.6059714E+03  0.7818608E-02  0.9893094E-01
          1   -1    0    0  502    0  0.00000000000E+00  0.00000000000E+00  0.92112010865E+02  0.92112010865E+02  0.00000000000E+00 0.  1.
         13   -1    0    0    0    0 -0.00000000000E+00 -0.00000000000E+00 -0.10000000000E+04  0.10000000000E+04  0.00000000000E+00 0.  1.
    9000005    2    1    2  501    0  0.42894364215E+00  0.19273853862E+00 -0.90799464055E+03  0.10916298124E+04  0.60597125263E+03 0.  0.
         13    1    3    3    0    0 -0.44462668018E+02 -0.29355014013E+03 -0.56153613439E+03  0.63519402062E+03  0.00000000000E+00 0.  1.
          1    1    3    3  501    0  0.44891611660E+02  0.29374287867E+03 -0.34645850616E+03  0.45643579182E+03  0.00000000000E+00 0.  1.
         21    1    1    2  502  501 -0.42894364215E+00 -0.19273853862E+00  0.10665141042E+00  0.48219841949E+00  0.00000000000E+00 0.  1.
<mgrwt>
<rscale>  1 0.60597144E+03</rscale>
<asrwt>0</asrwt>
<pdfrwt beam="1">  1        1 0.33495347E+00 0.60597144E+03</pdfrwt>
<pdfrwt beam="2">0</pdfrwt>
<totfact> 0.26028491E+00</totfact>
</mgrwt>
</event>
<event>
 6    1  0.2980119E-003  0.6486710E+03  0.7818608E-02  0.9809276E-01
          1   -1    0    0  502    0  0.00000000000E+00  0.00000000000E+00  0.10564820718E+03  0.10564820718E+03  0.00000000000E+00 0.  1.
         13   -1    0    0    0    0 -0.00000000000E+00 -0.00000000000E+00 -0.10000000000E+04  0.10000000000E+04  0.00000000000E+00 0.  1.
    9000005    2    1    2  501    0  0.27124647324E-01 -0.15917268179E-01 -0.89480589697E+03  0.11051930153E+04  0.64867095414E+03 0.  0.
         13    1    3    3    0    0  0.38714008384E+02  0.29866222558E+03 -0.65250010404E+03  0.71864753893E+03  0.00000000000E+00 0.  1.
          3    1    3    3  501    0 -0.38686883736E+02 -0.29867814285E+03 -0.24230579293E+03  0.38654547634E+03  0.00000000000E+00 0.  1.
         21    1    1    2  502  501 -0.27124647324E-01  0.15917268179E-01  0.45410414429E+00  0.45519191532E+00  0.00000000000E+00 0. -1.
<mgrwt>
<rscale>  1 0.64867095E+03</rscale>
<asrwt>0</asrwt>
<pdfrwt beam="1">  1        1 0.38417611E+00 0.64867095E+03</pdfrwt>
<pdfrwt beam="2">0</pdfrwt>
<totfact> 0.15731216E+00</totfact>
</mgrwt>
</event>
<event>
 6    1  0.2980119E-003  0.6500872E+03  0.7818608E-02  0.9806616E-01
          1   -1    0    0  502    0  0.00000000000E+00  0.00000000000E+00  0.10565333752E+03  0.10565333752E+03  0.00000000000E+00 0.  1.
         13   -1    0    0    0    0 -0.00000000000E+00 -0.00000000000E+00 -0.10000000000E+04  0.10000000000E+04  0.00000000000E+00 0.  1.
    9000005    2    1    2  501    0  0.80210773632E-05  0.93450453704E-05 -0.89434666394E+03  0.11056533251E+04  0.65008716342E+03 0.  0.
         13    1    3    3    0    0  0.62742789653E+02  0.43911262893E+02 -0.98443713084E+03  0.98741142450E+03  0.00000000000E+00 0.  1.
          3    1    3    3  501    0 -0.62742781632E+02 -0.43911253548E+02  0.90090466898E+02  0.11824190061E+03  0.00000000000E+00 0.  1.
         21    1    1    2  502  501 -0.80210773659E-05 -0.93450453728E-05  0.14622610896E-05  0.12401845130E-04  0.00000000000E+00 0. -1.
<mgrwt>
<rscale>  1 0.65008716E+03</rscale>
<asrwt>0</asrwt>
<pdfrwt beam="1">  1        1 0.38419476E+00 0.65008716E+03</pdfrwt>
<pdfrwt beam="2">0</pdfrwt>
<totfact> 0.15724117E+00</totfact>
</mgrwt>
</event>
<event>
 6    1  0.2980119E-003  0.6331761E+03  0.7818608E-02  0.9838870E-01
          1   -1    0    0  502    0  0.00000000000E+00  0.00000000000E+00  0.10023964318E+03  0.10023964318E+03  0.00000000000E+00 0.  1.
         13   -1    0    0    0    0 -0.00000000000E+00 -0.00000000000E+00 -0.10000000000E+04  0.10000000000E+04  0.00000000000E+00 0.  1.
    9000005    2    1    2  501    0 -0.22255710827E-01 -0.67165866703E-02 -0.89975760372E+03  0.11002162336E+04  0.63317613241E+03 0.  0.
         13    1    3    3    0    0 -0.89843682827E+02 -0.25923992545E+03 -0.72437819413E+03  0.77459731114E+03  0.00000000000E+00 0.  1.
          3    1    3    3  501    0  0.89821427116E+02  0.25923320887E+03 -0.17537940959E+03  0.32561892245E+03  0.00000000000E+00 0.  1.
         21    1    1    2  502  501  0.22255710827E-01  0.67165866702E-02 -0.27530966374E-02  0.23409586541E-01  0.00000000000E+00 0. -1.
<mgrwt>
<rscale>  1 0.63317613E+03</rscale>
<asrwt>0</asrwt>
<pdfrwt beam="1">  1        1 0.36450856E+00 0.63317613E+03</pdfrwt>
<pdfrwt beam="2">0</pdfrwt>
<totfact> 0.19255033E+00</totfact>
</mgrwt>
</event>
<event>
 6    1  0.2980119E-003  0.6481134E+03  0.7818608E-02  0.9810326E-01
          1   -1    0    0  502    0  0.00000000000E+00  0.00000000000E+00  0.10608339004E+03  0.10608339004E+03  0.00000000000E+00 0.  1.
         13   -1    0    0    0    0 -0.00000000000E+00 -0.00000000000E+00 -0.10000000000E+04  0.10000000000E+04  0.00000000000E+00 0.  1.
    9000005    2    1    2  501    0  0.23155841318E-01  0.13567352456E-01 -0.89498708046E+03  0.11050125832E+04  0.64811336511E+03 0.  0.
         13    1    3    3    0    0 -0.62734485213E+01 -0.14267883203E+03 -0.94343863148E+03  0.95418711825E+03  0.00000000000E+00 0.  1.
          3    1    3    3  501    0  0.62966043626E+01  0.14269239939E+03  0.48451551021E+02  0.15082546491E+03  0.00000000000E+00 0.  1.
         21    1    1    2  502  501 -0.23155841318E-01 -0.13567352456E-01  0.10704705067E+01  0.10708068789E+01  0.00000000000E+00 0. -1.
<mgrwt>
<rscale>  1 0.64811337E+03</rscale>
<asrwt>0</asrwt>
<pdfrwt beam="1">  1        1 0.38575860E+00 0.64811337E+03</pdfrwt>
<pdfrwt beam="2">0</pdfrwt>
<totfact> 0.15481322E+00</totfact>
</mgrwt>
</event>
<event>
 6    1  0.2980119E-003  0.6461208E+03  0.7818608E-02  0.9814086E-01
          1   -1    0    0  502    0  0.00000000000E+00  0.00000000000E+00  0.10442639947E+03  0.10442639947E+03  0.00000000000E+00 0.  1.
         13   -1    0    0    0    0 -0.00000000000E+00 -0.00000000000E+00 -0.10000000000E+04  0.10000000000E+04  0.00000000000E+00 0.  1.
    9000005    2    1    2  501    0  0.31476959766E-02 -0.28122377477E-03 -0.89563191927E+03  0.11043679952E+04  0.64612083540E+03 0.  0.
         13    1    3    3    0    0 -0.31322457775E+03  0.30933332339E+02 -0.57225376318E+03  0.65310096970E+03  0.00000000000E+00 0.  1.
          1    1    3    3  501    0  0.31322772545E+03 -0.30933613562E+02 -0.32337815609E+03  0.45126702547E+03  0.00000000000E+00 0.  1.
         21    1    1    2  502  501 -0.31476959766E-02  0.28122377477E-03  0.58318734445E-01  0.58404296623E-01  0.00000000000E+00 0. -1.
<mgrwt>
<rscale>  1 0.64612084E+03</rscale>
<asrwt>0</asrwt>
<pdfrwt beam="1">  1        1 0.37973316E+00 0.64612084E+03</pdfrwt>
<pdfrwt beam="2">0</pdfrwt>
<totfact> 0.16466003E+00</totfact>
</mgrwt>
</event>
<event>
 6    1  0.2980119E-003  0.6555308E+03  0.7818608E-02  0.9796456E-01
          1   -1    0    0  502    0  0.00000000000E+00  0.00000000000E+00  0.10743048916E+03  0.10743048916E+03  0.00000000000E+00 0.  1.
         13   -1    0    0    0    0 -0.00000000000E+00 -0.00000000000E+00 -0.10000000000E+04  0.10000000000E+04  0.00000000000E+00 0.  1.
    9000005    2    1    2  501    0  0.45651549044E-04  0.19450419956E-04 -0.89256984727E+03  0.11074301491E+04  0.65553077948E+03 0.  0.
         13    1    3    3    0    0  0.26336469328E+03  0.10760880108E+03 -0.72123926654E+03  0.77532360685E+03  0.00000000000E+00 0.  1.
          3    1    3    3  501    0 -0.26336464763E+03 -0.10760878163E+03 -0.17133058073E+03  0.33210654224E+03  0.00000000000E+00 0.  1.
         21    1    1    2  502  501 -0.45651549070E-04 -0.19450419960E-04  0.33643238935E-03  0.34007225022E-03  0.00000000000E+00 0. -1.
<mgrwt>
<rscale>  1 0.65553078E+03</rscale>
<asrwt>0</asrwt>
<pdfrwt beam="1">  1        1 0.39065715E+00 0.65553078E+03</pdfrwt>
<pdfrwt beam="2">0</pdfrwt>
<totfact> 0.14706458E+00</totfact>
</mgrwt>
</event>
<event>
 6    1  0.2980119E-003  0.6569719E+03  0.7818608E-02  0.9793784E-01
          1   -1    0    0  502    0  0.00000000000E+00  0.00000000000E+00  0.14191834520E+03  0.14191834520E+03  0.00000000000E+00 0.  1.
         13   -1    0    0    0    0 -0.00000000000E+00 -0.00000000000E+00 -0.10000000000E+04  0.10000000000E+04  0.00000000000E+00 0.  1.
    9000005    2    1    2  501    0 -0.54919632361E+02 -0.38685997845E+02 -0.84994149306E+03  0.10742497803E+04  0.65352832862E+03 0.  0.
         13    1    3    3    0    0 -0.16816825561E+03 -0.25696213205E+03 -0.74700688710E+03  0.80766910854E+03  0.00000000000E+00 0.  1.
          3    1    3    3  501    0  0.11324862325E+03  0.21827613421E+03 -0.10293460596E+03  0.26658067172E+03  0.00000000000E+00 0.  1.
         21    1    1    2  502  501  0.54919632361E+02  0.38685997845E+02 -0.81401617394E+01  0.67668564940E+02  0.00000000000E+00 0.  1.
<mgrwt>
<rscale>  1 0.65697188E+03</rscale>
<asrwt>0</asrwt>
<pdfrwt beam="1">  1        1 0.51606780E+00 0.65697188E+03</pdfrwt>
<pdfrwt beam="2">0</pdfrwt>
<totfact> 0.38581900E-01</totfact>
</mgrwt>
</event>
<event>
 6    1  0.2980119E-003  0.6126384E+03  0.7818608E-02  0.9879527E-01
          1   -1    0    0  502    0  0.00000000000E+00  0.00000000000E+00  0.93832165912E+02  0.93832165912E+02  0.00000000000E+00 0.  1.
         13   -1    0    0    0    0 -0.00000000000E+00 -0.00000000000E+00 -0.10000000000E+04  0.10000000000E+04  0.00000000000E+00 0.  1.
    9000005    2    1    2  501    0  0.33640546717E-03  0.14767785337E-03 -0.90616847944E+03  0.10938314233E+04  0.61263844925E+03 0.  0.
         13    1    3    3    0    0  0.61612221921E+01 -0.19426447254E+02 -0.99878813606E+03  0.99899604016E+03  0.00000000000E+00 0.  1.
          1    1    3    3  501    0 -0.61608857867E+01  0.19426594931E+02  0.92619656626E+02  0.94835383153E+02  0.00000000000E+00 0.  1.
         21    1    1    2  502  501 -0.33640546717E-03 -0.14767785337E-03  0.64534966945E-03  0.74259920723E-03  0.00000000000E+00 0.  1.
<mgrwt>
<rscale>  1 0.61263845E+03</rscale>
<asrwt>0</asrwt>
<pdfrwt beam="1">  1        1 0.34120860E+00 0.61263845E+03</pdfrwt>
<pdfrwt beam="2">0</pdfrwt>
<totfact> 0.24422098E+00</totfact>
</mgrwt>
</event>
