<event>
 6    1  0.9652477E-003  0.6614260E+03  0.7818608E-02  0.9785572E-01
          1   -1    0    0  502    0  0.00000000000E+00  0.00000000000E+00  0.10937250543E+03  0.10937250543E+03  0.00000000000E+00 0.  1.
         13   -1    0    0    0    0 -0.00000000000E+00 -0.00000000000E+00 -0.10000000000E+04  0.10000000000E+04  0.00000000000E+00 0.  1.
    9000005    2    1    2  501    0  0.26783942445E-04  0.90574747446E-03 -0.89062875391E+03  0.11093709540E+04  0.66142598696E+03 0.  0.
         13    1    3    3    0    0 -0.12381463969E+03 -0.27001383834E+03 -0.68913940302E+03  0.75043364443E+03  0.00000000000E+00 0.  1.
          1    1    3    3  501    0  0.12381466648E+03  0.27001474409E+03 -0.20148935089E+03  0.35893730954E+03  0.00000000000E+00 0.  1.
         21    1    1    2  502  501 -0.26783942445E-04 -0.90574747447E-03  0.12593383013E-02  0.15514602232E-02  0.00000000000E+00 0.  1.
<mgrwt>
<rscale>  1 0.66142599E+03</rscale>
<asrwt>0</asrwt>
<pdfrwt beam="1">  1        1 0.39771904E+00 0.66142599E+03</pdfrwt>
<pdfrwt beam="2">0</pdfrwt>
<totfact> 0.13666031E+00</totfact>
</mgrwt>
</event>
<event>
 6    1  0.9652477E-003  0.6434457E+03  0.7818608E-02  0.9819156E-01
          1   -1    0    0  502    0  0.00000000000E+00  0.00000000000E+00  0.10350851060E+03  0.10350851060E+03  0.00000000000E+00 0.  1.
         13   -1    0    0    0    0 -0.00000000000E+00 -0.00000000000E+00 -0.10000000000E+04  0.10000000000E+04  0.00000000000E+00 0.  1.
    9000005    2    1    2  501    0 -0.24660673091E-04 -0.17791248029E-03 -0.89649441203E+03  0.11035055825E+04  0.64344567735E+03 0.  0.
         13    1    3    3    0    0  0.29292828776E+03  0.37559935272E+02 -0.66712128983E+03  0.72956736896E+03  0.00000000000E+00 0.  1.
          3    1    3    3  501    0 -0.29292831242E+03 -0.37560113185E+02 -0.22937312220E+03  0.37393821349E+03  0.00000000000E+00 0.  1.
         21    1    1    2  502  501  0.24660673064E-04  0.17791248028E-03  0.29226292269E-02  0.29281431996E-02  0.00000000000E+00 0. -1.
<mgrwt>
<rscale>  1 0.64344568E+03</rscale>
<asrwt>0</asrwt>
<pdfrwt beam="1">  1        1 0.37639538E+00 0.64344568E+03</pdfrwt>
<pdfrwt beam="2">0</pdfrwt>
<totfact> 0.17041771E+00</totfact>
</mgrwt>
</event>
<event>
 6    1  0.9652477E-003  0.6387908E+03  0.7818608E-02  0.9828043E-01
          1   -1    0    0  502    0  0.00000000000E+00  0.00000000000E+00  0.10201362011E+03  0.10201362011E+03  0.00000000000E+00 0.  1.
         13   -1    0    0    0    0 -0.00000000000E+00 -0.00000000000E+00 -0.10000000000E+04  0.10000000000E+04  0.00000000000E+00 0.  1.
    9000005    2    1    2  501    0  0.12741294412E-04 -0.14712317125E-05 -0.89798659101E+03  0.11020134086E+04  0.63879076004E+03 0.  0.
         13    1    3    3    0    0 -0.12214863823E+03  0.28367098791E+03 -0.30858759395E+03  0.43659571957E+03  0.00000000000E+00 0.  1.
          1    1    3    3  501    0  0.12214865097E+03 -0.28367098938E+03 -0.58939899705E+03  0.66541768903E+03  0.00000000000E+00 0.  1.
         21    1    1    2  502  501 -0.12741294413E-04  0.14712317341E-05  0.21112082145E-03  0.21151006207E-03  0.00000000000E+00 0. -1.
<mgrwt>
<rscale>  1 0.63879076E+03</rscale>
<asrwt>0</asrwt>
<pdfrwt beam="1">  1        1 0.37095940E+00 0.63879076E+03</pdfrwt>
<pdfrwt beam="2">0</pdfrwt>
<totfact> 0.18021787E+00</totfact>
</mgrwt>
</event>
<event>
 6    1  0.9652477E-003  0.6575404E+03  0.7818608E-02  0.9792732E-01
          1   -1    0    0  502    0  0.00000000000E+00  0.00000000000E+00  0.10809435891E+03  0.10809435891E+03  0.00000000000E+00 0.  1.
         13   -1    0    0    0    0 -0.00000000000E+00 -0.00000000000E+00 -0.10000000000E+04  0.10000000000E+04  0.00000000000E+00 0.  1.
    9000005    2    1    2  501    0  0.19033667201E-03  0.21991075360E-03 -0.89191014759E+03  0.11080898430E+04  0.65754040854E+03 0.  0.
         13    1    3    3    0    0  0.16927202306E+03  0.19572057410E+03 -0.10418534542E+03  0.27895187240E+03  0.00000000000E+00 0.  1.
          3    1    3    3  501    0 -0.16927183272E+03 -0.19572035419E+03 -0.78772480217E+03  0.82913797063E+03  0.00000000000E+00 0.  1.
         21    1    1    2  502  501 -0.19033667200E-03 -0.21991075360E-03  0.45064982895E-02  0.45158737384E-02  0.00000000000E+00 0.  1.
<mgrwt>
<rscale>  1 0.65754041E+03</rscale>
<asrwt>0</asrwt>
<pdfrwt beam="1">  1        1 0.39307122E+00 0.65754041E+03</pdfrwt>
<pdfrwt beam="2">0</pdfrwt>
<totfact> 0.14342649E+00</totfact>
</mgrwt>
</event>
<event>
 6    1  0.9652477E-003  0.6318973E+03  0.7818608E-02  0.9841353E-01
          1   -1    0    0  502    0  0.00000000000E+00  0.00000000000E+00  0.10021169802E+03  0.10021169802E+03  0.00000000000E+00 0.  1.
         13   -1    0    0    0    0 -0.00000000000E+00 -0.00000000000E+00 -0.10000000000E+04  0.10000000000E+04  0.00000000000E+00 0.  1.
    9000005    2    1    2  501    0  0.17319795756E-02  0.47238805475E-01 -0.90017486061E+03  0.10998222599E+04  0.63189731870E+03 0.  0.
         13    1    3    3    0    0  0.26652723402E+03 -0.16077837546E+03 -0.35585906735E+03  0.47278126899E+03  0.00000000000E+00 0.  1.
          3    1    3    3  501    0 -0.26652550204E+03  0.16082561427E+03 -0.54431579326E+03  0.62704099087E+03  0.00000000000E+00 0.  1.
         21    1    1    2  502  501 -0.17319795756E-02 -0.47238805475E-01  0.38655863187E+00  0.38943815988E+00  0.00000000000E+00 0.  1.
<mgrwt>
<rscale>  1 0.63189732E+03</rscale>
<asrwt>0</asrwt>
<pdfrwt beam="1">  1        1 0.36440694E+00 0.63189732E+03</pdfrwt>
<pdfrwt beam="2">0</pdfrwt>
<totfact> 0.19279253E+00</totfact>
</mgrwt>
</event>
<event>
 6    1  0.9652477E-003  0.6490028E+03  0.7818608E-02  0.9808652E-01
          1   -1    0    0  502    0  0.00000000000E+00  0.00000000000E+00  0.10530172009E+03  0.10530172009E+03  0.00000000000E+00 0.  1.
         13   -1    0    0    0    0 -0.00000000000E+00 -0.00000000000E+00 -0.10000000000E+04  0.10000000000E+04  0.00000000000E+00 0.  1.
    9000005    2    1    2  501    0 -0.18526353941E-04  0.25407312535E-04 -0.89469884929E+03  0.11053011498E+04  0.64900277420E+03 0.  0.
         13    1    3    3    0    0  0.55566474565E+02  0.31626231153E+03 -0.52707949950E+03  0.61718901608E+03  0.00000000000E+00 0.  1.
          3    1    3    3  501    0 -0.55566493092E+02 -0.31626228612E+03 -0.36761934980E+03  0.48811213376E+03  0.00000000000E+00 0.  1.
         21    1    1    2  502  501  0.18526353946E-04 -0.25407312505E-04  0.56937775616E-03  0.57024537396E-03  0.00000000000E+00 0. -1.
<mgrwt>
<rscale>  1 0.64900277E+03</rscale>
<asrwt>0</asrwt>
<pdfrwt beam="1">  1        1 0.38291615E+00 0.64900277E+03</pdfrwt>
<pdfrwt beam="2">0</pdfrwt>
<totfact> 0.15933258E+00</totfact>
</mgrwt>
</event>
<event>
 6    1  0.9652477E-003  0.5529327E+03  0.7818608E-02  0.1000817E+00
          1   -1    0    0  502    0  0.00000000000E+00  0.00000000000E+00  0.76433672708E+02  0.76433672708E+02  0.00000000000E+00 0.  1.
         13   -1    0    0    0    0 -0.00000000000E+00 -0.00000000000E+00 -0.10000000000E+04  0.10000000000E+04  0.00000000000E+00 0.  1.
    9000005    2    1    2  501    0 -0.30858342939E-04 -0.56071362167E-05 -0.92356633373E+03  0.10764336407E+04  0.55293273553E+03 0.  0.
         13    1    3    3    0    0  0.59269710059E+02  0.19814427257E+03 -0.10461772243E+03  0.23177342196E+03  0.00000000000E+00 0.  1.
          3    1    3    3  501    0 -0.59269740917E+02 -0.19814427817E+03 -0.81894861130E+03  0.84466021873E+03  0.00000000000E+00 0.  1.
         21    1    1    2  502  501  0.30858342935E-04  0.56071362127E-05  0.64329057625E-05  0.32016551685E-04  0.00000000000E+00 0. -1.
<mgrwt>
<rscale>  1 0.55293274E+03</rscale>
<asrwt>0</asrwt>
<pdfrwt beam="1">  1        1 0.27794121E+00 0.55293274E+03</pdfrwt>
<pdfrwt beam="2">0</pdfrwt>
<totfact> 0.46320558E+00</totfact>
</mgrwt>
</event>
<event>
 6    1  0.9652477E-003  0.6476911E+03  0.7818608E-02  0.9811121E-01
          1   -1    0    0  502    0  0.00000000000E+00  0.00000000000E+00  0.10516800569E+03  0.10516800569E+03  0.00000000000E+00 0.  1.
         13   -1    0    0    0    0 -0.00000000000E+00 -0.00000000000E+00 -0.10000000000E+04  0.10000000000E+04  0.00000000000E+00 0.  1.
    9000005    2    1    2  501    0  0.75964375445E-02 -0.37937292287E-02 -0.89512397763E+03  0.11048758989E+04  0.64769114294E+03 0.  0.
         13    1    3    3    0    0 -0.27669989856E+03 -0.11392380747E+03 -0.23632798133E+03  0.38130353071E+03  0.00000000000E+00 0.  1.
          3    1    3    3  501    0  0.27670749500E+03  0.11392001374E+03 -0.65879599630E+03  0.72357236823E+03  0.00000000000E+00 0.  1.
         21    1    1    2  502  501 -0.75964375444E-02  0.37937292287E-02  0.29198331858E+00  0.29210675544E+00  0.00000000000E+00 0. -1.
<mgrwt>
<rscale>  1 0.64769114E+03</rscale>
<asrwt>0</asrwt>
<pdfrwt beam="1">  1        1 0.38242992E+00 0.64769114E+03</pdfrwt>
<pdfrwt beam="2">0</pdfrwt>
<totfact> 0.16016137E+00</totfact>
</mgrwt>
</event>
<event>
 6    1  0.9652477E-003  0.6527749E+03  0.7818608E-02  0.9801586E-01
          1   -1    0    0  502    0  0.00000000000E+00  0.00000000000E+00  0.10674693349E+03  0.10674693349E+03  0.00000000000E+00 0.  1.
         13   -1    0    0    0    0 -0.00000000000E+00 -0.00000000000E+00 -0.10000000000E+04  0.10000000000E+04  0.00000000000E+00 0.  1.
    9000005    2    1    2  501    0  0.49280022669E+00  0.36905799843E+00 -0.89277905663E+03  0.11059699256E+04  0.65277458082E+03 0.  0.
         13    1    3    3    0    0  0.16047603088E+03  0.15554515436E+03 -0.85017301013E+03  0.87905688023E+03  0.00000000000E+00 0.  1.
          3    1    3    3  501    0 -0.15998323065E+03 -0.15517609636E+03 -0.42606046504E+02  0.22691304539E+03  0.00000000000E+00 0.  1.
         21    1    1    2  502  501 -0.49280022669E+00 -0.36905799843E+00 -0.47400987535E+00  0.77700787098E+00  0.00000000000E+00 0.  1.
<mgrwt>
<rscale>  1 0.65277487E+03</rscale>
<asrwt>0</asrwt>
<pdfrwt beam="1">  1        1 0.38817149E+00 0.65277487E+03</pdfrwt>
<pdfrwt beam="2">0</pdfrwt>
<totfact> 0.15092106E+00</totfact>
</mgrwt>
</event>
<event>
 6    1  0.9652477E-003  0.6137100E+03  0.7818608E-02  0.9877363E-01
          1   -1    0    0  502    0  0.00000000000E+00  0.00000000000E+00  0.94261214552E+02  0.94261214552E+02  0.00000000000E+00 0.  1.
         13   -1    0    0    0    0 -0.00000000000E+00 -0.00000000000E+00 -0.10000000000E+04  0.10000000000E+04  0.00000000000E+00 0.  1.
    9000005    2    1    2  501    0  0.49499086349E-01  0.50371777522E-01 -0.90582638169E+03  0.10941486953E+04  0.61370997117E+03 0.  0.
         13    1    3    3    0    0 -0.30420832617E+03  0.17508706448E+02 -0.51707493893E+03  0.60017976722E+03  0.00000000000E+00 0.  1.
          1    1    3    3  501    0  0.30425782525E+03 -0.17458334670E+02 -0.38875144276E+03  0.49396892810E+03  0.00000000000E+00 0.  1.
         21    1    1    2  502  501 -0.49499086349E-01 -0.50371777522E-01  0.87596244216E-01  0.11251923178E+00  0.00000000000E+00 0.  1.
<mgrwt>
<rscale>  1 0.61370998E+03</rscale>
<asrwt>0</asrwt>
<pdfrwt beam="1">  1        1 0.34276878E+00 0.61370998E+03</pdfrwt>
<pdfrwt beam="2">0</pdfrwt>
<totfact> 0.24039194E+00</totfact>
</mgrwt>
</event>
<event>
 6    1  0.9652477E-003  0.6566642E+03  0.7818608E-02  0.9794354E-01
          1   -1    0    0  502    0  0.00000000000E+00  0.00000000000E+00  0.10780198397E+03  0.10780198397E+03  0.00000000000E+00 0.  1.
         13   -1    0    0    0    0 -0.00000000000E+00 -0.00000000000E+00 -0.10000000000E+04  0.10000000000E+04  0.00000000000E+00 0.  1.
    9000005    2    1    2  501    0  0.34604792916E-05 -0.18644886381E-05 -0.89219801993E+03  0.11078019784E+04  0.65666423435E+03 0.  0.
         13    1    3    3    0    0  0.12860645928E+03  0.13995057484E+03 -0.89775340833E+03  0.91765296651E+03  0.00000000000E+00 0.  1.
          1    1    3    3  501    0 -0.12860645582E+03 -0.13995057671E+03  0.55553884049E+01  0.19014901193E+03  0.00000000000E+00 0.  1.
         21    1    1    2  502  501 -0.34604792742E-05  0.18644886517E-05  0.38982637774E-05  0.55360360564E-05  0.00000000000E+00 0.  1.
<mgrwt>
<rscale>  1 0.65666423E+03</rscale>
<asrwt>0</asrwt>
<pdfrwt beam="1">  1        1 0.39200804E+00 0.65666423E+03</pdfrwt>
<pdfrwt beam="2">0</pdfrwt>
<totfact> 0.14501787E+00</totfact>
</mgrwt>
</event>
<event>
 6    1  0.9652477E-003  0.6430939E+03  0.7818608E-02  0.9819825E-01
          1   -1    0    0  502    0  0.00000000000E+00  0.00000000000E+00  0.10430414516E+03  0.10430414516E+03  0.00000000000E+00 0.  1.
         13   -1    0    0    0    0 -0.00000000000E+00 -0.00000000000E+00 -0.10000000000E+04  0.10000000000E+04  0.00000000000E+00 0.  1.
    9000005    2    1    2  501    0  0.38671738152E+00  0.48022637157E+00 -0.89649114194E+03  0.11032978404E+04  0.64309359884E+03 0.  0.
         13    1    3    3    0    0 -0.10070706133E+03  0.30435727459E+03 -0.40230793498E+03  0.51441902895E+03  0.00000000000E+00 0.  1.
          3    1    3    3  501    0  0.10109377871E+03 -0.30387704821E+03 -0.49418320697E+03  0.58887881145E+03  0.00000000000E+00 0.  1.
         21    1    1    2  502  501 -0.38671738152E+00 -0.48022637157E+00  0.79528710538E+00  0.10063047655E+01  0.00000000000E+00 0. -1.
<mgrwt>
<rscale>  1 0.64309389E+03</rscale>
<asrwt>0</asrwt>
<pdfrwt beam="1">  1        1 0.37928860E+00 0.64309389E+03</pdfrwt>
<pdfrwt beam="2">0</pdfrwt>
<totfact> 0.16549736E+00</totfact>
</mgrwt>
</event>
<event>
 6    1  0.9652477E-003  0.5574495E+03  0.7818608E-02  0.9997842E-01
          1   -1    0    0  502    0  0.00000000000E+00  0.00000000000E+00  0.10695223405E+03  0.10695223405E+03  0.00000000000E+00 0.  1.
         13   -1    0    0    0    0 -0.00000000000E+00 -0.00000000000E+00 -0.10000000000E+04  0.10000000000E+04  0.00000000000E+00 0.  1.
    9000005    2    1    2  501    0 -0.71232047293E+01  0.66166327816E+00 -0.92184079568E+03  0.10772837928E+04  0.55740357001E+03 0.  0.
         13    1    3    3    0    0  0.85725415102E+02 -0.25702411690E+03 -0.57241686805E+03  0.63330191401E+03  0.00000000000E+00 0.  1.
          1    1    3    3  501    0 -0.92848619832E+02  0.25768578018E+03 -0.34942392763E+03  0.44398187881E+03  0.00000000000E+00 0.  1.
         21    1    1    2  502  501  0.71232047293E+01 -0.66166327816E+00  0.28793029729E+02  0.29668441228E+02  0.00000000000E+00 0. -1.
<mgrwt>
<rscale>  1 0.55744948E+03</rscale>
<asrwt>0</asrwt>
<pdfrwt beam="1">  1        1 0.38891803E+00 0.55744948E+03</pdfrwt>
<pdfrwt beam="2">0</pdfrwt>
<totfact> 0.15269059E+00</totfact>
</mgrwt>
</event>
<event>
 6    1  0.9652477E-003  0.6207405E+03  0.7818608E-02  0.9863286E-01
          1   -1    0    0  502    0  0.00000000000E+00  0.00000000000E+00  0.96329739431E+02  0.96329739431E+02  0.00000000000E+00 0.  1.
         13   -1    0    0    0    0 -0.00000000000E+00 -0.00000000000E+00 -0.10000000000E+04  0.10000000000E+04  0.00000000000E+00 0.  1.
    9000005    2    1    2  501    0 -0.14876940440E-04 -0.13246279529E-04 -0.90367029632E+03  0.10963296985E+04  0.62074052821E+03 0.  0.
         13    1    3    3    0    0  0.26723804170E+03 -0.46052405433E+02 -0.71847740440E+03  0.76794972206E+03  0.00000000000E+00 0.  1.
          3    1    3    3  501    0 -0.26723805658E+03  0.46052392187E+02 -0.18519289192E+03  0.32837997644E+03  0.00000000000E+00 0.  1.
         21    1    1    2  502  501  0.14876940410E-04  0.13246279531E-04  0.35753687709E-04  0.40928149997E-04  0.00000000000E+00 0. -1.
<mgrwt>
<rscale>  1 0.62074053E+03</rscale>
<asrwt>0</asrwt>
<pdfrwt beam="1">  1        1 0.35029070E+00 0.62074053E+03</pdfrwt>
<pdfrwt beam="2">0</pdfrwt>
<totfact> 0.22265794E+00</totfact>
</mgrwt>
</event>
<event>
 6    1  0.9652477E-003  0.6488008E+03  0.7818608E-02  0.9809032E-01
          1   -1    0    0  502    0  0.00000000000E+00  0.00000000000E+00  0.10534552986E+03  0.10534552986E+03  0.00000000000E+00 0.  1.
         13   -1    0    0    0    0 -0.00000000000E+00 -0.00000000000E+00 -0.10000000000E+04  0.10000000000E+04  0.00000000000E+00 0.  1.
    9000005    2    1    2  501    0 -0.58199078800E-02  0.19252706832E-02 -0.89476428066E+03  0.11052355484E+04  0.64880081643E+03 0.  0.
         13    1    3    3    0    0  0.29033088037E+03  0.14132801211E+03 -0.39436260459E+03  0.50969352654E+03  0.00000000000E+00 0.  1.
          3    1    3    3  501    0 -0.29033670028E+03 -0.14132608684E+03 -0.50040167607E+03  0.59554202183E+03  0.00000000000E+00 0.  1.
         21    1    1    2  502  501  0.58199078800E-02 -0.19252706832E-02  0.10981051782E+00  0.10998148852E+00  0.00000000000E+00 0.  1.
<mgrwt>
<rscale>  1 0.64880082E+03</rscale>
<asrwt>0</asrwt>
<pdfrwt beam="1">  1        1 0.38307546E+00 0.64880082E+03</pdfrwt>
<pdfrwt beam="2">0</pdfrwt>
<totfact> 0.15908045E+00</totfact>
</mgrwt>
</event>
<event>
 6    1  0.9652477E-003  0.6520512E+03  0.7818608E-02  0.9802938E-01
          1   -1    0    0  502    0  0.00000000000E+00  0.00000000000E+00  0.10655472320E+03  0.10655472320E+03  0.00000000000E+00 0.  1.
         13   -1    0    0    0    0 -0.00000000000E+00 -0.00000000000E+00 -0.10000000000E+04  0.10000000000E+04  0.00000000000E+00 0.  1.
    9000005    2    1    2  501    0 -0.73858439051E-01 -0.76611184335E-01 -0.89369529127E+03  0.11062830035E+04  0.65205122418E+03 0.  0.
         13    1    3    3    0    0 -0.11360031476E+03 -0.18849379973E+03 -0.85507492365E+03  0.88294284589E+03  0.00000000000E+00 0.  1.
          3    1    3    3  501    0  0.11352645632E+03  0.18841718854E+03 -0.38620367620E+02  0.22334015765E+03  0.00000000000E+00 0.  1.
         21    1    1    2  502  501  0.73858439051E-01  0.76611184335E-01  0.25001446466E+00  0.27171966275E+00  0.00000000000E+00 0. -1.
<mgrwt>
<rscale>  1 0.65205123E+03</rscale>
<asrwt>0</asrwt>
<pdfrwt beam="1">  1        1 0.38747254E+00 0.65205123E+03</pdfrwt>
<pdfrwt beam="2">0</pdfrwt>
<totfact> 0.15202118E+00</totfact>
</mgrwt>
</event>
<event>
 6    1  0.9652477E-003  0.6600981E+03  0.7818608E-02  0.9788013E-01
          1   -1    0    0  502    0  0.00000000000E+00  0.00000000000E+00  0.10894216571E+03  0.10894216571E+03  0.00000000000E+00 0.  1.
         13   -1    0    0    0    0 -0.00000000000E+00 -0.00000000000E+00 -0.10000000000E+04  0.10000000000E+04  0.00000000000E+00 0.  1.
    9000005    2    1    2  501    0 -0.19318161817E-02  0.15481799937E-03 -0.89106751030E+03  0.11089322975E+04  0.66009812345E+03 0.  0.
         13    1    3    3    0    0  0.52709885370E+01 -0.17341782005E+03 -0.91721053127E+03  0.93347559278E+03  0.00000000000E+00 0.  1.
          1    1    3    3  501    0 -0.52729203531E+01  0.17341797487E+03  0.26143020975E+02  0.17545670475E+03  0.00000000000E+00 0.  1.
         21    1    1    2  502  501  0.19318161817E-02 -0.15481799937E-03  0.96760124031E-02  0.98681861757E-02  0.00000000000E+00 0. -1.
<mgrwt>
<rscale>  1 0.66009812E+03</rscale>
<asrwt>0</asrwt>
<pdfrwt beam="1">  1        1 0.39615417E+00 0.66009812E+03</pdfrwt>
<pdfrwt beam="2">0</pdfrwt>
<totfact> 0.13890446E+00</totfact>
</mgrwt>
</event>
<event>
 6    1  0.9652477E-003  0.6468114E+03  0.7818608E-02  0.9812781E-01
          1   -1    0    0  502    0  0.00000000000E+00  0.00000000000E+00  0.10626760195E+03  0.10626760195E+03  0.00000000000E+00 0.  1.
         13   -1    0    0    0    0 -0.00000000000E+00 -0.00000000000E+00 -0.10000000000E+04  0.10000000000E+04  0.00000000000E+00 0.  1.
    9000005    2    1    2  501    0  0.16258759857E+01  0.22744445276E+00 -0.89495301842E+03  0.11042218459E+04  0.64680931085E+03 0.  0.
         13    1    3    3    0    0  0.18508446641E+03 -0.19205272733E+03 -0.76145159574E+03  0.80681413128E+03  0.00000000000E+00 0.  1.
          1    1    3    3  501    0 -0.18345859043E+03  0.19228017178E+03 -0.13350142268E+03  0.29740771463E+03  0.00000000000E+00 0.  1.
         21    1    1    2  502  501 -0.16258759857E+01 -0.22744445276E+00  0.12206203745E+01  0.20457560457E+01  0.00000000000E+00 0.  1.
<mgrwt>
<rscale>  1 0.64681139E+03</rscale>
<asrwt>0</asrwt>
<pdfrwt beam="1">  1        1 0.38642846E+00 0.64681139E+03</pdfrwt>
<pdfrwt beam="2">0</pdfrwt>
<totfact> 0.15379737E+00</totfact>
</mgrwt>
</event>
<event>
 6    1  0.9652477E-003  0.6242152E+03  0.7818608E-02  0.9856403E-01
          1   -1    0    0  502    0  0.00000000000E+00  0.00000000000E+00  0.97411168655E+02  0.97411168655E+02  0.00000000000E+00 0.  1.
         13   -1    0    0    0    0 -0.00000000000E+00 -0.00000000000E+00 -0.10000000000E+04  0.10000000000E+04  0.00000000000E+00 0.  1.
    9000005    2    1    2  501    0 -0.22233339543E-05  0.60552201830E-06 -0.90258883673E+03  0.10974111628E+04  0.62421522895E+03 0.  0.
         13    1    3    3    0    0  0.47541124705E+01 -0.29186003219E+03 -0.25705975858E+03  0.38895320986E+03  0.00000000000E+00 0.  1.
          3    1    3    3  501    0 -0.47541146938E+01  0.29186003280E+03 -0.64552907815E+03  0.70845795294E+03  0.00000000000E+00 0.  1.
         21    1    1    2  502  501  0.22233339550E-05 -0.60552202247E-06  0.53820807749E-05  0.58546275938E-05  0.00000000000E+00 0. -1.
<mgrwt>
<rscale>  1 0.62421523E+03</rscale>
<asrwt>0</asrwt>
<pdfrwt beam="1">  1        1 0.35422318E+00 0.62421523E+03</pdfrwt>
<pdfrwt beam="2">0</pdfrwt>
<totfact> 0.21390398E+00</totfact>
</mgrwt>
</event>
<event>
 6    1  0.9652477E-003  0.6292187E+03  0.7818608E-02  0.9846575E-01
          1   -1    0    0  502    0  0.00000000000E+00  0.00000000000E+00  0.99009129597E+02  0.99009129597E+02  0.00000000000E+00 0.  1.
         13   -1    0    0    0    0 -0.00000000000E+00 -0.00000000000E+00 -0.10000000000E+04  0.10000000000E+04  0.00000000000E+00 0.  1.
    9000005    2    1    2  501    0 -0.55405521192E-01 -0.30246473839E-01 -0.90097940332E+03  0.10989449726E+04  0.62921869307E+03 0.  0.
         13    1    3    3    0    0 -0.20734242670E+03 -0.23382084003E+03 -0.38672922478E+03  0.49721480312E+03  0.00000000000E+00 0.  1.
          3    1    3    3  501    0  0.20728702117E+03  0.23379059356E+03 -0.51425017854E+03  0.60173016952E+03  0.00000000000E+00 0.  1.
         21    1    1    2  502  501  0.55405521192E-01  0.30246473839E-01 -0.11467083782E-01  0.64156955732E-01  0.00000000000E+00 0. -1.
<mgrwt>
<rscale>  1 0.62921870E+03</rscale>
<asrwt>0</asrwt>
<pdfrwt beam="1">  1        1 0.36003396E+00 0.62921870E+03</pdfrwt>
<pdfrwt beam="2">0</pdfrwt>
<totfact> 0.20157767E+00</totfact>
</mgrwt>
</event>
<event>
 6    1  0.9652477E-003  0.6493125E+03  0.7818608E-02  0.9808070E-01
          1   -1    0    0  502    0  0.00000000000E+00  0.00000000000E+00  0.10543554513E+03  0.10543554513E+03  0.00000000000E+00 0.  1.
         13   -1    0    0    0    0 -0.00000000000E+00 -0.00000000000E+00 -0.10000000000E+04  0.10000000000E+04  0.00000000000E+00 0.  1.
    9000005    2    1    2  501    0  0.99454965039E-04 -0.50119897475E-03 -0.89459830107E+03  0.11054016951E+04  0.64931254969E+03 0.  0.
         13    1    3    3    0    0 -0.13899213002E+03  0.28914045045E+03 -0.36251007006E+03  0.48408115352E+03  0.00000000000E+00 0.  1.
          3    1    3    3  501    0  0.13899222947E+03 -0.28914095165E+03 -0.53208823101E+03  0.62132054155E+03  0.00000000000E+00 0.  1.
         21    1    1    2  502  501 -0.99454965043E-04  0.50119897474E-03  0.33846197991E-01  0.33850054802E-01  0.00000000000E+00 0.  1.
<mgrwt>
<rscale>  1 0.64931255E+03</rscale>
<asrwt>0</asrwt>
<pdfrwt beam="1">  1        1 0.38340279E+00 0.64931255E+03</pdfrwt>
<pdfrwt beam="2">0</pdfrwt>
<totfact> 0.15853650E+00</totfact>
</mgrwt>
</event>
<event>
 6    1  0.9652477E-003  0.7129247E+03  0.7818608E-02  0.9695381E-01
          1   -1    0    0  502    0  0.00000000000E+00  0.00000000000E+00  0.13185415970E+03  0.13185415970E+03  0.00000000000E+00 0.  1.
         13   -1    0    0    0    0 -0.00000000000E+00 -0.00000000000E+00 -0.10000000000E+04  0.10000000000E+04  0.00000000000E+00 0.  1.
    9000005    2    1    2  501    0 -0.11066641540E+00 -0.82048527810E-01 -0.87293349003E+03  0.11270645283E+04  0.71292464817E+03 0.  0.
         13    1    3    3    0    0  0.17602793289E+03 -0.27011878589E+03 -0.19610094269E+03  0.37736662726E+03  0.00000000000E+00 0.  1.
          1    1    3    3  501    0 -0.17613859931E+03  0.27003673736E+03 -0.67683254734E+03  0.74969790104E+03  0.00000000000E+00 0.  1.
         21    1    1    2  502  501  0.11066641540E+00  0.82048527810E-01  0.47876497309E+01  0.47896314015E+01  0.00000000000E+00 0. -1.
<mgrwt>
<rscale>  1 0.71292466E+03</rscale>
<asrwt>0</asrwt>
<pdfrwt beam="1">  1        1 0.47947068E+00 0.71292466E+03</pdfrwt>
<pdfrwt beam="2">0</pdfrwt>
<totfact> 0.57147537E-01</totfact>
</mgrwt>
</event>
<event>
 6    1  0.9652477E-003  0.6352993E+03  0.7818608E-02  0.9834762E-01
          1   -1    0    0  502    0  0.00000000000E+00  0.00000000000E+00  0.10090748874E+03  0.10090748874E+03  0.00000000000E+00 0.  1.
         13   -1    0    0    0    0 -0.00000000000E+00 -0.00000000000E+00 -0.10000000000E+04  0.10000000000E+04  0.00000000000E+00 0.  1.
    9000005    2    1    2  501    0  0.42828414747E-02 -0.12962555990E-01 -0.89908906386E+03  0.11008934084E+04  0.63529926159E+03 0.  0.
         13    1    3    3    0    0  0.20233582552E+03  0.13552525749E+03 -0.80295328410E+03  0.83907142614E+03  0.00000000000E+00 0.  1.
          1    1    3    3  501    0 -0.20233154268E+03 -0.13553822005E+03 -0.96135779757E+02  0.26182198229E+03  0.00000000000E+00 0.  1.
         21    1    1    2  502  501 -0.42828414747E-02  0.12962555990E-01 -0.34474039486E-02  0.14080311889E-01  0.00000000000E+00 0. -1.
<mgrwt>
<rscale>  1 0.63529926E+03</rscale>
<asrwt>0</asrwt>
<pdfrwt beam="1">  1        1 0.36693710E+00 0.63529926E+03</pdfrwt>
<pdfrwt beam="2">0</pdfrwt>
<totfact> 0.18781530E+00</totfact>
</mgrwt>
</event>
<event>
 6    1  0.9652477E-003  0.6531888E+03  0.7818608E-02  0.9800814E-01
          1   -1    0    0  502    0  0.00000000000E+00  0.00000000000E+00  0.10729336395E+03  0.10729336395E+03  0.00000000000E+00 0.  1.
         13   -1    0    0    0    0 -0.00000000000E+00 -0.00000000000E+00 -0.10000000000E+04  0.10000000000E+04  0.00000000000E+00 0.  1.
    9000005    2    1    2  501    0 -0.37094452206E-01 -0.38091453668E-01 -0.89333484904E+03  0.11066629050E+04  0.65318881644E+03 0.  0.
         13    1    3    3    0    0  0.15588619380E+03 -0.11881707565E+03 -0.40653019227E+01  0.19604726360E+03  0.00000000000E+00 0.  1.
          3    1    3    3  501    0 -0.15592328826E+03  0.11877898419E+03 -0.88926954711E+03  0.91061564138E+03  0.00000000000E+00 0.  1.
         21    1    1    2  502  501  0.37094452206E-01  0.38091453668E-01  0.62821298421E+00  0.63045896834E+00  0.00000000000E+00 0.  1.
<mgrwt>
<rscale>  1 0.65318882E+03</rscale>
<asrwt>0</asrwt>
<pdfrwt beam="1">  1        1 0.39015851E+00 0.65318882E+03</pdfrwt>
<pdfrwt beam="2">0</pdfrwt>
<totfact> 0.14787975E+00</totfact>
</mgrwt>
</event>
<event>
 6    1  0.9652477E-003  0.6262200E+03  0.7818608E-02  0.9852453E-01
          1   -1    0    0  502    0  0.00000000000E+00  0.00000000000E+00  0.98039612885E+02  0.98039612885E+02  0.00000000000E+00 0.  1.
         13   -1    0    0    0    0 -0.00000000000E+00 -0.00000000000E+00 -0.10000000000E+04  0.10000000000E+04  0.00000000000E+00 0.  1.
    9000005    2    1    2  501    0  0.78446980581E-03 -0.27466626758E-02 -0.90196075305E+03  0.10980367330E+04  0.62621998297E+03 0.  0.
         13    1    3    3    0    0  0.30323915784E+03 -0.45596325142E+02 -0.34001186337E+03  0.45786578705E+03  0.00000000000E+00 0.  1.
          1    1    3    3  501    0 -0.30323837338E+03  0.45593578479E+02 -0.56194888968E+03  0.64017094600E+03  0.00000000000E+00 0.  1.
         21    1    1    2  502  501 -0.78446980577E-03  0.27466626757E-02  0.36593793875E-03  0.28798366804E-02  0.00000000000E+00 0.  1.
<mgrwt>
<rscale>  1 0.62621998E+03</rscale>
<asrwt>0</asrwt>
<pdfrwt beam="1">  1        1 0.35650843E+00 0.62621998E+03</pdfrwt>
<pdfrwt beam="2">0</pdfrwt>
<totfact> 0.20897072E+00</totfact>
</mgrwt>
</event>
<event>
 6    1  0.9652477E-003  0.6551548E+03  0.7818608E-02  0.9797154E-01
          1   -1    0    0  502    0  0.00000000000E+00  0.00000000000E+00  0.10730699078E+03  0.10730699078E+03  0.00000000000E+00 0.  1.
         13   -1    0    0    0    0 -0.00000000000E+00 -0.00000000000E+00 -0.10000000000E+04  0.10000000000E+04  0.00000000000E+00 0.  1.
    9000005    2    1    2  501    0  0.12707701273E-05 -0.10884035305E-04 -0.89269305651E+03  0.11073069422E+04  0.65515476888E+03 0.  0.
         13    1    3    3    0    0  0.20885406611E+03 -0.24929381245E+03 -0.51266229768E+03  0.60711618107E+03  0.00000000000E+00 0.  1.
          1    1    3    3  501    0 -0.20885406484E+03  0.24929380156E+03 -0.38003075883E+03  0.50019076117E+03  0.00000000000E+00 0.  1.
         21    1    1    2  502  501 -0.12707701109E-05  0.10884035310E-04  0.47288842612E-04  0.48541855310E-04  0.00000000000E+00 0.  1.
<mgrwt>
<rscale>  1 0.65515477E+03</rscale>
<asrwt>0</asrwt>
<pdfrwt beam="1">  1        1 0.39020806E+00 0.65515477E+03</pdfrwt>
<pdfrwt beam="2">0</pdfrwt>
<totfact> 0.14775101E+00</totfact>
</mgrwt>
</event>
<event>
 6    1  0.9652477E-003  0.6584250E+03  0.7818608E-02  0.9791097E-01
          1   -1    0    0  502    0  0.00000000000E+00  0.00000000000E+00  0.10840217540E+03  0.10840217540E+03  0.00000000000E+00 0.  1.
         13   -1    0    0    0    0 -0.00000000000E+00 -0.00000000000E+00 -0.10000000000E+04  0.10000000000E+04  0.00000000000E+00 0.  1.
    9000005    2    1    2  501    0 -0.26400263843E-03  0.11284828431E-02 -0.89161910405E+03  0.11083808644E+04  0.65842502526E+03 0.  0.
         13    1    3    3    0    0 -0.82197758967E+01 -0.27092151851E+03 -0.76035615320E+03  0.80722209683E+03  0.00000000000E+00 0.  1.
          1    1    3    3  501    0  0.82195118941E+01  0.27092264699E+03 -0.13126295085E+03  0.30115876759E+03  0.00000000000E+00 0.  1.
         21    1    1    2  502  501  0.26400263842E-03 -0.11284828432E-02  0.21279452561E-01  0.21310989471E-01  0.00000000000E+00 0. -1.
<mgrwt>
<rscale>  1 0.65842503E+03</rscale>
<asrwt>0</asrwt>
<pdfrwt beam="1">  1        1 0.39419056E+00 0.65842503E+03</pdfrwt>
<pdfrwt beam="2">0</pdfrwt>
<totfact> 0.14176994E+00</totfact>
</mgrwt>
</event>
<event>
 6    1  0.9652477E-003  0.6480177E+03  0.7818608E-02  0.9810506E-01
          1   -1    0    0  502    0  0.00000000000E+00  0.00000000000E+00  0.10503643351E+03  0.10503643351E+03  0.00000000000E+00 0.  1.
         13   -1    0    0    0    0 -0.00000000000E+00 -0.00000000000E+00 -0.10000000000E+04  0.10000000000E+04  0.00000000000E+00 0.  1.
    9000005    2    1    2  501    0  0.53478475900E-01 -0.90899722674E-01 -0.89495515015E+03  0.11049306340E+04  0.64801772660E+03 0.  0.
         13    1    3    3    0    0 -0.96256575657E+02 -0.28914713962E+03 -0.25971852489E+03  0.40040617987E+03  0.00000000000E+00 0.  1.
          1    1    3    3  501    0  0.96310054133E+02  0.28905623990E+03 -0.63523662526E+03  0.70452445410E+03  0.00000000000E+00 0.  1.
         21    1    1    2  502  501 -0.53478475900E-01  0.90899722674E-01 -0.84163412150E-02  0.10579953576E+00  0.00000000000E+00 0. -1.
<mgrwt>
<rscale>  1 0.64801774E+03</rscale>
<asrwt>0</asrwt>
<pdfrwt beam="1">  1        1 0.38195147E+00 0.64801774E+03</pdfrwt>
<pdfrwt beam="2">0</pdfrwt>
<totfact> 0.16093293E+00</totfact>
</mgrwt>
</event>
<event>
 6    1  0.9652477E-003  0.6494020E+03  0.7818608E-02  0.9807902E-01
          1   -1    0    0  502    0  0.00000000000E+00  0.00000000000E+00  0.10543609326E+03  0.10543609326E+03  0.00000000000E+00 0.  1.
         13   -1    0    0    0    0 -0.00000000000E+00 -0.00000000000E+00 -0.10000000000E+04  0.10000000000E+04  0.00000000000E+00 0.  1.
    9000005    2    1    2  501    0  0.96760052152E-03  0.12428348802E-01 -0.89455952715E+03  0.11054228803E+04  0.64940203005E+03 0.  0.
         13    1    3    3    0    0 -0.28070055046E+02  0.32344374349E+03 -0.43781701176E+03  0.54505735385E+03  0.00000000000E+00 0.  1.
          3    1    3    3  501    0  0.28071022647E+02 -0.32343131514E+03 -0.45674251539E+03  0.56036552650E+03  0.00000000000E+00 0.  1.
         21    1    1    2  502  501 -0.96760052152E-03 -0.12428348802E-01 -0.43795922945E-02  0.13212907832E-01  0.00000000000E+00 0.  1.
<mgrwt>
<rscale>  1 0.64940203E+03</rscale>
<asrwt>0</asrwt>
<pdfrwt beam="1">  1        1 0.38340478E+00 0.64940203E+03</pdfrwt>
<pdfrwt beam="2">0</pdfrwt>
<totfact> 0.15853067E+00</totfact>
</mgrwt>
</event>
<event>
 6    1  0.9652477E-003  0.6503252E+03  0.7818608E-02  0.9806169E-01
          1   -1    0    0  502    0  0.00000000000E+00  0.00000000000E+00  0.10843778110E+03  0.10843778110E+03  0.00000000000E+00 0.  1.
         13   -1    0    0    0    0 -0.00000000000E+00 -0.00000000000E+00 -0.10000000000E+04  0.10000000000E+04  0.00000000000E+00 0.  1.
    9000005    2    1    2  501    0  0.40414040934E+00  0.46060810165E+00 -0.89423088069E+03  0.11056996713E+04  0.65032493396E+03 0.  0.
         13    1    3    3    0    0  0.23639482533E+03  0.22313954204E+03 -0.42037452741E+03  0.53140240116E+03  0.00000000000E+00 0.  1.
          3    1    3    3  501    0 -0.23599068492E+03 -0.22267893394E+03 -0.47385635329E+03  0.57429727018E+03  0.00000000000E+00 0.  1.
         21    1    1    2  502  501 -0.40414040934E+00 -0.46060810165E+00  0.26686617901E+01  0.27381097574E+01  0.00000000000E+00 0. -1.
<mgrwt>
<rscale>  1 0.65032522E+03</rscale>
<asrwt>0</asrwt>
<pdfrwt beam="1">  1        1 0.39432004E+00 0.65032522E+03</pdfrwt>
<pdfrwt beam="2">0</pdfrwt>
<totfact> 0.14179693E+00</totfact>
</mgrwt>
</event>
<event>
 6    1  0.9652477E-003  0.6458670E+03  0.7818608E-02  0.9814565E-01
          1   -1    0    0  502    0  0.00000000000E+00  0.00000000000E+00  0.11054782183E+03  0.11054782183E+03  0.00000000000E+00 0.  1.
         13   -1    0    0    0    0 -0.00000000000E+00 -0.00000000000E+00 -0.10000000000E+04  0.10000000000E+04  0.00000000000E+00 0.  1.
    9000005    2    1    2  501    0 -0.18231177008E+01  0.29467337470E+01 -0.89518025161E+03  0.11038532103E+04  0.64585773979E+03 0.  0.
         13    1    3    3    0    0  0.14074474457E+03  0.70653286358E+02  0.34210795495E+02  0.16115628603E+03  0.00000000000E+00 0.  1.
          1    1    3    3  501    0 -0.14256786227E+03 -0.67706552611E+02 -0.92939104711E+03  0.94269692429E+03  0.00000000000E+00 0.  1.
         21    1    1    2  502  501  0.18231177008E+01 -0.29467337470E+01  0.57280734463E+01  0.66946115147E+01  0.00000000000E+00 0.  1.
<mgrwt>
<rscale>  1 0.64586704E+03</rscale>
<asrwt>0</asrwt>
<pdfrwt beam="1">  1        1 0.40199293E+00 0.64586704E+03</pdfrwt>
<pdfrwt beam="2">0</pdfrwt>
<totfact> 0.13118099E+00</totfact>
</mgrwt>
</event>
<event>
 6    1  0.9652477E-003  0.6676902E+03  0.7818608E-02  0.9774140E-01
          1   -1    0    0  502    0  0.00000000000E+00  0.00000000000E+00  0.11174100975E+03  0.11174100975E+03  0.00000000000E+00 0.  1.
         13   -1    0    0    0    0 -0.00000000000E+00 -0.00000000000E+00 -0.10000000000E+04  0.10000000000E+04  0.00000000000E+00 0.  1.
    9000005    2    1    2  501    0 -0.32216769969E-01 -0.10650072310E+00 -0.88853547514E+03  0.11114429758E+04  0.66769018681E+03 0.  0.
         13    1    3    3    0    0 -0.18755083638E+03 -0.14353403234E+03 -0.51460659630E+02  0.24171374424E+03  0.00000000000E+00 0.  1.
          3    1    3    3  501    0  0.18751861961E+03  0.14342753162E+03 -0.83707481551E+03  0.86972923159E+03  0.00000000000E+00 0.  1.
         21    1    1    2  502  501  0.32216769969E-01  0.10650072310E+00  0.27648488288E+00  0.29803391543E+00  0.00000000000E+00 0. -1.
<mgrwt>
<rscale>  1 0.66769020E+03</rscale>
<asrwt>0</asrwt>
<pdfrwt beam="1">  1        1 0.40633180E+00 0.66769020E+03</pdfrwt>
<pdfrwt beam="2">0</pdfrwt>
<totfact> 0.12493385E+00</totfact>
</mgrwt>
</event>
<event>
 6    1  0.9652477E-003  0.6076522E+03  0.7818608E-02  0.9889656E-01
          1   -1    0    0  502    0  0.00000000000E+00  0.00000000000E+00  0.92311158179E+02  0.92311158179E+02  0.00000000000E+00 0.  1.
         13   -1    0    0    0    0 -0.00000000000E+00 -0.00000000000E+00 -0.10000000000E+04  0.10000000000E+04  0.00000000000E+00 0.  1.
    9000005    2    1    2  501    0 -0.47916417283E-03 -0.19445209840E-02 -0.90768816930E+03  0.10923090456E+04  0.60765223474E+03 0.  0.
         13    1    3    3    0    0 -0.11274175503E+03  0.47580104711E+02 -0.95374089173E+03  0.96155928484E+03  0.00000000000E+00 0.  1.
          3    1    3    3  501    0  0.11274127587E+03 -0.47582049232E+02  0.46052722434E+02  0.13074976075E+03  0.00000000000E+00 0.  1.
         21    1    1    2  502  501  0.47916417284E-03  0.19445209840E-02 -0.67252287907E-03  0.21125925269E-02  0.00000000000E+00 0. -1.
<mgrwt>
<rscale>  1 0.60765223E+03</rscale>
<asrwt>0</asrwt>
<pdfrwt beam="1">  1        1 0.33567765E+00 0.60765223E+03</pdfrwt>
<pdfrwt beam="2">0</pdfrwt>
<totfact> 0.25833242E+00</totfact>
</mgrwt>
</event>
<event>
 6    1  0.9652477E-003  0.6514445E+03  0.7818608E-02  0.9804072E-01
          3   -1    0    0  502    0  0.00000000000E+00  0.00000000000E+00  0.10616710981E+03  0.10616710981E+03  0.00000000000E+00 0.  1.
         13   -1    0    0    0    0 -0.00000000000E+00 -0.00000000000E+00 -0.10000000000E+04  0.10000000000E+04  0.00000000000E+00 0.  1.
    9000005    2    1    2  501    0 -0.53898900756E-01  0.11369467842E-03 -0.89389369109E+03  0.11060858580E+04  0.65144454209E+03 0.  0.
         13    1    3    3    0    0  0.19860507484E+03 -0.69052993756E+02 -0.24587947999E+02  0.21169992651E+03  0.00000000000E+00 0.  1.
          1    1    3    3  501    0 -0.19865897374E+03  0.69053107451E+02 -0.86930574309E+03  0.89438593150E+03  0.00000000000E+00 0.  1.
         21    1    1    2  502  501  0.53898900756E-01 -0.11369467843E-03  0.60800899887E-01  0.81251792941E-01  0.00000000000E+00 0.  1.
<mgrwt>
<rscale>  1 0.65144454E+03</rscale>
<asrwt>0</asrwt>
<pdfrwt beam="1">  1        3 0.38606303E+00 0.65144454E+03</pdfrwt>
<pdfrwt beam="2">0</pdfrwt>
<totfact> 0.70102388E-02</totfact>
</mgrwt>
</event>
<event>
 6    1  0.1021794E-002  0.5617557E+03  0.7818608E-02  0.9988090E-01
          1   -1    0    0  502    0  0.00000000000E+00  0.00000000000E+00  0.78892384993E+02  0.78892384993E+02  0.00000000000E+00 0.  1.
         13   -1    0    0    0    0 -0.00000000000E+00 -0.00000000000E+00 -0.10000000000E+04  0.10000000000E+04  0.00000000000E+00 0.  1.
    9000005    2    1    2  501    0  0.31321889402E-05  0.12427576991E-04 -0.92110761554E+03  0.10788923722E+04  0.56175573990E+03 0.  0.
         13    1    3    3    0    0 -0.27568215357E+02 -0.17374160219E+03 -0.88109428735E+03  0.89848388635E+03  0.00000000000E+00 0.  1.
          1    1    3    3  501    0  0.27568218489E+02  0.17374161462E+03 -0.40013328189E+02  0.18040848581E+03  0.00000000000E+00 0.  1.
         21    1    1    2  502  501 -0.31321889384E-05 -0.12427577002E-04  0.53362864537E-06  0.12827316057E-04  0.00000000000E+00 0. -1.
<mgrwt>
<rscale>  1 0.56175574E+03</rscale>
<asrwt>0</asrwt>
<pdfrwt beam="1">  1        1 0.28688200E+00 0.56175574E+03</pdfrwt>
<pdfrwt beam="2">0</pdfrwt>
<totfact> 0.42317718E+00</totfact>
</mgrwt>
</event>
<event>
 6    1  0.9652477E-003  0.6290935E+03  0.7818608E-02  0.9846819E-01
          1   -1    0    0  502    0  0.00000000000E+00  0.00000000000E+00  0.99079293864E+02  0.99079293864E+02  0.00000000000E+00 0.  1.
         13   -1    0    0    0    0 -0.00000000000E+00 -0.00000000000E+00 -0.10000000000E+04  0.10000000000E+04  0.00000000000E+00 0.  1.
    9000005    2    1    2  501    0  0.96457500860E-02 -0.30419648028E-01 -0.90105833257E+03  0.10989380160E+04  0.62909350920E+03 0.  0.
         13    1    3    3    0    0 -0.30114052605E+03 -0.63324024990E+01 -0.29222982128E+03  0.41967128112E+03  0.00000000000E+00 0.  1.
          1    1    3    3  501    0  0.30115017180E+03  0.63019828510E+01 -0.60882851129E+03  0.67926673489E+03  0.00000000000E+00 0.  1.
         21    1    1    2  502  501 -0.96457500860E-02  0.30419648028E-01  0.13762643745E+00  0.14127785306E+00  0.00000000000E+00 0. -1.
<mgrwt>
<rscale>  1 0.62909351E+03</rscale>
<asrwt>0</asrwt>
<pdfrwt beam="1">  1        1 0.36028910E+00 0.62909351E+03</pdfrwt>
<pdfrwt beam="2">0</pdfrwt>
<totfact> 0.20106493E+00</totfact>
</mgrwt>
</event>
<event>
 6    1  0.9652477E-003  0.6529117E+03  0.7818608E-02  0.9801331E-01
          1   -1    0    0  502    0  0.00000000000E+00  0.00000000000E+00  0.10658650271E+03  0.10658650271E+03  0.00000000000E+00 0.  1.
         13   -1    0    0    0    0 -0.00000000000E+00 -0.00000000000E+00 -0.10000000000E+04  0.10000000000E+04  0.00000000000E+00 0.  1.
    9000005    2    1    2  501    0  0.89372113445E-03  0.18035884317E-02 -0.89342648522E+03  0.11065733597E+04  0.65291172143E+03 0.  0.
         13    1    3    3    0    0  0.22045519032E+03 -0.10593287424E+03 -0.80257127514E+02  0.25741692116E+03  0.00000000000E+00 0.  1.
          1    1    3    3  501    0 -0.22045429660E+03  0.10593467783E+03 -0.81316935770E+03  0.84915643857E+03  0.00000000000E+00 0.  1.
         21    1    1    2  502  501 -0.89372113444E-03 -0.18035884317E-02  0.12987928243E-01  0.13142980969E-01  0.00000000000E+00 0. -1.
<mgrwt>
<rscale>  1 0.65291172E+03</rscale>
<asrwt>0</asrwt>
<pdfrwt beam="1">  1        1 0.38758810E+00 0.65291172E+03</pdfrwt>
<pdfrwt beam="2">0</pdfrwt>
<totfact> 0.15181795E+00</totfact>
</mgrwt>
</event>
<event>
 6    1  0.9652477E-003  0.6494034E+03  0.7818608E-02  0.9807899E-01
          1   -1    0    0  502    0  0.00000000000E+00  0.00000000000E+00  0.13444199320E+03  0.13444199320E+03  0.00000000000E+00 0.  1.
         13   -1    0    0    0    0 -0.00000000000E+00 -0.00000000000E+00 -0.10000000000E+04  0.10000000000E+04  0.00000000000E+00 0.  1.
    9000005    2    1    2  501    0 -0.49585635202E+02 -0.43321408676E+02 -0.84448581397E+03  0.10653079424E+04  0.64605668674E+03 0.  0.
         13    1    3    3    0    0 -0.24640299726E+03  0.18421880284E+03 -0.61241675523E+03  0.68535048440E+03  0.00000000000E+00 0.  1.
          3    1    3    3  501    0  0.19681736206E+03 -0.22754021152E+03 -0.23206905874E+03  0.37995745800E+03  0.00000000000E+00 0.  1.
         21    1    1    2  502  501  0.49585635202E+02  0.43321408676E+02 -0.21072192832E+02  0.69134050791E+02  0.00000000000E+00 0.  1.
<mgrwt>
<rscale>  1 0.64940336E+03</rscale>
<asrwt>0</asrwt>
<pdfrwt beam="1">  1        1 0.48888101E+00 0.64940336E+03</pdfrwt>
<pdfrwt beam="2">0</pdfrwt>
<totfact> 0.52267541E-01</totfact>
</mgrwt>
</event>
<event>
 6    1  0.9652477E-003  0.6472253E+03  0.7818608E-02  0.9812000E-01
          1   -1    0    0  502    0  0.00000000000E+00  0.00000000000E+00  0.10598985260E+03  0.10598985260E+03  0.00000000000E+00 0.  1.
         13   -1    0    0    0    0 -0.00000000000E+00 -0.00000000000E+00 -0.10000000000E+04  0.10000000000E+04  0.00000000000E+00 0.  1.
    9000005    2    1    2  501    0  0.90358189884E-02 -0.84913064795E-01 -0.89527326520E+03  0.11047238516E+04  0.64722527892E+03 0.  0.
         13    1    3    3    0    0 -0.20156665968E+03  0.33871032158E+02 -0.19397967426E+02  0.20531109627E+03  0.00000000000E+00 0.  1.
          1    1    3    3  501    0  0.20157569550E+03 -0.33955945223E+02 -0.87587529778E+03  0.89941275535E+03  0.00000000000E+00 0.  1.
         21    1    1    2  502  501 -0.90358189884E-02  0.84913064795E-01  0.12631178091E+01  0.12660009772E+01  0.00000000000E+00 0. -1.
<mgrwt>
<rscale>  1 0.64722528E+03</rscale>
<asrwt>0</asrwt>
<pdfrwt beam="1">  1        1 0.38541846E+00 0.64722528E+03</pdfrwt>
<pdfrwt beam="2">0</pdfrwt>
<totfact> 0.15537616E+00</totfact>
</mgrwt>
</event>
<event>
 6    1  0.9652477E-003  0.6292050E+03  0.7818608E-02  0.9846601E-01
          1   -1    0    0  502    0  0.00000000000E+00  0.00000000000E+00  0.99024477395E+02  0.99024477395E+02  0.00000000000E+00 0.  1.
         13   -1    0    0    0    0 -0.00000000000E+00 -0.00000000000E+00 -0.10000000000E+04  0.10000000000E+04  0.00000000000E+00 0.  1.
    9000005    2    1    2  501    0 -0.14714004795E-02  0.18244941529E-01 -0.90102340481E+03  0.10989732158E+04  0.62920501647E+03 0.  0.
         13    1    3    3    0    0 -0.24577492372E+03 -0.10740151900E+03 -0.16333746814E+03  0.31403746259E+03  0.00000000000E+00 0.  1.
          3    1    3    3  501    0  0.24577345232E+03  0.10741976394E+03 -0.73768593667E+03  0.78493575324E+03  0.00000000000E+00 0.  1.
         21    1    1    2  502  501  0.14714004795E-02 -0.18244941529E-01  0.47882205236E-01  0.51261569319E-01  0.00000000000E+00 0.  1.
<mgrwt>
<rscale>  1 0.62920502E+03</rscale>
<asrwt>0</asrwt>
<pdfrwt beam="1">  1        1 0.36008977E+00 0.62920502E+03</pdfrwt>
<pdfrwt beam="2">0</pdfrwt>
<totfact> 0.20146491E+00</totfact>
</mgrwt>
</event>
<event>
 6    1  0.9652477E-003  0.7244760E+03  0.7818608E-02  0.9676267E-01
          1   -1    0    0  502    0  0.00000000000E+00  0.00000000000E+00  0.13121741532E+03  0.13121741532E+03  0.00000000000E+00 0.  1.
         13   -1    0    0    0    0 -0.00000000000E+00 -0.00000000000E+00 -0.10000000000E+04  0.10000000000E+04  0.00000000000E+00 0.  1.
    9000005    2    1    2  501    0 -0.23986945535E-02 -0.15178661995E-02 -0.86877981706E+03  0.11312134508E+04  0.72447601806E+03 0.  0.
         13    1    3    3    0    0 -0.18216325148E+03 -0.15829448550E+03 -0.12585821946E+02  0.24165884475E+03  0.00000000000E+00 0.  1.
          3    1    3    3  501    0  0.18216085278E+03  0.15829296764E+03 -0.85619399512E+03  0.88955460606E+03  0.00000000000E+00 0.  1.
         21    1    1    2  502  501  0.23986945535E-02  0.15178661995E-02 -0.27676165149E-02  0.39645118911E-02  0.00000000000E+00 0.  1.
<mgrwt>
<rscale>  1 0.72447602E+03</rscale>
<asrwt>0</asrwt>
<pdfrwt beam="1">  1        1 0.47715524E+00 0.72447602E+03</pdfrwt>
<pdfrwt beam="2">0</pdfrwt>
<totfact> 0.58471560E-01</totfact>
</mgrwt>
</event>
<event>
 6    1  0.9652477E-003  0.6482050E+03  0.7818608E-02  0.9810153E-01
          1   -1    0    0  502    0  0.00000000000E+00  0.00000000000E+00  0.10504343199E+03  0.10504343199E+03  0.00000000000E+00 0.  1.
         13   -1    0    0    0    0 -0.00000000000E+00 -0.00000000000E+00 -0.10000000000E+04  0.10000000000E+04  0.00000000000E+00 0.  1.
    9000005    2    1    2  501    0 -0.14961758592E-03  0.19346417289E-03 -0.89495756846E+03  0.11050424021E+04  0.64820495298E+03 0.  0.
         13    1    3    3    0    0  0.31962001869E+03 -0.19095177931E+02 -0.53307087781E+03  0.62184093058E+03  0.00000000000E+00 0.  1.
          1    1    3    3  501    0 -0.31962016831E+03  0.19095371395E+02 -0.36188669064E+03  0.48320147151E+03  0.00000000000E+00 0.  1.
         21    1    1    2  502  501  0.14961758592E-03 -0.19346417289E-03  0.10004420650E-02  0.10299020020E-02  0.00000000000E+00 0. -1.
<mgrwt>
<rscale>  1 0.64820495E+03</rscale>
<asrwt>0</asrwt>
<pdfrwt beam="1">  1        1 0.38197692E+00 0.64820495E+03</pdfrwt>
<pdfrwt beam="2">0</pdfrwt>
<totfact> 0.16088574E+00</totfact>
</mgrwt>
</event>
<event>
 6    1  0.9652477E-003  0.6573737E+03  0.7818608E-02  0.9793040E-01
          3   -1    0    0  502    0  0.00000000000E+00  0.00000000000E+00  0.10811052902E+03  0.10811052902E+03  0.00000000000E+00 0.  1.
         13   -1    0    0    0    0 -0.00000000000E+00 -0.00000000000E+00 -0.10000000000E+04  0.10000000000E+04  0.00000000000E+00 0.  1.
    9000005    2    1    2  501    0 -0.93991084735E-02 -0.77528777688E-01 -0.89194187812E+03  0.11080164782E+04  0.65737371096E+03 0.  0.
         13    1    3    3    0    0 -0.96034644345E+02  0.14959712861E+03  0.20006399505E+02  0.17889161474E+03  0.00000000000E+00 0.  1.
          1    1    3    3  501    0  0.96025245237E+02 -0.14967465739E+03 -0.91194827762E+03  0.92912486343E+03  0.00000000000E+00 0.  1.
         21    1    1    2  502  501  0.93991084735E-02  0.77528777688E-01  0.52407132402E-01  0.94050848675E-01  0.00000000000E+00 0.  1.
<mgrwt>
<rscale>  1 0.65737372E+03</rscale>
<asrwt>0</asrwt>
<pdfrwt beam="1">  1        3 0.39313003E+00 0.65737372E+03</pdfrwt>
<pdfrwt beam="2">0</pdfrwt>
<totfact> 0.64285455E-02</totfact>
</mgrwt>
</event>
<event>
 6    1  0.9652477E-003  0.6462360E+03  0.7818608E-02  0.9813868E-01
          1   -1    0    0  502    0  0.00000000000E+00  0.00000000000E+00  0.10440524258E+03  0.10440524258E+03  0.00000000000E+00 0.  1.
         13   -1    0    0    0    0 -0.00000000000E+00 -0.00000000000E+00 -0.10000000000E+04  0.10000000000E+04  0.00000000000E+00 0.  1.
    9000005    2    1    2  501    0  0.79649486224E-05 -0.10336647236E-05 -0.89559477273E+03  0.11044052253E+04  0.64623595128E+03 0.  0.
         13    1    3    3    0    0  0.27346760587E+03  0.35166246510E+02 -0.73571908006E+03  0.78568680854E+03  0.00000000000E+00 0.  1.
          1    1    3    3  501    0 -0.27346759791E+03 -0.35166247544E+02 -0.15987569266E+03  0.31871841675E+03  0.00000000000E+00 0.  1.
         21    1    1    2  502  501 -0.79649485903E-05  0.10336647225E-05  0.15309831847E-04  0.17288719443E-04  0.00000000000E+00 0. -1.
<mgrwt>
<rscale>  1 0.64623595E+03</rscale>
<asrwt>0</asrwt>
<pdfrwt beam="1">  1        1 0.37965623E+00 0.64623595E+03</pdfrwt>
<pdfrwt beam="2">0</pdfrwt>
<totfact> 0.16478528E+00</totfact>
</mgrwt>
</event>
<event>
 6    1  0.9652477E-003  0.6462543E+03  0.7818608E-02  0.9813833E-01
          3   -1    0    0  502    0  0.00000000000E+00  0.00000000000E+00  0.10441114159E+03  0.10441114159E+03  0.00000000000E+00 0.  1.
         13   -1    0    0    0    0 -0.00000000000E+00 -0.00000000000E+00 -0.10000000000E+04  0.10000000000E+04  0.00000000000E+00 0.  1.
    9000005    2    1    2  501    0 -0.11245216740E-05  0.41329676321E-05 -0.89558885683E+03  0.11044111370E+04  0.64625425269E+03 0.  0.
         13    1    3    3    0    0 -0.14543315827E+03 -0.12215062763E+03 -0.89454328761E+03  0.91448306313E+03  0.00000000000E+00 0.  1.
          1    1    3    3  501    0  0.14543315715E+03  0.12215063176E+03 -0.10455692171E+01  0.18992807389E+03  0.00000000000E+00 0.  1.
         21    1    1    2  502  501  0.11245216786E-05 -0.41329676263E-05 -0.15809925791E-05  0.45656881126E-05  0.00000000000E+00 0. -1.
<mgrwt>
<rscale>  1 0.64625425E+03</rscale>
<asrwt>0</asrwt>
<pdfrwt beam="1">  1        3 0.37967768E+00 0.64625425E+03</pdfrwt>
<pdfrwt beam="2">0</pdfrwt>
<totfact> 0.75822616E-02</totfact>
</mgrwt>
</event>
<event>
 6    1  0.9652477E-003  0.6553797E+03  0.7818608E-02  0.9796737E-01
          1   -1    0    0  502    0  0.00000000000E+00  0.00000000000E+00  0.11014823300E+03  0.11014823300E+03  0.00000000000E+00 0.  1.
         13   -1    0    0    0    0 -0.00000000000E+00 -0.00000000000E+00 -0.10000000000E+04  0.10000000000E+04  0.00000000000E+00 0.  1.
    9000005    2    1    2  501    0  0.86774741410E-01  0.26515416695E+00 -0.89261157476E+03  0.11073743593E+04  0.65537963833E+03 0.  0.
         13    1    3    3    0    0 -0.13507145318E+03  0.10619479217E+03 -0.91786151488E+03  0.93380479322E+03  0.00000000000E+00 0.  1.
          3    1    3    3  501    0  0.13515822793E+03 -0.10592963800E+03  0.25249940120E+02  0.17356956605E+03  0.00000000000E+00 0.  1.
         21    1    1    2  502  501 -0.86774741410E-01 -0.26515416695E+00  0.27598077616E+01  0.27738737299E+01  0.00000000000E+00 0. -1.
<mgrwt>
<rscale>  1 0.65537970E+03</rscale>
<asrwt>0</asrwt>
<pdfrwt beam="1">  1        1 0.40053987E+00 0.65537970E+03</pdfrwt>
<pdfrwt beam="2">0</pdfrwt>
<totfact> 0.13291214E+00</totfact>
</mgrwt>
</event>
<event>
 6    1  0.9652477E-003  0.6456685E+03  0.7818608E-02  0.9814941E-01
          1   -1    0    0  502    0  0.00000000000E+00  0.00000000000E+00  0.10422210493E+03  0.10422210493E+03  0.00000000000E+00 0.  1.
         13   -1    0    0    0    0 -0.00000000000E+00 -0.00000000000E+00 -0.10000000000E+04  0.10000000000E+04  0.00000000000E+00 0.  1.
    9000005    2    1    2  501    0 -0.77236609286E-05  0.80387403329E-05 -0.89577805499E+03  0.11042219446E+04  0.64566847468E+03 0.  0.
         13    1    3    3    0    0 -0.99002401378E+01  0.11051778392E+03  0.70585689702E+02  0.13150868758E+03  0.00000000000E+00 0.  1.
          3    1    3    3  501    0  0.99002324142E+01 -0.11051777588E+03 -0.96636374469E+03  0.97271325705E+03  0.00000000000E+00 0.  1.
         21    1    1    2  502  501  0.77236609270E-05 -0.80387403343E-05  0.15991403468E-03  0.16030213589E-03  0.00000000000E+00 0.  1.
<mgrwt>
<rscale>  1 0.64566847E+03</rscale>
<asrwt>0</asrwt>
<pdfrwt beam="1">  1        1 0.37899027E+00 0.64566847E+03</pdfrwt>
<pdfrwt beam="2">0</pdfrwt>
<totfact> 0.16592089E+00</totfact>
</mgrwt>
</event>
<event>
 6    1  0.9652477E-003  0.6573914E+03  0.7818608E-02  0.9793008E-01
          1   -1    0    0  502    0  0.00000000000E+00  0.00000000000E+00  0.10809960287E+03  0.10809960287E+03  0.00000000000E+00 0.  1.
         13   -1    0    0    0    0 -0.00000000000E+00 -0.00000000000E+00 -0.10000000000E+04  0.10000000000E+04  0.00000000000E+00 0.  1.
    9000005    2    1    2  501    0  0.26087475555E-03 -0.24574907411E-02 -0.89195911966E+03  0.11080408284E+04  0.65739136453E+03 0.  0.
         13    1    3    3    0    0  0.16836347115E+03 -0.24592206075E+03 -0.21232264048E+03  0.36593007808E+03  0.00000000000E+00 0.  1.
          3    1    3    3  501    0 -0.16836321028E+03  0.24591960326E+03 -0.67963647918E+03  0.74211075028E+03  0.00000000000E+00 0.  1.
         21    1    1    2  502  501 -0.26087475555E-03  0.24574907411E-02  0.58722532435E-01  0.58774510903E-01  0.00000000000E+00 0. -1.
<mgrwt>
<rscale>  1 0.65739136E+03</rscale>
<asrwt>0</asrwt>
<pdfrwt beam="1">  1        1 0.39309029E+00 0.65739136E+03</pdfrwt>
<pdfrwt beam="2">0</pdfrwt>
<totfact> 0.14340249E+00</totfact>
</mgrwt>
</event>
<event>
 6    1  0.9652477E-003  0.6292139E+03  0.7818608E-02  0.9846584E-01
          1   -1    0    0  502    0  0.00000000000E+00  0.00000000000E+00  0.10681149662E+03  0.10681149662E+03  0.00000000000E+00 0.  1.
         13   -1    0    0    0    0 -0.00000000000E+00 -0.00000000000E+00 -0.10000000000E+04  0.10000000000E+04  0.00000000000E+00 0.  1.
    9000005    2    1    2  501    0 -0.17090259735E+00  0.45429248867E-02 -0.90102144241E+03  0.10989766921E+04  0.62921387526E+03 0.  0.
         13    1    3    3    0    0 -0.23579972776E+03  0.18667458434E+03 -0.28891758245E+03  0.41703990396E+03  0.00000000000E+00 0.  1.
          3    1    3    3  501    0  0.23562882516E+03 -0.18667004141E+03 -0.61210385996E+03  0.68193678812E+03  0.00000000000E+00 0.  1.
         21    1    1    2  502  501  0.17090259735E+00 -0.45429248867E-02  0.78329390259E+01  0.78348045361E+01  0.00000000000E+00 0. -1.
<mgrwt>
<rscale>  1 0.62921390E+03</rscale>
<asrwt>0</asrwt>
<pdfrwt beam="1">  1        1 0.38840626E+00 0.62921390E+03</pdfrwt>
<pdfrwt beam="2">0</pdfrwt>
<totfact> 0.15122955E+00</totfact>
</mgrwt>
</event>
<event>
 6    1  0.9652477E-003  0.6433079E+03  0.7818608E-02  0.9819418E-01
          1   -1    0    0  502    0  0.00000000000E+00  0.00000000000E+00  0.10346145048E+03  0.10346145048E+03  0.00000000000E+00 0.  1.
         13   -1    0    0    0    0 -0.00000000000E+00 -0.00000000000E+00 -0.10000000000E+04  0.10000000000E+04  0.00000000000E+00 0.  1.
    9000005    2    1    2  501    0 -0.98361419134E-05 -0.61006895180E-05 -0.89653873079E+03  0.11034612688E+04  0.64330791697E+03 0.  0.
         13    1    3    3    0    0 -0.18572852608E+03 -0.19015216242E+03 -0.13757718074E+03  0.29929986791E+03  0.00000000000E+00 0.  1.
          3    1    3    3  501    0  0.18572851625E+03  0.19015215632E+03 -0.75896155004E+03  0.80416140093E+03  0.00000000000E+00 0.  1.
         21    1    1    2  502  501  0.98361419310E-05  0.61006895175E-05  0.18126659378E-03  0.18163575122E-03  0.00000000000E+00 0. -1.
<mgrwt>
<rscale>  1 0.64330792E+03</rscale>
<asrwt>0</asrwt>
<pdfrwt beam="1">  1        1 0.37622425E+00 0.64330792E+03</pdfrwt>
<pdfrwt beam="2">0</pdfrwt>
<totfact> 0.17071804E+00</totfact>
</mgrwt>
</event>
<event>
 6    1  0.9652477E-003  0.6466353E+03  0.7818608E-02  0.9813113E-01
          1   -1    0    0  502    0  0.00000000000E+00  0.00000000000E+00  0.10453431379E+03  0.10453431379E+03  0.00000000000E+00 0.  1.
         13   -1    0    0    0    0 -0.00000000000E+00 -0.00000000000E+00 -0.10000000000E+04  0.10000000000E+04  0.00000000000E+00 0.  1.
    9000005    2    1    2  501    0  0.42026675828E-05 -0.26423754207E-05 -0.89546568227E+03  0.11045343074E+04  0.64663532861E+03 0.  0.
         13    1    3    3    0    0 -0.17578071809E+03  0.10846277754E+03 -0.22854766587E+02  0.20781091242E+03  0.00000000000E+00 0.  1.
          1    1    3    3  501    0  0.17578072230E+03 -0.10846278018E+03 -0.87261091568E+03  0.89672339502E+03  0.00000000000E+00 0.  1.
         21    1    1    2  502  501 -0.42026675645E-05  0.26423754309E-05 -0.39451532640E-05  0.63410406758E-05  0.00000000000E+00 0.  1.
<mgrwt>
<rscale>  1 0.64663533E+03</rscale>
<asrwt>0</asrwt>
<pdfrwt beam="1">  1        1 0.38012558E+00 0.64663533E+03</pdfrwt>
<pdfrwt beam="2">0</pdfrwt>
<totfact> 0.16398939E+00</totfact>
</mgrwt>
</event>
<event>
 6    1  0.9652477E-003  0.6494867E+03  0.7818608E-02  0.9807743E-01
          1   -1    0    0  502    0  0.00000000000E+00  0.00000000000E+00  0.10545929559E+03  0.10545929559E+03  0.00000000000E+00 0.  1.
         13   -1    0    0    0    0 -0.00000000000E+00 -0.00000000000E+00 -0.10000000000E+04  0.10000000000E+04  0.00000000000E+00 0.  1.
    9000005    2    1    2  501    0 -0.16452917532E-03 -0.15889458464E-03 -0.89454174672E+03  0.11054582285E+04  0.64948668830E+03 0.  0.
         13    1    3    3    0    0 -0.27500070608E+03  0.15290622560E+03 -0.58399280758E+03  0.66336513435E+03  0.00000000000E+00 0.  1.
          1    1    3    3  501    0  0.27500054155E+03 -0.15290638449E+03 -0.31054893915E+03  0.44209309413E+03  0.00000000000E+00 0.  1.
         21    1    1    2  502  501  0.16452917535E-03  0.15889458465E-03  0.10423116207E-02  0.10671133273E-02  0.00000000000E+00 0.  1.
<mgrwt>
<rscale>  1 0.64948669E+03</rscale>
<asrwt>0</asrwt>
<pdfrwt beam="1">  1        1 0.38348916E+00 0.64948669E+03</pdfrwt>
<pdfrwt beam="2">0</pdfrwt>
<totfact> 0.15839214E+00</totfact>
</mgrwt>
</event>
<event>
 6    1  0.9652477E-003  0.6523192E+03  0.7818608E-02  0.9802437E-01
          1   -1    0    0  502    0  0.00000000000E+00  0.00000000000E+00  0.10638012867E+03  0.10638012867E+03  0.00000000000E+00 0.  1.
         13   -1    0    0    0    0 -0.00000000000E+00 -0.00000000000E+00 -0.10000000000E+04  0.10000000000E+04  0.00000000000E+00 0.  1.
    9000005    2    1    2  501    0 -0.16268934104E-04  0.15738821105E-04 -0.89361992576E+03  0.11063800697E+04  0.65231916035E+03 0.  0.
         13    1    3    3    0    0  0.12233377789E+03  0.28505001824E+03 -0.61777709287E+03  0.69127968478E+03  0.00000000000E+00 0.  1.
          3    1    3    3  501    0 -0.12233379416E+03 -0.28505000250E+03 -0.27584283289E+03  0.41510038494E+03  0.00000000000E+00 0.  1.
         21    1    1    2  502  501  0.16268934111E-04 -0.15738821135E-04  0.54430187668E-04  0.58949419314E-04  0.00000000000E+00 0. -1.
<mgrwt>
<rscale>  1 0.65231916E+03</rscale>
<asrwt>0</asrwt>
<pdfrwt beam="1">  1        1 0.38683765E+00 0.65231916E+03</pdfrwt>
<pdfrwt beam="2">0</pdfrwt>
<totfact> 0.15300089E+00</totfact>
</mgrwt>
</event>
<event>
 6    1  0.9652477E-003  0.6468556E+03  0.7818608E-02  0.9812697E-01
          1   -1    0    0  502    0  0.00000000000E+00  0.00000000000E+00  0.10556693848E+03  0.10556693848E+03  0.00000000000E+00 0.  1.
         13   -1    0    0    0    0 -0.00000000000E+00 -0.00000000000E+00 -0.10000000000E+04  0.10000000000E+04  0.00000000000E+00 0.  1.
    9000005    2    1    2  501    0  0.26562482315E-01 -0.55215634968E-01 -0.89539338182E+03  0.11046046654E+04  0.64685559049E+03 0.  0.
         13    1    3    3    0    0 -0.31357543027E+03 -0.70283096352E+02 -0.38536778527E+03  0.50177444537E+03  0.00000000000E+00 0.  1.
          3    1    3    3  501    0  0.31360199275E+03  0.70227880717E+02 -0.51002559655E+03  0.60283022007E+03  0.00000000000E+00 0.  1.
         21    1    1    2  502  501 -0.26562482315E-01  0.55215634968E-01  0.96032030425E+00  0.96227304783E+00  0.00000000000E+00 0.  1.
<mgrwt>
<rscale>  1 0.64685559E+03</rscale>
<asrwt>0</asrwt>
<pdfrwt beam="1">  1        1 0.38388059E+00 0.64685559E+03</pdfrwt>
<pdfrwt beam="2">0</pdfrwt>
<totfact> 0.15783908E+00</totfact>
</mgrwt>
</event>
<event>
 6    1  0.9652477E-003  0.6489105E+03  0.7818608E-02  0.9808826E-01
          3   -1    0    0  502    0  0.00000000000E+00  0.00000000000E+00  0.10561660608E+03  0.10561660608E+03  0.00000000000E+00 0.  1.
         13   -1    0    0    0    0 -0.00000000000E+00 -0.00000000000E+00 -0.10000000000E+04  0.10000000000E+04  0.00000000000E+00 0.  1.
    9000005    2    1    2  501    0  0.44337727265E-01 -0.75464238901E-01 -0.89472265039E+03  0.11052662411E+04  0.64891049836E+03 0.  0.
         13    1    3    3    0    0 -0.20642026530E+03  0.83896228082E+02 -0.84898051575E+03  0.87773334170E+03  0.00000000000E+00 0.  1.
          3    1    3    3  501    0  0.20646460303E+03 -0.83971692321E+02 -0.45742134637E+02  0.22753289937E+03  0.00000000000E+00 0.  1.
         21    1    1    2  502  501 -0.44337727265E-01  0.75464238901E-01  0.33925646947E+00  0.35036500608E+00  0.00000000000E+00 0.  1.
<mgrwt>
<rscale>  1 0.64891050E+03</rscale>
<asrwt>0</asrwt>
<pdfrwt beam="1">  1        3 0.38406120E+00 0.64891050E+03</pdfrwt>
<pdfrwt beam="2">0</pdfrwt>
<totfact> 0.71857091E-02</totfact>
</mgrwt>
</event>
<event>
 6    1  0.9652477E-003  0.6756100E+03  0.7818608E-02  0.9759876E-01
          1   -1    0    0  502    0  0.00000000000E+00  0.00000000000E+00  0.11413996327E+03  0.11413996327E+03  0.00000000000E+00 0.  1.
         13   -1    0    0    0    0 -0.00000000000E+00 -0.00000000000E+00 -0.10000000000E+04  0.10000000000E+04  0.00000000000E+00 0.  1.
    9000005    2    1    2  501    0  0.14794399680E-01  0.29099520466E-01 -0.88587661080E+03  0.11141033524E+04  0.67561002746E+03 0.  0.
         13    1    3    3    0    0 -0.51816054962E+02  0.32903270541E+03 -0.35005743257E+03  0.48320557828E+03  0.00000000000E+00 0.  1.
          1    1    3    3  501    0  0.51830849362E+02 -0.32900360589E+03 -0.53581917823E+03  0.63089777412E+03  0.00000000000E+00 0.  1.
         21    1    1    2  502  501 -0.14794399680E-01 -0.29099520466E-01  0.16574062149E-01  0.36610871191E-01  0.00000000000E+00 0.  1.
<mgrwt>
<rscale>  1 0.67561003E+03</rscale>
<asrwt>0</asrwt>
<pdfrwt beam="1">  1        1 0.41505529E+00 0.67561003E+03</pdfrwt>
<pdfrwt beam="2">0</pdfrwt>
<totfact> 0.11399368E+00</totfact>
</mgrwt>
</event>
<event>
 6    1  0.9907517E-003  0.6525904E+03  0.7818608E-02  0.9801931E-01
          3   -1    0    0  502    0  0.00000000000E+00  0.00000000000E+00  0.10646855732E+03  0.10646855732E+03  0.00000000000E+00 0.  1.
         13   -1    0    0    0    0 -0.00000000000E+00 -0.00000000000E+00 -0.10000000000E+04  0.10000000000E+04  0.00000000000E+00 0.  1.
    9000005    2    1    2  501    0  0.14817386500E-05  0.28965195042E-05 -0.89353143809E+03  0.11064685517E+04  0.65259039605E+03 0.  0.
         13    1    3    3    0    0 -0.25580522200E+03 -0.18173851848E+03 -0.59844785029E+03  0.67572555836E+03  0.00000000000E+00 0.  1.
          3    1    3    3  501    0  0.25580522348E+03  0.18173852138E+03 -0.29508358781E+03  0.43074299333E+03  0.00000000000E+00 0.  1.
         21    1    1    2  502  501 -0.14817386526E-05 -0.28965194840E-05 -0.45896832180E-05  0.56258836281E-05  0.00000000000E+00 0.  1.
<mgrwt>
<rscale>  1 0.65259040E+03</rscale>
<asrwt>0</asrwt>
<pdfrwt beam="1">  1        3 0.38715921E+00 0.65259040E+03</pdfrwt>
<pdfrwt beam="2">0</pdfrwt>
<totfact> 0.69163075E-02</totfact>
</mgrwt>
</event>
<event>
 6    1  0.9652477E-003  0.6486051E+03  0.7818608E-02  0.9809400E-01
          1   -1    0    0  502    0  0.00000000000E+00  0.00000000000E+00  0.12337526160E+03  0.12337526160E+03  0.00000000000E+00 0.  1.
         13   -1    0    0    0    0 -0.00000000000E+00 -0.00000000000E+00 -0.10000000000E+04  0.10000000000E+04  0.00000000000E+00 0.  1.
    9000005    2    1    2  501    0 -0.42739038740E+01 -0.20247639533E+01 -0.89448775507E+03  0.11048968069E+04  0.64858788457E+03 0.  0.
         13    1    3    3    0    0 -0.31977813311E+03 -0.13597176029E+02 -0.55948499321E+03  0.64456682760E+03  0.00000000000E+00 0.  1.
          1    1    3    3  501    0  0.31550422924E+03  0.11572412075E+02 -0.33500276186E+03  0.46032997930E+03  0.00000000000E+00 0.  1.
         21    1    1    2  502  501  0.42739038740E+01  0.20247639533E+01  0.17863016671E+02  0.18478454697E+02  0.00000000000E+00 0.  1.
<mgrwt>
<rscale>  1 0.64860513E+03</rscale>
<asrwt>0</asrwt>
<pdfrwt beam="1">  1        1 0.44863826E+00 0.64860513E+03</pdfrwt>
<pdfrwt beam="2">0</pdfrwt>
<totfact> 0.80626101E-01</totfact>
</mgrwt>
</event>
<event>
 6    1  0.9652477E-003  0.6429489E+03  0.7818608E-02  0.9820101E-01
          1   -1    0    0  502    0  0.00000000000E+00  0.00000000000E+00  0.10367984319E+03  0.10367984319E+03  0.00000000000E+00 0.  1.
         13   -1    0    0    0    0 -0.00000000000E+00 -0.00000000000E+00 -0.10000000000E+04  0.10000000000E+04  0.00000000000E+00 0.  1.
    9000005    2    1    2  501    0 -0.40481629575E+00  0.12527931900E+00 -0.89649912028E+03  0.11032198442E+04  0.64294881010E+03 0.  0.
         13    1    3    3    0    0 -0.31456945152E+03  0.32441531953E+02 -0.54962258516E+03  0.63410675674E+03  0.00000000000E+00 0.  1.
          3    1    3    3  501    0  0.31416463523E+03 -0.32316252634E+02 -0.34687653512E+03  0.46911308746E+03  0.00000000000E+00 0.  1.
         21    1    1    2  502  501  0.40481629575E+00 -0.12527931900E+00  0.17896347534E+00  0.45999898541E+00  0.00000000000E+00 0.  1.
<mgrwt>
<rscale>  1 0.64294895E+03</rscale>
<asrwt>0</asrwt>
<pdfrwt beam="1">  1        1 0.37701841E+00 0.64294895E+03</pdfrwt>
<pdfrwt beam="2">0</pdfrwt>
<totfact> 0.16935955E+00</totfact>
</mgrwt>
</event>
<event>
 6    1  0.9652477E-003  0.6544170E+03  0.7818608E-02  0.9798526E-01
          1   -1    0    0  502    0  0.00000000000E+00  0.00000000000E+00  0.10706540991E+03  0.10706540991E+03  0.00000000000E+00 0.  1.
         13   -1    0    0    0    0 -0.00000000000E+00 -0.00000000000E+00 -0.10000000000E+04  0.10000000000E+04  0.00000000000E+00 0.  1.
    9000005    2    1    2  501    0 -0.98504571611E-06 -0.68217040905E-06 -0.89293459106E+03  0.11070654084E+04  0.65441701880E+03 0.  0.
         13    1    3    3    0    0 -0.11074884883E+03 -0.36288371613E+02  0.70764970432E+02  0.13634454324E+03  0.00000000000E+00 0.  1.
          3    1    3    3  501    0  0.11074884785E+03  0.36288370930E+02 -0.96369956149E+03  0.97072086512E+03  0.00000000000E+00 0.  1.
         21    1    1    2  502  501  0.98504570628E-06  0.68217041475E-06  0.97715898114E-06  0.15461278060E-05  0.00000000000E+00 0. -1.
<mgrwt>
<rscale>  1 0.65441702E+03</rscale>
<asrwt>0</asrwt>
<pdfrwt beam="1">  1        1 0.38932958E+00 0.65441702E+03</pdfrwt>
<pdfrwt beam="2">0</pdfrwt>
<totfact> 0.14910260E+00</totfact>
</mgrwt>
</event>
