<event>
 6    1  0.5769652E-003  0.6582261E+03  0.7818608E-02  0.9791465E-01
          1   -1    0    0  502    0  0.00000000000E+00  0.00000000000E+00  0.10831728429E+03  0.10831728429E+03  0.00000000000E+00 0.  1.
         13   -1    0    0    0    0 -0.00000000000E+00 -0.00000000000E+00 -0.10000000000E+04  0.10000000000E+04  0.00000000000E+00 0.  1.
    9000005    2    1    2  501    0 -0.44570329881E-03  0.28885279654E-02 -0.89168322816E+03  0.11083143170E+04  0.65822613582E+03 0.  0.
         13    1    3    3    0    0  0.45847604084E+02 -0.79692044574E+02 -0.97793548993E+03  0.98224775247E+03  0.00000000000E+00 0.  1.
          1    1    3    3  501    0 -0.45848049787E+02  0.79694933102E+02  0.86252261772E+02  0.12606656453E+03  0.00000000000E+00 0.  1.
         21    1    1    2  502  501  0.44570329881E-03 -0.28885279654E-02  0.51244979056E-03  0.29672967539E-02  0.00000000000E+00 0. -1.
<mgrwt>
<rscale>  1 0.65822614E+03</rscale>
<asrwt>0</asrwt>
<pdfrwt beam="1">  1        1 0.39388186E+00 0.65822614E+03</pdfrwt>
<pdfrwt beam="2">0</pdfrwt>
<totfact> 0.14222378E+00</totfact>
</mgrwt>
</event>
<event>
 6    1  0.5769652E-003  0.4630710E+03  0.7818608E-02  0.1023894E+00
          1   -1    0    0  502    0  0.00000000000E+00  0.00000000000E+00  0.53687065554E+02  0.53687065554E+02  0.00000000000E+00 0.  1.
         13   -1    0    0    0    0 -0.00000000000E+00 -0.00000000000E+00 -0.10000000000E+04  0.10000000000E+04  0.00000000000E+00 0.  1.
    9000005    2    1    2  501    0 -0.27860438994E+00 -0.18950930167E-01 -0.94605641032E+03  0.10533078767E+04  0.46307091646E+03 0.  0.
         13    1    3    3    0    0  0.19571124752E+03 -0.12124037833E+03 -0.41924449818E+03  0.47829705309E+03  0.00000000000E+00 0.  1.
          3    1    3    3  501    0 -0.19598985191E+03  0.12122142740E+03 -0.52681191215E+03  0.57501082363E+03  0.00000000000E+00 0.  1.
         21    1    1    2  502  501  0.27860438994E+00  0.18950930167E-01 -0.25652412434E+00  0.37918883188E+00  0.00000000000E+00 0.  1.
<mgrwt>
<rscale>  1 0.46307100E+03</rscale>
<asrwt>0</asrwt>
<pdfrwt beam="1">  1        1 0.19522610E+00 0.46307100E+03</pdfrwt>
<pdfrwt beam="2">0</pdfrwt>
<totfact> 0.10870120E+01</totfact>
</mgrwt>
</event>
<event>
 6    1  0.5769652E-003  0.6237601E+03  0.7818608E-02  0.9857302E-01
          1   -1    0    0  502    0  0.00000000000E+00  0.00000000000E+00  0.97269527116E+02  0.97269527116E+02  0.00000000000E+00 0.  1.
         13   -1    0    0    0    0 -0.00000000000E+00 -0.00000000000E+00 -0.10000000000E+04  0.10000000000E+04  0.00000000000E+00 0.  1.
    9000005    2    1    2  501    0  0.20300330112E-03  0.53106773049E-03 -0.90273059622E+03  0.10972689453E+04  0.62376005730E+03 0.  0.
         13    1    3    3    0    0  0.15521623034E+03 -0.20557098209E+03 -0.14205210761E+03  0.29416034423E+03  0.00000000000E+00 0.  1.
          3    1    3    3  501    0 -0.15521602734E+03  0.20557151316E+03 -0.76067848860E+03  0.80310860112E+03  0.00000000000E+00 0.  1.
         21    1    1    2  502  501 -0.20300330111E-03 -0.53106773049E-03  0.12333237843E-03  0.58176812409E-03  0.00000000000E+00 0.  1.
<mgrwt>
<rscale>  1 0.62376006E+03</rscale>
<asrwt>0</asrwt>
<pdfrwt beam="1">  1        1 0.35370812E+00 0.62376006E+03</pdfrwt>
<pdfrwt beam="2">0</pdfrwt>
<totfact> 0.21503138E+00</totfact>
</mgrwt>
</event>
<event>
 6    1  0.5769652E-003  0.6450152E+03  0.7818608E-02  0.9816178E-01
          1   -1    0    0  502    0  0.00000000000E+00  0.00000000000E+00  0.10401172110E+03  0.10401172110E+03  0.00000000000E+00 0.  1.
         13   -1    0    0    0    0 -0.00000000000E+00 -0.00000000000E+00 -0.10000000000E+04  0.10000000000E+04  0.00000000000E+00 0.  1.
    9000005    2    1    2  501    0  0.14084966330E-03 -0.50510552683E-05 -0.89598883740E+03  0.11040111451E+04  0.64501520271E+03 0.  0.
         13    1    3    3    0    0 -0.16070275453E+03  0.17738866878E+03 -0.81795059557E+03  0.85225306801E+03  0.00000000000E+00 0.  1.
          1    1    3    3  501    0  0.16070289538E+03 -0.17738867383E+03 -0.78038241829E+02  0.25175807708E+03  0.00000000000E+00 0.  1.
         21    1    1    2  502  501 -0.14084966329E-03  0.50510552901E-05  0.55850655106E-03  0.57601537166E-03  0.00000000000E+00 0.  1.
<mgrwt>
<rscale>  1 0.64501520E+03</rscale>
<asrwt>0</asrwt>
<pdfrwt beam="1">  1        1 0.37822524E+00 0.64501520E+03</pdfrwt>
<pdfrwt beam="2">0</pdfrwt>
<totfact> 0.16723470E+00</totfact>
</mgrwt>
</event>
<event>
 6    1  0.5769652E-003  0.6441137E+03  0.7818608E-02  0.9817887E-01
          1   -1    0    0  502    0  0.00000000000E+00  0.00000000000E+00  0.10383833487E+03  0.10383833487E+03  0.00000000000E+00 0.  1.
         13   -1    0    0    0    0 -0.00000000000E+00 -0.00000000000E+00 -0.10000000000E+04  0.10000000000E+04  0.00000000000E+00 0.  1.
    9000005    2    1    2  501    0 -0.18391703143E+00 -0.41697363965E-01 -0.89618957908E+03  0.11036476956E+04  0.64411368467E+03 0.  0.
         13    1    3    3    0    0  0.26372808937E+03 -0.90497017104E+02 -0.17206755663E+03  0.32764227333E+03  0.00000000000E+00 0.  1.
          1    1    3    3  501    0 -0.26391200640E+03  0.90455319740E+02 -0.72412202245E+03  0.77600542227E+03  0.00000000000E+00 0.  1.
         21    1    1    2  502  501  0.18391703143E+00  0.41697363965E-01  0.27913947744E-01  0.19063927478E+00  0.00000000000E+00 0.  1.
<mgrwt>
<rscale>  1 0.64411371E+03</rscale>
<asrwt>0</asrwt>
<pdfrwt beam="1">  1        1 0.37759474E+00 0.64411371E+03</pdfrwt>
<pdfrwt beam="2">0</pdfrwt>
<totfact> 0.16833612E+00</totfact>
</mgrwt>
</event>
<event>
 6    1  0.5769652E-003  0.6588660E+03  0.7818608E-02  0.9790284E-01
          1   -1    0    0  502    0  0.00000000000E+00  0.00000000000E+00  0.10852664307E+03  0.10852664307E+03  0.00000000000E+00 0.  1.
         13   -1    0    0    0    0 -0.00000000000E+00 -0.00000000000E+00 -0.10000000000E+04  0.10000000000E+04  0.00000000000E+00 0.  1.
    9000005    2    1    2  501    0  0.48364975262E-03 -0.26700227295E-03 -0.89147373286E+03  0.11085259748E+04  0.65886601106E+03 0.  0.
         13    1    3    3    0    0 -0.16012073550E+03  0.25268854758E+03 -0.67786825711E+03  0.74094232299E+03  0.00000000000E+00 0.  1.
          1    1    3    3  501    0  0.16012121915E+03 -0.25268881458E+03 -0.21360547575E+03  0.36758365185E+03  0.00000000000E+00 0.  1.
         21    1    1    2  502  501 -0.48364975262E-03  0.26700227293E-03  0.37592653048E-03  0.66822754603E-03  0.00000000000E+00 0.  1.
<mgrwt>
<rscale>  1 0.65886601E+03</rscale>
<asrwt>0</asrwt>
<pdfrwt beam="1">  1        1 0.39464317E+00 0.65886601E+03</pdfrwt>
<pdfrwt beam="2">0</pdfrwt>
<totfact> 0.14110308E+00</totfact>
</mgrwt>
</event>
<event>
 6    1  0.5769652E-003  0.6595569E+03  0.7818608E-02  0.9789010E-01
          1   -1    0    0  502    0  0.00000000000E+00  0.00000000000E+00  0.10875440880E+03  0.10875440880E+03  0.00000000000E+00 0.  1.
         13   -1    0    0    0    0 -0.00000000000E+00 -0.00000000000E+00 -0.10000000000E+04  0.10000000000E+04  0.00000000000E+00 0.  1.
    9000005    2    1    2  501    0 -0.26544615049E-03 -0.52734246708E-04 -0.89124614551E+03  0.11087537920E+04  0.65955688100E+03 0.  0.
         13    1    3    3    0    0  0.11034292918E+03 -0.26717476592E+03 -0.71246104905E+03  0.76886843086E+03  0.00000000000E+00 0.  1.
          3    1    3    3  501    0 -0.11034319463E+03  0.26717471318E+03 -0.17878509646E+03  0.33988536109E+03  0.00000000000E+00 0.  1.
         21    1    1    2  502  501  0.26544615050E-03  0.52734246719E-04  0.55430744602E-03  0.61684625662E-03  0.00000000000E+00 0.  1.
<mgrwt>
<rscale>  1 0.65955688E+03</rscale>
<asrwt>0</asrwt>
<pdfrwt beam="1">  1        1 0.39547141E+00 0.65955688E+03</pdfrwt>
<pdfrwt beam="2">0</pdfrwt>
<totfact> 0.13989347E+00</totfact>
</mgrwt>
</event>
<event>
 6    1  0.5769652E-003  0.6518898E+03  0.7818608E-02  0.9803239E-01
          1   -1    0    0  502    0  0.00000000000E+00  0.00000000000E+00  0.10627805633E+03  0.10627805633E+03  0.00000000000E+00 0.  1.
         13   -1    0    0    0    0 -0.00000000000E+00 -0.00000000000E+00 -0.10000000000E+04  0.10000000000E+04  0.00000000000E+00 0.  1.
    9000005    2    1    2  501    0 -0.30382431678E-02  0.13033907257E-02 -0.89375983007E+03  0.11062400260E+04  0.65188983821E+03 0.  0.
         13    1    3    3    0    0  0.15012182887E+03 -0.17632096373E+03 -0.57631878673E+02  0.23863587156E+03  0.00000000000E+00 0.  1.
          1    1    3    3  501    0 -0.15012486711E+03  0.17632226713E+03 -0.83612795140E+03  0.86760415440E+03  0.00000000000E+00 0.  1.
         21    1    1    2  502  501  0.30382431678E-02 -0.13033907257E-02  0.37886400337E-01  0.38030370487E-01  0.00000000000E+00 0.  1.
<mgrwt>
<rscale>  1 0.65188984E+03</rscale>
<asrwt>0</asrwt>
<pdfrwt beam="1">  1        1 0.38646647E+00 0.65188984E+03</pdfrwt>
<pdfrwt beam="2">0</pdfrwt>
<totfact> 0.15359307E+00</totfact>
</mgrwt>
</event>
<event>
 6    1  0.5769652E-003  0.6518066E+03  0.7818608E-02  0.9803395E-01
          1   -1    0    0  502    0  0.00000000000E+00  0.00000000000E+00  0.10621450000E+03  0.10621450000E+03  0.00000000000E+00 0.  1.
         13   -1    0    0    0    0 -0.00000000000E+00 -0.00000000000E+00 -0.10000000000E+04  0.10000000000E+04  0.00000000000E+00 0.  1.
    9000005    2    1    2  501    0  0.12575968847E-02 -0.17219073844E-02 -0.89378618357E+03  0.11062122609E+04  0.65180658489E+03 0.  0.
         13    1    3    3    0    0 -0.31047114750E+03 -0.20012643483E+02 -0.28217487427E+03  0.42001845078E+03  0.00000000000E+00 0.  1.
          3    1    3    3  501    0  0.31047240510E+03  0.20010921576E+02 -0.61161130930E+03  0.68619381007E+03  0.00000000000E+00 0.  1.
         21    1    1    2  502  501 -0.12575968847E-02  0.17219073844E-02  0.68356928963E-03  0.22391475919E-02  0.00000000000E+00 0.  1.
<mgrwt>
<rscale>  1 0.65180658E+03</rscale>
<asrwt>0</asrwt>
<pdfrwt beam="1">  1        1 0.38623536E+00 0.65180658E+03</pdfrwt>
<pdfrwt beam="2">0</pdfrwt>
<totfact> 0.15395766E+00</totfact>
</mgrwt>
</event>
<event>
 6    1  0.5769652E-003  0.6472367E+03  0.7818608E-02  0.9811978E-01
          1   -1    0    0  502    0  0.00000000000E+00  0.00000000000E+00  0.10684005706E+03  0.10684005706E+03  0.00000000000E+00 0.  1.
         13   -1    0    0    0    0 -0.00000000000E+00 -0.00000000000E+00 -0.10000000000E+04  0.10000000000E+04  0.00000000000E+00 0.  1.
    9000005    2    1    2  501    0  0.14596019517E+00 -0.22630104202E+00 -0.89526167243E+03  0.11047211462E+04  0.64723664617E+03 0.  0.
         13    1    3    3    0    0 -0.24665294848E+03 -0.49275515410E+02 -0.10012953247E+03  0.27072435555E+03  0.00000000000E+00 0.  1.
          3    1    3    3  501    0  0.24679890868E+03  0.49049214368E+02 -0.79513213996E+03  0.83399679062E+03  0.00000000000E+00 0.  1.
         21    1    1    2  502  501 -0.14596019517E+00  0.22630104202E+00  0.21017294879E+01  0.21189108949E+01  0.00000000000E+00 0.  1.
<mgrwt>
<rscale>  1 0.64723670E+03</rscale>
<asrwt>0</asrwt>
<pdfrwt beam="1">  1        1 0.38851012E+00 0.64723670E+03</pdfrwt>
<pdfrwt beam="2">0</pdfrwt>
<totfact> 0.15055560E+00</totfact>
</mgrwt>
</event>
<event>
 6    1  0.5769652E-003  0.6534856E+03  0.7818608E-02  0.9800261E-01
          1   -1    0    0  502    0  0.00000000000E+00  0.00000000000E+00  0.10676098205E+03  0.10676098205E+03  0.00000000000E+00 0.  1.
         13   -1    0    0    0    0 -0.00000000000E+00 -0.00000000000E+00 -0.10000000000E+04  0.10000000000E+04  0.00000000000E+00 0.  1.
    9000005    2    1    2  501    0 -0.53537301170E-04 -0.26970090895E-03 -0.89323895437E+03  0.11067606998E+04  0.65348559057E+03 0.  0.
         13    1    3    3    0    0  0.15176593237E+03 -0.26704150689E+02 -0.93459224762E+03  0.94721100036E+03  0.00000000000E+00 0.  1.
          1    1    3    3  501    0 -0.15176598591E+03  0.26703880988E+02  0.41353293245E+02  0.15954969947E+03  0.00000000000E+00 0.  1.
         21    1    1    2  502  501  0.53537301163E-04  0.26970090895E-03 -0.63576222670E-04  0.28221757386E-03  0.00000000000E+00 0.  1.
<mgrwt>
<rscale>  1 0.65348559E+03</rscale>
<asrwt>0</asrwt>
<pdfrwt beam="1">  1        1 0.38822257E+00 0.65348559E+03</pdfrwt>
<pdfrwt beam="2">0</pdfrwt>
<totfact> 0.15082258E+00</totfact>
</mgrwt>
</event>
<event>
 6    1  0.5769652E-003  0.6601242E+03  0.7818608E-02  0.9787965E-01
          1   -1    0    0  502    0  0.00000000000E+00  0.00000000000E+00  0.11025311489E+03  0.11025311489E+03  0.00000000000E+00 0.  1.
         13   -1    0    0    0    0 -0.00000000000E+00 -0.00000000000E+00 -0.10000000000E+04  0.10000000000E+04  0.00000000000E+00 0.  1.
    9000005    2    1    2  501    0  0.23996916031E+01  0.30858284170E+01 -0.88334557798E+03  0.11027526089E+04  0.66011258545E+03 0.  0.
         13    1    3    3    0    0 -0.29581317099E+03 -0.88715269799E+02 -0.62700149533E+03  0.69893254780E+03  0.00000000000E+00 0.  1.
          1    1    3    3  501    0  0.29821286259E+03  0.91801098216E+02 -0.25634408265E+03  0.40382006112E+03  0.00000000000E+00 0.  1.
         21    1    1    2  502  501 -0.23996916031E+01 -0.30858284170E+01 -0.64013071325E+01  0.75005059705E+01  0.00000000000E+00 0. -1.
<mgrwt>
<rscale>  1 0.66012416E+03</rscale>
<asrwt>0</asrwt>
<pdfrwt beam="1">  1        1 0.40092126E+00 0.66012416E+03</pdfrwt>
<pdfrwt beam="2">0</pdfrwt>
<totfact> 0.13227413E+00</totfact>
</mgrwt>
</event>
<event>
 6    1  0.5769652E-003  0.6419841E+03  0.7818608E-02  0.9821938E-01
          1   -1    0    0  502    0  0.00000000000E+00  0.00000000000E+00  0.10303590706E+03  0.10303590706E+03  0.00000000000E+00 0.  1.
         13   -1    0    0    0    0 -0.00000000000E+00 -0.00000000000E+00 -0.10000000000E+04  0.10000000000E+04  0.00000000000E+00 0.  1.
    9000005    2    1    2  501    0 -0.66854416190E-05 -0.11880401757E-04 -0.89696410472E+03  0.11030358890E+04  0.64198408652E+03 0.  0.
         13    1    3    3    0    0 -0.98989545189E+02  0.29245430316E+03 -0.29764068487E+03  0.42885711698E+03  0.00000000000E+00 0.  1.
          3    1    3    3  501    0  0.98989538503E+02 -0.29245431504E+03 -0.59932341985E+03  0.67417877206E+03  0.00000000000E+00 0.  1.
         21    1    1    2  502  501  0.66854416138E-05  0.11880401746E-04  0.11781963600E-04  0.18018150335E-04  0.00000000000E+00 0. -1.
<mgrwt>
<rscale>  1 0.64198409E+03</rscale>
<asrwt>0</asrwt>
<pdfrwt beam="1">  1        1 0.37467682E+00 0.64198409E+03</pdfrwt>
<pdfrwt beam="2">0</pdfrwt>
<totfact> 0.17345929E+00</totfact>
</mgrwt>
</event>
<event>
 6    1  0.5769652E-003  0.6549116E+03  0.7818608E-02  0.9797606E-01
          1   -1    0    0  502    0  0.00000000000E+00  0.00000000000E+00  0.10996238509E+03  0.10996238509E+03  0.00000000000E+00 0.  1.
         13   -1    0    0    0    0 -0.00000000000E+00 -0.00000000000E+00 -0.10000000000E+04  0.10000000000E+04  0.00000000000E+00 0.  1.
    9000005    2    1    2  501    0 -0.60451612582E+00  0.42972580954E+00 -0.89271691122E+03  0.11071823252E+04  0.65491119067E+03 0.  0.
         13    1    3    3    0    0  0.10183703644E+03 -0.89154164188E+02 -0.94995484537E+03  0.95954856845E+03  0.00000000000E+00 0.  1.
          1    1    3    3  501    0 -0.10244155257E+03  0.89583889998E+02  0.57237934151E+02  0.14763375679E+03  0.00000000000E+00 0.  1.
         21    1    1    2  502  501  0.60451612582E+00 -0.42972580954E+00  0.26792963095E+01  0.27800598432E+01  0.00000000000E+00 0.  1.
<mgrwt>
<rscale>  1 0.65491161E+03</rscale>
<asrwt>0</asrwt>
<pdfrwt beam="1">  1        1 0.39986406E+00 0.65491161E+03</pdfrwt>
<pdfrwt beam="2">0</pdfrwt>
<totfact> 0.13384934E+00</totfact>
</mgrwt>
</event>
<event>
 6    1  0.5769652E-003  0.6299577E+03  0.7818608E-02  0.9845131E-01
          1   -1    0    0  502    0  0.00000000000E+00  0.00000000000E+00  0.99240032435E+02  0.99240032435E+02  0.00000000000E+00 0.  1.
         13   -1    0    0    0    0 -0.00000000000E+00 -0.00000000000E+00 -0.10000000000E+04  0.10000000000E+04  0.00000000000E+00 0.  1.
    9000005    2    1    2  501    0  0.67313269912E-01  0.21249958721E-01 -0.90072872158E+03  0.10991628382E+04  0.62995770496E+03 0.  0.
         13    1    3    3    0    0 -0.19896512351E+03  0.24416168245E+03 -0.44826338377E+03  0.54785226912E+03  0.00000000000E+00 0.  1.
          1    1    3    3  501    0  0.19903243678E+03 -0.24414043249E+03 -0.45246533781E+03  0.55131056909E+03  0.00000000000E+00 0.  1.
         21    1    1    2  502  501 -0.67313269912E-01 -0.21249958721E-01 -0.31245981367E-01  0.77194225196E-01  0.00000000000E+00 0.  1.
<mgrwt>
<rscale>  1 0.62995771E+03</rscale>
<asrwt>0</asrwt>
<pdfrwt beam="1">  1        1 0.36087361E+00 0.62995771E+03</pdfrwt>
<pdfrwt beam="2">0</pdfrwt>
<totfact> 0.19985346E+00</totfact>
</mgrwt>
</event>
<event>
 6    1  0.5769652E-003  0.6163394E+03  0.7818608E-02  0.9872075E-01
          1   -1    0    0  502    0  0.00000000000E+00  0.00000000000E+00  0.94968720416E+02  0.94968720416E+02  0.00000000000E+00 0.  1.
         13   -1    0    0    0    0 -0.00000000000E+00 -0.00000000000E+00 -0.10000000000E+04  0.10000000000E+04  0.00000000000E+00 0.  1.
    9000005    2    1    2  501    0  0.71720307631E-05 -0.43372527365E-05 -0.90503144033E+03  0.10949685595E+04  0.61633938558E+03 0.  0.
         13    1    3    3    0    0  0.22276776560E+03 -0.16069064403E+02 -0.82973782907E+03  0.85927210895E+03  0.00000000000E+00 0.  1.
          1    1    3    3  501    0 -0.22276775843E+03  0.16069060066E+02 -0.75293611255E+02  0.23569645051E+03  0.00000000000E+00 0.  1.
         21    1    1    2  502  501 -0.71720307613E-05  0.43372527353E-05  0.16074130575E-03  0.16095967557E-03  0.00000000000E+00 0. -1.
<mgrwt>
<rscale>  1 0.61633939E+03</rscale>
<asrwt>0</asrwt>
<pdfrwt beam="1">  1        1 0.34534153E+00 0.61633939E+03</pdfrwt>
<pdfrwt beam="2">0</pdfrwt>
<totfact> 0.23416855E+00</totfact>
</mgrwt>
</event>
<event>
 6    1  0.5769652E-003  0.6775408E+03  0.7818608E-02  0.9756430E-01
          3   -1    0    0  502    0  0.00000000000E+00  0.00000000000E+00  0.11476548211E+03  0.11476548211E+03  0.00000000000E+00 0.  1.
         13   -1    0    0    0    0 -0.00000000000E+00 -0.00000000000E+00 -0.10000000000E+04  0.10000000000E+04  0.00000000000E+00 0.  1.
    9000005    2    1    2  501    0  0.22166326517E-05 -0.45640942403E-05 -0.88523462286E+03  0.11147653770E+04  0.67754077980E+03 0.  0.
         13    1    3    3    0    0 -0.16488538039E+03 -0.27913663415E+03 -0.60433498213E+03  0.68580260995E+03  0.00000000000E+00 0.  1.
          1    1    3    3  501    0  0.16488538260E+03  0.27913662958E+03 -0.28089964072E+03  0.42896276707E+03  0.00000000000E+00 0.  1.
         21    1    1    2  502  501 -0.22166326594E-05  0.45640942210E-05  0.10496507345E-03  0.10508763515E-03  0.00000000000E+00 0.  1.
<mgrwt>
<rscale>  1 0.67754078E+03</rscale>
<asrwt>0</asrwt>
<pdfrwt beam="1">  1        3 0.41732991E+00 0.67754078E+03</pdfrwt>
<pdfrwt beam="2">0</pdfrwt>
<totfact> 0.47878993E-02</totfact>
</mgrwt>
</event>
<event>
 6    1  0.5769652E-003  0.6516561E+03  0.7818608E-02  0.9803677E-01
          1   -1    0    0  502    0  0.00000000000E+00  0.00000000000E+00  0.10616395638E+03  0.10616395638E+03  0.00000000000E+00 0.  1.
         13   -1    0    0    0    0 -0.00000000000E+00 -0.00000000000E+00 -0.10000000000E+04  0.10000000000E+04  0.00000000000E+00 0.  1.
    9000005    2    1    2  501    0  0.13765883438E-05 -0.10164786033E-04 -0.89383606640E+03  0.11061639314E+04  0.65165614364E+03 0.  0.
         13    1    3    3    0    0  0.65055278560E+02  0.28929015301E+03 -0.67618869982E+03  0.73834418780E+03  0.00000000000E+00 0.  1.
          3    1    3    3  501    0 -0.65055277183E+02 -0.28929016318E+03 -0.21764736658E+03  0.36781974360E+03  0.00000000000E+00 0.  1.
         21    1    1    2  502  501 -0.13765883485E-05  0.10164785990E-04  0.22773741474E-04  0.24977213024E-04  0.00000000000E+00 0. -1.
<mgrwt>
<rscale>  1 0.65165614E+03</rscale>
<asrwt>0</asrwt>
<pdfrwt beam="1">  1        1 0.38605156E+00 0.65165614E+03</pdfrwt>
<pdfrwt beam="2">0</pdfrwt>
<totfact> 0.15425058E+00</totfact>
</mgrwt>
</event>
<event>
 6    1  0.5769652E-003  0.6499139E+03  0.7818608E-02  0.9806941E-01
          1   -1    0    0  502    0  0.00000000000E+00  0.00000000000E+00  0.10560023471E+03  0.10560023471E+03  0.00000000000E+00 0.  1.
         13   -1    0    0    0    0 -0.00000000000E+00 -0.00000000000E+00 -0.10000000000E+04  0.10000000000E+04  0.00000000000E+00 0.  1.
    9000005    2    1    2  501    0 -0.18594997110E-02 -0.16317972883E-03 -0.89440266391E+03  0.11055967870E+04  0.64991394070E+03 0.  0.
         13    1    3    3    0    0  0.25797490514E+03  0.60622340181E+02 -0.76713477204E+03  0.81161682972E+03  0.00000000000E+00 0.  1.
          3    1    3    3  501    0 -0.25797676464E+03 -0.60622503360E+02 -0.12726789187E+03  0.29397995733E+03  0.00000000000E+00 0.  1.
         21    1    1    2  502  501  0.18594997111E-02  0.16317972883E-03  0.28986183758E-02  0.34476593927E-02  0.00000000000E+00 0. -1.
<mgrwt>
<rscale>  1 0.64991394E+03</rscale>
<asrwt>0</asrwt>
<pdfrwt beam="1">  1        1 0.38400166E+00 0.64991394E+03</pdfrwt>
<pdfrwt beam="2">0</pdfrwt>
<totfact> 0.15755562E+00</totfact>
</mgrwt>
</event>
<event>
 6    1  0.5769652E-003  0.6284116E+03  0.7818608E-02  0.9848153E-01
          1   -1    0    0  502    0  0.00000000000E+00  0.00000000000E+00  0.98725351679E+02  0.98725351679E+02  0.00000000000E+00 0.  1.
         13   -1    0    0    0    0 -0.00000000000E+00 -0.00000000000E+00 -0.10000000000E+04  0.10000000000E+04  0.00000000000E+00 0.  1.
    9000005    2    1    2  501    0 -0.53077255842E-04  0.57012369012E-05 -0.90127470168E+03  0.10987252762E+04  0.62841160451E+03 0.  0.
         13    1    3    3    0    0 -0.22704624796E+03 -0.98950027706E+02 -0.78869358260E+03  0.82666720870E+03  0.00000000000E+00 0.  1.
          1    1    3    3  501    0  0.22704619488E+03  0.98950033407E+02 -0.11258111907E+03  0.27205806751E+03  0.00000000000E+00 0.  1.
         21    1    1    2  502  501  0.53077255832E-04 -0.57012368994E-05  0.53355930961E-04  0.75475522903E-04  0.00000000000E+00 0. -1.
<mgrwt>
<rscale>  1 0.62841160E+03</rscale>
<asrwt>0</asrwt>
<pdfrwt beam="1">  1        1 0.35900204E+00 0.62841160E+03</pdfrwt>
<pdfrwt beam="2">0</pdfrwt>
<totfact> 0.20371258E+00</totfact>
</mgrwt>
</event>
<event>
 6    1  0.5769652E-003  0.5318440E+03  0.7818608E-02  0.1005786E+00
          1   -1    0    0  502    0  0.00000000000E+00  0.00000000000E+00  0.77316998422E+02  0.77316998422E+02  0.00000000000E+00 0.  1.
         13   -1    0    0    0    0 -0.00000000000E+00 -0.00000000000E+00 -0.10000000000E+04  0.10000000000E+04  0.00000000000E+00 0.  1.
    9000005    2    1    2  501    0 -0.16042058440E+01  0.14274134114E+02 -0.92005708868E+03  0.10627149506E+04  0.53164997460E+03 0.  0.
         13    1    3    3    0    0  0.12977692686E+02 -0.15000623196E+03 -0.88027444600E+03  0.89305844737E+03  0.00000000000E+00 0.  1.
          1    1    3    3  501    0 -0.14581898530E+02  0.16428036607E+03 -0.39782642675E+02  0.16965650326E+03  0.00000000000E+00 0.  1.
         21    1    1    2  502  501  0.16042058440E+01 -0.14274134114E+02 -0.26259129022E+01  0.14602047790E+02  0.00000000000E+00 0. -1.
<mgrwt>
<rscale>  1 0.53184398E+03</rscale>
<asrwt>0</asrwt>
<pdfrwt beam="1">  1        1 0.28115331E+00 0.53184398E+03</pdfrwt>
<pdfrwt beam="2">0</pdfrwt>
<totfact> 0.45031577E+00</totfact>
</mgrwt>
</event>
<event>
 6    1  0.5769652E-003  0.6546887E+03  0.7818608E-02  0.9798021E-01
          1   -1    0    0  502    0  0.00000000000E+00  0.00000000000E+00  0.11320581355E+03  0.11320581355E+03  0.00000000000E+00 0.  1.
         13   -1    0    0    0    0 -0.00000000000E+00 -0.00000000000E+00 -0.10000000000E+04  0.10000000000E+04  0.00000000000E+00 0.  1.
    9000005    2    1    2  501    0  0.59879208214E+01 -0.17019665420E+02 -0.86706250977E+03  0.10864688864E+04  0.65444000575E+03 0.  0.
         13    1    3    3    0    0 -0.17444519840E+03  0.26135561082E+03 -0.33372145515E+03  0.45837527439E+03  0.00000000000E+00 0.  1.
          3    1    3    3  501    0  0.18043311922E+03 -0.27837527624E+03 -0.53334105462E+03  0.62809361204E+03  0.00000000000E+00 0.  1.
         21    1    1    2  502  501 -0.59879208214E+01  0.17019665420E+02 -0.19731676685E+02  0.26736927116E+02  0.00000000000E+00 0.  1.
<mgrwt>
<rscale>  1 0.65468866E+03</rscale>
<asrwt>0</asrwt>
<pdfrwt beam="1">  1        1 0.41165837E+00 0.65468866E+03</pdfrwt>
<pdfrwt beam="2">0</pdfrwt>
<totfact> 0.11854552E+00</totfact>
</mgrwt>
</event>
<event>
 6    1  0.5769652E-003  0.6622203E+03  0.7818608E-02  0.9784115E-01
          1   -1    0    0  502    0  0.00000000000E+00  0.00000000000E+00  0.10996161360E+03  0.10996161360E+03  0.00000000000E+00 0.  1.
         13   -1    0    0    0    0 -0.00000000000E+00 -0.00000000000E+00 -0.10000000000E+04  0.10000000000E+04  0.00000000000E+00 0.  1.
    9000005    2    1    2  501    0  0.21195339656E-01  0.56846054970E-02 -0.89036567114E+03  0.11096335940E+04  0.66222026858E+03 0.  0.
         13    1    3    3    0    0  0.66685966356E+02  0.19549184795E+03 -0.11552345518E+02  0.20687565688E+03  0.00000000000E+00 0.  1.
          1    1    3    3  501    0 -0.66664771017E+02 -0.19548616334E+03 -0.87881332562E+03  0.90275793712E+03  0.00000000000E+00 0.  1.
         21    1    1    2  502  501 -0.21195339656E-01 -0.56846054970E-02  0.32728473297E+00  0.32801959332E+00  0.00000000000E+00 0. -1.
<mgrwt>
<rscale>  1 0.66222027E+03</rscale>
<asrwt>0</asrwt>
<pdfrwt beam="1">  1        1 0.39986126E+00 0.66222027E+03</pdfrwt>
<pdfrwt beam="2">0</pdfrwt>
<totfact> 0.13366931E+00</totfact>
</mgrwt>
</event>
<event>
 6    1  0.6068345E-003  0.6562916E+03  0.7818608E-02  0.9795045E-01
          1   -1    0    0  502    0  0.00000000000E+00  0.00000000000E+00  0.10767965354E+03  0.10767965354E+03  0.00000000000E+00 0.  1.
         13   -1    0    0    0    0 -0.00000000000E+00 -0.00000000000E+00 -0.10000000000E+04  0.10000000000E+04  0.00000000000E+00 0.  1.
    9000005    2    1    2  501    0  0.11633540566E-05  0.38307798889E-06 -0.89232034721E+03  0.11076796521E+04  0.65629155842E+03 0.  0.
         13    1    3    3    0    0 -0.16382781611E+03 -0.19822980774E+02 -0.92487037919E+03  0.93947736652E+03  0.00000000000E+00 0.  1.
          3    1    3    3  501    0  0.16382781727E+03  0.19822981157E+02  0.32550031984E+02  0.16820228559E+03  0.00000000000E+00 0.  1.
         21    1    1    2  502  501 -0.11633540680E-05 -0.38307799111E-06  0.74779440910E-06  0.14350393420E-05  0.00000000000E+00 0.  1.
<mgrwt>
<rscale>  1 0.65629156E+03</rscale>
<asrwt>0</asrwt>
<pdfrwt beam="1">  1        1 0.39156320E+00 0.65629156E+03</pdfrwt>
<pdfrwt beam="2">0</pdfrwt>
<totfact> 0.14568882E+00</totfact>
</mgrwt>
</event>
<event>
 6    1  0.5769652E-003  0.6529816E+03  0.7818608E-02  0.9801200E-01
          1   -1    0    0  502    0  0.00000000000E+00  0.00000000000E+00  0.10659625839E+03  0.10659625839E+03  0.00000000000E+00 0.  1.
         13   -1    0    0    0    0 -0.00000000000E+00 -0.00000000000E+00 -0.10000000000E+04  0.10000000000E+04  0.00000000000E+00 0.  1.
    9000005    2    1    2  501    0  0.57050489843E-06 -0.86295221990E-06 -0.89340374348E+03  0.11065962563E+04  0.65298164253E+03 0.  0.
         13    1    3    3    0    0 -0.12938069660E+02  0.28189977739E+03 -0.72496730858E+03  0.77795403248E+03  0.00000000000E+00 0.  1.
          1    1    3    3  501    0  0.12938070230E+02 -0.28189977826E+03 -0.16843643490E+03  0.32864222377E+03  0.00000000000E+00 0.  1.
         21    1    1    2  502  501 -0.57050489688E-06  0.86295224683E-06  0.18712202834E-05  0.21381365173E-05  0.00000000000E+00 0. -1.
<mgrwt>
<rscale>  1 0.65298164E+03</rscale>
<asrwt>0</asrwt>
<pdfrwt beam="1">  1        1 0.38762358E+00 0.65298164E+03</pdfrwt>
<pdfrwt beam="2">0</pdfrwt>
<totfact> 0.15176107E+00</totfact>
</mgrwt>
</event>
<event>
 6    1  0.5769652E-003  0.6007660E+03  0.7818608E-02  0.9903818E-01
          1   -1    0    0  502    0  0.00000000000E+00  0.00000000000E+00  0.90230024855E+02  0.90230024855E+02  0.00000000000E+00 0.  1.
         13   -1    0    0    0    0 -0.00000000000E+00 -0.00000000000E+00 -0.10000000000E+04  0.10000000000E+04  0.00000000000E+00 0.  1.
    9000005    2    1    2  501    0 -0.14291118504E-04 -0.48712055928E-04 -0.90977003834E+03  0.10902299438E+04  0.60076601742E+03 0.  0.
         13    1    3    3    0    0  0.13949366483E+03 -0.15144489762E+03 -0.85179298715E+03  0.87632490122E+03  0.00000000000E+00 0.  1.
          3    1    3    3  501    0 -0.13949367912E+03  0.15144484891E+03 -0.57977051190E+02  0.21390504257E+03  0.00000000000E+00 0.  1.
         21    1    1    2  502  501  0.14291118509E-04  0.48712055927E-04  0.63194934114E-04  0.81059855407E-04  0.00000000000E+00 0.  1.
<mgrwt>
<rscale>  1 0.60076602E+03</rscale>
<asrwt>0</asrwt>
<pdfrwt beam="1">  1        1 0.32810987E+00 0.60076602E+03</pdfrwt>
<pdfrwt beam="2">0</pdfrwt>
<totfact> 0.27893548E+00</totfact>
</mgrwt>
</event>
<event>
 6    1  0.5769652E-003  0.6559652E+03  0.7818608E-02  0.9795650E-01
          1   -1    0    0  502    0  0.00000000000E+00  0.00000000000E+00  0.10766636973E+03  0.10766636973E+03  0.00000000000E+00 0.  1.
         13   -1    0    0    0    0 -0.00000000000E+00 -0.00000000000E+00 -0.10000000000E+04  0.10000000000E+04  0.00000000000E+00 0.  1.
    9000005    2    1    2  501    0  0.55177039005E-02 -0.23633271362E-02 -0.89242729498E+03  0.11075725129E+04  0.65596523874E+03 0.  0.
         13    1    3    3    0    0 -0.17494510898E+03 -0.25573096976E+03 -0.62781576217E+03  0.70011195624E+03  0.00000000000E+00 0.  1.
          1    1    3    3  501    0  0.17495062668E+03  0.25572860643E+03 -0.26461153281E+03  0.40746055664E+03  0.00000000000E+00 0.  1.
         21    1    1    2  502  501 -0.55177039005E-02  0.23633271362E-02  0.93664702268E-01  0.93856842172E-01  0.00000000000E+00 0. -1.
<mgrwt>
<rscale>  1 0.65596524E+03</rscale>
<asrwt>0</asrwt>
<pdfrwt beam="1">  1        1 0.39151490E+00 0.65596524E+03</pdfrwt>
<pdfrwt beam="2">0</pdfrwt>
<totfact> 0.14576959E+00</totfact>
</mgrwt>
</event>
<event>
 6    1  0.7658981E-003  0.6702993E+03  0.7818608E-02  0.9769417E-01
          3   -1    0    0  502    0  0.00000000000E+00  0.00000000000E+00  0.11232527479E+03  0.11232527479E+03  0.00000000000E+00 0.  1.
         13   -1    0    0    0    0 -0.00000000000E+00 -0.00000000000E+00 -0.10000000000E+04  0.10000000000E+04  0.00000000000E+00 0.  1.
    9000005    2    1    2  501    0  0.55860493831E-06 -0.11395211317E-05 -0.88767472820E+03  0.11123252715E+04  0.67029925154E+03 0.  0.
         13    1    3    3    0    0 -0.30124444346E+03 -0.51823232746E+02 -0.21575313870E+03  0.37414339367E+03  0.00000000000E+00 0.  1.
          3    1    3    3  501    0  0.30124444401E+03  0.51823231607E+02 -0.67192158950E+03  0.73818187787E+03  0.00000000000E+00 0.  1.
         21    1    1    2  502  501 -0.55860489651E-06  0.11395211384E-05  0.29968672138E-05  0.32544985716E-05  0.00000000000E+00 0. -1.
<mgrwt>
<rscale>  1 0.67029925E+03</rscale>
<asrwt>0</asrwt>
<pdfrwt beam="1">  1        3 0.40845641E+00 0.67029925E+03</pdfrwt>
<pdfrwt beam="2">0</pdfrwt>
<totfact> 0.53319204E-02</totfact>
</mgrwt>
</event>
<event>
 6    1  0.5769652E-003  0.6117667E+03  0.7818608E-02  0.9881290E-01
          1   -1    0    0  502    0  0.00000000000E+00  0.00000000000E+00  0.93626748899E+02  0.93626748899E+02  0.00000000000E+00 0.  1.
         13   -1    0    0    0    0 -0.00000000000E+00 -0.00000000000E+00 -0.10000000000E+04  0.10000000000E+04  0.00000000000E+00 0.  1.
    9000005    2    1    2  501    0 -0.35844533197E-02  0.27360845364E-01 -0.90643200492E+03  0.10935618376E+04  0.61176671402E+03 0.  0.
         13    1    3    3    0    0  0.29654042468E+03  0.21984632771E+02 -0.32500127994E+03  0.44050582233E+03  0.00000000000E+00 0.  1.
          1    1    3    3  501    0 -0.29654400913E+03 -0.21957271926E+02 -0.58143072498E+03  0.65305601528E+03  0.00000000000E+00 0.  1.
         21    1    1    2  502  501  0.35844533196E-02 -0.27360845364E-01  0.58753815279E-01  0.64911285416E-01  0.00000000000E+00 0. -1.
<mgrwt>
<rscale>  1 0.61176671E+03</rscale>
<asrwt>0</asrwt>
<pdfrwt beam="1">  1        1 0.34046162E+00 0.61176671E+03</pdfrwt>
<pdfrwt beam="2">0</pdfrwt>
<totfact> 0.24609073E+00</totfact>
</mgrwt>
</event>
<event>
 6    1  0.5769652E-003  0.6548869E+03  0.7818608E-02  0.9797652E-01
          1   -1    0    0  502    0  0.00000000000E+00  0.00000000000E+00  0.10721928029E+03  0.10721928029E+03  0.00000000000E+00 0.  1.
         13   -1    0    0    0    0 -0.00000000000E+00 -0.00000000000E+00 -0.10000000000E+04  0.10000000000E+04  0.00000000000E+00 0.  1.
    9000005    2    1    2  501    0 -0.57715806633E-04  0.76049697970E-04 -0.89278075854E+03  0.11072191772E+04  0.65488687846E+03 0.  0.
         13    1    3    3    0    0  0.32206838819E+03 -0.17978521825E+02 -0.54155021350E+03  0.63033951777E+03  0.00000000000E+00 0.  1.
          1    1    3    3  501    0 -0.32206844590E+03  0.17978597875E+02 -0.35123054505E+03  0.47687965945E+03  0.00000000000E+00 0.  1.
         21    1    1    2  502  501  0.57715806652E-04 -0.76049697972E-04  0.38828048692E-04  0.10306448595E-03  0.00000000000E+00 0. -1.
<mgrwt>
<rscale>  1 0.65488688E+03</rscale>
<asrwt>0</asrwt>
<pdfrwt beam="1">  1        1 0.38988911E+00 0.65488688E+03</pdfrwt>
<pdfrwt beam="2">0</pdfrwt>
<totfact> 0.14824038E+00</totfact>
</mgrwt>
</event>
<event>
 6    1  0.5769652E-003  0.6500328E+03  0.7818608E-02  0.9806718E-01
          1   -1    0    0  502    0  0.00000000000E+00  0.00000000000E+00  0.10575037448E+03  0.10575037448E+03  0.00000000000E+00 0.  1.
         13   -1    0    0    0    0 -0.00000000000E+00 -0.00000000000E+00 -0.10000000000E+04  0.10000000000E+04  0.00000000000E+00 0.  1.
    9000005    2    1    2  501    0 -0.86216438451E-02  0.34877835990E-01 -0.89436122021E+03  0.11056331389E+04  0.65003280258E+03 0.  0.
         13    1    3    3    0    0  0.26731562411E+03 -0.14656715470E+03 -0.63875976182E+03  0.70778076199E+03  0.00000000000E+00 0.  1.
          3    1    3    3  501    0 -0.26732424576E+03  0.14660203254E+03 -0.25560145839E+03  0.39785237695E+03  0.00000000000E+00 0.  1.
         21    1    1    2  502  501  0.86216438451E-02 -0.34877835990E-01  0.11159469188E+00  0.11723553831E+00  0.00000000000E+00 0.  1.
<mgrwt>
<rscale>  1 0.65003280E+03</rscale>
<asrwt>0</asrwt>
<pdfrwt beam="1">  1        1 0.38454763E+00 0.65003280E+03</pdfrwt>
<pdfrwt beam="2">0</pdfrwt>
<totfact> 0.15667883E+00</totfact>
</mgrwt>
</event>
<event>
 6    1  0.5769652E-003  0.6450791E+03  0.7818608E-02  0.9816057E-01
          1   -1    0    0  502    0  0.00000000000E+00  0.00000000000E+00  0.10410482326E+03  0.10410482326E+03  0.00000000000E+00 0.  1.
         13   -1    0    0    0    0 -0.00000000000E+00 -0.00000000000E+00 -0.10000000000E+04  0.10000000000E+04  0.00000000000E+00 0.  1.
    9000005    2    1    2  501    0  0.94279672982E-01  0.13945789949E+00 -0.89583998722E+03  0.11039276707E+04  0.64507905795E+03 0.  0.
         13    1    3    3    0    0  0.20591649060E+02 -0.15560529367E+03  0.34258417059E+02  0.16065697174E+03  0.00000000000E+00 0.  1.
          3    1    3    3  501    0 -0.20497369387E+02  0.15574475157E+03 -0.93009840428E+03  0.94327069892E+03  0.00000000000E+00 0.  1.
         21    1    1    2  502  501 -0.94279672982E-01 -0.13945789949E+00 -0.55189513479E-01  0.17715260333E+00  0.00000000000E+00 0.  1.
<mgrwt>
<rscale>  1 0.64507908E+03</rscale>
<asrwt>0</asrwt>
<pdfrwt beam="1">  1        1 0.37856379E+00 0.64507908E+03</pdfrwt>
<pdfrwt beam="2">0</pdfrwt>
<totfact> 0.16665896E+00</totfact>
</mgrwt>
</event>
<event>
 6    1  0.5769652E-003  0.6584430E+03  0.7818608E-02  0.9791064E-01
          1   -1    0    0  502    0  0.00000000000E+00  0.00000000000E+00  0.10838889697E+03  0.10838889697E+03  0.00000000000E+00 0.  1.
         13   -1    0    0    0    0 -0.00000000000E+00 -0.00000000000E+00 -0.10000000000E+04  0.10000000000E+04  0.00000000000E+00 0.  1.
    9000005    2    1    2  501    0 -0.47977794651E-04  0.31793934966E-04 -0.89161321929E+03  0.11083867799E+04  0.65844295206E+03 0.  0.
         13    1    3    3    0    0 -0.10920924091E+03  0.30424042216E+03 -0.55090323999E+03  0.63873568290E+03  0.00000000000E+00 0.  1.
          1    1    3    3  501    0  0.10920919294E+03 -0.30424039036E+03 -0.34070997930E+03  0.46965109703E+03  0.00000000000E+00 0.  1.
         21    1    1    2  502  501  0.47977794663E-04 -0.31793935000E-04  0.21162540426E-02  0.21170365835E-02  0.00000000000E+00 0. -1.
<mgrwt>
<rscale>  1 0.65844295E+03</rscale>
<asrwt>0</asrwt>
<pdfrwt beam="1">  1        1 0.39414227E+00 0.65844295E+03</pdfrwt>
<pdfrwt beam="2">0</pdfrwt>
<totfact> 0.14183955E+00</totfact>
</mgrwt>
</event>
<event>
 6    1  0.5769652E-003  0.5792591E+03  0.7818608E-02  0.9949396E-01
          1   -1    0    0  502    0  0.00000000000E+00  0.00000000000E+00  0.83885883024E+02  0.83885883024E+02  0.00000000000E+00 0.  1.
         13   -1    0    0    0    0 -0.00000000000E+00 -0.00000000000E+00 -0.10000000000E+04  0.10000000000E+04  0.00000000000E+00 0.  1.
    9000005    2    1    2  501    0 -0.62038335216E-04  0.33125735330E-03 -0.91611466322E+03  0.10838852412E+04  0.57925913016E+03 0.  0.
         13    1    3    3    0    0  0.17711796381E+03 -0.11204817300E+03 -0.83210005696E+03  0.85808861487E+03  0.00000000000E+00 0.  1.
          3    1    3    3  501    0 -0.17711802585E+03  0.11204850426E+03 -0.84014606261E+02  0.22579662631E+03  0.00000000000E+00 0.  1.
         21    1    1    2  502  501  0.62038335203E-04 -0.33125735328E-03  0.54624529614E-03  0.64184430565E-03  0.00000000000E+00 0.  1.
<mgrwt>
<rscale>  1 0.57925913E+03</rscale>
<asrwt>0</asrwt>
<pdfrwt beam="1">  1        1 0.30504022E+00 0.57925913E+03</pdfrwt>
<pdfrwt beam="2">0</pdfrwt>
<totfact> 0.35225619E+00</totfact>
</mgrwt>
</event>
<event>
 6    1  0.5769652E-003  0.5704236E+03  0.7818608E-02  0.9968742E-01
          1   -1    0    0  502    0  0.00000000000E+00  0.00000000000E+00  0.81677758007E+02  0.81677758007E+02  0.00000000000E+00 0.  1.
         13   -1    0    0    0    0 -0.00000000000E+00 -0.00000000000E+00 -0.10000000000E+04  0.10000000000E+04  0.00000000000E+00 0.  1.
    9000005    2    1    2  501    0 -0.37612237719E-01  0.36623438513E-01 -0.91865197594E+03  0.10813438712E+04  0.57042362507E+03 0.  0.
         13    1    3    3    0    0 -0.23328987352E+03  0.76685625534E+02 -0.18430449737E+03  0.30703908221E+03  0.00000000000E+00 0.  1.
          1    1    3    3  501    0  0.23325226128E+03 -0.76649002096E+02 -0.73434747857E+03  0.77430478895E+03  0.00000000000E+00 0.  1.
         21    1    1    2  502  501  0.37612237719E-01 -0.36623438513E-01  0.32973394360E+00  0.33388685244E+00  0.00000000000E+00 0. -1.
<mgrwt>
<rscale>  1 0.57042363E+03</rscale>
<asrwt>0</asrwt>
<pdfrwt beam="1">  1        1 0.29701066E+00 0.57042363E+03</pdfrwt>
<pdfrwt beam="2">0</pdfrwt>
<totfact> 0.38209809E+00</totfact>
</mgrwt>
</event>
<event>
 6    1  0.5769652E-003  0.5825088E+03  0.7818608E-02  0.9942374E-01
          1   -1    0    0  502    0  0.00000000000E+00  0.00000000000E+00  0.84829347560E+02  0.84829347560E+02  0.00000000000E+00 0.  1.
         13   -1    0    0    0    0 -0.00000000000E+00 -0.00000000000E+00 -0.10000000000E+04  0.10000000000E+04  0.00000000000E+00 0.  1.
    9000005    2    1    2  501    0  0.11057805835E-04 -0.48273940365E-05 -0.91517086155E+03  0.10848291381E+04  0.58250884373E+03 0.  0.
         13    1    3    3    0    0 -0.22644933120E+03  0.18306596738E+03 -0.44630529291E+03  0.53289854804E+03  0.00000000000E+00 0.  1.
          3    1    3    3  501    0  0.22644934226E+03 -0.18306597220E+03 -0.46886556864E+03  0.55193059006E+03  0.00000000000E+00 0.  1.
         21    1    1    2  502  501 -0.11057805822E-04  0.48273940571E-05  0.20911438040E-03  0.20946217533E-03  0.00000000000E+00 0. -1.
<mgrwt>
<rscale>  1 0.58250884E+03</rscale>
<asrwt>0</asrwt>
<pdfrwt beam="1">  1        1 0.30847101E+00 0.58250884E+03</pdfrwt>
<pdfrwt beam="2">0</pdfrwt>
<totfact> 0.34025340E+00</totfact>
</mgrwt>
</event>
<event>
 6    1  0.5769652E-003  0.6332365E+03  0.7818608E-02  0.9838753E-01
          1   -1    0    0  502    0  0.00000000000E+00  0.00000000000E+00  0.13098117784E+03  0.13098117784E+03  0.00000000000E+00 0.  1.
         13   -1    0    0    0    0 -0.00000000000E+00 -0.00000000000E+00 -0.10000000000E+04  0.10000000000E+04  0.00000000000E+00 0.  1.
    9000005    2    1    2  501    0 -0.52409525904E+01  0.65906953342E+00 -0.89950298031E+03  0.11000427575E+04  0.63321446187E+03 0.  0.
         13    1    3    3    0    0 -0.22886160846E+03  0.78614766257E+02 -0.81246342805E+03  0.84773506429E+03  0.00000000000E+00 0.  1.
          1    1    3    3  501    0  0.22362065587E+03 -0.77955696724E+02 -0.87039552258E+02  0.25230769318E+03  0.00000000000E+00 0.  1.
         21    1    1    2  502  501  0.52409525904E+01 -0.65906953342E+00  0.30484158156E+02  0.30938420373E+02  0.00000000000E+00 0. -1.
<mgrwt>
<rscale>  1 0.63323649E+03</rscale>
<asrwt>0</asrwt>
<pdfrwt beam="1">  1        1 0.47629620E+00 0.63323649E+03</pdfrwt>
<pdfrwt beam="2">0</pdfrwt>
<totfact> 0.60161765E-01</totfact>
</mgrwt>
</event>
<event>
 6    1  0.5769652E-003  0.6449128E+03  0.7818608E-02  0.9816372E-01
          1   -1    0    0  502    0  0.00000000000E+00  0.00000000000E+00  0.10398356000E+03  0.10398356000E+03  0.00000000000E+00 0.  1.
         13   -1    0    0    0    0 -0.00000000000E+00 -0.00000000000E+00 -0.10000000000E+04  0.10000000000E+04  0.00000000000E+00 0.  1.
    9000005    2    1    2  501    0  0.41669956972E-02  0.71667486860E-02 -0.89601810902E+03  0.11039751035E+04  0.64491284486E+03 0.  0.
         13    1    3    3    0    0  0.29173632585E+03 -0.79811122506E+00 -0.68315272389E+03  0.74283804760E+03  0.00000000000E+00 0.  1.
          1    1    3    3  501    0 -0.29173215886E+03  0.80527797375E+00 -0.21286538513E+03  0.36113705594E+03  0.00000000000E+00 0.  1.
         21    1    1    2  502  501 -0.41669956972E-02 -0.71667486860E-02  0.16690237352E-02  0.84564638058E-02  0.00000000000E+00 0. -1.
<mgrwt>
<rscale>  1 0.64491284E+03</rscale>
<asrwt>0</asrwt>
<pdfrwt beam="1">  1        1 0.37812283E+00 0.64491284E+03</pdfrwt>
<pdfrwt beam="2">0</pdfrwt>
<totfact> 0.16741177E+00</totfact>
</mgrwt>
</event>
<event>
 6    1  0.5769652E-003  0.6474202E+03  0.7818608E-02  0.9811632E-01
          1   -1    0    0  502    0  0.00000000000E+00  0.00000000000E+00  0.10480434481E+03  0.10480434481E+03  0.00000000000E+00 0.  1.
         13   -1    0    0    0    0 -0.00000000000E+00 -0.00000000000E+00 -0.10000000000E+04  0.10000000000E+04  0.00000000000E+00 0.  1.
    9000005    2    1    2  501    0  0.28647504346E-01  0.27439822903E-01 -0.89517812949E+03  0.11047609769E+04  0.64742021210E+03 0.  0.
         13    1    3    3    0    0 -0.21960457389E+03 -0.22655758785E+03 -0.32426098736E+03  0.45243750663E+03  0.00000000000E+00 0.  1.
          1    1    3    3  501    0  0.21963322140E+03  0.22658502767E+03 -0.57091714213E+03  0.65232347029E+03  0.00000000000E+00 0.  1.
         21    1    1    2  502  501 -0.28647504346E-01 -0.27439822903E-01 -0.17525704758E-01  0.43367888045E-01  0.00000000000E+00 0.  1.
<mgrwt>
<rscale>  1 0.64742021E+03</rscale>
<asrwt>0</asrwt>
<pdfrwt beam="1">  1        1 0.38110751E+00 0.64742021E+03</pdfrwt>
<pdfrwt beam="2">0</pdfrwt>
<totfact> 0.16233764E+00</totfact>
</mgrwt>
</event>
<event>
 6    1  0.5769652E-003  0.6399236E+03  0.7818608E-02  0.9825873E-01
          1   -1    0    0  502    0  0.00000000000E+00  0.00000000000E+00  0.10239044593E+03  0.10239044593E+03  0.00000000000E+00 0.  1.
         13   -1    0    0    0    0 -0.00000000000E+00 -0.00000000000E+00 -0.10000000000E+04  0.10000000000E+04  0.00000000000E+00 0.  1.
    9000005    2    1    2  501    0  0.66601358998E-02  0.85750662508E-03 -0.89762362324E+03  0.11023748564E+04  0.63992355397E+03 0.  0.
         13    1    3    3    0    0  0.42072084131E+01 -0.63400063102E+02  0.91398007269E+02  0.11131425936E+03  0.00000000000E+00 0.  1.
          1    1    3    3  501    0 -0.42005482772E+01  0.63400920609E+02 -0.98902163051E+03  0.99106059701E+03  0.00000000000E+00 0.  1.
         21    1    1    2  502  501 -0.66601358998E-02 -0.85750662508E-03  0.14069171168E-01  0.15589557568E-01  0.00000000000E+00 0.  1.
<mgrwt>
<rscale>  1 0.63992355E+03</rscale>
<asrwt>0</asrwt>
<pdfrwt beam="1">  1        1 0.37232968E+00 0.63992355E+03</pdfrwt>
<pdfrwt beam="2">0</pdfrwt>
<totfact> 0.17769927E+00</totfact>
</mgrwt>
</event>
<event>
 6    1  0.5769652E-003  0.6457608E+03  0.7818608E-02  0.9814766E-01
          1   -1    0    0  502    0  0.00000000000E+00  0.00000000000E+00  0.10426086473E+03  0.10426086473E+03  0.00000000000E+00 0.  1.
         13   -1    0    0    0    0 -0.00000000000E+00 -0.00000000000E+00 -0.10000000000E+04  0.10000000000E+04  0.00000000000E+00 0.  1.
    9000005    2    1    2  501    0 -0.12582846773E-03 -0.36435250075E-03 -0.89574825216E+03  0.11042517397E+04  0.64576077100E+03 0.  0.
         13    1    3    3    0    0  0.27501375231E+03  0.16366027703E+03 -0.37463476940E+03  0.49271539521E+03  0.00000000000E+00 0.  1.
          3    1    3    3  501    0 -0.27501387814E+03 -0.16366064138E+03 -0.52111348276E+03  0.61153634448E+03  0.00000000000E+00 0.  1.
         21    1    1    2  502  501  0.12582846777E-03  0.36435250076E-03  0.91168963377E-02  0.91250416098E-02  0.00000000000E+00 0. -1.
<mgrwt>
<rscale>  1 0.64576077E+03</rscale>
<asrwt>0</asrwt>
<pdfrwt beam="1">  1        1 0.37913122E+00 0.64576077E+03</pdfrwt>
<pdfrwt beam="2">0</pdfrwt>
<totfact> 0.16568077E+00</totfact>
</mgrwt>
</event>
<event>
 6    1  0.5769652E-003  0.6559045E+03  0.7818608E-02  0.9795762E-01
          1   -1    0    0  502    0  0.00000000000E+00  0.00000000000E+00  0.10774435619E+03  0.10774435619E+03  0.00000000000E+00 0.  1.
         13   -1    0    0    0    0 -0.00000000000E+00 -0.00000000000E+00 -0.10000000000E+04  0.10000000000E+04  0.00000000000E+00 0.  1.
    9000005    2    1    2  501    0  0.30403486215E+00 -0.35795858954E-02 -0.89230323947E+03  0.11074365976E+04  0.65590445497E+03 0.  0.
         13    1    3    3    0    0 -0.23201278898E+03  0.18237700642E+03 -0.68709901732E+03  0.74779433424E+03  0.00000000000E+00 0.  1.
          1    1    3    3  501    0  0.23231682385E+03 -0.18238058601E+03 -0.20520422215E+03  0.35964226334E+03  0.00000000000E+00 0.  1.
         21    1    1    2  502  501 -0.30403486215E+00  0.35795858954E-02  0.47595668080E-01  0.30775860420E+00  0.00000000000E+00 0.  1.
<mgrwt>
<rscale>  1 0.65590453E+03</rscale>
<asrwt>0</asrwt>
<pdfrwt beam="1">  1        1 0.39179849E+00 0.65590453E+03</pdfrwt>
<pdfrwt beam="2">0</pdfrwt>
<totfact> 0.14534934E+00</totfact>
</mgrwt>
</event>
<event>
 6    1  0.5769652E-003  0.6466503E+03  0.7818608E-02  0.9813085E-01
          1   -1    0    0  502    0  0.00000000000E+00  0.00000000000E+00  0.10453916932E+03  0.10453916932E+03  0.00000000000E+00 0.  1.
         13   -1    0    0    0    0 -0.00000000000E+00 -0.00000000000E+00 -0.10000000000E+04  0.10000000000E+04  0.00000000000E+00 0.  1.
    9000005    2    1    2  501    0 -0.12596568411E-05  0.54942392040E-05 -0.89546085677E+03  0.11045391426E+04  0.64665026991E+03 0.  0.
         13    1    3    3    0    0 -0.19006866823E+03  0.40488301262E+02 -0.63485436653E+01  0.19443689256E+03  0.00000000000E+00 0.  1.
          1    1    3    3  501    0  0.19006866697E+03 -0.40488295768E+02 -0.88911231311E+03  0.91010225007E+03  0.00000000000E+00 0.  1.
         21    1    1    2  502  501  0.12596568449E-05 -0.54942392051E-05  0.26091848581E-04  0.26693781339E-04  0.00000000000E+00 0. -1.
<mgrwt>
<rscale>  1 0.64665027E+03</rscale>
<asrwt>0</asrwt>
<pdfrwt beam="1">  1        1 0.38014324E+00 0.64665027E+03</pdfrwt>
<pdfrwt beam="2">0</pdfrwt>
<totfact> 0.16395952E+00</totfact>
</mgrwt>
</event>
<event>
 6    1  0.8251014E-003  0.5852964E+03  0.7818608E-02  0.9936390E-01
          1   -1    0    0  502    0  0.00000000000E+00  0.00000000000E+00  0.85642965568E+02  0.85642965568E+02  0.00000000000E+00 0.  1.
         13   -1    0    0    0    0 -0.00000000000E+00 -0.00000000000E+00 -0.10000000000E+04  0.10000000000E+04  0.00000000000E+00 0.  1.
    9000005    2    1    2  501    0 -0.20902348297E-06  0.12051345095E-05 -0.91435704019E+03  0.10856429597E+04  0.58529636847E+03 0.  0.
         13    1    3    3    0    0  0.19883067287E+03 -0.13971400165E+03 -0.75963633611E+03  0.79755940335E+03  0.00000000000E+00 0.  1.
          3    1    3    3  501    0 -0.19883067308E+03  0.13971400286E+03 -0.15472070408E+03  0.28808355632E+03  0.00000000000E+00 0.  1.
         21    1    1    2  502  501  0.20902349591E-06 -0.12051345017E-05  0.57623469856E-05  0.58907285433E-05  0.00000000000E+00 0.  1.
<mgrwt>
<rscale>  1 0.58529637E+03</rscale>
<asrwt>0</asrwt>
<pdfrwt beam="1">  1        1 0.31142962E+00 0.58529637E+03</pdfrwt>
<pdfrwt beam="2">0</pdfrwt>
<totfact> 0.33022859E+00</totfact>
</mgrwt>
</event>
<event>
 6    1  0.5769652E-003  0.6488077E+03  0.7818608E-02  0.9809019E-01
          1   -1    0    0  502    0  0.00000000000E+00  0.00000000000E+00  0.12276930177E+03  0.12276930177E+03  0.00000000000E+00 0.  1.
         13   -1    0    0    0    0 -0.00000000000E+00 -0.00000000000E+00 -0.10000000000E+04  0.10000000000E+04  0.00000000000E+00 0.  1.
    9000005    2    1    2  501    0  0.34811696438E+01 -0.30285238308E+01 -0.89442597291E+03  0.11049657075E+04  0.64879126316E+03 0.  0.
         13    1    3    3    0    0 -0.20085383675E+03  0.11545609188E+03 -0.62211395786E+02  0.23988045075E+03  0.00000000000E+00 0.  1.
          3    1    3    3  501    0  0.20433500639E+03 -0.11848461571E+03 -0.83221457713E+03  0.86508525671E+03  0.00000000000E+00 0.  1.
         21    1    1    2  502  501 -0.34811696438E+01  0.30285238308E+01  0.17195274679E+02  0.17803594299E+02  0.00000000000E+00 0. -1.
<mgrwt>
<rscale>  1 0.64880767E+03</rscale>
<asrwt>0</asrwt>
<pdfrwt beam="1">  1        1 0.44643477E+00 0.64880767E+03</pdfrwt>
<pdfrwt beam="2">0</pdfrwt>
<totfact> 0.82524846E-01</totfact>
</mgrwt>
</event>
<event>
 6    1  0.5769652E-003  0.6719580E+03  0.7818608E-02  0.9766427E-01
          1   -1    0    0  502    0  0.00000000000E+00  0.00000000000E+00  0.11362155440E+03  0.11362155440E+03  0.00000000000E+00 0.  1.
         13   -1    0    0    0    0 -0.00000000000E+00 -0.00000000000E+00 -0.10000000000E+04  0.10000000000E+04  0.00000000000E+00 0.  1.
    9000005    2    1    2  501    0 -0.78129836418E-01  0.10022074329E-01 -0.88711576694E+03  0.11128800374E+04  0.67195802507E+03 0.  0.
         13    1    3    3    0    0 -0.17181496568E+03 -0.24145794230E+03 -0.70581312765E+03  0.76550277040E+03  0.00000000000E+00 0.  1.
          1    1    3    3  501    0  0.17173683585E+03  0.24146796437E+03 -0.18130263929E+03  0.34737726699E+03  0.00000000000E+00 0.  1.
         21    1    1    2  502  501  0.78129836418E-01 -0.10022074329E-01  0.73732134467E+00  0.74151701169E+00  0.00000000000E+00 0.  1.
<mgrwt>
<rscale>  1 0.67195803E+03</rscale>
<asrwt>0</asrwt>
<pdfrwt beam="1">  1        1 0.41317016E+00 0.67195803E+03</pdfrwt>
<pdfrwt beam="2">0</pdfrwt>
<totfact> 0.11632135E+00</totfact>
</mgrwt>
</event>
<event>
 6    1  0.5769652E-003  0.4991018E+03  0.7818608E-02  0.1014014E+00
          1   -1    0    0  502    0  0.00000000000E+00  0.00000000000E+00  0.62288355977E+02  0.62288355977E+02  0.00000000000E+00 0.  1.
         13   -1    0    0    0    0 -0.00000000000E+00 -0.00000000000E+00 -0.10000000000E+04  0.10000000000E+04  0.00000000000E+00 0.  1.
    9000005    2    1    2  501    0  0.24717845992E-03  0.39458708912E-03 -0.93772433239E+03  0.10622756591E+04  0.49910184561E+03 0.  0.
         13    1    3    3    0    0 -0.14990540647E+03 -0.15243863167E+03 -0.74280599849E+03  0.77296178347E+03  0.00000000000E+00 0.  1.
          3    1    3    3  501    0  0.14990565365E+03  0.15243902626E+03 -0.19491833390E+03  0.28931387560E+03  0.00000000000E+00 0.  1.
         21    1    1    2  502  501 -0.24717845992E-03 -0.39458708913E-03  0.12688367883E-01  0.12696908115E-01  0.00000000000E+00 0.  1.
<mgrwt>
<rscale>  1 0.49910185E+03</rscale>
<asrwt>0</asrwt>
<pdfrwt beam="1">  1        1 0.22650359E+00 0.49910185E+03</pdfrwt>
<pdfrwt beam="2">0</pdfrwt>
<totfact> 0.78275894E+00</totfact>
</mgrwt>
</event>
<event>
 6    1  0.5769652E-003  0.5285950E+03  0.7818608E-02  0.1006573E+00
          1   -1    0    0  502    0  0.00000000000E+00  0.00000000000E+00  0.69866425865E+02  0.69866425865E+02  0.00000000000E+00 0.  1.
         13   -1    0    0    0    0 -0.00000000000E+00 -0.00000000000E+00 -0.10000000000E+04  0.10000000000E+04  0.00000000000E+00 0.  1.
    9000005    2    1    2  501    0  0.38818088460E-02  0.26974130422E-02 -0.93014637902E+03  0.10698527763E+04  0.52859500244E+03 0.  0.
         13    1    3    3    0    0  0.25378801989E+03  0.64722112026E+02 -0.39331881911E+03  0.47254312427E+03  0.00000000000E+00 0.  1.
          1    1    3    3  501    0 -0.25378413809E+03 -0.64719414613E+02 -0.53682755991E+03  0.59730965207E+03  0.00000000000E+00 0.  1.
         21    1    1    2  502  501 -0.38818088460E-02 -0.26974130422E-02  0.12804887969E-01  0.13649528671E-01  0.00000000000E+00 0.  1.
<mgrwt>
<rscale>  1 0.52859500E+03</rscale>
<asrwt>0</asrwt>
<pdfrwt beam="1">  1        1 0.25406027E+00 0.52859500E+03</pdfrwt>
<pdfrwt beam="2">0</pdfrwt>
<totfact> 0.59014642E+00</totfact>
</mgrwt>
</event>
<event>
 6    1  0.5769652E-003  0.6490479E+03  0.7818608E-02  0.9808567E-01
          1   -1    0    0  502    0  0.00000000000E+00  0.00000000000E+00  0.14917012238E+03  0.14917012238E+03  0.00000000000E+00 0.  1.
         13   -1    0    0    0    0 -0.00000000000E+00 -0.00000000000E+00 -0.10000000000E+04  0.10000000000E+04  0.00000000000E+00 0.  1.
    9000005    2    1    2  501    0  0.22057580511E+01  0.30527895000E+01 -0.89459482014E+03  0.11052434211E+04  0.64903693480E+03 0.  0.
         13    1    3    3    0    0 -0.23466742178E+03 -0.18228327166E+03 -0.22999856196E+03  0.37575966851E+03  0.00000000000E+00 0.  1.
          1    1    3    3  501    0  0.23687317983E+03  0.18533606116E+03 -0.66459625818E+03  0.72948375258E+03  0.00000000000E+00 0.  1.
         21    1    1    2  502  501 -0.22057580511E+01 -0.30527895000E+01  0.43764942519E+02  0.43926701288E+02  0.00000000000E+00 0.  1.
<mgrwt>
<rscale>  1 0.64904786E+03</rscale>
<asrwt>0</asrwt>
<pdfrwt beam="1">  1        1 0.54243795E+00 0.64904786E+03</pdfrwt>
<pdfrwt beam="2">0</pdfrwt>
<totfact> 0.28600344E-01</totfact>
</mgrwt>
</event>
<event>
 6    1  0.5769652E-003  0.6663178E+03  0.7818608E-02  0.9776633E-01
          1   -1    0    0  502    0  0.00000000000E+00  0.00000000000E+00  0.11101032462E+03  0.11101032462E+03  0.00000000000E+00 0.  1.
         13   -1    0    0    0    0 -0.00000000000E+00 -0.00000000000E+00 -0.10000000000E+04  0.10000000000E+04  0.00000000000E+00 0.  1.
    9000005    2    1    2  501    0 -0.20014220207E-01  0.19358340046E-01 -0.88898969295E+03  0.11109824802E+04  0.66631778924E+03 0.  0.
         13    1    3    3    0    0 -0.72957439874E+02 -0.11638929277E+03  0.61580807514E+02  0.15053720921E+03  0.00000000000E+00 0.  1.
          3    1    3    3  501    0  0.72937425654E+02  0.11640865111E+03 -0.95057050046E+03  0.96044527094E+03  0.00000000000E+00 0.  1.
         21    1    1    2  502  501  0.20014220207E-01 -0.19358340046E-01  0.17574249850E-04  0.27844472498E-01  0.00000000000E+00 0. -1.
<mgrwt>
<rscale>  1 0.66631779E+03</rscale>
<asrwt>0</asrwt>
<pdfrwt beam="1">  1        1 0.40367476E+00 0.66631779E+03</pdfrwt>
<pdfrwt beam="2">0</pdfrwt>
<totfact> 0.12843262E+00</totfact>
</mgrwt>
</event>
<event>
 6    1  0.5769652E-003  0.6525543E+03  0.7818608E-02  0.9801998E-01
          1   -1    0    0  502    0  0.00000000000E+00  0.00000000000E+00  0.10645680115E+03  0.10645680115E+03  0.00000000000E+00 0.  1.
         13   -1    0    0    0    0 -0.00000000000E+00 -0.00000000000E+00 -0.10000000000E+04  0.10000000000E+04  0.00000000000E+00 0.  1.
    9000005    2    1    2  501    0  0.20095840455E-04  0.58270250918E-05 -0.89354319261E+03  0.11064567793E+04  0.65255434061E+03 0.  0.
         13    1    3    3    0    0 -0.17635431845E+03 -0.21498946781E+03 -0.73619175113E+03  0.78695591448E+03  0.00000000000E+00 0.  1.
          1    1    3    3  501    0  0.17635433854E+03  0.21498947364E+03 -0.15735144149E+03  0.31950086484E+03  0.00000000000E+00 0.  1.
         21    1    1    2  502  501 -0.20095840456E-04 -0.58270250773E-05 -0.62350125395E-05  0.21832828636E-04  0.00000000000E+00 0.  1.
<mgrwt>
<rscale>  1 0.65255434E+03</rscale>
<asrwt>0</asrwt>
<pdfrwt beam="1">  1        1 0.38711646E+00 0.65255434E+03</pdfrwt>
<pdfrwt beam="2">0</pdfrwt>
<totfact> 0.15255996E+00</totfact>
</mgrwt>
</event>
<event>
 6    1  0.5769652E-003  0.6568699E+03  0.7818608E-02  0.9793973E-01
          1   -1    0    0  502    0  0.00000000000E+00  0.00000000000E+00  0.10911843036E+03  0.10911843036E+03  0.00000000000E+00 0.  1.
         13   -1    0    0    0    0 -0.00000000000E+00 -0.00000000000E+00 -0.10000000000E+04  0.10000000000E+04  0.00000000000E+00 0.  1.
    9000005    2    1    2  501    0 -0.47917418016E+00  0.19419141031E+00 -0.89207091940E+03  0.11078215606E+04  0.65686971133E+03 0.  0.
         13    1    3    3    0    0  0.27773802174E+03 -0.10394294056E+03 -0.20856256728E+03  0.36254777351E+03  0.00000000000E+00 0.  1.
          3    1    3    3  501    0 -0.27821719592E+03  0.10413713197E+03 -0.68350835213E+03  0.74527378713E+03  0.00000000000E+00 0.  1.
         21    1    1    2  502  501  0.47917418016E+00 -0.19419141031E+00  0.11893497662E+01  0.12968697179E+01  0.00000000000E+00 0. -1.
<mgrwt>
<rscale>  1 0.65686991E+03</rscale>
<asrwt>0</asrwt>
<pdfrwt beam="1">  1        1 0.39679513E+00 0.65686991E+03</pdfrwt>
<pdfrwt beam="2">0</pdfrwt>
<totfact> 0.13807841E+00</totfact>
</mgrwt>
</event>
<event>
 6    1  0.5769652E-003  0.6544536E+03  0.7818608E-02  0.9798458E-01
          1   -1    0    0  502    0  0.00000000000E+00  0.00000000000E+00  0.12682714545E+03  0.12682714545E+03  0.00000000000E+00 0.  1.
         13   -1    0    0    0    0 -0.00000000000E+00 -0.00000000000E+00 -0.10000000000E+04  0.10000000000E+04  0.00000000000E+00 0.  1.
    9000005    2    1    2  501    0  0.27033697138E+00 -0.15498224338E+00 -0.89292126810E+03  0.11070762736E+04  0.65445350288E+03 0.  0.
         13    1    3    3    0    0  0.24659217115E+03  0.16501915695E+03 -0.68020436559E+03  0.74210309257E+03  0.00000000000E+00 0.  1.
          3    1    3    3  501    0 -0.24632183418E+03 -0.16517413919E+03 -0.21271690251E+03  0.36497318102E+03  0.00000000000E+00 0.  1.
         21    1    1    2  502  501 -0.27033697138E+00  0.15498224338E+00  0.19748413550E+02  0.19750871862E+02  0.00000000000E+00 0. -1.
<mgrwt>
<rscale>  1 0.65445358E+03</rscale>
<asrwt>0</asrwt>
<pdfrwt beam="1">  1        1 0.46119059E+00 0.65445358E+03</pdfrwt>
<pdfrwt beam="2">0</pdfrwt>
<totfact> 0.70455636E-01</totfact>
</mgrwt>
</event>
<event>
 6    1  0.5769652E-003  0.6435315E+03  0.7818608E-02  0.9818993E-01
          1   -1    0    0  502    0  0.00000000000E+00  0.00000000000E+00  0.10353364507E+03  0.10353364507E+03  0.00000000000E+00 0.  1.
         13   -1    0    0    0    0 -0.00000000000E+00 -0.00000000000E+00 -0.10000000000E+04  0.10000000000E+04  0.00000000000E+00 0.  1.
    9000005    2    1    2  501    0  0.71657873960E-03  0.10958084684E-03 -0.89646645227E+03  0.11035329137E+04  0.64353149999E+03 0.  0.
         13    1    3    3    0    0 -0.20765030365E+03  0.16113769609E+03 -0.76650915041E+03  0.81032109893E+03  0.00000000000E+00 0.  1.
          3    1    3    3  501    0  0.20765102023E+03 -0.16113758651E+03 -0.12995730186E+03  0.29321181472E+03  0.00000000000E+00 0.  1.
         21    1    1    2  502  501 -0.71657873958E-03 -0.10958084684E-03  0.97333639233E-04  0.73141430759E-03  0.00000000000E+00 0. -1.
<mgrwt>
<rscale>  1 0.64353150E+03</rscale>
<asrwt>0</asrwt>
<pdfrwt beam="1">  1        1 0.37648678E+00 0.64353150E+03</pdfrwt>
<pdfrwt beam="2">0</pdfrwt>
<totfact> 0.17025713E+00</totfact>
</mgrwt>
</event>
<event>
 6    1  0.5769652E-003  0.6410129E+03  0.7818608E-02  0.9823791E-01
          3   -1    0    0  502    0  0.00000000000E+00  0.00000000000E+00  0.10272618089E+03  0.10272618089E+03  0.00000000000E+00 0.  1.
         13   -1    0    0    0    0 -0.00000000000E+00 -0.00000000000E+00 -0.10000000000E+04  0.10000000000E+04  0.00000000000E+00 0.  1.
    9000005    2    1    2  501    0 -0.10859426638E-03 -0.24011346170E-04 -0.89727562303E+03  0.11027243735E+04  0.64101287064E+03 0.  0.
         13    1    3    3    0    0  0.17766938194E+03 -0.24441809227E+03 -0.63245680856E+03  0.70093382555E+03  0.00000000000E+00 0.  1.
          1    1    3    3  501    0 -0.17766949054E+03  0.24441806826E+03 -0.26481881447E+03  0.40179054799E+03  0.00000000000E+00 0.  1.
         21    1    1    2  502  501  0.10859426638E-03  0.24011346195E-04  0.18039188139E-02  0.18073440034E-02  0.00000000000E+00 0.  1.
<mgrwt>
<rscale>  1 0.64101287E+03</rscale>
<asrwt>0</asrwt>
<pdfrwt beam="1">  1        3 0.37355054E+00 0.64101287E+03</pdfrwt>
<pdfrwt beam="2">0</pdfrwt>
<totfact> 0.81765670E-02</totfact>
</mgrwt>
</event>
<event>
 6    1  0.5769652E-003  0.6621028E+03  0.7818608E-02  0.9784330E-01
          1   -1    0    0  502    0  0.00000000000E+00  0.00000000000E+00  0.10961442495E+03  0.10961442495E+03  0.00000000000E+00 0.  1.
         13   -1    0    0    0    0 -0.00000000000E+00 -0.00000000000E+00 -0.10000000000E+04  0.10000000000E+04  0.00000000000E+00 0.  1.
    9000005    2    1    2  501    0  0.15601140488E-02 -0.10141149917E-02 -0.89040492062E+03  0.11095949901E+04  0.66210280122E+03 0.  0.
         13    1    3    3    0    0 -0.20311941545E+03  0.24394622536E+03 -0.60265424039E+03  0.68114564614E+03  0.00000000000E+00 0.  1.
          1    1    3    3  501    0  0.20312097557E+03 -0.24394723948E+03 -0.28775068023E+03  0.42844934396E+03  0.00000000000E+00 0.  1.
         21    1    1    2  502  501 -0.15601140488E-02  0.10141149917E-02  0.19345572533E-01  0.19434854301E-01  0.00000000000E+00 0.  1.
<mgrwt>
<rscale>  1 0.66210280E+03</rscale>
<asrwt>0</asrwt>
<pdfrwt beam="1">  1        1 0.39859875E+00 0.66210280E+03</pdfrwt>
<pdfrwt beam="2">0</pdfrwt>
<totfact> 0.13541559E+00</totfact>
</mgrwt>
</event>
<event>
 6    1  0.5769652E-003  0.6500680E+03  0.7818608E-02  0.9806652E-01
          1   -1    0    0  502    0  0.00000000000E+00  0.00000000000E+00  0.10566683741E+03  0.10566683741E+03  0.00000000000E+00 0.  1.
         13   -1    0    0    0    0 -0.00000000000E+00 -0.00000000000E+00 -0.10000000000E+04  0.10000000000E+04  0.00000000000E+00 0.  1.
    9000005    2    1    2  501    0  0.31258860419E-01 -0.20940714936E-01 -0.89433069006E+03  0.11056291314E+04  0.65006798998E+03 0.  0.
         13    1    3    3    0    0  0.74557762436E+02  0.31269283215E+03 -0.52885124020E+03  0.61888553180E+03  0.00000000000E+00 0.  1.
          1    1    3    3  501    0 -0.74526503576E+02 -0.31271377286E+03 -0.36547944986E+03  0.48674359959E+03  0.00000000000E+00 0.  1.
         21    1    1    2  502  501 -0.31258860419E-01  0.20940714936E-01 -0.24725370139E-02  0.37706011935E-01  0.00000000000E+00 0. -1.
<mgrwt>
<rscale>  1 0.65006799E+03</rscale>
<asrwt>0</asrwt>
<pdfrwt beam="1">  1        1 0.38424386E+00 0.65006799E+03</pdfrwt>
<pdfrwt beam="2">0</pdfrwt>
<totfact> 0.15716316E+00</totfact>
</mgrwt>
</event>
<event>
 6    1  0.5769652E-003  0.6404942E+03  0.7818608E-02  0.9824782E-01
          1   -1    0    0  502    0  0.00000000000E+00  0.00000000000E+00  0.10727927028E+03  0.10727927028E+03  0.00000000000E+00 0.  1.
         13   -1    0    0    0    0 -0.00000000000E+00 -0.00000000000E+00 -0.10000000000E+04  0.10000000000E+04  0.00000000000E+00 0.  1.
    9000005    2    1    2  501    0 -0.10920102638E+01  0.45439298309E-01 -0.89737196402E+03  0.11025013490E+04  0.64049323822E+03 0.  0.
         13    1    3    3    0    0 -0.13410842690E+03  0.55833529897E+02 -0.94073316523E+03  0.95188305026E+03  0.00000000000E+00 0.  1.
          1    1    3    3  501    0  0.13301641663E+03 -0.55788090599E+02  0.43361201203E+02  0.15061829874E+03  0.00000000000E+00 0.  1.
         21    1    1    2  502  501  0.10920102638E+01 -0.45439298309E-01  0.46512343065E+01  0.47779212760E+01  0.00000000000E+00 0. -1.
<mgrwt>
<rscale>  1 0.64049417E+03</rscale>
<asrwt>0</asrwt>
<pdfrwt beam="1">  1        1 0.39010726E+00 0.64049417E+03</pdfrwt>
<pdfrwt beam="2">0</pdfrwt>
<totfact> 0.14830966E+00</totfact>
</mgrwt>
</event>
<event>
 6    1  0.5769652E-003  0.6473773E+03  0.7818608E-02  0.9811713E-01
          1   -1    0    0  502    0  0.00000000000E+00  0.00000000000E+00  0.10477435887E+03  0.10477435887E+03  0.00000000000E+00 0.  1.
         13   -1    0    0    0    0 -0.00000000000E+00 -0.00000000000E+00 -0.10000000000E+04  0.10000000000E+04  0.00000000000E+00 0.  1.
    9000005    2    1    2  501    0 -0.11127721223E-04  0.31713019553E-05 -0.89522563010E+03  0.11047743429E+04  0.64737733966E+03 0.  0.
         13    1    3    3    0    0  0.19241852413E+02  0.31595923607E+03 -0.33219897421E+03  0.45886451836E+03  0.00000000000E+00 0.  1.
          1    1    3    3  501    0 -0.19241863540E+02 -0.31595923290E+03 -0.56302665589E+03  0.64590982452E+03  0.00000000000E+00 0.  1.
         21    1    1    2  502  501  0.11127721222E-04 -0.31713019861E-05 -0.11032181782E-04  0.15987256512E-04  0.00000000000E+00 0.  1.
<mgrwt>
<rscale>  1 0.64737734E+03</rscale>
<asrwt>0</asrwt>
<pdfrwt beam="1">  1        1 0.38099847E+00 0.64737734E+03</pdfrwt>
<pdfrwt beam="2">0</pdfrwt>
<totfact> 0.16251895E+00</totfact>
</mgrwt>
</event>
<event>
 6    1  0.5769652E-003  0.6162452E+03  0.7818608E-02  0.9872264E-01
          1   -1    0    0  502    0  0.00000000000E+00  0.00000000000E+00  0.94940103390E+02  0.94940103390E+02  0.00000000000E+00 0.  1.
         13   -1    0    0    0    0 -0.00000000000E+00 -0.00000000000E+00 -0.10000000000E+04  0.10000000000E+04  0.00000000000E+00 0.  1.
    9000005    2    1    2  501    0 -0.44380463805E-04  0.18074822452E-03 -0.90506045161E+03  0.10949395180E+04  0.61624518419E+03 0.  0.
         13    1    3    3    0    0  0.16876798997E+03  0.14245265750E+03 -0.70771482610E+02  0.23191377022E+03  0.00000000000E+00 0.  1.
          3    1    3    3  501    0 -0.16876803435E+03 -0.14245247675E+03 -0.83428896900E+03  0.86302574779E+03  0.00000000000E+00 0.  1.
         21    1    1    2  502  501  0.44380463811E-04 -0.18074822454E-03  0.55500142145E-03  0.58537690769E-03  0.00000000000E+00 0. -1.
<mgrwt>
<rscale>  1 0.61624518E+03</rscale>
<asrwt>0</asrwt>
<pdfrwt beam="1">  1        1 0.34523747E+00 0.61624518E+03</pdfrwt>
<pdfrwt beam="2">0</pdfrwt>
<totfact> 0.23441671E+00</totfact>
</mgrwt>
</event>
<event>
 6    1  0.5769652E-003  0.6426378E+03  0.7818608E-02  0.9820693E-01
          1   -1    0    0  502    0  0.00000000000E+00  0.00000000000E+00  0.10324629908E+03  0.10324629908E+03  0.00000000000E+00 0.  1.
         13   -1    0    0    0    0 -0.00000000000E+00 -0.00000000000E+00 -0.10000000000E+04  0.10000000000E+04  0.00000000000E+00 0.  1.
    9000005    2    1    2  501    0  0.27147830954E-03  0.39880433094E-03 -0.89675401167E+03  0.11032457252E+04  0.64263782395E+03 0.  0.
         13    1    3    3    0    0  0.41797648429E+02 -0.66774433125E+02 -0.98316450446E+03  0.98631552312E+03  0.00000000000E+00 0.  1.
          1    1    3    3  501    0 -0.41797376951E+02  0.66774831929E+02  0.86410492784E+02  0.11693020210E+03  0.00000000000E+00 0.  1.
         21    1    1    2  502  501 -0.27147830954E-03 -0.39880433095E-03  0.31074733728E-03  0.57385475040E-03  0.00000000000E+00 0. -1.
<mgrwt>
<rscale>  1 0.64263782E+03</rscale>
<asrwt>0</asrwt>
<pdfrwt beam="1">  1        1 0.37544188E+00 0.64263782E+03</pdfrwt>
<pdfrwt beam="2">0</pdfrwt>
<totfact> 0.17209880E+00</totfact>
</mgrwt>
</event>
<event>
 6    1  0.5769652E-003  0.6365971E+03  0.7818608E-02  0.9832259E-01
          1   -1    0    0  502    0  0.00000000000E+00  0.00000000000E+00  0.10131871793E+03  0.10131871793E+03  0.00000000000E+00 0.  1.
         13   -1    0    0    0    0 -0.00000000000E+00 -0.00000000000E+00 -0.10000000000E+04  0.10000000000E+04  0.00000000000E+00 0.  1.
    9000005    2    1    2  501    0 -0.15015891731E-03 -0.30848279982E-03 -0.89868601271E+03  0.11013139749E+04  0.63659714246E+03 0.  0.
         13    1    3    3    0    0  0.21405489260E+02 -0.31475886082E+03 -0.37629824118E+03  0.49105162840E+03  0.00000000000E+00 0.  1.
          1    1    3    3  501    0 -0.21405639419E+02  0.31475855234E+03 -0.52238777153E+03  0.61026234647E+03  0.00000000000E+00 0.  1.
         21    1    1    2  502  501  0.15015891731E-03  0.30848279980E-03  0.47306406279E-02  0.47430654738E-02  0.00000000000E+00 0.  1.
<mgrwt>
<rscale>  1 0.63659714E+03</rscale>
<asrwt>0</asrwt>
<pdfrwt beam="1">  1        1 0.36843248E+00 0.63659714E+03</pdfrwt>
<pdfrwt beam="2">0</pdfrwt>
<totfact> 0.18495569E+00</totfact>
</mgrwt>
</event>
<event>
 6    1  0.5769652E-003  0.6647765E+03  0.7818608E-02  0.9779440E-01
          1   -1    0    0  502    0  0.00000000000E+00  0.00000000000E+00  0.11048444189E+03  0.11048444189E+03  0.00000000000E+00 0.  1.
         13   -1    0    0    0    0 -0.00000000000E+00 -0.00000000000E+00 -0.10000000000E+04  0.10000000000E+04  0.00000000000E+00 0.  1.
    9000005    2    1    2  501    0 -0.13903925498E-03  0.58784953040E-04 -0.88951803365E+03  0.11104819618E+04  0.66477654531E+03 0.  0.
         13    1    3    3    0    0 -0.30749606769E+03  0.12276222223E+03 -0.39583950634E+03  0.51605552960E+03  0.00000000000E+00 0.  1.
          1    1    3    3  501    0  0.30749592865E+03 -0.12276216344E+03 -0.49367852731E+03  0.59442643215E+03  0.00000000000E+00 0.  1.
         21    1    1    2  502  501  0.13903925498E-03 -0.58784953038E-04  0.24755409662E-02  0.24801392422E-02  0.00000000000E+00 0. -1.
<mgrwt>
<rscale>  1 0.66477655E+03</rscale>
<asrwt>0</asrwt>
<pdfrwt beam="1">  1        1 0.40176245E+00 0.66477655E+03</pdfrwt>
<pdfrwt beam="2">0</pdfrwt>
<totfact> 0.13102130E+00</totfact>
</mgrwt>
</event>
<event>
 6    1  0.5769652E-003  0.6472888E+03  0.7818608E-02  0.9811880E-01
          1   -1    0    0  502    0  0.00000000000E+00  0.00000000000E+00  0.10498858815E+03  0.10498858815E+03  0.00000000000E+00 0.  1.
         13   -1    0    0    0    0 -0.00000000000E+00 -0.00000000000E+00 -0.10000000000E+04  0.10000000000E+04  0.00000000000E+00 0.  1.
    9000005    2    1    2  501    0  0.44567453937E-02 -0.89034886948E-02 -0.89525419250E+03  0.11047456034E+04  0.64728879104E+03 0.  0.
         13    1    3    3    0    0 -0.31969267250E+03 -0.49715772538E+02 -0.46186873019E+03  0.56391292485E+03  0.00000000000E+00 0.  1.
          3    1    3    3  501    0  0.31969712924E+03  0.49706869049E+02 -0.43338546230E+03  0.54083267857E+03  0.00000000000E+00 0.  1.
         21    1    1    2  502  501 -0.44567453937E-02  0.89034886948E-02  0.24278064211E+00  0.24298472148E+00  0.00000000000E+00 0. -1.
<mgrwt>
<rscale>  1 0.64728879E+03</rscale>
<asrwt>0</asrwt>
<pdfrwt beam="1">  1        1 0.38177749E+00 0.64728879E+03</pdfrwt>
<pdfrwt beam="2">0</pdfrwt>
<totfact> 0.16123954E+00</totfact>
</mgrwt>
</event>
<event>
 6    1  0.5769652E-003  0.6412427E+03  0.7818608E-02  0.9823352E-01
          1   -1    0    0  502    0  0.00000000000E+00  0.00000000000E+00  0.10280095228E+03  0.10280095228E+03  0.00000000000E+00 0.  1.
         13   -1    0    0    0    0 -0.00000000000E+00 -0.00000000000E+00 -0.10000000000E+04  0.10000000000E+04  0.00000000000E+00 0.  1.
    9000005    2    1    2  501    0  0.12690751043E-03 -0.54524636098E-02 -0.89719880158E+03  0.11027954928E+04  0.64124270704E+03 0.  0.
         13    1    3    3    0    0 -0.14949785558E+03 -0.25233615760E+03 -0.22585110160E+03  0.37017815352E+03  0.00000000000E+00 0.  1.
          1    1    3    3  501    0  0.14949798249E+03  0.25233070513E+03 -0.67134769999E+03  0.73261733927E+03  0.00000000000E+00 0.  1.
         21    1    1    2  502  501 -0.12690751044E-03  0.54524636098E-02 -0.24613246355E-03  0.54594913794E-02  0.00000000000E+00 0. -1.
<mgrwt>
<rscale>  1 0.64124271E+03</rscale>
<asrwt>0</asrwt>
<pdfrwt beam="1">  1        1 0.37382243E+00 0.64124271E+03</pdfrwt>
<pdfrwt beam="2">0</pdfrwt>
<totfact> 0.17499111E+00</totfact>
</mgrwt>
</event>
<event>
 6    1  0.5769652E-003  0.6445610E+03  0.7818608E-02  0.9817039E-01
          3   -1    0    0  502    0  0.00000000000E+00  0.00000000000E+00  0.10663921409E+03  0.10663921409E+03  0.00000000000E+00 0.  1.
         13   -1    0    0    0    0 -0.00000000000E+00 -0.00000000000E+00 -0.10000000000E+04  0.10000000000E+04  0.00000000000E+00 0.  1.
    9000005    2    1    2  501    0  0.54445267863E+00  0.11241122783E+01 -0.89597927266E+03  0.11037380884E+04  0.64455981164E+03 0.  0.
         13    1    3    3    0    0 -0.65476124671E+02  0.20239361865E+03 -0.86365334842E+03  0.88946467384E+03  0.00000000000E+00 0.  1.
          3    1    3    3  501    0  0.66020577350E+02 -0.20126950637E+03 -0.32325924242E+02  0.21427341460E+03  0.00000000000E+00 0.  1.
         21    1    1    2  502  501 -0.54445267863E+00 -0.11241122783E+01  0.26184867571E+01  0.29011256489E+01  0.00000000000E+00 0.  1.
<mgrwt>
<rscale>  1 0.64456102E+03</rscale>
<asrwt>0</asrwt>
<pdfrwt beam="1">  1        3 0.38777978E+00 0.64456102E+03</pdfrwt>
<pdfrwt beam="2">0</pdfrwt>
<totfact> 0.68737038E-02</totfact>
</mgrwt>
</event>
<event>
 6    1  0.5769652E-003  0.6491276E+03  0.7818608E-02  0.9808417E-01
          1   -1    0    0  502    0  0.00000000000E+00  0.00000000000E+00  0.10535277892E+03  0.10535277892E+03  0.00000000000E+00 0.  1.
         13   -1    0    0    0    0 -0.00000000000E+00 -0.00000000000E+00 -0.10000000000E+04  0.10000000000E+04  0.00000000000E+00 0.  1.
    9000005    2    1    2  501    0  0.72376174693E-02  0.98033648726E-04 -0.89465700738E+03  0.11053406066E+04  0.64912764213E+03 0.  0.
         13    1    3    3    0    0  0.26606149081E+03 -0.15092629109E+03 -0.63211775900E+03  0.70223950577E+03  0.00000000000E+00 0.  1.
          1    1    3    3  501    0 -0.26605425319E+03  0.15092638912E+03 -0.26253924839E+03  0.40310110086E+03  0.00000000000E+00 0.  1.
         21    1    1    2  502  501 -0.72376174693E-02 -0.98033648750E-04  0.97863025558E-02  0.12172281419E-01  0.00000000000E+00 0.  1.
<mgrwt>
<rscale>  1 0.64912764E+03</rscale>
<asrwt>0</asrwt>
<pdfrwt beam="1">  1        1 0.38310182E+00 0.64912764E+03</pdfrwt>
<pdfrwt beam="2">0</pdfrwt>
<totfact> 0.15902821E+00</totfact>
</mgrwt>
</event>
<event>
 6    1  0.5769652E-003  0.6305464E+03  0.7818608E-02  0.9843983E-01
          1   -1    0    0  502    0  0.00000000000E+00  0.00000000000E+00  0.99397214803E+02  0.99397214803E+02  0.00000000000E+00 0.  1.
         13   -1    0    0    0    0 -0.00000000000E+00 -0.00000000000E+00 -0.10000000000E+04  0.10000000000E+04  0.00000000000E+00 0.  1.
    9000005    2    1    2  501    0 -0.40354661337E-05 -0.16268650427E-05 -0.90060281177E+03  0.10993971879E+04  0.63054639174E+03 0.  0.
         13    1    3    3    0    0  0.30968121047E+03 -0.50502459723E+02 -0.39672446079E+03  0.50580949808E+03  0.00000000000E+00 0.  1.
          3    1    3    3  501    0 -0.30968121450E+03  0.50502458096E+02 -0.50387835098E+03  0.59358768979E+03  0.00000000000E+00 0.  1.
         21    1    1    2  502  501  0.40354661073E-05  0.16268650465E-05  0.26575867664E-04  0.26929693996E-04  0.00000000000E+00 0. -1.
<mgrwt>
<rscale>  1 0.63054639E+03</rscale>
<asrwt>0</asrwt>
<pdfrwt beam="1">  1        1 0.36144518E+00 0.63054639E+03</pdfrwt>
<pdfrwt beam="2">0</pdfrwt>
<totfact> 0.19868477E+00</totfact>
</mgrwt>
</event>
<event>
 6    1  0.5769652E-003  0.6459991E+03  0.7818608E-02  0.9814316E-01
          1   -1    0    0  502    0  0.00000000000E+00  0.00000000000E+00  0.10521402726E+03  0.10521402726E+03  0.00000000000E+00 0.  1.
         13   -1    0    0    0    0 -0.00000000000E+00 -0.00000000000E+00 -0.10000000000E+04  0.10000000000E+04  0.00000000000E+00 0.  1.
    9000005    2    1    2  501    0  0.11736691663E+00  0.59598058313E-01 -0.89566588598E+03  0.11043243227E+04  0.64599908130E+03 0.  0.
         13    1    3    3    0    0 -0.62124800731E+02 -0.73201836558E+02 -0.97498048438E+03  0.97969635329E+03  0.00000000000E+00 0.  1.
          3    1    3    3  501    0  0.62242167647E+02  0.73261434616E+02  0.79314598397E+02  0.12462796939E+03  0.00000000000E+00 0.  1.
         21    1    1    2  502  501 -0.11736691663E+00 -0.59598058313E-01  0.87991323641E+00  0.88970457191E+00  0.00000000000E+00 0. -1.
<mgrwt>
<rscale>  1 0.64599909E+03</rscale>
<asrwt>0</asrwt>
<pdfrwt beam="1">  1        1 0.38259727E+00 0.64599909E+03</pdfrwt>
<pdfrwt beam="2">0</pdfrwt>
<totfact> 0.15993892E+00</totfact>
</mgrwt>
</event>
<event>
 6    1  0.5769652E-003  0.6836603E+03  0.7818608E-02  0.9745591E-01
          1   -1    0    0  502    0  0.00000000000E+00  0.00000000000E+00  0.11684787551E+03  0.11684787551E+03  0.00000000000E+00 0.  1.
         13   -1    0    0    0    0 -0.00000000000E+00 -0.00000000000E+00 -0.10000000000E+04  0.10000000000E+04  0.00000000000E+00 0.  1.
    9000005    2    1    2  501    0  0.50196876487E-05  0.32349446144E-05 -0.88315216075E+03  0.11168478388E+04  0.68366026353E+03 0.  0.
         13    1    3    3    0    0  0.30205504903E+03 -0.15467184940E+03 -0.37447372586E+03  0.50536244914E+03  0.00000000000E+00 0.  1.
          1    1    3    3  501    0 -0.30205504401E+03  0.15467185263E+03 -0.50867843489E+03  0.61148538963E+03  0.00000000000E+00 0.  1.
         21    1    1    2  502  501 -0.50196876757E-05 -0.32349446016E-05  0.36253647121E-04  0.36742197274E-04  0.00000000000E+00 0.  1.
<mgrwt>
<rscale>  1 0.68366026E+03</rscale>
<asrwt>0</asrwt>
<pdfrwt beam="1">  1        1 0.42490226E+00 0.68366026E+03</pdfrwt>
<pdfrwt beam="2">0</pdfrwt>
<totfact> 0.10274492E+00</totfact>
</mgrwt>
</event>
<event>
 6    1  0.5769652E-003  0.6071099E+03  0.7818608E-02  0.9890764E-01
          1   -1    0    0  502    0  0.00000000000E+00  0.00000000000E+00  0.10140980211E+03  0.10140980211E+03  0.00000000000E+00 0.  1.
         13   -1    0    0    0    0 -0.00000000000E+00 -0.00000000000E+00 -0.10000000000E+04  0.10000000000E+04  0.00000000000E+00 0.  1.
    9000005    2    1    2  501    0 -0.14942448003E+00 -0.80342188997E+01 -0.90591682302E+03  0.10905355004E+04  0.60705668309E+03 0.  0.
         13    1    3    3    0    0 -0.21096990731E+03  0.21365268267E+03 -0.47882361233E+03  0.56517946029E+03  0.00000000000E+00 0.  1.
          3    1    3    3  501    0  0.21082048283E+03 -0.22168690157E+03 -0.42709321069E+03  0.52535604015E+03  0.00000000000E+00 0.  1.
         21    1    1    2  502  501  0.14942448003E+00  0.80342188997E+01  0.73266251376E+01  0.10874301675E+02  0.00000000000E+00 0.  1.
<mgrwt>
<rscale>  1 0.60710986E+03</rscale>
<asrwt>0</asrwt>
<pdfrwt beam="1">  1        1 0.36876369E+00 0.60710986E+03</pdfrwt>
<pdfrwt beam="2">0</pdfrwt>
<totfact> 0.18535044E+00</totfact>
</mgrwt>
</event>
<event>
 6    1  0.5769652E-003  0.6508655E+03  0.7818608E-02  0.9805156E-01
          1   -1    0    0  502    0  0.00000000000E+00  0.00000000000E+00  0.12511116825E+03  0.12511116825E+03  0.00000000000E+00 0.  1.
         13   -1    0    0    0    0 -0.00000000000E+00 -0.00000000000E+00 -0.10000000000E+04  0.10000000000E+04  0.00000000000E+00 0.  1.
    9000005    2    1    2  501    0  0.24417067439E+02 -0.16754840761E+02 -0.88052595467E+03  0.10949665995E+04  0.65019149431E+03 0.  0.
         13    1    3    3    0    0  0.12369318295E+03  0.27981091263E+03 -0.60592741134E+03  0.67877991879E+03  0.00000000000E+00 0.  1.
          3    1    3    3  501    0 -0.99276115511E+02 -0.29656575339E+03 -0.27459854333E+03  0.41618668070E+03  0.00000000000E+00 0.  1.
         21    1    1    2  502  501 -0.24417067439E+02  0.16754840761E+02  0.56371229230E+01  0.30144568766E+02  0.00000000000E+00 0.  1.
<mgrwt>
<rscale>  1 0.65086550E+03</rscale>
<asrwt>0</asrwt>
<pdfrwt beam="1">  1        1 0.45495066E+00 0.65086550E+03</pdfrwt>
<pdfrwt beam="2">0</pdfrwt>
<totfact> 0.75363622E-01</totfact>
</mgrwt>
</event>
<event>
 6    1  0.5769652E-003  0.6336398E+03  0.7818608E-02  0.9837972E-01
          1   -1    0    0  502    0  0.00000000000E+00  0.00000000000E+00  0.10078065581E+03  0.10078065581E+03  0.00000000000E+00 0.  1.
         13   -1    0    0    0    0 -0.00000000000E+00 -0.00000000000E+00 -0.10000000000E+04  0.10000000000E+04  0.00000000000E+00 0.  1.
    9000005    2    1    2  501    0  0.90146568871E+00  0.68192970429E+00 -0.89844610579E+03  0.10994111427E+04  0.63363883880E+03 0.  0.
         13    1    3    3    0    0  0.21173778017E+03 -0.38863025856E+02 -0.45666023701E+02  0.22006500869E+03  0.00000000000E+00 0.  1.
          3    1    3    3  501    0 -0.21083631448E+03  0.39544955560E+02 -0.85278008209E+03  0.87934613402E+03  0.00000000000E+00 0.  1.
         21    1    1    2  502  501 -0.90146568871E+00 -0.68192970429E+00 -0.77323839847E+00  0.13695130997E+01  0.00000000000E+00 0. -1.
<mgrwt>
<rscale>  1 0.63363985E+03</rscale>
<asrwt>0</asrwt>
<pdfrwt beam="1">  1        1 0.36647588E+00 0.63363985E+03</pdfrwt>
<pdfrwt beam="2">0</pdfrwt>
<totfact> 0.18874896E+00</totfact>
</mgrwt>
</event>
<event>
 6    1  0.5769652E-003  0.6315134E+03  0.7818608E-02  0.9842100E-01
          1   -1    0    0  502    0  0.00000000000E+00  0.00000000000E+00  0.11486730260E+03  0.11486730260E+03  0.00000000000E+00 0.  1.
         13   -1    0    0    0    0 -0.00000000000E+00 -0.00000000000E+00 -0.10000000000E+04  0.10000000000E+04  0.00000000000E+00 0.  1.
    9000005    2    1    2  501    0  0.46261505517E+00  0.25820330593E+00 -0.90029260601E+03  0.10996981395E+04  0.63151321507E+03 0.  0.
         13    1    3    3    0    0  0.30996690658E+03  0.60653638830E+02 -0.46817266316E+03  0.56475126348E+03  0.00000000000E+00 0.  1.
          3    1    3    3  501    0 -0.30950429152E+03 -0.60395435525E+02 -0.43211994285E+03  0.53494687597E+03  0.00000000000E+00 0.  1.
         21    1    1    2  502  501 -0.46261505517E+00 -0.25820330593E+00  0.15159908603E+02  0.15169163144E+02  0.00000000000E+00 0.  1.
<mgrwt>
<rscale>  1 0.63151344E+03</rscale>
<asrwt>0</asrwt>
<pdfrwt beam="1">  1        1 0.41770016E+00 0.63151344E+03</pdfrwt>
<pdfrwt beam="2">0</pdfrwt>
<totfact> 0.11187197E+00</totfact>
</mgrwt>
</event>
<event>
 6    1  0.5769652E-003  0.6971334E+03  0.7818608E-02  0.9722147E-01
          1   -1    0    0  502    0  0.00000000000E+00  0.00000000000E+00  0.12149884098E+03  0.12149884098E+03  0.00000000000E+00 0.  1.
         13   -1    0    0    0    0 -0.00000000000E+00 -0.00000000000E+00 -0.10000000000E+04  0.10000000000E+04  0.00000000000E+00 0.  1.
    9000005    2    1    2  501    0  0.24399349343E-04  0.43365385721E-04 -0.87850124764E+03  0.11214987393E+04  0.69713340204E+03 0.  0.
         13    1    3    3    0    0  0.16209855554E+03 -0.24072745929E+03 -0.12866553810E+03  0.31745940222E+03  0.00000000000E+00 0.  1.
          1    1    3    3  501    0 -0.16209853114E+03  0.24072750266E+03 -0.74983570955E+03  0.80403933712E+03  0.00000000000E+00 0.  1.
         21    1    1    2  502  501 -0.24399349324E-04 -0.43365385732E-04  0.88622005234E-04  0.10163535182E-03  0.00000000000E+00 0. -1.
<mgrwt>
<rscale>  1 0.69713340E+03</rscale>
<asrwt>0</asrwt>
<pdfrwt beam="1">  1        1 0.44181490E+00 0.69713340E+03</pdfrwt>
<pdfrwt beam="2">0</pdfrwt>
<totfact> 0.85817319E-01</totfact>
</mgrwt>
</event>
<event>
 6    1  0.5769652E-003  0.6502551E+03  0.7818608E-02  0.9806301E-01
          1   -1    0    0  502    0  0.00000000000E+00  0.00000000000E+00  0.10570799727E+03  0.10570799727E+03  0.00000000000E+00 0.  1.
         13   -1    0    0    0    0 -0.00000000000E+00 -0.00000000000E+00 -0.10000000000E+04  0.10000000000E+04  0.00000000000E+00 0.  1.
    9000005    2    1    2  501    0 -0.35560643283E-05  0.13853480851E-06 -0.89429206813E+03  0.11057079318E+04  0.65025512476E+03 0.  0.
         13    1    3    3    0    0 -0.11331270854E+03  0.22231566054E+02 -0.96395653394E+03  0.97084819193E+03  0.00000000000E+00 0.  1.
          1    1    3    3  501    0  0.11331270498E+03 -0.22231565916E+02  0.69664465816E+02  0.13485973984E+03  0.00000000000E+00 0.  1.
         21    1    1    2  502  501  0.35560643316E-05 -0.13853481076E-06  0.65400173168E-04  0.65496926919E-04  0.00000000000E+00 0.  1.
<mgrwt>
<rscale>  1 0.65025512E+03</rscale>
<asrwt>0</asrwt>
<pdfrwt beam="1">  1        1 0.38439353E+00 0.65025512E+03</pdfrwt>
<pdfrwt beam="2">0</pdfrwt>
<totfact> 0.15691842E+00</totfact>
</mgrwt>
</event>
<event>
 6    1  0.5769652E-003  0.6478006E+03  0.7818608E-02  0.9810915E-01
          1   -1    0    0  502    0  0.00000000000E+00  0.00000000000E+00  0.10516477890E+03  0.10516477890E+03  0.00000000000E+00 0.  1.
         13   -1    0    0    0    0 -0.00000000000E+00 -0.00000000000E+00 -0.10000000000E+04  0.10000000000E+04  0.00000000000E+00 0.  1.
    9000005    2    1    2  501    0 -0.21963740966E-01 -0.15515258234E+00 -0.89506156799E+03  0.11048894833E+04  0.64780053669E+03 0.  0.
         13    1    3    3    0    0 -0.68610390964E+02 -0.17712188784E+03 -0.19859345789E-01  0.18994617473E+03  0.00000000000E+00 0.  1.
          3    1    3    3  501    0  0.68588427223E+02  0.17696673526E+03 -0.89504170865E+03  0.91494330860E+03  0.00000000000E+00 0.  1.
         21    1    1    2  502  501  0.21963740966E-01  0.15515258234E+00  0.22634689004E+00  0.27529555818E+00  0.00000000000E+00 0.  1.
<mgrwt>
<rscale>  1 0.64780056E+03</rscale>
<asrwt>0</asrwt>
<pdfrwt beam="1">  1        1 0.38241818E+00 0.64780056E+03</pdfrwt>
<pdfrwt beam="2">0</pdfrwt>
<totfact> 0.16017725E+00</totfact>
</mgrwt>
</event>
<event>
 6    1  0.5769652E-003  0.6499013E+03  0.7818608E-02  0.9806964E-01
          1   -1    0    0  502    0  0.00000000000E+00  0.00000000000E+00  0.10559368118E+03  0.10559368118E+03  0.00000000000E+00 0.  1.
         13   -1    0    0    0    0 -0.00000000000E+00 -0.00000000000E+00 -0.10000000000E+04  0.10000000000E+04  0.00000000000E+00 0.  1.
    9000005    2    1    2  501    0 -0.24997689252E-05  0.12683566013E-04 -0.89440709123E+03  0.11055929087E+04  0.64990125008E+03 0.  0.
         13    1    3    3    0    0 -0.22643240145E+03 -0.13641557496E+03 -0.12572250649E+03  0.29272340213E+03  0.00000000000E+00 0.  1.
          3    1    3    3  501    0  0.22643239895E+03  0.13641558764E+03 -0.76868458473E+03  0.81286950653E+03  0.00000000000E+00 0.  1.
         21    1    1    2  502  501  0.24997689170E-05 -0.12683566035E-04  0.77240567467E-03  0.77251384969E-03  0.00000000000E+00 0.  1.
<mgrwt>
<rscale>  1 0.64990125E+03</rscale>
<asrwt>0</asrwt>
<pdfrwt beam="1">  1        1 0.38397783E+00 0.64990125E+03</pdfrwt>
<pdfrwt beam="2">0</pdfrwt>
<totfact> 0.15759421E+00</totfact>
</mgrwt>
</event>
<event>
 6    1  0.5769652E-003  0.5003393E+03  0.7818608E-02  0.1013690E+00
          1   -1    0    0  502    0  0.00000000000E+00  0.00000000000E+00  0.62585066643E+02  0.62585066643E+02  0.00000000000E+00 0.  1.
         13   -1    0    0    0    0 -0.00000000000E+00 -0.00000000000E+00 -0.10000000000E+04  0.10000000000E+04  0.00000000000E+00 0.  1.
    9000005    2    1    2  501    0 -0.51592219982E-03 -0.97162158767E-04 -0.93741474650E+03  0.10625845094E+04  0.50033931750E+03 0.  0.
         13    1    3    3    0    0  0.91546972177E+02  0.15369483447E+03 -0.84009755899E+03  0.85893355906E+03  0.00000000000E+00 0.  1.
          3    1    3    3  501    0 -0.91547488099E+02 -0.15369493163E+03 -0.97317187511E+02  0.20365095033E+03  0.00000000000E+00 0.  1.
         21    1    1    2  502  501  0.51592219982E-03  0.97162158779E-04 -0.18685998073E-03  0.55725474764E-03  0.00000000000E+00 0.  1.
<mgrwt>
<rscale>  1 0.50033932E+03</rscale>
<asrwt>0</asrwt>
<pdfrwt beam="1">  1        1 0.22758254E+00 0.50033932E+03</pdfrwt>
<pdfrwt beam="2">0</pdfrwt>
<totfact> 0.77407281E+00</totfact>
</mgrwt>
</event>
<event>
 6    1  0.5769652E-003  0.6326913E+03  0.7818608E-02  0.9839811E-01
          1   -1    0    0  502    0  0.00000000000E+00  0.00000000000E+00  0.10007461588E+03  0.10007461588E+03  0.00000000000E+00 0.  1.
         13   -1    0    0    0    0 -0.00000000000E+00 -0.00000000000E+00 -0.10000000000E+04  0.10000000000E+04  0.00000000000E+00 0.  1.
    9000005    2    1    2  501    0  0.71791830209E-04 -0.61331123732E-04 -0.89992516382E+03  0.11000743762E+04  0.63269134078E+03 0.  0.
         13    1    3    3    0    0 -0.22860645542E+03  0.13942624900E+03 -0.15708220312E+03  0.31044389011E+03  0.00000000000E+00 0.  1.
          1    1    3    3  501    0  0.22860652721E+03 -0.13942631033E+03 -0.74284296070E+03  0.78963048609E+03  0.00000000000E+00 0.  1.
         21    1    1    2  502  501 -0.71791830213E-04  0.61331123722E-04 -0.22029654387E-03  0.23967924579E-03  0.00000000000E+00 0. -1.
<mgrwt>
<rscale>  1 0.63269134E+03</rscale>
<asrwt>0</asrwt>
<pdfrwt beam="1">  1        1 0.36390846E+00 0.63269134E+03</pdfrwt>
<pdfrwt beam="2">0</pdfrwt>
<totfact> 0.19373648E+00</totfact>
</mgrwt>
</event>
<event>
 6    1  0.5769652E-003  0.6526363E+03  0.7818608E-02  0.9801845E-01
          1   -1    0    0  502    0  0.00000000000E+00  0.00000000000E+00  0.10648483386E+03  0.10648483386E+03  0.00000000000E+00 0.  1.
         13   -1    0    0    0    0 -0.00000000000E+00 -0.00000000000E+00 -0.10000000000E+04  0.10000000000E+04  0.00000000000E+00 0.  1.
    9000005    2    1    2  501    0 -0.60368414751E-04 -0.20169106443E-03 -0.89351645710E+03  0.11064835258E+04  0.65263629523E+03 0.  0.
         13    1    3    3    0    0  0.21649807439E+03 -0.16402838017E+03 -0.75337294875E+03  0.80084176066E+03  0.00000000000E+00 0.  1.
          1    1    3    3  501    0 -0.21649813476E+03  0.16402817848E+03 -0.14014350835E+03  0.30564176518E+03  0.00000000000E+00 0.  1.
         21    1    1    2  502  501  0.60368414741E-04  0.20169106443E-03  0.12909652370E-02  0.13080194471E-02  0.00000000000E+00 0.  1.
<mgrwt>
<rscale>  1 0.65263630E+03</rscale>
<asrwt>0</asrwt>
<pdfrwt beam="1">  1        1 0.38721839E+00 0.65263630E+03</pdfrwt>
<pdfrwt beam="2">0</pdfrwt>
<totfact> 0.15239917E+00</totfact>
</mgrwt>
</event>
<event>
 6    1  0.5769652E-003  0.6495365E+03  0.7818608E-02  0.9807649E-01
          1   -1    0    0  502    0  0.00000000000E+00  0.00000000000E+00  0.10572802333E+03  0.10572802333E+03  0.00000000000E+00 0.  1.
         13   -1    0    0    0    0 -0.00000000000E+00 -0.00000000000E+00 -0.10000000000E+04  0.10000000000E+04  0.00000000000E+00 0.  1.
    9000005    2    1    2  501    0  0.10240354295E+00 -0.45705598853E-01 -0.89451180272E+03  0.11054632744E+04  0.64953650641E+03 0.  0.
         13    1    3    3    0    0  0.90452450652E+02 -0.25855907381E+03 -0.15026175312E+03  0.31243084823E+03  0.00000000000E+00 0.  1.
          1    1    3    3  501    0 -0.90350047109E+02  0.25851336821E+03 -0.74425004960E+03  0.79303242612E+03  0.00000000000E+00 0.  1.
         21    1    1    2  502  501 -0.10240354295E+00  0.45705598853E-01  0.23982604821E+00  0.26474897691E+00  0.00000000000E+00 0. -1.
<mgrwt>
<rscale>  1 0.64953652E+03</rscale>
<asrwt>0</asrwt>
<pdfrwt beam="1">  1        1 0.38446635E+00 0.64953652E+03</pdfrwt>
<pdfrwt beam="2">0</pdfrwt>
<totfact> 0.15682291E+00</totfact>
</mgrwt>
</event>
<event>
 6    1  0.5769652E-003  0.6472856E+03  0.7818608E-02  0.9811886E-01
          1   -1    0    0  502    0  0.00000000000E+00  0.00000000000E+00  0.10474468445E+03  0.10474468445E+03  0.00000000000E+00 0.  1.
         13   -1    0    0    0    0 -0.00000000000E+00 -0.00000000000E+00 -0.10000000000E+04  0.10000000000E+04  0.00000000000E+00 0.  1.
    9000005    2    1    2  501    0 -0.26094485861E-06 -0.17077680614E-04 -0.89525534860E+03  0.11047446473E+04  0.64728556020E+03 0.  0.
         13    1    3    3    0    0  0.14246951216E+03 -0.13298944484E+02  0.47826012923E+02  0.15086998154E+03  0.00000000000E+00 0.  1.
          3    1    3    3  501    0 -0.14246951242E+03  0.13298927406E+02 -0.94308136152E+03  0.95387466571E+03  0.00000000000E+00 0.  1.
         21    1    1    2  502  501  0.26094486376E-06  0.17077680615E-04  0.33047368900E-04  0.37200051863E-04  0.00000000000E+00 0. -1.
<mgrwt>
<rscale>  1 0.64728556E+03</rscale>
<asrwt>0</asrwt>
<pdfrwt beam="1">  1        1 0.38089056E+00 0.64728556E+03</pdfrwt>
<pdfrwt beam="2">0</pdfrwt>
<totfact> 0.16270005E+00</totfact>
</mgrwt>
</event>
<event>
 6    1  0.5769652E-003  0.6523283E+03  0.7818608E-02  0.9802420E-01
          1   -1    0    0  502    0  0.00000000000E+00  0.00000000000E+00  0.10638306925E+03  0.10638306925E+03  0.00000000000E+00 0.  1.
         13   -1    0    0    0    0 -0.00000000000E+00 -0.00000000000E+00 -0.10000000000E+04  0.10000000000E+04  0.00000000000E+00 0.  1.
    9000005    2    1    2  501    0  0.10434693394E-04  0.92798574656E-05 -0.89361694356E+03  0.11063830503E+04  0.65232830092E+03 0.  0.
         13    1    3    3    0    0  0.69631161439E+02 -0.29462904842E+03 -0.24097534925E+03  0.38694171882E+03  0.00000000000E+00 0.  1.
          3    1    3    3  501    0 -0.69631151004E+02  0.29462905770E+03 -0.65264159431E+03  0.71944133149E+03  0.00000000000E+00 0.  1.
         21    1    1    2  502  501 -0.10434693402E-04 -0.92798574851E-05  0.12808983569E-04  0.18949106612E-04  0.00000000000E+00 0.  1.
<mgrwt>
<rscale>  1 0.65232830E+03</rscale>
<asrwt>0</asrwt>
<pdfrwt beam="1">  1        1 0.38684834E+00 0.65232830E+03</pdfrwt>
<pdfrwt beam="2">0</pdfrwt>
<totfact> 0.15298396E+00</totfact>
</mgrwt>
</event>
<event>
 6    1  0.5769652E-003  0.4866660E+03  0.7818608E-02  0.1017319E+00
          1   -1    0    0  502    0  0.00000000000E+00  0.00000000000E+00  0.59211000762E+02  0.59211000762E+02  0.00000000000E+00 0.  1.
         13   -1    0    0    0    0 -0.00000000000E+00 -0.00000000000E+00 -0.10000000000E+04  0.10000000000E+04  0.00000000000E+00 0.  1.
    9000005    2    1    2  501    0 -0.10454900774E-04 -0.13164551973E-04 -0.94078905378E+03  0.10592109437E+04  0.48666598352E+03 0.  0.
         13    1    3    3    0    0 -0.15100547854E+03  0.76350794018E+02 -0.89800455155E+02  0.19156257474E+03  0.00000000000E+00 0.  1.
          1    1    3    3  501    0  0.15100546808E+03 -0.76350807182E+02 -0.85098859862E+03  0.86764836895E+03  0.00000000000E+00 0.  1.
         21    1    1    2  502  501  0.10454900766E-04  0.13164551966E-04  0.54541165273E-04  0.57073190622E-04  0.00000000000E+00 0.  1.
<mgrwt>
<rscale>  1 0.48666598E+03</rscale>
<asrwt>0</asrwt>
<pdfrwt beam="1">  1        1 0.21531318E+00 0.48666598E+03</pdfrwt>
<pdfrwt beam="2">0</pdfrwt>
<totfact> 0.87926238E+00</totfact>
</mgrwt>
</event>
<event>
 6    1  0.5769652E-003  0.6351099E+03  0.7818608E-02  0.9835128E-01
          1   -1    0    0  502    0  0.00000000000E+00  0.00000000000E+00  0.10829269767E+03  0.10829269767E+03  0.00000000000E+00 0.  1.
         13   -1    0    0    0    0 -0.00000000000E+00 -0.00000000000E+00 -0.10000000000E+04  0.10000000000E+04  0.00000000000E+00 0.  1.
    9000005    2    1    2  501    0 -0.34423150164E-01 -0.20311927469E+00 -0.89915727829E+03  0.11008398738E+04  0.63510989137E+03 0.  0.
         13    1    3    3    0    0  0.26633245089E+03  0.33768536409E+02 -0.15563723338E+03  0.31031634965E+03  0.00000000000E+00 0.  1.
          3    1    3    3  501    0 -0.26636687404E+03 -0.33971655684E+02 -0.74352004491E+03  0.79052352411E+03  0.00000000000E+00 0.  1.
         21    1    1    2  502  501  0.34423150164E-01  0.20311927469E+00  0.74499759579E+01  0.74528239054E+01  0.00000000000E+00 0. -1.
<mgrwt>
<rscale>  1 0.63510992E+03</rscale>
<asrwt>0</asrwt>
<pdfrwt beam="1">  1        1 0.39379246E+00 0.63510992E+03</pdfrwt>
<pdfrwt beam="2">0</pdfrwt>
<totfact> 0.14297686E+00</totfact>
</mgrwt>
</event>
<event>
 6    1  0.5769652E-003  0.6614992E+03  0.7818608E-02  0.9785438E-01
          1   -1    0    0  502    0  0.00000000000E+00  0.00000000000E+00  0.11121838984E+03  0.11121838984E+03  0.00000000000E+00 0.  1.
         13   -1    0    0    0    0 -0.00000000000E+00 -0.00000000000E+00 -0.10000000000E+04  0.10000000000E+04  0.00000000000E+00 0.  1.
    9000005    2    1    2  501    0  0.16620683876E+00 -0.17516468272E-01 -0.89060045317E+03  0.11093918846E+04  0.66149917495E+03 0.  0.
         13    1    3    3    0    0 -0.58183954298E+02 -0.20853903667E+03 -0.25964605662E+02  0.21805518362E+03  0.00000000000E+00 0.  1.
          3    1    3    3  501    0  0.58350161136E+02  0.20852152021E+03 -0.86463584751E+03  0.89133670097E+03  0.00000000000E+00 0.  1.
         21    1    1    2  502  501 -0.16620683876E+00  0.17516468272E-01  0.18188430171E+01  0.18265052589E+01  0.00000000000E+00 0. -1.
<mgrwt>
<rscale>  1 0.66149920E+03</rscale>
<asrwt>0</asrwt>
<pdfrwt beam="1">  1        1 0.40443136E+00 0.66149920E+03</pdfrwt>
<pdfrwt beam="2">0</pdfrwt>
<totfact> 0.12755214E+00</totfact>
</mgrwt>
</event>
<event>
 6    1  0.5769652E-003  0.6770974E+03  0.7818608E-02  0.9757221E-01
          1   -1    0    0  502    0  0.00000000000E+00  0.00000000000E+00  0.11475222159E+03  0.11475222159E+03  0.00000000000E+00 0.  1.
         13   -1    0    0    0    0 -0.00000000000E+00 -0.00000000000E+00 -0.10000000000E+04  0.10000000000E+04  0.00000000000E+00 0.  1.
    9000005    2    1    2  501    0 -0.21270557695E-01 -0.36817233100E-02 -0.88538383475E+03  0.11146144634E+04  0.67709738349E+03 0.  0.
         13    1    3    3    0    0  0.32387775376E+03 -0.68243711272E+02 -0.55971412933E+03  0.65025680318E+03  0.00000000000E+00 0.  1.
          1    1    3    3  501    0 -0.32389902431E+03  0.68240029548E+02 -0.32566970542E+03  0.46435766023E+03  0.00000000000E+00 0.  1.
         21    1    1    2  502  501  0.21270557695E-01  0.36817233100E-02  0.13605633346E+00  0.13775818518E+00  0.00000000000E+00 0. -1.
<mgrwt>
<rscale>  1 0.67709738E+03</rscale>
<asrwt>0</asrwt>
<pdfrwt beam="1">  1        1 0.41728169E+00 0.67709738E+03</pdfrwt>
<pdfrwt beam="2">0</pdfrwt>
<totfact> 0.11136069E+00</totfact>
</mgrwt>
</event>
<event>
 6    1  0.5769652E-003  0.6451228E+03  0.7818608E-02  0.9815974E-01
          1   -1    0    0  502    0  0.00000000000E+00  0.00000000000E+00  0.10404587568E+03  0.10404587568E+03  0.00000000000E+00 0.  1.
         13   -1    0    0    0    0 -0.00000000000E+00 -0.00000000000E+00 -0.10000000000E+04  0.10000000000E+04  0.00000000000E+00 0.  1.
    9000005    2    1    2  501    0  0.33266707646E-05  0.39875311160E-05 -0.89595415443E+03  0.11040458451E+04  0.64512276452E+03 0.  0.
         13    1    3    3    0    0  0.30390984309E+03 -0.10708811902E+03 -0.47317485998E+03  0.57247140197E+03  0.00000000000E+00 0.  1.
          3    1    3    3  501    0 -0.30390983976E+03  0.10708812301E+03 -0.42277929445E+03  0.53157444315E+03  0.00000000000E+00 0.  1.
         21    1    1    2  502  501 -0.33266707615E-05 -0.39875311231E-05  0.30107736676E-04  0.30552298613E-04  0.00000000000E+00 0.  1.
<mgrwt>
<rscale>  1 0.64512276E+03</rscale>
<asrwt>0</asrwt>
<pdfrwt beam="1">  1        1 0.37834944E+00 0.64512276E+03</pdfrwt>
<pdfrwt beam="2">0</pdfrwt>
<totfact> 0.16702069E+00</totfact>
</mgrwt>
</event>
<event>
 6    1  0.5769652E-003  0.6617012E+03  0.7818608E-02  0.9785067E-01
          1   -1    0    0  502    0  0.00000000000E+00  0.00000000000E+00  0.11020254961E+03  0.11020254961E+03  0.00000000000E+00 0.  1.
         13   -1    0    0    0    0 -0.00000000000E+00 -0.00000000000E+00 -0.10000000000E+04  0.10000000000E+04  0.00000000000E+00 0.  1.
    9000005    2    1    2  501    0  0.29862276705E+00  0.20338143705E+00 -0.89048864270E+03  0.11094226225E+04  0.66170114244E+03 0.  0.
         13    1    3    3    0    0  0.15560759096E+03  0.17317638080E+03 -0.50994249068E+02  0.23833630581E+03  0.00000000000E+00 0.  1.
          3    1    3    3  501    0 -0.15530896819E+03 -0.17297299936E+03 -0.83949439363E+03  0.87108631664E+03  0.00000000000E+00 0.  1.
         21    1    1    2  502  501 -0.29862276705E+00 -0.20338143705E+00  0.69119230748E+00  0.77992715804E+00  0.00000000000E+00 0. -1.
<mgrwt>
<rscale>  1 0.66170124E+03</rscale>
<asrwt>0</asrwt>
<pdfrwt beam="1">  1        1 0.40073739E+00 0.66170124E+03</pdfrwt>
<pdfrwt beam="2">0</pdfrwt>
<totfact> 0.13248494E+00</totfact>
</mgrwt>
</event>
<event>
 6    1  0.5769652E-003  0.5961628E+03  0.7818608E-02  0.9913399E-01
          1   -1    0    0  502    0  0.00000000000E+00  0.00000000000E+00  0.91641321200E+02  0.91641321200E+02  0.00000000000E+00 0.  1.
         13   -1    0    0    0    0 -0.00000000000E+00 -0.00000000000E+00 -0.10000000000E+04  0.10000000000E+04  0.00000000000E+00 0.  1.
    9000005    2    1    2  501    0  0.16664805200E+01  0.70110964180E+00 -0.91082538519E+03  0.10885829961E+04  0.59616003586E+03 0.  0.
         13    1    3    3    0    0 -0.11667580922E+02  0.15456254319E+03  0.95920416460E+01  0.15529880703E+03  0.00000000000E+00 0.  1.
          3    1    3    3  501    0  0.13334061442E+02 -0.15386143355E+03 -0.92041742684E+03  0.93328418906E+03  0.00000000000E+00 0.  1.
         21    1    1    2  502  501 -0.16664805200E+01 -0.70110964180E+00  0.24667063925E+01  0.30583251103E+01  0.00000000000E+00 0.  1.
<mgrwt>
<rscale>  1 0.59616278E+03</rscale>
<asrwt>0</asrwt>
<pdfrwt beam="1">  1        1 0.33324187E+00 0.59616278E+03</pdfrwt>
<pdfrwt beam="2">0</pdfrwt>
<totfact> 0.26523204E+00</totfact>
</mgrwt>
</event>
<event>
 6    1  0.5769652E-003  0.6570999E+03  0.7818608E-02  0.9793547E-01
          1   -1    0    0  502    0  0.00000000000E+00  0.00000000000E+00  0.10794619991E+03  0.10794619991E+03  0.00000000000E+00 0.  1.
         13   -1    0    0    0    0 -0.00000000000E+00 -0.00000000000E+00 -0.10000000000E+04  0.10000000000E+04  0.00000000000E+00 0.  1.
    9000005    2    1    2  501    0  0.61785594249E-03  0.10397883315E-02 -0.89205454084E+03  0.11079447816E+04  0.65709994311E+03 0.  0.
         13    1    3    3    0    0 -0.20266175578E+03  0.77525332328E+01 -0.10196723212E+02  0.20306615225E+03  0.00000000000E+00 0.  1.
          3    1    3    3  501    0  0.20266237363E+03 -0.77514934445E+01 -0.88185781762E+03  0.90487862934E+03  0.00000000000E+00 0.  1.
         21    1    1    2  502  501 -0.61785594248E-03 -0.10397883315E-02  0.74074319100E-03  0.14183110431E-02  0.00000000000E+00 0. -1.
<mgrwt>
<rscale>  1 0.65709994E+03</rscale>
<asrwt>0</asrwt>
<pdfrwt beam="1">  1        1 0.39253246E+00 0.65709994E+03</pdfrwt>
<pdfrwt beam="2">0</pdfrwt>
<totfact> 0.14423074E+00</totfact>
</mgrwt>
</event>
<event>
 6    1  0.5769652E-003  0.6480373E+03  0.7818608E-02  0.9810469E-01
          1   -1    0    0  502    0  0.00000000000E+00  0.00000000000E+00  0.10498809242E+03  0.10498809242E+03  0.00000000000E+00 0.  1.
         13   -1    0    0    0    0 -0.00000000000E+00 -0.00000000000E+00 -0.10000000000E+04  0.10000000000E+04  0.00000000000E+00 0.  1.
    9000005    2    1    2  501    0 -0.11501149118E-05 -0.15779659606E-05 -0.89501192223E+03  0.11049880776E+04  0.64803727577E+03 0.  0.
         13    1    3    3    0    0  0.14908295215E+03  0.12271806959E+03 -0.89117626505E+03  0.91185557333E+03  0.00000000000E+00 0.  1.
          1    1    3    3  501    0 -0.14908295330E+03 -0.12271807117E+03 -0.38356571802E+01  0.19313250431E+03  0.00000000000E+00 0.  1.
         21    1    1    2  502  501  0.11501149288E-05  0.15779659521E-05  0.14653339381E-04  0.14782864943E-04  0.00000000000E+00 0. -1.
<mgrwt>
<rscale>  1 0.64803728E+03</rscale>
<asrwt>0</asrwt>
<pdfrwt beam="1">  1        1 0.38177569E+00 0.64803728E+03</pdfrwt>
<pdfrwt beam="2">0</pdfrwt>
<totfact> 0.16122028E+00</totfact>
</mgrwt>
</event>
<event>
 6    1  0.5769652E-003  0.6506787E+03  0.7818608E-02  0.9805507E-01
          1   -1    0    0  502    0  0.00000000000E+00  0.00000000000E+00  0.10587056365E+03  0.10587056365E+03  0.00000000000E+00 0.  1.
         13   -1    0    0    0    0 -0.00000000000E+00 -0.00000000000E+00 -0.10000000000E+04  0.10000000000E+04  0.00000000000E+00 0.  1.
    9000005    2    1    2  501    0 -0.11237698472E-02  0.24788462755E-02 -0.89415423218E+03  0.11058456189E+04  0.65067867794E+03 0.  0.
         13    1    3    3    0    0 -0.27092449027E+03  0.77906535158E+02 -0.17105981807E+03  0.32974379297E+03  0.00000000000E+00 0.  1.
          3    1    3    3  501    0  0.27092336650E+03 -0.77904056311E+02 -0.72309441410E+03  0.77610182593E+03  0.00000000000E+00 0.  1.
         21    1    1    2  502  501  0.11237698472E-02 -0.24788462755E-02  0.24795826664E-01  0.24944750099E-01  0.00000000000E+00 0. -1.
<mgrwt>
<rscale>  1 0.65067868E+03</rscale>
<asrwt>0</asrwt>
<pdfrwt beam="1">  1        1 0.38498468E+00 0.65067868E+03</pdfrwt>
<pdfrwt beam="2">0</pdfrwt>
<totfact> 0.15596444E+00</totfact>
</mgrwt>
</event>
<event>
 6    1  0.5769652E-003  0.6369115E+03  0.7818608E-02  0.9831654E-01
          1   -1    0    0  502    0  0.00000000000E+00  0.00000000000E+00  0.10142175655E+03  0.10142175655E+03  0.00000000000E+00 0.  1.
         13   -1    0    0    0    0 -0.00000000000E+00 -0.00000000000E+00 -0.10000000000E+04  0.10000000000E+04  0.00000000000E+00 0.  1.
    9000005    2    1    2  501    0 -0.54013554910E-03 -0.51598519840E-02 -0.89858497695E+03  0.11014132562E+04  0.63691145391E+03 0.  0.
         13    1    3    3    0    0 -0.28428216542E+03 -0.12866280371E+03 -0.55927040436E+03  0.64043255056E+03  0.00000000000E+00 0.  1.
          3    1    3    3  501    0  0.28428162529E+03  0.12865764386E+03 -0.33931457260E+03  0.46098070564E+03  0.00000000000E+00 0.  1.
         21    1    1    2  502  501  0.54013554909E-03  0.51598519840E-02  0.67334964422E-02  0.85003407723E-02  0.00000000000E+00 0.  1.
<mgrwt>
<rscale>  1 0.63691145E+03</rscale>
<asrwt>0</asrwt>
<pdfrwt beam="1">  1        1 0.36880717E+00 0.63691145E+03</pdfrwt>
<pdfrwt beam="2">0</pdfrwt>
<totfact> 0.18424610E+00</totfact>
</mgrwt>
</event>
<event>
 6    1  0.5769652E-003  0.6333010E+03  0.7818608E-02  0.9838628E-01
          1   -1    0    0  502    0  0.00000000000E+00  0.00000000000E+00  0.10028903638E+03  0.10028903638E+03  0.00000000000E+00 0.  1.
         13   -1    0    0    0    0 -0.00000000000E+00 -0.00000000000E+00 -0.10000000000E+04  0.10000000000E+04  0.00000000000E+00 0.  1.
    9000005    2    1    2  501    0  0.58413477649E-02  0.33113784893E-02 -0.89973189609E+03  0.11002670533E+04  0.63330095826E+03 0.  0.
         13    1    3    3    0    0 -0.26704434624E+03 -0.16672545099E+03 -0.39080770210E+03  0.50183734306E+03  0.00000000000E+00 0.  1.
          3    1    3    3  501    0  0.26705018759E+03  0.16672876237E+03 -0.50892419399E+03  0.59842971026E+03  0.00000000000E+00 0.  1.
         21    1    1    2  502  501 -0.58413477649E-02 -0.33113784892E-02  0.20932469902E-01  0.21983058645E-01  0.00000000000E+00 0. -1.
<mgrwt>
<rscale>  1 0.63330096E+03</rscale>
<asrwt>0</asrwt>
<pdfrwt beam="1">  1        1 0.36468817E+00 0.63330096E+03</pdfrwt>
<pdfrwt beam="2">0</pdfrwt>
<totfact> 0.19219737E+00</totfact>
</mgrwt>
</event>
<event>
 6    1  0.5769652E-003  0.6001806E+03  0.7818608E-02  0.9905032E-01
          1   -1    0    0  502    0  0.00000000000E+00  0.00000000000E+00  0.90056403119E+02  0.90056403119E+02  0.00000000000E+00 0.  1.
         13   -1    0    0    0    0 -0.00000000000E+00 -0.00000000000E+00 -0.10000000000E+04  0.10000000000E+04  0.00000000000E+00 0.  1.
    9000005    2    1    2  501    0 -0.21797552364E-03  0.16439736655E-03 -0.90994581671E+03  0.10900541666E+04  0.60018055341E+03 0.  0.
         13    1    3    3    0    0 -0.18315974177E+03  0.11636912446E+03 -0.83143702210E+03  0.85928853469E+03  0.00000000000E+00 0.  1.
          3    1    3    3  501    0  0.18315952380E+03 -0.11636896006E+03 -0.78508794613E+02  0.23076563187E+03  0.00000000000E+00 0.  1.
         21    1    1    2  502  501  0.21797552366E-03 -0.16439736655E-03  0.22198298312E-02  0.22365563491E-02  0.00000000000E+00 0.  1.
<mgrwt>
<rscale>  1 0.60018055E+03</rscale>
<asrwt>0</asrwt>
<pdfrwt beam="1">  1        1 0.32747852E+00 0.60018055E+03</pdfrwt>
<pdfrwt beam="2">0</pdfrwt>
<totfact> 0.28072552E+00</totfact>
</mgrwt>
</event>
<event>
 6    1  0.5769652E-003  0.6609693E+03  0.7818608E-02  0.9786411E-01
          1   -1    0    0  502    0  0.00000000000E+00  0.00000000000E+00  0.10922014654E+03  0.10922014654E+03  0.00000000000E+00 0.  1.
         13   -1    0    0    0    0 -0.00000000000E+00 -0.00000000000E+00 -0.10000000000E+04  0.10000000000E+04  0.00000000000E+00 0.  1.
    9000005    2    1    2  501    0 -0.10521349751E-04  0.24090323961E-04 -0.89077989893E+03  0.11092200940E+04  0.66096927965E+03 0.  0.
         13    1    3    3    0    0  0.10934200882E+03  0.12495802973E+03  0.34138434031E+02  0.16951583043E+03  0.00000000000E+00 0.  1.
          1    1    3    3  501    0 -0.10934201935E+03 -0.12495800564E+03 -0.92491833296E+03  0.93970426359E+03  0.00000000000E+00 0.  1.
         21    1    1    2  502  501  0.10521349749E-04 -0.24090323965E-04  0.45472336471E-04  0.52524050619E-04  0.00000000000E+00 0.  1.
<mgrwt>
<rscale>  1 0.66096928E+03</rscale>
<asrwt>0</asrwt>
<pdfrwt beam="1">  1        1 0.39716501E+00 0.66096928E+03</pdfrwt>
<pdfrwt beam="2">0</pdfrwt>
<totfact> 0.13745054E+00</totfact>
</mgrwt>
</event>
<event>
 6    1  0.5769652E-003  0.6461543E+03  0.7818608E-02  0.9814022E-01
          1   -1    0    0  502    0  0.00000000000E+00  0.00000000000E+00  0.10438928362E+03  0.10438928362E+03  0.00000000000E+00 0.  1.
         13   -1    0    0    0    0 -0.00000000000E+00 -0.00000000000E+00 -0.10000000000E+04  0.10000000000E+04  0.00000000000E+00 0.  1.
    9000005    2    1    2  501    0  0.23466360722E-01  0.21495577098E-01 -0.89557583963E+03  0.11043420701E+04  0.64615425575E+03 0.  0.
         13    1    3    3    0    0  0.13167886525E+02 -0.29574164829E+03 -0.66887899584E+03  0.73146129552E+03  0.00000000000E+00 0.  1.
          1    1    3    3  501    0 -0.13144420164E+02  0.29576314387E+03 -0.22669684379E+03  0.37288077456E+03  0.00000000000E+00 0.  1.
         21    1    1    2  502  501 -0.23466360722E-01 -0.21495577098E-01 -0.34876754291E-01  0.47213535243E-01  0.00000000000E+00 0. -1.
<mgrwt>
<rscale>  1 0.64615426E+03</rscale>
<asrwt>0</asrwt>
<pdfrwt beam="1">  1        1 0.37959820E+00 0.64615426E+03</pdfrwt>
<pdfrwt beam="2">0</pdfrwt>
<totfact> 0.16488492E+00</totfact>
</mgrwt>
</event>
<event>
 6    1  0.5769652E-003  0.5517105E+03  0.7818608E-02  0.1001099E+00
          1   -1    0    0  502    0  0.00000000000E+00  0.00000000000E+00  0.76125958860E+02  0.76125958860E+02  0.00000000000E+00 0.  1.
         13   -1    0    0    0    0 -0.00000000000E+00 -0.00000000000E+00 -0.10000000000E+04  0.10000000000E+04  0.00000000000E+00 0.  1.
    9000005    2    1    2  501    0 -0.52469991727E-01 -0.20957932923E-01 -0.92387282321E+03  0.10760694450E+04  0.55171048003E+03 0.  0.
         13    1    3    3    0    0  0.11936178694E+03  0.33829199828E+02  0.18608031067E+02  0.12545082608E+03  0.00000000000E+00 0.  1.
          1    1    3    3  501    0 -0.11941425693E+03 -0.33850157761E+02 -0.94248085427E+03  0.95061861891E+03  0.00000000000E+00 0.  1.
         21    1    1    2  502  501  0.52469991727E-01  0.20957932923E-01 -0.12179337609E-02  0.56513877472E-01  0.00000000000E+00 0. -1.
<mgrwt>
<rscale>  1 0.55171048E+03</rscale>
<asrwt>0</asrwt>
<pdfrwt beam="1">  1        1 0.27682225E+00 0.55171048E+03</pdfrwt>
<pdfrwt beam="2">0</pdfrwt>
<totfact> 0.46848686E+00</totfact>
</mgrwt>
</event>
<event>
 6    1  0.5769652E-003  0.6560260E+03  0.7818608E-02  0.9795537E-01
          1   -1    0    0  502    0  0.00000000000E+00  0.00000000000E+00  0.10759259249E+03  0.10759259249E+03  0.00000000000E+00 0.  1.
         13   -1    0    0    0    0 -0.00000000000E+00 -0.00000000000E+00 -0.10000000000E+04  0.10000000000E+04  0.00000000000E+00 0.  1.
    9000005    2    1    2  501    0  0.32770752284E-04  0.82528071559E-05 -0.89240745734E+03  0.11075925323E+04  0.65602602666E+03 0.  0.
         13    1    3    3    0    0  0.32206244186E+03 -0.43009595704E+02 -0.52205694861E+03  0.61491259491E+03  0.00000000000E+00 0.  1.
          3    1    3    3  501    0 -0.32206240909E+03  0.43009603956E+02 -0.37035050873E+03  0.49267993738E+03  0.00000000000E+00 0.  1.
         21    1    1    2  502  501 -0.32770752300E-04 -0.82528071529E-05  0.49831617632E-04  0.60209809400E-04  0.00000000000E+00 0. -1.
<mgrwt>
<rscale>  1 0.65602603E+03</rscale>
<asrwt>0</asrwt>
<pdfrwt beam="1">  1        1 0.39124662E+00 0.65602603E+03</pdfrwt>
<pdfrwt beam="2">0</pdfrwt>
<totfact> 0.14616813E+00</totfact>
</mgrwt>
</event>
<event>
 6    1  0.5769652E-003  0.6478005E+03  0.7818608E-02  0.9810915E-01
          1   -1    0    0  502    0  0.00000000000E+00  0.00000000000E+00  0.10508115846E+03  0.10508115846E+03  0.00000000000E+00 0.  1.
         13   -1    0    0    0    0 -0.00000000000E+00 -0.00000000000E+00 -0.10000000000E+04  0.10000000000E+04  0.00000000000E+00 0.  1.
    9000005    2    1    2  501    0 -0.91817647596E-01  0.12604428399E-01 -0.89507453177E+03  0.11048999713E+04  0.64780052523E+03 0.  0.
         13    1    3    3    0    0  0.22959911433E+03  0.15539461339E+03 -0.16194421323E+03  0.32107501829E+03  0.00000000000E+00 0.  1.
          1    1    3    3  501    0 -0.22969093198E+03 -0.15538200896E+03 -0.73313031854E+03  0.78382495298E+03  0.00000000000E+00 0.  1.
         21    1    1    2  502  501  0.91817647596E-01 -0.12604428399E-01  0.15569022729E+00  0.18118719297E+00  0.00000000000E+00 0.  1.
<mgrwt>
<rscale>  1 0.64780053E+03</rscale>
<asrwt>0</asrwt>
<pdfrwt beam="1">  1        1 0.38211411E+00 0.64780053E+03</pdfrwt>
<pdfrwt beam="2">0</pdfrwt>
<totfact> 0.16067340E+00</totfact>
</mgrwt>
</event>
<event>
 6    1  0.5769652E-003  0.6452353E+03  0.7818608E-02  0.9815761E-01
          1   -1    0    0  502    0  0.00000000000E+00  0.00000000000E+00  0.10408214492E+03  0.10408214492E+03  0.00000000000E+00 0.  1.
         13   -1    0    0    0    0 -0.00000000000E+00 -0.00000000000E+00 -0.10000000000E+04  0.10000000000E+04  0.00000000000E+00 0.  1.
    9000005    2    1    2  501    0  0.41522724814E-06 -0.65346085876E-06 -0.89591785842E+03  0.11040821415E+04  0.64523527967E+03 0.  0.
         13    1    3    3    0    0  0.20309822772E+03  0.24014838636E+03 -0.57089871242E+03  0.65180171633E+03  0.00000000000E+00 0.  1.
          3    1    3    3  501    0 -0.20309822730E+03 -0.24014838701E+03 -0.32501914600E+03  0.45228042516E+03  0.00000000000E+00 0.  1.
         21    1    1    2  502  501 -0.41522726440E-06  0.65346084950E-06  0.33347831556E-05  0.34234782689E-05  0.00000000000E+00 0.  1.
<mgrwt>
<rscale>  1 0.64523528E+03</rscale>
<asrwt>0</asrwt>
<pdfrwt beam="1">  1        1 0.37848133E+00 0.64523528E+03</pdfrwt>
<pdfrwt beam="2">0</pdfrwt>
<totfact> 0.16679377E+00</totfact>
</mgrwt>
</event>
<event>
 6    1  0.5769652E-003  0.6501726E+03  0.7818608E-02  0.9806455E-01
          1   -1    0    0  502    0  0.00000000000E+00  0.00000000000E+00  0.10568135899E+03  0.10568135899E+03  0.00000000000E+00 0.  1.
         13   -1    0    0    0    0 -0.00000000000E+00 -0.00000000000E+00 -0.10000000000E+04  0.10000000000E+04  0.00000000000E+00 0.  1.
    9000005    2    1    2  501    0 -0.10202113003E-05  0.44787113112E-04 -0.89431888114E+03  0.11056811147E+04  0.65017264343E+03 0.  0.
         13    1    3    3    0    0 -0.12360646445E+03 -0.75046440085E+02 -0.94229462567E+03  0.95332559379E+03  0.00000000000E+00 0.  1.
          1    1    3    3  501    0  0.12360646343E+03  0.75046484872E+02  0.47975744522E+02  0.15235552092E+03  0.00000000000E+00 0.  1.
         21    1    1    2  502  501  0.10202112939E-05 -0.44787113114E-04  0.24013161107E-03  0.24427467525E-03  0.00000000000E+00 0.  1.
<mgrwt>
<rscale>  1 0.65017264E+03</rscale>
<asrwt>0</asrwt>
<pdfrwt beam="1">  1        1 0.38429666E+00 0.65017264E+03</pdfrwt>
<pdfrwt beam="2">0</pdfrwt>
<totfact> 0.15707565E+00</totfact>
</mgrwt>
</event>
<event>
 6    1  0.5769652E-003  0.6421630E+03  0.7818608E-02  0.9821597E-01
          1   -1    0    0  502    0  0.00000000000E+00  0.00000000000E+00  0.10309610033E+03  0.10309610033E+03  0.00000000000E+00 0.  1.
         13   -1    0    0    0    0 -0.00000000000E+00 -0.00000000000E+00 -0.10000000000E+04  0.10000000000E+04  0.00000000000E+00 0.  1.
    9000005    2    1    2  501    0  0.11995976369E-02 -0.91321596909E-03 -0.89690645339E+03  0.11030931348E+04  0.64216296830E+03 0.  0.
         13    1    3    3    0    0 -0.17546137135E+03  0.26889796644E+03 -0.44885224054E+03  0.55187058540E+03  0.00000000000E+00 0.  1.
          1    1    3    3  501    0  0.17546257094E+03 -0.26889887966E+03 -0.44805421286E+03  0.55122254938E+03  0.00000000000E+00 0.  1.
         21    1    1    2  502  501 -0.11995976369E-02  0.91321596909E-03  0.25537224579E-02  0.29655515994E-02  0.00000000000E+00 0.  1.
<mgrwt>
<rscale>  1 0.64216297E+03</rscale>
<asrwt>0</asrwt>
<pdfrwt beam="1">  1        1 0.37489570E+00 0.64216297E+03</pdfrwt>
<pdfrwt beam="2">0</pdfrwt>
<totfact> 0.17306927E+00</totfact>
</mgrwt>
</event>
<event>
 6    1  0.5769652E-003  0.6486520E+03  0.7818608E-02  0.9809312E-01
          1   -1    0    0  502    0  0.00000000000E+00  0.00000000000E+00  0.10518964598E+03  0.10518964598E+03  0.00000000000E+00 0.  1.
         13   -1    0    0    0    0 -0.00000000000E+00 -0.00000000000E+00 -0.10000000000E+04  0.10000000000E+04  0.00000000000E+00 0.  1.
    9000005    2    1    2  501    0  0.91378749778E-03  0.21086773131E-03 -0.89481254633E+03  0.11051872615E+04  0.64865197907E+03 0.  0.
         13    1    3    3    0    0 -0.28548224876E+03 -0.15070829311E+03 -0.39423246897E+03  0.50954130702E+03  0.00000000000E+00 0.  1.
          3    1    3    3  501    0  0.28548316254E+03  0.15070850398E+03 -0.50058007735E+03  0.59564595449E+03  0.00000000000E+00 0.  1.
         21    1    1    2  502  501 -0.91378749778E-03 -0.21086773133E-03  0.21923051616E-02  0.23844652887E-02  0.00000000000E+00 0. -1.
<mgrwt>
<rscale>  1 0.64865198E+03</rscale>
<asrwt>0</asrwt>
<pdfrwt beam="1">  1        1 0.38250861E+00 0.64865198E+03</pdfrwt>
<pdfrwt beam="2">0</pdfrwt>
<totfact> 0.16000489E+00</totfact>
</mgrwt>
</event>
<event>
 6    1  0.5769652E-003  0.6514812E+03  0.7818608E-02  0.9804004E-01
          3   -1    0    0  502    0  0.00000000000E+00  0.00000000000E+00  0.10622650230E+03  0.10622650230E+03  0.00000000000E+00 0.  1.
         13   -1    0    0    0    0 -0.00000000000E+00 -0.00000000000E+00 -0.10000000000E+04  0.10000000000E+04  0.00000000000E+00 0.  1.
    9000005    2    1    2  501    0  0.30825336023E-01  0.20988010817E-01 -0.89388984954E+03  0.11061043203E+04  0.65148116075E+03 0.  0.
         13    1    3    3    0    0  0.19429070422E+03  0.18431671797E+03 -0.13208684234E+03  0.29861089094E+03  0.00000000000E+00 0.  1.
          3    1    3    3  501    0 -0.19425987889E+03 -0.18429572996E+03 -0.76180300720E+03  0.80749342933E+03  0.00000000000E+00 0.  1.
         21    1    1    2  502  501 -0.30825336023E-01 -0.20988010817E-01  0.11635183874E+00  0.12218202943E+00  0.00000000000E+00 0. -1.
<mgrwt>
<rscale>  1 0.65148116E+03</rscale>
<asrwt>0</asrwt>
<pdfrwt beam="1">  1        3 0.38627900E+00 0.65148116E+03</pdfrwt>
<pdfrwt beam="2">0</pdfrwt>
<totfact> 0.69918488E-02</totfact>
</mgrwt>
</event>
<event>
 6    1  0.5769652E-003  0.5887258E+03  0.7818608E-02  0.9929076E-01
          1   -1    0    0  502    0  0.00000000000E+00  0.00000000000E+00  0.86649751596E+02  0.86649751596E+02  0.00000000000E+00 0.  1.
         13   -1    0    0    0    0 -0.00000000000E+00 -0.00000000000E+00 -0.10000000000E+04  0.10000000000E+04  0.00000000000E+00 0.  1.
    9000005    2    1    2  501    0  0.22099299620E-04 -0.63694660923E-04 -0.91335047580E+03  0.10866495144E+04  0.58872580674E+03 0.  0.
         13    1    3    3    0    0  0.45324760015E+02  0.26812644027E+03 -0.24864035325E+03  0.36846729449E+03  0.00000000000E+00 0.  1.
          3    1    3    3  501    0 -0.45324737915E+02 -0.26812650396E+03 -0.66471012255E+03  0.71818221992E+03  0.00000000000E+00 0.  1.
         21    1    1    2  502  501 -0.22099299625E-04  0.63694660936E-04  0.22739974317E-03  0.23718354089E-03  0.00000000000E+00 0.  1.
<mgrwt>
<rscale>  1 0.58872581E+03</rscale>
<asrwt>0</asrwt>
<pdfrwt beam="1">  1        1 0.31509067E+00 0.58872581E+03</pdfrwt>
<pdfrwt beam="2">0</pdfrwt>
<totfact> 0.31822722E+00</totfact>
</mgrwt>
</event>
<event>
 6    1  0.5769652E-003  0.6469774E+03  0.7818608E-02  0.9812467E-01
          1   -1    0    0  502    0  0.00000000000E+00  0.00000000000E+00  0.10474653470E+03  0.10474653470E+03  0.00000000000E+00 0.  1.
         13   -1    0    0    0    0 -0.00000000000E+00 -0.00000000000E+00 -0.10000000000E+04  0.10000000000E+04  0.00000000000E+00 0.  1.
    9000005    2    1    2  501    0  0.98022088209E-01  0.32160529548E-01 -0.89532529352E+03  0.11046208290E+04  0.64697742156E+03 0.  0.
         13    1    3    3    0    0  0.28621578058E+03  0.14727062391E+03 -0.39189341065E+03  0.50713760956E+03  0.00000000000E+00 0.  1.
          3    1    3    3  501    0 -0.28611775849E+03 -0.14723846338E+03 -0.50343188287E+03  0.59748321944E+03  0.00000000000E+00 0.  1.
         21    1    1    2  502  501 -0.98022088209E-01 -0.32160529548E-01  0.71828213768E-01  0.12570569490E+00  0.00000000000E+00 0. -1.
<mgrwt>
<rscale>  1 0.64697743E+03</rscale>
<asrwt>0</asrwt>
<pdfrwt beam="1">  1        1 0.38089729E+00 0.64697743E+03</pdfrwt>
<pdfrwt beam="2">0</pdfrwt>
<totfact> 0.16269814E+00</totfact>
</mgrwt>
</event>
<event>
 6    1  0.5769652E-003  0.6534445E+03  0.7818608E-02  0.9800337E-01
          1   -1    0    0  502    0  0.00000000000E+00  0.00000000000E+00  0.10674743010E+03  0.10674743010E+03  0.00000000000E+00 0.  1.
         13   -1    0    0    0    0 -0.00000000000E+00 -0.00000000000E+00 -0.10000000000E+04  0.10000000000E+04  0.00000000000E+00 0.  1.
    9000005    2    1    2  501    0  0.91890408953E-05  0.64209928610E-05 -0.89325255043E+03  0.11067474076E+04  0.65344449301E+03 0.  0.
         13    1    3    3    0    0 -0.56188822485E+02 -0.29427965368E+03 -0.22585986108E+03  0.37519378352E+03  0.00000000000E+00 0.  1.
          1    1    3    3  501    0  0.56188831674E+02  0.29427966010E+03 -0.66739268934E+03  0.73155362411E+03  0.00000000000E+00 0.  1.
         21    1    1    2  502  501 -0.91890408941E-05 -0.64209928467E-05 -0.19477047839E-04  0.22472717108E-04  0.00000000000E+00 0.  1.
<mgrwt>
<rscale>  1 0.65344449E+03</rscale>
<asrwt>0</asrwt>
<pdfrwt beam="1">  1        1 0.38817329E+00 0.65344449E+03</pdfrwt>
<pdfrwt beam="2">0</pdfrwt>
<totfact> 0.15089957E+00</totfact>
</mgrwt>
</event>
