<event>
 6    1  0.1619033E-002  0.6527834E+03  0.7818608E-02  0.9801570E-01
          1   -1    0    0  502    0  0.00000000000E+00  0.00000000000E+00  0.10655005678E+03  0.10655005678E+03  0.00000000000E+00 0.  1.
         13   -1    0    0    0    0 -0.00000000000E+00 -0.00000000000E+00 -0.10000000000E+04  0.10000000000E+04  0.00000000000E+00 0.  1.
    9000005    2    1    2  501    0 -0.18765374860E-02  0.85605290309E-03 -0.89346839179E+03  0.11065314933E+04  0.65278340854E+03 0.  0.
         13    1    3    3    0    0  0.10767713921E+03  0.19616458025E+03 -0.84949941550E+03  0.87847832403E+03  0.00000000000E+00 0.  1.
          3    1    3    3  501    0 -0.10767901575E+03 -0.19616372420E+03 -0.43968976289E+02  0.22805316924E+03  0.00000000000E+00 0.  1.
         21    1    1    2  502  501  0.18765374860E-02 -0.85605290309E-03  0.18448569594E-01  0.18563510971E-01  0.00000000000E+00 0. -1.
<mgrwt>
<rscale>  1 0.65278341E+03</rscale>
<asrwt>0</asrwt>
<pdfrwt beam="1">  1        1 0.38745557E+00 0.65278341E+03</pdfrwt>
<pdfrwt beam="2">0</pdfrwt>
<totfact> 0.15202689E+00</totfact>
</mgrwt>
</event>
<event>
 6    1  0.1619033E-002  0.6479268E+03  0.7818608E-02  0.9810677E-01
          1   -1    0    0  502    0  0.00000000000E+00  0.00000000000E+00  0.10598231603E+03  0.10598231603E+03  0.00000000000E+00 0.  1.
         13   -1    0    0    0    0 -0.00000000000E+00 -0.00000000000E+00 -0.10000000000E+04  0.10000000000E+04  0.00000000000E+00 0.  1.
    9000005    2    1    2  501    0 -0.22489097013E-01 -0.83710394536E-01 -0.89504570408E+03  0.11049506482E+04  0.64792678215E+03 0.  0.
         13    1    3    3    0    0 -0.75866783838E+02 -0.23863730186E+03 -0.96950208730E+02  0.26851978270E+03  0.00000000000E+00 0.  1.
          3    1    3    3  501    0  0.75844294741E+02  0.23855359146E+03 -0.79809549535E+03  0.83643086549E+03  0.00000000000E+00 0.  1.
         21    1    1    2  502  501  0.22489097013E-01  0.83710394536E-01  0.10280201106E+01  0.10316678425E+01  0.00000000000E+00 0. -1.
<mgrwt>
<rscale>  1 0.64792679E+03</rscale>
<asrwt>0</asrwt>
<pdfrwt beam="1">  1        1 0.38539105E+00 0.64792679E+03</pdfrwt>
<pdfrwt beam="2">0</pdfrwt>
<totfact> 0.15539932E+00</totfact>
</mgrwt>
</event>
<event>
 6    1  0.1619033E-002  0.6523088E+03  0.7818608E-02  0.9802457E-01
          1   -1    0    0  502    0  0.00000000000E+00  0.00000000000E+00  0.10637668902E+03  0.10637668902E+03  0.00000000000E+00 0.  1.
         13   -1    0    0    0    0 -0.00000000000E+00 -0.00000000000E+00 -0.10000000000E+04  0.10000000000E+04  0.00000000000E+00 0.  1.
    9000005    2    1    2  501    0 -0.90019489107E-06  0.10077782179E-04 -0.89362330323E+03  0.11063766763E+04  0.65230877791E+03 0.  0.
         13    1    3    3    0    0 -0.67401891870E+02  0.15470465885E+03  0.26578159813E+02  0.17083016443E+03  0.00000000000E+00 0.  1.
          1    1    3    3  501    0  0.67401890970E+02 -0.15470464878E+03 -0.92020146304E+03  0.93554651186E+03  0.00000000000E+00 0.  1.
         21    1    1    2  502  501  0.90019489000E-06 -0.10077782164E-04 -0.77468442619E-05  0.12743062434E-04  0.00000000000E+00 0.  1.
<mgrwt>
<rscale>  1 0.65230878E+03</rscale>
<asrwt>0</asrwt>
<pdfrwt beam="1">  1        1 0.38682514E+00 0.65230878E+03</pdfrwt>
<pdfrwt beam="2">0</pdfrwt>
<totfact> 0.15302070E+00</totfact>
</mgrwt>
</event>
<event>
 6    1  0.1619033E-002  0.6506546E+03  0.7818608E-02  0.9805552E-01
          1   -1    0    0  502    0  0.00000000000E+00  0.00000000000E+00  0.10583889764E+03  0.10583889764E+03  0.00000000000E+00 0.  1.
         13   -1    0    0    0    0 -0.00000000000E+00 -0.00000000000E+00 -0.10000000000E+04  0.10000000000E+04  0.00000000000E+00 0.  1.
    9000005    2    1    2  501    0 -0.12232226680E-04  0.77727495665E-03 -0.89416196682E+03  0.11058377351E+04  0.65065464985E+03 0.  0.
         13    1    3    3    0    0  0.17929068161E+03  0.26964687883E+03 -0.50038119846E+03  0.59601672086E+03  0.00000000000E+00 0.  1.
          3    1    3    3  501    0 -0.17929069384E+03 -0.26964610156E+03 -0.39378076837E+03  0.50982101420E+03  0.00000000000E+00 0.  1.
         21    1    1    2  502  501  0.12232226696E-04 -0.77727495662E-03  0.86446447497E-03  0.11625854008E-02  0.00000000000E+00 0.  1.
<mgrwt>
<rscale>  1 0.65065465E+03</rscale>
<asrwt>0</asrwt>
<pdfrwt beam="1">  1        1 0.38486953E+00 0.65065465E+03</pdfrwt>
<pdfrwt beam="2">0</pdfrwt>
<totfact> 0.15614814E+00</totfact>
</mgrwt>
</event>
<event>
 6    1  0.1619033E-002  0.6468978E+03  0.7818608E-02  0.9812618E-01
          3   -1    0    0  502    0  0.00000000000E+00  0.00000000000E+00  0.10769631254E+03  0.10769631254E+03  0.00000000000E+00 0.  1.
         13   -1    0    0    0    0 -0.00000000000E+00 -0.00000000000E+00 -0.10000000000E+04  0.10000000000E+04  0.00000000000E+00 0.  1.
    9000005    2    1    2  501    0  0.52922691617E-02 -0.16324803128E+00 -0.89537841426E+03  0.11046172505E+04  0.64689778080E+03 0.  0.
         13    1    3    3    0    0  0.28655979734E+03 -0.11181482476E+03 -0.61865716514E+03  0.69090937211E+03  0.00000000000E+00 0.  1.
          1    1    3    3  501    0 -0.28655450508E+03  0.11165157673E+03 -0.27672124912E+03  0.41370787843E+03  0.00000000000E+00 0.  1.
         21    1    1    2  502  501 -0.52922691617E-02  0.16324803128E+00  0.30747267919E+01  0.30790619955E+01  0.00000000000E+00 0.  1.
<mgrwt>
<rscale>  1 0.64689780E+03</rscale>
<asrwt>0</asrwt>
<pdfrwt beam="1">  1        3 0.39162378E+00 0.64689780E+03</pdfrwt>
<pdfrwt beam="2">0</pdfrwt>
<totfact> 0.65583797E-02</totfact>
</mgrwt>
</event>
<event>
 6    1  0.1619033E-002  0.6084590E+03  0.7818608E-02  0.9888010E-01
          1   -1    0    0  502    0  0.00000000000E+00  0.00000000000E+00  0.95122280180E+02  0.95122280180E+02  0.00000000000E+00 0.  1.
         13   -1    0    0    0    0 -0.00000000000E+00 -0.00000000000E+00 -0.10000000000E+04  0.10000000000E+04  0.00000000000E+00 0.  1.
    9000005    2    1    2  501    0  0.17998649307E+00 -0.89610286060E-01 -0.90744011066E+03  0.10925520133E+04  0.60845896070E+03 0.  0.
         13    1    3    3    0    0 -0.77441281564E+02 -0.28051253483E+03 -0.29432916511E+03  0.41390106514E+03  0.00000000000E+00 0.  1.
          3    1    3    3  501    0  0.77621268057E+02  0.28042292454E+03 -0.61311094555E+03  0.67865094814E+03  0.00000000000E+00 0.  1.
         21    1    1    2  502  501 -0.17998649307E+00  0.89610286060E-01  0.25623908378E+01  0.25702669019E+01  0.00000000000E+00 0.  1.
<mgrwt>
<rscale>  1 0.60845899E+03</rscale>
<asrwt>0</asrwt>
<pdfrwt beam="1">  1        1 0.34589993E+00 0.60845899E+03</pdfrwt>
<pdfrwt beam="2">0</pdfrwt>
<totfact> 0.23319133E+00</totfact>
</mgrwt>
</event>
<event>
 6    1  0.1619033E-002  0.5488340E+03  0.7818608E-02  0.1001764E+00
          1   -1    0    0  502    0  0.00000000000E+00  0.00000000000E+00  0.75406902480E+02  0.75406902480E+02  0.00000000000E+00 0.  1.
         13   -1    0    0    0    0 -0.00000000000E+00 -0.00000000000E+00 -0.10000000000E+04  0.10000000000E+04  0.00000000000E+00 0.  1.
    9000005    2    1    2  501    0  0.23991913327E-01 -0.31070301742E-02 -0.92469376928E+03  0.10753033647E+04  0.54883399918E+03 0.  0.
         13    1    3    3    0    0 -0.23750430367E+03  0.68640724910E+02 -0.69562715776E+03  0.73825265729E+03  0.00000000000E+00 0.  1.
          1    1    3    3  501    0  0.23752829559E+03 -0.68643831940E+02 -0.22906661151E+03  0.33705070743E+03  0.00000000000E+00 0.  1.
         21    1    1    2  502  501 -0.23991913327E-01  0.31070301742E-02  0.10067175569E+00  0.10353776092E+00  0.00000000000E+00 0.  1.
<mgrwt>
<rscale>  1 0.54883400E+03</rscale>
<asrwt>0</asrwt>
<pdfrwt beam="1">  1        1 0.27420750E+00 0.54883400E+03</pdfrwt>
<pdfrwt beam="2">0</pdfrwt>
<totfact> 0.48106860E+00</totfact>
</mgrwt>
</event>
<event>
 6    1  0.1619033E-002  0.6407129E+03  0.7818608E-02  0.9824363E-01
          1   -1    0    0  502    0  0.00000000000E+00  0.00000000000E+00  0.10262826422E+03  0.10262826422E+03  0.00000000000E+00 0.  1.
         13   -1    0    0    0    0 -0.00000000000E+00 -0.00000000000E+00 -0.10000000000E+04  0.10000000000E+04  0.00000000000E+00 0.  1.
    9000005    2    1    2  501    0  0.40303575304E-05 -0.36132225674E-05 -0.89737173798E+03  0.11026282584E+04  0.64071291547E+03 0.  0.
         13    1    3    3    0    0  0.23435839244E+03  0.57244722092E+02 -0.81142241874E+03  0.84652652407E+03  0.00000000000E+00 0.  1.
          1    1    3    3  501    0 -0.23435838841E+03 -0.57244725705E+02 -0.85949319242E+02  0.25610173431E+03  0.00000000000E+00 0.  1.
         21    1    1    2  502  501 -0.40303575264E-05  0.36132225667E-05  0.22035737407E-05  0.58442190529E-05  0.00000000000E+00 0. -1.
<mgrwt>
<rscale>  1 0.64071292E+03</rscale>
<asrwt>0</asrwt>
<pdfrwt beam="1">  1        1 0.37319448E+00 0.64071292E+03</pdfrwt>
<pdfrwt beam="2">0</pdfrwt>
<totfact> 0.17612471E+00</totfact>
</mgrwt>
</event>
<event>
 6    1  0.1619033E-002  0.6563616E+03  0.7818608E-02  0.9794915E-01
          1   -1    0    0  502    0  0.00000000000E+00  0.00000000000E+00  0.10821063856E+03  0.10821063856E+03  0.00000000000E+00 0.  1.
         13   -1    0    0    0    0 -0.00000000000E+00 -0.00000000000E+00 -0.10000000000E+04  0.10000000000E+04  0.00000000000E+00 0.  1.
    9000005    2    1    2  501    0  0.16586495171E+00 -0.17753865345E+00 -0.89226498679E+03  0.11076765500E+04  0.65636154189E+03 0.  0.
         13    1    3    3    0    0 -0.16477410799E+02  0.15948070918E+03 -0.92922322388E+03  0.94295355213E+03  0.00000000000E+00 0.  1.
          1    1    3    3  501    0  0.16643275750E+02 -0.15965824783E+03  0.36958237095E+02  0.16472299784E+03  0.00000000000E+00 0.  1.
         21    1    1    2  502  501 -0.16586495171E+00  0.17753865345E+00  0.47562534226E+00  0.53408858991E+00  0.00000000000E+00 0.  1.
<mgrwt>
<rscale>  1 0.65636159E+03</rscale>
<asrwt>0</asrwt>
<pdfrwt beam="1">  1        1 0.39349406E+00 0.65636159E+03</pdfrwt>
<pdfrwt beam="2">0</pdfrwt>
<totfact> 0.14283879E+00</totfact>
</mgrwt>
</event>
<event>
 6    1  0.1619033E-002  0.6539995E+03  0.7818608E-02  0.9799303E-01
          3   -1    0    0  502    0  0.00000000000E+00  0.00000000000E+00  0.10692986404E+03  0.10692986404E+03  0.00000000000E+00 0.  1.
         13   -1    0    0    0    0 -0.00000000000E+00 -0.00000000000E+00 -0.10000000000E+04  0.10000000000E+04  0.00000000000E+00 0.  1.
    9000005    2    1    2  501    0 -0.40758371927E-04  0.28877319261E-03 -0.89307115225E+03  0.11069288067E+04  0.65399946497E+03 0.  0.
         13    1    3    3    0    0  0.22314756721E+01 -0.16629201617E+03 -0.92307487748E+03  0.93793669486E+03  0.00000000000E+00 0.  1.
          1    1    3    3  501    0 -0.22315164305E+01  0.16629230494E+03  0.30003725224E+02  0.16899211187E+03  0.00000000000E+00 0.  1.
         21    1    1    2  502  501  0.40758371927E-04 -0.28877319263E-03  0.10162953928E-02  0.10573114617E-02  0.00000000000E+00 0. -1.
<mgrwt>
<rscale>  1 0.65399946E+03</rscale>
<asrwt>0</asrwt>
<pdfrwt beam="1">  1        3 0.38883669E+00 0.65399946E+03</pdfrwt>
<pdfrwt beam="2">0</pdfrwt>
<totfact> 0.67754577E-02</totfact>
</mgrwt>
</event>
<event>
 6    1  0.1619033E-002  0.6517292E+03  0.7818608E-02  0.9803540E-01
          1   -1    0    0  502    0  0.00000000000E+00  0.00000000000E+00  0.10618790148E+03  0.10618790148E+03  0.00000000000E+00 0.  1.
         13   -1    0    0    0    0 -0.00000000000E+00 -0.00000000000E+00 -0.10000000000E+04  0.10000000000E+04  0.00000000000E+00 0.  1.
    9000005    2    1    2  501    0 -0.15326902979E-03 -0.38708576483E-04 -0.89381220034E+03  0.11061877134E+04  0.65172924433E+03 0.  0.
         13    1    3    3    0    0  0.22374830396E+03  0.41477786846E+02 -0.84279832950E+03  0.87297922916E+03  0.00000000000E+00 0.  1.
          3    1    3    3  501    0 -0.22374845723E+03 -0.41477825554E+02 -0.51013870833E+02  0.23320848429E+03  0.00000000000E+00 0.  1.
         21    1    1    2  502  501  0.15326902977E-03  0.38708576487E-04  0.10181729435E-03  0.18803327049E-03  0.00000000000E+00 0. -1.
<mgrwt>
<rscale>  1 0.65172924E+03</rscale>
<asrwt>0</asrwt>
<pdfrwt beam="1">  1        1 0.38613864E+00 0.65172924E+03</pdfrwt>
<pdfrwt beam="2">0</pdfrwt>
<totfact> 0.15411169E+00</totfact>
</mgrwt>
</event>
<event>
 6    1  0.1619033E-002  0.5282999E+03  0.7818608E-02  0.1006645E+00
          1   -1    0    0  502    0  0.00000000000E+00  0.00000000000E+00  0.70497670779E+02  0.70497670779E+02  0.00000000000E+00 0.  1.
         13   -1    0    0    0    0 -0.00000000000E+00 -0.00000000000E+00 -0.10000000000E+04  0.10000000000E+04  0.00000000000E+00 0.  1.
    9000005    2    1    2  501    0  0.13354039358E+01  0.51151780106E+00 -0.92940741388E+03  0.10690645054E+04  0.52829795641E+03 0.  0.
         13    1    3    3    0    0 -0.25104482579E+03 -0.66494024025E+02 -0.37387219836E+03  0.45522014509E+03  0.00000000000E+00 0.  1.
          3    1    3    3  501    0  0.25238022972E+03  0.67005541826E+02 -0.55553521551E+03  0.61384436029E+03  0.00000000000E+00 0.  1.
         21    1    1    2  502  501 -0.13354039358E+01 -0.51151780106E+00 -0.94915343593E-01  0.14331653969E+01  0.00000000000E+00 0.  1.
<mgrwt>
<rscale>  1 0.52829989E+03</rscale>
<asrwt>0</asrwt>
<pdfrwt beam="1">  1        1 0.25635571E+00 0.52829989E+03</pdfrwt>
<pdfrwt beam="2">0</pdfrwt>
<totfact> 0.57678101E+00</totfact>
</mgrwt>
</event>
<event>
 6    1  0.1619033E-002  0.6452154E+03  0.7818608E-02  0.9815799E-01
          3   -1    0    0  502    0  0.00000000000E+00  0.00000000000E+00  0.10407571744E+03  0.10407571744E+03  0.00000000000E+00 0.  1.
         13   -1    0    0    0    0 -0.00000000000E+00 -0.00000000000E+00 -0.10000000000E+04  0.10000000000E+04  0.00000000000E+00 0.  1.
    9000005    2    1    2  501    0  0.44472627110E-05  0.16263243197E-05 -0.89592428387E+03  0.11040757125E+04  0.64521535673E+03 0.  0.
         13    1    3    3    0    0 -0.62755847507E+02 -0.26221662907E+03 -0.14483861913E+03  0.30606222006E+03  0.00000000000E+00 0.  1.
          3    1    3    3  501    0  0.62755851954E+02  0.26221663070E+03 -0.75108566474E+03  0.79801349246E+03  0.00000000000E+00 0.  1.
         21    1    1    2  502  501 -0.44472627095E-05 -0.16263243045E-05  0.13097276826E-05  0.49130909775E-05  0.00000000000E+00 0. -1.
<mgrwt>
<rscale>  1 0.64521536E+03</rscale>
<asrwt>0</asrwt>
<pdfrwt beam="1">  1        3 0.37845795E+00 0.64521536E+03</pdfrwt>
<pdfrwt beam="2">0</pdfrwt>
<totfact> 0.76969392E-02</totfact>
</mgrwt>
</event>
<event>
 6    1  0.1619033E-002  0.6536437E+03  0.7818608E-02  0.9799966E-01
          1   -1    0    0  502    0  0.00000000000E+00  0.00000000000E+00  0.10681283973E+03  0.10681283973E+03  0.00000000000E+00 0.  1.
         13   -1    0    0    0    0 -0.00000000000E+00 -0.00000000000E+00 -0.10000000000E+04  0.10000000000E+04  0.00000000000E+00 0.  1.
    9000005    2    1    2  501    0  0.11793775201E-03 -0.36843731600E-03 -0.89318733100E+03  0.11068124169E+04  0.65364372397E+03 0.  0.
         13    1    3    3    0    0  0.30367372104E+03 -0.11501852393E+03 -0.50916835052E+03  0.60390346817E+03  0.00000000000E+00 0.  1.
          1    1    3    3  501    0 -0.30367360310E+03  0.11501815550E+03 -0.38401898048E+03  0.50290894870E+03  0.00000000000E+00 0.  1.
         21    1    1    2  502  501 -0.11793775199E-03  0.36843731601E-03  0.17073511979E-03  0.42285440792E-03  0.00000000000E+00 0. -1.
<mgrwt>
<rscale>  1 0.65364372E+03</rscale>
<asrwt>0</asrwt>
<pdfrwt beam="1">  1        1 0.38841115E+00 0.65364372E+03</pdfrwt>
<pdfrwt beam="2">0</pdfrwt>
<totfact> 0.15052828E+00</totfact>
</mgrwt>
</event>
<event>
 6    1  0.1619033E-002  0.6564250E+03  0.7818608E-02  0.9794797E-01
          1   -1    0    0  502    0  0.00000000000E+00  0.00000000000E+00  0.10824348447E+03  0.10824348447E+03  0.00000000000E+00 0.  1.
         13   -1    0    0    0    0 -0.00000000000E+00 -0.00000000000E+00 -0.10000000000E+04  0.10000000000E+04  0.00000000000E+00 0.  1.
    9000005    2    1    2  501    0  0.53539480796E+00 -0.73649892857E-01 -0.89211620879E+03  0.11075942918E+04  0.65642478102E+03 0.  0.
         13    1    3    3    0    0 -0.31571758836E+03  0.78569024910E+02 -0.51522182243E+03  0.60934736692E+03  0.00000000000E+00 0.  1.
          1    1    3    3  501    0  0.31625298317E+03 -0.78642674803E+02 -0.37689438636E+03  0.49824692486E+03  0.00000000000E+00 0.  1.
         21    1    1    2  502  501 -0.53539480796E+00  0.73649892857E-01  0.35969326181E+00  0.64919269074E+00  0.00000000000E+00 0. -1.
<mgrwt>
<rscale>  1 0.65642500E+03</rscale>
<asrwt>0</asrwt>
<pdfrwt beam="1">  1        1 0.39361350E+00 0.65642500E+03</pdfrwt>
<pdfrwt beam="2">0</pdfrwt>
<totfact> 0.14266267E+00</totfact>
</mgrwt>
</event>
<event>
 6    1  0.1619033E-002  0.6452227E+03  0.7818608E-02  0.9815785E-01
          1   -1    0    0  502    0  0.00000000000E+00  0.00000000000E+00  0.10410737116E+03  0.10410737116E+03  0.00000000000E+00 0.  1.
         13   -1    0    0    0    0 -0.00000000000E+00 -0.00000000000E+00 -0.10000000000E+04  0.10000000000E+04  0.00000000000E+00 0.  1.
    9000005    2    1    2  501    0 -0.28867117953E-02  0.35085457731E-03 -0.89592183886E+03  0.11040780168E+04  0.64522269468E+03 0.  0.
         13    1    3    3    0    0  0.12629672978E+03  0.21960581769E+03 -0.78976477607E+03  0.82940097699E+03  0.00000000000E+00 0.  1.
          1    1    3    3  501    0 -0.12629961650E+03 -0.21960546684E+03 -0.10615706279E+03  0.27467703976E+03  0.00000000000E+00 0.  1.
         21    1    1    2  502  501  0.28867117953E-02 -0.35085457730E-03  0.29210018646E-01  0.29354410115E-01  0.00000000000E+00 0.  1.
<mgrwt>
<rscale>  1 0.64522269E+03</rscale>
<asrwt>0</asrwt>
<pdfrwt beam="1">  1        1 0.37857306E+00 0.64522269E+03</pdfrwt>
<pdfrwt beam="2">0</pdfrwt>
<totfact> 0.16663890E+00</totfact>
</mgrwt>
</event>
<event>
 6    1  0.1619033E-002  0.6525702E+03  0.7818608E-02  0.9801968E-01
          1   -1    0    0  502    0  0.00000000000E+00  0.00000000000E+00  0.10710615134E+03  0.10710615134E+03  0.00000000000E+00 0.  1.
         13   -1    0    0    0    0 -0.00000000000E+00 -0.00000000000E+00 -0.10000000000E+04  0.10000000000E+04  0.00000000000E+00 0.  1.
    9000005    2    1    2  501    0  0.26951121086E-01 -0.15818556275E-01 -0.89353762881E+03  0.11064616132E+04  0.65257015431E+03 0.  0.
         13    1    3    3    0    0 -0.32620130166E+03  0.40499407697E+01 -0.43755595079E+03  0.54578283345E+03  0.00000000000E+00 0.  1.
          1    1    3    3  501    0  0.32622825278E+03 -0.40657593260E+01 -0.45598167803E+03  0.56067877970E+03  0.00000000000E+00 0.  1.
         21    1    1    2  502  501 -0.26951121086E-01  0.15818556275E-01  0.64378015670E+00  0.64453819112E+00  0.00000000000E+00 0. -1.
<mgrwt>
<rscale>  1 0.65257016E+03</rscale>
<asrwt>0</asrwt>
<pdfrwt beam="1">  1        1 0.38947774E+00 0.65257016E+03</pdfrwt>
<pdfrwt beam="2">0</pdfrwt>
<totfact> 0.14892830E+00</totfact>
</mgrwt>
</event>
<event>
 6    1  0.1619033E-002  0.6462168E+03  0.7818608E-02  0.9813904E-01
          1   -1    0    0  502    0  0.00000000000E+00  0.00000000000E+00  0.10463867235E+03  0.10463867235E+03  0.00000000000E+00 0.  1.
         13   -1    0    0    0    0 -0.00000000000E+00 -0.00000000000E+00 -0.10000000000E+04  0.10000000000E+04  0.00000000000E+00 0.  1.
    9000005    2    1    2  501    0 -0.11731246989E+00 -0.30977992916E-01 -0.89558388957E+03  0.11043851853E+04  0.64621677450E+03 0.  0.
         13    1    3    3    0    0 -0.82209067240E+02  0.12477025783E+03  0.41814367952E+02  0.15515923866E+03  0.00000000000E+00 0.  1.
          1    1    3    3  501    0  0.82091754770E+02 -0.12480123582E+03 -0.93739825752E+03  0.94922594669E+03  0.00000000000E+00 0.  1.
         21    1    1    2  502  501  0.11731246989E+00  0.30977992916E-01  0.22256192241E+00  0.25348700350E+00  0.00000000000E+00 0.  1.
<mgrwt>
<rscale>  1 0.64621679E+03</rscale>
<asrwt>0</asrwt>
<pdfrwt beam="1">  1        1 0.38050507E+00 0.64621679E+03</pdfrwt>
<pdfrwt beam="2">0</pdfrwt>
<totfact> 0.16337084E+00</totfact>
</mgrwt>
</event>
<event>
 6    1  0.1619033E-002  0.6479633E+03  0.7818608E-02  0.9810608E-01
          1   -1    0    0  502    0  0.00000000000E+00  0.00000000000E+00  0.10524395085E+03  0.10524395085E+03  0.00000000000E+00 0.  1.
         13   -1    0    0    0    0 -0.00000000000E+00 -0.00000000000E+00 -0.10000000000E+04  0.10000000000E+04  0.00000000000E+00 0.  1.
    9000005    2    1    2  501    0  0.21382950917E+00  0.45213301530E-01 -0.89498796657E+03  0.11049252770E+04  0.64796323953E+03 0.  0.
         13    1    3    3    0    0  0.17763171397E+03 -0.26095917415E+03 -0.57213119901E+03  0.65344228915E+03  0.00000000000E+00 0.  1.
          3    1    3    3  501    0 -0.17741788446E+03  0.26100438745E+03 -0.32285676757E+03  0.45148298789E+03  0.00000000000E+00 0.  1.
         21    1    1    2  502  501 -0.21382950917E+00 -0.45213301530E-01  0.23191742962E+00  0.31867380781E+00  0.00000000000E+00 0.  1.
<mgrwt>
<rscale>  1 0.64796328E+03</rscale>
<asrwt>0</asrwt>
<pdfrwt beam="1">  1        1 0.38270608E+00 0.64796328E+03</pdfrwt>
<pdfrwt beam="2">0</pdfrwt>
<totfact> 0.15970406E+00</totfact>
</mgrwt>
</event>
<event>
 6    1  0.1619033E-002  0.6576701E+03  0.7818608E-02  0.9792492E-01
          1   -1    0    0  502    0  0.00000000000E+00  0.00000000000E+00  0.10865037963E+03  0.10865037963E+03  0.00000000000E+00 0.  1.
         13   -1    0    0    0    0 -0.00000000000E+00 -0.00000000000E+00 -0.10000000000E+04  0.10000000000E+04  0.00000000000E+00 0.  1.
    9000005    2    1    2  501    0 -0.20067290170E-01 -0.73002571932E-01 -0.89186445774E+03  0.11081300052E+04  0.65767004768E+03 0.  0.
         13    1    3    3    0    0  0.31249733149E+03  0.82487729741E+02 -0.54786093766E+03  0.63608994236E+03  0.00000000000E+00 0.  1.
          1    1    3    3  501    0 -0.31251739878E+03 -0.82560732312E+02 -0.34400352008E+03  0.47204006280E+03  0.00000000000E+00 0.  1.
         21    1    1    2  502  501  0.20067290170E-01  0.73002571932E-01  0.51483737098E+00  0.52037447113E+00  0.00000000000E+00 0. -1.
<mgrwt>
<rscale>  1 0.65767005E+03</rscale>
<asrwt>0</asrwt>
<pdfrwt beam="1">  1        1 0.39509312E+00 0.65767005E+03</pdfrwt>
<pdfrwt beam="2">0</pdfrwt>
<totfact> 0.14048586E+00</totfact>
</mgrwt>
</event>
<event>
 6    1  0.1619033E-002  0.6430464E+03  0.7818608E-02  0.9819915E-01
          1   -1    0    0  502    0  0.00000000000E+00  0.00000000000E+00  0.10337759824E+03  0.10337759824E+03  0.00000000000E+00 0.  1.
         13   -1    0    0    0    0 -0.00000000000E+00 -0.00000000000E+00 -0.10000000000E+04  0.10000000000E+04  0.00000000000E+00 0.  1.
    9000005    2    1    2  501    0 -0.14406673756E-03  0.17848945673E-03 -0.89662280250E+03  0.11033771365E+04  0.64304638665E+03 0.  0.
         13    1    3    3    0    0 -0.24244174725E+03  0.70828125358E+02 -0.10693488977E+03  0.27428032157E+03  0.00000000000E+00 0.  1.
          1    1    3    3  501    0  0.24244160318E+03 -0.70827946868E+02 -0.78968791273E+03  0.82909681493E+03  0.00000000000E+00 0.  1.
         21    1    1    2  502  501  0.14406673755E-03 -0.17848945673E-03  0.40074596804E-03  0.46174781205E-03  0.00000000000E+00 0.  1.
<mgrwt>
<rscale>  1 0.64304639E+03</rscale>
<asrwt>0</asrwt>
<pdfrwt beam="1">  1        1 0.37591933E+00 0.64304639E+03</pdfrwt>
<pdfrwt beam="2">0</pdfrwt>
<totfact> 0.17125492E+00</totfact>
</mgrwt>
</event>
<event>
 6    1  0.1619033E-002  0.6504094E+03  0.7818608E-02  0.9806011E-01
          1   -1    0    0  502    0  0.00000000000E+00  0.00000000000E+00  0.10576155517E+03  0.10576155517E+03  0.00000000000E+00 0.  1.
         13   -1    0    0    0    0 -0.00000000000E+00 -0.00000000000E+00 -0.10000000000E+04  0.10000000000E+04  0.00000000000E+00 0.  1.
    9000005    2    1    2  501    0 -0.99182326045E-02  0.36660966975E-02 -0.89422273797E+03  0.11057426206E+04  0.65040943863E+03 0.  0.
         13    1    3    3    0    0 -0.12865189049E+03  0.15021255128E+03 -0.82305683723E+01  0.19794661337E+03  0.00000000000E+00 0.  1.
          1    1    3    3  501    0  0.12864197226E+03 -0.15020888518E+03 -0.88599216960E+03  0.90779600726E+03  0.00000000000E+00 0.  1.
         21    1    1    2  502  501  0.99182326045E-02 -0.36660966976E-02 -0.15706858188E-01  0.18934545074E-01  0.00000000000E+00 0. -1.
<mgrwt>
<rscale>  1 0.65040944E+03</rscale>
<asrwt>0</asrwt>
<pdfrwt beam="1">  1        1 0.38458828E+00 0.65040944E+03</pdfrwt>
<pdfrwt beam="2">0</pdfrwt>
<totfact> 0.15660309E+00</totfact>
</mgrwt>
</event>
<event>
 6    1  0.1619033E-002  0.6560454E+03  0.7818608E-02  0.9795501E-01
          1   -1    0    0  502    0  0.00000000000E+00  0.00000000000E+00  0.10766661517E+03  0.10766661517E+03  0.00000000000E+00 0.  1.
         13   -1    0    0    0    0 -0.00000000000E+00 -0.00000000000E+00 -0.10000000000E+04  0.10000000000E+04  0.00000000000E+00 0.  1.
    9000005    2    1    2  501    0 -0.10230924475E+00 -0.74280505772E-01 -0.89232807935E+03  0.11075400730E+04  0.65604542229E+03 0.  0.
         13    1    3    3    0    0 -0.97587464432E+02 -0.29114738514E+03 -0.64121845418E+03  0.71095092592E+03  0.00000000000E+00 0.  1.
          1    1    3    3  501    0  0.97485155187E+02  0.29107310463E+03 -0.25110962517E+03  0.39658914707E+03  0.00000000000E+00 0.  1.
         21    1    1    2  502  501  0.10230924475E+00  0.74280505772E-01 -0.53054802311E-02  0.12654217960E+00  0.00000000000E+00 0. -1.
<mgrwt>
<rscale>  1 0.65604543E+03</rscale>
<asrwt>0</asrwt>
<pdfrwt beam="1">  1        1 0.39151579E+00 0.65604543E+03</pdfrwt>
<pdfrwt beam="2">0</pdfrwt>
<totfact> 0.14576609E+00</totfact>
</mgrwt>
</event>
<event>
 6    1  0.1619033E-002  0.6504597E+03  0.7818608E-02  0.9805917E-01
          1   -1    0    0  502    0  0.00000000000E+00  0.00000000000E+00  0.10577466326E+03  0.10577466326E+03  0.00000000000E+00 0.  1.
         13   -1    0    0    0    0 -0.00000000000E+00 -0.00000000000E+00 -0.10000000000E+04  0.10000000000E+04  0.00000000000E+00 0.  1.
    9000005    2    1    2  501    0 -0.56192997642E-04  0.58250951497E-04 -0.89422554493E+03  0.11057744399E+04  0.65045967339E+03 0.  0.
         13    1    3    3    0    0 -0.91135085286E+01  0.23310173898E+03 -0.83235820903E+03  0.86443025450E+03  0.00000000000E+00 0.  1.
          3    1    3    3  501    0  0.91134523356E+01 -0.23310168073E+03 -0.61867335895E+02  0.24134418539E+03  0.00000000000E+00 0.  1.
         21    1    1    2  502  501  0.56192997642E-04 -0.58250951491E-04  0.20818524822E-03  0.22336500154E-03  0.00000000000E+00 0. -1.
<mgrwt>
<rscale>  1 0.65045967E+03</rscale>
<asrwt>0</asrwt>
<pdfrwt beam="1">  1        1 0.38463595E+00 0.65045967E+03</pdfrwt>
<pdfrwt beam="2">0</pdfrwt>
<totfact> 0.15652565E+00</totfact>
</mgrwt>
</event>
<event>
 6    1  0.1619033E-002  0.5775676E+03  0.7818608E-02  0.9953071E-01
          1   -1    0    0  502    0  0.00000000000E+00  0.00000000000E+00  0.83396097970E+02  0.83396097970E+02  0.00000000000E+00 0.  1.
         13   -1    0    0    0    0 -0.00000000000E+00 -0.00000000000E+00 -0.10000000000E+04  0.10000000000E+04  0.00000000000E+00 0.  1.
    9000005    2    1    2  501    0 -0.71885699526E-05 -0.44050942165E-05 -0.91660389772E+03  0.10833960885E+04  0.57756764042E+03 0.  0.
         13    1    3    3    0    0  0.18380920452E+03 -0.21743333298E+03 -0.54890510160E+03  0.61835256005E+03  0.00000000000E+00 0.  1.
          1    1    3    3  501    0 -0.18380921171E+03  0.21743332858E+03 -0.36769879613E+03  0.46504352846E+03  0.00000000000E+00 0.  1.
         21    1    1    2  502  501  0.71885699648E-05  0.44050942086E-05 -0.43066861580E-05  0.94672033246E-05  0.00000000000E+00 0. -1.
<mgrwt>
<rscale>  1 0.57756764E+03</rscale>
<asrwt>0</asrwt>
<pdfrwt beam="1">  1        1 0.30325918E+00 0.57756764E+03</pdfrwt>
<pdfrwt beam="2">0</pdfrwt>
<totfact> 0.35865188E+00</totfact>
</mgrwt>
</event>
<event>
 6    1  0.1619033E-002  0.6482272E+03  0.7818608E-02  0.9810111E-01
          1   -1    0    0  502    0  0.00000000000E+00  0.00000000000E+00  0.10504962703E+03  0.10504962703E+03  0.00000000000E+00 0.  1.
         13   -1    0    0    0    0 -0.00000000000E+00 -0.00000000000E+00 -0.10000000000E+04  0.10000000000E+04  0.00000000000E+00 0.  1.
    9000005    2    1    2  501    0  0.67171361486E-05 -0.21295448676E-05 -0.89495037579E+03  0.11050496194E+04  0.64822718726E+03 0.  0.
         13    1    3    3    0    0  0.17283776698E+02  0.20093333802E+03 -0.14942587408E+02  0.20222812906E+03  0.00000000000E+00 0.  1.
          3    1    3    3  501    0 -0.17283769981E+02 -0.20093334014E+03 -0.88000778838E+03  0.90282149038E+03  0.00000000000E+00 0.  1.
         21    1    1    2  502  501 -0.67171361491E-05  0.21295448467E-05  0.28196473307E-05  0.75898149100E-05  0.00000000000E+00 0.  1.
<mgrwt>
<rscale>  1 0.64822719E+03</rscale>
<asrwt>0</asrwt>
<pdfrwt beam="1">  1        1 0.38199945E+00 0.64822719E+03</pdfrwt>
<pdfrwt beam="2">0</pdfrwt>
<totfact> 0.16084822E+00</totfact>
</mgrwt>
</event>
<event>
 6    1  0.1619033E-002  0.6524508E+03  0.7818608E-02  0.9802191E-01
          1   -1    0    0  502    0  0.00000000000E+00  0.00000000000E+00  0.10642567314E+03  0.10642567314E+03  0.00000000000E+00 0.  1.
         13   -1    0    0    0    0 -0.00000000000E+00 -0.00000000000E+00 -0.10000000000E+04  0.10000000000E+04  0.00000000000E+00 0.  1.
    9000005    2    1    2  501    0  0.65595287759E-02 -0.39414892940E-02 -0.89356809563E+03  0.11064158045E+04  0.65245075735E+03 0.  0.
         13    1    3    3    0    0  0.33127012218E+02  0.12276865484E+03  0.62666915328E+02  0.14176277306E+03  0.00000000000E+00 0.  1.
          1    1    3    3  501    0 -0.33120452690E+02 -0.12277259633E+03 -0.95623501096E+03  0.96465303139E+03  0.00000000000E+00 0.  1.
         21    1    1    2  502  501 -0.65595287759E-02  0.39414892940E-02 -0.62312265959E-02  0.98686848417E-02  0.00000000000E+00 0. -1.
<mgrwt>
<rscale>  1 0.65245076E+03</rscale>
<asrwt>0</asrwt>
<pdfrwt beam="1">  1        1 0.38700326E+00 0.65245076E+03</pdfrwt>
<pdfrwt beam="2">0</pdfrwt>
<totfact> 0.15273906E+00</totfact>
</mgrwt>
</event>
<event>
 6    1  0.1619033E-002  0.6490015E+03  0.7818608E-02  0.9808655E-01
          1   -1    0    0  502    0  0.00000000000E+00  0.00000000000E+00  0.10530081073E+03  0.10530081073E+03  0.00000000000E+00 0.  1.
         13   -1    0    0    0    0 -0.00000000000E+00 -0.00000000000E+00 -0.10000000000E+04  0.10000000000E+04  0.00000000000E+00 0.  1.
    9000005    2    1    2  501    0 -0.57480398681E-04 -0.16689322585E-04 -0.89469925189E+03  0.11053007241E+04  0.64900149412E+03 0.  0.
         13    1    3    3    0    0  0.25095064897E+03  0.17296253955E+02 -0.98217051567E+02  0.27004069664E+03  0.00000000000E+00 0.  1.
          1    1    3    3  501    0 -0.25095070645E+03 -0.17296270645E+02 -0.79648220033E+03  0.83526002747E+03  0.00000000000E+00 0.  1.
         21    1    1    2  502  501  0.57480398680E-04  0.16689322585E-04  0.62618906558E-04  0.86623652540E-04  0.00000000000E+00 0. -1.
<mgrwt>
<rscale>  1 0.64900149E+03</rscale>
<asrwt>0</asrwt>
<pdfrwt beam="1">  1        1 0.38291285E+00 0.64900149E+03</pdfrwt>
<pdfrwt beam="2">0</pdfrwt>
<totfact> 0.15933798E+00</totfact>
</mgrwt>
</event>
<event>
 6    1  0.1619033E-002  0.6518536E+03  0.7818608E-02  0.9803307E-01
          1   -1    0    0  502    0  0.00000000000E+00  0.00000000000E+00  0.11315012088E+03  0.11315012088E+03  0.00000000000E+00 0.  1.
         13   -1    0    0    0    0 -0.00000000000E+00 -0.00000000000E+00 -0.10000000000E+04  0.10000000000E+04  0.00000000000E+00 0.  1.
    9000005    2    1    2  501    0 -0.11470145544E+01 -0.66478904871E-02 -0.89371911467E+03  0.11061857771E+04  0.65185259218E+03 0.  0.
         13    1    3    3    0    0 -0.27714687117E+03 -0.13156643452E+02 -0.15575237116E+03  0.31818593085E+03  0.00000000000E+00 0.  1.
          1    1    3    3  501    0  0.27599985662E+03  0.13149995561E+02 -0.73796674351E+03  0.78799984630E+03  0.00000000000E+00 0.  1.
         21    1    1    2  502  501  0.11470145544E+01  0.66478904871E-02  0.68692355512E+01  0.69643437336E+01  0.00000000000E+00 0.  1.
<mgrwt>
<rscale>  1 0.65185360E+03</rscale>
<asrwt>0</asrwt>
<pdfrwt beam="1">  1        1 0.41145585E+00 0.65185360E+03</pdfrwt>
<pdfrwt beam="2">0</pdfrwt>
<totfact> 0.11885909E+00</totfact>
</mgrwt>
</event>
<event>
 6    1  0.1619033E-002  0.6446825E+03  0.7818608E-02  0.9816809E-01
          1   -1    0    0  502    0  0.00000000000E+00  0.00000000000E+00  0.10390779539E+03  0.10390779539E+03  0.00000000000E+00 0.  1.
         13   -1    0    0    0    0 -0.00000000000E+00 -0.00000000000E+00 -0.10000000000E+04  0.10000000000E+04  0.00000000000E+00 0.  1.
    9000005    2    1    2  501    0 -0.99904449635E-02 -0.64002419091E-02 -0.89608005089E+03  0.11038908105E+04  0.64468245196E+03 0.  0.
         13    1    3    3    0    0 -0.16123396705E+03 -0.74815240194E+01 -0.92581306598E+03  0.93977773887E+03  0.00000000000E+00 0.  1.
          3    1    3    3  501    0  0.16122397660E+03  0.74751237775E+01  0.29733015099E+02  0.16411307167E+03  0.00000000000E+00 0.  1.
         21    1    1    2  502  501  0.99904449635E-02  0.64002419091E-02 -0.12153722812E-01  0.16984848108E-01  0.00000000000E+00 0. -1.
<mgrwt>
<rscale>  1 0.64468245E+03</rscale>
<asrwt>0</asrwt>
<pdfrwt beam="1">  1        1 0.37784733E+00 0.64468245E+03</pdfrwt>
<pdfrwt beam="2">0</pdfrwt>
<totfact> 0.16788766E+00</totfact>
</mgrwt>
</event>
<event>
 6    1  0.1619033E-002  0.6633164E+03  0.7818608E-02  0.9782108E-01
          1   -1    0    0  502    0  0.00000000000E+00  0.00000000000E+00  0.11410665623E+03  0.11410665623E+03  0.00000000000E+00 0.  1.
         13   -1    0    0    0    0 -0.00000000000E+00 -0.00000000000E+00 -0.10000000000E+04  0.10000000000E+04  0.00000000000E+00 0.  1.
    9000005    2    1    2  501    0  0.55892684132E+00 -0.27193788269E+01 -0.88947565647E+03  0.11095745061E+04  0.66331058619E+03 0.  0.
         13    1    3    3    0    0  0.22079740759E+03  0.22973301509E+03 -0.59299471671E+03  0.67318013003E+03  0.00000000000E+00 0.  1.
          1    1    3    3  501    0 -0.22023848075E+03 -0.23245239392E+03 -0.29648093976E+03  0.43639437609E+03  0.00000000000E+00 0.  1.
         21    1    1    2  502  501 -0.55892684132E+00  0.27193788269E+01  0.35823127020E+01  0.45321501203E+01  0.00000000000E+00 0. -1.
<mgrwt>
<rscale>  1 0.66331640E+03</rscale>
<asrwt>0</asrwt>
<pdfrwt beam="1">  1        1 0.41493417E+00 0.66331640E+03</pdfrwt>
<pdfrwt beam="2">0</pdfrwt>
<totfact> 0.11440493E+00</totfact>
</mgrwt>
</event>
<event>
 6    1  0.1619033E-002  0.5645727E+03  0.7818608E-02  0.9981761E-01
          1   -1    0    0  502    0  0.00000000000E+00  0.00000000000E+00  0.79685921215E+02  0.79685921215E+02  0.00000000000E+00 0.  1.
         13   -1    0    0    0    0 -0.00000000000E+00 -0.00000000000E+00 -0.10000000000E+04  0.10000000000E+04  0.00000000000E+00 0.  1.
    9000005    2    1    2  501    0 -0.14326323965E-03  0.45152070868E-03 -0.92031421917E+03  0.10796854271E+04  0.56457272303E+03 0.  0.
         13    1    3    3    0    0  0.96919276750E+02 -0.23557325734E+03 -0.22752472483E+03  0.34154883427E+03  0.00000000000E+00 0.  1.
          1    1    3    3  501    0 -0.96919420013E+02  0.23557370886E+03 -0.69278949433E+03  0.73813659288E+03  0.00000000000E+00 0.  1.
         21    1    1    2  502  501  0.14326323964E-03 -0.45152070869E-03  0.14038424004E-03  0.49406785067E-03  0.00000000000E+00 0. -1.
<mgrwt>
<rscale>  1 0.56457272E+03</rscale>
<asrwt>0</asrwt>
<pdfrwt beam="1">  1        1 0.28976760E+00 0.56457272E+03</pdfrwt>
<pdfrwt beam="2">0</pdfrwt>
<totfact> 0.41101835E+00</totfact>
</mgrwt>
</event>
