<event>
 6    1  0.6001850E-003  0.6524841E+03  0.7818608E-02  0.9802129E-01
          1   -1    0    0  502    0  0.00000000000E+00  0.00000000000E+00  0.10643392210E+03  0.10643392210E+03  0.00000000000E+00 0.  1.
         13   -1    0    0    0    0 -0.00000000000E+00 -0.00000000000E+00 -0.10000000000E+04  0.10000000000E+04  0.00000000000E+00 0.  1.
    9000005    2    1    2  501    0 -0.14640687908E-04  0.13604247897E-05 -0.89356612420E+03  0.11064338735E+04  0.65248409802E+03 0.  0.
         13    1    3    3    0    0 -0.11020437005E+03  0.30346881354E+03 -0.52623920481E+03  0.61738644676E+03  0.00000000000E+00 0.  1.
          3    1    3    3  501    0  0.11020435541E+03 -0.30346881218E+03 -0.36732691939E+03  0.48904742676E+03  0.00000000000E+00 0.  1.
         21    1    1    2  502  501  0.14640687912E-04 -0.13604247841E-05  0.46294797311E-04  0.48573745544E-04  0.00000000000E+00 0.  1.
<mgrwt>
<rscale>  1 0.65248410E+03</rscale>
<asrwt>0</asrwt>
<pdfrwt beam="1">  1        1 0.38703326E+00 0.65248410E+03</pdfrwt>
<pdfrwt beam="2">0</pdfrwt>
<totfact> 0.15269141E+00</totfact>
</mgrwt>
</event>
<event>
 6    1  0.6001850E-003  0.6220891E+03  0.7818608E-02  0.9860609E-01
          1   -1    0    0  502    0  0.00000000000E+00  0.00000000000E+00  0.96804886793E+02  0.96804886793E+02  0.00000000000E+00 0.  1.
         13   -1    0    0    0    0 -0.00000000000E+00 -0.00000000000E+00 -0.10000000000E+04  0.10000000000E+04  0.00000000000E+00 0.  1.
    9000005    2    1    2  501    0 -0.11924847365E-01  0.40333926409E-01 -0.90324252046E+03  0.10967415111E+04  0.62208913323E+03 0.  0.
         13    1    3    3    0    0 -0.15848104901E+02 -0.30124357213E+03 -0.31804807773E+03  0.43835309047E+03  0.00000000000E+00 0.  1.
          3    1    3    3  501    0  0.15836180053E+02  0.30128390605E+03 -0.58519444273E+03  0.65838842065E+03  0.00000000000E+00 0.  1.
         21    1    1    2  502  501  0.11924847365E-01 -0.40333926409E-01  0.47407255507E-01  0.63375669456E-01  0.00000000000E+00 0. -1.
<mgrwt>
<rscale>  1 0.62208913E+03</rscale>
<asrwt>0</asrwt>
<pdfrwt beam="1">  1        1 0.35201851E+00 0.62208913E+03</pdfrwt>
<pdfrwt beam="2">0</pdfrwt>
<totfact> 0.21877698E+00</totfact>
</mgrwt>
</event>
<event>
 6    1  0.6001850E-003  0.6538309E+03  0.7818608E-02  0.9799617E-01
          1   -1    0    0  502    0  0.00000000000E+00  0.00000000000E+00  0.10687374168E+03  0.10687374168E+03  0.00000000000E+00 0.  1.
         13   -1    0    0    0    0 -0.00000000000E+00 -0.00000000000E+00 -0.10000000000E+04  0.10000000000E+04  0.00000000000E+00 0.  1.
    9000005    2    1    2  501    0 -0.34369413470E-04  0.22454439772E-04 -0.89312629106E+03  0.11068736892E+04  0.65383085885E+03 0.  0.
         13    1    3    3    0    0 -0.74195987796E+02 -0.26164199998E+03 -0.13944141326E+03  0.30562311511E+03  0.00000000000E+00 0.  1.
          1    1    3    3  501    0  0.74195953427E+02  0.26164202243E+03 -0.75368487780E+03  0.80125057406E+03  0.00000000000E+00 0.  1.
         21    1    1    2  502  501  0.34369413468E-04 -0.22454439750E-04  0.32744615317E-04  0.52513505681E-04  0.00000000000E+00 0.  1.
<mgrwt>
<rscale>  1 0.65383086E+03</rscale>
<asrwt>0</asrwt>
<pdfrwt beam="1">  1        1 0.38863261E+00 0.65383086E+03</pdfrwt>
<pdfrwt beam="2">0</pdfrwt>
<totfact> 0.15018331E+00</totfact>
</mgrwt>
</event>
<event>
 6    1  0.6001850E-003  0.6507742E+03  0.7818608E-02  0.9805327E-01
          1   -1    0    0  502    0  0.00000000000E+00  0.00000000000E+00  0.14230563406E+03  0.14230563406E+03  0.00000000000E+00 0.  1.
         13   -1    0    0    0    0 -0.00000000000E+00 -0.00000000000E+00 -0.10000000000E+04  0.10000000000E+04  0.00000000000E+00 0.  1.
    9000005    2    1    2  501    0 -0.81290028241E+00 -0.13468446201E+01 -0.89410444269E+03  0.11058615881E+04  0.65077232791E+03 0.  0.
         13    1    3    3    0    0  0.29560744869E+03 -0.10480699847E+03 -0.30058039620E+03  0.43441552139E+03  0.00000000000E+00 0.  1.
          1    1    3    3  501    0 -0.29642034897E+03  0.10346015385E+03 -0.59352404650E+03  0.67144606670E+03  0.00000000000E+00 0.  1.
         21    1    1    2  502  501  0.81290028241E+00  0.13468446201E+01  0.36410076756E+02  0.36444045971E+02  0.00000000000E+00 0.  1.
<mgrwt>
<rscale>  1 0.65077423E+03</rscale>
<asrwt>0</asrwt>
<pdfrwt beam="1">  1        1 0.51747612E+00 0.65077423E+03</pdfrwt>
<pdfrwt beam="2">0</pdfrwt>
<totfact> 0.38029204E-01</totfact>
</mgrwt>
</event>
<event>
 6    1  0.6001850E-003  0.6435182E+03  0.7818608E-02  0.9819018E-01
          1   -1    0    0  502    0  0.00000000000E+00  0.00000000000E+00  0.10572962859E+03  0.10572962859E+03  0.00000000000E+00 0.  1.
         13   -1    0    0    0    0 -0.00000000000E+00 -0.00000000000E+00 -0.10000000000E+04  0.10000000000E+04  0.00000000000E+00 0.  1.
    9000005    2    1    2  501    0 -0.55314537808E-01 -0.49442614535E-01 -0.89647040338E+03  0.11035283460E+04  0.64351815889E+03 0.  0.
         13    1    3    3    0    0 -0.73997788846E+02 -0.52468987564E+02 -0.97765085880E+03  0.98185022744E+03  0.00000000000E+00 0.  1.
          3    1    3    3  501    0  0.73942474308E+02  0.52419544949E+02  0.81180455418E+02  0.12167811858E+03  0.00000000000E+00 0.  1.
         21    1    1    2  502  501  0.55314537808E-01  0.49442614535E-01  0.22000319718E+01  0.22012825687E+01  0.00000000000E+00 0. -1.
<mgrwt>
<rscale>  1 0.64351816E+03</rscale>
<asrwt>0</asrwt>
<pdfrwt beam="1">  1        1 0.38447219E+00 0.64351816E+03</pdfrwt>
<pdfrwt beam="2">0</pdfrwt>
<totfact> 0.15698869E+00</totfact>
</mgrwt>
</event>
<event>
 6    1  0.6001850E-003  0.6512356E+03  0.7818608E-02  0.9804463E-01
          1   -1    0    0  502    0  0.00000000000E+00  0.00000000000E+00  0.10602873967E+03  0.10602873967E+03  0.00000000000E+00 0.  1.
         13   -1    0    0    0    0 -0.00000000000E+00 -0.00000000000E+00 -0.10000000000E+04  0.10000000000E+04  0.00000000000E+00 0.  1.
    9000005    2    1    2  501    0 -0.99028728094E-04 -0.41022071356E-04 -0.89397304180E+03  0.11060269550E+04  0.65123561456E+03 0.  0.
         13    1    3    3    0    0  0.31047060531E+02  0.11063597262E+02 -0.99715967542E+03  0.99770423545E+03  0.00000000000E+00 0.  1.
          3    1    3    3  501    0 -0.31047159559E+02 -0.11063638284E+02  0.10318663362E+03  0.10832271953E+03  0.00000000000E+00 0.  1.
         21    1    1    2  502  501  0.99028728094E-04  0.41022071354E-04  0.17814682905E-02  0.17846901046E-02  0.00000000000E+00 0.  1.
<mgrwt>
<rscale>  1 0.65123561E+03</rscale>
<asrwt>0</asrwt>
<pdfrwt beam="1">  1        1 0.38555987E+00 0.65123561E+03</pdfrwt>
<pdfrwt beam="2">0</pdfrwt>
<totfact> 0.15503736E+00</totfact>
</mgrwt>
</event>
<event>
 6    1  0.6001850E-003  0.6473068E+03  0.7818608E-02  0.9811846E-01
          1   -1    0    0  502    0  0.00000000000E+00  0.00000000000E+00  0.10475161397E+03  0.10475161397E+03  0.00000000000E+00 0.  1.
         13   -1    0    0    0    0 -0.00000000000E+00 -0.00000000000E+00 -0.10000000000E+04  0.10000000000E+04  0.00000000000E+00 0.  1.
    9000005    2    1    2  501    0 -0.65243457215E-05  0.30356152308E-04 -0.89524846898E+03  0.11047515254E+04  0.64730681417E+03 0.  0.
         13    1    3    3    0    0  0.62185998113E+02  0.30549348531E+03 -0.59599993474E+03  0.67261377487E+03  0.00000000000E+00 0.  1.
          3    1    3    3  501    0 -0.62186004638E+02 -0.30549345496E+03 -0.29924853423E+03  0.43213775053E+03  0.00000000000E+00 0.  1.
         21    1    1    2  502  501  0.65243457168E-05 -0.30356152341E-04  0.82943026387E-04  0.88564150186E-04  0.00000000000E+00 0.  1.
<mgrwt>
<rscale>  1 0.64730681E+03</rscale>
<asrwt>0</asrwt>
<pdfrwt beam="1">  1        1 0.38091576E+00 0.64730681E+03</pdfrwt>
<pdfrwt beam="2">0</pdfrwt>
<totfact> 0.16265774E+00</totfact>
</mgrwt>
</event>
<event>
 6    1  0.6001850E-003  0.6558662E+03  0.7818608E-02  0.9795834E-01
          3   -1    0    0  502    0  0.00000000000E+00  0.00000000000E+00  0.10754026753E+03  0.10754026753E+03  0.00000000000E+00 0.  1.
         13   -1    0    0    0    0 -0.00000000000E+00 -0.00000000000E+00 -0.10000000000E+04  0.10000000000E+04  0.00000000000E+00 0.  1.
    9000005    2    1    2  501    0  0.13157469141E-04 -0.29750895081E-06 -0.89245989052E+03  0.11075401089E+04  0.65586617286E+03 0.  0.
         13    1    3    3    0    0 -0.17381244137E+03 -0.21713690928E+02  0.21923660517E+02  0.17653015618E+03  0.00000000000E+00 0.  1.
          3    1    3    3  501    0  0.17381245453E+03  0.21713690630E+02 -0.91438355104E+03  0.93100995275E+03  0.00000000000E+00 0.  1.
         21    1    1    2  502  501 -0.13157469134E-04  0.29750895214E-06  0.15804934526E-03  0.15859635255E-03  0.00000000000E+00 0. -1.
<mgrwt>
<rscale>  1 0.65586617E+03</rscale>
<asrwt>0</asrwt>
<pdfrwt beam="1">  1        3 0.39105634E+00 0.65586617E+03</pdfrwt>
<pdfrwt beam="2">0</pdfrwt>
<totfact> 0.65936185E-02</totfact>
</mgrwt>
</event>
<event>
 6    1  0.6001850E-003  0.6528357E+03  0.7818608E-02  0.9801473E-01
          3   -1    0    0  502    0  0.00000000000E+00  0.00000000000E+00  0.10654861019E+03  0.10654861019E+03  0.00000000000E+00 0.  1.
         13   -1    0    0    0    0 -0.00000000000E+00 -0.00000000000E+00 -0.10000000000E+04  0.10000000000E+04  0.00000000000E+00 0.  1.
    9000005    2    1    2  501    0 -0.26003247513E-04 -0.16845186792E-05 -0.89345137986E+03  0.11065485823E+04  0.65283565835E+03 0.  0.
         13    1    3    3    0    0  0.26919226521E+03 -0.16345801751E+03 -0.30125666459E+03  0.43581943176E+03  0.00000000000E+00 0.  1.
          3    1    3    3  501    0 -0.26919229121E+03  0.16345801583E+03 -0.59219471528E+03  0.67072915055E+03  0.00000000000E+00 0.  1.
         21    1    1    2  502  501  0.26003247493E-04  0.16845186740E-05 -0.99444125596E-05  0.27890819717E-04  0.00000000000E+00 0.  1.
<mgrwt>
<rscale>  1 0.65283566E+03</rscale>
<asrwt>0</asrwt>
<pdfrwt beam="1">  1        3 0.38745031E+00 0.65283566E+03</pdfrwt>
<pdfrwt beam="2">0</pdfrwt>
<totfact> 0.68916494E-02</totfact>
</mgrwt>
</event>
<event>
 6    1  0.6001850E-003  0.6491541E+03  0.7818608E-02  0.9808368E-01
          1   -1    0    0  502    0  0.00000000000E+00  0.00000000000E+00  0.10535027175E+03  0.10535027175E+03  0.00000000000E+00 0.  1.
         13   -1    0    0    0    0 -0.00000000000E+00 -0.00000000000E+00 -0.10000000000E+04  0.10000000000E+04  0.00000000000E+00 0.  1.
    9000005    2    1    2  501    0  0.77258891906E-06  0.49409621568E-05 -0.89464973174E+03  0.11053502657E+04  0.64915411673E+03 0.  0.
         13    1    3    3    0    0 -0.18071105121E+03 -0.20334790623E+03 -0.74878176486E+03  0.79666868044E+03  0.00000000000E+00 0.  1.
          1    1    3    3  501    0  0.18071105199E+03  0.20334791117E+03 -0.14586796688E+03  0.30868158521E+03  0.00000000000E+00 0.  1.
         21    1    1    2  502  501 -0.77258893394E-06 -0.49409621573E-05  0.34951670855E-05  0.61013272044E-05  0.00000000000E+00 0.  1.
<mgrwt>
<rscale>  1 0.64915412E+03</rscale>
<asrwt>0</asrwt>
<pdfrwt beam="1">  1        1 0.38309271E+00 0.64915412E+03</pdfrwt>
<pdfrwt beam="2">0</pdfrwt>
<totfact> 0.15904219E+00</totfact>
</mgrwt>
</event>
<event>
 6    1  0.6001850E-003  0.6464591E+03  0.7818608E-02  0.9813446E-01
          1   -1    0    0  502    0  0.00000000000E+00  0.00000000000E+00  0.10460242234E+03  0.10460242234E+03  0.00000000000E+00 0.  1.
         13   -1    0    0    0    0 -0.00000000000E+00 -0.00000000000E+00 -0.10000000000E+04  0.10000000000E+04  0.00000000000E+00 0.  1.
    9000005    2    1    2  501    0  0.17385361131E-02  0.40246953546E-02 -0.89552260312E+03  0.11044773200E+04  0.64645913849E+03 0.  0.
         13    1    3    3    0    0 -0.44528814303E+02 -0.28108437254E+03 -0.70958312282E+03  0.76452563592E+03  0.00000000000E+00 0.  1.
          1    1    3    3  501    0  0.44530552839E+02  0.28108839723E+03 -0.18593948030E+03  0.33995168411E+03  0.00000000000E+00 0.  1.
         21    1    1    2  502  501 -0.17385361131E-02 -0.40246953546E-02  0.12502546129E+00  0.12510230474E+00  0.00000000000E+00 0.  1.
<mgrwt>
<rscale>  1 0.64645914E+03</rscale>
<asrwt>0</asrwt>
<pdfrwt beam="1">  1        1 0.38037325E+00 0.64645914E+03</pdfrwt>
<pdfrwt beam="2">0</pdfrwt>
<totfact> 0.16358253E+00</totfact>
</mgrwt>
</event>
<event>
 6    1  0.6001850E-003  0.6461251E+03  0.7818608E-02  0.9814077E-01
          1   -1    0    0  502    0  0.00000000000E+00  0.00000000000E+00  0.10437133674E+03  0.10437133674E+03  0.00000000000E+00 0.  1.
         13   -1    0    0    0    0 -0.00000000000E+00 -0.00000000000E+00 -0.10000000000E+04  0.10000000000E+04  0.00000000000E+00 0.  1.
    9000005    2    1    2  501    0  0.44175150514E-04  0.10375295153E-03 -0.89563057724E+03  0.11043694194E+04  0.64612513006E+03 0.  0.
         13    1    3    3    0    0  0.18872105660E+02  0.30165850981E+03 -0.64281201606E+03  0.71032478551E+03  0.00000000000E+00 0.  1.
          1    1    3    3  501    0 -0.18872061485E+02 -0.30165840606E+03 -0.25281856118E+03  0.39404463393E+03  0.00000000000E+00 0.  1.
         21    1    1    2  502  501 -0.44175150513E-04 -0.10375295150E-03  0.19139840055E-02  0.19173030257E-02  0.00000000000E+00 0.  1.
<mgrwt>
<rscale>  1 0.64612513E+03</rscale>
<asrwt>0</asrwt>
<pdfrwt beam="1">  1        1 0.37953293E+00 0.64612513E+03</pdfrwt>
<pdfrwt beam="2">0</pdfrwt>
<totfact> 0.16499514E+00</totfact>
</mgrwt>
</event>
<event>
 6    1  0.6001850E-003  0.6463548E+03  0.7818608E-02  0.9813643E-01
          1   -1    0    0  502    0  0.00000000000E+00  0.00000000000E+00  0.11199668409E+03  0.11199668409E+03  0.00000000000E+00 0.  1.
         13   -1    0    0    0    0 -0.00000000000E+00 -0.00000000000E+00 -0.10000000000E+04  0.10000000000E+04  0.00000000000E+00 0.  1.
    9000005    2    1    2  501    0  0.29284733735E+01  0.36774502560E+01 -0.89474007584E+03  0.11037818481E+04  0.64633773307E+03 0.  0.
         13    1    3    3    0    0 -0.24529084774E+03 -0.16077029784E+03 -0.66793459155E+03  0.72948701650E+03  0.00000000000E+00 0.  1.
          1    1    3    3  501    0  0.24821932111E+03  0.16444774810E+03 -0.22680548429E+03  0.37429483156E+03  0.00000000000E+00 0.  1.
         21    1    1    2  502  501 -0.29284733735E+01 -0.36774502560E+01  0.67367599319E+01  0.82148360339E+01  0.00000000000E+00 0.  1.
<mgrwt>
<rscale>  1 0.64635483E+03</rscale>
<asrwt>0</asrwt>
<pdfrwt beam="1">  1        1 0.40726153E+00 0.64635483E+03</pdfrwt>
<pdfrwt beam="2">0</pdfrwt>
<totfact> 0.12424798E+00</totfact>
</mgrwt>
</event>
<event>
 6    1  0.6001850E-003  0.6435023E+03  0.7818608E-02  0.9819049E-01
          1   -1    0    0  502    0  0.00000000000E+00  0.00000000000E+00  0.10353212663E+03  0.10353212663E+03  0.00000000000E+00 0.  1.
         13   -1    0    0    0    0 -0.00000000000E+00 -0.00000000000E+00 -0.10000000000E+04  0.10000000000E+04  0.00000000000E+00 0.  1.
    9000005    2    1    2  501    0 -0.11355902396E-03  0.78484552745E-04 -0.89647618942E+03  0.11035238094E+04  0.64350232305E+03 0.  0.
         13    1    3    3    0    0  0.75602719699E+02  0.24075157677E+03 -0.10592155035E+03  0.27367219036E+03  0.00000000000E+00 0.  1.
          1    1    3    3  501    0 -0.75602833258E+02 -0.24075149829E+03 -0.79055463907E+03  0.82985161908E+03  0.00000000000E+00 0.  1.
         21    1    1    2  502  501  0.11355902395E-03 -0.78484552747E-04  0.83160520352E-02  0.83171976608E-02  0.00000000000E+00 0.  1.
<mgrwt>
<rscale>  1 0.64350232E+03</rscale>
<asrwt>0</asrwt>
<pdfrwt beam="1">  1        1 0.37648125E+00 0.64350232E+03</pdfrwt>
<pdfrwt beam="2">0</pdfrwt>
<totfact> 0.17026758E+00</totfact>
</mgrwt>
</event>
<event>
 6    1  0.6001850E-003  0.6303009E+03  0.7818608E-02  0.9844462E-01
          1   -1    0    0  502    0  0.00000000000E+00  0.00000000000E+00  0.99335342609E+02  0.99335342609E+02  0.00000000000E+00 0.  1.
         13   -1    0    0    0    0 -0.00000000000E+00 -0.00000000000E+00 -0.10000000000E+04  0.10000000000E+04  0.00000000000E+00 0.  1.
    9000005    2    1    2  501    0 -0.10757832082E-02  0.38806923782E-01 -0.90064724251E+03  0.10992927937E+04  0.63030087200E+03 0.  0.
         13    1    3    3    0    0 -0.24346881458E+03 -0.16765783417E+03 -0.64078414891E+03  0.70568444685E+03  0.00000000000E+00 0.  1.
          1    1    3    3  501    0  0.24346773879E+03  0.16769664109E+03 -0.25986309361E+03  0.39360834682E+03  0.00000000000E+00 0.  1.
         21    1    1    2  502  501  0.10757832082E-02 -0.38806923782E-01 -0.17414876375E-01  0.42548943137E-01  0.00000000000E+00 0. -1.
<mgrwt>
<rscale>  1 0.63030087E+03</rscale>
<asrwt>0</asrwt>
<pdfrwt beam="1">  1        1 0.36122019E+00 0.63030087E+03</pdfrwt>
<pdfrwt beam="2">0</pdfrwt>
<totfact> 0.19914452E+00</totfact>
</mgrwt>
</event>
<event>
 6    1  0.6001850E-003  0.6419897E+03  0.7818608E-02  0.9821927E-01
          1   -1    0    0  502    0  0.00000000000E+00  0.00000000000E+00  0.10303816622E+03  0.10303816622E+03  0.00000000000E+00 0.  1.
         13   -1    0    0    0    0 -0.00000000000E+00 -0.00000000000E+00 -0.10000000000E+04  0.10000000000E+04  0.00000000000E+00 0.  1.
    9000005    2    1    2  501    0 -0.74886252835E-03 -0.47513742682E-03 -0.89696178339E+03  0.11030372779E+04  0.64198971612E+03 0.  0.
         13    1    3    3    0    0 -0.23541673042E+03 -0.32388690547E+01 -0.73599303905E+02  0.24667465368E+03  0.00000000000E+00 0.  1.
          1    1    3    3  501    0  0.23541598155E+03  0.32383939172E+01 -0.82336247948E+03  0.85636262423E+03  0.00000000000E+00 0.  1.
         21    1    1    2  502  501  0.74886252836E-03  0.47513742682E-03 -0.50393664068E-04  0.88830748175E-03  0.00000000000E+00 0. -1.
<mgrwt>
<rscale>  1 0.64198972E+03</rscale>
<asrwt>0</asrwt>
<pdfrwt beam="1">  1        1 0.37468503E+00 0.64198972E+03</pdfrwt>
<pdfrwt beam="2">0</pdfrwt>
<totfact> 0.17344467E+00</totfact>
</mgrwt>
</event>
<event>
 6    1  0.6001850E-003  0.6515050E+03  0.7818608E-02  0.9803959E-01
          1   -1    0    0  502    0  0.00000000000E+00  0.00000000000E+00  0.10611853254E+03  0.10611853254E+03  0.00000000000E+00 0.  1.
         13   -1    0    0    0    0 -0.00000000000E+00 -0.00000000000E+00 -0.10000000000E+04  0.10000000000E+04  0.00000000000E+00 0.  1.
    9000005    2    1    2  501    0 -0.27798799665E-02 -0.11398485028E-01 -0.89386397468E+03  0.11060974695E+04  0.65150503201E+03 0.  0.
         13    1    3    3    0    0 -0.80538965870E+02  0.12071391538E+03  0.48208140149E+02  0.15291304446E+03  0.00000000000E+00 0.  1.
          3    1    3    3  501    0  0.80536185990E+02 -0.12072531386E+03 -0.94207211483E+03  0.95318442507E+03  0.00000000000E+00 0.  1.
         21    1    1    2  502  501  0.27798799665E-02  0.11398485028E-01 -0.17492774123E-01  0.21063008808E-01  0.00000000000E+00 0. -1.
<mgrwt>
<rscale>  1 0.65150503E+03</rscale>
<asrwt>0</asrwt>
<pdfrwt beam="1">  1        1 0.38588639E+00 0.65150503E+03</pdfrwt>
<pdfrwt beam="2">0</pdfrwt>
<totfact> 0.15451475E+00</totfact>
</mgrwt>
</event>
<event>
 6    1  0.6001850E-003  0.6481506E+03  0.7818608E-02  0.9810256E-01
          1   -1    0    0  502    0  0.00000000000E+00  0.00000000000E+00  0.10788144349E+03  0.10788144349E+03  0.00000000000E+00 0.  1.
         13   -1    0    0    0    0 -0.00000000000E+00 -0.00000000000E+00 -0.10000000000E+04  0.10000000000E+04  0.00000000000E+00 0.  1.
    9000005    2    1    2  501    0  0.91403121408E+00  0.21305504809E+01 -0.89444609246E+03  0.11045963070E+04  0.64814644513E+03 0.  0.
         13    1    3    3    0    0 -0.87200743488E+01 -0.28367982147E+03 -0.18266483756E+03  0.33751551622E+03  0.00000000000E+00 0.  1.
          1    1    3    3  501    0  0.96341055629E+01  0.28581037195E+03 -0.71178125490E+03  0.76708079075E+03  0.00000000000E+00 0.  1.
         21    1    1    2  502  501 -0.91403121408E+00 -0.21305504809E+01  0.23275359535E+01  0.32851365309E+01  0.00000000000E+00 0.  1.
<mgrwt>
<rscale>  1 0.64815059E+03</rscale>
<asrwt>0</asrwt>
<pdfrwt beam="1">  1        1 0.39229699E+00 0.64815059E+03</pdfrwt>
<pdfrwt beam="2">0</pdfrwt>
<totfact> 0.14482032E+00</totfact>
</mgrwt>
</event>
<event>
 6    1  0.6001850E-003  0.5174811E+03  0.7818608E-02  0.1009314E+00
          1   -1    0    0  502    0  0.00000000000E+00  0.00000000000E+00  0.69525568808E+02  0.69525568808E+02  0.00000000000E+00 0.  1.
         13   -1    0    0    0    0 -0.00000000000E+00 -0.00000000000E+00 -0.10000000000E+04  0.10000000000E+04  0.00000000000E+00 0.  1.
    9000005    2    1    2  501    0  0.28175978697E+01  0.26891441485E+01 -0.93141901488E+03  0.10655177524E+04  0.51746645211E+03 0.  0.
         13    1    3    3    0    0  0.17931267409E+03  0.11367809050E+03 -0.15843640651E+03  0.26491100064E+03  0.00000000000E+00 0.  1.
          1    1    3    3  501    0 -0.17649507622E+03 -0.11098894635E+03 -0.77298260836E+03  0.80060675177E+03  0.00000000000E+00 0.  1.
         21    1    1    2  502  501 -0.28175978697E+01 -0.26891441485E+01  0.94458368458E+00  0.40078164059E+01  0.00000000000E+00 0.  1.
<mgrwt>
<rscale>  1 0.51748111E+03</rscale>
<asrwt>0</asrwt>
<pdfrwt beam="1">  1        1 0.25282078E+00 0.51748111E+03</pdfrwt>
<pdfrwt beam="2">0</pdfrwt>
<totfact> 0.59862122E+00</totfact>
</mgrwt>
</event>
<event>
 6    1  0.6001850E-003  0.4746217E+03  0.7818608E-02  0.1020624E+00
          1   -1    0    0  502    0  0.00000000000E+00  0.00000000000E+00  0.56572882337E+02  0.56572882337E+02  0.00000000000E+00 0.  1.
         13   -1    0    0    0    0 -0.00000000000E+00 -0.00000000000E+00 -0.10000000000E+04  0.10000000000E+04  0.00000000000E+00 0.  1.
    9000005    2    1    2  501    0 -0.28678683205E-01  0.26905526722E-01 -0.94368197389E+03  0.10563150101E+04  0.47462167171E+03 0.  0.
         13    1    3    3    0    0  0.56280670842E+02 -0.57629623118E+02  0.24956399671E+02  0.84329764945E+02  0.00000000000E+00 0.  1.
          1    1    3    3  501    0 -0.56309349525E+02  0.57656528644E+02 -0.96863837356E+03  0.97198524519E+03  0.00000000000E+00 0.  1.
         21    1    1    2  502  501  0.28678683205E-01 -0.26905526722E-01  0.25485622719E+00  0.25787219853E+00  0.00000000000E+00 0. -1.
<mgrwt>
<rscale>  1 0.47462167E+03</rscale>
<asrwt>0</asrwt>
<pdfrwt beam="1">  1        1 0.20572001E+00 0.47462167E+03</pdfrwt>
<pdfrwt beam="2">0</pdfrwt>
<totfact> 0.97254992E+00</totfact>
</mgrwt>
</event>
<event>
 6    1  0.6001850E-003  0.6566123E+03  0.7818608E-02  0.9794450E-01
          1   -1    0    0  502    0  0.00000000000E+00  0.00000000000E+00  0.10778493239E+03  0.10778493239E+03  0.00000000000E+00 0.  1.
         13   -1    0    0    0    0 -0.00000000000E+00 -0.00000000000E+00 -0.10000000000E+04  0.10000000000E+04  0.00000000000E+00 0.  1.
    9000005    2    1    2  501    0 -0.49483452926E-05  0.11105830907E-04 -0.89221505640E+03  0.11077849159E+04  0.65661230031E+03 0.  0.
         13    1    3    3    0    0 -0.26262321375E+03 -0.19452323699E+03 -0.39343566974E+03  0.51147030056E+03  0.00000000000E+00 0.  1.
          1    1    3    3  501    0  0.26262320880E+03  0.19452324809E+03 -0.49877938667E+03  0.59631461529E+03  0.00000000000E+00 0.  1.
         21    1    1    2  502  501  0.49483453009E-05 -0.11105830917E-04 -0.11210683867E-04  0.16537987615E-04  0.00000000000E+00 0. -1.
<mgrwt>
<rscale>  1 0.65661230E+03</rscale>
<asrwt>0</asrwt>
<pdfrwt beam="1">  1        1 0.39194604E+00 0.65661230E+03</pdfrwt>
<pdfrwt beam="2">0</pdfrwt>
<totfact> 0.14511121E+00</totfact>
</mgrwt>
</event>
<event>
 6    1  0.6001850E-003  0.6629199E+03  0.7818608E-02  0.9782833E-01
          3   -1    0    0  502    0  0.00000000000E+00  0.00000000000E+00  0.11341368523E+03  0.11341368523E+03  0.00000000000E+00 0.  1.
         13   -1    0    0    0    0 -0.00000000000E+00 -0.00000000000E+00 -0.10000000000E+04  0.10000000000E+04  0.00000000000E+00 0.  1.
    9000005    2    1    2  501    0 -0.13572259388E+01  0.10220782627E+01 -0.88990711211E+03  0.11096834840E+04  0.66291770212E+03 0.  0.
         13    1    3    3    0    0  0.22353291439E+03  0.19706414778E+03 -0.20239320612E+03  0.36022805560E+03  0.00000000000E+00 0.  1.
          3    1    3    3  501    0 -0.22489014033E+03 -0.19604206952E+03 -0.68751390599E+03  0.74945542841E+03  0.00000000000E+00 0.  1.
         21    1    1    2  502  501  0.13572259388E+01 -0.10220782627E+01  0.33207973429E+01  0.37302012300E+01  0.00000000000E+00 0.  1.
<mgrwt>
<rscale>  1 0.66291988E+03</rscale>
<asrwt>0</asrwt>
<pdfrwt beam="1">  1        3 0.41241427E+00 0.66291988E+03</pdfrwt>
<pdfrwt beam="2">0</pdfrwt>
<totfact> 0.50910449E-02</totfact>
</mgrwt>
</event>
<event>
 6    1  0.6001850E-003  0.6482447E+03  0.7818608E-02  0.9810078E-01
          1   -1    0    0  502    0  0.00000000000E+00  0.00000000000E+00  0.10507026704E+03  0.10507026704E+03  0.00000000000E+00 0.  1.
         13   -1    0    0    0    0 -0.00000000000E+00 -0.00000000000E+00 -0.10000000000E+04  0.10000000000E+04  0.00000000000E+00 0.  1.
    9000005    2    1    2  501    0  0.73625316876E-02 -0.72181792228E-03 -0.89494367517E+03  0.11050544837E+04  0.64824473020E+03 0.  0.
         13    1    3    3    0    0  0.23571318264E+03  0.17452527903E+03 -0.68267971976E+03  0.74301505857E+03  0.00000000000E+00 0.  1.
          1    1    3    3  501    0 -0.23570582011E+03 -0.17452600085E+03 -0.21226395541E+03  0.36203942516E+03  0.00000000000E+00 0.  1.
         21    1    1    2  502  501 -0.73625316875E-02  0.72181792228E-03  0.13942205193E-01  0.15783313328E-01  0.00000000000E+00 0. -1.
<mgrwt>
<rscale>  1 0.64824473E+03</rscale>
<asrwt>0</asrwt>
<pdfrwt beam="1">  1        1 0.38207450E+00 0.64824473E+03</pdfrwt>
<pdfrwt beam="2">0</pdfrwt>
<totfact> 0.16072498E+00</totfact>
</mgrwt>
</event>
<event>
 6    1  0.6001850E-003  0.6531845E+03  0.7818608E-02  0.9800822E-01
          1   -1    0    0  502    0  0.00000000000E+00  0.00000000000E+00  0.10674721404E+03  0.10674721404E+03  0.00000000000E+00 0.  1.
         13   -1    0    0    0    0 -0.00000000000E+00 -0.00000000000E+00 -0.10000000000E+04  0.10000000000E+04  0.00000000000E+00 0.  1.
    9000005    2    1    2  501    0  0.15256734169E+00 -0.83081707580E-01 -0.89322440712E+03  0.11065711893E+04  0.65318444964E+03 0.  0.
         13    1    3    3    0    0  0.80801636082E+02 -0.11216287266E+03  0.54683082046E+02  0.14865952327E+03  0.00000000000E+00 0.  1.
          1    1    3    3  501    0 -0.80649068740E+02  0.11207979095E+03 -0.94790748916E+03  0.95791166599E+03  0.00000000000E+00 0.  1.
         21    1    1    2  502  501 -0.15256734169E+00  0.83081707580E-01 -0.28378843192E-01  0.17602477844E+00  0.00000000000E+00 0. -1.
<mgrwt>
<rscale>  1 0.65318447E+03</rscale>
<asrwt>0</asrwt>
<pdfrwt beam="1">  1        1 0.38817251E+00 0.65318447E+03</pdfrwt>
<pdfrwt beam="2">0</pdfrwt>
<totfact> 0.15090804E+00</totfact>
</mgrwt>
</event>
<event>
 6    1  0.7245756E-003  0.6589355E+03  0.7818608E-02  0.9790155E-01
          1   -1    0    0  502    0  0.00000000000E+00  0.00000000000E+00  0.10854901666E+03  0.10854901666E+03  0.00000000000E+00 0.  1.
         13   -1    0    0    0    0 -0.00000000000E+00 -0.00000000000E+00 -0.10000000000E+04  0.10000000000E+04  0.00000000000E+00 0.  1.
    9000005    2    1    2  501    0  0.10992980606E-05  0.57899098351E-05 -0.89145098034E+03  0.11085490100E+04  0.65893554868E+03 0.  0.
         13    1    3    3    0    0  0.30229715857E+03 -0.11946099653E+03 -0.53623613293E+03  0.62705956020E+03  0.00000000000E+00 0.  1.
          3    1    3    3  501    0 -0.30229715747E+03  0.11946100232E+03 -0.35521484741E+03  0.48148944984E+03  0.00000000000E+00 0.  1.
         21    1    1    2  502  501 -0.10992980392E-05 -0.57899098407E-05 -0.30022785602E-05  0.66140145672E-05  0.00000000000E+00 0.  1.
<mgrwt>
<rscale>  1 0.65893555E+03</rscale>
<asrwt>0</asrwt>
<pdfrwt beam="1">  1        1 0.39472453E+00 0.65893555E+03</pdfrwt>
<pdfrwt beam="2">0</pdfrwt>
<totfact> 0.14098378E+00</totfact>
</mgrwt>
</event>
<event>
 6    1  0.6001850E-003  0.6567898E+03  0.7818608E-02  0.9794121E-01
          1   -1    0    0  502    0  0.00000000000E+00  0.00000000000E+00  0.11237898947E+03  0.11237898947E+03  0.00000000000E+00 0.  1.
         13   -1    0    0    0    0 -0.00000000000E+00 -0.00000000000E+00 -0.10000000000E+04  0.10000000000E+04  0.00000000000E+00 0.  1.
    9000005    2    1    2  501    0  0.72222995730E+01 -0.77229915988E+01 -0.88382450775E+03  0.11011442379E+04  0.65670470218E+03 0.  0.
         13    1    3    3    0    0  0.68956869865E+02 -0.27896194698E+03 -0.16728984001E+03  0.33250670419E+03  0.00000000000E+00 0.  1.
          3    1    3    3  501    0 -0.61734570292E+02  0.27123895538E+03 -0.71653466774E+03  0.76863753366E+03  0.00000000000E+00 0.  1.
         21    1    1    2  502  501 -0.72222995730E+01  0.77229915988E+01 -0.37965027863E+01  0.11234751611E+02  0.00000000000E+00 0. -1.
<mgrwt>
<rscale>  1 0.65678982E+03</rscale>
<asrwt>0</asrwt>
<pdfrwt beam="1">  1        1 0.40865173E+00 0.65678982E+03</pdfrwt>
<pdfrwt beam="2">0</pdfrwt>
<totfact> 0.12223366E+00</totfact>
</mgrwt>
</event>
<event>
 6    1  0.6001850E-003  0.6525138E+03  0.7818608E-02  0.9802074E-01
          1   -1    0    0  502    0  0.00000000000E+00  0.00000000000E+00  0.10644359741E+03  0.10644359741E+03  0.00000000000E+00 0.  1.
         13   -1    0    0    0    0 -0.00000000000E+00 -0.00000000000E+00 -0.10000000000E+04  0.10000000000E+04  0.00000000000E+00 0.  1.
    9000005    2    1    2  501    0  0.12200658063E-04 -0.45550504447E-04 -0.89355642649E+03  0.11064435445E+04  0.65251377759E+03 0.  0.
         13    1    3    3    0    0 -0.21847258556E+03  0.52763949683E+01 -0.36002483828E+02  0.22148203048E+03  0.00000000000E+00 0.  1.
          1    1    3    3  501    0  0.21847259776E+03 -0.52764405188E+01 -0.85755394266E+03  0.88496151406E+03  0.00000000000E+00 0.  1.
         21    1    1    2  502  501 -0.12200658059E-04  0.45550504447E-04  0.23897122905E-04  0.52865650432E-04  0.00000000000E+00 0.  1.
<mgrwt>
<rscale>  1 0.65251378E+03</rscale>
<asrwt>0</asrwt>
<pdfrwt beam="1">  1        1 0.38706844E+00 0.65251378E+03</pdfrwt>
<pdfrwt beam="2">0</pdfrwt>
<totfact> 0.15263581E+00</totfact>
</mgrwt>
</event>
<event>
 6    1  0.6001850E-003  0.6569503E+03  0.7818608E-02  0.9793824E-01
          1   -1    0    0  502    0  0.00000000000E+00  0.00000000000E+00  0.10791014926E+03  0.10791014926E+03  0.00000000000E+00 0.  1.
         13   -1    0    0    0    0 -0.00000000000E+00 -0.00000000000E+00 -0.10000000000E+04  0.10000000000E+04  0.00000000000E+00 0.  1.
    9000005    2    1    2  501    0  0.14042267168E-03 -0.15382560701E-03 -0.89210406416E+03  0.11078959343E+04  0.65695033297E+03 0.  0.
         13    1    3    3    0    0 -0.23004776960E+03  0.12301726176E+03 -0.78266400659E+03  0.82499586072E+03  0.00000000000E+00 0.  1.
          3    1    3    3  501    0  0.23004791002E+03 -0.12301741558E+03 -0.10944005757E+03  0.28290007360E+03  0.00000000000E+00 0.  1.
         21    1    1    2  502  501 -0.14042267169E-03  0.15382560702E-03  0.14213413618E-01  0.14214939589E-01  0.00000000000E+00 0. -1.
<mgrwt>
<rscale>  1 0.65695033E+03</rscale>
<asrwt>0</asrwt>
<pdfrwt beam="1">  1        1 0.39240137E+00 0.65695033E+03</pdfrwt>
<pdfrwt beam="2">0</pdfrwt>
<totfact> 0.14442821E+00</totfact>
</mgrwt>
</event>
<event>
 6    1  0.6001850E-003  0.4877868E+03  0.7818608E-02  0.1017017E+00
          1   -1    0    0  502    0  0.00000000000E+00  0.00000000000E+00  0.59495587853E+02  0.59495587853E+02  0.00000000000E+00 0.  1.
         13   -1    0    0    0    0 -0.00000000000E+00 -0.00000000000E+00 -0.10000000000E+04  0.10000000000E+04  0.00000000000E+00 0.  1.
    9000005    2    1    2  501    0  0.13392723511E-03  0.13085296809E-03 -0.94051601751E+03  0.10594839810E+04  0.48778676362E+03 0.  0.
         13    1    3    3    0    0  0.23987820174E+03 -0.22046623215E+02 -0.55314877785E+03  0.60332509951E+03  0.00000000000E+00 0.  1.
          3    1    3    3  501    0 -0.23987806781E+03  0.22046754068E+02 -0.38736723966E+03  0.45615888147E+03  0.00000000000E+00 0.  1.
         21    1    1    2  502  501 -0.13392723513E-03 -0.13085296809E-03  0.11605362516E-01  0.11606872883E-01  0.00000000000E+00 0. -1.
<mgrwt>
<rscale>  1 0.48778676E+03</rscale>
<asrwt>0</asrwt>
<pdfrwt beam="1">  1        1 0.21634805E+00 0.48778676E+03</pdfrwt>
<pdfrwt beam="2">0</pdfrwt>
<totfact> 0.86982232E+00</totfact>
</mgrwt>
</event>
<event>
 6    1  0.6001850E-003  0.5609069E+03  0.7818608E-02  0.9990005E-01
          1   -1    0    0  502    0  0.00000000000E+00  0.00000000000E+00  0.78662615495E+02  0.78662615495E+02  0.00000000000E+00 0.  1.
         13   -1    0    0    0    0 -0.00000000000E+00 -0.00000000000E+00 -0.10000000000E+04  0.10000000000E+04  0.00000000000E+00 0.  1.
    9000005    2    1    2  501    0  0.52194082824E-03  0.35635308626E-03 -0.92134585170E+03  0.10786541247E+04  0.56090689280E+03 0.  0.
         13    1    3    3    0    0  0.62127609907E+02  0.26670170222E+03 -0.57708756733E+03  0.63876419612E+03  0.00000000000E+00 0.  1.
          3    1    3    3  501    0 -0.62127087966E+02 -0.26670134587E+03 -0.34425828437E+03  0.43988992863E+03  0.00000000000E+00 0.  1.
         21    1    1    2  502  501 -0.52194082824E-03 -0.35635308626E-03  0.84671947069E-02  0.84907476676E-02  0.00000000000E+00 0.  1.
<mgrwt>
<rscale>  1 0.56090689E+03</rscale>
<asrwt>0</asrwt>
<pdfrwt beam="1">  1        1 0.28604648E+00 0.56090689E+03</pdfrwt>
<pdfrwt beam="2">0</pdfrwt>
<totfact> 0.42676715E+00</totfact>
</mgrwt>
</event>
<event>
 6    1  0.6001850E-003  0.7052132E+03  0.7818608E-02  0.9708358E-01
          1   -1    0    0  502    0  0.00000000000E+00  0.00000000000E+00  0.12433469513E+03  0.12433469513E+03  0.00000000000E+00 0.  1.
         13   -1    0    0    0    0 -0.00000000000E+00 -0.00000000000E+00 -0.10000000000E+04  0.10000000000E+04  0.00000000000E+00 0.  1.
    9000005    2    1    2  501    0 -0.18795009660E-02 -0.12879224854E-02 -0.87566813594E+03  0.11243310611E+04  0.70521319518E+03 0.  0.
         13    1    3    3    0    0 -0.13470914176E+03 -0.31740017971E+03 -0.32021585242E+03  0.47056096215E+03  0.00000000000E+00 0.  1.
          3    1    3    3  501    0  0.13470726226E+03  0.31739889179E+03 -0.55545228351E+03  0.65377009895E+03  0.00000000000E+00 0.  1.
         21    1    1    2  502  501  0.18795009660E-02  0.12879224854E-02  0.28310664087E-02  0.36340342899E-02  0.00000000000E+00 0.  1.
<mgrwt>
<rscale>  1 0.70521320E+03</rscale>
<asrwt>0</asrwt>
<pdfrwt beam="1">  1        1 0.45212712E+00 0.70521320E+03</pdfrwt>
<pdfrwt beam="2">0</pdfrwt>
<totfact> 0.76812522E-01</totfact>
</mgrwt>
</event>
<event>
 6    1  0.6001850E-003  0.6550242E+03  0.7818608E-02  0.9797397E-01
          1   -1    0    0  502    0  0.00000000000E+00  0.00000000000E+00  0.10747939168E+03  0.10747939168E+03  0.00000000000E+00 0.  1.
         13   -1    0    0    0    0 -0.00000000000E+00 -0.00000000000E+00 -0.10000000000E+04  0.10000000000E+04  0.00000000000E+00 0.  1.
    9000005    2    1    2  501    0  0.13661668457E-02 -0.25986532162E-02 -0.89273582794E+03  0.11072641520E+04  0.65502415519E+03 0.  0.
         13    1    3    3    0    0  0.32046620891E+03  0.49128639853E+02 -0.36794600772E+03  0.49040440343E+03  0.00000000000E+00 0.  1.
          3    1    3    3  501    0 -0.32046484275E+03 -0.49131238506E+02 -0.52478982022E+03  0.61685974860E+03  0.00000000000E+00 0.  1.
         21    1    1    2  502  501 -0.13661668456E-02  0.25986532162E-02  0.21521962712E+00  0.21523965087E+00  0.00000000000E+00 0. -1.
<mgrwt>
<rscale>  1 0.65502416E+03</rscale>
<asrwt>0</asrwt>
<pdfrwt beam="1">  1        1 0.39083498E+00 0.65502416E+03</pdfrwt>
<pdfrwt beam="2">0</pdfrwt>
<totfact> 0.14681147E+00</totfact>
</mgrwt>
</event>
<event>
 6    1  0.6001850E-003  0.6369894E+03  0.7818608E-02  0.9831504E-01
          3   -1    0    0  502    0  0.00000000000E+00  0.00000000000E+00  0.10323923871E+03  0.10323923871E+03  0.00000000000E+00 0.  1.
         13   -1    0    0    0    0 -0.00000000000E+00 -0.00000000000E+00 -0.10000000000E+04  0.10000000000E+04  0.00000000000E+00 0.  1.
    9000005    2    1    2  501    0 -0.18607342873E+01  0.15393815282E+01 -0.89762411139E+03  0.11006745943E+04  0.63698483902E+03 0.  0.
         13    1    3    3    0    0  0.30147640041E+03  0.37341802603E+02 -0.60840510170E+03  0.68002882145E+03  0.00000000000E+00 0.  1.
          1    1    3    3  501    0 -0.30333713470E+03 -0.35802421075E+02 -0.28921900970E+03  0.42064577285E+03  0.00000000000E+00 0.  1.
         21    1    1    2  502  501  0.18607342873E+01 -0.15393815282E+01  0.86335010405E+00  0.25646444158E+01  0.00000000000E+00 0.  1.
<mgrwt>
<rscale>  1 0.63698942E+03</rscale>
<asrwt>0</asrwt>
<pdfrwt beam="1">  1        3 0.37541621E+00 0.63698942E+03</pdfrwt>
<pdfrwt beam="2">0</pdfrwt>
<totfact> 0.79981654E-02</totfact>
</mgrwt>
</event>
<event>
 6    1  0.6001850E-003  0.6164629E+03  0.7818608E-02  0.9871827E-01
          1   -1    0    0  502    0  0.00000000000E+00  0.00000000000E+00  0.95020218429E+02  0.95020218429E+02  0.00000000000E+00 0.  1.
         13   -1    0    0    0    0 -0.00000000000E+00 -0.00000000000E+00 -0.10000000000E+04  0.10000000000E+04  0.00000000000E+00 0.  1.
    9000005    2    1    2  501    0  0.25655009237E-01 -0.16146879966E-01 -0.90497193335E+03  0.10949889056E+04  0.61646289606E+03 0.  0.
         13    1    3    3    0    0 -0.10153859443E+03 -0.28404229837E+03 -0.56508965002E+03  0.64055946327E+03  0.00000000000E+00 0.  1.
          1    1    3    3  501    0  0.10156424944E+03  0.28402615149E+03 -0.33988228333E+03  0.45442944229E+03  0.00000000000E+00 0.  1.
         21    1    1    2  502  501 -0.25655009237E-01  0.16146879966E-01 -0.78482166894E-02  0.31312868549E-01  0.00000000000E+00 0.  1.
<mgrwt>
<rscale>  1 0.61646290E+03</rscale>
<asrwt>0</asrwt>
<pdfrwt beam="1">  1        1 0.34552880E+00 0.61646290E+03</pdfrwt>
<pdfrwt beam="2">0</pdfrwt>
<totfact> 0.23372452E+00</totfact>
</mgrwt>
</event>
<event>
 6    1  0.6001850E-003  0.6584295E+03  0.7818608E-02  0.9791089E-01
          3   -1    0    0  502    0  0.00000000000E+00  0.00000000000E+00  0.10838249547E+03  0.10838249547E+03  0.00000000000E+00 0.  1.
         13   -1    0    0    0    0 -0.00000000000E+00 -0.00000000000E+00 -0.10000000000E+04  0.10000000000E+04  0.00000000000E+00 0.  1.
    9000005    2    1    2  501    0  0.31644320296E-03  0.32494296195E-03 -0.89161713055E+03  0.11083819076E+04  0.65842945380E+03 0.  0.
         13    1    3    3    0    0  0.26430090374E+03  0.17100248966E+03 -0.60802216040E+03  0.68468077724E+03  0.00000000000E+00 0.  1.
          1    1    3    3  501    0 -0.26430058730E+03 -0.17100216471E+03 -0.28359497016E+03  0.42370113037E+03  0.00000000000E+00 0.  1.
         21    1    1    2  502  501 -0.31644320300E-03 -0.32494296195E-03 -0.37397400095E-03  0.58786119334E-03  0.00000000000E+00 0.  1.
<mgrwt>
<rscale>  1 0.65842945E+03</rscale>
<asrwt>0</asrwt>
<pdfrwt beam="1">  1        3 0.39411900E+00 0.65842945E+03</pdfrwt>
<pdfrwt beam="2">0</pdfrwt>
<totfact> 0.63509639E-02</totfact>
</mgrwt>
</event>
<event>
 6    1  0.6001850E-003  0.6192343E+03  0.7818608E-02  0.9866285E-01
          1   -1    0    0  502    0  0.00000000000E+00  0.00000000000E+00  0.95862794732E+02  0.95862794732E+02  0.00000000000E+00 0.  1.
         13   -1    0    0    0    0 -0.00000000000E+00 -0.00000000000E+00 -0.10000000000E+04  0.10000000000E+04  0.00000000000E+00 0.  1.
    9000005    2    1    2  501    0 -0.45216268632E-05  0.11299871971E-06 -0.90413721675E+03  0.10958627824E+04  0.61923431034E+03 0.  0.
         13    1    3    3    0    0  0.14363531173E+03 -0.92779612805E+02 -0.90885724011E+03  0.92480302888E+03  0.00000000000E+00 0.  1.
          1    1    3    3  501    0 -0.14363531626E+03  0.92779612918E+02  0.47200233584E+01  0.17105975351E+03  0.00000000000E+00 0.  1.
         21    1    1    2  502  501  0.45216268738E-05 -0.11299872941E-06  0.11484826144E-04  0.12343383241E-04  0.00000000000E+00 0. -1.
<mgrwt>
<rscale>  1 0.61923431E+03</rscale>
<asrwt>0</asrwt>
<pdfrwt beam="1">  1        1 0.34859272E+00 0.61923431E+03</pdfrwt>
<pdfrwt beam="2">0</pdfrwt>
<totfact> 0.22654391E+00</totfact>
</mgrwt>
</event>
<event>
 6    1  0.6001850E-003  0.6424417E+03  0.7818608E-02  0.9821066E-01
          1   -1    0    0  502    0  0.00000000000E+00  0.00000000000E+00  0.10318411312E+03  0.10318411312E+03  0.00000000000E+00 0.  1.
         13   -1    0    0    0    0 -0.00000000000E+00 -0.00000000000E+00 -0.10000000000E+04  0.10000000000E+04  0.00000000000E+00 0.  1.
    9000005    2    1    2  501    0  0.21671605509E-04 -0.20372764574E-03 -0.89681714332E+03  0.11031828401E+04  0.64244174062E+03 0.  0.
         13    1    3    3    0    0  0.28179670042E+03 -0.10575777477E+03 -0.25574235459E+03  0.39496612415E+03  0.00000000000E+00 0.  1.
          1    1    3    3  501    0 -0.28179667875E+03  0.10575757104E+03 -0.64107478873E+03  0.70821671594E+03  0.00000000000E+00 0.  1.
         21    1    1    2  502  501 -0.21671605483E-04  0.20372764575E-03  0.12564438970E-02  0.12730380507E-02  0.00000000000E+00 0.  1.
<mgrwt>
<rscale>  1 0.64244174E+03</rscale>
<asrwt>0</asrwt>
<pdfrwt beam="1">  1        1 0.37521575E+00 0.64244174E+03</pdfrwt>
<pdfrwt beam="2">0</pdfrwt>
<totfact> 0.17249995E+00</totfact>
</mgrwt>
</event>
<event>
 6    1  0.6001850E-003  0.6846269E+03  0.7818608E-02  0.9743890E-01
          1   -1    0    0  502    0  0.00000000000E+00  0.00000000000E+00  0.11719639823E+03  0.11719639823E+03  0.00000000000E+00 0.  1.
         13   -1    0    0    0    0 -0.00000000000E+00 -0.00000000000E+00 -0.10000000000E+04  0.10000000000E+04  0.00000000000E+00 0.  1.
    9000005    2    1    2  501    0 -0.74000995636E-03  0.60704296253E-04 -0.88282150872E+03  0.11171784759E+04  0.68462685511E+03 0.  0.
         13    1    3    3    0    0  0.27357552415E+03  0.50894230780E+02 -0.76672764255E+03  0.81566234925E+03  0.00000000000E+00 0.  1.
          1    1    3    3  501    0 -0.27357626416E+03 -0.50894170076E+02 -0.11609386618E+03  0.30151612664E+03  0.00000000000E+00 0.  1.
         21    1    1    2  502  501  0.74000995637E-03 -0.60704296247E-04  0.17906953090E-01  0.17922339935E-01  0.00000000000E+00 0.  1.
<mgrwt>
<rscale>  1 0.68462686E+03</rscale>
<asrwt>0</asrwt>
<pdfrwt beam="1">  1        1 0.42616962E+00 0.68462686E+03</pdfrwt>
<pdfrwt beam="2">0</pdfrwt>
<totfact> 0.10137652E+00</totfact>
</mgrwt>
</event>
<event>
 6    1  0.6001850E-003  0.6536006E+03  0.7818608E-02  0.9800046E-01
          1   -1    0    0  502    0  0.00000000000E+00  0.00000000000E+00  0.11422410549E+03  0.11422410549E+03  0.00000000000E+00 0.  1.
         13   -1    0    0    0    0 -0.00000000000E+00 -0.00000000000E+00 -0.10000000000E+04  0.10000000000E+04  0.00000000000E+00 0.  1.
    9000005    2    1    2  501    0 -0.68731569064E+00 -0.13305193798E+01 -0.89311791706E+03  0.11067309099E+04  0.65359884525E+03 0.  0.
         13    1    3    3    0    0 -0.89975235006E+02  0.64895669968E+02  0.73930155807E+02  0.13331413591E+03  0.00000000000E+00 0.  1.
          3    1    3    3  501    0  0.89287919315E+02 -0.66226189348E+02 -0.96704807287E+03  0.97341677401E+03  0.00000000000E+00 0.  1.
         21    1    1    2  502  501  0.68731569064E+00  0.13305193798E+01  0.73420225553E+01  0.74931955721E+01  0.00000000000E+00 0. -1.
<mgrwt>
<rscale>  1 0.65360056E+03</rscale>
<asrwt>0</asrwt>
<pdfrwt beam="1">  1        1 0.41536126E+00 0.65360056E+03</pdfrwt>
<pdfrwt beam="2">0</pdfrwt>
<totfact> 0.11411456E+00</totfact>
</mgrwt>
</event>
<event>
 6    1  0.6001850E-003  0.6326731E+03  0.7818608E-02  0.9839846E-01
          1   -1    0    0  502    0  0.00000000000E+00  0.00000000000E+00  0.10007186615E+03  0.10007186615E+03  0.00000000000E+00 0.  1.
         13   -1    0    0    0    0 -0.00000000000E+00 -0.00000000000E+00 -0.10000000000E+04  0.10000000000E+04  0.00000000000E+00 0.  1.
    9000005    2    1    2  501    0 -0.71065531665E-02 -0.64870193661E-02 -0.89991353686E+03  0.11000543831E+04  0.63267311614E+03 0.  0.
         13    1    3    3    0    0 -0.41575183855E+02 -0.30354770489E+02  0.92739230559E+02  0.10606824637E+03  0.00000000000E+00 0.  1.
          1    1    3    3  501    0  0.41568077302E+02  0.30348283470E+02 -0.99265276742E+03  0.99398613674E+03  0.00000000000E+00 0.  1.
         21    1    1    2  502  501  0.71065531665E-02  0.64870193661E-02 -0.14596989178E-01  0.17483037814E-01  0.00000000000E+00 0.  1.
<mgrwt>
<rscale>  1 0.63267312E+03</rscale>
<asrwt>0</asrwt>
<pdfrwt beam="1">  1        1 0.36389846E+00 0.63267312E+03</pdfrwt>
<pdfrwt beam="2">0</pdfrwt>
<totfact> 0.19375666E+00</totfact>
</mgrwt>
</event>
<event>
 6    1  0.6001850E-003  0.6529836E+03  0.7818608E-02  0.9801197E-01
          1   -1    0    0  502    0  0.00000000000E+00  0.00000000000E+00  0.10660509934E+03  0.10660509934E+03  0.00000000000E+00 0.  1.
         13   -1    0    0    0    0 -0.00000000000E+00 -0.00000000000E+00 -0.10000000000E+04  0.10000000000E+04  0.00000000000E+00 0.  1.
    9000005    2    1    2  501    0 -0.31756454298E-03 -0.79969687732E-03 -0.89340307701E+03  0.11065968778E+04  0.65298360778E+03 0.  0.
         13    1    3    3    0    0 -0.65355094862E+02  0.16667966293E+03 -0.90939301699E+03  0.92684899407E+03  0.00000000000E+00 0.  1.
          1    1    3    3  501    0  0.65354777298E+02 -0.16668046263E+03  0.15989939981E+02  0.17974788376E+03  0.00000000000E+00 0.  1.
         21    1    1    2  502  501  0.31756454298E-03  0.79969687733E-03  0.81763540114E-02  0.82215039533E-02  0.00000000000E+00 0.  1.
<mgrwt>
<rscale>  1 0.65298361E+03</rscale>
<asrwt>0</asrwt>
<pdfrwt beam="1">  1        1 0.38765572E+00 0.65298361E+03</pdfrwt>
<pdfrwt beam="2">0</pdfrwt>
<totfact> 0.15171126E+00</totfact>
</mgrwt>
</event>
<event>
 6    1  0.6001850E-003  0.6448536E+03  0.7818608E-02  0.9816484E-01
          1   -1    0    0  502    0  0.00000000000E+00  0.00000000000E+00  0.10442411398E+03  0.10442411398E+03  0.00000000000E+00 0.  1.
         13   -1    0    0    0    0 -0.00000000000E+00 -0.00000000000E+00 -0.10000000000E+04  0.10000000000E+04  0.00000000000E+00 0.  1.
    9000005    2    1    2  501    0 -0.66821729605E-02 -0.15495967221E-01 -0.89604079784E+03  0.11039588960E+04  0.64485357435E+03 0.  0.
         13    1    3    3    0    0  0.14072323337E+03  0.18827666916E+03 -0.82582282391E+03  0.85862358985E+03  0.00000000000E+00 0.  1.
          1    1    3    3  501    0 -0.14072991554E+03 -0.18829216512E+03 -0.70217973934E+02  0.24533530614E+03  0.00000000000E+00 0.  1.
         21    1    1    2  502  501  0.66821729605E-02  0.15495967221E-01  0.46491182393E+00  0.46521799242E+00  0.00000000000E+00 0.  1.
<mgrwt>
<rscale>  1 0.64485357E+03</rscale>
<asrwt>0</asrwt>
<pdfrwt beam="1">  1        1 0.37972485E+00 0.64485357E+03</pdfrwt>
<pdfrwt beam="2">0</pdfrwt>
<totfact> 0.16471231E+00</totfact>
</mgrwt>
</event>
<event>
 6    1  0.6001850E-003  0.6310659E+03  0.7818608E-02  0.9842971E-01
          1   -1    0    0  502    0  0.00000000000E+00  0.00000000000E+00  0.99580180647E+02  0.99580180647E+02  0.00000000000E+00 0.  1.
         13   -1    0    0    0    0 -0.00000000000E+00 -0.00000000000E+00 -0.10000000000E+04  0.10000000000E+04  0.00000000000E+00 0.  1.
    9000005    2    1    2  501    0  0.25437031641E-01 -0.93096984191E-02 -0.90042781949E+03  0.10995519368E+04  0.63106592592E+03 0.  0.
         13    1    3    3    0    0  0.12659860527E+02  0.82933790055E+02 -0.98019872500E+03  0.98378240790E+03  0.00000000000E+00 0.  1.
          1    1    3    3  501    0 -0.12634423495E+02 -0.82943099754E+02  0.79770905509E+02  0.11576952889E+03  0.00000000000E+00 0.  1.
         21    1    1    2  502  501 -0.25437031641E-01  0.93096984191E-02  0.80001411066E-02  0.28243854572E-01  0.00000000000E+00 0. -1.
<mgrwt>
<rscale>  1 0.63106593E+03</rscale>
<asrwt>0</asrwt>
<pdfrwt beam="1">  1        1 0.36211051E+00 0.63106593E+03</pdfrwt>
<pdfrwt beam="2">0</pdfrwt>
<totfact> 0.19733855E+00</totfact>
</mgrwt>
</event>
<event>
 6    1  0.6001850E-003  0.6543001E+03  0.7818608E-02  0.9798744E-01
          3   -1    0    0  502    0  0.00000000000E+00  0.00000000000E+00  0.10702720368E+03  0.10702720368E+03  0.00000000000E+00 0.  1.
         13   -1    0    0    0    0 -0.00000000000E+00 -0.00000000000E+00 -0.10000000000E+04  0.10000000000E+04  0.00000000000E+00 0.  1.
    9000005    2    1    2  501    0  0.66553044974E-04 -0.51575791758E-04 -0.89297282762E+03  0.11070271139E+04  0.65430005345E+03 0.  0.
         13    1    3    3    0    0  0.15380357445E+03  0.25338094413E+03 -0.21223139063E+03  0.36455398164E+03  0.00000000000E+00 0.  1.
          3    1    3    3  501    0 -0.15380350789E+03 -0.25338099571E+03 -0.68074143699E+03  0.74247313221E+03  0.00000000000E+00 0.  1.
         21    1    1    2  502  501 -0.66553044954E-04  0.51575791760E-04  0.31302504049E-04  0.89828819696E-04  0.00000000000E+00 0. -1.
<mgrwt>
<rscale>  1 0.65430005E+03</rscale>
<asrwt>0</asrwt>
<pdfrwt beam="1">  1        3 0.38919065E+00 0.65430005E+03</pdfrwt>
<pdfrwt beam="2">0</pdfrwt>
<totfact> 0.67461135E-02</totfact>
</mgrwt>
</event>
<event>
 6    1  0.6001850E-003  0.6481231E+03  0.7818608E-02  0.9810307E-01
          1   -1    0    0  502    0  0.00000000000E+00  0.00000000000E+00  0.10501635206E+03  0.10501635206E+03  0.00000000000E+00 0.  1.
         13   -1    0    0    0    0 -0.00000000000E+00 -0.00000000000E+00 -0.10000000000E+04  0.10000000000E+04  0.00000000000E+00 0.  1.
    9000005    2    1    2  501    0  0.45321150424E-04 -0.27017755144E-04 -0.89498410491E+03  0.11050158921E+04  0.64812311612E+03 0.  0.
         13    1    3    3    0    0 -0.25749791255E+03  0.19043655949E+03 -0.36319415578E+03  0.48423264342E+03  0.00000000000E+00 0.  1.
          1    1    3    3  501    0  0.25749795787E+03 -0.19043658651E+03 -0.53178994913E+03  0.62078324863E+03  0.00000000000E+00 0.  1.
         21    1    1    2  502  501 -0.45321150428E-04  0.27017755163E-04  0.45697343961E-03  0.46000944586E-03  0.00000000000E+00 0.  1.
<mgrwt>
<rscale>  1 0.64812312E+03</rscale>
<asrwt>0</asrwt>
<pdfrwt beam="1">  1        1 0.38187845E+00 0.64812312E+03</pdfrwt>
<pdfrwt beam="2">0</pdfrwt>
<totfact> 0.16104935E+00</totfact>
</mgrwt>
</event>
<event>
 6    1  0.6001850E-003  0.5206984E+03  0.7818608E-02  0.1008513E+00
          1   -1    0    0  502    0  0.00000000000E+00  0.00000000000E+00  0.67810194247E+02  0.67810194247E+02  0.00000000000E+00 0.  1.
         13   -1    0    0    0    0 -0.00000000000E+00 -0.00000000000E+00 -0.10000000000E+04  0.10000000000E+04  0.00000000000E+00 0.  1.
    9000005    2    1    2  501    0  0.13828465639E-02 -0.39233008866E-03 -0.93221827264E+03  0.10677816911E+04  0.52069840790E+03 0.  0.
         13    1    3    3    0    0  0.17639466861E+03  0.18115009637E+03 -0.59337445234E+03  0.64499897458E+03  0.00000000000E+00 0.  1.
          1    1    3    3  501    0 -0.17639328577E+03 -0.18115048870E+03 -0.33884382030E+03  0.42278271651E+03  0.00000000000E+00 0.  1.
         21    1    1    2  502  501 -0.13828465639E-02  0.39233008865E-03  0.28466887070E-01  0.28503155035E-01  0.00000000000E+00 0.  1.
<mgrwt>
<rscale>  1 0.52069841E+03</rscale>
<asrwt>0</asrwt>
<pdfrwt beam="1">  1        1 0.24658304E+00 0.52069841E+03</pdfrwt>
<pdfrwt beam="2">0</pdfrwt>
<totfact> 0.63689670E+00</totfact>
</mgrwt>
</event>
<event>
 6    1  0.6001850E-003  0.6529833E+03  0.7818608E-02  0.9801197E-01
          1   -1    0    0  502    0  0.00000000000E+00  0.00000000000E+00  0.10662395150E+03  0.10662395150E+03  0.00000000000E+00 0.  1.
         13   -1    0    0    0    0 -0.00000000000E+00 -0.00000000000E+00 -0.10000000000E+04  0.10000000000E+04  0.00000000000E+00 0.  1.
    9000005    2    1    2  501    0 -0.20146151677E-01  0.21539345173E-01 -0.89339406278E+03  0.11065893925E+04  0.65298325499E+03 0.  0.
         13    1    3    3    0    0 -0.23409494464E+03  0.13118420322E+03 -0.13151114918E+03  0.29883928899E+03  0.00000000000E+00 0.  1.
          3    1    3    3  501    0  0.23407479849E+03 -0.13116266388E+03 -0.76188291359E+03  0.80775010350E+03  0.00000000000E+00 0.  1.
         21    1    1    2  502  501  0.20146151677E-01 -0.21539345173E-01  0.18014271370E-01  0.34559004483E-01  0.00000000000E+00 0. -1.
<mgrwt>
<rscale>  1 0.65298326E+03</rscale>
<asrwt>0</asrwt>
<pdfrwt beam="1">  1        1 0.38772428E+00 0.65298326E+03</pdfrwt>
<pdfrwt beam="2">0</pdfrwt>
<totfact> 0.15160524E+00</totfact>
</mgrwt>
</event>
<event>
 6    1  0.6001850E-003  0.6646035E+03  0.7818608E-02  0.9779756E-01
          1   -1    0    0  502    0  0.00000000000E+00  0.00000000000E+00  0.11052521766E+03  0.11052521766E+03  0.00000000000E+00 0.  1.
         13   -1    0    0    0    0 -0.00000000000E+00 -0.00000000000E+00 -0.10000000000E+04  0.10000000000E+04  0.00000000000E+00 0.  1.
    9000005    2    1    2  501    0  0.40439486678E-01 -0.45642190001E-01 -0.88956518363E+03  0.11104161720E+04  0.66460353251E+03 0.  0.
         13    1    3    3    0    0  0.31132211305E+03  0.78954261285E+02 -0.30226106698E+03  0.44104079864E+03  0.00000000000E+00 0.  1.
          1    1    3    3  501    0 -0.31128167357E+03 -0.78999903475E+02 -0.58730411665E+03  0.66937537337E+03  0.00000000000E+00 0.  1.
         21    1    1    2  502  501 -0.40439486678E-01  0.45642190001E-01  0.90401288513E-01  0.10904565354E+00  0.00000000000E+00 0. -1.
<mgrwt>
<rscale>  1 0.66460354E+03</rscale>
<asrwt>0</asrwt>
<pdfrwt beam="1">  1        1 0.40191073E+00 0.66460354E+03</pdfrwt>
<pdfrwt beam="2">0</pdfrwt>
<totfact> 0.13082600E+00</totfact>
</mgrwt>
</event>
<event>
 6    1  0.6001850E-003  0.6161512E+03  0.7818608E-02  0.9872453E-01
          1   -1    0    0  502    0  0.00000000000E+00  0.00000000000E+00  0.94910638152E+02  0.94910638152E+02  0.00000000000E+00 0.  1.
         13   -1    0    0    0    0 -0.00000000000E+00 -0.00000000000E+00 -0.10000000000E+04  0.10000000000E+04  0.00000000000E+00 0.  1.
    9000005    2    1    2  501    0 -0.43985905407E-04 -0.40036091796E-04 -0.90508939171E+03  0.10949105716E+04  0.61615124184E+03 0.  0.
         13    1    3    3    0    0  0.15051908083E+02  0.52769013992E+02 -0.99124570285E+03  0.99276340192E+03  0.00000000000E+00 0.  1.
          3    1    3    3  501    0 -0.15051952069E+02 -0.52769054028E+02  0.86156311141E+02  0.10214716968E+03  0.00000000000E+00 0.  1.
         21    1    1    2  502  501  0.43985905406E-04  0.40036091795E-04  0.29859733041E-04  0.66552627130E-04  0.00000000000E+00 0. -1.
<mgrwt>
<rscale>  1 0.61615124E+03</rscale>
<asrwt>0</asrwt>
<pdfrwt beam="1">  1        1 0.34513032E+00 0.61615124E+03</pdfrwt>
<pdfrwt beam="2">0</pdfrwt>
<totfact> 0.23467237E+00</totfact>
</mgrwt>
</event>
<event>
 6    1  0.6001850E-003  0.5995901E+03  0.7818608E-02  0.9906257E-01
          1   -1    0    0  502    0  0.00000000000E+00  0.00000000000E+00  0.89883594729E+02  0.89883594729E+02  0.00000000000E+00 0.  1.
         13   -1    0    0    0    0 -0.00000000000E+00 -0.00000000000E+00 -0.10000000000E+04  0.10000000000E+04  0.00000000000E+00 0.  1.
    9000005    2    1    2  501    0 -0.63232237585E-03 -0.77985217501E-03 -0.91012288282E+03  0.10898770398E+04  0.59959011008E+03 0.  0.
         13    1    3    3    0    0 -0.26466722776E+03  0.43276913850E+02 -0.21149238746E+03  0.34154159729E+03  0.00000000000E+00 0.  1.
          1    1    3    3  501    0  0.26466659544E+03 -0.43277693702E+02 -0.69863049537E+03  0.74833544255E+03  0.00000000000E+00 0.  1.
         21    1    1    2  502  501  0.63232237585E-03  0.77985217501E-03  0.64775527071E-02  0.65548981743E-02  0.00000000000E+00 0. -1.
<mgrwt>
<rscale>  1 0.59959011E+03</rscale>
<asrwt>0</asrwt>
<pdfrwt beam="1">  1        1 0.32685012E+00 0.59959011E+03</pdfrwt>
<pdfrwt beam="2">0</pdfrwt>
<totfact> 0.28251870E+00</totfact>
</mgrwt>
</event>
<event>
 6    1  0.6001850E-003  0.6722357E+03  0.7818608E-02  0.9765927E-01
          1   -1    0    0  502    0  0.00000000000E+00  0.00000000000E+00  0.11298430125E+03  0.11298430125E+03  0.00000000000E+00 0.  1.
         13   -1    0    0    0    0 -0.00000000000E+00 -0.00000000000E+00 -0.10000000000E+04  0.10000000000E+04  0.00000000000E+00 0.  1.
    9000005    2    1    2  501    0 -0.27123895072E-03 -0.44333863380E-02 -0.88702417867E+03  0.11129747285E+04  0.67223571217E+03 0.  0.
         13    1    3    3    0    0  0.17478586172E+03  0.23921206733E+03 -0.18067822089E+03  0.34701171467E+03  0.00000000000E+00 0.  1.
          1    1    3    3  501    0 -0.17478613296E+03 -0.23921650071E+03 -0.70634595778E+03  0.76596301383E+03  0.00000000000E+00 0.  1.
         21    1    1    2  502  501  0.27123895073E-03  0.44333863380E-02  0.84799251587E-02  0.95727538194E-02  0.00000000000E+00 0.  1.
<mgrwt>
<rscale>  1 0.67223571E+03</rscale>
<asrwt>0</asrwt>
<pdfrwt beam="1">  1        1 0.41085287E+00 0.67223571E+03</pdfrwt>
<pdfrwt beam="2">0</pdfrwt>
<totfact> 0.11913642E+00</totfact>
</mgrwt>
</event>
<event>
 6    1  0.6001850E-003  0.6539660E+03  0.7818608E-02  0.9799366E-01
          1   -1    0    0  502    0  0.00000000000E+00  0.00000000000E+00  0.10888698642E+03  0.10888698642E+03  0.00000000000E+00 0.  1.
         13   -1    0    0    0    0 -0.00000000000E+00 -0.00000000000E+00 -0.10000000000E+04  0.10000000000E+04  0.00000000000E+00 0.  1.
    9000005    2    1    2  501    0  0.30725861942E+00 -0.23418419534E+00 -0.89306110892E+03  0.11069009538E+04  0.65396592266E+03 0.  0.
         13    1    3    3    0    0  0.23921701474E+03 -0.22302388573E+03 -0.43173425372E+03  0.54162616220E+03  0.00000000000E+00 0.  1.
          1    1    3    3  501    0 -0.23890975612E+03  0.22278970154E+03 -0.46132685521E+03  0.56527479160E+03  0.00000000000E+00 0.  1.
         21    1    1    2  502  501 -0.30725861942E+00  0.23418419534E+00  0.19480953414E+01  0.19860326170E+01  0.00000000000E+00 0.  1.
<mgrwt>
<rscale>  1 0.65396604E+03</rscale>
<asrwt>0</asrwt>
<pdfrwt beam="1">  1        1 0.39595351E+00 0.65396604E+03</pdfrwt>
<pdfrwt beam="2">0</pdfrwt>
<totfact> 0.13935004E+00</totfact>
</mgrwt>
</event>
<event>
 6    1  0.6001850E-003  0.6532300E+03  0.7818608E-02  0.9800737E-01
          1   -1    0    0  502    0  0.00000000000E+00  0.00000000000E+00  0.10770179147E+03  0.10770179147E+03  0.00000000000E+00 0.  1.
         13   -1    0    0    0    0 -0.00000000000E+00 -0.00000000000E+00 -0.10000000000E+04  0.10000000000E+04  0.00000000000E+00 0.  1.
    9000005    2    1    2  501    0 -0.96044547965E+00 -0.43839546475E+00 -0.89301254213E+03  0.11064270685E+04  0.65322916568E+03 0.  0.
         13    1    3    3    0    0 -0.18778275989E+03  0.68877864430E+01 -0.89992453452E+03  0.91933344024E+03  0.00000000000E+00 0.  1.
          3    1    3    3  501    0  0.18682231441E+03 -0.73261819077E+01  0.69119923898E+01  0.18709362828E+03  0.00000000000E+00 0.  1.
         21    1    1    2  502  501  0.96044547965E+00  0.43839546475E+00  0.71433359974E+00  0.12747229482E+01  0.00000000000E+00 0. -1.
<mgrwt>
<rscale>  1 0.65323002E+03</rscale>
<asrwt>0</asrwt>
<pdfrwt beam="1">  1        1 0.39164370E+00 0.65323002E+03</pdfrwt>
<pdfrwt beam="2">0</pdfrwt>
<totfact> 0.14565193E+00</totfact>
</mgrwt>
</event>
<event>
 6    1  0.6001850E-003  0.6552835E+03  0.7818608E-02  0.9796915E-01
          1   -1    0    0  502    0  0.00000000000E+00  0.00000000000E+00  0.10734951872E+03  0.10734951872E+03  0.00000000000E+00 0.  1.
         13   -1    0    0    0    0 -0.00000000000E+00 -0.00000000000E+00 -0.10000000000E+04  0.10000000000E+04  0.00000000000E+00 0.  1.
    9000005    2    1    2  501    0  0.25728247437E-04  0.12663774726E-04 -0.89265087089E+03  0.11073491281E+04  0.65528353719E+03 0.  0.
         13    1    3    3    0    0  0.11060298065E+03 -0.30189399339E+03 -0.55288325277E+03  0.63957243043E+03  0.00000000000E+00 0.  1.
          1    1    3    3  501    0 -0.11060295492E+03  0.30189400605E+03 -0.33976761812E+03  0.46777669763E+03  0.00000000000E+00 0.  1.
         21    1    1    2  502  501 -0.25728247436E-04 -0.12663774734E-04  0.38960270497E-03  0.39065660321E-03  0.00000000000E+00 0.  1.
<mgrwt>
<rscale>  1 0.65528354E+03</rscale>
<asrwt>0</asrwt>
<pdfrwt beam="1">  1        1 0.39036271E+00 0.65528354E+03</pdfrwt>
<pdfrwt beam="2">0</pdfrwt>
<totfact> 0.14751431E+00</totfact>
</mgrwt>
</event>
<event>
 6    1  0.6001850E-003  0.6437926E+03  0.7818608E-02  0.9818497E-01
          1   -1    0    0  502    0  0.00000000000E+00  0.00000000000E+00  0.10361744226E+03  0.10361744226E+03  0.00000000000E+00 0.  1.
         13   -1    0    0    0    0 -0.00000000000E+00 -0.00000000000E+00 -0.10000000000E+04  0.10000000000E+04  0.00000000000E+00 0.  1.
    9000005    2    1    2  501    0 -0.61504669588E-05 -0.12009369911E-04 -0.89638276298E+03  0.11036172366E+04  0.64379262741E+03 0.  0.
         13    1    3    3    0    0 -0.31259410593E+03 -0.75832537874E+02 -0.42708524728E+03  0.53466574353E+03  0.00000000000E+00 0.  1.
          3    1    3    3  501    0  0.31259409978E+03  0.75832525865E+02 -0.46929751570E+03  0.56895149304E+03  0.00000000000E+00 0.  1.
         21    1    1    2  502  501  0.61504669905E-05  0.12009369913E-04  0.20524248800E-03  0.20568551746E-03  0.00000000000E+00 0. -1.
<mgrwt>
<rscale>  1 0.64379263E+03</rscale>
<asrwt>0</asrwt>
<pdfrwt beam="1">  1        1 0.37679149E+00 0.64379263E+03</pdfrwt>
<pdfrwt beam="2">0</pdfrwt>
<totfact> 0.16972359E+00</totfact>
</mgrwt>
</event>
<event>
 6    1  0.6001850E-003  0.6475912E+03  0.7818608E-02  0.9811310E-01
          1   -1    0    0  502    0  0.00000000000E+00  0.00000000000E+00  0.11179056753E+03  0.11179056753E+03  0.00000000000E+00 0.  1.
         13   -1    0    0    0    0 -0.00000000000E+00 -0.00000000000E+00 -0.10000000000E+04  0.10000000000E+04  0.00000000000E+00 0.  1.
    9000005    2    1    2  501    0  0.14757604757E+00  0.17905496602E+00 -0.89515426404E+03  0.11048418608E+04  0.64759117284E+03 0.  0.
         13    1    3    3    0    0  0.28168144578E+03  0.61163373772E+01 -0.17520569718E+03  0.33178137803E+03  0.00000000000E+00 0.  1.
          1    1    3    3  501    0 -0.28153386973E+03 -0.59372824112E+01 -0.71994856686E+03  0.77306048279E+03  0.00000000000E+00 0.  1.
         21    1    1    2  502  501 -0.14757604757E+00 -0.17905496602E+00  0.69448315712E+01  0.69487067087E+01  0.00000000000E+00 0. -1.
<mgrwt>
<rscale>  1 0.64759121E+03</rscale>
<asrwt>0</asrwt>
<pdfrwt beam="1">  1        1 0.40651201E+00 0.64759121E+03</pdfrwt>
<pdfrwt beam="2">0</pdfrwt>
<totfact> 0.12518108E+00</totfact>
</mgrwt>
</event>
<event>
 6    1  0.6001850E-003  0.6493853E+03  0.7818608E-02  0.9807933E-01
          1   -1    0    0  502    0  0.00000000000E+00  0.00000000000E+00  0.10542776941E+03  0.10542776941E+03  0.00000000000E+00 0.  1.
         13   -1    0    0    0    0 -0.00000000000E+00 -0.00000000000E+00 -0.10000000000E+04  0.10000000000E+04  0.00000000000E+00 0.  1.
    9000005    2    1    2  501    0 -0.68876907247E-02 -0.19186505219E-02 -0.89456600130E+03  0.11054182865E+04  0.64938529196E+03 0.  0.
         13    1    3    3    0    0 -0.51047205746E+02 -0.45424118640E+02 -0.98761621567E+03  0.98997725086E+03  0.00000000000E+00 0.  1.
          1    1    3    3  501    0  0.51040318055E+02  0.45422199990E+02  0.93050214364E+02  0.11544103565E+03  0.00000000000E+00 0.  1.
         21    1    1    2  502  501  0.68876907247E-02  0.19186505219E-02 -0.62292848798E-02  0.94829053280E-02  0.00000000000E+00 0. -1.
<mgrwt>
<rscale>  1 0.64938529E+03</rscale>
<asrwt>0</asrwt>
<pdfrwt beam="1">  1        1 0.38337452E+00 0.64938529E+03</pdfrwt>
<pdfrwt beam="2">0</pdfrwt>
<totfact> 0.15858000E+00</totfact>
</mgrwt>
</event>
<event>
 6    1  0.6001850E-003  0.6238400E+03  0.7818608E-02  0.9857144E-01
          1   -1    0    0  502    0  0.00000000000E+00  0.00000000000E+00  0.97437335414E+02  0.97437335414E+02  0.00000000000E+00 0.  1.
         13   -1    0    0    0    0 -0.00000000000E+00 -0.00000000000E+00 -0.10000000000E+04  0.10000000000E+04  0.00000000000E+00 0.  1.
    9000005    2    1    2  501    0 -0.45624719979E-03  0.41523067848E-02 -0.90270587141E+03  0.10972940677E+04  0.62384002810E+03 0.  0.
         13    1    3    3    0    0 -0.27767824764E+03  0.13146657016E+03 -0.54617560478E+03  0.62665497648E+03  0.00000000000E+00 0.  1.
          1    1    3    3  501    0  0.27767779140E+03 -0.13146241785E+03 -0.35653026663E+03  0.47063909120E+03  0.00000000000E+00 0.  1.
         21    1    1    2  502  501  0.45624719981E-03 -0.41523067848E-02  0.14320682616E+00  0.14326773842E+00  0.00000000000E+00 0.  1.
<mgrwt>
<rscale>  1 0.62384003E+03</rscale>
<asrwt>0</asrwt>
<pdfrwt beam="1">  1        1 0.35431833E+00 0.62384003E+03</pdfrwt>
<pdfrwt beam="2">0</pdfrwt>
<totfact> 0.21371396E+00</totfact>
</mgrwt>
</event>
<event>
 6    1  0.6001850E-003  0.6415507E+03  0.7818608E-02  0.9822764E-01
          1   -1    0    0  502    0  0.00000000000E+00  0.00000000000E+00  0.10297069779E+03  0.10297069779E+03  0.00000000000E+00 0.  1.
         13   -1    0    0    0    0 -0.00000000000E+00 -0.00000000000E+00 -0.10000000000E+04  0.10000000000E+04  0.00000000000E+00 0.  1.
    9000005    2    1    2  501    0  0.13199550008E+00  0.64800814093E-01 -0.89701198255E+03  0.11028226372E+04  0.64155066109E+03 0.  0.
         13    1    3    3    0    0  0.34396619868E+02 -0.78277155641E+02  0.82956279788E+02  0.11913095698E+03  0.00000000000E+00 0.  1.
          3    1    3    3  501    0 -0.34264624367E+02  0.78341956456E+02 -0.97996826234E+03  0.98369168026E+03  0.00000000000E+00 0.  1.
         21    1    1    2  502  501 -0.13199550008E+00 -0.64800814093E-01 -0.17319659900E-01  0.14806055574E+00  0.00000000000E+00 0.  1.
<mgrwt>
<rscale>  1 0.64155068E+03</rscale>
<asrwt>0</asrwt>
<pdfrwt beam="1">  1        1 0.37443969E+00 0.64155068E+03</pdfrwt>
<pdfrwt beam="2">0</pdfrwt>
<totfact> 0.17389038E+00</totfact>
</mgrwt>
</event>
<event>
 6    1  0.6001850E-003  0.6482135E+03  0.7818608E-02  0.9810137E-01
          1   -1    0    0  502    0  0.00000000000E+00  0.00000000000E+00  0.11597903845E+03  0.11597903845E+03  0.00000000000E+00 0.  1.
         13   -1    0    0    0    0 -0.00000000000E+00 -0.00000000000E+00 -0.10000000000E+04  0.10000000000E+04  0.00000000000E+00 0.  1.
    9000005    2    1    2  501    0  0.25700388083E+00 -0.13548593940E+01 -0.89490675358E+03  0.11050062465E+04  0.64821200660E+03 0.  0.
         13    1    3    3    0    0 -0.13144456008E+03 -0.57072971514E+02  0.48146434718E+02  0.15117233751E+03  0.00000000000E+00 0.  1.
          1    1    3    3  501    0  0.13170156397E+03  0.55718112120E+02 -0.94305318830E+03  0.95383390899E+03  0.00000000000E+00 0.  1.
         21    1    1    2  502  501 -0.25700388083E+00  0.13548593940E+01  0.10885792036E+02  0.10972791952E+02  0.00000000000E+00 0. -1.
<mgrwt>
<rscale>  1 0.64821347E+03</rscale>
<asrwt>0</asrwt>
<pdfrwt beam="1">  1        1 0.42174285E+00 0.64821347E+03</pdfrwt>
<pdfrwt beam="2">0</pdfrwt>
<totfact> 0.10691676E+00</totfact>
</mgrwt>
</event>
<event>
 6    1  0.6001850E-003  0.6424462E+03  0.7818608E-02  0.9821057E-01
          1   -1    0    0  502    0  0.00000000000E+00  0.00000000000E+00  0.10318458047E+03  0.10318458047E+03  0.00000000000E+00 0.  1.
         13   -1    0    0    0    0 -0.00000000000E+00 -0.00000000000E+00 -0.10000000000E+04  0.10000000000E+04  0.00000000000E+00 0.  1.
    9000005    2    1    2  501    0  0.81459358108E-03 -0.81664756273E-05 -0.89681488109E+03  0.11031836040E+04  0.64244621029E+03 0.  0.
         13    1    3    3    0    0  0.30875657799E+03 -0.22993188896E+02 -0.30144043028E+03  0.43211762773E+03  0.00000000000E+00 0.  1.
          3    1    3    3  501    0 -0.30875576340E+03  0.22993180730E+02 -0.59537445081E+03  0.67106597624E+03  0.00000000000E+00 0.  1.
         21    1    1    2  502  501 -0.81459358105E-03  0.81664756290E-05 -0.53843692233E-03  0.97649562874E-03  0.00000000000E+00 0.  1.
<mgrwt>
<rscale>  1 0.64244621E+03</rscale>
<asrwt>0</asrwt>
<pdfrwt beam="1">  1        1 0.37521745E+00 0.64244621E+03</pdfrwt>
<pdfrwt beam="2">0</pdfrwt>
<totfact> 0.17249684E+00</totfact>
</mgrwt>
</event>
<event>
 6    1  0.6001850E-003  0.6481351E+03  0.7818608E-02  0.9810285E-01
          1   -1    0    0  502    0  0.00000000000E+00  0.00000000000E+00  0.12110911491E+03  0.12110911491E+03  0.00000000000E+00 0.  1.
         13   -1    0    0    0    0 -0.00000000000E+00 -0.00000000000E+00 -0.10000000000E+04  0.10000000000E+04  0.00000000000E+00 0.  1.
    9000005    2    1    2  501    0 -0.84561158660E+01  0.16674647808E+01 -0.89369480878E+03  0.11039789517E+04  0.64807779491E+03 0.  0.
         13    1    3    3    0    0  0.70027642447E+02  0.35498037410E+02 -0.97963554437E+03  0.98277656726E+03  0.00000000000E+00 0.  1.
          1    1    3    3  501    0 -0.78483758313E+02 -0.33830572629E+02  0.85940735591E+02  0.12120238445E+03  0.00000000000E+00 0.  1.
         21    1    1    2  502  501  0.84561158660E+01 -0.16674647808E+01  0.14803923691E+02  0.17130163192E+02  0.00000000000E+00 0. -1.
<mgrwt>
<rscale>  1 0.64813511E+03</rscale>
<asrwt>0</asrwt>
<pdfrwt beam="1">  1        1 0.44039771E+00 0.64813511E+03</pdfrwt>
<pdfrwt beam="2">0</pdfrwt>
<totfact> 0.87964548E-01</totfact>
</mgrwt>
</event>
<event>
 6    1  0.6001850E-003  0.6556338E+03  0.7818608E-02  0.9796265E-01
          1   -1    0    0  502    0  0.00000000000E+00  0.00000000000E+00  0.10746398058E+03  0.10746398058E+03  0.00000000000E+00 0.  1.
         13   -1    0    0    0    0 -0.00000000000E+00 -0.00000000000E+00 -0.10000000000E+04  0.10000000000E+04  0.00000000000E+00 0.  1.
    9000005    2    1    2  501    0  0.86560129773E-04 -0.51926702355E-04 -0.89253603872E+03  0.11074638778E+04  0.65563378516E+03 0.  0.
         13    1    3    3    0    0  0.25243899929E+03  0.16021830887E+03 -0.21921351225E+03  0.37074238875E+03  0.00000000000E+00 0.  1.
          1    1    3    3  501    0 -0.25243891273E+03 -0.16021836079E+03 -0.67332252647E+03  0.73672148906E+03  0.00000000000E+00 0.  1.
         21    1    1    2  502  501 -0.86560129772E-04  0.51926702341E-04  0.19300069921E-04  0.10276931050E-03  0.00000000000E+00 0. -1.
<mgrwt>
<rscale>  1 0.65563379E+03</rscale>
<asrwt>0</asrwt>
<pdfrwt beam="1">  1        1 0.39077894E+00 0.65563379E+03</pdfrwt>
<pdfrwt beam="2">0</pdfrwt>
<totfact> 0.14687892E+00</totfact>
</mgrwt>
</event>
<event>
 6    1  0.6001850E-003  0.6388363E+03  0.7818608E-02  0.9827956E-01
          1   -1    0    0  502    0  0.00000000000E+00  0.00000000000E+00  0.10317097313E+03  0.10317097313E+03  0.00000000000E+00 0.  1.
         13   -1    0    0    0    0 -0.00000000000E+00 -0.00000000000E+00 -0.10000000000E+04  0.10000000000E+04  0.00000000000E+00 0.  1.
    9000005    2    1    2  501    0 -0.10084022138E+00  0.50015201908E-01 -0.89796899388E+03  0.11020254623E+04  0.63883628023E+03 0.  0.
         13    1    3    3    0    0 -0.24991325392E+03  0.19691020028E+03 -0.39928149550E+03  0.51054478169E+03  0.00000000000E+00 0.  1.
          1    1    3    3  501    0  0.24981241370E+03 -0.19686018508E+03 -0.49868749838E+03  0.59148068062E+03  0.00000000000E+00 0.  1.
         21    1    1    2  502  501  0.10084022138E+00 -0.50015201908E-01  0.11399670098E+01  0.11455108267E+01  0.00000000000E+00 0. -1.
<mgrwt>
<rscale>  1 0.63883629E+03</rscale>
<asrwt>0</asrwt>
<pdfrwt beam="1">  1        1 0.37516797E+00 0.63883629E+03</pdfrwt>
<pdfrwt beam="2">0</pdfrwt>
<totfact> 0.17269768E+00</totfact>
</mgrwt>
</event>
<event>
 6    1  0.6001850E-003  0.6521897E+03  0.7818608E-02  0.9802679E-01
          1   -1    0    0  502    0  0.00000000000E+00  0.00000000000E+00  0.10633810835E+03  0.10633810835E+03  0.00000000000E+00 0.  1.
         13   -1    0    0    0    0 -0.00000000000E+00 -0.00000000000E+00 -0.10000000000E+04  0.10000000000E+04  0.00000000000E+00 0.  1.
    9000005    2    1    2  501    0  0.70598423392E-04 -0.17451959775E-03 -0.89366210877E+03  0.11063378210E+04  0.65218970359E+03 0.  0.
         13    1    3    3    0    0  0.20209364334E+02  0.27927556459E+03 -0.73035156026E+03  0.78218710099E+03  0.00000000000E+00 0.  1.
          3    1    3    3  501    0 -0.20209293735E+02 -0.27927573911E+03 -0.16331054851E+03  0.32415071998E+03  0.00000000000E+00 0.  1.
         21    1    1    2  502  501 -0.70598423389E-04  0.17451959776E-03  0.21711963723E-03  0.28737112635E-03  0.00000000000E+00 0.  1.
<mgrwt>
<rscale>  1 0.65218970E+03</rscale>
<asrwt>0</asrwt>
<pdfrwt beam="1">  1        1 0.38668485E+00 0.65218970E+03</pdfrwt>
<pdfrwt beam="2">0</pdfrwt>
<totfact> 0.15324307E+00</totfact>
</mgrwt>
</event>
<event>
 6    1  0.6001850E-003  0.6299587E+03  0.7818608E-02  0.9845129E-01
          1   -1    0    0  502    0  0.00000000000E+00  0.00000000000E+00  0.99289780543E+02  0.99289780543E+02  0.00000000000E+00 0.  1.
         13   -1    0    0    0    0 -0.00000000000E+00 -0.00000000000E+00 -0.10000000000E+04  0.10000000000E+04  0.00000000000E+00 0.  1.
    9000005    2    1    2  501    0 -0.75933019636E-01  0.82700986963E-01 -0.90074089845E+03  0.10991733912E+04  0.62995870118E+03 0.  0.
         13    1    3    3    0    0 -0.20452472346E+02 -0.97675925575E+01 -0.99853617568E+03  0.99879337384E+03  0.00000000000E+00 0.  1.
          1    1    3    3  501    0  0.20376539327E+02  0.98502935444E+01  0.97795277231E+02  0.10038001737E+03  0.00000000000E+00 0.  1.
         21    1    1    2  502  501  0.75933019636E-01 -0.82700986963E-01  0.30678991696E-01  0.11638933477E+00  0.00000000000E+00 0. -1.
<mgrwt>
<rscale>  1 0.62995871E+03</rscale>
<asrwt>0</asrwt>
<pdfrwt beam="1">  1        1 0.36105451E+00 0.62995871E+03</pdfrwt>
<pdfrwt beam="2">0</pdfrwt>
<totfact> 0.19948954E+00</totfact>
</mgrwt>
</event>
<event>
 6    1  0.6001850E-003  0.6441691E+03  0.7818608E-02  0.9817782E-01
          1   -1    0    0  502    0  0.00000000000E+00  0.00000000000E+00  0.10374004487E+03  0.10374004487E+03  0.00000000000E+00 0.  1.
         13   -1    0    0    0    0 -0.00000000000E+00 -0.00000000000E+00 -0.10000000000E+04  0.10000000000E+04  0.00000000000E+00 0.  1.
    9000005    2    1    2  501    0  0.15376437804E-03  0.47506864723E-03 -0.89626150842E+03  0.11037384133E+04  0.64416907215E+03 0.  0.
         13    1    3    3    0    0  0.13123122919E+03 -0.16781834991E+03 -0.86203564279E+03  0.88796964111E+03  0.00000000000E+00 0.  1.
          3    1    3    3  501    0 -0.13123107543E+03  0.16781882498E+03 -0.34225865626E+02  0.21576877219E+03  0.00000000000E+00 0.  1.
         21    1    1    2  502  501 -0.15376437803E-03 -0.47506864722E-03  0.15532866481E-02  0.16315738152E-02  0.00000000000E+00 0.  1.
<mgrwt>
<rscale>  1 0.64416907E+03</rscale>
<asrwt>0</asrwt>
<pdfrwt beam="1">  1        1 0.37723732E+00 0.64416907E+03</pdfrwt>
<pdfrwt beam="2">0</pdfrwt>
<totfact> 0.16894602E+00</totfact>
</mgrwt>
</event>
<event>
 6    1  0.6001850E-003  0.6473828E+03  0.7818608E-02  0.9811703E-01
          1   -1    0    0  502    0  0.00000000000E+00  0.00000000000E+00  0.10478276902E+03  0.10478276902E+03  0.00000000000E+00 0.  1.
         13   -1    0    0    0    0 -0.00000000000E+00 -0.00000000000E+00 -0.10000000000E+04  0.10000000000E+04  0.00000000000E+00 0.  1.
    9000005    2    1    2  501    0  0.25080712646E-03 -0.53746043591E-03 -0.89522387234E+03  0.11047761012E+04  0.64738277103E+03 0.  0.
         13    1    3    3    0    0 -0.93196302001E+02  0.30362704149E+03 -0.34102536778E+03  0.46601848944E+03  0.00000000000E+00 0.  1.
          1    1    3    3  501    0  0.93196552808E+02 -0.30362757895E+03 -0.55419850456E+03  0.63875761178E+03  0.00000000000E+00 0.  1.
         21    1    1    2  502  501 -0.25080712647E-03  0.53746043588E-03  0.66413632412E-02  0.66677937608E-02  0.00000000000E+00 0. -1.
<mgrwt>
<rscale>  1 0.64738277E+03</rscale>
<asrwt>0</asrwt>
<pdfrwt beam="1">  1        1 0.38102905E+00 0.64738277E+03</pdfrwt>
<pdfrwt beam="2">0</pdfrwt>
<totfact> 0.16246828E+00</totfact>
</mgrwt>
</event>
<event>
 6    1  0.6001850E-003  0.5373771E+03  0.7818608E-02  0.1004459E+00
          1   -1    0    0  502    0  0.00000000000E+00  0.00000000000E+00  0.72251336576E+02  0.72251336576E+02  0.00000000000E+00 0.  1.
         13   -1    0    0    0    0 -0.00000000000E+00 -0.00000000000E+00 -0.10000000000E+04  0.10000000000E+04  0.00000000000E+00 0.  1.
    9000005    2    1    2  501    0  0.76383938076E-01 -0.28175458466E-01 -0.92777455502E+03  0.10721659039E+04  0.53737705011E+03 0.  0.
         13    1    3    3    0    0 -0.19140765809E+03  0.15324004852E+03 -0.68288977969E+03  0.72557415559E+03  0.00000000000E+00 0.  1.
          3    1    3    3  501    0  0.19148404203E+03 -0.15326822397E+03 -0.24488477532E+03  0.34659174834E+03  0.00000000000E+00 0.  1.
         21    1    1    2  502  501 -0.76383938076E-01  0.28175458466E-01  0.25891594246E-01  0.85432646619E-01  0.00000000000E+00 0. -1.
<mgrwt>
<rscale>  1 0.53737706E+03</rscale>
<asrwt>0</asrwt>
<pdfrwt beam="1">  1        1 0.26273269E+00 0.53737706E+03</pdfrwt>
<pdfrwt beam="2">0</pdfrwt>
<totfact> 0.54037344E+00</totfact>
</mgrwt>
</event>
<event>
 6    1  0.6001850E-003  0.6387483E+03  0.7818608E-02  0.9828124E-01
          1   -1    0    0  502    0  0.00000000000E+00  0.00000000000E+00  0.10199984938E+03  0.10199984938E+03  0.00000000000E+00 0.  1.
         13   -1    0    0    0    0 -0.00000000000E+00 -0.00000000000E+00 -0.10000000000E+04  0.10000000000E+04  0.00000000000E+00 0.  1.
    9000005    2    1    2  501    0 -0.34809755789E-06  0.36416270035E-05 -0.89800015087E+03  0.11019998457E+04  0.63874829862E+03 0.  0.
         13    1    3    3    0    0  0.10269258122E+03 -0.88670838263E+02 -0.94780760409E+03  0.95746934059E+03  0.00000000000E+00 0.  1.
          3    1    3    3  501    0 -0.10269258157E+03  0.88670841905E+02  0.49807453229E+02  0.14453050512E+03  0.00000000000E+00 0.  1.
         21    1    1    2  502  501  0.34809756577E-06 -0.36416270032E-05  0.24279704378E-06  0.36662746147E-05  0.00000000000E+00 0. -1.
<mgrwt>
<rscale>  1 0.63874830E+03</rscale>
<asrwt>0</asrwt>
<pdfrwt beam="1">  1        1 0.37090933E+00 0.63874830E+03</pdfrwt>
<pdfrwt beam="2">0</pdfrwt>
<totfact> 0.18031059E+00</totfact>
</mgrwt>
</event>
<event>
 6    1  0.6001850E-003  0.6464476E+03  0.7818608E-02  0.9813468E-01
          1   -1    0    0  502    0  0.00000000000E+00  0.00000000000E+00  0.10846667536E+03  0.10846667536E+03  0.00000000000E+00 0.  1.
         13   -1    0    0    0    0 -0.00000000000E+00 -0.00000000000E+00 -0.10000000000E+04  0.10000000000E+04  0.00000000000E+00 0.  1.
    9000005    2    1    2  501    0  0.11095313324E+02 -0.78848120238E+00 -0.86648822067E+03  0.10810625714E+04  0.64635185391E+03 0.  0.
         13    1    3    3    0    0  0.15765855521E+02 -0.31697452659E+03 -0.32671419422E+03  0.45548169822E+03  0.00000000000E+00 0.  1.
          1    1    3    3  501    0 -0.46705421970E+01  0.31618604539E+03 -0.53977402645E+03  0.62558087318E+03  0.00000000000E+00 0.  1.
         21    1    1    2  502  501 -0.11095313324E+02  0.78848120238E+00 -0.25045103976E+02  0.27404103954E+02  0.00000000000E+00 0.  1.
<mgrwt>
<rscale>  1 0.64644756E+03</rscale>
<asrwt>0</asrwt>
<pdfrwt beam="1">  1        1 0.39442511E+00 0.64644756E+03</pdfrwt>
<pdfrwt beam="2">0</pdfrwt>
<totfact> 0.14174822E+00</totfact>
</mgrwt>
</event>
<event>
 6    1  0.6001850E-003  0.6462167E+03  0.7818608E-02  0.9813904E-01
          1   -1    0    0  502    0  0.00000000000E+00  0.00000000000E+00  0.12141873193E+03  0.12141873193E+03  0.00000000000E+00 0.  1.
         13   -1    0    0    0    0 -0.00000000000E+00 -0.00000000000E+00 -0.10000000000E+04  0.10000000000E+04  0.00000000000E+00 0.  1.
    9000005    2    1    2  501    0 -0.89935400532E+01 -0.27586021961E+02 -0.88067321491E+03  0.10923283794E+04  0.64556494992E+03 0.  0.
         13    1    3    3    0    0  0.65459530134E+01  0.30677012913E+03 -0.48688678671E+03  0.57550804052E+03  0.00000000000E+00 0.  1.
          1    1    3    3  501    0 -0.15539493067E+02 -0.33435615110E+03 -0.39378642820E+03  0.51682033885E+03  0.00000000000E+00 0.  1.
         21    1    1    2  502  501  0.89935400532E+01  0.27586021961E+02  0.20919468354E+01  0.29090352557E+02  0.00000000000E+00 0. -1.
<mgrwt>
<rscale>  1 0.64621666E+03</rscale>
<asrwt>0</asrwt>
<pdfrwt beam="1">  1        1 0.44152359E+00 0.64621666E+03</pdfrwt>
<pdfrwt beam="2">0</pdfrwt>
<totfact> 0.86962068E-01</totfact>
</mgrwt>
</event>
<event>
 6    1  0.6001850E-003  0.6526261E+03  0.7818608E-02  0.9801864E-01
          1   -1    0    0  502    0  0.00000000000E+00  0.00000000000E+00  0.10675912934E+03  0.10675912934E+03  0.00000000000E+00 0.  1.
         13   -1    0    0    0    0 -0.00000000000E+00 -0.00000000000E+00 -0.10000000000E+04  0.10000000000E+04  0.00000000000E+00 0.  1.
    9000005    2    1    2  501    0 -0.47394582558E+00  0.50728456050E+00 -0.89291582845E+03  0.11059925690E+04  0.65262577645E+03 0.  0.
         13    1    3    3    0    0 -0.88340124267E+02 -0.20143551147E+03 -0.38059229702E+02  0.22322353774E+03  0.00000000000E+00 0.  1.
          3    1    3    3  501    0  0.87866178442E+02  0.20194279603E+03 -0.85485659875E+03  0.88276903129E+03  0.00000000000E+00 0.  1.
         21    1    1    2  502  501  0.47394582558E+00 -0.50728456050E+00 -0.32504221580E+00  0.76656031267E+00  0.00000000000E+00 0.  1.
<mgrwt>
<rscale>  1 0.65262615E+03</rscale>
<asrwt>0</asrwt>
<pdfrwt beam="1">  1        1 0.38821583E+00 0.65262615E+03</pdfrwt>
<pdfrwt beam="2">0</pdfrwt>
<totfact> 0.15085695E+00</totfact>
</mgrwt>
</event>
<event>
 6    1  0.6001850E-003  0.6591176E+03  0.7818608E-02  0.9789819E-01
          1   -1    0    0  502    0  0.00000000000E+00  0.00000000000E+00  0.10861838972E+03  0.10861838972E+03  0.00000000000E+00 0.  1.
         13   -1    0    0    0    0 -0.00000000000E+00 -0.00000000000E+00 -0.10000000000E+04  0.10000000000E+04  0.00000000000E+00 0.  1.
    9000005    2    1    2  501    0  0.57277825658E-03  0.83225023920E-03 -0.89139096138E+03  0.11086089842E+04  0.65911761758E+03 0.  0.
         13    1    3    3    0    0  0.27932805686E+03  0.12488056519E+03 -0.65162412388E+03  0.71988423912E+03  0.00000000000E+00 0.  1.
          3    1    3    3  501    0 -0.27932748409E+03 -0.12487973294E+03 -0.23976683750E+03  0.38872474507E+03  0.00000000000E+00 0.  1.
         21    1    1    2  502  501 -0.57277825656E-03 -0.83225023921E-03  0.93511059686E-02  0.94055248778E-02  0.00000000000E+00 0.  1.
<mgrwt>
<rscale>  1 0.65911762E+03</rscale>
<asrwt>0</asrwt>
<pdfrwt beam="1">  1        1 0.39497680E+00 0.65911762E+03</pdfrwt>
<pdfrwt beam="2">0</pdfrwt>
<totfact> 0.14061535E+00</totfact>
</mgrwt>
</event>
<event>
 6    1  0.6001850E-003  0.6464879E+03  0.7818608E-02  0.9813392E-01
          1   -1    0    0  502    0  0.00000000000E+00  0.00000000000E+00  0.10465503222E+03  0.10465503222E+03  0.00000000000E+00 0.  1.
         13   -1    0    0    0    0 -0.00000000000E+00 -0.00000000000E+00 -0.10000000000E+04  0.10000000000E+04  0.00000000000E+00 0.  1.
    9000005    2    1    2  501    0 -0.43681893144E-01 -0.12464078865E+00 -0.89548426932E+03  0.11044630730E+04  0.64648788505E+03 0.  0.
         13    1    3    3    0    0  0.56643701916E+02  0.31207447204E+03 -0.55360611533E+03  0.63802720631E+03  0.00000000000E+00 0.  1.
          3    1    3    3  501    0 -0.56687383810E+02 -0.31219911283E+03 -0.34187815399E+03  0.46643586666E+03  0.00000000000E+00 0.  1.
         21    1    1    2  502  501  0.43681893144E-01  0.12464078865E+00  0.13930153972E+00  0.19195924815E+00  0.00000000000E+00 0.  1.
<mgrwt>
<rscale>  1 0.64648790E+03</rscale>
<asrwt>0</asrwt>
<pdfrwt beam="1">  1        1 0.38056456E+00 0.64648790E+03</pdfrwt>
<pdfrwt beam="2">0</pdfrwt>
<totfact> 0.16326396E+00</totfact>
</mgrwt>
</event>
<event>
 6    1  0.6001850E-003  0.6537177E+03  0.7818608E-02  0.9799828E-01
          1   -1    0    0  502    0  0.00000000000E+00  0.00000000000E+00  0.10683682889E+03  0.10683682889E+03  0.00000000000E+00 0.  1.
         13   -1    0    0    0    0 -0.00000000000E+00 -0.00000000000E+00 -0.10000000000E+04  0.10000000000E+04  0.00000000000E+00 0.  1.
    9000005    2    1    2  501    0 -0.26546515113E-03  0.14438406069E-03 -0.89316295405E+03  0.11068364568E+04  0.65371773700E+03 0.  0.
         13    1    3    3    0    0 -0.29343043728E+03 -0.14046466130E+03 -0.39290514984E+03  0.51010410641E+03  0.00000000000E+00 0.  1.
          3    1    3    3  501    0  0.29343017182E+03  0.14046480569E+03 -0.50025780420E+03  0.59673235042E+03  0.00000000000E+00 0.  1.
         21    1    1    2  502  501  0.26546515109E-03 -0.14438406069E-03 -0.21706312186E-03  0.37206841077E-03  0.00000000000E+00 0. -1.
<mgrwt>
<rscale>  1 0.65371774E+03</rscale>
<asrwt>0</asrwt>
<pdfrwt beam="1">  1        1 0.38849838E+00 0.65371774E+03</pdfrwt>
<pdfrwt beam="2">0</pdfrwt>
<totfact> 0.15039230E+00</totfact>
</mgrwt>
</event>
<event>
 6    1  0.6001850E-003  0.6646868E+03  0.7818608E-02  0.9779604E-01
          1   -1    0    0  502    0  0.00000000000E+00  0.00000000000E+00  0.11045212936E+03  0.11045212936E+03  0.00000000000E+00 0.  1.
         13   -1    0    0    0    0 -0.00000000000E+00 -0.00000000000E+00 -0.10000000000E+04  0.10000000000E+04  0.00000000000E+00 0.  1.
    9000005    2    1    2  501    0  0.28276587045E-05  0.79640207531E-05 -0.88954787713E+03  0.11104521187E+04  0.66468675496E+03 0.  0.
         13    1    3    3    0    0 -0.30338962807E+03  0.93387460618E+02 -0.60919100243E+03  0.68693534023E+03  0.00000000000E+00 0.  1.
          3    1    3    3  501    0  0.30338963090E+03 -0.93387452654E+02 -0.28035687471E+03  0.42351677847E+03  0.00000000000E+00 0.  1.
         21    1    1    2  502  501 -0.28276587157E-05 -0.79640207535E-05  0.64941344752E-05  0.10658098468E-04  0.00000000000E+00 0.  1.
<mgrwt>
<rscale>  1 0.66468675E+03</rscale>
<asrwt>0</asrwt>
<pdfrwt beam="1">  1        1 0.40164495E+00 0.66468675E+03</pdfrwt>
<pdfrwt beam="2">0</pdfrwt>
<totfact> 0.13118183E+00</totfact>
</mgrwt>
</event>
<event>
 6    1  0.6001850E-003  0.5687185E+03  0.7818608E-02  0.9972518E-01
          1   -1    0    0  502    0  0.00000000000E+00  0.00000000000E+00  0.81210796054E+02  0.81210796054E+02  0.00000000000E+00 0.  1.
         13   -1    0    0    0    0 -0.00000000000E+00 -0.00000000000E+00 -0.10000000000E+04  0.10000000000E+04  0.00000000000E+00 0.  1.
    9000005    2    1    2  501    0  0.62620483552E-01  0.11637000547E+00 -0.91912631998E+03  0.10808487042E+04  0.56871848203E+03 0.  0.
         13    1    3    3    0    0 -0.28379816908E+02 -0.26063283697E+03 -0.66846781820E+03  0.71804186068E+03  0.00000000000E+00 0.  1.
          3    1    3    3  501    0  0.28442437391E+02  0.26074920698E+03 -0.25065850178E+03  0.36280684351E+03  0.00000000000E+00 0.  1.
         21    1    1    2  502  501 -0.62620483552E-01 -0.11637000547E+00  0.33711603031E+00  0.36209186821E+00  0.00000000000E+00 0. -1.
<mgrwt>
<rscale>  1 0.56871850E+03</rscale>
<asrwt>0</asrwt>
<pdfrwt beam="1">  1        1 0.29531261E+00 0.56871850E+03</pdfrwt>
<pdfrwt beam="2">0</pdfrwt>
<totfact> 0.38871289E+00</totfact>
</mgrwt>
</event>
<event>
 6    1  0.6001850E-003  0.6531356E+03  0.7818608E-02  0.9800913E-01
          1   -1    0    0  502    0  0.00000000000E+00  0.00000000000E+00  0.10724265764E+03  0.10724265764E+03  0.00000000000E+00 0.  1.
         13   -1    0    0    0    0 -0.00000000000E+00 -0.00000000000E+00 -0.10000000000E+04  0.10000000000E+04  0.00000000000E+00 0.  1.
    9000005    2    1    2  501    0 -0.15162061194E-01  0.15504821941E-02 -0.89335337639E+03  0.11066464288E+04  0.65313556250E+03 0.  0.
         13    1    3    3    0    0  0.98249030676E+02  0.97406366002E+02 -0.94788450527E+03  0.95792792395E+03  0.00000000000E+00 0.  1.
          3    1    3    3  501    0 -0.98264192737E+02 -0.97404815519E+02  0.54531128881E+02  0.14871850483E+03  0.00000000000E+00 0.  1.
         21    1    1    2  502  501  0.15162061194E-01 -0.15504821941E-02  0.59603402375E+00  0.59622885670E+00  0.00000000000E+00 0. -1.
<mgrwt>
<rscale>  1 0.65313556E+03</rscale>
<asrwt>0</asrwt>
<pdfrwt beam="1">  1        1 0.38997412E+00 0.65313556E+03</pdfrwt>
<pdfrwt beam="2">0</pdfrwt>
<totfact> 0.14815991E+00</totfact>
</mgrwt>
</event>
<event>
 6    1  0.6001850E-003  0.6667408E+03  0.7818608E-02  0.9775864E-01
          1   -1    0    0  502    0  0.00000000000E+00  0.00000000000E+00  0.11837399801E+03  0.11837399801E+03  0.00000000000E+00 0.  1.
         13   -1    0    0    0    0 -0.00000000000E+00 -0.00000000000E+00 -0.10000000000E+04  0.10000000000E+04  0.00000000000E+00 0.  1.
    9000005    2    1    2  501    0 -0.26974048516E-01 -0.18504876590E+00 -0.88886282607E+03  0.11111347582E+04  0.66674079843E+03 0.  0.
         13    1    3    3    0    0  0.71791473210E+01  0.39031642719E+02  0.10718133738E+03  0.11429281855E+03  0.00000000000E+00 0.  1.
          3    1    3    3  501    0 -0.72061213695E+01 -0.39216691485E+02 -0.99604416344E+03  0.99684193963E+03  0.00000000000E+00 0.  1.
         21    1    1    2  502  501  0.26974048516E-01  0.18504876590E+00  0.72368240790E+01  0.72392398355E+01  0.00000000000E+00 0.  1.
<mgrwt>
<rscale>  1 0.66674082E+03</rscale>
<asrwt>0</asrwt>
<pdfrwt beam="1">  1        1 0.43045181E+00 0.66674082E+03</pdfrwt>
<pdfrwt beam="2">0</pdfrwt>
<totfact> 0.97277193E-01</totfact>
</mgrwt>
</event>
<event>
 6    1  0.6001850E-003  0.6631415E+03  0.7818608E-02  0.9782428E-01
          1   -1    0    0  502    0  0.00000000000E+00  0.00000000000E+00  0.10993916770E+03  0.10993916770E+03  0.00000000000E+00 0.  1.
         13   -1    0    0    0    0 -0.00000000000E+00 -0.00000000000E+00 -0.10000000000E+04  0.10000000000E+04  0.00000000000E+00 0.  1.
    9000005    2    1    2  501    0  0.42704738874E-05 -0.13677813513E-05 -0.89006083697E+03  0.11099391612E+04  0.66314149933E+03 0.  0.
         13    1    3    3    0    0 -0.80758439457E+01 -0.19061630313E+03 -0.89892282241E+03  0.91894615453E+03  0.00000000000E+00 0.  1.
          3    1    3    3  501    0  0.80758482162E+01  0.19061630176E+03  0.88619854477E+01  0.19099300670E+03  0.00000000000E+00 0.  1.
         21    1    1    2  502  501 -0.42704738877E-05  0.13677813572E-05  0.46659640958E-05  0.64713981495E-05  0.00000000000E+00 0.  1.
<mgrwt>
<rscale>  1 0.66314150E+03</rscale>
<asrwt>0</asrwt>
<pdfrwt beam="1">  1        1 0.39977963E+00 0.66314150E+03</pdfrwt>
<pdfrwt beam="2">0</pdfrwt>
<totfact> 0.13375833E+00</totfact>
</mgrwt>
</event>
<event>
 6    1  0.6001850E-003  0.6759232E+03  0.7818608E-02  0.9759316E-01
          1   -1    0    0  502    0  0.00000000000E+00  0.00000000000E+00  0.11421806506E+03  0.11421806506E+03  0.00000000000E+00 0.  1.
         13   -1    0    0    0    0 -0.00000000000E+00 -0.00000000000E+00 -0.10000000000E+04  0.10000000000E+04  0.00000000000E+00 0.  1.
    9000005    2    1    2  501    0  0.49700340981E-05 -0.36491467483E-05 -0.88578194309E+03  0.11142180548E+04  0.67592323754E+03 0.  0.
         13    1    3    3    0    0  0.10237458744E+03 -0.24749575690E+03 -0.10312318943E+03  0.28700017079E+03  0.00000000000E+00 0.  1.
          3    1    3    3  501    0 -0.10237458247E+03  0.24749575325E+03 -0.78265875366E+03  0.82721788405E+03  0.00000000000E+00 0.  1.
         21    1    1    2  502  501 -0.49700341000E-05  0.36491467317E-05  0.81471838159E-05  0.10217343831E-04  0.00000000000E+00 0.  1.
<mgrwt>
<rscale>  1 0.67592324E+03</rscale>
<asrwt>0</asrwt>
<pdfrwt beam="1">  1        1 0.41533929E+00 0.67592324E+03</pdfrwt>
<pdfrwt beam="2">0</pdfrwt>
<totfact> 0.11365192E+00</totfact>
</mgrwt>
</event>
<event>
 6    1  0.6001850E-003  0.6430435E+03  0.7818608E-02  0.9819921E-01
          1   -1    0    0  502    0  0.00000000000E+00  0.00000000000E+00  0.10359775982E+03  0.10359775982E+03  0.00000000000E+00 0.  1.
         13   -1    0    0    0    0 -0.00000000000E+00 -0.00000000000E+00 -0.10000000000E+04  0.10000000000E+04  0.00000000000E+00 0.  1.
    9000005    2    1    2  501    0 -0.25683698435E-02 -0.16858924174E-02 -0.89662374386E+03  0.11033762348E+04  0.64304352692E+03 0.  0.
         13    1    3    3    0    0 -0.19976883675E+03  0.47533674108E+02 -0.23797689997E+02  0.20672050784E+03  0.00000000000E+00 0.  1.
          3    1    3    3  501    0  0.19976626838E+03 -0.47535360001E+02 -0.87282605387E+03  0.89665572699E+03  0.00000000000E+00 0.  1.
         21    1    1    2  502  501  0.25683698435E-02  0.16858924174E-02  0.22150368480E+00  0.22152498987E+00  0.00000000000E+00 0. -1.
<mgrwt>
<rscale>  1 0.64304353E+03</rscale>
<asrwt>0</asrwt>
<pdfrwt beam="1">  1        1 0.37671992E+00 0.64304353E+03</pdfrwt>
<pdfrwt beam="2">0</pdfrwt>
<totfact> 0.16987018E+00</totfact>
</mgrwt>
</event>
<event>
 6    1  0.6009464E-003  0.5766976E+03  0.7818608E-02  0.9954966E-01
          1   -1    0    0  502    0  0.00000000000E+00  0.00000000000E+00  0.83145038889E+02  0.83145038889E+02  0.00000000000E+00 0.  1.
         13   -1    0    0    0    0 -0.00000000000E+00 -0.00000000000E+00 -0.10000000000E+04  0.10000000000E+04  0.00000000000E+00 0.  1.
    9000005    2    1    2  501    0 -0.52970324305E-06  0.28831925391E-04 -0.91685496589E+03  0.10831450097E+04  0.57669756673E+03 0.  0.
         13    1    3    3    0    0  0.18538119126E+03  0.18263657675E+03 -0.69167606317E+03  0.73901155715E+03  0.00000000000E+00 0.  1.
          3    1    3    3  501    0 -0.18538119179E+03 -0.18263654792E+03 -0.22517890272E+03  0.34413345251E+03  0.00000000000E+00 0.  1.
         21    1    1    2  502  501  0.52970324879E-06 -0.28831925367E-04  0.47795165639E-05  0.29230194739E-04  0.00000000000E+00 0. -1.
<mgrwt>
<rscale>  1 0.57669757E+03</rscale>
<asrwt>0</asrwt>
<pdfrwt beam="1">  1        1 0.30234623E+00 0.57669757E+03</pdfrwt>
<pdfrwt beam="2">0</pdfrwt>
<totfact> 0.36197496E+00</totfact>
</mgrwt>
</event>
<event>
 6    1  0.6001850E-003  0.6632796E+03  0.7818608E-02  0.9782175E-01
          1   -1    0    0  502    0  0.00000000000E+00  0.00000000000E+00  0.10999178711E+03  0.10999178711E+03  0.00000000000E+00 0.  1.
         13   -1    0    0    0    0 -0.00000000000E+00 -0.00000000000E+00 -0.10000000000E+04  0.10000000000E+04  0.00000000000E+00 0.  1.
    9000005    2    1    2  501    0  0.34134187345E-02  0.39680167168E-02 -0.89001390322E+03  0.11099840556E+04  0.66327962106E+03 0.  0.
         13    1    3    3    0    0 -0.11808210436E+02 -0.32483266041E+03 -0.33491096456E+03  0.46671302241E+03  0.00000000000E+00 0.  1.
          1    1    3    3  501    0  0.11811623855E+02  0.32483662842E+03 -0.55510293866E+03  0.64327103318E+03  0.00000000000E+00 0.  1.
         21    1    1    2  502  501 -0.34134187345E-02 -0.39680167168E-02  0.56903294386E-02  0.77315220521E-02  0.00000000000E+00 0. -1.
<mgrwt>
<rscale>  1 0.66327962E+03</rscale>
<asrwt>0</asrwt>
<pdfrwt beam="1">  1        1 0.39997098E+00 0.66327962E+03</pdfrwt>
<pdfrwt beam="2">0</pdfrwt>
<totfact> 0.13349236E+00</totfact>
</mgrwt>
</event>
<event>
 6    1  0.6001850E-003  0.6565371E+03  0.7818608E-02  0.9794590E-01
          1   -1    0    0  502    0  0.00000000000E+00  0.00000000000E+00  0.13111749523E+03  0.13111749523E+03  0.00000000000E+00 0.  1.
         13   -1    0    0    0    0 -0.00000000000E+00 -0.00000000000E+00 -0.10000000000E+04  0.10000000000E+04  0.00000000000E+00 0.  1.
    9000005    2    1    2  501    0 -0.66640543010E+01  0.20939463725E+02 -0.88636721380E+03  0.11030357252E+04  0.65616926361E+03 0.  0.
         13    1    3    3    0    0 -0.21854890393E+03 -0.20522798533E+03 -0.64135848793E+03  0.70797094532E+03  0.00000000000E+00 0.  1.
          3    1    3    3  501    0  0.21188484963E+03  0.22616744906E+03 -0.24500872587E+03  0.39506477984E+03  0.00000000000E+00 0.  1.
         21    1    1    2  502  501  0.66640543010E+01 -0.20939463725E+02  0.17484709026E+02  0.28081770075E+02  0.00000000000E+00 0. -1.
<mgrwt>
<rscale>  1 0.65653711E+03</rscale>
<asrwt>0</asrwt>
<pdfrwt beam="1">  1        1 0.47679190E+00 0.65653711E+03</pdfrwt>
<pdfrwt beam="2">0</pdfrwt>
<totfact> 0.59533834E-01</totfact>
</mgrwt>
</event>
<event>
 6    1  0.6001850E-003  0.6521133E+03  0.7818608E-02  0.9802822E-01
          1   -1    0    0  502    0  0.00000000000E+00  0.00000000000E+00  0.10956741554E+03  0.10956741554E+03  0.00000000000E+00 0.  1.
         13   -1    0    0    0    0 -0.00000000000E+00 -0.00000000000E+00 -0.10000000000E+04  0.10000000000E+04  0.00000000000E+00 0.  1.
    9000005    2    1    2  501    0 -0.71102454461E+00 -0.66359992220E+00 -0.89360647473E+03  0.11062478523E+04  0.65211259232E+03 0.  0.
         13    1    3    3    0    0  0.17206095553E+03 -0.87640345384E+01  0.22688410735E+02  0.17377153018E+03  0.00000000000E+00 0.  1.
          3    1    3    3  501    0 -0.17277198008E+03  0.81004346162E+01 -0.91629488547E+03  0.93247632210E+03  0.00000000000E+00 0.  1.
         21    1    1    2  502  501  0.71102454461E+00  0.66359992220E+00  0.31738902742E+01  0.33195632593E+01  0.00000000000E+00 0.  1.
<mgrwt>
<rscale>  1 0.65211332E+03</rscale>
<asrwt>0</asrwt>
<pdfrwt beam="1">  1        1 0.39842781E+00 0.65211332E+03</pdfrwt>
<pdfrwt beam="2">0</pdfrwt>
<totfact> 0.13590820E+00</totfact>
</mgrwt>
</event>
<event>
 6    1  0.6001850E-003  0.5834228E+03  0.7818608E-02  0.9940408E-01
          1   -1    0    0  502    0  0.00000000000E+00  0.00000000000E+00  0.92159217818E+02  0.92159217818E+02  0.00000000000E+00 0.  1.
         13   -1    0    0    0    0 -0.00000000000E+00 -0.00000000000E+00 -0.10000000000E+04  0.10000000000E+04  0.00000000000E+00 0.  1.
    9000005    2    1    2  501    0 -0.47447954701E+01 -0.68435342842E+01 -0.91215669579E+03  0.10827797639E+04  0.58336337937E+03 0.  0.
         13    1    3    3    0    0 -0.54420334394E+02 -0.20658603267E+03 -0.83672331663E+03  0.86356544065E+03  0.00000000000E+00 0.  1.
          1    1    3    3  501    0  0.49675538924E+02  0.19974249838E+03 -0.75433379162E+02  0.21921432325E+03  0.00000000000E+00 0.  1.
         21    1    1    2  502  501  0.47447954701E+01  0.68435342842E+01  0.43159136064E+01  0.93794539185E+01  0.00000000000E+00 0.  1.
<mgrwt>
<rscale>  1 0.58342281E+03</rscale>
<asrwt>0</asrwt>
<pdfrwt beam="1">  1        1 0.33512514E+00 0.58342281E+03</pdfrwt>
<pdfrwt beam="2">0</pdfrwt>
<totfact> 0.26091678E+00</totfact>
</mgrwt>
</event>
<event>
 6    1  0.6001850E-003  0.6791052E+03  0.7818608E-02  0.9753648E-01
          1   -1    0    0  502    0  0.00000000000E+00  0.00000000000E+00  0.11529602927E+03  0.11529602927E+03  0.00000000000E+00 0.  1.
         13   -1    0    0    0    0 -0.00000000000E+00 -0.00000000000E+00 -0.10000000000E+04  0.10000000000E+04  0.00000000000E+00 0.  1.
    9000005    2    1    2  501    0 -0.21878411097E-04 -0.22625848459E-04 -0.88470400996E+03  0.11152959790E+04  0.67910524625E+03 0.  0.
         13    1    3    3    0    0 -0.56582431864E+02 -0.15879999880E+03 -0.92641893143E+03  0.94163211911E+03  0.00000000000E+00 0.  1.
          3    1    3    3  501    0  0.56582409985E+02  0.15879997617E+03  0.41714921476E+02  0.17366385987E+03  0.00000000000E+00 0.  1.
         21    1    1    2  502  501  0.21878411098E-04  0.22625848448E-04  0.39227635028E-04  0.50293153014E-04  0.00000000000E+00 0. -1.
<mgrwt>
<rscale>  1 0.67910525E+03</rscale>
<asrwt>0</asrwt>
<pdfrwt beam="1">  1        1 0.41925917E+00 0.67910525E+03</pdfrwt>
<pdfrwt beam="2">0</pdfrwt>
<totfact> 0.10905581E+00</totfact>
</mgrwt>
</event>
<event>
 6    1  0.6001850E-003  0.6045440E+03  0.7818608E-02  0.9896023E-01
          1   -1    0    0  502    0  0.00000000000E+00  0.00000000000E+00  0.91368369141E+02  0.91368369141E+02  0.00000000000E+00 0.  1.
         13   -1    0    0    0    0 -0.00000000000E+00 -0.00000000000E+00 -0.10000000000E+04  0.10000000000E+04  0.00000000000E+00 0.  1.
    9000005    2    1    2  501    0 -0.31379127563E-06  0.13941068829E-04 -0.90863163349E+03  0.10913683550E+04  0.60454399411E+03 0.  0.
         13    1    3    3    0    0  0.20789346588E+02 -0.18187569479E+03 -0.20082761455E+02  0.18415830851E+03  0.00000000000E+00 0.  1.
          1    1    3    3  501    0 -0.20789346902E+02  0.18187570873E+03 -0.88854887203E+03  0.90721004644E+03  0.00000000000E+00 0.  1.
         21    1    1    2  502  501  0.31379127785E-06 -0.13941068816E-04  0.26296008505E-05  0.14190372276E-04  0.00000000000E+00 0.  1.
<mgrwt>
<rscale>  1 0.60454399E+03</rscale>
<asrwt>0</asrwt>
<pdfrwt beam="1">  1        1 0.33224932E+00 0.60454399E+03</pdfrwt>
<pdfrwt beam="2">0</pdfrwt>
<totfact> 0.26747485E+00</totfact>
</mgrwt>
</event>
<event>
 6    1  0.6001850E-003  0.6260041E+03  0.7818608E-02  0.9852878E-01
          1   -1    0    0  502    0  0.00000000000E+00  0.00000000000E+00  0.97971119352E+02  0.97971119352E+02  0.00000000000E+00 0.  1.
         13   -1    0    0    0    0 -0.00000000000E+00 -0.00000000000E+00 -0.10000000000E+04  0.10000000000E+04  0.00000000000E+00 0.  1.
    9000005    2    1    2  501    0 -0.14207786072E-03  0.11118429738E-03 -0.90202971499E+03  0.10979702657E+04  0.62600407164E+03 0.  0.
         13    1    3    3    0    0  0.22185800353E+03  0.98917380221E+02 -0.79723206704E+03  0.83341741676E+03  0.00000000000E+00 0.  1.
          3    1    3    3  501    0 -0.22185814561E+03 -0.98917269036E+02 -0.10479764795E+03  0.26455284897E+03  0.00000000000E+00 0.  1.
         21    1    1    2  502  501  0.14207786071E-03 -0.11118429738E-03  0.83433814004E-03  0.85362064081E-03  0.00000000000E+00 0. -1.
<mgrwt>
<rscale>  1 0.62600407E+03</rscale>
<asrwt>0</asrwt>
<pdfrwt beam="1">  1        1 0.35625937E+00 0.62600407E+03</pdfrwt>
<pdfrwt beam="2">0</pdfrwt>
<totfact> 0.20950293E+00</totfact>
</mgrwt>
</event>
<event>
 6    1  0.6001850E-003  0.5538551E+03  0.7818608E-02  0.1000606E+00
          1   -1    0    0  502    0  0.00000000000E+00  0.00000000000E+00  0.76740037707E+02  0.76740037707E+02  0.00000000000E+00 0.  1.
         13   -1    0    0    0    0 -0.00000000000E+00 -0.00000000000E+00 -0.10000000000E+04  0.10000000000E+04  0.00000000000E+00 0.  1.
    9000005    2    1    2  501    0 -0.24928247170E-02 -0.29481438312E-02 -0.92331105313E+03  0.10766888012E+04  0.55385510180E+03 0.  0.
         13    1    3    3    0    0  0.16144548338E+03 -0.13540843513E+03 -0.11233842827E+03  0.23878863221E+03  0.00000000000E+00 0.  1.
          3    1    3    3  501    0 -0.16144797620E+03  0.13540548699E+03 -0.81097262486E+03  0.83790016899E+03  0.00000000000E+00 0.  1.
         21    1    1    2  502  501  0.24928247170E-02  0.29481438312E-02  0.51090835867E-01  0.51236502972E-01  0.00000000000E+00 0.  1.
<mgrwt>
<rscale>  1 0.55385510E+03</rscale>
<asrwt>0</asrwt>
<pdfrwt beam="1">  1        1 0.27905527E+00 0.55385510E+03</pdfrwt>
<pdfrwt beam="2">0</pdfrwt>
<totfact> 0.45803038E+00</totfact>
</mgrwt>
</event>
