<event>
 6    1  0.6419182E-003  0.6411708E+03  0.7818608E-02  0.9823489E-01
          1   -1    0    0  502    0  0.00000000000E+00  0.00000000000E+00  0.10277618112E+03  0.10277618112E+03  0.00000000000E+00 0.  1.
         13   -1    0    0    0    0 -0.00000000000E+00 -0.00000000000E+00 -0.10000000000E+04  0.10000000000E+04  0.00000000000E+00 0.  1.
    9000005    2    1    2  501    0 -0.36813103350E-04  0.36128994168E-04 -0.89722500618E+03  0.11027749927E+04  0.64117078288E+03 0.  0.
         13    1    3    3    0    0 -0.27517379944E+03  0.16315148429E+03 -0.48452520983E+03  0.58060632590E+03  0.00000000000E+00 0.  1.
          1    1    3    3  501    0  0.27517376262E+03 -0.16315144816E+03 -0.41269979635E+03  0.52216866680E+03  0.00000000000E+00 0.  1.
         21    1    1    2  502  501  0.36813103346E-04 -0.36128994174E-04  0.11872945812E-02  0.11884144611E-02  0.00000000000E+00 0.  1.
<mgrwt>
<rscale>  1 0.64117078E+03</rscale>
<asrwt>0</asrwt>
<pdfrwt beam="1">  1        1 0.37373236E+00 0.64117078E+03</pdfrwt>
<pdfrwt beam="2">0</pdfrwt>
<totfact> 0.17515316E+00</totfact>
</mgrwt>
</event>
<event>
 6    1  0.6419182E-003  0.6479222E+03  0.7818608E-02  0.9810686E-01
          1   -1    0    0  502    0  0.00000000000E+00  0.00000000000E+00  0.10495079734E+03  0.10495079734E+03  0.00000000000E+00 0.  1.
         13   -1    0    0    0    0 -0.00000000000E+00 -0.00000000000E+00 -0.10000000000E+04  0.10000000000E+04  0.00000000000E+00 0.  1.
    9000005    2    1    2  501    0  0.43545272717E-04 -0.12200973828E-04 -0.89504913278E+03  0.11049507141E+04  0.64792216394E+03 0.  0.
         13    1    3    3    0    0  0.13665047735E+03  0.20327635099E+03 -0.80911312088E+03  0.84537486964E+03  0.00000000000E+00 0.  1.
          3    1    3    3  501    0 -0.13665043381E+03 -0.20327636319E+03 -0.85936011903E+02  0.25957584448E+03  0.00000000000E+00 0.  1.
         21    1    1    2  502  501 -0.43545272724E-04  0.12200973834E-04 -0.69875010074E-04  0.83232034530E-04  0.00000000000E+00 0.  1.
<mgrwt>
<rscale>  1 0.64792216E+03</rscale>
<asrwt>0</asrwt>
<pdfrwt beam="1">  1        1 0.38164007E+00 0.64792216E+03</pdfrwt>
<pdfrwt beam="2">0</pdfrwt>
<totfact> 0.16144617E+00</totfact>
</mgrwt>
</event>
<event>
 6    1  0.6419182E-003  0.6801831E+03  0.7818608E-02  0.9751735E-01
          1   -1    0    0  502    0  0.00000000000E+00  0.00000000000E+00  0.11566233588E+03  0.11566233588E+03  0.00000000000E+00 0.  1.
         13   -1    0    0    0    0 -0.00000000000E+00 -0.00000000000E+00 -0.10000000000E+04  0.10000000000E+04  0.00000000000E+00 0.  1.
    9000005    2    1    2  501    0 -0.37813015297E-06  0.99499319401E-05 -0.88433772987E+03  0.11156622694E+04  0.68018312156E+03 0.  0.
         13    1    3    3    0    0 -0.33214671327E+03  0.10535630203E+01 -0.56202662781E+03  0.65283725345E+03  0.00000000000E+00 0.  1.
          3    1    3    3  501    0  0.33214671289E+03 -0.10535530703E+01 -0.32231110206E+03  0.46282501593E+03  0.00000000000E+00 0.  1.
         21    1    1    2  502  501  0.37813019525E-06 -0.99499319402E-05  0.65744945208E-04  0.66494676091E-04  0.00000000000E+00 0.  1.
<mgrwt>
<rscale>  1 0.68018312E+03</rscale>
<asrwt>0</asrwt>
<pdfrwt beam="1">  1        1 0.42059120E+00 0.68018312E+03</pdfrwt>
<pdfrwt beam="2">0</pdfrwt>
<totfact> 0.10753416E+00</totfact>
</mgrwt>
</event>
<event>
 6    1  0.6419182E-003  0.6485129E+03  0.7818608E-02  0.9809574E-01
          1   -1    0    0  502    0  0.00000000000E+00  0.00000000000E+00  0.10894744239E+03  0.10894744239E+03  0.00000000000E+00 0.  1.
         13   -1    0    0    0    0 -0.00000000000E+00 -0.00000000000E+00 -0.10000000000E+04  0.10000000000E+04  0.00000000000E+00 0.  1.
    9000005    2    1    2  501    0  0.10416109983E+01 -0.92155154909E+00 -0.89471680204E+03  0.11050281442E+04  0.64851145671E+03 0.  0.
         13    1    3    3    0    0 -0.48552288473E+02 -0.29118350742E+03 -0.21785685862E+03  0.36688795368E+03  0.00000000000E+00 0.  1.
          1    1    3    3  501    0  0.49593899471E+02  0.29026195588E+03 -0.67685994343E+03  0.73814019055E+03  0.00000000000E+00 0.  1.
         21    1    1    2  502  501 -0.10416109983E+01  0.92155154909E+00  0.36642444365E+01  0.39192981540E+01  0.00000000000E+00 0.  1.
<mgrwt>
<rscale>  1 0.64851295E+03</rscale>
<asrwt>0</asrwt>
<pdfrwt beam="1">  1        1 0.39617335E+00 0.64851295E+03</pdfrwt>
<pdfrwt beam="2">0</pdfrwt>
<totfact> 0.13917965E+00</totfact>
</mgrwt>
</event>
<event>
 6    1  0.6419182E-003  0.6461677E+03  0.7818608E-02  0.9813997E-01
          1   -1    0    0  502    0  0.00000000000E+00  0.00000000000E+00  0.10438323768E+03  0.10438323768E+03  0.00000000000E+00 0.  1.
         13   -1    0    0    0    0 -0.00000000000E+00 -0.00000000000E+00 -0.10000000000E+04  0.10000000000E+04  0.00000000000E+00 0.  1.
    9000005    2    1    2  501    0 -0.38604095920E-04 -0.16891777574E-03 -0.89561662439E+03  0.11043830162E+04  0.64616770935E+03 0.  0.
         13    1    3    3    0    0  0.18030487687E+03 -0.26781586438E+03 -0.42701388201E+03  0.53532797542E+03  0.00000000000E+00 0.  1.
          1    1    3    3  501    0 -0.18030491548E+03  0.26781569546E+03 -0.46860274238E+03  0.56905504079E+03  0.00000000000E+00 0.  1.
         21    1    1    2  502  501  0.38604095930E-04  0.16891777577E-03 -0.13792827569E-03  0.22146715429E-03  0.00000000000E+00 0. -1.
<mgrwt>
<rscale>  1 0.64616771E+03</rscale>
<asrwt>0</asrwt>
<pdfrwt beam="1">  1        1 0.37957621E+00 0.64616771E+03</pdfrwt>
<pdfrwt beam="2">0</pdfrwt>
<totfact> 0.16492134E+00</totfact>
</mgrwt>
</event>
<event>
 6    1  0.6419182E-003  0.6566829E+03  0.7818608E-02  0.9794319E-01
          1   -1    0    0  502    0  0.00000000000E+00  0.00000000000E+00  0.12084216668E+03  0.12084216668E+03  0.00000000000E+00 0.  1.
         13   -1    0    0    0    0 -0.00000000000E+00 -0.00000000000E+00 -0.10000000000E+04  0.10000000000E+04  0.00000000000E+00 0.  1.
    9000005    2    1    2  501    0 -0.16147855170E+01  0.23555606478E+00 -0.89213528252E+03  0.11077625181E+04  0.65668087471E+03 0.  0.
         13    1    3    3    0    0  0.15971508655E+03 -0.16047717676E+03 -0.84553609638E+03  0.87532458175E+03  0.00000000000E+00 0.  1.
          3    1    3    3  501    0 -0.16132987207E+03  0.16071273283E+03 -0.46599186136E+02  0.23243793637E+03  0.00000000000E+00 0.  1.
         21    1    1    2  502  501  0.16147855170E+01 -0.23555606478E+00  0.12977449201E+02  0.13079648569E+02  0.00000000000E+00 0. -1.
<mgrwt>
<rscale>  1 0.65668290E+03</rscale>
<asrwt>0</asrwt>
<pdfrwt beam="1">  1        1 0.43942699E+00 0.65668290E+03</pdfrwt>
<pdfrwt beam="2">0</pdfrwt>
<totfact> 0.88712866E-01</totfact>
</mgrwt>
</event>
<event>
 6    1  0.6419182E-003  0.6313632E+03  0.7818608E-02  0.9842392E-01
          1   -1    0    0  502    0  0.00000000000E+00  0.00000000000E+00  0.99655209311E+02  0.99655209311E+02  0.00000000000E+00 0.  1.
         13   -1    0    0    0    0 -0.00000000000E+00 -0.00000000000E+00 -0.10000000000E+04  0.10000000000E+04  0.00000000000E+00 0.  1.
    9000005    2    1    2  501    0 -0.35881412387E-04  0.41783880807E-03 -0.90034496952E+03  0.10996547534E+04  0.63136321759E+03 0.  0.
         13    1    3    3    0    0  0.38594972563E+02  0.13601807085E+02 -0.99536071584E+03  0.99620155376E+03  0.00000000000E+00 0.  1.
          3    1    3    3  501    0 -0.38595008444E+02 -0.13601389246E+02  0.95015746323E+02  0.10345319964E+03  0.00000000000E+00 0.  1.
         21    1    1    2  502  501  0.35881412383E-04 -0.41783880807E-03  0.17883236267E-03  0.45591420161E-03  0.00000000000E+00 0. -1.
<mgrwt>
<rscale>  1 0.63136322E+03</rscale>
<asrwt>0</asrwt>
<pdfrwt beam="1">  1        1 0.36238334E+00 0.63136322E+03</pdfrwt>
<pdfrwt beam="2">0</pdfrwt>
<totfact> 0.19678604E+00</totfact>
</mgrwt>
</event>
<event>
 6    1  0.6419182E-003  0.6008351E+03  0.7818608E-02  0.9903675E-01
          1   -1    0    0  502    0  0.00000000000E+00  0.00000000000E+00  0.90251680228E+02  0.90251680228E+02  0.00000000000E+00 0.  1.
         13   -1    0    0    0    0 -0.00000000000E+00 -0.00000000000E+00 -0.10000000000E+04  0.10000000000E+04  0.00000000000E+00 0.  1.
    9000005    2    1    2  501    0  0.37041479867E-03  0.18252232354E-03 -0.90974926085E+03  0.10902506525E+04  0.60083505868E+03 0.  0.
         13    1    3    3    0    0 -0.12076935496E+03 -0.21799152668E+03 -0.15045509535E+03  0.29110527051E+03  0.00000000000E+00 0.  1.
          1    1    3    3  501    0  0.12076972537E+03  0.21799170920E+03 -0.75929416550E+03  0.79914538203E+03  0.00000000000E+00 0.  1.
         21    1    1    2  502  501 -0.37041479867E-03 -0.18252232355E-03  0.94107778501E-03  0.10276910621E-02  0.00000000000E+00 0.  1.
<mgrwt>
<rscale>  1 0.60083506E+03</rscale>
<asrwt>0</asrwt>
<pdfrwt beam="1">  1        1 0.32818862E+00 0.60083506E+03</pdfrwt>
<pdfrwt beam="2">0</pdfrwt>
<totfact> 0.27871320E+00</totfact>
</mgrwt>
</event>
<event>
 6    1  0.6419182E-003  0.6409415E+03  0.7818608E-02  0.9823927E-01
          1   -1    0    0  502    0  0.00000000000E+00  0.00000000000E+00  0.10337685075E+03  0.10337685075E+03  0.00000000000E+00 0.  1.
         13   -1    0    0    0    0 -0.00000000000E+00 -0.00000000000E+00 -0.10000000000E+04  0.10000000000E+04  0.00000000000E+00 0.  1.
    9000005    2    1    2  501    0 -0.19860221456E+00 -0.13566051951E+00 -0.89727480843E+03  0.11026822240E+04  0.64094145399E+03 0.  0.
         13    1    3    3    0    0 -0.26270546954E+03  0.17420798419E+03 -0.54853431700E+03  0.63265510541E+03  0.00000000000E+00 0.  1.
          3    1    3    3  501    0  0.26250686733E+03 -0.17434364471E+03 -0.34874049144E+03  0.47002711860E+03  0.00000000000E+00 0.  1.
         21    1    1    2  502  501  0.19860221456E+00  0.13566051951E+00  0.65165918220E+00  0.69462673856E+00  0.00000000000E+00 0.  1.
<mgrwt>
<rscale>  1 0.64094150E+03</rscale>
<asrwt>0</asrwt>
<pdfrwt beam="1">  1        1 0.37591661E+00 0.64094150E+03</pdfrwt>
<pdfrwt beam="2">0</pdfrwt>
<totfact> 0.17132574E+00</totfact>
</mgrwt>
</event>
<event>
 6    1  0.6419182E-003  0.6463651E+03  0.7818608E-02  0.9813624E-01
          1   -1    0    0  502    0  0.00000000000E+00  0.00000000000E+00  0.10445648023E+03  0.10445648023E+03  0.00000000000E+00 0.  1.
         13   -1    0    0    0    0 -0.00000000000E+00 -0.00000000000E+00 -0.10000000000E+04  0.10000000000E+04  0.00000000000E+00 0.  1.
    9000005    2    1    2  501    0 -0.95732419197E-04 -0.37567476119E-03 -0.89555303312E+03  0.11044469590E+04  0.64636510587E+03 0.  0.
         13    1    3    3    0    0  0.21988173291E+03 -0.17825234222E+03 -0.18127822747E+03  0.33613043559E+03  0.00000000000E+00 0.  1.
          1    1    3    3  501    0 -0.21988182864E+03  0.17825196654E+03 -0.71427480565E+03  0.76831652340E+03  0.00000000000E+00 0.  1.
         21    1    1    2  502  501  0.95732419183E-04  0.37567476120E-03  0.95133478705E-02  0.95212438225E-02  0.00000000000E+00 0. -1.
<mgrwt>
<rscale>  1 0.64636511E+03</rscale>
<asrwt>0</asrwt>
<pdfrwt beam="1">  1        1 0.37984255E+00 0.64636511E+03</pdfrwt>
<pdfrwt beam="2">0</pdfrwt>
<totfact> 0.16446978E+00</totfact>
</mgrwt>
</event>
<event>
 6    1  0.6419182E-003  0.6489368E+03  0.7818608E-02  0.9808776E-01
          1   -1    0    0  502    0  0.00000000000E+00  0.00000000000E+00  0.10551855252E+03  0.10551855252E+03  0.00000000000E+00 0.  1.
         13   -1    0    0    0    0 -0.00000000000E+00 -0.00000000000E+00 -0.10000000000E+04  0.10000000000E+04  0.00000000000E+00 0.  1.
    9000005    2    1    2  501    0  0.34105089366E+00  0.34540088888E-01 -0.89457599329E+03  0.11051629578E+04  0.64893669792E+03 0.  0.
         13    1    3    3    0    0 -0.11289218672E+03 -0.22029989447E+03 -0.80424677550E+03  0.84148057924E+03  0.00000000000E+00 0.  1.
          3    1    3    3  501    0  0.11323323762E+03  0.22033443456E+03 -0.90329217792E+02  0.26368237852E+03  0.00000000000E+00 0.  1.
         21    1    1    2  502  501 -0.34105089366E+00 -0.34540088888E-01  0.94545817464E-01  0.35559477134E+00  0.00000000000E+00 0.  1.
<mgrwt>
<rscale>  1 0.64893679E+03</rscale>
<asrwt>0</asrwt>
<pdfrwt beam="1">  1        1 0.38370464E+00 0.64893679E+03</pdfrwt>
<pdfrwt beam="2">0</pdfrwt>
<totfact> 0.15806118E+00</totfact>
</mgrwt>
</event>
<event>
 6    1  0.6419182E-003  0.6385831E+03  0.7818608E-02  0.9828441E-01
          1   -1    0    0  502    0  0.00000000000E+00  0.00000000000E+00  0.10194727794E+03  0.10194727794E+03  0.00000000000E+00 0.  1.
         13   -1    0    0    0    0 -0.00000000000E+00 -0.00000000000E+00 -0.10000000000E+04  0.10000000000E+04  0.00000000000E+00 0.  1.
    9000005    2    1    2  501    0  0.73380436589E-05 -0.99436278475E-04 -0.89805288501E+03  0.11019470869E+04  0.63858311759E+03 0.  0.
         13    1    3    3    0    0  0.66027854224E+02  0.24999458068E+03 -0.77227424713E+03  0.81441051115E+03  0.00000000000E+00 0.  1.
          3    1    3    3  501    0 -0.66027846886E+02 -0.24999468011E+03 -0.12577863788E+03  0.28753657575E+03  0.00000000000E+00 0.  1.
         21    1    1    2  502  501 -0.73380436537E-05  0.99436278469E-04  0.16295071676E-03  0.19103496133E-03  0.00000000000E+00 0. -1.
<mgrwt>
<rscale>  1 0.63858312E+03</rscale>
<asrwt>0</asrwt>
<pdfrwt beam="1">  1        1 0.37071816E+00 0.63858312E+03</pdfrwt>
<pdfrwt beam="2">0</pdfrwt>
<totfact> 0.18066507E+00</totfact>
</mgrwt>
</event>
<event>
 6    1  0.6419182E-003  0.6499803E+03  0.7818608E-02  0.9806816E-01
          1   -1    0    0  502    0  0.00000000000E+00  0.00000000000E+00  0.10561860510E+03  0.10561860510E+03  0.00000000000E+00 0.  1.
         13   -1    0    0    0    0 -0.00000000000E+00 -0.00000000000E+00 -0.10000000000E+04  0.10000000000E+04  0.00000000000E+00 0.  1.
    9000005    2    1    2  501    0  0.17503292895E-05  0.22958582733E-05 -0.89438140308E+03  0.11056185964E+04  0.64998029707E+03 0.  0.
         13    1    3    3    0    0 -0.12084192141E+03  0.39217049849E+02  0.61627820462E+02  0.14120458641E+03  0.00000000000E+00 0.  1.
          3    1    3    3  501    0  0.12084192316E+03 -0.39217047553E+02 -0.95600922354E+03  0.96441401001E+03  0.00000000000E+00 0.  1.
         21    1    1    2  502  501 -0.17503292986E-05 -0.22958582749E-05  0.81804952039E-05  0.86749708734E-05  0.00000000000E+00 0.  1.
<mgrwt>
<rscale>  1 0.64998030E+03</rscale>
<asrwt>0</asrwt>
<pdfrwt beam="1">  1        1 0.38406846E+00 0.64998030E+03</pdfrwt>
<pdfrwt beam="2">0</pdfrwt>
<totfact> 0.15744658E+00</totfact>
</mgrwt>
</event>
<event>
 6    1  0.6419182E-003  0.6435823E+03  0.7818608E-02  0.9818897E-01
          1   -1    0    0  502    0  0.00000000000E+00  0.00000000000E+00  0.10359718698E+03  0.10359718698E+03  0.00000000000E+00 0.  1.
         13   -1    0    0    0    0 -0.00000000000E+00 -0.00000000000E+00 -0.10000000000E+04  0.10000000000E+04  0.00000000000E+00 0.  1.
    9000005    2    1    2  501    0  0.52839411810E-01 -0.30914395457E-01 -0.89642771541E+03  0.11035310974E+04  0.64358234145E+03 0.  0.
         13    1    3    3    0    0 -0.82407258883E+02 -0.14555906983E+03  0.23152543985E+02  0.16886219062E+03  0.00000000000E+00 0.  1.
          1    1    3    3  501    0  0.82460098294E+02  0.14552815544E+03 -0.91958025940E+03  0.93466890679E+03  0.00000000000E+00 0.  1.
         21    1    1    2  502  501 -0.52839411810E-01  0.30914395457E-01  0.24902396365E-01  0.66089580356E-01  0.00000000000E+00 0. -1.
<mgrwt>
<rscale>  1 0.64358234E+03</rscale>
<asrwt>0</asrwt>
<pdfrwt beam="1">  1        1 0.37671784E+00 0.64358234E+03</pdfrwt>
<pdfrwt beam="2">0</pdfrwt>
<totfact> 0.16985699E+00</totfact>
</mgrwt>
</event>
<event>
 6    1  0.6419182E-003  0.6481900E+03  0.7818608E-02  0.9810181E-01
          1   -1    0    0  502    0  0.00000000000E+00  0.00000000000E+00  0.10503936476E+03  0.10503936476E+03  0.00000000000E+00 0.  1.
         13   -1    0    0    0    0 -0.00000000000E+00 -0.00000000000E+00 -0.10000000000E+04  0.10000000000E+04  0.00000000000E+00 0.  1.
    9000005    2    1    2  501    0 -0.76798666677E-03  0.82296270193E-04 -0.89496234138E+03  0.11050374919E+04  0.64818999227E+03 0.  0.
         13    1    3    3    0    0  0.23759316464E+03  0.20961878852E+03 -0.33126796804E+03  0.45839831483E+03  0.00000000000E+00 0.  1.
          3    1    3    3  501    0 -0.23759393263E+03 -0.20961870623E+03 -0.56369437334E+03  0.64663917710E+03  0.00000000000E+00 0.  1.
         21    1    1    2  502  501  0.76798666677E-03 -0.82296270209E-04  0.17061435073E-02  0.18728325776E-02  0.00000000000E+00 0.  1.
<mgrwt>
<rscale>  1 0.64818999E+03</rscale>
<asrwt>0</asrwt>
<pdfrwt beam="1">  1        1 0.38196213E+00 0.64818999E+03</pdfrwt>
<pdfrwt beam="2">0</pdfrwt>
<totfact> 0.16091038E+00</totfact>
</mgrwt>
</event>
<event>
 6    1  0.6419182E-003  0.6459091E+03  0.7818608E-02  0.9814486E-01
          3   -1    0    0  502    0  0.00000000000E+00  0.00000000000E+00  0.10850576903E+03  0.10850576903E+03  0.00000000000E+00 0.  1.
         13   -1    0    0    0    0 -0.00000000000E+00 -0.00000000000E+00 -0.10000000000E+04  0.10000000000E+04  0.00000000000E+00 0.  1.
    9000005    2    1    2  501    0 -0.53358005611E+01  0.75659528727E+01 -0.88908227858E+03  0.10989385372E+04  0.64584277969E+03 0.  0.
         13    1    3    3    0    0 -0.21665073799E+03 -0.18814669261E+03 -0.19352314397E+03  0.34610392581E+03  0.00000000000E+00 0.  1.
          3    1    3    3  501    0  0.21131493743E+03  0.19571264548E+03 -0.69555913460E+03  0.75283461139E+03  0.00000000000E+00 0.  1.
         21    1    1    2  502  501  0.53358005611E+01 -0.75659528727E+01 -0.24119523895E+01  0.95672318268E+01  0.00000000000E+00 0. -1.
<mgrwt>
<rscale>  1 0.64590913E+03</rscale>
<asrwt>0</asrwt>
<pdfrwt beam="1">  1        3 0.39456726E+00 0.64590913E+03</pdfrwt>
<pdfrwt beam="2">0</pdfrwt>
<totfact> 0.63300374E-02</totfact>
</mgrwt>
</event>
<event>
 6    1  0.6419182E-003  0.6742462E+03  0.7818608E-02  0.9762317E-01
          1   -1    0    0  502    0  0.00000000000E+00  0.00000000000E+00  0.11365205990E+03  0.11365205990E+03  0.00000000000E+00 0.  1.
         13   -1    0    0    0    0 -0.00000000000E+00 -0.00000000000E+00 -0.10000000000E+04  0.10000000000E+04  0.00000000000E+00 0.  1.
    9000005    2    1    2  501    0 -0.35829481625E-04  0.41188420646E-04 -0.88634799996E+03  0.11136519789E+04  0.67424621100E+03 0.  0.
         13    1    3    3    0    0  0.56889350124E+02  0.63400353126E+02  0.95583835312E+02  0.12803231040E+03  0.00000000000E+00 0.  1.
          1    1    3    3  501    0 -0.56889385953E+02 -0.63400311937E+02 -0.98193183527E+03  0.98561966849E+03  0.00000000000E+00 0.  1.
         21    1    1    2  502  501  0.35829481626E-04 -0.41188420643E-04  0.59862951516E-04  0.81017348222E-04  0.00000000000E+00 0. -1.
<mgrwt>
<rscale>  1 0.67424621E+03</rscale>
<asrwt>0</asrwt>
<pdfrwt beam="1">  1        1 0.41328109E+00 0.67424621E+03</pdfrwt>
<pdfrwt beam="2">0</pdfrwt>
<totfact> 0.11613756E+00</totfact>
</mgrwt>
</event>
<event>
 6    1  0.8521254E-003  0.6290069E+03  0.7818608E-02  0.9846989E-01
          1   -1    0    0  502    0  0.00000000000E+00  0.00000000000E+00  0.98912457844E+02  0.98912457844E+02  0.00000000000E+00 0.  1.
         13   -1    0    0    0    0 -0.00000000000E+00 -0.00000000000E+00 -0.10000000000E+04  0.10000000000E+04  0.00000000000E+00 0.  1.
    9000005    2    1    2  501    0  0.29509459720E-04  0.75734082529E-04 -0.90108750057E+03  0.10989123665E+04  0.62900692020E+03 0.  0.
         13    1    3    3    0    0  0.14137397191E+02  0.12403431292E+03 -0.95486038156E+03  0.96298635766E+03  0.00000000000E+00 0.  1.
          3    1    3    3  501    0 -0.14137367681E+02 -0.12403423719E+03  0.53772880990E+02  0.13592600888E+03  0.00000000000E+00 0.  1.
         21    1    1    2  502  501 -0.29509459720E-04 -0.75734082539E-04 -0.41589546804E-04  0.91302518445E-04  0.00000000000E+00 0.  1.
<mgrwt>
<rscale>  1 0.62900692E+03</rscale>
<asrwt>0</asrwt>
<pdfrwt beam="1">  1        1 0.35968242E+00 0.62900692E+03</pdfrwt>
<pdfrwt beam="2">0</pdfrwt>
<totfact> 0.20230022E+00</totfact>
</mgrwt>
</event>
<event>
 6    1  0.6419182E-003  0.6512421E+03  0.7818608E-02  0.9804451E-01
          1   -1    0    0  502    0  0.00000000000E+00  0.00000000000E+00  0.10613229276E+03  0.10613229276E+03  0.00000000000E+00 0.  1.
         13   -1    0    0    0    0 -0.00000000000E+00 -0.00000000000E+00 -0.10000000000E+04  0.10000000000E+04  0.00000000000E+00 0.  1.
    9000005    2    1    2  501    0 -0.11850486200E+00 -0.25760694233E+00 -0.89367322495E+03  0.11057884496E+04  0.65124203023E+03 0.  0.
         13    1    3    3    0    0  0.30267293928E+03 -0.11819499711E+03 -0.41110154828E+03  0.52400901568E+03  0.00000000000E+00 0.  1.
          3    1    3    3  501    0 -0.30279144414E+03  0.11793739017E+03 -0.48257167667E+03  0.58177943395E+03  0.00000000000E+00 0.  1.
         21    1    1    2  502  501  0.11850486200E+00  0.25760694233E+00 -0.19448228600E+00  0.34384313083E+00  0.00000000000E+00 0. -1.
<mgrwt>
<rscale>  1 0.65124209E+03</rscale>
<asrwt>0</asrwt>
<pdfrwt beam="1">  1        1 0.38593642E+00 0.65124209E+03</pdfrwt>
<pdfrwt beam="2">0</pdfrwt>
<totfact> 0.15444349E+00</totfact>
</mgrwt>
</event>
<event>
 6    1  0.6419182E-003  0.6598129E+03  0.7818608E-02  0.9788538E-01
          1   -1    0    0  502    0  0.00000000000E+00  0.00000000000E+00  0.10900206081E+03  0.10900206081E+03  0.00000000000E+00 0.  1.
         13   -1    0    0    0    0 -0.00000000000E+00 -0.00000000000E+00 -0.10000000000E+04  0.10000000000E+04  0.00000000000E+00 0.  1.
    9000005    2    1    2  501    0 -0.44315739177E-02 -0.75702177187E-01 -0.89115193564E+03  0.11088304060E+04  0.65981292136E+03 0.  0.
         13    1    3    3    0    0  0.22537850194E+03  0.12677196074E+03 -0.10130929006E+03  0.27772319208E+03  0.00000000000E+00 0.  1.
          1    1    3    3  501    0 -0.22538293352E+03 -0.12684766291E+03 -0.78984264558E+03  0.83110721395E+03  0.00000000000E+00 0.  1.
         21    1    1    2  502  501  0.44315739176E-02  0.75702177187E-01  0.15399644950E+00  0.17165478419E+00  0.00000000000E+00 0. -1.
<mgrwt>
<rscale>  1 0.65981293E+03</rscale>
<asrwt>0</asrwt>
<pdfrwt beam="1">  1        1 0.39637197E+00 0.65981293E+03</pdfrwt>
<pdfrwt beam="2">0</pdfrwt>
<totfact> 0.13860219E+00</totfact>
</mgrwt>
</event>
<event>
 6    1  0.6419182E-003  0.6370045E+03  0.7818608E-02  0.9831475E-01
          1   -1    0    0  502    0  0.00000000000E+00  0.00000000000E+00  0.10144376360E+03  0.10144376360E+03  0.00000000000E+00 0.  1.
         13   -1    0    0    0    0 -0.00000000000E+00 -0.00000000000E+00 -0.10000000000E+04  0.10000000000E+04  0.00000000000E+00 0.  1.
    9000005    2    1    2  501    0  0.14671966392E-03 -0.75527255404E-04 -0.89855622315E+03  0.11014435981E+04  0.63700448470E+03 0.  0.
         13    1    3    3    0    0 -0.28018132305E+03  0.82906433376E+02 -0.66846184600E+03  0.72953155521E+03  0.00000000000E+00 0.  1.
          3    1    3    3  501    0  0.28018146977E+03 -0.82906508903E+02 -0.23009437715E+03  0.37191204284E+03  0.00000000000E+00 0.  1.
         21    1    1    2  502  501 -0.14671966390E-03  0.75527255408E-04 -0.13251362611E-04  0.16554946299E-03  0.00000000000E+00 0. -1.
<mgrwt>
<rscale>  1 0.63700448E+03</rscale>
<asrwt>0</asrwt>
<pdfrwt beam="1">  1        1 0.36888719E+00 0.63700448E+03</pdfrwt>
<pdfrwt beam="2">0</pdfrwt>
<totfact> 0.18409401E+00</totfact>
</mgrwt>
</event>
<event>
 6    1  0.6419182E-003  0.6482376E+03  0.7818608E-02  0.9810092E-01
          1   -1    0    0  502    0  0.00000000000E+00  0.00000000000E+00  0.10505301432E+03  0.10505301432E+03  0.00000000000E+00 0.  1.
         13   -1    0    0    0    0 -0.00000000000E+00 -0.00000000000E+00 -0.10000000000E+04  0.10000000000E+04  0.00000000000E+00 0.  1.
    9000005    2    1    2  501    0 -0.22468285579E-05  0.11720567272E-05 -0.89494698768E+03  0.11050530111E+04  0.64823764667E+03 0.  0.
         13    1    3    3    0    0  0.12419038407E+03 -0.16138406939E+03 -0.17614514484E+02  0.20439750602E+03  0.00000000000E+00 0.  1.
          1    1    3    3  501    0 -0.12419038632E+03  0.16138407056E+03 -0.87733247320E+03  0.90065550507E+03  0.00000000000E+00 0.  1.
         21    1    1    2  502  501  0.22468285562E-05 -0.11720567353E-05  0.20043193174E-05  0.32309830513E-05  0.00000000000E+00 0. -1.
<mgrwt>
<rscale>  1 0.64823765E+03</rscale>
<asrwt>0</asrwt>
<pdfrwt beam="1">  1        1 0.38201177E+00 0.64823765E+03</pdfrwt>
<pdfrwt beam="2">0</pdfrwt>
<totfact> 0.16082777E+00</totfact>
</mgrwt>
</event>
<event>
 6    1  0.6419182E-003  0.6365792E+03  0.7818608E-02  0.9832293E-01
          1   -1    0    0  502    0  0.00000000000E+00  0.00000000000E+00  0.10130843474E+03  0.10130843474E+03  0.00000000000E+00 0.  1.
         13   -1    0    0    0    0 -0.00000000000E+00 -0.00000000000E+00 -0.10000000000E+04  0.10000000000E+04  0.00000000000E+00 0.  1.
    9000005    2    1    2  501    0 -0.36975324633E-04  0.44546311528E-06 -0.89869171437E+03  0.11013082811E+04  0.63657924296E+03 0.  0.
         13    1    3    3    0    0  0.69452748064E+02  0.25980632491E+03 -0.74388641070E+03  0.79100569069E+03  0.00000000000E+00 0.  1.
          3    1    3    3  501    0 -0.69452785040E+02 -0.25980632446E+03 -0.15480530367E+03  0.31030259043E+03  0.00000000000E+00 0.  1.
         21    1    1    2  502  501  0.36975324634E-04 -0.44546310768E-06  0.14911086516E-03  0.15362754694E-03  0.00000000000E+00 0.  1.
<mgrwt>
<rscale>  1 0.63657924E+03</rscale>
<asrwt>0</asrwt>
<pdfrwt beam="1">  1        1 0.36839508E+00 0.63657924E+03</pdfrwt>
<pdfrwt beam="2">0</pdfrwt>
<totfact> 0.18502620E+00</totfact>
</mgrwt>
</event>
<event>
 6    1  0.6419182E-003  0.6494449E+03  0.7818608E-02  0.9807821E-01
          1   -1    0    0  502    0  0.00000000000E+00  0.00000000000E+00  0.10561245102E+03  0.10561245102E+03  0.00000000000E+00 0.  1.
         13   -1    0    0    0    0 -0.00000000000E+00 -0.00000000000E+00 -0.10000000000E+04  0.10000000000E+04  0.00000000000E+00 0.  1.
    9000005    2    1    2  501    0  0.32070951344E-01 -0.36553483080E+00 -0.89429505682E+03  0.11052340345E+04  0.64944475341E+03 0.  0.
         13    1    3    3    0    0  0.14376822499E+03  0.91743630127E+02  0.23087380484E+02  0.17210236292E+03  0.00000000000E+00 0.  1.
          1    1    3    3  501    0 -0.14373615404E+03 -0.92109164958E+02 -0.91738243730E+03  0.93313167159E+03  0.00000000000E+00 0.  1.
         21    1    1    2  502  501 -0.32070951344E-01  0.36553483080E+00 -0.92492161238E-01  0.37841651436E+00  0.00000000000E+00 0.  1.
<mgrwt>
<rscale>  1 0.64944486E+03</rscale>
<asrwt>0</asrwt>
<pdfrwt beam="1">  1        1 0.38404609E+00 0.64944486E+03</pdfrwt>
<pdfrwt beam="2">0</pdfrwt>
<totfact> 0.15749801E+00</totfact>
</mgrwt>
</event>
<event>
 6    1  0.6419182E-003  0.6686366E+03  0.7818608E-02  0.9772424E-01
          1   -1    0    0  502    0  0.00000000000E+00  0.00000000000E+00  0.13053486477E+03  0.13053486477E+03  0.00000000000E+00 0.  1.
         13   -1    0    0    0    0 -0.00000000000E+00 -0.00000000000E+00 -0.10000000000E+04  0.10000000000E+04  0.00000000000E+00 0.  1.
    9000005    2    1    2  501    0  0.13045839010E+02 -0.14576001278E+02 -0.88237634117E+03  0.11070965848E+04  0.66835034742E+03 0.  0.
         13    1    3    3    0    0  0.28687060636E+03 -0.87343821062E+02 -0.72136994877E+03  0.78121590541E+03  0.00000000000E+00 0.  1.
          1    1    3    3  501    0 -0.27382476735E+03  0.72767819784E+02 -0.16100639240E+03  0.32588067940E+03  0.00000000000E+00 0.  1.
         21    1    1    2  502  501 -0.13045839010E+02  0.14576001278E+02  0.12911205945E+02  0.23438279965E+02  0.00000000000E+00 0. -1.
<mgrwt>
<rscale>  1 0.66863655E+03</rscale>
<asrwt>0</asrwt>
<pdfrwt beam="1">  1        1 0.47467324E+00 0.66863655E+03</pdfrwt>
<pdfrwt beam="2">0</pdfrwt>
<totfact> 0.60758035E-01</totfact>
</mgrwt>
</event>
<event>
 6    1  0.6419182E-003  0.6360635E+03  0.7818608E-02  0.9833287E-01
          1   -1    0    0  502    0  0.00000000000E+00  0.00000000000E+00  0.10114419622E+03  0.10114419622E+03  0.00000000000E+00 0.  1.
         13   -1    0    0    0    0 -0.00000000000E+00 -0.00000000000E+00 -0.10000000000E+04  0.10000000000E+04  0.00000000000E+00 0.  1.
    9000005    2    1    2  501    0  0.15393389958E-05  0.16585600804E-05 -0.89885580649E+03  0.11011441927E+04  0.63606349703E+03 0.  0.
         13    1    3    3    0    0  0.22375174268E+03  0.22298789607E+03 -0.38568476272E+03  0.49853904595E+03  0.00000000000E+00 0.  1.
          1    1    3    3  501    0 -0.22375174114E+03 -0.22298789441E+03 -0.51317104377E+03  0.60260514674E+03  0.00000000000E+00 0.  1.
         21    1    1    2  502  501 -0.15393390054E-05 -0.16585600816E-05  0.27034956928E-05  0.35255177037E-05  0.00000000000E+00 0. -1.
<mgrwt>
<rscale>  1 0.63606350E+03</rscale>
<asrwt>0</asrwt>
<pdfrwt beam="1">  1        1 0.36779785E+00 0.63606350E+03</pdfrwt>
<pdfrwt beam="2">0</pdfrwt>
<totfact> 0.18616358E+00</totfact>
</mgrwt>
</event>
<event>
 6    1  0.6419182E-003  0.6581334E+03  0.7818608E-02  0.9791636E-01
          1   -1    0    0  502    0  0.00000000000E+00  0.00000000000E+00  0.10828527021E+03  0.10828527021E+03  0.00000000000E+00 0.  1.
         13   -1    0    0    0    0 -0.00000000000E+00 -0.00000000000E+00 -0.10000000000E+04  0.10000000000E+04  0.00000000000E+00 0.  1.
    9000005    2    1    2  501    0 -0.16520837107E-04 -0.16206981225E-03 -0.89171509656E+03  0.11082848689E+04  0.65813337338E+03 0.  0.
         13    1    3    3    0    0 -0.30137140570E+03  0.12661723104E+03 -0.38221677145E+03  0.50293767780E+03  0.00000000000E+00 0.  1.
          3    1    3    3  501    0  0.30137138918E+03 -0.12661739311E+03 -0.50949832511E+03  0.60534719108E+03  0.00000000000E+00 0.  1.
         21    1    1    2  502  501  0.16520837102E-04  0.16206981225E-03  0.36677891892E-03  0.40133070835E-03  0.00000000000E+00 0. -1.
<mgrwt>
<rscale>  1 0.65813337E+03</rscale>
<asrwt>0</asrwt>
<pdfrwt beam="1">  1        1 0.39376545E+00 0.65813337E+03</pdfrwt>
<pdfrwt beam="2">0</pdfrwt>
<totfact> 0.14239576E+00</totfact>
</mgrwt>
</event>
<event>
 6    1  0.6419182E-003  0.6488643E+03  0.7818608E-02  0.9808913E-01
          1   -1    0    0  502    0  0.00000000000E+00  0.00000000000E+00  0.11692304768E+03  0.11692304768E+03  0.00000000000E+00 0.  1.
         13   -1    0    0    0    0 -0.00000000000E+00 -0.00000000000E+00 -0.10000000000E+04  0.10000000000E+04  0.00000000000E+00 0.  1.
    9000005    2    1    2  501    0 -0.57631533160E+01 -0.28415528014E+02 -0.86946248574E+03  0.10848916589E+04  0.64821619944E+03 0.  0.
         13    1    3    3    0    0  0.30807616626E+02 -0.32914007560E+03 -0.33564317000E+03  0.47110363635E+03  0.00000000000E+00 0.  1.
          1    1    3    3  501    0 -0.36570769942E+02  0.30072454759E+03 -0.53381931574E+03  0.61378802253E+03  0.00000000000E+00 0.  1.
         21    1    1    2  502  501  0.57631533160E+01  0.28415528014E+02 -0.13614466580E+02  0.32031388804E+02  0.00000000000E+00 0. -1.
<mgrwt>
<rscale>  1 0.64886431E+03</rscale>
<asrwt>0</asrwt>
<pdfrwt beam="1">  1        1 0.42517562E+00 0.64886431E+03</pdfrwt>
<pdfrwt beam="2">0</pdfrwt>
<totfact> 0.10315122E+00</totfact>
</mgrwt>
</event>
<event>
 6    1  0.6419182E-003  0.6689230E+03  0.7818608E-02  0.9771905E-01
          1   -1    0    0  502    0  0.00000000000E+00  0.00000000000E+00  0.11213076672E+03  0.11213076672E+03  0.00000000000E+00 0.  1.
         13   -1    0    0    0    0 -0.00000000000E+00 -0.00000000000E+00 -0.10000000000E+04  0.10000000000E+04  0.00000000000E+00 0.  1.
    9000005    2    1    2  501    0 -0.24601576947E-01 -0.12585033053E-01 -0.88813470244E+03  0.11118638632E+04  0.66892301487E+03 0.  0.
         13    1    3    3    0    0  0.77240335379E+02  0.16513212922E+03  0.22018009010E+02  0.18362865308E+03  0.00000000000E+00 0.  1.
          1    1    3    3  501    0 -0.77264936956E+02 -0.16514471426E+03 -0.91015271145E+03  0.92823521011E+03  0.00000000000E+00 0.  1.
         21    1    1    2  502  501  0.24601576947E-01  0.12585033053E-01  0.26546915783E+00  0.26690353015E+00  0.00000000000E+00 0.  1.
<mgrwt>
<rscale>  1 0.66892302E+03</rscale>
<asrwt>0</asrwt>
<pdfrwt beam="1">  1        1 0.40774910E+00 0.66892302E+03</pdfrwt>
<pdfrwt beam="2">0</pdfrwt>
<totfact> 0.12309290E+00</totfact>
</mgrwt>
</event>
<event>
 6    1  0.6419182E-003  0.6475339E+03  0.7818608E-02  0.9811418E-01
          1   -1    0    0  502    0  0.00000000000E+00  0.00000000000E+00  0.10482532458E+03  0.10482532458E+03  0.00000000000E+00 0.  1.
         13   -1    0    0    0    0 -0.00000000000E+00 -0.00000000000E+00 -0.10000000000E+04  0.10000000000E+04  0.00000000000E+00 0.  1.
    9000005    2    1    2  501    0 -0.11546251244E-04  0.69915243387E-04 -0.89517494343E+03  0.11048250474E+04  0.64753394191E+03 0.  0.
         13    1    3    3    0    0 -0.23704251094E+03 -0.15306275546E+03 -0.71848024724E+03  0.77190104598E+03  0.00000000000E+00 0.  1.
          3    1    3    3  501    0  0.23704249940E+03  0.15306282538E+03 -0.17669469619E+03  0.33292400138E+03  0.00000000000E+00 0.  1.
         21    1    1    2  502  501  0.11546251250E-04 -0.69915243373E-04  0.26801128246E-03  0.27722103942E-03  0.00000000000E+00 0.  1.
<mgrwt>
<rscale>  1 0.64753394E+03</rscale>
<asrwt>0</asrwt>
<pdfrwt beam="1">  1        1 0.38118380E+00 0.64753394E+03</pdfrwt>
<pdfrwt beam="2">0</pdfrwt>
<totfact> 0.16220840E+00</totfact>
</mgrwt>
</event>
<event>
 6    1  0.6419182E-003  0.6548335E+03  0.7818608E-02  0.9797751E-01
          1   -1    0    0  502    0  0.00000000000E+00  0.00000000000E+00  0.10781110064E+03  0.10781110064E+03  0.00000000000E+00 0.  1.
         13   -1    0    0    0    0 -0.00000000000E+00 -0.00000000000E+00 -0.10000000000E+04  0.10000000000E+04  0.00000000000E+00 0.  1.
    9000005    2    1    2  501    0 -0.19643057034E+00  0.89133669592E+00 -0.89239384076E+03  0.11068756505E+04  0.65483288362E+03 0.  0.
         13    1    3    3    0    0 -0.24324912951E+03  0.21124891004E+03 -0.34468854485E+03  0.47181186287E+03  0.00000000000E+00 0.  1.
          3    1    3    3  501    0  0.24305269894E+03 -0.21035757334E+03 -0.54770529592E+03  0.63506378758E+03  0.00000000000E+00 0.  1.
         21    1    1    2  502  501  0.19643057034E+00 -0.89133669592E+00  0.20494140456E+00  0.93545018775E+00  0.00000000000E+00 0. -1.
<mgrwt>
<rscale>  1 0.65483352E+03</rscale>
<asrwt>0</asrwt>
<pdfrwt beam="1">  1        1 0.39204119E+00 0.65483352E+03</pdfrwt>
<pdfrwt beam="2">0</pdfrwt>
<totfact> 0.14501808E+00</totfact>
</mgrwt>
</event>
<event>
 6    1  0.6419182E-003  0.6430284E+03  0.7818608E-02  0.9819950E-01
          1   -1    0    0  502    0  0.00000000000E+00  0.00000000000E+00  0.11530545605E+03  0.11530545605E+03  0.00000000000E+00 0.  1.
         13   -1    0    0    0    0 -0.00000000000E+00 -0.00000000000E+00 -0.10000000000E+04  0.10000000000E+04  0.00000000000E+00 0.  1.
    9000005    2    1    2  501    0 -0.23797777436E+00 -0.86152748131E+00 -0.89661016006E+03  0.11033563653E+04  0.64302775274E+03 0.  0.
         13    1    3    3    0    0  0.29130177927E+03 -0.76520620313E+02 -0.25526705637E+03  0.39480805717E+03  0.00000000000E+00 0.  1.
          1    1    3    3  501    0 -0.29153975704E+03  0.75659092831E+02 -0.64134310370E+03  0.70854830811E+03  0.00000000000E+00 0.  1.
         21    1    1    2  502  501  0.23797777436E+00  0.86152748131E+00  0.11915616113E+02  0.11949090776E+02  0.00000000000E+00 0.  1.
<mgrwt>
<rscale>  1 0.64302837E+03</rscale>
<asrwt>0</asrwt>
<pdfrwt beam="1">  1        1 0.41929345E+00 0.64302837E+03</pdfrwt>
<pdfrwt beam="2">0</pdfrwt>
<totfact> 0.10978491E+00</totfact>
</mgrwt>
</event>
<event>
 6    1  0.6419182E-003  0.6514100E+03  0.7818608E-02  0.9804137E-01
          1   -1    0    0  502    0  0.00000000000E+00  0.00000000000E+00  0.10641197175E+03  0.10641197175E+03  0.00000000000E+00 0.  1.
         13   -1    0    0    0    0 -0.00000000000E+00 -0.00000000000E+00 -0.10000000000E+04  0.10000000000E+04  0.00000000000E+00 0.  1.
    9000005    2    1    2  501    0  0.94010793569E+00  0.91413842465E-01 -0.89280020963E+03  0.11051820053E+04  0.65140936304E+03 0.  0.
         13    1    3    3    0    0  0.34057898849E+02 -0.23840619995E+03 -0.74342489113E+02  0.25204019984E+03  0.00000000000E+00 0.  1.
          3    1    3    3  501    0 -0.33117790913E+02  0.23849761379E+03 -0.81845772052E+03  0.85314180541E+03  0.00000000000E+00 0.  1.
         21    1    1    2  502  501 -0.94010793569E+00 -0.91413842465E-01 -0.78781861340E+00  0.12299664991E+01  0.00000000000E+00 0.  1.
<mgrwt>
<rscale>  1 0.65141005E+03</rscale>
<asrwt>0</asrwt>
<pdfrwt beam="1">  1        1 0.38695344E+00 0.65141005E+03</pdfrwt>
<pdfrwt beam="2">0</pdfrwt>
<totfact> 0.15284609E+00</totfact>
</mgrwt>
</event>
<event>
 6    1  0.6419182E-003  0.6488818E+03  0.7818608E-02  0.9808880E-01
          1   -1    0    0  502    0  0.00000000000E+00  0.00000000000E+00  0.10526191127E+03  0.10526191127E+03  0.00000000000E+00 0.  1.
         13   -1    0    0    0    0 -0.00000000000E+00 -0.00000000000E+00 -0.10000000000E+04  0.10000000000E+04  0.00000000000E+00 0.  1.
    9000005    2    1    2  501    0 -0.24485268248E-04  0.28085639372E-04 -0.89473808834E+03  0.11052618740E+04  0.64888177922E+03 0.  0.
         13    1    3    3    0    0  0.36157538619E+02  0.14043701284E+03 -0.94172309735E+03  0.95282333843E+03  0.00000000000E+00 0.  1.
          3    1    3    3  501    0 -0.36157563104E+02 -0.14043698475E+03  0.46985009012E+02  0.15243853557E+03  0.00000000000E+00 0.  1.
         21    1    1    2  502  501  0.24485268250E-04 -0.28085639366E-04 -0.38904320558E-06  0.37262351704E-04  0.00000000000E+00 0.  1.
<mgrwt>
<rscale>  1 0.64888178E+03</rscale>
<asrwt>0</asrwt>
<pdfrwt beam="1">  1        1 0.38277139E+00 0.64888178E+03</pdfrwt>
<pdfrwt beam="2">0</pdfrwt>
<totfact> 0.15957097E+00</totfact>
</mgrwt>
</event>
<event>
 6    1  0.6419182E-003  0.6165129E+03  0.7818608E-02  0.9871727E-01
          1   -1    0    0  502    0  0.00000000000E+00  0.00000000000E+00  0.11834709242E+03  0.11834709242E+03  0.00000000000E+00 0.  1.
         13   -1    0    0    0    0 -0.00000000000E+00 -0.00000000000E+00 -0.10000000000E+04  0.10000000000E+04  0.00000000000E+00 0.  1.
    9000005    2    1    2  501    0 -0.76453396907E+00  0.26116621821E+00 -0.90497029454E+03  0.10950157132E+04  0.61651238878E+03 0.  0.
         13    1    3    3    0    0  0.25142793739E+03  0.61655056459E+02 -0.15577182574E+03  0.30212946791E+03  0.00000000000E+00 0.  1.
          3    1    3    3  501    0 -0.25219247136E+03 -0.61393890240E+02 -0.74919846880E+03  0.79288624532E+03  0.00000000000E+00 0.  1.
         21    1    1    2  502  501  0.76453396907E+00 -0.26116621821E+00  0.23317386963E+02  0.23331379187E+02  0.00000000000E+00 0.  1.
<mgrwt>
<rscale>  1 0.61651292E+03</rscale>
<asrwt>0</asrwt>
<pdfrwt beam="1">  1        1 0.43035397E+00 0.61651292E+03</pdfrwt>
<pdfrwt beam="2">0</pdfrwt>
<totfact> 0.98378882E-01</totfact>
</mgrwt>
</event>
<event>
 6    1  0.6419182E-003  0.6450088E+03  0.7818608E-02  0.9816190E-01
          1   -1    0    0  502    0  0.00000000000E+00  0.00000000000E+00  0.10408236019E+03  0.10408236019E+03  0.00000000000E+00 0.  1.
         13   -1    0    0    0    0 -0.00000000000E+00 -0.00000000000E+00 -0.10000000000E+04  0.10000000000E+04  0.00000000000E+00 0.  1.
    9000005    2    1    2  501    0 -0.50269640279E-01  0.72230247252E-01 -0.89596054526E+03  0.11039844565E+04  0.64500881691E+03 0.  0.
         13    1    3    3    0    0 -0.15915762073E+03  0.21458524418E+03 -0.13873821846E+03  0.30104197136E+03  0.00000000000E+00 0.  1.
          3    1    3    3  501    0  0.15910735109E+03 -0.21451301393E+03 -0.75722232680E+03  0.80294248519E+03  0.00000000000E+00 0.  1.
         21    1    1    2  502  501  0.50269640279E-01 -0.72230247252E-01  0.42905458107E-01  0.97903644913E-01  0.00000000000E+00 0.  1.
<mgrwt>
<rscale>  1 0.64500882E+03</rscale>
<asrwt>0</asrwt>
<pdfrwt beam="1">  1        1 0.37848211E+00 0.64500882E+03</pdfrwt>
<pdfrwt beam="2">0</pdfrwt>
<totfact> 0.16679938E+00</totfact>
</mgrwt>
</event>
<event>
 6    1  0.6419182E-003  0.6413607E+03  0.7818608E-02  0.9823127E-01
          1   -1    0    0  502    0  0.00000000000E+00  0.00000000000E+00  0.10283596189E+03  0.10283596189E+03  0.00000000000E+00 0.  1.
         13   -1    0    0    0    0 -0.00000000000E+00 -0.00000000000E+00 -0.10000000000E+04  0.10000000000E+04  0.00000000000E+00 0.  1.
    9000005    2    1    2  501    0  0.96285134987E-04 -0.15981457828E-04 -0.89716406376E+03  0.11028358610E+04  0.64136072452E+03 0.  0.
         13    1    3    3    0    0  0.28985763122E+03 -0.59919933761E+02 -0.23638908370E+03  0.37879762899E+03  0.00000000000E+00 0.  1.
          3    1    3    3  501    0 -0.28985753493E+03  0.59919917780E+02 -0.66077498006E+03  0.72403823198E+03  0.00000000000E+00 0.  1.
         21    1    1    2  502  501 -0.96285134974E-04  0.15981457830E-04  0.25644266016E-04  0.10091512568E-03  0.00000000000E+00 0.  1.
<mgrwt>
<rscale>  1 0.64136072E+03</rscale>
<asrwt>0</asrwt>
<pdfrwt beam="1">  1        1 0.37394974E+00 0.64136072E+03</pdfrwt>
<pdfrwt beam="2">0</pdfrwt>
<totfact> 0.17476180E+00</totfact>
</mgrwt>
</event>
<event>
 6    1  0.6419182E-003  0.6532286E+03  0.7818608E-02  0.9800740E-01
          1   -1    0    0  502    0  0.00000000000E+00  0.00000000000E+00  0.10667700823E+03  0.10667700823E+03  0.00000000000E+00 0.  1.
         13   -1    0    0    0    0 -0.00000000000E+00 -0.00000000000E+00 -0.10000000000E+04  0.10000000000E+04  0.00000000000E+00 0.  1.
    9000005    2    1    2  501    0  0.59727622670E-06  0.36341718840E-04 -0.89332308184E+03  0.11066769111E+04  0.65322864069E+03 0.  0.
         13    1    3    3    0    0  0.21674284876E+03  0.11000422911E+02 -0.86018505236E+03  0.88713967113E+03  0.00000000000E+00 0.  1.
          3    1    3    3  501    0 -0.21674284817E+03 -0.11000386570E+02 -0.33138029479E+02  0.21953723997E+03  0.00000000000E+00 0.  1.
         21    1    1    2  502  501 -0.59727622948E-06 -0.36341718839E-04  0.90071317009E-04  0.97128365655E-04  0.00000000000E+00 0. -1.
<mgrwt>
<rscale>  1 0.65322864E+03</rscale>
<asrwt>0</asrwt>
<pdfrwt beam="1">  1        1 0.38791721E+00 0.65322864E+03</pdfrwt>
<pdfrwt beam="2">0</pdfrwt>
<totfact> 0.15130032E+00</totfact>
</mgrwt>
</event>
<event>
 6    1  0.6419182E-003  0.5872439E+03  0.7818608E-02  0.9932230E-01
          1   -1    0    0  502    0  0.00000000000E+00  0.00000000000E+00  0.86214755596E+02  0.86214755596E+02  0.00000000000E+00 0.  1.
         13   -1    0    0    0    0 -0.00000000000E+00 -0.00000000000E+00 -0.10000000000E+04  0.10000000000E+04  0.00000000000E+00 0.  1.
    9000005    2    1    2  501    0  0.29249107569E-03  0.32838705668E-03 -0.91378609948E+03  0.10862137941E+04  0.58724387676E+03 0.  0.
         13    1    3    3    0    0  0.32371986732E+02 -0.10627327120E+03 -0.95962476740E+03  0.96603397865E+03  0.00000000000E+00 0.  1.
          3    1    3    3  501    0 -0.32371694241E+02  0.10627359959E+03  0.45838667913E+02  0.12017981541E+03  0.00000000000E+00 0.  1.
         21    1    1    2  502  501 -0.29249107569E-03 -0.32838705668E-03  0.85507991555E-03  0.96153562093E-03  0.00000000000E+00 0. -1.
<mgrwt>
<rscale>  1 0.58724388E+03</rscale>
<asrwt>0</asrwt>
<pdfrwt beam="1">  1        1 0.31350886E+00 0.58724388E+03</pdfrwt>
<pdfrwt beam="2">0</pdfrwt>
<totfact> 0.32335895E+00</totfact>
</mgrwt>
</event>
<event>
 6    1  0.6419182E-003  0.6006873E+03  0.7818608E-02  0.9903981E-01
          1   -1    0    0  502    0  0.00000000000E+00  0.00000000000E+00  0.90207929994E+02  0.90207929994E+02  0.00000000000E+00 0.  1.
         13   -1    0    0    0    0 -0.00000000000E+00 -0.00000000000E+00 -0.10000000000E+04  0.10000000000E+04  0.00000000000E+00 0.  1.
    9000005    2    1    2  501    0  0.89358604579E-03  0.24868007827E-03 -0.90979356240E+03  0.10902061728E+04  0.60068725068E+03 0.  0.
         13    1    3    3    0    0  0.79049938567E+02  0.19810857841E+03 -0.71132368067E+02  0.22484598154E+03  0.00000000000E+00 0.  1.
          3    1    3    3  501    0 -0.79049044981E+02 -0.19810832973E+03 -0.83866119433E+03  0.86536019131E+03  0.00000000000E+00 0.  1.
         21    1    1    2  502  501 -0.89358604579E-03 -0.24868007827E-03  0.14923920340E-02  0.17571487659E-02  0.00000000000E+00 0. -1.
<mgrwt>
<rscale>  1 0.60068725E+03</rscale>
<asrwt>0</asrwt>
<pdfrwt beam="1">  1        1 0.32802953E+00 0.60068725E+03</pdfrwt>
<pdfrwt beam="2">0</pdfrwt>
<totfact> 0.27916287E+00</totfact>
</mgrwt>
</event>
<event>
 6    1  0.6419182E-003  0.6383021E+03  0.7818608E-02  0.9828980E-01
          1   -1    0    0  502    0  0.00000000000E+00  0.00000000000E+00  0.10252737674E+03  0.10252737674E+03  0.00000000000E+00 0.  1.
         13   -1    0    0    0    0 -0.00000000000E+00 -0.00000000000E+00 -0.10000000000E+04  0.10000000000E+04  0.00000000000E+00 0.  1.
    9000005    2    1    2  501    0  0.15588425868E-01  0.12325548630E+01 -0.89745201226E+03  0.11012945510E+04  0.63830091205E+03 0.  0.
         13    1    3    3    0    0  0.13295142192E+03  0.20832086035E+03 -0.99758941209E+02  0.26650611212E+03  0.00000000000E+00 0.  1.
          3    1    3    3  501    0 -0.13293583350E+03 -0.20708830548E+03 -0.79769307105E+03  0.83478843889E+03  0.00000000000E+00 0.  1.
         21    1    1    2  502  501 -0.15588425868E-01 -0.12325548630E+01 -0.20610994765E-01  0.12328257388E+01  0.00000000000E+00 0.  1.
<mgrwt>
<rscale>  1 0.63830210E+03</rscale>
<asrwt>0</asrwt>
<pdfrwt beam="1">  1        1 0.37282761E+00 0.63830210E+03</pdfrwt>
<pdfrwt beam="2">0</pdfrwt>
<totfact> 0.17685815E+00</totfact>
</mgrwt>
</event>
<event>
 6    1  0.6419182E-003  0.6472196E+03  0.7818608E-02  0.9812010E-01
          1   -1    0    0  502    0  0.00000000000E+00  0.00000000000E+00  0.11811246567E+03  0.11811246567E+03  0.00000000000E+00 0.  1.
         13   -1    0    0    0    0 -0.00000000000E+00 -0.00000000000E+00 -0.10000000000E+04  0.10000000000E+04  0.00000000000E+00 0.  1.
    9000005    2    1    2  501    0  0.83407256291E+01 -0.18444491700E+02 -0.88623453966E+03  0.10974082769E+04  0.64690300657E+03 0.  0.
         13    1    3    3    0    0 -0.41627087181E+02  0.23064507135E+03 -0.79280330358E+03  0.82672065505E+03  0.00000000000E+00 0.  1.
          3    1    3    3  501    0  0.49967812810E+02 -0.24908956305E+03 -0.93431236078E+02  0.27068762183E+03  0.00000000000E+00 0.  1.
         21    1    1    2  502  501 -0.83407256291E+01  0.18444491700E+02  0.43470053323E+01  0.20704188790E+02  0.00000000000E+00 0.  1.
<mgrwt>
<rscale>  1 0.64721964E+03</rscale>
<asrwt>0</asrwt>
<pdfrwt beam="1">  1        1 0.42950078E+00 0.64721964E+03</pdfrwt>
<pdfrwt beam="2">0</pdfrwt>
<totfact> 0.98632550E-01</totfact>
</mgrwt>
</event>
<event>
 6    1  0.6419182E-003  0.6567084E+03  0.7818608E-02  0.9794272E-01
          3   -1    0    0  502    0  0.00000000000E+00  0.00000000000E+00  0.10788763968E+03  0.10788763968E+03  0.00000000000E+00 0.  1.
         13   -1    0    0    0    0 -0.00000000000E+00 -0.00000000000E+00 -0.10000000000E+04  0.10000000000E+04  0.00000000000E+00 0.  1.
    9000005    2    1    2  501    0 -0.68737079537E-03  0.16085974056E-02 -0.89218349211E+03  0.11078164864E+04  0.65670844664E+03 0.  0.
         13    1    3    3    0    0  0.36402455678E+02  0.32457871645E+03 -0.38912293669E+03  0.50802868208E+03  0.00000000000E+00 0.  1.
          1    1    3    3  501    0 -0.36403143049E+02 -0.32457710786E+03 -0.50306055542E+03  0.59978780430E+03  0.00000000000E+00 0.  1.
         21    1    1    2  502  501  0.68737079537E-03 -0.16085974056E-02  0.71131789849E-01  0.71153296419E-01  0.00000000000E+00 0. -1.
<mgrwt>
<rscale>  1 0.65670845E+03</rscale>
<asrwt>0</asrwt>
<pdfrwt beam="1">  1        3 0.39231952E+00 0.65670845E+03</pdfrwt>
<pdfrwt beam="2">0</pdfrwt>
<totfact> 0.64926333E-02</totfact>
</mgrwt>
</event>
<event>
 6    1  0.6419182E-003  0.6555121E+03  0.7818608E-02  0.9796491E-01
          3   -1    0    0  502    0  0.00000000000E+00  0.00000000000E+00  0.10910636791E+03  0.10910636791E+03  0.00000000000E+00 0.  1.
         13   -1    0    0    0    0 -0.00000000000E+00 -0.00000000000E+00 -0.10000000000E+04  0.10000000000E+04  0.00000000000E+00 0.  1.
    9000005    2    1    2  501    0  0.20325245075E+00  0.14214982663E+00 -0.89256583700E+03  0.11074158688E+04  0.65551206814E+03 0.  0.
         13    1    3    3    0    0 -0.15972520514E+03  0.15778205516E+03 -0.42902057287E+02  0.22857800552E+03  0.00000000000E+00 0.  1.
          1    1    3    3  501    0  0.15992845759E+03 -0.15763990534E+03 -0.84966377971E+03  0.87883786323E+03  0.00000000000E+00 0.  1.
         21    1    1    2  502  501 -0.20325245075E+00 -0.14214982663E+00  0.16722049069E+01  0.16904991519E+01  0.00000000000E+00 0.  1.
<mgrwt>
<rscale>  1 0.65551212E+03</rscale>
<asrwt>0</asrwt>
<pdfrwt beam="1">  1        3 0.39675127E+00 0.65551212E+03</pdfrwt>
<pdfrwt beam="2">0</pdfrwt>
<totfact> 0.61550455E-02</totfact>
</mgrwt>
</event>
<event>
 6    1  0.6419182E-003  0.6496143E+03  0.7818608E-02  0.9807503E-01
          1   -1    0    0  502    0  0.00000000000E+00  0.00000000000E+00  0.10557382736E+03  0.10557382736E+03  0.00000000000E+00 0.  1.
         13   -1    0    0    0    0 -0.00000000000E+00 -0.00000000000E+00 -0.10000000000E+04  0.10000000000E+04  0.00000000000E+00 0.  1.
    9000005    2    1    2  501    0 -0.52489309596E-02 -0.12446249265E-02 -0.89450020252E+03  0.11054996012E+04  0.64961431319E+03 0.  0.
         13    1    3    3    0    0 -0.21327796969E+03 -0.19840919936E+03 -0.69178471200E+03  0.75061294320E+03  0.00000000000E+00 0.  1.
          1    1    3    3  501    0  0.21327272076E+03  0.19840795474E+03 -0.20271549052E+03  0.35488665799E+03  0.00000000000E+00 0.  1.
         21    1    1    2  502  501  0.52489309596E-02  0.12446249265E-02  0.74029880749E-01  0.74226165273E-01  0.00000000000E+00 0. -1.
<mgrwt>
<rscale>  1 0.64961431E+03</rscale>
<asrwt>0</asrwt>
<pdfrwt beam="1">  1        1 0.38390564E+00 0.64961431E+03</pdfrwt>
<pdfrwt beam="2">0</pdfrwt>
<totfact> 0.15771842E+00</totfact>
</mgrwt>
</event>
<event>
 6    1  0.6419182E-003  0.5116550E+03  0.7818608E-02  0.1010781E+00
          1   -1    0    0  502    0  0.00000000000E+00  0.00000000000E+00  0.65822766368E+02  0.65822766368E+02  0.00000000000E+00 0.  1.
         13   -1    0    0    0    0 -0.00000000000E+00 -0.00000000000E+00 -0.10000000000E+04  0.10000000000E+04  0.00000000000E+00 0.  1.
    9000005    2    1    2  501    0  0.23656237921E-01  0.90580859372E-02 -0.93455184301E+03  0.10654473015E+04  0.51165496616E+03 0.  0.
         13    1    3    3    0    0 -0.73130352249E+02 -0.16031112935E+03 -0.81063130789E+02  0.19395602024E+03  0.00000000000E+00 0.  1.
          3    1    3    3  501    0  0.73154008486E+02  0.16032018743E+03 -0.85348871222E+03  0.87149128128E+03  0.00000000000E+00 0.  1.
         21    1    1    2  502  501 -0.23656237921E-01 -0.90580859372E-02  0.37460938041E+00  0.37546485109E+00  0.00000000000E+00 0.  1.
<mgrwt>
<rscale>  1 0.51165497E+03</rscale>
<asrwt>0</asrwt>
<pdfrwt beam="1">  1        1 0.23935602E+00 0.51165497E+03</pdfrwt>
<pdfrwt beam="2">0</pdfrwt>
<totfact> 0.68592448E+00</totfact>
</mgrwt>
</event>
<event>
 6    1  0.6419182E-003  0.6497018E+03  0.7818608E-02  0.9807339E-01
          1   -1    0    0  502    0  0.00000000000E+00  0.00000000000E+00  0.10553073030E+03  0.10553073030E+03  0.00000000000E+00 0.  1.
         13   -1    0    0    0    0 -0.00000000000E+00 -0.00000000000E+00 -0.10000000000E+04  0.10000000000E+04  0.00000000000E+00 0.  1.
    9000005    2    1    2  501    0  0.22066865069E-02  0.87721746583E-03 -0.89447126965E+03  0.11055276257E+04  0.64970183844E+03 0.  0.
         13    1    3    3    0    0  0.26634258696E+03  0.21632264968E+01 -0.76368572838E+03  0.80880093033E+03  0.00000000000E+00 0.  1.
          3    1    3    3  501    0 -0.26634038027E+03 -0.21623492793E+01 -0.13078554127E+03  0.29672669533E+03  0.00000000000E+00 0.  1.
         21    1    1    2  502  501 -0.22066865069E-02 -0.87721746583E-03  0.19999522818E-02  0.31046392628E-02  0.00000000000E+00 0. -1.
<mgrwt>
<rscale>  1 0.64970184E+03</rscale>
<asrwt>0</asrwt>
<pdfrwt beam="1">  1        1 0.38374892E+00 0.64970184E+03</pdfrwt>
<pdfrwt beam="2">0</pdfrwt>
<totfact> 0.15796766E+00</totfact>
</mgrwt>
</event>
<event>
 6    1  0.6996469E-003  0.6469667E+03  0.7818608E-02  0.9812488E-01
          1   -1    0    0  502    0  0.00000000000E+00  0.00000000000E+00  0.10464148565E+03  0.10464148565E+03  0.00000000000E+00 0.  1.
         13   -1    0    0    0    0 -0.00000000000E+00 -0.00000000000E+00 -0.10000000000E+04  0.10000000000E+04  0.00000000000E+00 0.  1.
    9000005    2    1    2  501    0  0.10649966953E-06 -0.20366595663E-05 -0.89535851439E+03  0.11046414836E+04  0.64696672095E+03 0.  0.
         13    1    3    3    0    0 -0.27861554096E+03 -0.15241183145E+03 -0.55273044399E+03  0.63746915984E+03  0.00000000000E+00 0.  1.
          3    1    3    3  501    0  0.27861554107E+03  0.15241182942E+03 -0.34262807040E+03  0.46717232377E+03  0.00000000000E+00 0.  1.
         21    1    1    2  502  501 -0.10649971331E-06  0.20366595380E-05  0.43530712568E-07  0.20399066610E-05  0.00000000000E+00 0. -1.
<mgrwt>
<rscale>  1 0.64696672E+03</rscale>
<asrwt>0</asrwt>
<pdfrwt beam="1">  1        1 0.38051530E+00 0.64696672E+03</pdfrwt>
<pdfrwt beam="2">0</pdfrwt>
<totfact> 0.16333133E+00</totfact>
</mgrwt>
</event>
<event>
 6    1  0.6419182E-003  0.6496347E+03  0.7818608E-02  0.9807465E-01
          1   -1    0    0  502    0  0.00000000000E+00  0.00000000000E+00  0.10590318059E+03  0.10590318059E+03  0.00000000000E+00 0.  1.
         13   -1    0    0    0    0 -0.00000000000E+00 -0.00000000000E+00 -0.10000000000E+04  0.10000000000E+04  0.00000000000E+00 0.  1.
    9000005    2    1    2  501    0 -0.18658555031E+00  0.15005334239E+00 -0.89445338756E+03  0.11054736797E+04  0.64963461781E+03 0.  0.
         13    1    3    3    0    0  0.22841594680E+03  0.10052327447E+03 -0.93479801955E+02  0.26649061303E+03  0.00000000000E+00 0.  1.
          3    1    3    3  501    0 -0.22860253235E+03 -0.10037322113E+03 -0.80097358560E+03  0.83898306666E+03  0.00000000000E+00 0.  1.
         21    1    1    2  502  501  0.18658555031E+00 -0.15005334239E+00  0.35656814557E+00  0.42950089125E+00  0.00000000000E+00 0.  1.
<mgrwt>
<rscale>  1 0.64963466E+03</rscale>
<asrwt>0</asrwt>
<pdfrwt beam="1">  1        1 0.38510329E+00 0.64963466E+03</pdfrwt>
<pdfrwt beam="2">0</pdfrwt>
<totfact> 0.15580619E+00</totfact>
</mgrwt>
</event>
<event>
 6    1  0.6419182E-003  0.6506686E+03  0.7818608E-02  0.9805525E-01
          1   -1    0    0  502    0  0.00000000000E+00  0.00000000000E+00  0.11700696315E+03  0.11700696315E+03  0.00000000000E+00 0.  1.
         13   -1    0    0    0    0 -0.00000000000E+00 -0.00000000000E+00 -0.10000000000E+04  0.10000000000E+04  0.00000000000E+00 0.  1.
    9000005    2    1    2  501    0 -0.32710316841E-01 -0.12907804992E+01 -0.89411630325E+03  0.11058090062E+04  0.65066729385E+03 0.  0.
         13    1    3    3    0    0  0.29673486747E+03 -0.51179309584E+02 -0.65688959200E+03  0.72261666144E+03  0.00000000000E+00 0.  1.
          3    1    3    3  501    0 -0.29676757779E+03  0.49888529085E+02 -0.23722671125E+03  0.38319234477E+03  0.00000000000E+00 0.  1.
         21    1    1    2  502  501  0.32710316841E-01  0.12907804992E+01  0.11123266401E+02  0.11197956943E+02  0.00000000000E+00 0.  1.
<mgrwt>
<rscale>  1 0.65066857E+03</rscale>
<asrwt>0</asrwt>
<pdfrwt beam="1">  1        1 0.42548076E+00 0.65066857E+03</pdfrwt>
<pdfrwt beam="2">0</pdfrwt>
<totfact> 0.10278672E+00</totfact>
</mgrwt>
</event>
<event>
 6    1  0.6419182E-003  0.6489407E+03  0.7818608E-02  0.9808769E-01
          1   -1    0    0  502    0  0.00000000000E+00  0.00000000000E+00  0.10528227063E+03  0.10528227063E+03  0.00000000000E+00 0.  1.
         13   -1    0    0    0    0 -0.00000000000E+00 -0.00000000000E+00 -0.10000000000E+04  0.10000000000E+04  0.00000000000E+00 0.  1.
    9000005    2    1    2  501    0 -0.82176170406E-03  0.59123636947E-03 -0.89471874612E+03  0.11052808358E+04  0.64894074568E+03 0.  0.
         13    1    3    3    0    0 -0.22280023277E+03 -0.51891549897E+02 -0.83927698498E+03  0.86989570305E+03  0.00000000000E+00 0.  1.
          3    1    3    3  501    0  0.22279941101E+03  0.51892141134E+02 -0.55441761139E+02  0.23538513278E+03  0.00000000000E+00 0.  1.
         21    1    1    2  502  501  0.82176170408E-03 -0.59123636947E-03  0.10167508932E-02  0.14347944527E-02  0.00000000000E+00 0.  1.
<mgrwt>
<rscale>  1 0.64894075E+03</rscale>
<asrwt>0</asrwt>
<pdfrwt beam="1">  1        1 0.38284543E+00 0.64894075E+03</pdfrwt>
<pdfrwt beam="2">0</pdfrwt>
<totfact> 0.15944910E+00</totfact>
</mgrwt>
</event>
<event>
 6    1  0.6419182E-003  0.6494719E+03  0.7818608E-02  0.9807771E-01
          1   -1    0    0  502    0  0.00000000000E+00  0.00000000000E+00  0.10552656707E+03  0.10552656707E+03  0.00000000000E+00 0.  1.
         13   -1    0    0    0    0 -0.00000000000E+00 -0.00000000000E+00 -0.10000000000E+04  0.10000000000E+04  0.00000000000E+00 0.  1.
    9000005    2    1    2  501    0 -0.46694423630E-01  0.52083932373E-01 -0.89452760734E+03  0.11054380912E+04  0.64947188421E+03 0.  0.
         13    1    3    3    0    0  0.32176298013E+03  0.27926921708E+02 -0.50441331516E+03  0.59895251970E+03  0.00000000000E+00 0.  1.
          3    1    3    3  501    0 -0.32180967456E+03 -0.27874837776E+02 -0.39011429218E+03  0.50648557155E+03  0.00000000000E+00 0.  1.
         21    1    1    2  502  501  0.46694423630E-01 -0.52083932373E-01  0.54174410029E-01  0.88475826708E-01  0.00000000000E+00 0. -1.
<mgrwt>
<rscale>  1 0.64947189E+03</rscale>
<asrwt>0</asrwt>
<pdfrwt beam="1">  1        1 0.38373378E+00 0.64947189E+03</pdfrwt>
<pdfrwt beam="2">0</pdfrwt>
<totfact> 0.15799870E+00</totfact>
</mgrwt>
</event>
<event>
 6    1  0.6419182E-003  0.6553404E+03  0.7818608E-02  0.9796810E-01
          1   -1    0    0  502    0  0.00000000000E+00  0.00000000000E+00  0.10736775585E+03  0.10736775585E+03  0.00000000000E+00 0.  1.
         13   -1    0    0    0    0 -0.00000000000E+00 -0.00000000000E+00 -0.10000000000E+04  0.10000000000E+04  0.00000000000E+00 0.  1.
    9000005    2    1    2  501    0 -0.82441657625E-05  0.20868929084E-04 -0.89263223786E+03  0.11073677325E+04  0.65534035663E+03 0.  0.
         13    1    3    3    0    0  0.37689749489E+02  0.27821965968E+03 -0.73178579354E+03  0.78379662150E+03  0.00000000000E+00 0.  1.
          1    1    3    3  501    0 -0.37689757733E+02 -0.27821963881E+03 -0.16084644431E+03  0.32357111105E+03  0.00000000000E+00 0.  1.
         21    1    1    2  502  501  0.82441657689E-05 -0.20868929078E-04 -0.62922438744E-05  0.23303879571E-04  0.00000000000E+00 0. -1.
<mgrwt>
<rscale>  1 0.65534036E+03</rscale>
<asrwt>0</asrwt>
<pdfrwt beam="1">  1        1 0.39042903E+00 0.65534036E+03</pdfrwt>
<pdfrwt beam="2">0</pdfrwt>
<totfact> 0.14741287E+00</totfact>
</mgrwt>
</event>
<event>
 6    1  0.6419182E-003  0.6425525E+03  0.7818608E-02  0.9820855E-01
          1   -1    0    0  502    0  0.00000000000E+00  0.00000000000E+00  0.10321846890E+03  0.10321846890E+03  0.00000000000E+00 0.  1.
         13   -1    0    0    0    0 -0.00000000000E+00 -0.00000000000E+00 -0.10000000000E+04  0.10000000000E+04  0.00000000000E+00 0.  1.
    9000005    2    1    2  501    0  0.22112256943E-04  0.16668638750E-04 -0.89678155222E+03  0.11032184341E+04  0.64255253551E+03 0.  0.
         13    1    3    3    0    0 -0.23198062869E+03 -0.21641217954E+03 -0.53541711453E+03  0.62235097017E+03  0.00000000000E+00 0.  1.
          1    1    3    3  501    0  0.23198065080E+03  0.21641219621E+03 -0.36136443768E+03  0.48086746390E+03  0.00000000000E+00 0.  1.
         21    1    1    2  502  501 -0.22112256939E-04 -0.16668638734E-04  0.21112752371E-04  0.34821598712E-04  0.00000000000E+00 0.  1.
<mgrwt>
<rscale>  1 0.64255254E+03</rscale>
<asrwt>0</asrwt>
<pdfrwt beam="1">  1        1 0.37534068E+00 0.64255254E+03</pdfrwt>
<pdfrwt beam="2">0</pdfrwt>
<totfact> 0.17227814E+00</totfact>
</mgrwt>
</event>
<event>
 6    1  0.6419182E-003  0.6475804E+03  0.7818608E-02  0.9811330E-01
          1   -1    0    0  502    0  0.00000000000E+00  0.00000000000E+00  0.10484012600E+03  0.10484012600E+03  0.00000000000E+00 0.  1.
         13   -1    0    0    0    0 -0.00000000000E+00 -0.00000000000E+00 -0.10000000000E+04  0.10000000000E+04  0.00000000000E+00 0.  1.
    9000005    2    1    2  501    0 -0.16436578392E-05 -0.55042121403E-05 -0.89515992206E+03  0.11048400776E+04  0.64758035099E+03 0.  0.
         13    1    3    3    0    0 -0.74360732529E+02  0.24478288988E+03 -0.10896261936E+03  0.27806660018E+03  0.00000000000E+00 0.  1.
          1    1    3    3  501    0  0.74360730886E+02 -0.24478289538E+03 -0.78619730271E+03  0.82677347741E+03  0.00000000000E+00 0.  1.
         21    1    1    2  502  501  0.16436578339E-05  0.55042121316E-05  0.48063783702E-04  0.48405839172E-04  0.00000000000E+00 0.  1.
<mgrwt>
<rscale>  1 0.64758035E+03</rscale>
<asrwt>0</asrwt>
<pdfrwt beam="1">  1        1 0.38123763E+00 0.64758035E+03</pdfrwt>
<pdfrwt beam="2">0</pdfrwt>
<totfact> 0.16211829E+00</totfact>
</mgrwt>
</event>
<event>
 6    1  0.6419182E-003  0.6001459E+03  0.7818608E-02  0.9905103E-01
          1   -1    0    0  502    0  0.00000000000E+00  0.00000000000E+00  0.90044715380E+02  0.90044715380E+02  0.00000000000E+00 0.  1.
         13   -1    0    0    0    0 -0.00000000000E+00 -0.00000000000E+00 -0.10000000000E+04  0.10000000000E+04  0.00000000000E+00 0.  1.
    9000005    2    1    2  501    0  0.91319411212E-04  0.15862912858E-03 -0.90995622516E+03  0.10900437572E+04  0.60014586634E+03 0.  0.
         13    1    3    3    0    0 -0.24465062461E+03 -0.14297655077E+03 -0.63430004690E+03  0.69471776405E+03  0.00000000000E+00 0.  1.
          1    1    3    3  501    0  0.24465071593E+03  0.14297670940E+03 -0.27565617826E+03  0.39532599314E+03  0.00000000000E+00 0.  1.
         21    1    1    2  502  501 -0.91319411207E-04 -0.15862912857E-03  0.94054213459E-03  0.95818679924E-03  0.00000000000E+00 0. -1.
<mgrwt>
<rscale>  1 0.60014587E+03</rscale>
<asrwt>0</asrwt>
<pdfrwt beam="1">  1        1 0.32743602E+00 0.60014587E+03</pdfrwt>
<pdfrwt beam="2">0</pdfrwt>
<totfact> 0.28084619E+00</totfact>
</mgrwt>
</event>
<event>
 6    1  0.6419182E-003  0.6439734E+03  0.7818608E-02  0.9818154E-01
          1   -1    0    0  502    0  0.00000000000E+00  0.00000000000E+00  0.10370203335E+03  0.10370203335E+03  0.00000000000E+00 0.  1.
         13   -1    0    0    0    0 -0.00000000000E+00 -0.00000000000E+00 -0.10000000000E+04  0.10000000000E+04  0.00000000000E+00 0.  1.
    9000005    2    1    2  501    0  0.29972352776E-01  0.30803688367E-01 -0.89630387317E+03  0.11036586502E+04  0.64397343214E+03 0.  0.
         13    1    3    3    0    0  0.10040459334E+03 -0.29648725696E+03 -0.57734285791E+03  0.65674237833E+03  0.00000000000E+00 0.  1.
          3    1    3    3  501    0 -0.10037462098E+03  0.29651806065E+03 -0.31896101525E+03  0.44691627189E+03  0.00000000000E+00 0.  1.
         21    1    1    2  502  501 -0.29972352776E-01 -0.30803688367E-01  0.59065174865E-02  0.43383131478E-01  0.00000000000E+00 0.  1.
<mgrwt>
<rscale>  1 0.64397343E+03</rscale>
<asrwt>0</asrwt>
<pdfrwt beam="1">  1        1 0.37709910E+00 0.64397343E+03</pdfrwt>
<pdfrwt beam="2">0</pdfrwt>
<totfact> 0.16918918E+00</totfact>
</mgrwt>
</event>
<event>
 6    1  0.6419182E-003  0.6587287E+03  0.7818608E-02  0.9790537E-01
          3   -1    0    0  502    0  0.00000000000E+00  0.00000000000E+00  0.10848100064E+03  0.10848100064E+03  0.00000000000E+00 0.  1.
         13   -1    0    0    0    0 -0.00000000000E+00 -0.00000000000E+00 -0.10000000000E+04  0.10000000000E+04  0.00000000000E+00 0.  1.
    9000005    2    1    2  501    0 -0.17600261515E-04 -0.17684217369E-04 -0.89151912497E+03  0.11084808726E+04  0.65872869580E+03 0.  0.
         13    1    3    3    0    0 -0.19298330382E+03  0.18528297969E+03 -0.12247495432E+03  0.29423197064E+03  0.00000000000E+00 0.  1.
          3    1    3    3  501    0  0.19298328622E+03 -0.18528299737E+03 -0.76904417066E+03  0.81424890193E+03  0.00000000000E+00 0.  1.
         21    1    1    2  502  501  0.17600261513E-04  0.17684217368E-04  0.12561545773E-03  0.12806929363E-03  0.00000000000E+00 0. -1.
<mgrwt>
<rscale>  1 0.65872870E+03</rscale>
<asrwt>0</asrwt>
<pdfrwt beam="1">  1        3 0.39447720E+00 0.65872870E+03</pdfrwt>
<pdfrwt beam="2">0</pdfrwt>
<totfact> 0.63231838E-02</totfact>
</mgrwt>
</event>
<event>
 6    1  0.6419182E-003  0.6440910E+03  0.7818608E-02  0.9817931E-01
          1   -1    0    0  502    0  0.00000000000E+00  0.00000000000E+00  0.10373189351E+03  0.10373189351E+03  0.00000000000E+00 0.  1.
         13   -1    0    0    0    0 -0.00000000000E+00 -0.00000000000E+00 -0.10000000000E+04  0.10000000000E+04  0.00000000000E+00 0.  1.
    9000005    2    1    2  501    0 -0.20539881604E-03  0.41730050298E-03 -0.89628669078E+03  0.11037133034E+04  0.64409100601E+03 0.  0.
         13    1    3    3    0    0 -0.29619227936E+03 -0.27909778082E+02 -0.23684535400E+03  0.38026904131E+03  0.00000000000E+00 0.  1.
          3    1    3    3  501    0  0.29619207397E+03  0.27910195383E+02 -0.65944133679E+03  0.72344426209E+03  0.00000000000E+00 0.  1.
         21    1    1    2  502  501  0.20539881607E-03 -0.41730050298E-03  0.18584293370E-01  0.18590112653E-01  0.00000000000E+00 0.  1.
<mgrwt>
<rscale>  1 0.64409101E+03</rscale>
<asrwt>0</asrwt>
<pdfrwt beam="1">  1        1 0.37720768E+00 0.64409101E+03</pdfrwt>
<pdfrwt beam="2">0</pdfrwt>
<totfact> 0.16899925E+00</totfact>
</mgrwt>
</event>
<event>
 6    1  0.6419182E-003  0.6286296E+03  0.7818608E-02  0.9847727E-01
          1   -1    0    0  502    0  0.00000000000E+00  0.00000000000E+00  0.98984799675E+02  0.98984799675E+02  0.00000000000E+00 0.  1.
         13   -1    0    0    0    0 -0.00000000000E+00 -0.00000000000E+00 -0.10000000000E+04  0.10000000000E+04  0.00000000000E+00 0.  1.
    9000005    2    1    2  501    0  0.25857761853E+00  0.37608538115E+00 -0.90084524485E+03  0.10984977807E+04  0.62862947017E+03 0.  0.
         13    1    3    3    0    0  0.16874960910E+03  0.35439008862E+02  0.88582569862E+01  0.17265810910E+03  0.00000000000E+00 0.  1.
          3    1    3    3  501    0 -0.16849103148E+03 -0.35062923481E+02 -0.90970350184E+03  0.92583967162E+03  0.00000000000E+00 0.  1.
         21    1    1    2  502  501 -0.25857761853E+00 -0.37608538115E+00 -0.16995547204E+00  0.48701895363E+00  0.00000000000E+00 0. -1.
<mgrwt>
<rscale>  1 0.62862964E+03</rscale>
<asrwt>0</asrwt>
<pdfrwt beam="1">  1        1 0.35994549E+00 0.62862964E+03</pdfrwt>
<pdfrwt beam="2">0</pdfrwt>
<totfact> 0.20177880E+00</totfact>
</mgrwt>
</event>
<event>
 6    1  0.6419182E-003  0.5781043E+03  0.7818608E-02  0.9951904E-01
          1   -1    0    0  502    0  0.00000000000E+00  0.00000000000E+00  0.88570137917E+02  0.88570137917E+02  0.00000000000E+00 0.  1.
         13   -1    0    0    0    0 -0.00000000000E+00 -0.00000000000E+00 -0.10000000000E+04  0.10000000000E+04  0.00000000000E+00 0.  1.
    9000005    2    1    2  501    0 -0.29635237933E+00  0.45288022657E+00 -0.91643304980E+03  0.10835377615E+04  0.57810401561E+03 0.  0.
         13    1    3    3    0    0  0.15051980456E+03  0.89284667142E-01  0.42540114586E+01  0.15057993276E+03  0.00000000000E+00 0.  1.
          1    1    3    3  501    0 -0.15081615694E+03  0.36359555943E+00 -0.92068706126E+03  0.93295782872E+03  0.00000000000E+00 0.  1.
         21    1    1    2  502  501  0.29635237933E+00 -0.45288022657E+00  0.50031877199E+01  0.50323764359E+01  0.00000000000E+00 0. -1.
<mgrwt>
<rscale>  1 0.57810427E+03</rscale>
<asrwt>0</asrwt>
<pdfrwt beam="1">  1        1 0.32207391E+00 0.57810427E+03</pdfrwt>
<pdfrwt beam="2">0</pdfrwt>
<totfact> 0.29744484E+00</totfact>
</mgrwt>
</event>
<event>
 6    1  0.6419182E-003  0.6470524E+03  0.7818608E-02  0.9812326E-01
          1   -1    0    0  502    0  0.00000000000E+00  0.00000000000E+00  0.10466923300E+03  0.10466923300E+03  0.00000000000E+00 0.  1.
         13   -1    0    0    0    0 -0.00000000000E+00 -0.00000000000E+00 -0.10000000000E+04  0.10000000000E+04  0.00000000000E+00 0.  1.
    9000005    2    1    2  501    0  0.34660982919E-05  0.14621718947E-05 -0.89533081165E+03  0.11046691882E+04  0.64705235728E+03 0.  0.
         13    1    3    3    0    0 -0.84374692721E+02  0.31018463868E+03 -0.38527334564E+03  0.50176603084E+03  0.00000000000E+00 0.  1.
          3    1    3    3  501    0  0.84374696187E+02 -0.31018463721E+03 -0.51005746601E+03  0.60290315735E+03  0.00000000000E+00 0.  1.
         21    1    1    2  502  501 -0.34660982937E-05 -0.14621718617E-05  0.44648310747E-04  0.44806511095E-04  0.00000000000E+00 0. -1.
<mgrwt>
<rscale>  1 0.64705236E+03</rscale>
<asrwt>0</asrwt>
<pdfrwt beam="1">  1        1 0.38061620E+00 0.64705236E+03</pdfrwt>
<pdfrwt beam="2">0</pdfrwt>
<totfact> 0.16316137E+00</totfact>
</mgrwt>
</event>
<event>
 6    1  0.6419182E-003  0.6407713E+03  0.7818608E-02  0.9824252E-01
          1   -1    0    0  502    0  0.00000000000E+00  0.00000000000E+00  0.10264698004E+03  0.10264698004E+03  0.00000000000E+00 0.  1.
         13   -1    0    0    0    0 -0.00000000000E+00 -0.00000000000E+00 -0.10000000000E+04  0.10000000000E+04  0.00000000000E+00 0.  1.
    9000005    2    1    2  501    0 -0.14021283619E-05 -0.51020633407E-05 -0.89735302504E+03  0.11026469727E+04  0.64077132807E+03 0.  0.
         13    1    3    3    0    0 -0.25138149180E+03  0.15386021800E+03 -0.23250148312E+03  0.37539653802E+03  0.00000000000E+00 0.  1.
          1    1    3    3  501    0  0.25138149039E+03 -0.15386022311E+03 -0.66485154192E+03  0.72725043469E+03  0.00000000000E+00 0.  1.
         21    1    1    2  502  501  0.14021283524E-05  0.51020633272E-05  0.50726645583E-05  0.73300027171E-05  0.00000000000E+00 0.  1.
<mgrwt>
<rscale>  1 0.64077133E+03</rscale>
<asrwt>0</asrwt>
<pdfrwt beam="1">  1        1 0.37326253E+00 0.64077133E+03</pdfrwt>
<pdfrwt beam="2">0</pdfrwt>
<totfact> 0.17600148E+00</totfact>
</mgrwt>
</event>
<event>
 6    1  0.6419182E-003  0.6453757E+03  0.7818608E-02  0.9815495E-01
          1   -1    0    0  502    0  0.00000000000E+00  0.00000000000E+00  0.10414183871E+03  0.10414183871E+03  0.00000000000E+00 0.  1.
         13   -1    0    0    0    0 -0.00000000000E+00 -0.00000000000E+00 -0.10000000000E+04  0.10000000000E+04  0.00000000000E+00 0.  1.
    9000005    2    1    2  501    0  0.90717069683E-02 -0.13563848620E-01 -0.89586725091E+03  0.11041231600E+04  0.64537572070E+03 0.  0.
         13    1    3    3    0    0 -0.18475467860E+03 -0.20146466934E+03 -0.15456001789E+03  0.31402404906E+03  0.00000000000E+00 0.  1.
          3    1    3    3  501    0  0.18476375031E+03  0.20145110549E+03 -0.74130723303E+03  0.79009911092E+03  0.00000000000E+00 0.  1.
         21    1    1    2  502  501 -0.90717069683E-02  0.13563848620E-01  0.90896229483E-02  0.18678733952E-01  0.00000000000E+00 0.  1.
<mgrwt>
<rscale>  1 0.64537572E+03</rscale>
<asrwt>0</asrwt>
<pdfrwt beam="1">  1        1 0.37869839E+00 0.64537572E+03</pdfrwt>
<pdfrwt beam="2">0</pdfrwt>
<totfact> 0.16642230E+00</totfact>
</mgrwt>
</event>
<event>
 6    1  0.6419182E-003  0.6478730E+03  0.7818608E-02  0.9810778E-01
          1   -1    0    0  502    0  0.00000000000E+00  0.00000000000E+00  0.10493983749E+03  0.10493983749E+03  0.00000000000E+00 0.  1.
         13   -1    0    0    0    0 -0.00000000000E+00 -0.00000000000E+00 -0.10000000000E+04  0.10000000000E+04  0.00000000000E+00 0.  1.
    9000005    2    1    2  501    0 -0.71567884997E-02 -0.28379012544E-03 -0.89506210634E+03  0.11049324160E+04  0.64787303514E+03 0.  0.
         13    1    3    3    0    0 -0.26754991640E+03 -0.10363894772E+03 -0.70399729998E+03  0.76022114390E+03  0.00000000000E+00 0.  1.
          1    1    3    3  501    0  0.26754275961E+03  0.10363866393E+03 -0.19106480636E+03  0.34471127210E+03  0.00000000000E+00 0.  1.
         21    1    1    2  502  501  0.71567884997E-02  0.28379012543E-03  0.19438270108E-02  0.74214972824E-02  0.00000000000E+00 0.  1.
<mgrwt>
<rscale>  1 0.64787304E+03</rscale>
<asrwt>0</asrwt>
<pdfrwt beam="1">  1        1 0.38160021E+00 0.64787304E+03</pdfrwt>
<pdfrwt beam="2">0</pdfrwt>
<totfact> 0.16151307E+00</totfact>
</mgrwt>
</event>
<event>
 6    1  0.6419182E-003  0.6393026E+03  0.7818608E-02  0.9827062E-01
          1   -1    0    0  502    0  0.00000000000E+00  0.00000000000E+00  0.10218515217E+03  0.10218515217E+03  0.00000000000E+00 0.  1.
         13   -1    0    0    0    0 -0.00000000000E+00 -0.00000000000E+00 -0.10000000000E+04  0.10000000000E+04  0.00000000000E+00 0.  1.
    9000005    2    1    2  501    0  0.81661503660E-03  0.15760701221E-02 -0.89782295283E+03  0.11021768551E+04  0.63930256157E+03 0.  0.
         13    1    3    3    0    0  0.22660069494E+03  0.35797552478E+02 -0.65154203974E+02  0.23848356339E+03  0.00000000000E+00 0.  1.
          3    1    3    3  501    0 -0.22659987832E+03 -0.35795976408E+02 -0.83266874885E+03  0.86369329168E+03  0.00000000000E+00 0.  1.
         21    1    1    2  502  501 -0.81661503659E-03 -0.15760701221E-02  0.81049981718E-02  0.82970990420E-02  0.00000000000E+00 0. -1.
<mgrwt>
<rscale>  1 0.63930256E+03</rscale>
<asrwt>0</asrwt>
<pdfrwt beam="1">  1        1 0.37158316E+00 0.63930256E+03</pdfrwt>
<pdfrwt beam="2">0</pdfrwt>
<totfact> 0.17906732E+00</totfact>
</mgrwt>
</event>
<event>
 6    1  0.6419182E-003  0.6642177E+03  0.7818608E-02  0.9780460E-01
          1   -1    0    0  502    0  0.00000000000E+00  0.00000000000E+00  0.11029633407E+03  0.11029633407E+03  0.00000000000E+00 0.  1.
         13   -1    0    0    0    0 -0.00000000000E+00 -0.00000000000E+00 -0.10000000000E+04  0.10000000000E+04  0.00000000000E+00 0.  1.
    9000005    2    1    2  501    0  0.32716777071E-04  0.69242592957E-05 -0.88970369425E+03  0.11102962902E+04  0.66421772679E+03 0.  0.
         13    1    3    3    0    0 -0.22841970864E+03 -0.97389079105E+02 -0.76207323950E+02  0.25974555289E+03  0.00000000000E+00 0.  1.
          3    1    3    3  501    0  0.22841974136E+03  0.97389086030E+02 -0.81349637030E+03  0.85055073735E+03  0.00000000000E+00 0.  1.
         21    1    1    2  502  501 -0.32716777065E-04 -0.69242592899E-05  0.28317308702E-04  0.43820119127E-04  0.00000000000E+00 0. -1.
<mgrwt>
<rscale>  1 0.66421773E+03</rscale>
<asrwt>0</asrwt>
<pdfrwt beam="1">  1        1 0.40107842E+00 0.66421773E+03</pdfrwt>
<pdfrwt beam="2">0</pdfrwt>
<totfact> 0.13195935E+00</totfact>
</mgrwt>
</event>
<event>
 6    1  0.6419182E-003  0.6448674E+03  0.7818608E-02  0.9816458E-01
          1   -1    0    0  502    0  0.00000000000E+00  0.00000000000E+00  0.10416277031E+03  0.10416277031E+03  0.00000000000E+00 0.  1.
         13   -1    0    0    0    0 -0.00000000000E+00 -0.00000000000E+00 -0.10000000000E+04  0.10000000000E+04  0.00000000000E+00 0.  1.
    9000005    2    1    2  501    0  0.26704827128E-01 -0.11401111936E-01 -0.89603534368E+03  0.11039625397E+04  0.64486739038E+03 0.  0.
         13    1    3    3    0    0 -0.72634749552E+02 -0.30787599342E+03 -0.55495279114E+03  0.63877698343E+03  0.00000000000E+00 0.  1.
          1    1    3    3  501    0  0.72661454380E+02  0.30786459231E+03 -0.34108255253E+03  0.46518555630E+03  0.00000000000E+00 0.  1.
         21    1    1    2  502  501 -0.26704827128E-01  0.11401111937E-01  0.19811398226E+00  0.20023057487E+00  0.00000000000E+00 0. -1.
<mgrwt>
<rscale>  1 0.64486739E+03</rscale>
<asrwt>0</asrwt>
<pdfrwt beam="1">  1        1 0.37877451E+00 0.64486739E+03</pdfrwt>
<pdfrwt beam="2">0</pdfrwt>
<totfact> 0.16630926E+00</totfact>
</mgrwt>
</event>
<event>
 6    1  0.6419182E-003  0.6485189E+03  0.7818608E-02  0.9809562E-01
          1   -1    0    0  502    0  0.00000000000E+00  0.00000000000E+00  0.11443894051E+03  0.11443894051E+03  0.00000000000E+00 0.  1.
         13   -1    0    0    0    0 -0.00000000000E+00 -0.00000000000E+00 -0.10000000000E+04  0.10000000000E+04  0.00000000000E+00 0.  1.
    9000005    2    1    2  501    0 -0.21662385514E+02 -0.60439556201E+01 -0.87616552656E+03  0.10900655045E+04  0.64812883422E+03 0.  0.
         13    1    3    3    0    0 -0.18829574943E+03 -0.17988756722E+03 -0.10261756613E+03  0.27990210962E+03  0.00000000000E+00 0.  1.
          3    1    3    3  501    0  0.16663336392E+03  0.17384361160E+03 -0.77354796042E+03  0.81016339484E+03  0.00000000000E+00 0.  1.
         21    1    1    2  502  501  0.21662385514E+02  0.60439556201E+01 -0.93955329339E+01  0.24373436048E+02  0.00000000000E+00 0. -1.
<mgrwt>
<rscale>  1 0.64851891E+03</rscale>
<asrwt>0</asrwt>
<pdfrwt beam="1">  1        1 0.41614248E+00 0.64851891E+03</pdfrwt>
<pdfrwt beam="2">0</pdfrwt>
<totfact> 0.11330762E+00</totfact>
</mgrwt>
</event>
<event>
 6    1  0.6419182E-003  0.6313611E+03  0.7818608E-02  0.9842396E-01
          1   -1    0    0  502    0  0.00000000000E+00  0.00000000000E+00  0.99654248302E+02  0.99654248302E+02  0.00000000000E+00 0.  1.
         13   -1    0    0    0    0 -0.00000000000E+00 -0.00000000000E+00 -0.10000000000E+04  0.10000000000E+04  0.00000000000E+00 0.  1.
    9000005    2    1    2  501    0 -0.26740963222E-05  0.25489219249E-05 -0.90034579432E+03  0.10996542055E+04  0.63136108714E+03 0.  0.
         13    1    3    3    0    0 -0.28397816885E+03 -0.13963876717E+01 -0.69030710861E+03  0.74643784368E+03  0.00000000000E+00 0.  1.
          3    1    3    3  501    0  0.28397816618E+03  0.13963902206E+01 -0.21003868572E+03  0.35321636184E+03  0.00000000000E+00 0.  1.
         21    1    1    2  502  501  0.26740963129E-05 -0.25489219250E-05  0.42625282672E-04  0.42785073530E-04  0.00000000000E+00 0.  1.
<mgrwt>
<rscale>  1 0.63136109E+03</rscale>
<asrwt>0</asrwt>
<pdfrwt beam="1">  1        1 0.36237985E+00 0.63136109E+03</pdfrwt>
<pdfrwt beam="2">0</pdfrwt>
<totfact> 0.19679305E+00</totfact>
</mgrwt>
</event>
<event>
 6    1  0.6419182E-003  0.6595649E+03  0.7818608E-02  0.9788995E-01
          1   -1    0    0  502    0  0.00000000000E+00  0.00000000000E+00  0.10985668003E+03  0.10985668003E+03  0.00000000000E+00 0.  1.
         13   -1    0    0    0    0 -0.00000000000E+00 -0.00000000000E+00 -0.10000000000E+04  0.10000000000E+04  0.00000000000E+00 0.  1.
    9000005    2    1    2  501    0  0.11354128459E+01 -0.63509962031E+00 -0.89079951257E+03  0.11083995930E+04  0.65956363883E+03 0.  0.
         13    1    3    3    0    0  0.30481201777E+03  0.71456807479E+02 -0.62258715439E+03  0.69687244624E+03  0.00000000000E+00 0.  1.
          1    1    3    3  501    0 -0.30367660493E+03 -0.72091907099E+02 -0.26821235818E+03  0.41152714677E+03  0.00000000000E+00 0.  1.
         21    1    1    2  502  501 -0.11354128459E+01  0.63509962031E+00  0.65619259843E+00  0.14570870202E+01  0.00000000000E+00 0. -1.
<mgrwt>
<rscale>  1 0.65956492E+03</rscale>
<asrwt>0</asrwt>
<pdfrwt beam="1">  1        1 0.39947968E+00 0.65956492E+03</pdfrwt>
<pdfrwt beam="2">0</pdfrwt>
<totfact> 0.13426074E+00</totfact>
</mgrwt>
</event>
<event>
 6    1  0.6419182E-003  0.6525272E+03  0.7818608E-02  0.9802049E-01
          1   -1    0    0  502    0  0.00000000000E+00  0.00000000000E+00  0.10644794911E+03  0.10644794911E+03  0.00000000000E+00 0.  1.
         13   -1    0    0    0    0 -0.00000000000E+00 -0.00000000000E+00 -0.10000000000E+04  0.10000000000E+04  0.00000000000E+00 0.  1.
    9000005    2    1    2  501    0  0.30217198429E-04  0.57276449610E-05 -0.89355206490E+03  0.11064479153E+04  0.65252716160E+03 0.  0.
         13    1    3    3    0    0  0.18715176554E+03  0.11244371415E+03 -0.85787071520E+03  0.88521835510E+03  0.00000000000E+00 0.  1.
          1    1    3    3  501    0 -0.18715173532E+03 -0.11244370842E+03 -0.35681349694E+02  0.22122956022E+03  0.00000000000E+00 0.  1.
         21    1    1    2  502  501 -0.30217198454E-04 -0.57276449571E-05  0.14000970477E-04  0.33792191013E-04  0.00000000000E+00 0. -1.
<mgrwt>
<rscale>  1 0.65252716E+03</rscale>
<asrwt>0</asrwt>
<pdfrwt beam="1">  1        1 0.38708427E+00 0.65252716E+03</pdfrwt>
<pdfrwt beam="2">0</pdfrwt>
<totfact> 0.15261081E+00</totfact>
</mgrwt>
</event>
<event>
 6    1  0.6419182E-003  0.6530652E+03  0.7818608E-02  0.9801044E-01
          1   -1    0    0  502    0  0.00000000000E+00  0.00000000000E+00  0.10663139864E+03  0.10663139864E+03  0.00000000000E+00 0.  1.
         13   -1    0    0    0    0 -0.00000000000E+00 -0.00000000000E+00 -0.10000000000E+04  0.10000000000E+04  0.00000000000E+00 0.  1.
    9000005    2    1    2  501    0 -0.60621314281E-02  0.10827456244E-01 -0.89337061005E+03  0.11066188281E+04  0.65306522162E+03 0.  0.
         13    1    3    3    0    0 -0.19689732794E+03  0.22658922409E+02 -0.69566650238E+01  0.19831888388E+03  0.00000000000E+00 0.  1.
          1    1    3    3  501    0  0.19689126581E+03 -0.22648094952E+02 -0.88641394503E+03  0.90829994423E+03  0.00000000000E+00 0.  1.
         21    1    1    2  502  501  0.60621314281E-02 -0.10827456244E-01  0.20086938479E-02  0.12570524935E-01  0.00000000000E+00 0.  1.
<mgrwt>
<rscale>  1 0.65306522E+03</rscale>
<asrwt>0</asrwt>
<pdfrwt beam="1">  1        1 0.38775136E+00 0.65306522E+03</pdfrwt>
<pdfrwt beam="2">0</pdfrwt>
<totfact> 0.15156107E+00</totfact>
</mgrwt>
</event>
<event>
 6    1  0.6419182E-003  0.6437460E+03  0.7818608E-02  0.9818586E-01
          1   -1    0    0  502    0  0.00000000000E+00  0.00000000000E+00  0.10360359285E+03  0.10360359285E+03  0.00000000000E+00 0.  1.
         13   -1    0    0    0    0 -0.00000000000E+00 -0.00000000000E+00 -0.10000000000E+04  0.10000000000E+04  0.00000000000E+00 0.  1.
    9000005    2    1    2  501    0  0.96372119827E-04  0.72120627715E-03 -0.89639764805E+03  0.11036021544E+04  0.64374604595E+03 0.  0.
         13    1    3    3    0    0 -0.17394216763E+03 -0.13073273108E+03 -0.85480977675E+03  0.88206954323E+03  0.00000000000E+00 0.  1.
          1    1    3    3  501    0  0.17394226401E+03  0.13073345229E+03 -0.41587871294E+02  0.22153261113E+03  0.00000000000E+00 0.  1.
         21    1    1    2  502  501 -0.96372119804E-04 -0.72120627714E-03  0.12408944404E-02  0.14384870844E-02  0.00000000000E+00 0.  1.
<mgrwt>
<rscale>  1 0.64374605E+03</rscale>
<asrwt>0</asrwt>
<pdfrwt beam="1">  1        1 0.37674113E+00 0.64374605E+03</pdfrwt>
<pdfrwt beam="2">0</pdfrwt>
<totfact> 0.16981177E+00</totfact>
</mgrwt>
</event>
<event>
 6    1  0.6419182E-003  0.6426694E+03  0.7818608E-02  0.9820633E-01
          1   -1    0    0  502    0  0.00000000000E+00  0.00000000000E+00  0.10325632391E+03  0.10325632391E+03  0.00000000000E+00 0.  1.
         13   -1    0    0    0    0 -0.00000000000E+00 -0.00000000000E+00 -0.10000000000E+04  0.10000000000E+04  0.00000000000E+00 0.  1.
    9000005    2    1    2  501    0  0.29549776869E-03  0.96622313289E-03 -0.89674275107E+03  0.11032549540E+04  0.64266938001E+03 0.  0.
         13    1    3    3    0    0  0.17860575376E+03  0.11310393812E+03 -0.32937506588E+02  0.21395652698E+03  0.00000000000E+00 0.  1.
          1    1    3    3  501    0 -0.17860545826E+03 -0.11310297190E+03 -0.86380524448E+03  0.88929842706E+03  0.00000000000E+00 0.  1.
         21    1    1    2  502  501 -0.29549776868E-03 -0.96622313289E-03 -0.92501730833E-03  0.13698770363E-02  0.00000000000E+00 0.  1.
<mgrwt>
<rscale>  1 0.64266938E+03</rscale>
<asrwt>0</asrwt>
<pdfrwt beam="1">  1        1 0.37547833E+00 0.64266938E+03</pdfrwt>
<pdfrwt beam="2">0</pdfrwt>
<totfact> 0.17203422E+00</totfact>
</mgrwt>
</event>
<event>
 6    1  0.6419182E-003  0.6517718E+03  0.7818608E-02  0.9803460E-01
          1   -1    0    0  502    0  0.00000000000E+00  0.00000000000E+00  0.10620166842E+03  0.10620166842E+03  0.00000000000E+00 0.  1.
         13   -1    0    0    0    0 -0.00000000000E+00 -0.00000000000E+00 -0.10000000000E+04  0.10000000000E+04  0.00000000000E+00 0.  1.
    9000005    2    1    2  501    0 -0.12066284540E-04 -0.11823226487E-06 -0.89379838119E+03  0.11062016174E+04  0.65177179445E+03 0.  0.
         13    1    3    3    0    0  0.12604164525E+03  0.29853483290E+03 -0.50549819655E+03  0.60044814056E+03  0.00000000000E+00 0.  1.
          3    1    3    3  501    0 -0.12604165732E+03 -0.29853483302E+03 -0.38830018464E+03  0.50575347680E+03  0.00000000000E+00 0.  1.
         21    1    1    2  502  501  0.12066284543E-04  0.11823223624E-06  0.49611019275E-04  0.51057442503E-04  0.00000000000E+00 0.  1.
<mgrwt>
<rscale>  1 0.65177179E+03</rscale>
<asrwt>0</asrwt>
<pdfrwt beam="1">  1        1 0.38618870E+00 0.65177179E+03</pdfrwt>
<pdfrwt beam="2">0</pdfrwt>
<totfact> 0.15403188E+00</totfact>
</mgrwt>
</event>
<event>
 6    1  0.6419182E-003  0.6458704E+03  0.7818608E-02  0.9814559E-01
          1   -1    0    0  502    0  0.00000000000E+00  0.00000000000E+00  0.10428781622E+03  0.10428781622E+03  0.00000000000E+00 0.  1.
         13   -1    0    0    0    0 -0.00000000000E+00 -0.00000000000E+00 -0.10000000000E+04  0.10000000000E+04  0.00000000000E+00 0.  1.
    9000005    2    1    2  501    0 -0.96036512451E-03 -0.44313658390E-03 -0.89571234924E+03  0.11042867457E+04  0.64587042363E+03 0.  0.
         13    1    3    3    0    0 -0.72145881618E+02 -0.27461527015E+03 -0.71089808987E+03  0.76550288635E+03  0.00000000000E+00 0.  1.
          3    1    3    3  501    0  0.72144921253E+02  0.27461482701E+03 -0.18481425936E+03  0.33878385933E+03  0.00000000000E+00 0.  1.
         21    1    1    2  502  501  0.96036512450E-03  0.44313658393E-03  0.16545151446E-03  0.10705351036E-02  0.00000000000E+00 0. -1.
<mgrwt>
<rscale>  1 0.64587042E+03</rscale>
<asrwt>0</asrwt>
<pdfrwt beam="1">  1        1 0.37922922E+00 0.64587042E+03</pdfrwt>
<pdfrwt beam="2">0</pdfrwt>
<totfact> 0.16551262E+00</totfact>
</mgrwt>
</event>
<event>
 6    1  0.6419182E-003  0.6608044E+03  0.7818608E-02  0.9786714E-01
          1   -1    0    0  502    0  0.00000000000E+00  0.00000000000E+00  0.10916578183E+03  0.10916578183E+03  0.00000000000E+00 0.  1.
         13   -1    0    0    0    0 -0.00000000000E+00 -0.00000000000E+00 -0.10000000000E+04  0.10000000000E+04  0.00000000000E+00 0.  1.
    9000005    2    1    2  501    0 -0.76061272125E-05  0.15215546245E-04 -0.89083438888E+03  0.11091656103E+04  0.66080439058E+03 0.  0.
         13    1    3    3    0    0  0.28025245390E+03  0.29627869989E+02 -0.73491174187E+03  0.78709244497E+03  0.00000000000E+00 0.  1.
          1    1    3    3  501    0 -0.28025246150E+03 -0.29627854773E+02 -0.15592264701E+03  0.32207316530E+03  0.00000000000E+00 0.  1.
         21    1    1    2  502  501  0.76061272463E-05 -0.15215546247E-04  0.17071114820E-03  0.17155658582E-03  0.00000000000E+00 0. -1.
<mgrwt>
<rscale>  1 0.66080439E+03</rscale>
<asrwt>0</asrwt>
<pdfrwt beam="1">  1        1 0.39696732E+00 0.66080439E+03</pdfrwt>
<pdfrwt beam="2">0</pdfrwt>
<totfact> 0.13773361E+00</totfact>
</mgrwt>
</event>
<event>
 6    1  0.6419182E-003  0.6510713E+03  0.7818608E-02  0.9804771E-01
          1   -1    0    0  502    0  0.00000000000E+00  0.00000000000E+00  0.10597349077E+03  0.10597349077E+03  0.00000000000E+00 0.  1.
         13   -1    0    0    0    0 -0.00000000000E+00 -0.00000000000E+00 -0.10000000000E+04  0.10000000000E+04  0.00000000000E+00 0.  1.
    9000005    2    1    2  501    0  0.63252456073E-05  0.50400691975E-06 -0.89402652663E+03  0.11059734723E+04  0.65107134096E+03 0.  0.
         13    1    3    3    0    0  0.15618703287E+03  0.15796212606E+03 -0.42783671860E+02  0.22622304278E+03  0.00000000000E+00 0.  1.
          3    1    3    3  501    0 -0.15618702654E+03 -0.15796212556E+03 -0.85124285477E+03  0.87975042948E+03  0.00000000000E+00 0.  1.
         21    1    1    2  502  501 -0.63252456062E-05 -0.50400692177E-06  0.17399934016E-04  0.18520811503E-04  0.00000000000E+00 0.  1.
<mgrwt>
<rscale>  1 0.65107134E+03</rscale>
<asrwt>0</asrwt>
<pdfrwt beam="1">  1        1 0.38535896E+00 0.65107134E+03</pdfrwt>
<pdfrwt beam="2">0</pdfrwt>
<totfact> 0.15535971E+00</totfact>
</mgrwt>
</event>
<event>
 6    1  0.6419182E-003  0.4903516E+03  0.7818608E-02  0.1016328E+00
          1   -1    0    0  502    0  0.00000000000E+00  0.00000000000E+00  0.78487194094E+02  0.78487194094E+02  0.00000000000E+00 0.  1.
         13   -1    0    0    0    0 -0.00000000000E+00 -0.00000000000E+00 -0.10000000000E+04  0.10000000000E+04  0.00000000000E+00 0.  1.
    9000005    2    1    2  501    0 -0.31745775806E+02 -0.18832835429E+02 -0.91882025238E+03  0.10414774681E+04  0.48896031582E+03 0.  0.
         13    1    3    3    0    0  0.14327804526E+03  0.76713738662E+02 -0.83561531085E+02  0.18274606817E+03  0.00000000000E+00 0.  1.
          1    1    3    3  501    0 -0.17502382107E+03 -0.95546574092E+02 -0.83525872130E+03  0.85873139996E+03  0.00000000000E+00 0.  1.
         21    1    1    2  502  501  0.31745775806E+02  0.18832835429E+02 -0.26925535219E+01  0.37009725969E+02  0.00000000000E+00 0. -1.
<mgrwt>
<rscale>  1 0.49035157E+03</rscale>
<asrwt>0</asrwt>
<pdfrwt beam="1">  1        1 0.28540858E+00 0.49035157E+03</pdfrwt>
<pdfrwt beam="2">0</pdfrwt>
<totfact> 0.43508652E+00</totfact>
</mgrwt>
</event>
<event>
 6    1  0.6419182E-003  0.5439474E+03  0.7818608E-02  0.1002905E+00
          1   -1    0    0  502    0  0.00000000000E+00  0.00000000000E+00  0.75981688524E+02  0.75981688524E+02  0.00000000000E+00 0.  1.
         13   -1    0    0    0    0 -0.00000000000E+00 -0.00000000000E+00 -0.10000000000E+04  0.10000000000E+04  0.00000000000E+00 0.  1.
    9000005    2    1    2  501    0 -0.85721135813E-01  0.17331219337E+00 -0.92602530585E+03  0.10739654019E+04  0.54394740561E+03 0.  0.
         13    1    3    3    0    0  0.13168337108E+03  0.60744799479E+02 -0.87349338293E+01  0.14528158849E+03  0.00000000000E+00 0.  1.
          3    1    3    3  501    0 -0.13176909222E+03 -0.60571487286E+02 -0.91729037202E+03  0.92868381344E+03  0.00000000000E+00 0.  1.
         21    1    1    2  502  501  0.85721135813E-01 -0.17331219337E+00  0.20069943763E+01  0.20162866007E+01  0.00000000000E+00 0.  1.
<mgrwt>
<rscale>  1 0.54394744E+03</rscale>
<asrwt>0</asrwt>
<pdfrwt beam="1">  1        1 0.27629763E+00 0.54394744E+03</pdfrwt>
<pdfrwt beam="2">0</pdfrwt>
<totfact> 0.47156659E+00</totfact>
</mgrwt>
</event>
<event>
 6    1  0.6419182E-003  0.6498004E+03  0.7818608E-02  0.9807154E-01
          1   -1    0    0  502    0  0.00000000000E+00  0.00000000000E+00  0.10778290615E+03  0.10778290615E+03  0.00000000000E+00 0.  1.
         13   -1    0    0    0    0 -0.00000000000E+00 -0.00000000000E+00 -0.10000000000E+04  0.10000000000E+04  0.00000000000E+00 0.  1.
    9000005    2    1    2  501    0 -0.23034527695E+01  0.57421394984E+01 -0.87821833362E+03  0.10924778956E+04  0.64977090791E+03 0.  0.
         13    1    3    3    0    0  0.68102324700E+02 -0.22218647989E+03 -0.81243654954E+03  0.84501947049E+03  0.00000000000E+00 0.  1.
          3    1    3    3  501    0 -0.70405777469E+02  0.22792861938E+03 -0.65781784087E+02  0.24745842510E+03  0.00000000000E+00 0.  1.
         21    1    1    2  502  501  0.23034527695E+01 -0.57421394984E+01 -0.13998760223E+02  0.15305010567E+02  0.00000000000E+00 0. -1.
<mgrwt>
<rscale>  1 0.64980036E+03</rscale>
<asrwt>0</asrwt>
<pdfrwt beam="1">  1        1 0.39193867E+00 0.64980036E+03</pdfrwt>
<pdfrwt beam="2">0</pdfrwt>
<totfact> 0.14530665E+00</totfact>
</mgrwt>
</event>
<event>
 6    1  0.6419182E-003  0.6587864E+03  0.7818608E-02  0.9790430E-01
          3   -1    0    0  502    0  0.00000000000E+00  0.00000000000E+00  0.10850553418E+03  0.10850553418E+03  0.00000000000E+00 0.  1.
         13   -1    0    0    0    0 -0.00000000000E+00 -0.00000000000E+00 -0.10000000000E+04  0.10000000000E+04  0.00000000000E+00 0.  1.
    9000005    2    1    2  501    0  0.11429005050E-03 -0.24855779566E-03 -0.89150011770E+03  0.11084998757E+04  0.65878639522E+03 0.  0.
         13    1    3    3    0    0  0.35157491351E+02  0.32750453524E+03 -0.44216803264E+03  0.55136905870E+03  0.00000000000E+00 0.  1.
          1    1    3    3  501    0 -0.35157377061E+02 -0.32750478380E+03 -0.44933208506E+03  0.55713081699E+03  0.00000000000E+00 0.  1.
         21    1    1    2  502  501 -0.11429005051E-03  0.24855779564E-03  0.56518754418E-02  0.56584926618E-02  0.00000000000E+00 0.  1.
<mgrwt>
<rscale>  1 0.65878640E+03</rscale>
<asrwt>0</asrwt>
<pdfrwt beam="1">  1        3 0.39456641E+00 0.65878640E+03</pdfrwt>
<pdfrwt beam="2">0</pdfrwt>
<totfact> 0.63163024E-02</totfact>
</mgrwt>
</event>
<event>
 6    1  0.6419182E-003  0.5890625E+03  0.7818608E-02  0.9928361E-01
          1   -1    0    0  502    0  0.00000000000E+00  0.00000000000E+00  0.86889199691E+02  0.86889199691E+02  0.00000000000E+00 0.  1.
         13   -1    0    0    0    0 -0.00000000000E+00 -0.00000000000E+00 -0.10000000000E+04  0.10000000000E+04  0.00000000000E+00 0.  1.
    9000005    2    1    2  501    0 -0.35203477416E-01  0.93454674675E-02 -0.91324878827E+03  0.10867464856E+04  0.58906245294E+03 0.  0.
         13    1    3    3    0    0  0.85001068215E+02  0.41258886753E+02  0.58028341008E+02  0.11088176448E+03  0.00000000000E+00 0.  1.
          3    1    3    3  501    0 -0.85036271693E+02 -0.41249541285E+02 -0.97127712928E+03  0.97586472116E+03  0.00000000000E+00 0.  1.
         21    1    1    2  502  501  0.35203477416E-01 -0.93454674675E-02  0.13798795872E+00  0.14271404744E+00  0.00000000000E+00 0.  1.
<mgrwt>
<rscale>  1 0.58906245E+03</rscale>
<asrwt>0</asrwt>
<pdfrwt beam="1">  1        1 0.31596139E+00 0.58906245E+03</pdfrwt>
<pdfrwt beam="2">0</pdfrwt>
<totfact> 0.31546380E+00</totfact>
</mgrwt>
</event>
<event>
 6    1  0.6419182E-003  0.6588611E+03  0.7818608E-02  0.9790292E-01
          1   -1    0    0  502    0  0.00000000000E+00  0.00000000000E+00  0.11174420778E+03  0.11174420778E+03  0.00000000000E+00 0.  1.
         13   -1    0    0    0    0 -0.00000000000E+00 -0.00000000000E+00 -0.10000000000E+04  0.10000000000E+04  0.00000000000E+00 0.  1.
    9000005    2    1    2  501    0  0.53605137518E+00 -0.17873638559E+00 -0.89144799251E+03  0.11085023811E+04  0.65886090048E+03 0.  0.
         13    1    3    3    0    0 -0.11290925250E+03  0.30891157885E+03 -0.47120996022E+03  0.57464222735E+03  0.00000000000E+00 0.  1.
          1    1    3    3  501    0  0.11344530387E+03 -0.30909031523E+03 -0.42023803229E+03  0.53386015371E+03  0.00000000000E+00 0.  1.
         21    1    1    2  502  501 -0.53605137518E+00  0.17873638559E+00  0.31922002913E+01  0.32418267184E+01  0.00000000000E+00 0.  1.
<mgrwt>
<rscale>  1 0.65886114E+03</rscale>
<asrwt>0</asrwt>
<pdfrwt beam="1">  1        1 0.40634343E+00 0.65886114E+03</pdfrwt>
<pdfrwt beam="2">0</pdfrwt>
<totfact> 0.12512781E+00</totfact>
</mgrwt>
</event>
<event>
 6    1  0.6419182E-003  0.6454829E+03  0.7818608E-02  0.9815292E-01
          1   -1    0    0  502    0  0.00000000000E+00  0.00000000000E+00  0.10416208629E+03  0.10416208629E+03  0.00000000000E+00 0.  1.
         13   -1    0    0    0    0 -0.00000000000E+00 -0.00000000000E+00 -0.10000000000E+04  0.10000000000E+04  0.00000000000E+00 0.  1.
    9000005    2    1    2  501    0 -0.23773959441E-05 -0.16267097635E-04 -0.89583794206E+03  0.11041620535E+04  0.64548293701E+03 0.  0.
         13    1    3    3    0    0 -0.90424865270E+02  0.27612144419E+03 -0.20756715127E+03  0.35707678515E+03  0.00000000000E+00 0.  1.
          3    1    3    3  501    0  0.90424862893E+02 -0.27612146046E+03 -0.68827079079E+03  0.74708526837E+03  0.00000000000E+00 0.  1.
         21    1    1    2  502  501  0.23773959309E-05  0.16267097593E-04  0.28350916552E-04  0.32772624931E-04  0.00000000000E+00 0. -1.
<mgrwt>
<rscale>  1 0.64548294E+03</rscale>
<asrwt>0</asrwt>
<pdfrwt beam="1">  1        1 0.37877202E+00 0.64548294E+03</pdfrwt>
<pdfrwt beam="2">0</pdfrwt>
<totfact> 0.16629467E+00</totfact>
</mgrwt>
</event>
<event>
 6    1  0.6419182E-003  0.6562879E+03  0.7818608E-02  0.9795051E-01
          1   -1    0    0  502    0  0.00000000000E+00  0.00000000000E+00  0.10847333941E+03  0.10847333941E+03  0.00000000000E+00 0.  1.
         13   -1    0    0    0    0 -0.00000000000E+00 -0.00000000000E+00 -0.10000000000E+04  0.10000000000E+04  0.00000000000E+00 0.  1.
    9000005    2    1    2  501    0  0.66679525421E-01  0.12562071574E+00 -0.89231449392E+03  0.11076727721E+04  0.65628788932E+03 0.  0.
         13    1    3    3    0    0  0.66609944079E+02  0.30222562245E+03 -0.26179217944E+03  0.40535460616E+03  0.00000000000E+00 0.  1.
          1    1    3    3  501    0 -0.66543264554E+02 -0.30210000173E+03 -0.63052231448E+03  0.70231816590E+03  0.00000000000E+00 0.  1.
         21    1    1    2  502  501 -0.66679525421E-01 -0.12562071574E+00  0.78783333043E+00  0.80056734874E+00  0.00000000000E+00 0. -1.
<mgrwt>
<rscale>  1 0.65628790E+03</rscale>
<asrwt>0</asrwt>
<pdfrwt beam="1">  1        1 0.39444934E+00 0.65628790E+03</pdfrwt>
<pdfrwt beam="2">0</pdfrwt>
<totfact> 0.14145128E+00</totfact>
</mgrwt>
</event>
<event>
 6    1  0.6419182E-003  0.6521922E+03  0.7818608E-02  0.9802674E-01
          1   -1    0    0  502    0  0.00000000000E+00  0.00000000000E+00  0.10635854855E+03  0.10635854855E+03  0.00000000000E+00 0.  1.
         13   -1    0    0    0    0 -0.00000000000E+00 -0.00000000000E+00 -0.10000000000E+04  0.10000000000E+04  0.00000000000E+00 0.  1.
    9000005    2    1    2  501    0  0.32459173040E-01 -0.45721449349E-02 -0.89364512954E+03  0.11063255632E+04  0.65219217508E+03 0.  0.
         13    1    3    3    0    0  0.82738750190E+02 -0.19023494289E+02  0.87266374881E+02  0.12174980206E+03  0.00000000000E+00 0.  1.
          1    1    3    3  501    0 -0.82706291017E+02  0.19018922144E+02 -0.98091150442E+03  0.98457576117E+03  0.00000000000E+00 0.  1.
         21    1    1    2  502  501 -0.32459173040E-01  0.45721449349E-02  0.36780867414E-02  0.32985311061E-01  0.00000000000E+00 0. -1.
<mgrwt>
<rscale>  1 0.65219218E+03</rscale>
<asrwt>0</asrwt>
<pdfrwt beam="1">  1        1 0.38675917E+00 0.65219218E+03</pdfrwt>
<pdfrwt beam="2">0</pdfrwt>
<totfact> 0.15312693E+00</totfact>
</mgrwt>
</event>
<event>
 6    1  0.6419182E-003  0.6412830E+03  0.7818608E-02  0.9823275E-01
          3   -1    0    0  502    0  0.00000000000E+00  0.00000000000E+00  0.10281299040E+03  0.10281299040E+03  0.00000000000E+00 0.  1.
         13   -1    0    0    0    0 -0.00000000000E+00 -0.00000000000E+00 -0.10000000000E+04  0.10000000000E+04  0.00000000000E+00 0.  1.
    9000005    2    1    2  501    0 -0.14996376649E-03 -0.34619977153E-03 -0.89718902359E+03  0.11028109414E+04  0.64128295500E+03 0.  0.
         13    1    3    3    0    0 -0.22365433919E+03 -0.16717773430E+02 -0.84266462900E+03  0.87200024332E+03  0.00000000000E+00 0.  1.
          1    1    3    3  501    0  0.22365418923E+03  0.16717427230E+02 -0.54524394591E+02  0.23081069806E+03  0.00000000000E+00 0.  1.
         21    1    1    2  502  501  0.14996376650E-03  0.34619977154E-03  0.20139903026E-02  0.20490242439E-02  0.00000000000E+00 0.  1.
<mgrwt>
<rscale>  1 0.64128296E+03</rscale>
<asrwt>0</asrwt>
<pdfrwt beam="1">  1        3 0.37386621E+00 0.64128296E+03</pdfrwt>
<pdfrwt beam="2">0</pdfrwt>
<totfact> 0.81448192E-02</totfact>
</mgrwt>
</event>
<event>
 6    1  0.6419182E-003  0.6535101E+03  0.7818608E-02  0.9800215E-01
          1   -1    0    0  502    0  0.00000000000E+00  0.00000000000E+00  0.10685407640E+03  0.10685407640E+03  0.00000000000E+00 0.  1.
         13   -1    0    0    0    0 -0.00000000000E+00 -0.00000000000E+00 -0.10000000000E+04  0.10000000000E+04  0.00000000000E+00 0.  1.
    9000005    2    1    2  501    0 -0.48559851212E-02  0.74395077360E-02 -0.89323089085E+03  0.11067686460E+04  0.65351006971E+03 0.  0.
         13    1    3    3    0    0 -0.17283475247E+03 -0.48639071058E+02 -0.90897099124E+03  0.92653433493E+03  0.00000000000E+00 0.  1.
          3    1    3    3  501    0  0.17282989648E+03  0.48646510565E+02  0.15740100386E+02  0.18023431102E+03  0.00000000000E+00 0.  1.
         21    1    1    2  502  501  0.48559851212E-02 -0.74395077360E-02  0.84967250988E-01  0.85430443095E-01  0.00000000000E+00 0.  1.
<mgrwt>
<rscale>  1 0.65351007E+03</rscale>
<asrwt>0</asrwt>
<pdfrwt beam="1">  1        1 0.38856110E+00 0.65351007E+03</pdfrwt>
<pdfrwt beam="2">0</pdfrwt>
<totfact> 0.15030186E+00</totfact>
</mgrwt>
</event>
